
     Program PWSCF v.6.7MaX starts on  6Jan2022 at 22:45:49 

     This program is part of the open-source Quantum ESPRESSO suite
     for quantum simulation of materials; please cite
         "P. Giannozzi et al., J. Phys.:Condens. Matter 21 395502 (2009);
         "P. Giannozzi et al., J. Phys.:Condens. Matter 29 465901 (2017);
          URL http://www.quantum-espresso.org", 
     in publications or presentations arising from this work. More details at
     http://www.quantum-espresso.org/quote

     Parallel version (MPI & OpenMP), running on      72 processor cores
     Number of MPI processes:                72
     Threads/MPI process:                     1

     MPI processes distributed on     1 nodes
     R & G space division:  proc/nbgrp/npool/nimage =      72
     Reading input from scf_8.in
Warning: card &CELL ignored
Warning: card CELL_DYNAMICS = 'BFGS', ignored
Warning: card CELL_FACTOR = 2.0, ignored
Warning: card PRESS = 0.0, ignored
Warning: card / ignored

     Current dimensions of program PWSCF are:
     Max number of different atomic species (ntypx) = 10
     Max number of k-points (npk) =  40000
     Max angular momentum in pseudopotentials (lmaxx) =  3
     file Pd.pbe-spn-kjpaw_psl.1.0.0.UPF: wavefunction(s)  4S 5S 4D renormalized

     Subspace diagonalization in iterative solution of the eigenvalue problem:
     one sub-group per band group will be used
     ELPA distributed-memory algorithm (size of sub-group:  8*  8 procs)

     Found symmetry operation: I + (  0.2500  0.2500  0.0000)
     This is a supercell, fractional translations are disabled
     Message from routine setup:
     using ibrav=0 with symmetry is DISCOURAGED, use correct ibrav instead
 
     Parallelization info
     --------------------
     sticks:   dense  smooth     PW     G-vecs:    dense   smooth      PW
     Min         104      68     18                 8324     4464     628
     Max         105      69     19                 8333     4473     637
     Sum        7521    4957   1353               599583   321845   45491
 


     bravais-lattice index     =            0
     lattice parameter (alat)  =      14.8394  a.u.
     unit-cell volume          =    3982.5883 (a.u.)^3
     number of atoms/cell      =           32
     number of atomic types    =            1
     number of electrons       =       576.00
     number of Kohn-Sham states=          346
     kinetic-energy cutoff     =      71.0000  Ry
     charge density cutoff     =     430.0000  Ry
     scf convergence threshold =      1.0E-06
     mixing beta               =       0.1000
     number of iterations used =           10  TF        mixing
     Exchange-correlation= SLA  PW   PBX  PBC
                           (   1   4   3   4   0   0   0)

     celldm(1)=  14.839420  celldm(2)=   0.000000  celldm(3)=   0.000000
     celldm(4)=   0.000000  celldm(5)=   0.000000  celldm(6)=   0.000000

     crystal axes: (cart. coord. in units of alat)
               a(1) = (   1.000000   0.000000   0.000000 )  
               a(2) = (   0.000000   1.000000   0.000000 )  
               a(3) = (   0.000000   0.000000   1.218750 )  

     reciprocal axes: (cart. coord. in units 2 pi/alat)
               b(1) = (  1.000000  0.000000  0.000000 )  
               b(2) = (  0.000000  1.000000  0.000000 )  
               b(3) = (  0.000000  0.000000  0.820513 )  


     PseudoPot. # 1 for Pd read from file:
     /rds/homes/b/bxp912/pp/Pd.pbe-spn-kjpaw_psl.1.0.0.UPF
     MD5 check sum: 790f2ebce206edfd9790dcb9844eca51
     Pseudo is Projector augmented-wave + core cor, Zval = 18.0
     Generated using &quot;atomic&quot; code by A. Dal Corso  v.6.3
     Shape of augmentation charge: PSQ
     Using radial grid of 1235 points,  6 beta functions with: 
                l(1) =   0
                l(2) =   0
                l(3) =   1
                l(4) =   1
                l(5) =   2
                l(6) =   2
     Q(r) pseudized with 0 coefficients 


     atomic species   valence    mass     pseudopotential
        Pd            18.00   106.42000     Pd( 1.00)

      8 Sym. Ops. (no inversion) found



   Cartesian axes

     site n.     atom                  positions (alat units)
         1           Pd  tau(   1) = (   0.0000000   0.0000000   0.0000000  )
         2           Pd  tau(   2) = (   0.2500000   0.2500000   0.0000000  )
         3           Pd  tau(   3) = (   0.2500000   0.0000000   0.2500000  )
         4           Pd  tau(   4) = (   0.0000000   0.2500000   0.2500000  )
         5           Pd  tau(   5) = (   0.0000000   0.0000000   0.7187500  )
         6           Pd  tau(   6) = (   0.2500000   0.2500000   0.7187500  )
         7           Pd  tau(   7) = (   0.2500000   0.0000000   0.9687500  )
         8           Pd  tau(   8) = (   0.0000000   0.2500000   0.9687500  )
         9           Pd  tau(   9) = (   0.0000000   0.5000000   0.0000000  )
        10           Pd  tau(  10) = (   0.2500000   0.7500000   0.0000000  )
        11           Pd  tau(  11) = (   0.2500000   0.5000000   0.2500000  )
        12           Pd  tau(  12) = (   0.0000000   0.7500000   0.2500000  )
        13           Pd  tau(  13) = (   0.0000000   0.5000000   0.7187500  )
        14           Pd  tau(  14) = (   0.2500000   0.7500000   0.7187500  )
        15           Pd  tau(  15) = (   0.2500000   0.5000000   0.9687500  )
        16           Pd  tau(  16) = (   0.0000000   0.7500000   0.9687500  )
        17           Pd  tau(  17) = (   0.5000000   0.0000000   0.0000000  )
        18           Pd  tau(  18) = (   0.7500000   0.2500000   0.0000000  )
        19           Pd  tau(  19) = (   0.7500000   0.0000000   0.2500000  )
        20           Pd  tau(  20) = (   0.5000000   0.2500000   0.2500000  )
        21           Pd  tau(  21) = (   0.5000000   0.0000000   0.7187500  )
        22           Pd  tau(  22) = (   0.7500000   0.2500000   0.7187500  )
        23           Pd  tau(  23) = (   0.7500000   0.0000000   0.9687500  )
        24           Pd  tau(  24) = (   0.5000000   0.2500000   0.9687500  )
        25           Pd  tau(  25) = (   0.5000000   0.5000000   0.0000000  )
        26           Pd  tau(  26) = (   0.7500000   0.7500000   0.0000000  )
        27           Pd  tau(  27) = (   0.7500000   0.5000000   0.2500000  )
        28           Pd  tau(  28) = (   0.5000000   0.7500000   0.2500000  )
        29           Pd  tau(  29) = (   0.5000000   0.5000000   0.7187500  )
        30           Pd  tau(  30) = (   0.7500000   0.7500000   0.7187500  )
        31           Pd  tau(  31) = (   0.7500000   0.5000000   0.9687500  )
        32           Pd  tau(  32) = (   0.5000000   0.7500000   0.9687500  )

     number of k points=    75  Marzari-Vanderbilt smearing, width (Ry)=  0.0400
                       cart. coord. in units 2pi/alat
        k(    1) = (   0.0555556   0.0555556   0.0455840), wk =   0.0219479
        k(    2) = (   0.0555556   0.0555556   0.1367521), wk =   0.0219479
        k(    3) = (   0.0555556   0.0555556   0.2279202), wk =   0.0219479
        k(    4) = (   0.0555556   0.0555556   0.3190883), wk =   0.0219479
        k(    5) = (   0.0555556   0.0555556  -0.4102564), wk =   0.0109739
        k(    6) = (   0.0555556   0.1666667   0.0455840), wk =   0.0438957
        k(    7) = (   0.0555556   0.1666667   0.1367521), wk =   0.0438957
        k(    8) = (   0.0555556   0.1666667   0.2279202), wk =   0.0438957
        k(    9) = (   0.0555556   0.1666667   0.3190883), wk =   0.0438957
        k(   10) = (   0.0555556   0.1666667  -0.4102564), wk =   0.0219479
        k(   11) = (   0.0555556   0.2777778   0.0455840), wk =   0.0438957
        k(   12) = (   0.0555556   0.2777778   0.1367521), wk =   0.0438957
        k(   13) = (   0.0555556   0.2777778   0.2279202), wk =   0.0438957
        k(   14) = (   0.0555556   0.2777778   0.3190883), wk =   0.0438957
        k(   15) = (   0.0555556   0.2777778  -0.4102564), wk =   0.0219479
        k(   16) = (   0.0555556   0.3888889   0.0455840), wk =   0.0438957
        k(   17) = (   0.0555556   0.3888889   0.1367521), wk =   0.0438957
        k(   18) = (   0.0555556   0.3888889   0.2279202), wk =   0.0438957
        k(   19) = (   0.0555556   0.3888889   0.3190883), wk =   0.0438957
        k(   20) = (   0.0555556   0.3888889  -0.4102564), wk =   0.0219479
        k(   21) = (   0.0555556  -0.5000000   0.0455840), wk =   0.0219479
        k(   22) = (   0.0555556  -0.5000000   0.1367521), wk =   0.0219479
        k(   23) = (   0.0555556  -0.5000000   0.2279202), wk =   0.0219479
        k(   24) = (   0.0555556  -0.5000000   0.3190883), wk =   0.0219479
        k(   25) = (   0.0555556  -0.5000000  -0.4102564), wk =   0.0109739
        k(   26) = (   0.1666667   0.1666667   0.0455840), wk =   0.0219479
        k(   27) = (   0.1666667   0.1666667   0.1367521), wk =   0.0219479
        k(   28) = (   0.1666667   0.1666667   0.2279202), wk =   0.0219479
        k(   29) = (   0.1666667   0.1666667   0.3190883), wk =   0.0219479
        k(   30) = (   0.1666667   0.1666667  -0.4102564), wk =   0.0109739
        k(   31) = (   0.1666667   0.2777778   0.0455840), wk =   0.0438957
        k(   32) = (   0.1666667   0.2777778   0.1367521), wk =   0.0438957
        k(   33) = (   0.1666667   0.2777778   0.2279202), wk =   0.0438957
        k(   34) = (   0.1666667   0.2777778   0.3190883), wk =   0.0438957
        k(   35) = (   0.1666667   0.2777778  -0.4102564), wk =   0.0219479
        k(   36) = (   0.1666667   0.3888889   0.0455840), wk =   0.0438957
        k(   37) = (   0.1666667   0.3888889   0.1367521), wk =   0.0438957
        k(   38) = (   0.1666667   0.3888889   0.2279202), wk =   0.0438957
        k(   39) = (   0.1666667   0.3888889   0.3190883), wk =   0.0438957
        k(   40) = (   0.1666667   0.3888889  -0.4102564), wk =   0.0219479
        k(   41) = (   0.1666667  -0.5000000   0.0455840), wk =   0.0219479
        k(   42) = (   0.1666667  -0.5000000   0.1367521), wk =   0.0219479
        k(   43) = (   0.1666667  -0.5000000   0.2279202), wk =   0.0219479
        k(   44) = (   0.1666667  -0.5000000   0.3190883), wk =   0.0219479
        k(   45) = (   0.1666667  -0.5000000  -0.4102564), wk =   0.0109739
        k(   46) = (   0.2777778   0.2777778   0.0455840), wk =   0.0219479
        k(   47) = (   0.2777778   0.2777778   0.1367521), wk =   0.0219479
        k(   48) = (   0.2777778   0.2777778   0.2279202), wk =   0.0219479
        k(   49) = (   0.2777778   0.2777778   0.3190883), wk =   0.0219479
        k(   50) = (   0.2777778   0.2777778  -0.4102564), wk =   0.0109739
        k(   51) = (   0.2777778   0.3888889   0.0455840), wk =   0.0438957
        k(   52) = (   0.2777778   0.3888889   0.1367521), wk =   0.0438957
        k(   53) = (   0.2777778   0.3888889   0.2279202), wk =   0.0438957
        k(   54) = (   0.2777778   0.3888889   0.3190883), wk =   0.0438957
        k(   55) = (   0.2777778   0.3888889  -0.4102564), wk =   0.0219479
        k(   56) = (   0.2777778  -0.5000000   0.0455840), wk =   0.0219479
        k(   57) = (   0.2777778  -0.5000000   0.1367521), wk =   0.0219479
        k(   58) = (   0.2777778  -0.5000000   0.2279202), wk =   0.0219479
        k(   59) = (   0.2777778  -0.5000000   0.3190883), wk =   0.0219479
        k(   60) = (   0.2777778  -0.5000000  -0.4102564), wk =   0.0109739
        k(   61) = (   0.3888889   0.3888889   0.0455840), wk =   0.0219479
        k(   62) = (   0.3888889   0.3888889   0.1367521), wk =   0.0219479
        k(   63) = (   0.3888889   0.3888889   0.2279202), wk =   0.0219479
        k(   64) = (   0.3888889   0.3888889   0.3190883), wk =   0.0219479
        k(   65) = (   0.3888889   0.3888889  -0.4102564), wk =   0.0109739
        k(   66) = (   0.3888889  -0.5000000   0.0455840), wk =   0.0219479
        k(   67) = (   0.3888889  -0.5000000   0.1367521), wk =   0.0219479
        k(   68) = (   0.3888889  -0.5000000   0.2279202), wk =   0.0219479
        k(   69) = (   0.3888889  -0.5000000   0.3190883), wk =   0.0219479
        k(   70) = (   0.3888889  -0.5000000  -0.4102564), wk =   0.0109739
        k(   71) = (  -0.5000000  -0.5000000   0.0455840), wk =   0.0054870
        k(   72) = (  -0.5000000  -0.5000000   0.1367521), wk =   0.0054870
        k(   73) = (  -0.5000000  -0.5000000   0.2279202), wk =   0.0054870
        k(   74) = (  -0.5000000  -0.5000000   0.3190883), wk =   0.0054870
        k(   75) = (  -0.5000000  -0.5000000  -0.4102564), wk =   0.0027435

     Dense  grid:   599583 G-vectors     FFT dimensions: ( 100, 100, 120)

     Smooth grid:   321845 G-vectors     FFT dimensions: (  80,  80, 100)

     Estimated max dynamical RAM per process >     271.54 MB

     Estimated total dynamical RAM >      19.09 GB

     Check: negative core charge=   -0.000001

     Initial potential from superposition of free atoms

     starting charge  575.98776, renormalised to  576.00000
     Starting wfcs are  320 randomized atomic wfcs +   26 random wfcs
     Checking if some PAW data can be deallocated... 

     total cpu time spent up to now is       25.6 secs

     Self-consistent Calculation

     iteration #  1     ecut=    71.00 Ry     beta= 0.10
     Davidson diagonalization with overlap
     ethr =  1.00E-02,  avg # of iterations =  3.6

     Threshold (ethr) on eigenvalues was too large:
     Diagonalizing with lowered threshold

     Davidson diagonalization with overlap
     ethr =  6.09E-04,  avg # of iterations =  1.2

     total cpu time spent up to now is      181.6 secs

     total energy              =  -16384.76049677 Ry
     estimated scf accuracy    <       3.49702441 Ry

     iteration #  2     ecut=    71.00 Ry     beta= 0.10
     Davidson diagonalization with overlap
     ethr =  6.07E-04,  avg # of iterations =  1.2

     total cpu time spent up to now is      248.2 secs

     total energy              =  -16384.28195066 Ry
     estimated scf accuracy    <       3.06248761 Ry

     iteration #  3     ecut=    71.00 Ry     beta= 0.10
     Davidson diagonalization with overlap
     ethr =  5.32E-04,  avg # of iterations =  1.9

     total cpu time spent up to now is      317.6 secs

     total energy              =  -16384.21950977 Ry
     estimated scf accuracy    <       1.69090590 Ry

     iteration #  4     ecut=    71.00 Ry     beta= 0.10
     Davidson diagonalization with overlap
     ethr =  2.94E-04,  avg # of iterations =  3.1

     total cpu time spent up to now is      392.6 secs

     total energy              =  -16384.33342253 Ry
     estimated scf accuracy    <       0.38869814 Ry

     iteration #  5     ecut=    71.00 Ry     beta= 0.10
     Davidson diagonalization with overlap
     ethr =  6.75E-05,  avg # of iterations =  3.7

     total cpu time spent up to now is      470.3 secs

     total energy              =  -16384.14609258 Ry
     estimated scf accuracy    <       0.57428017 Ry

     iteration #  6     ecut=    71.00 Ry     beta= 0.10
     Davidson diagonalization with overlap
     ethr =  6.75E-05,  avg # of iterations =  4.4

     total cpu time spent up to now is      561.3 secs

     total energy              =  -16384.18959707 Ry
     estimated scf accuracy    <       0.06947860 Ry

     iteration #  7     ecut=    71.00 Ry     beta= 0.10
     Davidson diagonalization with overlap
     c_bands:  1 eigenvalues not converged
     ethr =  1.21E-05,  avg # of iterations =  6.9

     total cpu time spent up to now is      646.1 secs

     total energy              =  -16384.19430053 Ry
     estimated scf accuracy    <       0.03489273 Ry

     iteration #  8     ecut=    71.00 Ry     beta= 0.10
     Davidson diagonalization with overlap
     ethr =  6.06E-06,  avg # of iterations =  2.1

     total cpu time spent up to now is      719.8 secs

     total energy              =  -16384.18801213 Ry
     estimated scf accuracy    <       0.03627433 Ry

     iteration #  9     ecut=    71.00 Ry     beta= 0.10
     Davidson diagonalization with overlap
     ethr =  6.06E-06,  avg # of iterations =  2.5

     total cpu time spent up to now is      795.0 secs

     total energy              =  -16384.19079756 Ry
     estimated scf accuracy    <       0.00350931 Ry

     iteration # 10     ecut=    71.00 Ry     beta= 0.10
     Davidson diagonalization with overlap
     c_bands:  1 eigenvalues not converged
     ethr =  6.09E-07,  avg # of iterations =  3.9

     total cpu time spent up to now is      873.3 secs

     total energy              =  -16384.19137088 Ry
     estimated scf accuracy    <       0.00181049 Ry

     iteration # 11     ecut=    71.00 Ry     beta= 0.10
     Davidson diagonalization with overlap
     c_bands:  1 eigenvalues not converged
     ethr =  3.14E-07,  avg # of iterations =  1.3

     total cpu time spent up to now is      941.0 secs

     total energy              =  -16384.19187491 Ry
     estimated scf accuracy    <       0.00099115 Ry

     iteration # 12     ecut=    71.00 Ry     beta= 0.10
     Davidson diagonalization with overlap
     ethr =  1.72E-07,  avg # of iterations =  2.1

     total cpu time spent up to now is     1018.8 secs

     total energy              =  -16384.19205421 Ry
     estimated scf accuracy    <       0.00020205 Ry

     iteration # 13     ecut=    71.00 Ry     beta= 0.10
     Davidson diagonalization with overlap
     ethr =  3.51E-08,  avg # of iterations =  2.0

     total cpu time spent up to now is     1093.7 secs

     total energy              =  -16384.19210322 Ry
     estimated scf accuracy    <       0.00018956 Ry

     iteration # 14     ecut=    71.00 Ry     beta= 0.10
     Davidson diagonalization with overlap
     ethr =  3.29E-08,  avg # of iterations =  2.0

     total cpu time spent up to now is     1168.4 secs

     total energy              =  -16384.19213544 Ry
     estimated scf accuracy    <       0.00005971 Ry

     iteration # 15     ecut=    71.00 Ry     beta= 0.10
     Davidson diagonalization with overlap
     ethr =  1.04E-08,  avg # of iterations =  2.0

     total cpu time spent up to now is     1252.8 secs

     total energy              =  -16384.19214584 Ry
     estimated scf accuracy    <       0.00002915 Ry

     iteration # 16     ecut=    71.00 Ry     beta= 0.10
     Davidson diagonalization with overlap
     ethr =  5.06E-09,  avg # of iterations =  1.8

     total cpu time spent up to now is     1325.5 secs

     total energy              =  -16384.19215071 Ry
     estimated scf accuracy    <       0.00000839 Ry

     iteration # 17     ecut=    71.00 Ry     beta= 0.10
     Davidson diagonalization with overlap
     ethr =  1.46E-09,  avg # of iterations =  2.1

     total cpu time spent up to now is     1400.1 secs

     total energy              =  -16384.19215337 Ry
     estimated scf accuracy    <       0.00000490 Ry

     iteration # 18     ecut=    71.00 Ry     beta= 0.10
     Davidson diagonalization with overlap
     ethr =  8.50E-10,  avg # of iterations =  2.0

     total cpu time spent up to now is     1477.2 secs

     total energy              =  -16384.19215457 Ry
     estimated scf accuracy    <       0.00000131 Ry

     iteration # 19     ecut=    71.00 Ry     beta= 0.10
     Davidson diagonalization with overlap
     ethr =  2.27E-10,  avg # of iterations =  2.0

     total cpu time spent up to now is     1553.0 secs

     End of self-consistent calculation

          k = 0.0556 0.0556 0.0456 ( 40237 PWs)   bands (ev):

   -69.3346 -69.3125 -69.3124 -69.3082 -69.3082 -69.3037 -69.3026 -69.3020
   -69.3020 -69.3009 -69.2950 -69.2950 -69.2936 -69.2936 -69.2863 -69.2863
   -68.7819 -68.7818 -68.7675 -68.7675 -68.7675 -68.7675 -68.7663 -68.7663
   -68.7661 -68.7660 -68.7647 -68.7647 -68.7647 -68.7647 -68.7502 -68.7502
   -35.1705 -35.1704 -35.1702 -35.1690 -35.1583 -35.1583 -35.1445 -35.1115
   -35.1115 -35.1093 -35.1093 -35.0761 -35.0761 -35.0643 -35.0643 -35.0551
   -35.0551 -35.0537 -35.0537 -35.0436 -35.0436 -35.0085 -35.0085 -35.0074
   -35.0074 -35.0048 -35.0001 -35.0000 -34.9947 -34.9939 -34.9939 -34.9780
   -34.9780 -34.9757 -34.9635 -34.9635 -34.9604 -34.9583 -34.9453 -34.9453
   -34.9402 -34.9402 -34.9103 -34.9085 -34.9084 -34.9042 -34.8922 -34.8907
   -34.6418 -34.6418 -34.6411 -34.6401 -34.6311 -34.6311 -34.6288 -34.6288
   -34.5606 -34.5606 -34.5604 -34.5604 -34.5457 -34.5457 -34.5455 -34.5455
   -34.5435 -34.5435 -34.5430 -34.5430 -34.5283 -34.5283 -34.5281 -34.5281
   -34.4578 -34.4576 -34.4563 -34.4561 -34.4445 -34.4445 -34.4432 -34.4432
   -34.4000 -34.3954 -34.3852 -34.3852 -34.3850 -34.3850 -34.3840 -34.3838
   -34.3837 -34.3836 -34.3832 -34.3832 -34.3830 -34.3830 -34.3738 -34.3737
     8.4410   9.7932   9.9971   9.9971  10.0628  10.0699  10.0755  10.0755
    10.1423  10.2227  10.2742  10.2742  10.3524  10.3524  10.5380  10.5380
    10.5801  10.8228  10.9540  10.9540  10.9683  10.9683  10.9967  10.9967
    11.0207  11.0207  11.0989  11.0989  11.1115  11.1164  11.1303  11.1303
    11.2317  11.2317  11.3018  11.3019  11.3327  11.3327  11.4117  11.4117
    11.4317  11.4317  11.4877  11.4877  11.5424  11.6080  11.6080  11.6255
    11.6255  11.7692  11.7692  11.8478  11.8924  11.8924  11.9301  11.9301
    11.9513  11.9600  11.9600  11.9713  12.1428  12.1429  12.1542  12.1673
    12.1691  12.1691  12.3156  12.3182  12.3206  12.3206  12.3325  12.3325
    12.3589  12.3680  12.3733  12.3733  12.4043  12.4043  12.7008  12.7008
    12.7236  12.7486  12.8454  12.8454  12.8481  12.8481  12.9341  12.9341
    13.0300  13.0476  13.0476  13.0984  13.1153  13.1183  13.1183  13.1201
    13.1201  13.1542  13.1542  13.2136  13.2136  13.2264  13.2264  13.2487
    13.2905  13.3105  13.3105  13.3392  13.3392  13.3972  13.4250  13.4250
    13.4799  13.4800  13.5202  13.5241  13.5241  13.6653  13.6653  13.7565
    13.7770  13.7770  13.7891  13.7891  13.9103  13.9103  13.9391  13.9392
    14.0706  14.0706  14.0730  14.0730  14.0945  14.0976  14.0976  14.1218
    14.1219  14.1240  14.2044  14.2044  14.2332  14.2438  14.3040  14.3475
    14.4735  14.4735  14.4756  14.4756  14.5224  14.5881  14.5881  14.6418
    14.6418  14.6435  14.6458  14.6994  14.7784  14.8175  14.8175  14.8242
    14.8242  14.8463  14.9110  15.0106  15.0107  15.4020  15.4020  15.7159
    15.7159  16.1445  16.1445  16.1778  16.4597  16.5181  16.5181  16.6658
    16.6658  16.7147  17.1321  17.1462  17.1462  17.2115  17.2115  17.6907
    18.7436  19.0438  19.0438  20.2232  20.2232  20.2263  20.3661  20.9397
    20.9397  21.4674  21.4675  21.6930  21.6930  21.8411  21.8411  22.2751
    22.2751  23.5997  23.5997  23.6312  23.6312  23.7833  24.0575  24.0575
    24.1334  24.2882  24.2882  24.9356  24.9356  25.2989  25.2990  25.6006
    25.6998  25.7393

          k = 0.0556 0.0556 0.1368 ( 40223 PWs)   bands (ev):

   -69.3346 -69.3125 -69.3124 -69.3082 -69.3082 -69.3037 -69.3026 -69.3020
   -69.3020 -69.3009 -69.2950 -69.2950 -69.2936 -69.2936 -69.2863 -69.2863
   -68.7819 -68.7818 -68.7675 -68.7675 -68.7675 -68.7675 -68.7663 -68.7663
   -68.7661 -68.7660 -68.7647 -68.7647 -68.7647 -68.7647 -68.7502 -68.7502
   -35.1705 -35.1704 -35.1703 -35.1690 -35.1583 -35.1582 -35.1446 -35.1115
   -35.1114 -35.1093 -35.1092 -35.0761 -35.0761 -35.0643 -35.0643 -35.0551
   -35.0551 -35.0537 -35.0537 -35.0436 -35.0436 -35.0084 -35.0084 -35.0074
   -35.0074 -35.0049 -35.0001 -35.0001 -34.9948 -34.9938 -34.9938 -34.9779
   -34.9779 -34.9757 -34.9635 -34.9635 -34.9604 -34.9584 -34.9453 -34.9453
   -34.9402 -34.9402 -34.9103 -34.9085 -34.9085 -34.9042 -34.8922 -34.8907
   -34.6418 -34.6418 -34.6412 -34.6401 -34.6310 -34.6310 -34.6289 -34.6289
   -34.5605 -34.5605 -34.5604 -34.5604 -34.5457 -34.5457 -34.5454 -34.5454
   -34.5435 -34.5435 -34.5430 -34.5430 -34.5282 -34.5282 -34.5281 -34.5281
   -34.4579 -34.4575 -34.4563 -34.4560 -34.4445 -34.4445 -34.4432 -34.4432
   -34.3998 -34.3955 -34.3854 -34.3854 -34.3848 -34.3848 -34.3842 -34.3838
   -34.3838 -34.3836 -34.3833 -34.3833 -34.3829 -34.3829 -34.3737 -34.3736
     8.4539   9.7765   9.9994   9.9995  10.0658  10.0734  10.0789  10.0789
    10.1427  10.1823  10.2767  10.2767  10.3577  10.3577  10.5426  10.5426
    10.6017  10.8209  10.9490  10.9490  10.9689  10.9689  10.9976  10.9976
    11.0206  11.0206  11.0953  11.0953  11.0962  11.1064  11.1168  11.1169
    11.2325  11.2325  11.2992  11.2992  11.3317  11.3317  11.4172  11.4172
    11.4188  11.4188  11.4867  11.4868  11.5457  11.6070  11.6071  11.6239
    11.6239  11.7687  11.7687  11.8404  11.8882  11.8882  11.9284  11.9284
    11.9501  11.9553  11.9553  11.9693  12.1402  12.1402  12.1503  12.1503
    12.1526  12.1619  12.3049  12.3049  12.3160  12.3187  12.3225  12.3225
    12.3596  12.3691  12.3915  12.3915  12.4294  12.4294  12.7443  12.7443
    12.7796  12.7942  12.8466  12.8466  12.8778  12.8778  12.9293  12.9293
    12.9980  13.0398  13.0398  13.0435  13.0435  13.0966  13.1138  13.1174
    13.1174  13.1470  13.1470  13.1571  13.1571  13.2437  13.2440  13.2619
    13.2619  13.3515  13.3515  13.3591  13.3591  13.4614  13.4614  13.4694
    13.4799  13.4799  13.5375  13.5375  13.6576  13.6618  13.6618  13.7384
    13.7385  13.7565  13.7596  13.7596  13.9113  13.9113  13.9523  13.9523
    14.0845  14.0845  14.0980  14.1078  14.1078  14.1107  14.1107  14.1273
    14.1491  14.1491  14.2358  14.2608  14.2866  14.3006  14.3006  14.3099
    14.4197  14.4197  14.4422  14.4422  14.4442  14.5779  14.5779  14.6432
    14.6435  14.6458  14.6458  14.6981  14.7781  14.8085  14.8085  14.8153
    14.8153  14.8414  14.9054  15.0109  15.0110  15.4023  15.4023  15.5369
    15.5369  15.9649  15.9649  16.1790  16.5008  16.5748  16.5748  16.6894
    16.7953  16.9105  16.9105  17.1269  17.1269  17.4527  17.4527  17.6644
    19.1064  19.1064  19.1645  20.2160  20.2563  20.2563  20.2625  20.2625
    20.4073  20.8113  20.8113  21.6714  21.6714  22.4282  22.4282  22.9939
    22.9939  23.4360  23.6518  23.6518  23.7571  23.7571  23.8235  23.8235
    24.0704  24.3375  24.3375  24.9370  24.9370  25.2939  25.2939  25.4837
    25.4838  25.9235

          k = 0.0556 0.0556 0.2279 ( 40186 PWs)   bands (ev):

   -69.3346 -69.3125 -69.3124 -69.3082 -69.3082 -69.3037 -69.3026 -69.3020
   -69.3020 -69.3009 -69.2950 -69.2950 -69.2936 -69.2936 -69.2863 -69.2863
   -68.7819 -68.7818 -68.7675 -68.7675 -68.7675 -68.7675 -68.7663 -68.7663
   -68.7661 -68.7660 -68.7647 -68.7647 -68.7647 -68.7647 -68.7502 -68.7502
   -35.1705 -35.1704 -35.1702 -35.1690 -35.1582 -35.1582 -35.1445 -35.1114
   -35.1114 -35.1093 -35.1093 -35.0762 -35.0762 -35.0643 -35.0643 -35.0551
   -35.0551 -35.0537 -35.0537 -35.0436 -35.0436 -35.0084 -35.0083 -35.0073
   -35.0073 -35.0048 -35.0001 -35.0001 -34.9947 -34.9938 -34.9938 -34.9779
   -34.9779 -34.9758 -34.9635 -34.9634 -34.9604 -34.9584 -34.9452 -34.9452
   -34.9402 -34.9402 -34.9103 -34.9086 -34.9085 -34.9042 -34.8922 -34.8906
   -34.6418 -34.6418 -34.6411 -34.6401 -34.6309 -34.6309 -34.6289 -34.6289
   -34.5605 -34.5605 -34.5604 -34.5604 -34.5457 -34.5457 -34.5454 -34.5454
   -34.5434 -34.5434 -34.5430 -34.5430 -34.5282 -34.5282 -34.5281 -34.5281
   -34.4579 -34.4575 -34.4563 -34.4559 -34.4446 -34.4446 -34.4432 -34.4432
   -34.3996 -34.3959 -34.3855 -34.3855 -34.3846 -34.3846 -34.3841 -34.3837
   -34.3837 -34.3836 -34.3834 -34.3834 -34.3827 -34.3827 -34.3736 -34.3736
     8.4746   9.7460  10.0031  10.0031  10.0709  10.0786  10.0841  10.0841
    10.1334  10.1440  10.2806  10.2806  10.3659  10.3659  10.5497  10.5497
    10.6258  10.8181  10.9414  10.9414  10.9698  10.9698  10.9989  10.9989
    11.0203  11.0204  11.0760  11.0883  11.0897  11.0897  11.0966  11.0966
    11.2339  11.2339  11.2956  11.2956  11.3300  11.3300  11.3996  11.3996
    11.4255  11.4255  11.4850  11.4851  11.5510  11.6056  11.6056  11.6213
    11.6213  11.7679  11.7680  11.8306  11.8825  11.8825  11.9263  11.9263
    11.9483  11.9484  11.9484  11.9662  12.1239  12.1239  12.1369  12.1369
    12.1507  12.1548  12.2744  12.2744  12.3167  12.3195  12.3250  12.3250
    12.3607  12.3707  12.4182  12.4182  12.4572  12.4572  12.8118  12.8119
    12.8488  12.8489  12.8657  12.8715  12.9183  12.9183  12.9245  12.9245
    12.9679  12.9679  12.9697  13.0375  13.0375  13.0627  13.0627  13.0941
    13.1114  13.1301  13.1301  13.1650  13.1650  13.2200  13.2370  13.2749
    13.2749  13.3722  13.3722  13.4011  13.4011  13.4752  13.4824  13.4824
    13.5153  13.5153  13.5540  13.5541  13.6555  13.6555  13.6994  13.6994
    13.7194  13.7194  13.7565  13.9032  13.9032  13.9349  13.9730  13.9731
    14.0799  14.0799  14.1034  14.1039  14.1039  14.1239  14.1239  14.1320
    14.1937  14.2399  14.2760  14.2760  14.3026  14.3189  14.3197  14.3496
    14.3496  14.3934  14.3934  14.4500  14.4500  14.5607  14.5608  14.6394
    14.6435  14.6474  14.6474  14.6960  14.7778  14.7944  14.7944  14.8012
    14.8012  14.8377  14.8965  15.0113  15.0114  15.3104  15.3104  15.4026
    15.4026  15.7339  15.7339  16.1278  16.2148  16.4962  16.6669  16.6669
    16.9613  17.0893  17.0893  17.2657  17.2657  17.6097  17.8068  17.8068
    19.2107  19.2107  19.6316  19.6317  19.6547  20.1894  20.1894  20.2304
    20.3110  20.3110  20.4373  21.4371  21.4371  23.1603  23.1603  23.1718
    23.4175  23.4175  23.6810  23.6810  23.7619  23.7916  23.7916  24.1055
    24.1055  24.4251  24.4251  24.9280  24.9280  25.2128  25.2129  25.2890
    25.2890  25.9448

          k = 0.0556 0.0556 0.3191 ( 40201 PWs)   bands (ev):

   -69.3346 -69.3125 -69.3124 -69.3082 -69.3082 -69.3037 -69.3026 -69.3020
   -69.3020 -69.3009 -69.2950 -69.2950 -69.2936 -69.2936 -69.2863 -69.2863
   -68.7819 -68.7818 -68.7675 -68.7675 -68.7675 -68.7675 -68.7663 -68.7663
   -68.7661 -68.7660 -68.7647 -68.7647 -68.7647 -68.7647 -68.7502 -68.7502
   -35.1705 -35.1704 -35.1702 -35.1690 -35.1582 -35.1582 -35.1448 -35.1114
   -35.1114 -35.1093 -35.1092 -35.0762 -35.0762 -35.0643 -35.0643 -35.0551
   -35.0551 -35.0537 -35.0537 -35.0436 -35.0436 -35.0084 -35.0084 -35.0073
   -35.0073 -35.0048 -35.0001 -35.0001 -34.9947 -34.9938 -34.9938 -34.9779
   -34.9779 -34.9758 -34.9634 -34.9634 -34.9605 -34.9584 -34.9452 -34.9452
   -34.9402 -34.9401 -34.9103 -34.9085 -34.9084 -34.9042 -34.8923 -34.8907
   -34.6418 -34.6418 -34.6411 -34.6400 -34.6309 -34.6309 -34.6289 -34.6289
   -34.5606 -34.5606 -34.5605 -34.5605 -34.5457 -34.5457 -34.5454 -34.5454
   -34.5434 -34.5434 -34.5430 -34.5430 -34.5282 -34.5282 -34.5281 -34.5281
   -34.4580 -34.4575 -34.4565 -34.4559 -34.4445 -34.4445 -34.4432 -34.4432
   -34.3995 -34.3962 -34.3855 -34.3855 -34.3845 -34.3845 -34.3842 -34.3838
   -34.3837 -34.3836 -34.3835 -34.3835 -34.3826 -34.3826 -34.3737 -34.3736
     8.4938   9.7144  10.0063  10.0064  10.0758  10.0828  10.0889  10.0889
    10.1013  10.1442  10.2841  10.2841  10.3733  10.3733  10.5561  10.5561
    10.6416  10.8156  10.9347  10.9347  10.9705  10.9705  11.0000  11.0000
    11.0200  11.0200  11.0601  11.0711  11.0791  11.0791  11.0845  11.0845
    11.2352  11.2352  11.2929  11.2930  11.3283  11.3283  11.3832  11.3832
    11.4328  11.4328  11.4832  11.4832  11.5556  11.6043  11.6043  11.6190
    11.6190  11.7671  11.7672  11.8231  11.8782  11.8782  11.9251  11.9251
    11.9424  11.9424  11.9469  11.9634  12.1021  12.1021  12.1345  12.1345
    12.1489  12.1500  12.2518  12.2518  12.3173  12.3201  12.3268  12.3268
    12.3618  12.3720  12.4419  12.4419  12.4787  12.4787  12.8525  12.8525
    12.8715  12.8715  12.8913  12.8913  12.9338  12.9341  12.9341  12.9551
    12.9599  12.9669  12.9669  13.0074  13.0074  13.0326  13.0326  13.0918
    13.1093  13.1318  13.1318  13.1782  13.1782  13.2060  13.2308  13.2778
    13.2778  13.3908  13.3908  13.4287  13.4287  13.4744  13.4899  13.4900
    13.5618  13.5618  13.5682  13.5682  13.6483  13.6483  13.6763  13.6763
    13.6776  13.6776  13.7565  13.8923  13.8923  13.9919  13.9919  14.0321
    14.0321  14.1082  14.1103  14.1214  14.1214  14.1356  14.1386  14.1386
    14.1629  14.2003  14.2436  14.3055  14.3055  14.3288  14.3497  14.3497
    14.4168  14.4168  14.4445  14.5443  14.5443  14.6003  14.6003  14.6360
    14.6433  14.6468  14.6468  14.6940  14.7775  14.7816  14.7816  14.7882
    14.7882  14.8619  14.8883  15.0117  15.0117  15.1075  15.1075  15.4028
    15.4029  15.5324  15.5324  15.5761  16.2734  16.4584  16.7622  16.7622
    17.0394  17.0394  17.1428  17.5277  17.6463  17.6463  18.1837  18.1837
    19.0919  19.0919  19.3138  19.3138  19.6590  19.6590  20.0319  20.2768
    20.3640  20.3640  20.4251  21.2409  21.2409  23.0657  23.1713  23.1713
    23.4455  23.7999  23.7999  23.8286  23.8286  24.3755  24.3756  24.3789
    24.3789  24.5186  24.5186  24.8897  24.8897  25.0461  25.0462  25.2914
    25.2914  25.9088

          k = 0.0556 0.0556-0.4103 ( 40162 PWs)   bands (ev):

   -69.3346 -69.3125 -69.3124 -69.3082 -69.3082 -69.3037 -69.3026 -69.3020
   -69.3020 -69.3009 -69.2950 -69.2950 -69.2936 -69.2936 -69.2863 -69.2863
   -68.7819 -68.7818 -68.7675 -68.7675 -68.7675 -68.7675 -68.7663 -68.7663
   -68.7661 -68.7660 -68.7647 -68.7647 -68.7647 -68.7647 -68.7502 -68.7502
   -35.1705 -35.1704 -35.1702 -35.1690 -35.1581 -35.1581 -35.1449 -35.1114
   -35.1114 -35.1093 -35.1092 -35.0761 -35.0761 -35.0643 -35.0643 -35.0551
   -35.0551 -35.0537 -35.0537 -35.0436 -35.0436 -35.0084 -35.0084 -35.0073
   -35.0073 -35.0048 -35.0001 -35.0000 -34.9947 -34.9938 -34.9938 -34.9779
   -34.9779 -34.9758 -34.9634 -34.9634 -34.9605 -34.9585 -34.9452 -34.9452
   -34.9401 -34.9401 -34.9104 -34.9085 -34.9084 -34.9042 -34.8923 -34.8907
   -34.6418 -34.6418 -34.6411 -34.6401 -34.6308 -34.6308 -34.6289 -34.6289
   -34.5605 -34.5605 -34.5604 -34.5604 -34.5457 -34.5457 -34.5454 -34.5454
   -34.5434 -34.5434 -34.5430 -34.5430 -34.5282 -34.5282 -34.5280 -34.5280
   -34.4580 -34.4575 -34.4565 -34.4559 -34.4445 -34.4445 -34.4433 -34.4432
   -34.3993 -34.3964 -34.3856 -34.3856 -34.3844 -34.3844 -34.3842 -34.3837
   -34.3837 -34.3835 -34.3835 -34.3835 -34.3826 -34.3826 -34.3737 -34.3736
     8.5018   9.7008  10.0076  10.0077  10.0779  10.0844  10.0907  10.0908
    10.0908  10.1444  10.2855  10.2855  10.3763  10.3763  10.5587  10.5587
    10.6468  10.8146  10.9320  10.9320  10.9708  10.9708  11.0004  11.0004
    11.0199  11.0199  11.0543  11.0638  11.0723  11.0723  11.0824  11.0824
    11.2358  11.2358  11.2920  11.2920  11.3277  11.3277  11.3768  11.3768
    11.4358  11.4358  11.4823  11.4823  11.5574  11.6038  11.6038  11.6181
    11.6181  11.7668  11.7668  11.8203  11.8766  11.8766  11.9248  11.9248
    11.9401  11.9401  11.9464  11.9623  12.0937  12.0937  12.1337  12.1337
    12.1472  12.1493  12.2434  12.2434  12.3175  12.3204  12.3275  12.3275
    12.3622  12.3726  12.4516  12.4516  12.4872  12.4872  12.8569  12.8569
    12.8720  12.8720  12.8947  12.8947  12.9282  12.9282  12.9510  12.9621
    12.9842  12.9842  12.9863  12.9863  12.9982  13.0307  13.0307  13.0909
    13.1085  13.1327  13.1327  13.1861  13.1861  13.2011  13.2284  13.2781
    13.2782  13.3982  13.3983  13.4376  13.4376  13.4737  13.4963  13.4963
    13.5609  13.5610  13.6025  13.6025  13.6383  13.6383  13.6541  13.6541
    13.6701  13.6701  13.7565  13.8873  13.8873  13.9995  13.9995  14.0066
    14.0066  14.0766  14.1101  14.1284  14.1284  14.1370  14.1445  14.1445
    14.1500  14.2116  14.2450  14.2928  14.2929  14.3321  14.3321  14.3326
    14.4927  14.4927  14.5374  14.5374  14.5966  14.6346  14.6432  14.6463
    14.6463  14.6718  14.6718  14.6932  14.7767  14.7767  14.7774  14.7830
    14.7830  14.8851  14.9999  15.0111  15.0111  15.0118  15.0118  15.1838
    15.4030  15.4030  15.4437  15.4437  16.3109  16.4290  16.8108  16.8108
    17.0081  17.0081  17.2445  17.4642  17.8670  17.8670  18.3974  18.3974
    18.8187  18.8187  19.3585  19.3585  19.3948  19.3948  20.1755  20.3204
    20.3864  20.3864  20.3931  21.1633  21.1633  23.0813  23.0817  23.0817
    23.2796  23.8777  23.8777  24.1010  24.1010  24.5090  24.5090  24.5570
    24.5570  24.6070  24.6070  24.8480  24.8480  25.0940  25.0941  25.2958
    25.2958  25.8137

          k = 0.0556 0.1667 0.0456 ( 40215 PWs)   bands (ev):

   -69.3339 -69.3166 -69.3122 -69.3080 -69.3053 -69.3041 -69.3032 -69.3024
   -69.3004 -69.2997 -69.2964 -69.2952 -69.2939 -69.2922 -69.2870 -69.2865
   -68.7814 -68.7813 -68.7702 -68.7702 -68.7675 -68.7674 -68.7665 -68.7665
   -68.7658 -68.7658 -68.7648 -68.7647 -68.7620 -68.7620 -68.7507 -68.7507
   -35.1687 -35.1675 -35.1667 -35.1646 -35.1554 -35.1554 -35.1432 -35.1158
   -35.1147 -35.1138 -35.1104 -35.0953 -35.0898 -35.0842 -35.0626 -35.0566
   -35.0537 -35.0512 -35.0357 -35.0295 -35.0243 -35.0169 -35.0113 -35.0099
   -35.0090 -35.0051 -35.0037 -35.0009 -34.9954 -34.9922 -34.9895 -34.9849
   -34.9780 -34.9690 -34.9628 -34.9536 -34.9519 -34.9518 -34.9492 -34.9459
   -34.9408 -34.9366 -34.9156 -34.9150 -34.9098 -34.9030 -34.8971 -34.8921
   -34.6406 -34.6397 -34.6375 -34.6355 -34.6297 -34.6295 -34.6251 -34.6250
   -34.5773 -34.5769 -34.5751 -34.5747 -34.5631 -34.5624 -34.5587 -34.5580
   -34.5308 -34.5302 -34.5262 -34.5257 -34.5135 -34.5135 -34.5113 -34.5111
   -34.4621 -34.4619 -34.4574 -34.4572 -34.4490 -34.4489 -34.4449 -34.4449
   -34.3992 -34.3950 -34.3873 -34.3870 -34.3852 -34.3849 -34.3844 -34.3838
   -34.3837 -34.3834 -34.3832 -34.3830 -34.3813 -34.3811 -34.3741 -34.3740
     8.5111   9.8463  10.0336  10.0397  10.0722  10.0798  10.0967  10.1123
    10.1185  10.1816  10.2738  10.2987  10.3010  10.3579  10.5422  10.6014
    10.6342  10.8556  10.8609  10.8804  10.8892  10.8900  10.8916  10.9955
    10.9987  11.0208  11.0249  11.0309  11.0629  11.1007  11.1082  11.1482
    11.1539  11.1545  11.2190  11.2564  11.3619  11.3784  11.3796  11.3896
    11.4214  11.4328  11.4439  11.5620  11.6117  11.6305  11.6671  11.6941
    11.7222  11.7717  11.7797  11.8201  11.8362  11.8706  11.9207  11.9468
    11.9741  11.9750  12.0027  12.0147  12.0589  12.1108  12.1524  12.1607
    12.1756  12.2006  12.3329  12.3354  12.3396  12.3425  12.3475  12.3557
    12.3765  12.3966  12.4292  12.4424  12.4483  12.5445  12.6132  12.6249
    12.6491  12.6591  12.6903  12.7636  12.8085  12.8118  12.8404  12.8576
    12.9020  12.9726  13.0250  13.0369  13.0620  13.1219  13.1438  13.1451
    13.1590  13.1859  13.2308  13.2437  13.2467  13.2557  13.2594  13.2691
    13.3013  13.3084  13.3295  13.3483  13.3703  13.3987  13.4262  13.4389
    13.5732  13.6105  13.6182  13.6193  13.6326  13.7170  13.7879  13.8037
    13.8326  13.8426  13.8509  13.8762  13.9215  13.9295  13.9780  13.9891
    14.0035  14.0068  14.0680  14.0689  14.0808  14.1423  14.1563  14.1592
    14.1632  14.1722  14.1850  14.1987  14.2361  14.3520  14.3932  14.4299
    14.4324  14.4530  14.4991  14.5181  14.5466  14.5499  14.5602  14.5699
    14.5706  14.5953  14.6204  14.6747  14.7079  14.7428  14.8039  14.8059
    14.8202  14.8350  14.8860  14.9118  14.9438  15.2838  15.3203  15.3756
    15.7054  15.8802  16.0535  16.1494  16.1729  16.4460  16.5853  16.6645
    16.6656  16.6725  16.8910  17.2166  17.3875  17.7544  17.8165  18.3042
    18.6486  18.8485  19.2808  20.2710  20.4160  20.4199  20.4401  20.6339
    20.9785  21.1357  21.3017  21.4941  21.7456  22.0030  22.0088  22.3145
    22.7508  22.8412  22.8681  22.9055  23.4377  23.5127  23.7415  23.8069
    23.9527  24.1664  24.8411  24.9496  25.0216  25.0996  25.3217  25.4030
    25.5746  25.6732

          k = 0.0556 0.1667 0.1368 ( 40217 PWs)   bands (ev):

   -69.3339 -69.3166 -69.3122 -69.3080 -69.3053 -69.3041 -69.3032 -69.3024
   -69.3004 -69.2997 -69.2964 -69.2952 -69.2939 -69.2922 -69.2870 -69.2865
   -68.7814 -68.7813 -68.7702 -68.7702 -68.7675 -68.7674 -68.7665 -68.7665
   -68.7658 -68.7658 -68.7648 -68.7647 -68.7620 -68.7620 -68.7507 -68.7507
   -35.1687 -35.1675 -35.1666 -35.1645 -35.1554 -35.1554 -35.1432 -35.1158
   -35.1146 -35.1138 -35.1104 -35.0953 -35.0898 -35.0841 -35.0626 -35.0566
   -35.0537 -35.0512 -35.0357 -35.0295 -35.0243 -35.0169 -35.0113 -35.0099
   -35.0091 -35.0051 -35.0036 -35.0009 -34.9954 -34.9922 -34.9895 -34.9850
   -34.9780 -34.9690 -34.9628 -34.9536 -34.9520 -34.9518 -34.9492 -34.9459
   -34.9407 -34.9367 -34.9156 -34.9150 -34.9099 -34.9030 -34.8971 -34.8921
   -34.6406 -34.6397 -34.6374 -34.6355 -34.6297 -34.6295 -34.6251 -34.6250
   -34.5773 -34.5770 -34.5751 -34.5747 -34.5631 -34.5624 -34.5586 -34.5579
   -34.5308 -34.5303 -34.5262 -34.5257 -34.5135 -34.5134 -34.5113 -34.5111
   -34.4621 -34.4620 -34.4575 -34.4572 -34.4490 -34.4490 -34.4449 -34.4449
   -34.3992 -34.3952 -34.3875 -34.3868 -34.3853 -34.3847 -34.3845 -34.3838
   -34.3837 -34.3834 -34.3834 -34.3828 -34.3814 -34.3810 -34.3740 -34.3739
     8.5238   9.8303  10.0361  10.0419  10.0787  10.0822  10.1000  10.1152
    10.1220  10.1817  10.2339  10.3011  10.3033  10.3614  10.5449  10.6058
    10.6549  10.8540  10.8612  10.8790  10.8857  10.8896  10.8900  10.9903
    10.9939  11.0203  11.0262  11.0299  11.0554  11.0840  11.1028  11.1327
    11.1429  11.1580  11.2129  11.2649  11.3650  11.3792  11.3800  11.3893
    11.4208  11.4263  11.4315  11.5652  11.6076  11.6275  11.6667  11.7040
    11.7197  11.7619  11.7740  11.8186  11.8320  11.8648  11.9189  11.9481
    11.9604  11.9749  12.0006  12.0137  12.0607  12.1079  12.1529  12.1606
    12.1706  12.1885  12.3388  12.3400  12.3402  12.3433  12.3442  12.3514
    12.3763  12.4156  12.4243  12.4414  12.4546  12.5614  12.6453  12.6552
    12.6627  12.6991  12.7259  12.7582  12.8058  12.8417  12.8689  12.8815
    12.8956  12.9739  12.9822  13.0004  13.0296  13.1051  13.1444  13.1557
    13.1620  13.1881  13.2217  13.2369  13.2449  13.2470  13.2506  13.2667
    13.2733  13.2779  13.3389  13.3389  13.4204  13.4231  13.4508  13.4649
    13.5891  13.6268  13.6273  13.6276  13.6687  13.7181  13.7419  13.8011
    13.8104  13.8299  13.8447  13.8747  13.9307  13.9417  13.9531  13.9978
    14.0298  14.0331  14.0555  14.0942  14.0983  14.1370  14.1512  14.1521
    14.1741  14.1790  14.2052  14.2570  14.2921  14.3463  14.3964  14.4011
    14.4182  14.4207  14.4818  14.4828  14.5414  14.5505  14.5642  14.5885
    14.5983  14.6018  14.6140  14.6804  14.7179  14.7464  14.7967  14.7993
    14.8129  14.8264  14.8892  14.9065  14.9441  15.1981  15.2851  15.3207
    15.5285  15.8301  15.9718  16.0511  16.4213  16.4221  16.4931  16.5941
    16.8598  16.9119  16.9290  16.9937  17.4600  17.7333  18.0545  18.2685
    18.7108  19.2939  19.3409  19.7314  20.2597  20.3026  20.3858  20.4668
    20.6286  20.8430  21.1270  21.3833  21.8310  21.8680  22.4667  22.8632
    22.9467  22.9561  23.0304  23.2262  23.4529  23.4877  23.5647  23.9374
    24.1009  24.2351  24.6211  24.8662  24.9894  24.9962  25.1506  25.2552
    25.5315  25.6644

          k = 0.0556 0.1667 0.2279 ( 40206 PWs)   bands (ev):

   -69.3339 -69.3166 -69.3122 -69.3080 -69.3053 -69.3041 -69.3032 -69.3024
   -69.3004 -69.2997 -69.2964 -69.2952 -69.2939 -69.2922 -69.2870 -69.2865
   -68.7814 -68.7813 -68.7702 -68.7702 -68.7675 -68.7674 -68.7665 -68.7665
   -68.7658 -68.7658 -68.7648 -68.7647 -68.7620 -68.7620 -68.7507 -68.7507
   -35.1687 -35.1675 -35.1666 -35.1646 -35.1554 -35.1553 -35.1433 -35.1158
   -35.1146 -35.1138 -35.1105 -35.0953 -35.0898 -35.0842 -35.0626 -35.0566
   -35.0537 -35.0512 -35.0356 -35.0295 -35.0243 -35.0169 -35.0113 -35.0099
   -35.0091 -35.0051 -35.0036 -35.0009 -34.9954 -34.9922 -34.9895 -34.9850
   -34.9780 -34.9690 -34.9629 -34.9536 -34.9520 -34.9517 -34.9492 -34.9458
   -34.9407 -34.9366 -34.9156 -34.9151 -34.9099 -34.9030 -34.8971 -34.8922
   -34.6406 -34.6397 -34.6375 -34.6355 -34.6296 -34.6295 -34.6251 -34.6249
   -34.5773 -34.5770 -34.5751 -34.5747 -34.5631 -34.5624 -34.5586 -34.5580
   -34.5308 -34.5302 -34.5261 -34.5256 -34.5135 -34.5134 -34.5113 -34.5110
   -34.4622 -34.4619 -34.4575 -34.4572 -34.4490 -34.4489 -34.4450 -34.4449
   -34.3990 -34.3955 -34.3876 -34.3866 -34.3855 -34.3846 -34.3845 -34.3838
   -34.3836 -34.3835 -34.3833 -34.3827 -34.3815 -34.3810 -34.3740 -34.3739
     8.5442   9.8012  10.0398  10.0454  10.0865  10.0891  10.1045  10.1200
    10.1269  10.1773  10.1906  10.3050  10.3069  10.3667  10.5490  10.6127
    10.6780  10.8514  10.8616  10.8768  10.8790  10.8867  10.8903  10.9823
    10.9865  11.0196  11.0283  11.0283  11.0439  11.0652  11.0881  11.1122
    11.1233  11.1635  11.2054  11.2785  11.3698  11.3800  11.3807  11.3892
    11.4030  11.4128  11.4320  11.5702  11.6010  11.6228  11.6664  11.7156
    11.7194  11.7487  11.7665  11.8170  11.8248  11.8562  11.9165  11.9392
    11.9511  11.9746  11.9972  12.0126  12.0635  12.1042  12.1535  12.1596
    12.1649  12.1694  12.3160  12.3411  12.3446  12.3464  12.3556  12.3572
    12.3765  12.3991  12.4464  12.4565  12.4650  12.5859  12.6702  12.6987
    12.7031  12.7473  12.7779  12.7839  12.8028  12.8808  12.8890  12.9043
    12.9137  12.9209  12.9728  12.9759  13.0158  13.0810  13.1445  13.1468
    13.1634  13.1679  13.1946  13.1989  13.2204  13.2484  13.2498  13.2548
    13.2804  13.2835  13.3480  13.3616  13.4134  13.4691  13.4798  13.4941
    13.6093  13.6119  13.6344  13.6530  13.7058  13.7163  13.7372  13.7818
    13.8104  13.8198  13.8440  13.8822  13.9029  13.9430  13.9613  13.9725
    13.9782  14.0298  14.0756  14.1139  14.1396  14.1403  14.1607  14.1896
    14.1897  14.2180  14.2629  14.2925  14.3380  14.3482  14.3712  14.3766
    14.4047  14.4065  14.4448  14.4459  14.5278  14.5504  14.5701  14.5946
    14.5996  14.6107  14.6864  14.7334  14.7415  14.7851  14.7885  14.7893
    14.8109  14.8127  14.8934  14.8987  14.9446  14.9815  15.2870  15.3058
    15.3211  15.7449  15.8130  16.0269  16.2609  16.3700  16.4233  16.5780
    16.7752  17.1447  17.1542  17.2724  17.6885  17.8180  18.1904  18.4058
    18.8147  19.0976  19.4416  19.6672  19.7992  20.2186  20.2759  20.3349
    20.5025  20.5673  20.7761  20.8933  21.5950  22.5783  22.9618  23.0361
    23.1144  23.1586  23.1825  23.2604  23.5856  23.6321  23.7859  24.1400
    24.2222  24.2367  24.4956  24.6524  24.8601  24.9162  25.0777  25.1367
    25.4920  25.6665

          k = 0.0556 0.1667 0.3191 ( 40225 PWs)   bands (ev):

   -69.3339 -69.3166 -69.3122 -69.3080 -69.3053 -69.3041 -69.3032 -69.3024
   -69.3004 -69.2997 -69.2964 -69.2952 -69.2939 -69.2922 -69.2870 -69.2865
   -68.7814 -68.7814 -68.7702 -68.7702 -68.7675 -68.7674 -68.7665 -68.7665
   -68.7658 -68.7658 -68.7648 -68.7647 -68.7620 -68.7620 -68.7507 -68.7507
   -35.1687 -35.1675 -35.1666 -35.1646 -35.1554 -35.1553 -35.1433 -35.1157
   -35.1146 -35.1138 -35.1105 -35.0953 -35.0899 -35.0842 -35.0626 -35.0566
   -35.0537 -35.0512 -35.0357 -35.0295 -35.0243 -35.0169 -35.0113 -35.0099
   -35.0091 -35.0051 -35.0037 -35.0009 -34.9954 -34.9921 -34.9895 -34.9850
   -34.9780 -34.9690 -34.9629 -34.9537 -34.9520 -34.9517 -34.9492 -34.9458
   -34.9407 -34.9366 -34.9156 -34.9151 -34.9099 -34.9030 -34.8971 -34.8921
   -34.6406 -34.6396 -34.6375 -34.6355 -34.6296 -34.6294 -34.6251 -34.6249
   -34.5773 -34.5770 -34.5751 -34.5747 -34.5631 -34.5624 -34.5586 -34.5580
   -34.5308 -34.5302 -34.5261 -34.5257 -34.5136 -34.5134 -34.5113 -34.5111
   -34.4622 -34.4619 -34.4575 -34.4571 -34.4490 -34.4490 -34.4450 -34.4449
   -34.3987 -34.3959 -34.3876 -34.3865 -34.3856 -34.3846 -34.3844 -34.3838
   -34.3836 -34.3836 -34.3833 -34.3826 -34.3815 -34.3809 -34.3740 -34.3739
     8.5631   9.7708  10.0431  10.0484  10.0909  10.0984  10.1079  10.1248
    10.1309  10.1508  10.1851  10.3084  10.3100  10.3715  10.5527  10.6189
    10.6931  10.8492  10.8619  10.8732  10.8747  10.8828  10.8908  10.9753
    10.9800  11.0191  11.0269  11.0300  11.0342  11.0522  11.0720  11.0969
    11.1041  11.1682  11.2002  11.2914  11.3741  11.3802  11.3812  11.3877
    11.3895  11.3968  11.4359  11.5746  11.5947  11.6187  11.6666  11.7118
    11.7333  11.7386  11.7609  11.8169  11.8174  11.8489  11.9147  11.9201
    11.9548  11.9743  11.9943  12.0122  12.0658  12.1013  12.1517  12.1538
    12.1562  12.1634  12.2971  12.3421  12.3458  12.3511  12.3582  12.3661
    12.3769  12.3776  12.4683  12.4751  12.4761  12.6087  12.6827  12.7303
    12.7449  12.7511  12.8024  12.8284  12.8501  12.8595  12.8611  12.9324
    12.9543  12.9566  12.9657  12.9785  12.9980  13.0632  13.1125  13.1337
    13.1416  13.1512  13.1605  13.2066  13.2137  13.2406  13.2453  13.2655
    13.2941  13.2988  13.3568  13.3853  13.4208  13.4855  13.5019  13.5101
    13.5871  13.6251  13.6256  13.6814  13.6949  13.7129  13.7598  13.7758
    13.7826  13.8248  13.8437  13.8790  13.8958  13.9131  13.9402  13.9507
    13.9687  13.9796  14.1272  14.1291  14.1309  14.1323  14.1997  14.2044
    14.2294  14.2791  14.2878  14.3090  14.3272  14.3294  14.3463  14.3934
    14.4000  14.4018  14.4200  14.5161  14.5343  14.5889  14.5913  14.5953
    14.5962  14.6138  14.6898  14.7367  14.7746  14.7766  14.7815  14.7822
    14.8012  14.8863  14.8966  14.9129  14.9450  14.9743  15.1087  15.2885
    15.3215  15.5493  15.8325  15.8329  15.9910  16.0631  16.4524  16.5429
    17.1577  17.3183  17.4302  17.6180  17.6597  18.0679  18.2001  18.5514
    18.7777  18.9180  19.1212  19.5418  19.6833  20.1861  20.2579  20.3226
    20.3267  20.4623  20.4923  20.7000  21.3979  23.0580  23.0737  23.1330
    23.1758  23.1850  23.4636  23.5739  23.6051  23.7797  23.8196  23.8334
    24.2986  24.4606  24.6509  24.8094  24.8286  25.0442  25.0482  25.1606
    25.4863  25.6517

          k = 0.0556 0.1667-0.4103 ( 40204 PWs)   bands (ev):

   -69.3339 -69.3166 -69.3122 -69.3080 -69.3053 -69.3041 -69.3032 -69.3024
   -69.3004 -69.2997 -69.2964 -69.2952 -69.2939 -69.2922 -69.2870 -69.2865
   -68.7814 -68.7814 -68.7702 -68.7702 -68.7675 -68.7674 -68.7665 -68.7665
   -68.7658 -68.7658 -68.7648 -68.7647 -68.7620 -68.7620 -68.7507 -68.7507
   -35.1687 -35.1674 -35.1666 -35.1646 -35.1554 -35.1552 -35.1435 -35.1157
   -35.1146 -35.1138 -35.1105 -35.0954 -35.0898 -35.0842 -35.0626 -35.0566
   -35.0537 -35.0512 -35.0357 -35.0295 -35.0243 -35.0169 -35.0113 -35.0099
   -35.0090 -35.0051 -35.0037 -35.0009 -34.9953 -34.9921 -34.9894 -34.9850
   -34.9779 -34.9690 -34.9629 -34.9536 -34.9520 -34.9517 -34.9491 -34.9458
   -34.9407 -34.9366 -34.9156 -34.9150 -34.9099 -34.9030 -34.8972 -34.8922
   -34.6406 -34.6396 -34.6375 -34.6355 -34.6296 -34.6294 -34.6251 -34.6250
   -34.5773 -34.5770 -34.5751 -34.5747 -34.5631 -34.5624 -34.5586 -34.5580
   -34.5308 -34.5302 -34.5261 -34.5257 -34.5135 -34.5134 -34.5113 -34.5111
   -34.4622 -34.4619 -34.4576 -34.4571 -34.4490 -34.4489 -34.4449 -34.4449
   -34.3986 -34.3960 -34.3876 -34.3865 -34.3856 -34.3846 -34.3844 -34.3838
   -34.3836 -34.3835 -34.3832 -34.3826 -34.3815 -34.3808 -34.3740 -34.3740
     8.5709   9.7576  10.0444  10.0496  10.0929  10.1022  10.1090  10.1268
    10.1324  10.1403  10.1850  10.3097  10.3113  10.3734  10.5542  10.6214
    10.6981  10.8483  10.8620  10.8710  10.8739  10.8809  10.8911  10.9725
    10.9775  11.0189  11.0264  11.0305  11.0308  11.0482  11.0646  11.0928
    11.0947  11.1701  11.1984  11.2968  11.3759  11.3802  11.3813  11.3818
    11.3897  11.3906  11.4372  11.5764  11.5921  11.6171  11.6669  11.7103
    11.7350  11.7389  11.7589  11.8142  11.8173  11.8461  11.9123  11.9140
    11.9566  11.9742  11.9931  12.0122  12.0667  12.1003  12.1444  12.1539
    12.1545  12.1634  12.2898  12.3425  12.3462  12.3528  12.3591  12.3691
    12.3691  12.3771  12.4727  12.4794  12.4888  12.6184  12.6970  12.7135
    12.7624  12.7721  12.8036  12.8308  12.8478  12.8510  12.8912  12.9502
    12.9518  12.9709  12.9827  12.9863  12.9931  13.0575  13.0819  13.1181
    13.1295  13.1538  13.1590  13.2111  13.2147  13.2383  13.2432  13.2711
    13.3001  13.3075  13.3601  13.3953  13.4262  13.4879  13.5034  13.5301
    13.5684  13.6194  13.6312  13.6722  13.7115  13.7343  13.7413  13.7634
    13.7858  13.8156  13.8291  13.8767  13.8876  13.9148  13.9188  13.9412
    13.9526  13.9870  14.1217  14.1244  14.1396  14.1561  14.2037  14.2103
    14.2340  14.2499  14.2945  14.3096  14.3452  14.3550  14.3697  14.3726
    14.4033  14.4074  14.4748  14.5120  14.5266  14.5859  14.5948  14.6034
    14.6150  14.6574  14.6777  14.6909  14.7372  14.7704  14.7739  14.7805
    14.7953  14.8849  14.8977  14.9451  14.9779  15.0168  15.2355  15.2891
    15.3217  15.4515  15.4644  15.8508  15.9695  15.9797  16.4892  16.5051
    17.3864  17.4156  17.5560  17.5857  17.8848  17.9738  18.2684  18.4179
    18.8437  18.9631  18.9856  19.4151  19.5856  20.0019  20.3335  20.3570
    20.3725  20.3774  20.4605  20.6237  21.3199  23.0898  23.1054  23.1789
    23.2946  23.3056  23.4397  23.6249  23.6914  23.7463  23.7937  23.9213
    24.2244  24.4030  24.6951  24.8944  24.9810  25.1364  25.1928  25.4919
    25.6332  25.6898

          k = 0.0556 0.2778 0.0456 ( 40229 PWs)   bands (ev):

   -69.3324 -69.3206 -69.3116 -69.3076 -69.3069 -69.3043 -69.3019 -69.3001
   -69.2989 -69.2987 -69.2978 -69.2956 -69.2944 -69.2909 -69.2885 -69.2870
   -68.7805 -68.7804 -68.7728 -68.7728 -68.7674 -68.7674 -68.7668 -68.7667
   -68.7656 -68.7655 -68.7649 -68.7648 -68.7594 -68.7594 -68.7517 -68.7516
   -35.1637 -35.1616 -35.1597 -35.1576 -35.1499 -35.1497 -35.1406 -35.1220
   -35.1212 -35.1208 -35.1156 -35.1136 -35.1043 -35.1033 -35.0666 -35.0608
   -35.0462 -35.0430 -35.0216 -35.0175 -35.0148 -35.0147 -35.0126 -35.0124
   -35.0095 -35.0079 -35.0067 -35.0057 -34.9962 -34.9959 -34.9915 -34.9850
   -34.9686 -34.9612 -34.9594 -34.9566 -34.9465 -34.9453 -34.9414 -34.9412
   -34.9357 -34.9347 -34.9247 -34.9221 -34.9144 -34.9051 -34.9050 -34.8965
   -34.6364 -34.6348 -34.6308 -34.6284 -34.6260 -34.6255 -34.6187 -34.6184
   -34.5931 -34.5922 -34.5888 -34.5880 -34.5799 -34.5786 -34.5733 -34.5725
   -34.5161 -34.5155 -34.5093 -34.5088 -34.4998 -34.4996 -34.4952 -34.4950
   -34.4689 -34.4688 -34.4613 -34.4611 -34.4563 -34.4563 -34.4498 -34.4497
   -34.3980 -34.3944 -34.3895 -34.3889 -34.3851 -34.3847 -34.3847 -34.3839
   -34.3837 -34.3833 -34.3832 -34.3830 -34.3797 -34.3793 -34.3747 -34.3745
     8.6494   9.7454   9.9497  10.1045  10.1228  10.1236  10.1560  10.1780
    10.1913  10.2602  10.3471  10.3545  10.3552  10.3722  10.5275  10.5583
    10.6938  10.7003  10.7171  10.7223  10.7379  10.7490  10.8451  10.9221
    10.9300  11.0095  11.0711  11.0760  11.0803  11.0851  11.0922  11.0925
    11.1077  11.1326  11.1549  11.1857  11.3124  11.3550  11.3750  11.3960
    11.4364  11.4674  11.5006  11.5954  11.6081  11.6109  11.6355  11.6666
    11.6787  11.7248  11.7772  11.7987  11.8048  11.9392  11.9422  11.9451
    11.9640  11.9857  12.0650  12.0650  12.0693  12.1553  12.1697  12.1758
    12.2523  12.3083  12.3099  12.3254  12.3510  12.3656  12.3812  12.3867
    12.3913  12.4364  12.4587  12.4626  12.5145  12.5249  12.5662  12.5759
    12.5939  12.5969  12.6044  12.6622  12.7465  12.7478  12.7886  12.8201
    12.8431  12.8575  12.9312  12.9536  13.0013  13.0524  13.1110  13.1928
    13.2058  13.2103  13.2653  13.2709  13.2777  13.2935  13.3113  13.3298
    13.3542  13.3636  13.4090  13.4100  13.4533  13.4832  13.5064  13.5963
    13.6337  13.6566  13.6916  13.7317  13.7831  13.8161  13.8532  13.8538
    13.8684  13.8838  13.9031  13.9329  13.9457  13.9477  13.9653  13.9662
    13.9724  13.9751  13.9982  14.0216  14.1166  14.1465  14.1890  14.2164
    14.2609  14.2860  14.2921  14.3030  14.3294  14.3361  14.3469  14.3675
    14.3999  14.4322  14.4544  14.4715  14.4835  14.5196  14.5347  14.5413
    14.5545  14.5924  14.6482  14.6511  14.6526  14.6855  14.7701  14.8102
    14.8123  14.8212  14.8479  14.9036  15.0561  15.1032  15.1067  15.1817
    15.6254  15.6861  15.7080  15.7278  16.1498  16.1616  16.3634  16.6625
    16.6651  17.0780  17.2250  17.3010  17.8007  18.0007  18.4451  18.4862
    18.9844  19.0513  19.6992  19.8885  20.5134  20.5460  20.6118  20.7630
    20.8256  20.9474  21.0340  21.4854  21.8055  21.8300  21.9678  22.1967
    22.3113  22.3396  22.5015  22.5722  23.3398  23.4859  23.5508  23.6875
    23.9434  24.0023  24.0144  24.4650  24.5007  24.6789  24.8985  25.1827
    25.4088  25.4910

          k = 0.0556 0.2778 0.1368 ( 40207 PWs)   bands (ev):

   -69.3324 -69.3206 -69.3116 -69.3076 -69.3069 -69.3043 -69.3019 -69.3001
   -69.2989 -69.2987 -69.2978 -69.2956 -69.2944 -69.2909 -69.2885 -69.2870
   -68.7805 -68.7804 -68.7728 -68.7728 -68.7674 -68.7674 -68.7668 -68.7667
   -68.7656 -68.7655 -68.7649 -68.7648 -68.7594 -68.7594 -68.7517 -68.7516
   -35.1637 -35.1615 -35.1597 -35.1576 -35.1500 -35.1496 -35.1406 -35.1220
   -35.1212 -35.1208 -35.1156 -35.1136 -35.1042 -35.1033 -35.0666 -35.0608
   -35.0462 -35.0430 -35.0216 -35.0175 -35.0147 -35.0146 -35.0125 -35.0124
   -35.0095 -35.0079 -35.0067 -35.0057 -34.9963 -34.9959 -34.9915 -34.9850
   -34.9686 -34.9612 -34.9594 -34.9566 -34.9465 -34.9453 -34.9414 -34.9412
   -34.9357 -34.9347 -34.9247 -34.9221 -34.9143 -34.9051 -34.9050 -34.8965
   -34.6364 -34.6348 -34.6309 -34.6284 -34.6260 -34.6255 -34.6187 -34.6184
   -34.5931 -34.5922 -34.5887 -34.5880 -34.5799 -34.5786 -34.5733 -34.5725
   -34.5161 -34.5154 -34.5093 -34.5088 -34.4998 -34.4996 -34.4953 -34.4950
   -34.4689 -34.4688 -34.4613 -34.4612 -34.4563 -34.4563 -34.4497 -34.4497
   -34.3978 -34.3945 -34.3896 -34.3888 -34.3854 -34.3848 -34.3845 -34.3838
   -34.3837 -34.3834 -34.3831 -34.3828 -34.3796 -34.3793 -34.3746 -34.3744
     8.6617   9.7536   9.9352  10.1070  10.1247  10.1251  10.1585  10.1800
    10.1943  10.2600  10.3333  10.3495  10.3552  10.3571  10.5276  10.5624
    10.6904  10.6957  10.7171  10.7205  10.7502  10.7567  10.8440  10.9212
    10.9288  10.9895  11.0703  11.0726  11.0781  11.0805  11.0834  11.0945
    11.1054  11.1416  11.1433  11.1753  11.3159  11.3561  11.3710  11.3958
    11.4263  11.4557  11.5003  11.5982  11.6059  11.6136  11.6300  11.6558
    11.6759  11.7260  11.7673  11.7923  11.8077  11.9403  11.9405  11.9558
    11.9726  11.9846  12.0621  12.0625  12.0771  12.1509  12.1742  12.1810
    12.2462  12.3112  12.3297  12.3347  12.3570  12.3804  12.3837  12.3890
    12.3907  12.4598  12.4603  12.4622  12.5153  12.5211  12.5712  12.5859
    12.6102  12.6188  12.6305  12.7084  12.7400  12.7766  12.7871  12.8411
    12.8462  12.8577  12.9263  12.9545  12.9886  13.0108  13.1180  13.1683
    13.1996  13.2104  13.2381  13.2568  13.2611  13.2949  13.3110  13.3227
    13.3607  13.3645  13.3979  13.4165  13.4311  13.4845  13.5160  13.5921
    13.6325  13.6939  13.7016  13.7330  13.7644  13.7753  13.8097  13.8213
    13.8403  13.8849  13.9108  13.9136  13.9140  13.9327  13.9463  13.9564
    13.9713  14.0395  14.0503  14.0789  14.1284  14.1860  14.2126  14.2369
    14.2821  14.2957  14.2992  14.3066  14.3120  14.3434  14.3443  14.3605
    14.3653  14.4522  14.4624  14.4664  14.4940  14.4994  14.5328  14.5552
    14.5610  14.5854  14.6334  14.6495  14.6627  14.7594  14.7656  14.8082
    14.8108  14.8217  14.8393  14.8988  14.9326  15.1045  15.1329  15.1823
    15.5136  15.5849  15.6453  15.9797  15.9887  16.1347  16.2937  16.9057
    16.9149  17.1219  17.2576  17.3054  17.4716  18.0630  18.4207  18.7213
    18.9304  19.2142  19.5418  19.7562  20.3354  20.3671  20.4818  20.7391
    20.7665  20.8455  20.8711  21.3216  21.9828  22.0037  22.0187  22.1386
    22.2497  22.4837  22.5692  22.8539  23.2076  23.2526  23.9567  24.0465
    24.1328  24.1344  24.3055  24.3075  24.3286  24.6736  24.9614  25.3127
    25.4881  25.5426

          k = 0.0556 0.2778 0.2279 ( 40215 PWs)   bands (ev):

   -69.3324 -69.3206 -69.3116 -69.3076 -69.3069 -69.3043 -69.3019 -69.3001
   -69.2989 -69.2987 -69.2978 -69.2956 -69.2944 -69.2909 -69.2885 -69.2870
   -68.7805 -68.7804 -68.7728 -68.7728 -68.7674 -68.7674 -68.7668 -68.7667
   -68.7656 -68.7655 -68.7649 -68.7648 -68.7594 -68.7594 -68.7517 -68.7516
   -35.1637 -35.1616 -35.1597 -35.1576 -35.1499 -35.1496 -35.1407 -35.1220
   -35.1211 -35.1208 -35.1156 -35.1136 -35.1043 -35.1033 -35.0667 -35.0608
   -35.0462 -35.0430 -35.0217 -35.0175 -35.0147 -35.0146 -35.0126 -35.0124
   -35.0095 -35.0079 -35.0067 -35.0057 -34.9963 -34.9959 -34.9915 -34.9850
   -34.9686 -34.9612 -34.9594 -34.9566 -34.9465 -34.9453 -34.9414 -34.9412
   -34.9357 -34.9347 -34.9247 -34.9221 -34.9144 -34.9051 -34.9051 -34.8965
   -34.6364 -34.6348 -34.6309 -34.6284 -34.6260 -34.6255 -34.6188 -34.6184
   -34.5931 -34.5922 -34.5887 -34.5880 -34.5800 -34.5786 -34.5733 -34.5725
   -34.5161 -34.5154 -34.5092 -34.5088 -34.4998 -34.4996 -34.4953 -34.4950
   -34.4689 -34.4689 -34.4614 -34.4611 -34.4563 -34.4562 -34.4498 -34.4497
   -34.3976 -34.3949 -34.3896 -34.3887 -34.3855 -34.3849 -34.3844 -34.3839
   -34.3836 -34.3836 -34.3830 -34.3827 -34.3797 -34.3793 -34.3746 -34.3745
     8.6814   9.7664   9.9085  10.1110  10.1276  10.1281  10.1618  10.1839
    10.1984  10.2576  10.2882  10.3531  10.3564  10.3600  10.5276  10.5690
    10.6855  10.6870  10.7170  10.7178  10.7519  10.7773  10.8422  10.9197
    10.9247  10.9649  11.0617  11.0638  11.0735  11.0749  11.0870  11.0942
    11.0993  11.1246  11.1564  11.1608  11.3200  11.3573  11.3633  11.3954
    11.4111  11.4382  11.5001  11.5983  11.6027  11.6195  11.6230  11.6412
    11.6724  11.7288  11.7517  11.7879  11.8073  11.9366  11.9420  11.9797
    11.9824  11.9830  12.0581  12.0587  12.0905  12.1463  12.1790  12.1872
    12.2351  12.3134  12.3363  12.3654  12.3716  12.3758  12.3834  12.3870
    12.4161  12.4574  12.4658  12.4984  12.5157  12.5172  12.5625  12.6180
    12.6371  12.6679  12.6727  12.7305  12.7836  12.7863  12.8248  12.8358
    12.8604  12.8869  12.9165  12.9177  12.9601  13.0293  13.1152  13.1191
    13.1739  13.1970  13.2117  13.2241  13.2564  13.2991  13.3116  13.3295
    13.3359  13.3558  13.3575  13.4154  13.4616  13.4760  13.5420  13.5942
    13.6332  13.6849  13.7061  13.7149  13.7342  13.7774  13.7818  13.7912
    13.7963  13.8609  13.8751  13.8808  13.9212  13.9322  13.9431  13.9432
    13.9789  14.0786  14.1064  14.1472  14.1593  14.1950  14.2334  14.2661
    14.3007  14.3117  14.3123  14.3148  14.3150  14.3183  14.3493  14.3557
    14.3744  14.4559  14.4597  14.4772  14.5088  14.5171  14.5238  14.5535
    14.5714  14.5899  14.6068  14.6496  14.6744  14.7320  14.7587  14.8010
    14.8104  14.8223  14.8277  14.8807  14.9504  15.1065  15.1830  15.2631
    15.2996  15.5235  15.6083  15.7713  16.1107  16.2298  16.3285  16.7351
    16.8902  17.2586  17.2847  17.5149  17.8356  18.1675  18.3641  18.5834
    18.8046  19.0687  19.7266  19.8523  20.0739  20.1026  20.2524  20.4241
    20.5969  20.7046  20.7110  21.3968  21.8916  22.0000  22.0824  22.3385
    22.3465  22.6216  23.0206  23.0762  23.1362  23.2927  23.9283  24.1910
    24.2057  24.2260  24.2863  24.4150  24.5253  24.8525  25.2417  25.5222
    25.6835  25.7102

          k = 0.0556 0.2778 0.3191 ( 40221 PWs)   bands (ev):

   -69.3324 -69.3206 -69.3116 -69.3076 -69.3069 -69.3043 -69.3019 -69.3001
   -69.2989 -69.2987 -69.2978 -69.2956 -69.2944 -69.2909 -69.2885 -69.2870
   -68.7805 -68.7804 -68.7728 -68.7728 -68.7674 -68.7674 -68.7668 -68.7667
   -68.7656 -68.7655 -68.7649 -68.7648 -68.7594 -68.7594 -68.7517 -68.7516
   -35.1637 -35.1616 -35.1597 -35.1576 -35.1500 -35.1496 -35.1407 -35.1220
   -35.1211 -35.1208 -35.1156 -35.1136 -35.1043 -35.1034 -35.0667 -35.0608
   -35.0462 -35.0430 -35.0216 -35.0175 -35.0147 -35.0146 -35.0126 -35.0124
   -35.0095 -35.0079 -35.0068 -35.0057 -34.9963 -34.9959 -34.9915 -34.9850
   -34.9686 -34.9612 -34.9594 -34.9566 -34.9465 -34.9453 -34.9414 -34.9412
   -34.9357 -34.9347 -34.9247 -34.9221 -34.9144 -34.9051 -34.9051 -34.8965
   -34.6364 -34.6348 -34.6309 -34.6284 -34.6259 -34.6255 -34.6188 -34.6184
   -34.5931 -34.5922 -34.5887 -34.5880 -34.5800 -34.5786 -34.5733 -34.5725
   -34.5162 -34.5154 -34.5093 -34.5088 -34.4998 -34.4996 -34.4953 -34.4950
   -34.4689 -34.4688 -34.4613 -34.4611 -34.4563 -34.4563 -34.4497 -34.4497
   -34.3973 -34.3952 -34.3896 -34.3887 -34.3856 -34.3850 -34.3843 -34.3839
   -34.3837 -34.3836 -34.3830 -34.3826 -34.3796 -34.3793 -34.3746 -34.3745
     8.6998   9.7782   9.8805  10.1145  10.1302  10.1312  10.1641  10.1880
    10.2013  10.2441  10.2696  10.3564  10.3574  10.3625  10.5277  10.5750
    10.6774  10.6812  10.7154  10.7169  10.7535  10.7906  10.8405  10.9165
    10.9185  10.9513  11.0541  11.0568  11.0675  11.0769  11.0790  11.0893
    11.1045  11.1136  11.1366  11.1776  11.3226  11.3547  11.3578  11.3951
    11.3980  11.4231  11.5000  11.5917  11.6066  11.6179  11.6225  11.6300
    11.6704  11.7323  11.7370  11.7864  11.8052  11.9352  11.9429  11.9815
    11.9897  12.0039  12.0550  12.0554  12.1040  12.1431  12.1822  12.1914
    12.2235  12.3155  12.3421  12.3648  12.3723  12.3852  12.3861  12.3999
    12.4320  12.4554  12.4648  12.5112  12.5228  12.5363  12.5511  12.6477
    12.6694  12.7049  12.7247  12.7299  12.7891  12.8290  12.8625  12.8647
    12.8660  12.8697  12.9080  12.9237  12.9732  13.0581  13.0677  13.1076
    13.1097  13.1603  13.1873  13.2147  13.2650  13.2953  13.3073  13.3136
    13.3383  13.3431  13.3581  13.4141  13.4713  13.4826  13.5698  13.6086
    13.6333  13.6360  13.6699  13.6921  13.7053  13.7157  13.7681  13.8002
    13.8130  13.8260  13.8483  13.8696  13.9249  13.9391  13.9414  13.9496
    13.9915  14.1084  14.1564  14.1623  14.1716  14.1980  14.2328  14.2714
    14.2963  14.3050  14.3172  14.3305  14.3414  14.3461  14.3617  14.3859
    14.4148  14.4227  14.4561  14.4908  14.5100  14.5271  14.5455  14.5508
    14.5676  14.5807  14.5980  14.6051  14.6503  14.6824  14.7525  14.7928
    14.8153  14.8165  14.8227  14.8770  15.1082  15.1156  15.1836  15.2408
    15.3948  15.5003  15.5766  15.5888  16.0921  16.1927  16.1981  16.6959
    16.7099  17.6245  17.6834  17.7724  18.0339  18.2259  18.2673  18.2719
    18.6028  19.1715  19.4347  19.7137  19.9113  19.9494  20.4114  20.4638
    20.4792  20.5874  20.6197  20.8937  21.6933  22.1728  22.4339  22.5491
    22.6802  22.7165  22.9320  23.2117  23.2775  23.5213  23.7199  23.8453
    23.8876  24.2741  24.4918  24.7762  24.8724  25.1794  25.3586  25.5225
    25.7000  25.7364

          k = 0.0556 0.2778-0.4103 ( 40216 PWs)   bands (ev):

   -69.3324 -69.3206 -69.3116 -69.3076 -69.3069 -69.3043 -69.3019 -69.3001
   -69.2989 -69.2987 -69.2978 -69.2956 -69.2944 -69.2909 -69.2885 -69.2870
   -68.7804 -68.7804 -68.7728 -68.7728 -68.7674 -68.7674 -68.7668 -68.7667
   -68.7656 -68.7655 -68.7649 -68.7648 -68.7594 -68.7594 -68.7517 -68.7516
   -35.1637 -35.1616 -35.1597 -35.1576 -35.1500 -35.1496 -35.1407 -35.1220
   -35.1211 -35.1208 -35.1156 -35.1136 -35.1043 -35.1034 -35.0667 -35.0608
   -35.0462 -35.0430 -35.0216 -35.0175 -35.0147 -35.0146 -35.0126 -35.0124
   -35.0095 -35.0079 -35.0067 -35.0057 -34.9963 -34.9960 -34.9915 -34.9850
   -34.9686 -34.9612 -34.9593 -34.9566 -34.9465 -34.9453 -34.9414 -34.9412
   -34.9357 -34.9347 -34.9247 -34.9221 -34.9143 -34.9051 -34.9051 -34.8965
   -34.6364 -34.6348 -34.6309 -34.6283 -34.6259 -34.6255 -34.6188 -34.6184
   -34.5931 -34.5922 -34.5887 -34.5880 -34.5799 -34.5786 -34.5733 -34.5725
   -34.5161 -34.5154 -34.5093 -34.5088 -34.4998 -34.4996 -34.4953 -34.4950
   -34.4689 -34.4688 -34.4613 -34.4611 -34.4563 -34.4563 -34.4497 -34.4497
   -34.3972 -34.3953 -34.3896 -34.3886 -34.3856 -34.3850 -34.3842 -34.3839
   -34.3837 -34.3835 -34.3830 -34.3825 -34.3796 -34.3793 -34.3747 -34.3746
     8.7073   9.7830   9.8682  10.1159  10.1313  10.1327  10.1648  10.1898
    10.2022  10.2353  10.2677  10.3576  10.3578  10.3635  10.5277  10.5774
    10.6731  10.6796  10.7145  10.7168  10.7541  10.7949  10.8398  10.9119
    10.9180  10.9482  11.0512  11.0570  11.0652  11.0701  11.0777  11.0900
    11.1068  11.1111  11.1269  11.1848  11.3234  11.3507  11.3578  11.3928
    11.3950  11.4173  11.5000  11.5891  11.6082  11.6162  11.6233  11.6259
    11.6702  11.7307  11.7340  11.7863  11.8040  11.9350  11.9433  11.9809
    11.9924  12.0144  12.0539  12.0541  12.1099  12.1420  12.1834  12.1929
    12.2184  12.3163  12.3443  12.3593  12.3748  12.3859  12.3859  12.4098
    12.4370  12.4548  12.4628  12.5095  12.5292  12.5428  12.5527  12.6600
    12.6847  12.7193  12.7232  12.7564  12.7931  12.8258  12.8407  12.8696
    12.8883  12.9030  12.9106  12.9386  12.9849  13.0415  13.0664  13.0924
    13.1072  13.1110  13.1843  13.2166  13.2698  13.2699  13.3130  13.3147
    13.3421  13.3495  13.3604  13.4110  13.4699  13.4888  13.5847  13.6046
    13.6192  13.6313  13.6632  13.6824  13.6843  13.6926  13.7579  13.7922
    13.8035  13.8066  13.8628  13.8915  13.9005  13.9409  13.9472  13.9569
    13.9974  14.1250  14.1532  14.1558  14.1696  14.2215  14.2544  14.2752
    14.2934  14.3145  14.3193  14.3366  14.3398  14.3532  14.3606  14.4093
    14.4429  14.4439  14.4465  14.4560  14.4829  14.5026  14.5300  14.5406
    14.5660  14.5714  14.6107  14.6418  14.6506  14.6851  14.7501  14.7892
    14.8104  14.8228  14.8247  14.8739  15.0335  15.1089  15.1838  15.4539
    15.5006  15.5121  15.5196  15.5599  15.8381  16.0863  16.1802  16.6162
    16.9476  17.7400  17.8298  17.9162  17.9189  18.1822  18.3177  18.4501
    18.4546  18.8872  19.4405  19.6380  19.8357  19.9919  20.4134  20.4419
    20.5001  20.5875  20.6342  20.6455  21.6147  22.2184  22.4785  22.7649
    22.7793  22.8674  22.8716  23.2754  23.3374  23.6348  23.6436  23.6729
    23.7236  24.0623  24.7446  24.9363  25.1159  25.2143  25.5268  25.5912
    25.5948  25.7258

          k = 0.0556 0.3889 0.0456 ( 40266 PWs)   bands (ev):

   -69.3303 -69.3243 -69.3107 -69.3083 -69.3070 -69.3053 -69.3011 -69.2991
   -69.2977 -69.2975 -69.2965 -69.2961 -69.2952 -69.2906 -69.2897 -69.2877
   -68.7791 -68.7790 -68.7752 -68.7752 -68.7673 -68.7672 -68.7670 -68.7669
   -68.7654 -68.7653 -68.7650 -68.7650 -68.7570 -68.7570 -68.7531 -68.7530
   -35.1554 -35.1532 -35.1496 -35.1488 -35.1424 -35.1413 -35.1369 -35.1323
   -35.1300 -35.1292 -35.1269 -35.1238 -35.1210 -35.1182 -35.0681 -35.0647
   -35.0390 -35.0319 -35.0226 -35.0177 -35.0160 -35.0159 -35.0144 -35.0129
   -35.0126 -35.0082 -35.0025 -35.0007 -34.9927 -34.9899 -34.9868 -34.9827
   -34.9771 -34.9680 -34.9460 -34.9448 -34.9438 -34.9408 -34.9400 -34.9347
   -34.9344 -34.9302 -34.9291 -34.9232 -34.9219 -34.9159 -34.9105 -34.9033
   -34.6293 -34.6275 -34.6215 -34.6199 -34.6192 -34.6189 -34.6101 -34.6094
   -34.6073 -34.6060 -34.6010 -34.6001 -34.5956 -34.5937 -34.5871 -34.5862
   -34.5022 -34.5016 -34.4933 -34.4930 -34.4873 -34.4872 -34.4806 -34.4804
   -34.4781 -34.4778 -34.4677 -34.4676 -34.4664 -34.4663 -34.4575 -34.4574
   -34.3962 -34.3934 -34.3918 -34.3907 -34.3851 -34.3849 -34.3845 -34.3840
   -34.3837 -34.3834 -34.3830 -34.3829 -34.3782 -34.3777 -34.3757 -34.3753
     8.8517   9.4151  10.0976  10.1880  10.2047  10.2416  10.2470  10.2673
    10.2919  10.3228  10.3779  10.4184  10.4372  10.4526  10.4670  10.4874
    10.5104  10.5184  10.5524  10.5631  10.6217  10.6831  10.7235  10.8468
    10.8792  11.0272  11.0652  11.0695  11.0769  11.1141  11.1180  11.1374
    11.1773  11.1888  11.1943  11.2071  11.2248  11.3229  11.3817  11.3855
    11.3897  11.4472  11.4824  11.5001  11.5180  11.5503  11.5779  11.5902
    11.5970  11.6279  11.7920  11.8673  11.9241  11.9684  11.9710  11.9762
    12.0218  12.0536  12.0982  12.1173  12.1409  12.1556  12.1568  12.1737
    12.2854  12.2998  12.3089  12.3323  12.3591  12.3652  12.4077  12.4127
    12.4141  12.4200  12.4235  12.4741  12.4745  12.4766  12.4976  12.5433
    12.5597  12.5620  12.6388  12.6501  12.6640  12.6744  12.7335  12.7765
    12.7853  12.8233  13.0371  13.0454  13.0712  13.0834  13.1314  13.1725
    13.2108  13.2317  13.2499  13.2848  13.3340  13.3425  13.3629  13.3682
    13.3885  13.4058  13.4270  13.4396  13.5383  13.6086  13.6386  13.6443
    13.6541  13.6986  13.7035  13.7252  13.7670  13.7846  13.8216  13.8465
    13.8496  13.8786  13.9102  13.9110  13.9398  13.9528  14.0105  14.0442
    14.0500  14.1117  14.1136  14.1178  14.1515  14.1788  14.1963  14.2033
    14.2236  14.2286  14.2444  14.2845  14.3106  14.3130  14.3413  14.3982
    14.4054  14.4096  14.4616  14.4697  14.4758  14.4798  14.4985  14.5522
    14.5714  14.5790  14.6089  14.6203  14.6376  14.6657  14.7463  14.7537
    14.8470  14.8603  14.8935  14.8941  14.8978  14.9824  15.0301  15.2399
    15.3306  15.6433  15.6619  15.7167  15.7267  16.1851  16.2847  16.6610
    16.6628  17.1862  17.2320  17.2416  18.0207  18.2917  19.2088  19.2231
    19.3409  19.3541  19.6583  19.7258  20.1315  20.2370  20.8908  20.9018
    21.0074  21.0247  21.1631  21.1782  21.3296  21.5093  21.6285  21.6618
    21.8932  22.1572  22.7350  23.1604  23.2855  23.3940  23.4823  23.5701
    23.7557  23.7685  23.7983  24.0052  24.1445  24.1562  24.4289  24.5314
    25.0720  25.2953

          k = 0.0556 0.3889 0.1368 ( 40238 PWs)   bands (ev):

   -69.3303 -69.3243 -69.3107 -69.3083 -69.3070 -69.3053 -69.3011 -69.2991
   -69.2977 -69.2975 -69.2965 -69.2961 -69.2952 -69.2906 -69.2897 -69.2877
   -68.7791 -68.7790 -68.7752 -68.7752 -68.7673 -68.7672 -68.7670 -68.7669
   -68.7654 -68.7653 -68.7650 -68.7650 -68.7570 -68.7570 -68.7531 -68.7530
   -35.1554 -35.1532 -35.1496 -35.1488 -35.1424 -35.1413 -35.1369 -35.1323
   -35.1300 -35.1292 -35.1269 -35.1237 -35.1210 -35.1182 -35.0681 -35.0647
   -35.0390 -35.0319 -35.0226 -35.0177 -35.0159 -35.0159 -35.0144 -35.0130
   -35.0126 -35.0082 -35.0024 -35.0007 -34.9927 -34.9899 -34.9867 -34.9826
   -34.9771 -34.9680 -34.9460 -34.9447 -34.9438 -34.9408 -34.9399 -34.9347
   -34.9344 -34.9302 -34.9291 -34.9232 -34.9219 -34.9159 -34.9104 -34.9033
   -34.6293 -34.6275 -34.6215 -34.6198 -34.6192 -34.6189 -34.6102 -34.6094
   -34.6073 -34.6060 -34.6010 -34.6001 -34.5956 -34.5937 -34.5871 -34.5862
   -34.5022 -34.5015 -34.4933 -34.4930 -34.4873 -34.4872 -34.4807 -34.4804
   -34.4781 -34.4778 -34.4677 -34.4676 -34.4664 -34.4663 -34.4575 -34.4574
   -34.3960 -34.3935 -34.3918 -34.3907 -34.3853 -34.3850 -34.3843 -34.3839
   -34.3837 -34.3836 -34.3829 -34.3828 -34.3781 -34.3777 -34.3755 -34.3753
     8.8634   9.4247  10.0852  10.1885  10.2075  10.2430  10.2483  10.2684
    10.2940  10.3219  10.3776  10.4206  10.4385  10.4562  10.4662  10.4732
    10.4800  10.5166  10.5526  10.5623  10.6233  10.6827  10.7236  10.8177
    10.8938  11.0284  11.0690  11.0705  11.0775  11.1158  11.1161  11.1290
    11.1818  11.1826  11.1946  11.2027  11.2161  11.3182  11.3769  11.3786
    11.3956  11.4395  11.4775  11.4895  11.5144  11.5396  11.5703  11.5902
    11.5903  11.6300  11.7959  11.8630  11.9306  11.9680  11.9739  11.9811
    12.0206  12.0608  12.1141  12.1438  12.1457  12.1538  12.1642  12.1842
    12.2882  12.3063  12.3243  12.3637  12.3638  12.3689  12.4068  12.4088
    12.4158  12.4168  12.4300  12.4774  12.4806  12.5242  12.5248  12.5532
    12.5710  12.5782  12.6432  12.6546  12.6717  12.6940  12.7348  12.7832
    12.7984  12.8216  13.0192  13.0403  13.0603  13.0714  13.1331  13.1664
    13.2146  13.2170  13.2474  13.2868  13.3044  13.3300  13.3346  13.3507
    13.3518  13.3737  13.3923  13.4426  13.4847  13.5717  13.5953  13.6422
    13.6575  13.6894  13.7234  13.7333  13.7465  13.7737  13.8107  13.8213
    13.8604  13.8710  13.8786  13.9145  13.9490  13.9571  14.0441  14.0509
    14.1058  14.1202  14.1267  14.1340  14.1784  14.1935  14.2112  14.2266
    14.2298  14.2447  14.2449  14.2564  14.3257  14.3438  14.3690  14.4072
    14.4109  14.4184  14.4578  14.4729  14.4774  14.4812  14.4863  14.5340
    14.5533  14.5780  14.5806  14.6106  14.6316  14.6667  14.7248  14.7448
    14.8429  14.8549  14.8780  14.8986  14.9532  14.9844  15.0303  15.2301
    15.4974  15.5159  15.5831  15.7199  15.7876  16.0216  16.1671  16.9190
    16.9218  17.3052  17.4099  17.4802  17.7458  17.8417  18.7094  19.1749
    19.4554  19.4793  19.6242  19.8899  20.2912  20.4036  20.6767  20.7995
    20.9265  20.9267  21.0468  21.1154  21.3057  21.3465  21.5604  21.6941
    22.2881  22.3656  22.5501  22.6201  23.2553  23.4217  23.6080  23.7449
    23.7834  23.9405  23.9454  24.2412  24.2445  24.5247  24.6999  24.7010
    25.2934  25.3310

          k = 0.0556 0.3889 0.2279 ( 40228 PWs)   bands (ev):

   -69.3303 -69.3243 -69.3107 -69.3083 -69.3070 -69.3053 -69.3011 -69.2991
   -69.2977 -69.2975 -69.2965 -69.2961 -69.2952 -69.2906 -69.2897 -69.2877
   -68.7791 -68.7790 -68.7752 -68.7752 -68.7673 -68.7672 -68.7670 -68.7669
   -68.7654 -68.7653 -68.7650 -68.7650 -68.7570 -68.7570 -68.7531 -68.7530
   -35.1554 -35.1532 -35.1496 -35.1487 -35.1423 -35.1413 -35.1369 -35.1323
   -35.1300 -35.1292 -35.1268 -35.1237 -35.1210 -35.1182 -35.0681 -35.0646
   -35.0390 -35.0318 -35.0226 -35.0177 -35.0160 -35.0159 -35.0144 -35.0130
   -35.0126 -35.0082 -35.0024 -35.0006 -34.9927 -34.9899 -34.9867 -34.9826
   -34.9771 -34.9680 -34.9460 -34.9447 -34.9438 -34.9408 -34.9400 -34.9346
   -34.9344 -34.9302 -34.9291 -34.9232 -34.9219 -34.9159 -34.9104 -34.9033
   -34.6293 -34.6274 -34.6215 -34.6198 -34.6192 -34.6188 -34.6101 -34.6095
   -34.6074 -34.6059 -34.6009 -34.6001 -34.5957 -34.5937 -34.5871 -34.5862
   -34.5022 -34.5014 -34.4933 -34.4930 -34.4873 -34.4871 -34.4807 -34.4804
   -34.4781 -34.4778 -34.4677 -34.4677 -34.4664 -34.4663 -34.4575 -34.4574
   -34.3958 -34.3939 -34.3916 -34.3908 -34.3854 -34.3852 -34.3841 -34.3839
   -34.3837 -34.3837 -34.3828 -34.3827 -34.3780 -34.3778 -34.3755 -34.3753
     8.8821   9.4399  10.0621  10.1895  10.2118  10.2452  10.2500  10.2707
    10.2965  10.3205  10.3758  10.4239  10.4285  10.4405  10.4620  10.4649
    10.4664  10.5139  10.5530  10.5610  10.6258  10.6821  10.7235  10.7800
    10.9092  11.0303  11.0655  11.0756  11.0913  11.1076  11.1188  11.1189
    11.1732  11.1864  11.1946  11.1963  11.1998  11.3101  11.3622  11.3741
    11.4025  11.4278  11.4715  11.4736  11.5094  11.5246  11.5593  11.5787
    11.5906  11.6333  11.8022  11.8570  11.9385  11.9637  11.9835  11.9918
    12.0191  12.0697  12.1385  12.1467  12.1492  12.1757  12.1927  12.1991
    12.2926  12.3018  12.3629  12.3718  12.3770  12.4076  12.4081  12.4109
    12.4117  12.4221  12.4375  12.4821  12.4865  12.5645  12.5720  12.5893
    12.6020  12.6035  12.6540  12.6637  12.6669  12.7372  12.7426  12.7799
    12.8187  12.8325  12.9619  13.0348  13.0467  13.0754  13.1347  13.1575
    13.1661  13.2133  13.2441  13.2720  13.2781  13.2960  13.3212  13.3225
    13.3227  13.3342  13.3562  13.4337  13.4434  13.5113  13.5143  13.5594
    13.6723  13.6741  13.7201  13.7280  13.7484  13.7815  13.7856  13.8334
    13.8537  13.8581  13.8778  13.8835  13.9667  14.0066  14.0524  14.0758
    14.1172  14.1304  14.1483  14.1509  14.1765  14.1996  14.2222  14.2319
    14.2672  14.2863  14.3128  14.3201  14.3332  14.3846  14.4046  14.4130
    14.4149  14.4290  14.4568  14.4568  14.4733  14.4758  14.4836  14.5067
    14.5313  14.5535  14.5719  14.5861  14.6175  14.6193  14.6675  14.7424
    14.8364  14.8426  14.8722  14.8999  14.9910  15.0306  15.2138  15.2202
    15.2991  15.3847  15.7087  15.8219  15.9062  15.9206  16.0403  17.1567
    17.2995  17.3047  17.4117  17.6105  17.7371  17.8478  18.0876  19.0866
    19.2475  19.3779  19.7761  19.7979  20.1926  20.3837  20.4559  20.7291
    20.7788  20.8704  21.1997  21.3158  21.4412  21.4454  21.6468  21.7688
    22.0638  22.2016  22.3048  22.5554  23.3492  23.3502  23.4928  23.6892
    24.0413  24.3099  24.4217  24.5382  24.6285  24.7966  25.0720  25.1934
    25.3303  25.5122

          k = 0.0556 0.3889 0.3191 ( 40213 PWs)   bands (ev):

   -69.3303 -69.3243 -69.3107 -69.3083 -69.3070 -69.3053 -69.3011 -69.2991
   -69.2977 -69.2975 -69.2965 -69.2961 -69.2952 -69.2906 -69.2897 -69.2877
   -68.7791 -68.7790 -68.7752 -68.7752 -68.7673 -68.7672 -68.7670 -68.7669
   -68.7654 -68.7653 -68.7650 -68.7650 -68.7570 -68.7570 -68.7531 -68.7530
   -35.1554 -35.1532 -35.1496 -35.1488 -35.1423 -35.1413 -35.1369 -35.1323
   -35.1300 -35.1292 -35.1267 -35.1237 -35.1210 -35.1182 -35.0681 -35.0646
   -35.0390 -35.0318 -35.0226 -35.0177 -35.0160 -35.0159 -35.0144 -35.0129
   -35.0126 -35.0082 -35.0024 -35.0006 -34.9927 -34.9899 -34.9868 -34.9826
   -34.9771 -34.9680 -34.9459 -34.9446 -34.9438 -34.9408 -34.9400 -34.9346
   -34.9344 -34.9302 -34.9291 -34.9232 -34.9218 -34.9159 -34.9104 -34.9033
   -34.6294 -34.6274 -34.6216 -34.6198 -34.6191 -34.6188 -34.6101 -34.6095
   -34.6074 -34.6059 -34.6009 -34.6001 -34.5957 -34.5937 -34.5871 -34.5861
[...]
    14.8088  14.8088  14.8088  14.8088  14.8307  14.8307  14.8308  14.8308
    15.0617  15.0617  15.0617  15.0617  17.9998  17.9998  17.9998  17.9998
    17.9998  17.9998  17.9998  17.9998  19.3237  19.3237  19.3237  19.3237
    19.3237  19.3237  19.3237  19.3237  19.7394  19.7394  19.7394  19.7394
    20.4609  20.4609  20.4609  20.4609  21.0495  21.0495  21.0495  21.0495
    21.0495  21.0495  21.0495  21.0495  23.2993  23.2993  23.2993  23.2993
    24.7427  24.7427  24.7427  24.7427  24.7427  24.7427  24.7428  24.7428
    25.3895  25.3895

          k =-0.5000-0.5000 0.1368 ( 40232 PWs)   bands (ev):

   -69.3219 -69.3219 -69.3218 -69.3218 -69.2991 -69.2991 -69.2991 -69.2991
   -69.2942 -69.2942 -69.2942 -69.2942 -69.2942 -69.2941 -69.2941 -69.2941
   -68.7741 -68.7741 -68.7741 -68.7741 -68.7741 -68.7740 -68.7740 -68.7740
   -68.7581 -68.7581 -68.7581 -68.7581 -68.7581 -68.7581 -68.7581 -68.7581
   -35.1487 -35.1487 -35.1486 -35.1486 -35.1486 -35.1486 -35.1486 -35.1486
   -35.1301 -35.1301 -35.1301 -35.1301 -35.0842 -35.0842 -35.0841 -35.0841
   -35.0210 -35.0210 -35.0210 -35.0210 -35.0210 -35.0210 -35.0210 -35.0210
   -34.9840 -34.9840 -34.9840 -34.9840 -34.9808 -34.9808 -34.9808 -34.9808
   -34.9808 -34.9808 -34.9808 -34.9808 -34.9561 -34.9561 -34.9561 -34.9560
   -34.9412 -34.9412 -34.9412 -34.9412 -34.8916 -34.8916 -34.8915 -34.8915
   -34.6356 -34.6356 -34.6356 -34.6356 -34.6356 -34.6356 -34.6356 -34.6356
   -34.5526 -34.5526 -34.5526 -34.5526 -34.5499 -34.5499 -34.5499 -34.5499
   -34.5380 -34.5380 -34.5380 -34.5380 -34.5380 -34.5380 -34.5380 -34.5380
   -34.4498 -34.4498 -34.4498 -34.4498 -34.4496 -34.4496 -34.4496 -34.4496
   -34.3906 -34.3906 -34.3906 -34.3906 -34.3898 -34.3898 -34.3898 -34.3898
   -34.3787 -34.3787 -34.3787 -34.3787 -34.3786 -34.3786 -34.3786 -34.3786
     9.5876   9.5876   9.5876   9.5876  10.2208  10.2208  10.2208  10.2208
    10.5534  10.5534  10.5534  10.5534  10.5534  10.5534  10.5534  10.5534
    10.6710  10.6710  10.6710  10.6710  10.7183  10.7183  10.7183  10.7183
    10.7183  10.7183  10.7183  10.7183  10.7976  10.7976  10.7976  10.7976
    11.1059  11.1059  11.1059  11.1059  11.4060  11.4060  11.4060  11.4060
    11.4060  11.4060  11.4060  11.4060  11.7308  11.7308  11.7308  11.7308
    11.7308  11.7308  11.7308  11.7308  11.8779  11.8779  11.8779  11.8779
    12.1061  12.1061  12.1061  12.1061  12.3599  12.3599  12.3599  12.3599
    12.4457  12.4457  12.4457  12.4457  12.5041  12.5041  12.5041  12.5041
    12.5199  12.5199  12.5199  12.5199  12.6881  12.6881  12.6881  12.6881
    12.6881  12.6881  12.6881  12.6881  12.7339  12.7339  12.7339  12.7339
    12.9893  12.9893  12.9893  12.9893  13.0764  13.0764  13.0764  13.0764
    13.2513  13.2513  13.2513  13.2513  13.2513  13.2513  13.2514  13.2514
    13.2809  13.2809  13.2809  13.2809  13.2809  13.2809  13.2810  13.2810
    13.3437  13.3437  13.3437  13.3437  13.5732  13.5732  13.5732  13.5732
    13.7804  13.7804  13.7804  13.7805  13.9241  13.9241  13.9241  13.9241
    13.9241  13.9241  13.9242  13.9242  14.1380  14.1380  14.1380  14.1380
    14.2021  14.2021  14.2021  14.2021  14.3441  14.3441  14.3441  14.3441
    14.4540  14.4540  14.4540  14.4540  14.4540  14.4540  14.4540  14.4540
    14.7499  14.7499  14.7499  14.7499  14.8141  14.8141  14.8141  14.8141
    14.8141  14.8141  14.8141  14.8141  14.8309  14.8309  14.8309  14.8309
    15.4054  15.4054  15.4054  15.4054  18.0276  18.0276  18.0276  18.0276
    18.0276  18.0276  18.0276  18.0276  19.0340  19.0340  19.0340  19.0340
    19.2402  19.2402  19.2402  19.2402  19.2402  19.2402  19.2402  19.2402
    21.1716  21.1716  21.1716  21.1716  21.1781  21.1781  21.1781  21.1781
    21.1781  21.1781  21.1781  21.1781  23.3460  23.3460  23.3460  23.3460
    24.3391  24.3391  24.3391  24.3391  24.3391  24.3391  24.3391  24.3391
    25.1397  25.1397

          k =-0.5000-0.5000 0.2279 ( 40228 PWs)   bands (ev):

   -69.3219 -69.3219 -69.3218 -69.3218 -69.2991 -69.2991 -69.2991 -69.2991
   -69.2942 -69.2942 -69.2942 -69.2942 -69.2942 -69.2941 -69.2941 -69.2941
   -68.7741 -68.7741 -68.7741 -68.7741 -68.7741 -68.7740 -68.7740 -68.7740
   -68.7581 -68.7581 -68.7581 -68.7581 -68.7581 -68.7581 -68.7581 -68.7581
   -35.1487 -35.1487 -35.1486 -35.1486 -35.1486 -35.1486 -35.1486 -35.1486
   -35.1301 -35.1301 -35.1301 -35.1301 -35.0842 -35.0841 -35.0841 -35.0841
   -35.0210 -35.0210 -35.0210 -35.0210 -35.0210 -35.0210 -35.0210 -35.0210
   -34.9841 -34.9841 -34.9840 -34.9840 -34.9808 -34.9808 -34.9808 -34.9808
   -34.9808 -34.9808 -34.9808 -34.9808 -34.9560 -34.9560 -34.9560 -34.9560
   -34.9413 -34.9413 -34.9412 -34.9412 -34.8916 -34.8916 -34.8916 -34.8916
   -34.6356 -34.6356 -34.6356 -34.6356 -34.6356 -34.6356 -34.6356 -34.6356
   -34.5526 -34.5526 -34.5526 -34.5526 -34.5499 -34.5499 -34.5499 -34.5499
   -34.5380 -34.5380 -34.5380 -34.5380 -34.5380 -34.5380 -34.5380 -34.5380
   -34.4498 -34.4498 -34.4498 -34.4498 -34.4496 -34.4496 -34.4496 -34.4496
   -34.3907 -34.3907 -34.3907 -34.3907 -34.3896 -34.3896 -34.3896 -34.3896
   -34.3787 -34.3787 -34.3787 -34.3787 -34.3786 -34.3786 -34.3786 -34.3786
     9.5945   9.5945   9.5945   9.5945  10.2111  10.2111  10.2111  10.2111
    10.5528  10.5528  10.5528  10.5528  10.5528  10.5528  10.5528  10.5528
    10.6526  10.6526  10.6526  10.6526  10.7157  10.7157  10.7157  10.7157
    10.7157  10.7157  10.7157  10.7158  10.8224  10.8224  10.8224  10.8225
    11.1012  11.1012  11.1012  11.1012  11.4178  11.4178  11.4178  11.4178
    11.4178  11.4178  11.4178  11.4178  11.7241  11.7241  11.7241  11.7241
    11.7241  11.7241  11.7241  11.7241  11.8822  11.8822  11.8822  11.8822
    12.1084  12.1085  12.1085  12.1085  12.3603  12.3603  12.3603  12.3603
    12.4356  12.4356  12.4356  12.4356  12.5039  12.5039  12.5039  12.5039
    12.5562  12.5563  12.5563  12.5563  12.6875  12.6875  12.6875  12.6875
    12.6875  12.6875  12.6875  12.6875  12.7325  12.7325  12.7325  12.7325
    12.9747  12.9747  12.9747  12.9747  13.0929  13.0929  13.0929  13.0929
    13.2645  13.2645  13.2645  13.2645  13.2645  13.2645  13.2645  13.2645
    13.2957  13.2957  13.2957  13.2957  13.2957  13.2957  13.2957  13.2957
    13.3480  13.3480  13.3481  13.3481  13.5736  13.5736  13.5736  13.5737
    13.7247  13.7247  13.7247  13.7247  13.8388  13.8388  13.8388  13.8388
    13.8388  13.8388  13.8388  13.8388  14.0324  14.0324  14.0324  14.0324
    14.1392  14.1392  14.1392  14.1392  14.3332  14.3332  14.3332  14.3332
    14.5047  14.5047  14.5047  14.5047  14.5047  14.5047  14.5047  14.5047
    14.7563  14.7563  14.7563  14.7563  14.8228  14.8228  14.8228  14.8228
    14.8228  14.8228  14.8228  14.8228  14.8310  14.8310  14.8310  14.8310
    15.8494  15.8494  15.8494  15.8494  18.0756  18.0756  18.0756  18.0756
    18.0756  18.0756  18.0756  18.0756  18.3627  18.3627  18.3627  18.3627
    19.1173  19.1173  19.1173  19.1173  19.1173  19.1173  19.1173  19.1173
    21.3846  21.3846  21.3846  21.3846  21.3846  21.3846  21.3846  21.3846
    21.8251  21.8251  21.8251  21.8251  23.4283  23.4283  23.4283  23.4283
    23.8923  23.8924  23.8924  23.8924  23.8924  23.8924  23.8924  23.8924
    24.8896  24.8896

          k =-0.5000-0.5000 0.3191 ( 40252 PWs)   bands (ev):

   -69.3219 -69.3219 -69.3218 -69.3218 -69.2991 -69.2991 -69.2991 -69.2991
   -69.2942 -69.2942 -69.2942 -69.2942 -69.2942 -69.2941 -69.2941 -69.2941
   -68.7741 -68.7741 -68.7741 -68.7741 -68.7741 -68.7740 -68.7740 -68.7740
   -68.7581 -68.7581 -68.7581 -68.7581 -68.7581 -68.7581 -68.7581 -68.7581
   -35.1487 -35.1487 -35.1486 -35.1486 -35.1486 -35.1486 -35.1486 -35.1486
   -35.1301 -35.1301 -35.1301 -35.1301 -35.0841 -35.0841 -35.0841 -35.0841
   -35.0211 -35.0211 -35.0211 -35.0211 -35.0211 -35.0211 -35.0211 -35.0210
   -34.9840 -34.9840 -34.9840 -34.9840 -34.9809 -34.9809 -34.9809 -34.9809
   -34.9809 -34.9809 -34.9808 -34.9808 -34.9560 -34.9560 -34.9560 -34.9560
   -34.9413 -34.9413 -34.9412 -34.9412 -34.8915 -34.8915 -34.8915 -34.8915
   -34.6356 -34.6356 -34.6356 -34.6356 -34.6356 -34.6356 -34.6356 -34.6356
   -34.5526 -34.5526 -34.5526 -34.5526 -34.5499 -34.5499 -34.5499 -34.5499
   -34.5380 -34.5380 -34.5380 -34.5380 -34.5380 -34.5380 -34.5380 -34.5380
   -34.4497 -34.4497 -34.4497 -34.4497 -34.4496 -34.4496 -34.4496 -34.4496
   -34.3908 -34.3908 -34.3908 -34.3908 -34.3895 -34.3895 -34.3895 -34.3895
   -34.3787 -34.3787 -34.3787 -34.3787 -34.3787 -34.3787 -34.3787 -34.3787
     9.6007   9.6007   9.6007   9.6007  10.2023  10.2023  10.2023  10.2023
    10.5522  10.5523  10.5523  10.5523  10.5523  10.5523  10.5523  10.5523
    10.6403  10.6403  10.6403  10.6403  10.7135  10.7135  10.7135  10.7135
    10.7135  10.7135  10.7135  10.7135  10.8409  10.8409  10.8409  10.8409
    11.0968  11.0968  11.0968  11.0968  11.4287  11.4287  11.4287  11.4287
    11.4287  11.4287  11.4287  11.4287  11.7175  11.7175  11.7175  11.7175
    11.7175  11.7175  11.7175  11.7175  11.8858  11.8858  11.8858  11.8858
    12.1104  12.1104  12.1104  12.1104  12.3607  12.3607  12.3607  12.3607
    12.4309  12.4309  12.4309  12.4309  12.5037  12.5037  12.5037  12.5037
    12.5901  12.5901  12.5901  12.5901  12.6871  12.6871  12.6871  12.6871
    12.6871  12.6871  12.6871  12.6871  12.7314  12.7314  12.7314  12.7314
    12.9522  12.9522  12.9522  12.9522  13.1169  13.1169  13.1169  13.1169
    13.2695  13.2695  13.2695  13.2695  13.2695  13.2695  13.2695  13.2695
    13.3209  13.3209  13.3209  13.3209  13.3209  13.3209  13.3209  13.3209
    13.3519  13.3519  13.3520  13.3520  13.5740  13.5740  13.5740  13.5740
    13.6446  13.6446  13.6446  13.6446  13.7663  13.7663  13.7663  13.7663
    13.7663  13.7663  13.7663  13.7663  13.9559  13.9559  13.9559  13.9559
    14.1404  14.1404  14.1404  14.1404  14.3236  14.3236  14.3236  14.3236
    14.5403  14.5403  14.5403  14.5403  14.5403  14.5403  14.5403  14.5403
    14.7617  14.7617  14.7617  14.7617  14.8311  14.8311  14.8311  14.8311
    14.8311  14.8311  14.8312  14.8312  14.8312  14.8312  14.8312  14.8312
    16.3209  16.3209  16.3209  16.3209  17.7584  17.7584  17.7584  17.7584
    18.1255  18.1255  18.1255  18.1255  18.1255  18.1255  18.1255  18.1255
    19.0093  19.0093  19.0093  19.0093  19.0093  19.0093  19.0093  19.0093
    21.5898  21.5898  21.5898  21.5898  21.5898  21.5898  21.5898  21.5898
    22.3265  22.3265  22.3265  22.3265  23.5145  23.5145  23.5145  23.5145
    23.5415  23.5415  23.5415  23.5415  23.5415  23.5415  23.5416  23.5416
    24.7303  24.7303

          k =-0.5000-0.5000-0.4103 ( 40272 PWs)   bands (ev):

   -69.3219 -69.3219 -69.3218 -69.3218 -69.2991 -69.2991 -69.2991 -69.2991
   -69.2942 -69.2942 -69.2942 -69.2942 -69.2942 -69.2941 -69.2941 -69.2941
   -68.7741 -68.7741 -68.7741 -68.7741 -68.7741 -68.7740 -68.7740 -68.7740
   -68.7581 -68.7581 -68.7581 -68.7581 -68.7581 -68.7581 -68.7581 -68.7581
   -35.1487 -35.1487 -35.1486 -35.1486 -35.1486 -35.1486 -35.1486 -35.1486
   -35.1301 -35.1301 -35.1301 -35.1301 -35.0841 -35.0841 -35.0841 -35.0841
   -35.0211 -35.0211 -35.0210 -35.0210 -35.0210 -35.0210 -35.0210 -35.0210
   -34.9841 -34.9841 -34.9840 -34.9840 -34.9809 -34.9809 -34.9808 -34.9808
   -34.9808 -34.9808 -34.9808 -34.9808 -34.9561 -34.9561 -34.9560 -34.9560
   -34.9413 -34.9413 -34.9412 -34.9412 -34.8915 -34.8915 -34.8915 -34.8915
   -34.6356 -34.6356 -34.6356 -34.6356 -34.6356 -34.6356 -34.6356 -34.6356
   -34.5527 -34.5527 -34.5527 -34.5527 -34.5499 -34.5499 -34.5499 -34.5499
   -34.5380 -34.5380 -34.5380 -34.5380 -34.5380 -34.5380 -34.5380 -34.5380
   -34.4497 -34.4497 -34.4497 -34.4497 -34.4496 -34.4496 -34.4496 -34.4496
   -34.3909 -34.3909 -34.3909 -34.3909 -34.3895 -34.3895 -34.3895 -34.3895
   -34.3787 -34.3787 -34.3787 -34.3787 -34.3787 -34.3787 -34.3787 -34.3787
     9.6032   9.6032   9.6032   9.6032  10.1988  10.1988  10.1988  10.1988
    10.5520  10.5520  10.5521  10.5521  10.5521  10.5521  10.5521  10.5521
    10.6361  10.6361  10.6361  10.6361  10.7126  10.7126  10.7126  10.7126
    10.7126  10.7126  10.7126  10.7126  10.8476  10.8476  10.8476  10.8476
    11.0949  11.0949  11.0949  11.0949  11.4332  11.4332  11.4332  11.4332
    11.4332  11.4332  11.4332  11.4332  11.7147  11.7147  11.7147  11.7147
    11.7147  11.7147  11.7147  11.7147  11.8872  11.8872  11.8872  11.8873
    12.1110  12.1111  12.1111  12.1111  12.3608  12.3608  12.3608  12.3608
    12.4296  12.4296  12.4296  12.4296  12.5036  12.5036  12.5037  12.5037
    12.6050  12.6050  12.6050  12.6050  12.6870  12.6870  12.6870  12.6870
    12.6870  12.6870  12.6870  12.6870  12.7309  12.7309  12.7309  12.7309
    12.9405  12.9405  12.9405  12.9405  13.1292  13.1292  13.1292  13.1292
    13.2707  13.2707  13.2707  13.2707  13.2707  13.2707  13.2707  13.2707
    13.3339  13.3339  13.3339  13.3340  13.3340  13.3340  13.3340  13.3340
    13.3535  13.3535  13.3535  13.3535  13.5741  13.5741  13.5741  13.5741
    13.6060  13.6060  13.6060  13.6060  13.7368  13.7368  13.7368  13.7368
    13.7368  13.7368  13.7368  13.7368  13.9373  13.9373  13.9373  13.9373
    14.1410  14.1410  14.1410  14.1410  14.3198  14.3198  14.3198  14.3198
    14.5528  14.5528  14.5528  14.5528  14.5528  14.5528  14.5528  14.5528
    14.7638  14.7638  14.7639  14.7639  14.8311  14.8311  14.8311  14.8311
    14.8346  14.8346  14.8346  14.8346  14.8346  14.8346  14.8347  14.8347
    16.6206  16.6206  16.6206  16.6206  17.4147  17.4147  17.4147  17.4147
    18.1480  18.1480  18.1480  18.1480  18.1481  18.1481  18.1481  18.1481
    18.9654  18.9654  18.9654  18.9654  18.9654  18.9654  18.9654  18.9654
    21.6827  21.6827  21.6827  21.6827  21.6827  21.6827  21.6827  21.6827
    22.5246  22.5246  22.5246  22.5246  23.4004  23.4004  23.4004  23.4004
    23.4004  23.4004  23.4004  23.4004  23.5518  23.5518  23.5518  23.5518
    24.6871  24.6871

     the Fermi energy is    14.8403 ev

!    total energy              =  -16384.19215811 Ry

     total all-electron energy =   -322945.045865 Ry
     estimated scf accuracy    <       0.00000044 Ry
     smearing contrib. (-TS)   =       0.11370241 Ry
     internal energy E=F+TS    =  -16384.30586052 Ry

     The total energy is F=E-TS. E is the sum of the following terms:
     one-electron contribution =   -4749.06107501 Ry
     hartree contribution      =    2702.98240873 Ry
     xc contribution           =    -985.25896206 Ry
     ewald contribution        =   -5185.63577213 Ry
     one-center paw contrib.   =   -8167.33246005 Ry

     convergence has been achieved in  19 iterations

     Forces acting on atoms (cartesian axes, Ry/au):

     atom    1 type  1   force =     0.00000000    0.00000000    0.00427517
     atom    2 type  1   force =    -0.00000338   -0.00000338    0.00428944
     atom    3 type  1   force =     0.00000154    0.00000000    0.01130942
     atom    4 type  1   force =     0.00000000    0.00000154    0.01130942
     atom    5 type  1   force =     0.00000000    0.00000000   -0.01149593
     atom    6 type  1   force =    -0.00002118   -0.00002118   -0.01149736
     atom    7 type  1   force =     0.00000263    0.00000000   -0.00411578
     atom    8 type  1   force =     0.00000000    0.00000263   -0.00411578
     atom    9 type  1   force =     0.00000000    0.00000000    0.00429405
     atom   10 type  1   force =    -0.00000338    0.00000338    0.00428944
     atom   11 type  1   force =     0.00000175    0.00000000    0.01129941
     atom   12 type  1   force =     0.00000000   -0.00000154    0.01130942
     atom   13 type  1   force =     0.00000000    0.00000000   -0.01148285
     atom   14 type  1   force =    -0.00002118    0.00002118   -0.01149736
     atom   15 type  1   force =    -0.00001316    0.00000000   -0.00408608
     atom   16 type  1   force =     0.00000000   -0.00000263   -0.00411578
     atom   17 type  1   force =     0.00000000    0.00000000    0.00429405
     atom   18 type  1   force =     0.00000338   -0.00000338    0.00428944
     atom   19 type  1   force =    -0.00000154    0.00000000    0.01130942
     atom   20 type  1   force =     0.00000000    0.00000175    0.01129941
     atom   21 type  1   force =     0.00000000    0.00000000   -0.01148285
     atom   22 type  1   force =     0.00002118   -0.00002118   -0.01149736
     atom   23 type  1   force =    -0.00000263    0.00000000   -0.00411578
     atom   24 type  1   force =     0.00000000   -0.00001316   -0.00408608
     atom   25 type  1   force =     0.00000000    0.00000000    0.00429677
     atom   26 type  1   force =     0.00000338    0.00000338    0.00428944
     atom   27 type  1   force =    -0.00000175    0.00000000    0.01129941
     atom   28 type  1   force =     0.00000000   -0.00000175    0.01129941
     atom   29 type  1   force =     0.00000000    0.00000000   -0.01149458
     atom   30 type  1   force =     0.00002118    0.00002118   -0.01149736
     atom   31 type  1   force =     0.00001316    0.00000000   -0.00408608
     atom   32 type  1   force =     0.00000000    0.00001316   -0.00408608

     Total force =     0.048588     Total SCF correction =     0.003296


     Computing stress (Cartesian axis) and pressure

          total   stress  (Ry/bohr**3)                   (kbar)     P=      -54.32
  -0.00037428   0.00000000   0.00000000          -55.06        0.00        0.00
   0.00000000  -0.00037428   0.00000000            0.00      -55.06        0.00
   0.00000000   0.00000000  -0.00035922            0.00        0.00      -52.84


     Writing output data file /scratch/HVmUsJEhBySRVQRU.save/
 
     init_run     :     24.72s CPU     25.28s WALL (       1 calls)
     electrons    :   1510.28s CPU   1527.41s WALL (       1 calls)
     forces       :     13.88s CPU     14.01s WALL (       1 calls)
     stress       :    111.91s CPU    112.67s WALL (       1 calls)

     Called by init_run:
     wfcinit      :     24.20s CPU     24.67s WALL (       1 calls)
     potinit      :      0.18s CPU      0.19s WALL (       1 calls)
     hinit0       :      0.12s CPU      0.13s WALL (       1 calls)

     Called by electrons:
     c_bands      :   1324.30s CPU   1337.84s WALL (      20 calls)
     sum_band     :    183.30s CPU    186.31s WALL (      20 calls)
     v_of_rho     :      0.29s CPU      0.33s WALL (      20 calls)
     newd         :      0.68s CPU      1.03s WALL (      20 calls)
     PAW_pot      :      1.59s CPU      1.76s WALL (      20 calls)
     mix_rho      :      0.11s CPU      0.13s WALL (      20 calls)

     Called by c_bands:
     init_us_2    :      8.86s CPU      8.96s WALL (    3225 calls)
     cegterg      :   1293.71s CPU   1306.36s WALL (    1500 calls)

     Called by *egterg:
     cdiaghg      :    134.59s CPU    135.28s WALL (    5314 calls)
     h_psi        :    685.71s CPU    694.89s WALL (    5464 calls)
     s_psi        :     65.14s CPU     65.53s WALL (    5464 calls)
     g_psi        :      1.80s CPU      1.83s WALL (    3889 calls)

     Called by h_psi:
     h_psi:calbec :    107.55s CPU    108.23s WALL (    5464 calls)
     vloc_psi     :    508.21s CPU    516.15s WALL (    5464 calls)
     add_vuspsi   :     65.22s CPU     65.69s WALL (    5464 calls)

     General routines
     calbec       :    176.97s CPU    178.04s WALL (    7339 calls)
     fft          :      0.37s CPU      0.49s WALL (     284 calls)
     ffts         :      0.03s CPU      0.03s WALL (      40 calls)
     fftw         :    606.79s CPU    616.14s WALL ( 2739192 calls)
     interpolate  :      0.05s CPU      0.05s WALL (      20 calls)
 
     Parallel routines
     fft_scatt_xy :     47.48s CPU     48.26s WALL ( 2739516 calls)
     fft_scatt_yz :    474.21s CPU    481.69s WALL ( 2739516 calls)
 
     PWSCF        :  27m59.45s CPU  28m22.55s WALL

 
   This run was terminated on:  23:14:12   6Jan2022            

=------------------------------------------------------------------------------=
   JOB DONE.
=------------------------------------------------------------------------------=
