
     Program PWSCF v.6.7MaX starts on  6Jan2022 at 23:14:17 

     This program is part of the open-source Quantum ESPRESSO suite
     for quantum simulation of materials; please cite
         "P. Giannozzi et al., J. Phys.:Condens. Matter 21 395502 (2009);
         "P. Giannozzi et al., J. Phys.:Condens. Matter 29 465901 (2017);
          URL http://www.quantum-espresso.org", 
     in publications or presentations arising from this work. More details at
     http://www.quantum-espresso.org/quote

     Parallel version (MPI & OpenMP), running on      72 processor cores
     Number of MPI processes:                72
     Threads/MPI process:                     1

     MPI processes distributed on     1 nodes
     R & G space division:  proc/nbgrp/npool/nimage =      72
     Reading input from scf_9.in
Warning: card &CELL ignored
Warning: card CELL_DYNAMICS = 'BFGS', ignored
Warning: card CELL_FACTOR = 2.0, ignored
Warning: card PRESS = 0.0, ignored
Warning: card / ignored

     Current dimensions of program PWSCF are:
     Max number of different atomic species (ntypx) = 10
     Max number of k-points (npk) =  40000
     Max angular momentum in pseudopotentials (lmaxx) =  3
     file Pd.pbe-spn-kjpaw_psl.1.0.0.UPF: wavefunction(s)  4S 5S 4D renormalized

     Subspace diagonalization in iterative solution of the eigenvalue problem:
     one sub-group per band group will be used
     ELPA distributed-memory algorithm (size of sub-group:  8*  8 procs)

     Found symmetry operation: I + (  0.2500  0.2500  0.0000)
     This is a supercell, fractional translations are disabled
     Message from routine setup:
     using ibrav=0 with symmetry is DISCOURAGED, use correct ibrav instead
 
     Parallelization info
     --------------------
     sticks:   dense  smooth     PW     G-vecs:    dense   smooth      PW
     Min         104      68     18                 8538     4576     642
     Max         105      69     19                 8547     4587     651
     Sum        7521    4957   1353               615075   329959   46611
 


     bravais-lattice index     =            0
     lattice parameter (alat)  =      14.8394  a.u.
     unit-cell volume          =    4084.7059 (a.u.)^3
     number of atoms/cell      =           32
     number of atomic types    =            1
     number of electrons       =       576.00
     number of Kohn-Sham states=          346
     kinetic-energy cutoff     =      71.0000  Ry
     charge density cutoff     =     430.0000  Ry
     scf convergence threshold =      1.0E-06
     mixing beta               =       0.1000
     number of iterations used =           10  TF        mixing
     Exchange-correlation= SLA  PW   PBX  PBC
                           (   1   4   3   4   0   0   0)

     celldm(1)=  14.839420  celldm(2)=   0.000000  celldm(3)=   0.000000
     celldm(4)=   0.000000  celldm(5)=   0.000000  celldm(6)=   0.000000

     crystal axes: (cart. coord. in units of alat)
               a(1) = (   1.000000   0.000000   0.000000 )  
               a(2) = (   0.000000   1.000000   0.000000 )  
               a(3) = (   0.000000   0.000000   1.250000 )  

     reciprocal axes: (cart. coord. in units 2 pi/alat)
               b(1) = (  1.000000  0.000000  0.000000 )  
               b(2) = (  0.000000  1.000000  0.000000 )  
               b(3) = (  0.000000  0.000000  0.800000 )  


     PseudoPot. # 1 for Pd read from file:
     /rds/homes/b/bxp912/pp/Pd.pbe-spn-kjpaw_psl.1.0.0.UPF
     MD5 check sum: 790f2ebce206edfd9790dcb9844eca51
     Pseudo is Projector augmented-wave + core cor, Zval = 18.0
     Generated using &quot;atomic&quot; code by A. Dal Corso  v.6.3
     Shape of augmentation charge: PSQ
     Using radial grid of 1235 points,  6 beta functions with: 
                l(1) =   0
                l(2) =   0
                l(3) =   1
                l(4) =   1
                l(5) =   2
                l(6) =   2
     Q(r) pseudized with 0 coefficients 


     atomic species   valence    mass     pseudopotential
        Pd            18.00   106.42000     Pd( 1.00)

      8 Sym. Ops. (no inversion) found



   Cartesian axes

     site n.     atom                  positions (alat units)
         1           Pd  tau(   1) = (   0.0000000   0.0000000   0.0000000  )
         2           Pd  tau(   2) = (   0.2500000   0.2500000   0.0000000  )
         3           Pd  tau(   3) = (   0.2500000   0.0000000   0.2500000  )
         4           Pd  tau(   4) = (   0.0000000   0.2500000   0.2500000  )
         5           Pd  tau(   5) = (   0.0000000   0.0000000   0.7500000  )
         6           Pd  tau(   6) = (   0.2500000   0.2500000   0.7500000  )
         7           Pd  tau(   7) = (   0.2500000   0.0000000   1.0000000  )
         8           Pd  tau(   8) = (   0.0000000   0.2500000   1.0000000  )
         9           Pd  tau(   9) = (   0.0000000   0.5000000   0.0000000  )
        10           Pd  tau(  10) = (   0.2500000   0.7500000   0.0000000  )
        11           Pd  tau(  11) = (   0.2500000   0.5000000   0.2500000  )
        12           Pd  tau(  12) = (   0.0000000   0.7500000   0.2500000  )
        13           Pd  tau(  13) = (   0.0000000   0.5000000   0.7500000  )
        14           Pd  tau(  14) = (   0.2500000   0.7500000   0.7500000  )
        15           Pd  tau(  15) = (   0.2500000   0.5000000   1.0000000  )
        16           Pd  tau(  16) = (   0.0000000   0.7500000   1.0000000  )
        17           Pd  tau(  17) = (   0.5000000   0.0000000   0.0000000  )
        18           Pd  tau(  18) = (   0.7500000   0.2500000   0.0000000  )
        19           Pd  tau(  19) = (   0.7500000   0.0000000   0.2500000  )
        20           Pd  tau(  20) = (   0.5000000   0.2500000   0.2500000  )
        21           Pd  tau(  21) = (   0.5000000   0.0000000   0.7500000  )
        22           Pd  tau(  22) = (   0.7500000   0.2500000   0.7500000  )
        23           Pd  tau(  23) = (   0.7500000   0.0000000   1.0000000  )
        24           Pd  tau(  24) = (   0.5000000   0.2500000   1.0000000  )
        25           Pd  tau(  25) = (   0.5000000   0.5000000   0.0000000  )
        26           Pd  tau(  26) = (   0.7500000   0.7500000   0.0000000  )
        27           Pd  tau(  27) = (   0.7500000   0.5000000   0.2500000  )
        28           Pd  tau(  28) = (   0.5000000   0.7500000   0.2500000  )
        29           Pd  tau(  29) = (   0.5000000   0.5000000   0.7500000  )
        30           Pd  tau(  30) = (   0.7500000   0.7500000   0.7500000  )
        31           Pd  tau(  31) = (   0.7500000   0.5000000   1.0000000  )
        32           Pd  tau(  32) = (   0.5000000   0.7500000   1.0000000  )

     number of k points=    75  Marzari-Vanderbilt smearing, width (Ry)=  0.0400
                       cart. coord. in units 2pi/alat
        k(    1) = (   0.0555556   0.0555556   0.0444444), wk =   0.0219479
        k(    2) = (   0.0555556   0.0555556   0.1333333), wk =   0.0219479
        k(    3) = (   0.0555556   0.0555556   0.2222222), wk =   0.0219479
        k(    4) = (   0.0555556   0.0555556   0.3111111), wk =   0.0219479
        k(    5) = (   0.0555556   0.0555556  -0.4000000), wk =   0.0109739
        k(    6) = (   0.0555556   0.1666667   0.0444444), wk =   0.0438957
        k(    7) = (   0.0555556   0.1666667   0.1333333), wk =   0.0438957
        k(    8) = (   0.0555556   0.1666667   0.2222222), wk =   0.0438957
        k(    9) = (   0.0555556   0.1666667   0.3111111), wk =   0.0438957
        k(   10) = (   0.0555556   0.1666667  -0.4000000), wk =   0.0219479
        k(   11) = (   0.0555556   0.2777778   0.0444444), wk =   0.0438957
        k(   12) = (   0.0555556   0.2777778   0.1333333), wk =   0.0438957
        k(   13) = (   0.0555556   0.2777778   0.2222222), wk =   0.0438957
        k(   14) = (   0.0555556   0.2777778   0.3111111), wk =   0.0438957
        k(   15) = (   0.0555556   0.2777778  -0.4000000), wk =   0.0219479
        k(   16) = (   0.0555556   0.3888889   0.0444444), wk =   0.0438957
        k(   17) = (   0.0555556   0.3888889   0.1333333), wk =   0.0438957
        k(   18) = (   0.0555556   0.3888889   0.2222222), wk =   0.0438957
        k(   19) = (   0.0555556   0.3888889   0.3111111), wk =   0.0438957
        k(   20) = (   0.0555556   0.3888889  -0.4000000), wk =   0.0219479
        k(   21) = (   0.0555556  -0.5000000   0.0444444), wk =   0.0219479
        k(   22) = (   0.0555556  -0.5000000   0.1333333), wk =   0.0219479
        k(   23) = (   0.0555556  -0.5000000   0.2222222), wk =   0.0219479
        k(   24) = (   0.0555556  -0.5000000   0.3111111), wk =   0.0219479
        k(   25) = (   0.0555556  -0.5000000  -0.4000000), wk =   0.0109739
        k(   26) = (   0.1666667   0.1666667   0.0444444), wk =   0.0219479
        k(   27) = (   0.1666667   0.1666667   0.1333333), wk =   0.0219479
        k(   28) = (   0.1666667   0.1666667   0.2222222), wk =   0.0219479
        k(   29) = (   0.1666667   0.1666667   0.3111111), wk =   0.0219479
        k(   30) = (   0.1666667   0.1666667  -0.4000000), wk =   0.0109739
        k(   31) = (   0.1666667   0.2777778   0.0444444), wk =   0.0438957
        k(   32) = (   0.1666667   0.2777778   0.1333333), wk =   0.0438957
        k(   33) = (   0.1666667   0.2777778   0.2222222), wk =   0.0438957
        k(   34) = (   0.1666667   0.2777778   0.3111111), wk =   0.0438957
        k(   35) = (   0.1666667   0.2777778  -0.4000000), wk =   0.0219479
        k(   36) = (   0.1666667   0.3888889   0.0444444), wk =   0.0438957
        k(   37) = (   0.1666667   0.3888889   0.1333333), wk =   0.0438957
        k(   38) = (   0.1666667   0.3888889   0.2222222), wk =   0.0438957
        k(   39) = (   0.1666667   0.3888889   0.3111111), wk =   0.0438957
        k(   40) = (   0.1666667   0.3888889  -0.4000000), wk =   0.0219479
        k(   41) = (   0.1666667  -0.5000000   0.0444444), wk =   0.0219479
        k(   42) = (   0.1666667  -0.5000000   0.1333333), wk =   0.0219479
        k(   43) = (   0.1666667  -0.5000000   0.2222222), wk =   0.0219479
        k(   44) = (   0.1666667  -0.5000000   0.3111111), wk =   0.0219479
        k(   45) = (   0.1666667  -0.5000000  -0.4000000), wk =   0.0109739
        k(   46) = (   0.2777778   0.2777778   0.0444444), wk =   0.0219479
        k(   47) = (   0.2777778   0.2777778   0.1333333), wk =   0.0219479
        k(   48) = (   0.2777778   0.2777778   0.2222222), wk =   0.0219479
        k(   49) = (   0.2777778   0.2777778   0.3111111), wk =   0.0219479
        k(   50) = (   0.2777778   0.2777778  -0.4000000), wk =   0.0109739
        k(   51) = (   0.2777778   0.3888889   0.0444444), wk =   0.0438957
        k(   52) = (   0.2777778   0.3888889   0.1333333), wk =   0.0438957
        k(   53) = (   0.2777778   0.3888889   0.2222222), wk =   0.0438957
        k(   54) = (   0.2777778   0.3888889   0.3111111), wk =   0.0438957
        k(   55) = (   0.2777778   0.3888889  -0.4000000), wk =   0.0219479
        k(   56) = (   0.2777778  -0.5000000   0.0444444), wk =   0.0219479
        k(   57) = (   0.2777778  -0.5000000   0.1333333), wk =   0.0219479
        k(   58) = (   0.2777778  -0.5000000   0.2222222), wk =   0.0219479
        k(   59) = (   0.2777778  -0.5000000   0.3111111), wk =   0.0219479
        k(   60) = (   0.2777778  -0.5000000  -0.4000000), wk =   0.0109739
        k(   61) = (   0.3888889   0.3888889   0.0444444), wk =   0.0219479
        k(   62) = (   0.3888889   0.3888889   0.1333333), wk =   0.0219479
        k(   63) = (   0.3888889   0.3888889   0.2222222), wk =   0.0219479
        k(   64) = (   0.3888889   0.3888889   0.3111111), wk =   0.0219479
        k(   65) = (   0.3888889   0.3888889  -0.4000000), wk =   0.0109739
        k(   66) = (   0.3888889  -0.5000000   0.0444444), wk =   0.0219479
        k(   67) = (   0.3888889  -0.5000000   0.1333333), wk =   0.0219479
        k(   68) = (   0.3888889  -0.5000000   0.2222222), wk =   0.0219479
        k(   69) = (   0.3888889  -0.5000000   0.3111111), wk =   0.0219479
        k(   70) = (   0.3888889  -0.5000000  -0.4000000), wk =   0.0109739
        k(   71) = (  -0.5000000  -0.5000000   0.0444444), wk =   0.0054870
        k(   72) = (  -0.5000000  -0.5000000   0.1333333), wk =   0.0054870
        k(   73) = (  -0.5000000  -0.5000000   0.2222222), wk =   0.0054870
        k(   74) = (  -0.5000000  -0.5000000   0.3111111), wk =   0.0054870
        k(   75) = (  -0.5000000  -0.5000000  -0.4000000), wk =   0.0027435

     Dense  grid:   615075 G-vectors     FFT dimensions: ( 100, 100, 125)

     Smooth grid:   329959 G-vectors     FFT dimensions: (  80,  80, 100)

     Estimated max dynamical RAM per process >     278.71 MB

     Estimated total dynamical RAM >      19.60 GB

     Check: negative core charge=   -0.000001

     Initial potential from superposition of free atoms

     starting charge  575.98776, renormalised to  576.00000
     Starting wfcs are  320 randomized atomic wfcs +   26 random wfcs
     Checking if some PAW data can be deallocated... 

     total cpu time spent up to now is       25.6 secs

     Self-consistent Calculation

     iteration #  1     ecut=    71.00 Ry     beta= 0.10
     Davidson diagonalization with overlap
     ethr =  1.00E-02,  avg # of iterations =  3.7

     Threshold (ethr) on eigenvalues was too large:
     Diagonalizing with lowered threshold

     Davidson diagonalization with overlap
     ethr =  6.61E-04,  avg # of iterations =  1.1

     total cpu time spent up to now is      183.0 secs

     total energy              =  -16384.77043598 Ry
     estimated scf accuracy    <       3.79597708 Ry

     iteration #  2     ecut=    71.00 Ry     beta= 0.10
     Davidson diagonalization with overlap
     ethr =  6.59E-04,  avg # of iterations =  1.3

     total cpu time spent up to now is      250.7 secs

     total energy              =  -16384.27872511 Ry
     estimated scf accuracy    <       3.36145603 Ry

     iteration #  3     ecut=    71.00 Ry     beta= 0.10
     Davidson diagonalization with overlap
     ethr =  5.84E-04,  avg # of iterations =  1.8

     total cpu time spent up to now is      320.1 secs

     total energy              =  -16384.18045142 Ry
     estimated scf accuracy    <       1.97421196 Ry

     iteration #  4     ecut=    71.00 Ry     beta= 0.10
     Davidson diagonalization with overlap
     ethr =  3.43E-04,  avg # of iterations =  2.8

     total cpu time spent up to now is      394.9 secs

     total energy              =  -16384.31525578 Ry
     estimated scf accuracy    <       0.47366470 Ry

     iteration #  5     ecut=    71.00 Ry     beta= 0.10
     Davidson diagonalization with overlap
     c_bands:  2 eigenvalues not converged
     ethr =  8.22E-05,  avg # of iterations =  3.4

     total cpu time spent up to now is      470.0 secs

     total energy              =  -16384.09171087 Ry
     estimated scf accuracy    <       0.70881928 Ry

     iteration #  6     ecut=    71.00 Ry     beta= 0.10
     Davidson diagonalization with overlap
     ethr =  8.22E-05,  avg # of iterations =  5.1

     total cpu time spent up to now is      562.5 secs

     total energy              =  -16384.14077483 Ry
     estimated scf accuracy    <       0.09584476 Ry

     iteration #  7     ecut=    71.00 Ry     beta= 0.10
     Davidson diagonalization with overlap
     ethr =  1.66E-05,  avg # of iterations =  6.4

     total cpu time spent up to now is      647.5 secs

     total energy              =  -16384.14802600 Ry
     estimated scf accuracy    <       0.05024475 Ry

     iteration #  8     ecut=    71.00 Ry     beta= 0.10
     Davidson diagonalization with overlap
     ethr =  8.72E-06,  avg # of iterations =  2.4

     total cpu time spent up to now is      723.7 secs

     total energy              =  -16384.13625765 Ry
     estimated scf accuracy    <       0.05724120 Ry

     iteration #  9     ecut=    71.00 Ry     beta= 0.10
     Davidson diagonalization with overlap
     c_bands:  1 eigenvalues not converged
     c_bands:  1 eigenvalues not converged
     ethr =  8.72E-06,  avg # of iterations =  4.8

     total cpu time spent up to now is      805.3 secs

     total energy              =  -16384.14138342 Ry
     estimated scf accuracy    <       0.00543003 Ry

     iteration # 10     ecut=    71.00 Ry     beta= 0.10
     Davidson diagonalization with overlap
     ethr =  9.43E-07,  avg # of iterations =  4.4

     total cpu time spent up to now is      884.4 secs

     total energy              =  -16384.14234655 Ry
     estimated scf accuracy    <       0.00353645 Ry

     iteration # 11     ecut=    71.00 Ry     beta= 0.10
     Davidson diagonalization with overlap
     c_bands:  2 eigenvalues not converged
     ethr =  6.14E-07,  avg # of iterations =  2.2

     total cpu time spent up to now is      961.9 secs

     total energy              =  -16384.14329680 Ry
     estimated scf accuracy    <       0.00145939 Ry

     iteration # 12     ecut=    71.00 Ry     beta= 0.10
     Davidson diagonalization with overlap
     c_bands:  1 eigenvalues not converged
     ethr =  2.53E-07,  avg # of iterations =  2.2

     total cpu time spent up to now is     1040.9 secs

     total energy              =  -16384.14364059 Ry
     estimated scf accuracy    <       0.00039334 Ry

     iteration # 13     ecut=    71.00 Ry     beta= 0.10
     Davidson diagonalization with overlap
     ethr =  6.83E-08,  avg # of iterations =  2.0

     total cpu time spent up to now is     1120.5 secs

     total energy              =  -16384.14372114 Ry
     estimated scf accuracy    <       0.00035469 Ry

     iteration # 14     ecut=    71.00 Ry     beta= 0.10
     Davidson diagonalization with overlap
     ethr =  6.16E-08,  avg # of iterations =  2.2

     total cpu time spent up to now is     1195.9 secs

     total energy              =  -16384.14378388 Ry
     estimated scf accuracy    <       0.00009473 Ry

     iteration # 15     ecut=    71.00 Ry     beta= 0.10
     Davidson diagonalization with overlap
     ethr =  1.64E-08,  avg # of iterations =  2.0

     total cpu time spent up to now is     1274.3 secs

     total energy              =  -16384.14380453 Ry
     estimated scf accuracy    <       0.00004342 Ry

     iteration # 16     ecut=    71.00 Ry     beta= 0.10
     Davidson diagonalization with overlap
     ethr =  7.54E-09,  avg # of iterations =  2.0

     total cpu time spent up to now is     1350.9 secs

     total energy              =  -16384.14381643 Ry
     estimated scf accuracy    <       0.00001540 Ry

     iteration # 17     ecut=    71.00 Ry     beta= 0.10
     Davidson diagonalization with overlap
     ethr =  2.67E-09,  avg # of iterations =  2.0

     total cpu time spent up to now is     1428.0 secs

     total energy              =  -16384.14381911 Ry
     estimated scf accuracy    <       0.00000780 Ry

     iteration # 18     ecut=    71.00 Ry     beta= 0.10
     Davidson diagonalization with overlap
     ethr =  1.35E-09,  avg # of iterations =  2.0

     total cpu time spent up to now is     1505.1 secs

     total energy              =  -16384.14382089 Ry
     estimated scf accuracy    <       0.00000211 Ry

     iteration # 19     ecut=    71.00 Ry     beta= 0.10
     Davidson diagonalization with overlap
     ethr =  3.67E-10,  avg # of iterations =  2.0

     total cpu time spent up to now is     1581.4 secs

     End of self-consistent calculation

          k = 0.0556 0.0556 0.0444 ( 41226 PWs)   bands (ev):

   -69.8250 -69.8028 -69.8028 -69.7986 -69.7985 -69.7940 -69.7930 -69.7924
   -69.7923 -69.7912 -69.7853 -69.7853 -69.7839 -69.7839 -69.7767 -69.7766
   -69.2594 -69.2594 -69.2450 -69.2450 -69.2450 -69.2450 -69.2438 -69.2438
   -69.2436 -69.2435 -69.2423 -69.2423 -69.2422 -69.2422 -69.2277 -69.2277
   -35.6604 -35.6604 -35.6601 -35.6590 -35.6477 -35.6477 -35.6362 -35.6026
   -35.6026 -35.6002 -35.6002 -35.5659 -35.5659 -35.5543 -35.5543 -35.5451
   -35.5451 -35.5432 -35.5432 -35.5335 -35.5335 -35.5001 -35.5000 -35.4973
   -35.4973 -35.4955 -35.4909 -35.4908 -35.4855 -35.4837 -35.4836 -35.4674
   -35.4674 -35.4666 -35.4530 -35.4530 -35.4501 -35.4483 -35.4360 -35.4360
   -35.4309 -35.4309 -35.3999 -35.3981 -35.3980 -35.3937 -35.3818 -35.3802
   -35.1240 -35.1240 -35.1233 -35.1223 -35.1128 -35.1128 -35.1108 -35.1108
   -35.0424 -35.0424 -35.0423 -35.0423 -35.0275 -35.0275 -35.0273 -35.0273
   -35.0252 -35.0252 -35.0248 -35.0248 -35.0100 -35.0100 -35.0098 -35.0098
   -34.9397 -34.9392 -34.9381 -34.9376 -34.9262 -34.9261 -34.9248 -34.9248
   -34.8731 -34.8687 -34.8581 -34.8581 -34.8579 -34.8579 -34.8570 -34.8566
   -34.8566 -34.8565 -34.8561 -34.8561 -34.8559 -34.8559 -34.8463 -34.8463
     7.9638   9.2988   9.5113   9.5114   9.5773   9.5841   9.5899   9.5899
     9.6538   9.7183   9.7878   9.7878   9.8691   9.8691  10.0541  10.0541
    10.1029  10.3326  10.4616  10.4616  10.4804  10.4804  10.5095  10.5095
    10.5323  10.5323  10.6088  10.6088  10.6168  10.6212  10.6349  10.6349
    10.7434  10.7434  10.8138  10.8138  10.8464  10.8464  10.9276  10.9276
    10.9366  10.9366  10.9993  10.9993  11.0573  11.1196  11.1196  11.1375
    11.1375  11.2813  11.2813  11.3568  11.4019  11.4019  11.4431  11.4431
    11.4614  11.4694  11.4694  11.4805  11.6562  11.6562  11.6683  11.6759
    11.6759  11.6810  11.8276  11.8300  11.8347  11.8347  11.8412  11.8412
    11.8709  11.8800  11.9041  11.9041  11.9356  11.9356  12.2495  12.2495
    12.2825  12.2992  12.3717  12.3717  12.3882  12.3882  12.4325  12.4325
    12.5776  12.5776  12.6093  12.6149  12.6173  12.6174  12.6191  12.6191
    12.6262  12.6693  12.6693  12.7145  12.7145  12.7529  12.7529  12.7586
    12.8087  12.8458  12.8459  12.8653  12.8653  12.9210  12.9609  12.9609
    13.0025  13.0026  13.0381  13.0381  13.0471  13.1788  13.1788  13.2681
    13.2754  13.2754  13.2869  13.2869  13.4219  13.4219  13.4642  13.4642
    13.5972  13.5972  13.6116  13.6130  13.6130  13.6202  13.6202  13.6305
    13.6305  13.6407  13.7500  13.7581  13.7581  13.7645  13.8248  13.8262
    13.9610  13.9610  13.9625  13.9625  13.9944  14.0949  14.0949  14.1544
    14.1544  14.1568  14.1572  14.2120  14.2908  14.3224  14.3224  14.3291
    14.3291  14.3553  14.4186  14.5214  14.5214  14.9171  14.9172  15.1460
    15.1460  15.5752  15.5752  15.7172  15.9816  16.0730  16.0730  16.2117
    16.2117  16.2767  16.5990  16.6511  16.6511  16.7598  16.7598  17.1887
    17.7460  18.5992  18.5992  19.6392  19.6527  19.6527  19.8050  20.2093
    20.2093  20.7402  20.7402  20.9994  20.9994  21.2703  21.2703  21.5933
    21.5933  23.1478  23.1478  23.1680  23.1928  23.1928  23.4465  23.4465
    23.5239  23.8357  23.8357  24.5119  24.5119  24.8081  24.8081  24.8442
    24.9452  24.9452

          k = 0.0556 0.0556 0.1333 ( 41231 PWs)   bands (ev):

   -69.8250 -69.8028 -69.8028 -69.7986 -69.7985 -69.7940 -69.7930 -69.7924
   -69.7923 -69.7912 -69.7853 -69.7853 -69.7839 -69.7839 -69.7767 -69.7766
   -69.2594 -69.2594 -69.2450 -69.2450 -69.2450 -69.2450 -69.2438 -69.2438
   -69.2436 -69.2435 -69.2422 -69.2422 -69.2422 -69.2422 -69.2277 -69.2277
   -35.6604 -35.6604 -35.6601 -35.6590 -35.6477 -35.6477 -35.6361 -35.6026
   -35.6026 -35.6002 -35.6002 -35.5659 -35.5659 -35.5543 -35.5543 -35.5451
   -35.5451 -35.5432 -35.5432 -35.5334 -35.5334 -35.5001 -35.5001 -35.4973
   -35.4973 -35.4955 -35.4908 -35.4908 -35.4855 -35.4836 -35.4836 -35.4674
   -35.4674 -35.4667 -35.4530 -35.4530 -35.4500 -35.4483 -35.4359 -35.4359
   -35.4309 -35.4309 -35.3999 -35.3981 -35.3981 -35.3938 -35.3818 -35.3802
   -35.1240 -35.1240 -35.1233 -35.1222 -35.1129 -35.1128 -35.1108 -35.1108
   -35.0424 -35.0424 -35.0423 -35.0423 -35.0275 -35.0275 -35.0273 -35.0273
   -35.0252 -35.0252 -35.0248 -35.0248 -35.0100 -35.0100 -35.0098 -35.0098
   -34.9396 -34.9392 -34.9381 -34.9376 -34.9262 -34.9262 -34.9249 -34.9248
   -34.8729 -34.8689 -34.8583 -34.8583 -34.8578 -34.8578 -34.8570 -34.8567
   -34.8566 -34.8565 -34.8562 -34.8562 -34.8558 -34.8558 -34.8464 -34.8464
     7.9730   9.2862   9.5128   9.5128   9.5793   9.5863   9.5921   9.5921
     9.6540   9.6903   9.7893   9.7893   9.8728   9.8728  10.0572  10.0572
    10.1179  10.3316  10.4585  10.4586  10.4807  10.4807  10.5100  10.5100
    10.5321  10.5321  10.6063  10.6063  10.6068  10.6145  10.6261  10.6261
    10.7441  10.7441  10.8118  10.8118  10.8455  10.8455  10.9288  10.9288
    10.9315  10.9315  10.9985  10.9985  11.0591  11.1191  11.1191  11.1365
    11.1365  11.2809  11.2810  11.3519  11.3991  11.3992  11.4422  11.4422
    11.4606  11.4667  11.4667  11.4794  11.6542  11.6542  11.6627  11.6627
    11.6668  11.6771  11.8227  11.8227  11.8278  11.8303  11.8357  11.8357
    11.8712  11.8805  11.9175  11.9175  11.9527  11.9527  12.2803  12.2803
    12.3235  12.3316  12.3732  12.3732  12.4074  12.4074  12.4286  12.4286
    12.5642  12.5642  12.5735  12.5735  12.5795  12.6085  12.6190  12.6190
    12.6254  12.6659  12.6659  12.6724  12.6724  12.7548  12.7561  12.7742
    12.7742  12.8732  12.8732  12.8789  12.8789  12.9802  12.9909  12.9909
    13.0009  13.0009  13.0487  13.0487  13.1760  13.1760  13.1951  13.2478
    13.2478  13.2631  13.2631  13.2680  13.4212  13.4212  13.4728  13.4728
    13.6049  13.6049  13.6135  13.6200  13.6200  13.6266  13.6267  13.6424
    13.6776  13.6776  13.7514  13.7748  13.7826  13.8284  13.8347  13.8347
    13.9220  13.9220  13.9352  13.9418  13.9418  14.0879  14.0879  14.1554
    14.1571  14.1572  14.1572  14.2113  14.2907  14.3167  14.3167  14.3235
    14.3235  14.3536  14.4154  14.5216  14.5216  14.9173  14.9173  15.0035
    15.0035  15.4331  15.4331  15.7208  16.0022  16.1178  16.1178  16.1220
    16.3510  16.4153  16.4153  16.6344  16.6345  16.9607  16.9607  17.1642
    18.2020  18.6457  18.6457  19.6009  19.6009  19.6376  19.6791  19.6791
    19.8271  20.1528  20.1528  21.1421  21.1421  21.6691  21.6691  22.2493
    22.2493  22.8531  23.1644  23.1644  23.1888  23.1888  23.3506  23.3506
    23.4734  23.8753  23.8753  24.5094  24.5094  24.8027  24.8027  24.9779
    24.9779  25.4302

          k = 0.0556 0.0556 0.2222 ( 41239 PWs)   bands (ev):

   -69.8250 -69.8028 -69.8028 -69.7986 -69.7985 -69.7940 -69.7930 -69.7924
   -69.7923 -69.7912 -69.7853 -69.7853 -69.7839 -69.7839 -69.7767 -69.7766
   -69.2594 -69.2594 -69.2450 -69.2450 -69.2450 -69.2450 -69.2438 -69.2438
   -69.2436 -69.2435 -69.2422 -69.2422 -69.2422 -69.2422 -69.2277 -69.2277
   -35.6604 -35.6604 -35.6601 -35.6589 -35.6477 -35.6477 -35.6359 -35.6026
   -35.6026 -35.6002 -35.6002 -35.5659 -35.5659 -35.5543 -35.5543 -35.5451
   -35.5451 -35.5432 -35.5432 -35.5335 -35.5334 -35.5001 -35.5000 -35.4974
   -35.4974 -35.4956 -35.4909 -35.4909 -35.4856 -35.4836 -35.4835 -35.4674
   -35.4674 -35.4666 -35.4530 -35.4530 -35.4500 -35.4483 -35.4360 -35.4360
   -35.4308 -35.4308 -35.3999 -35.3981 -35.3981 -35.3938 -35.3818 -35.3802
   -35.1240 -35.1240 -35.1233 -35.1223 -35.1129 -35.1128 -35.1108 -35.1108
   -35.0424 -35.0424 -35.0423 -35.0423 -35.0275 -35.0275 -35.0272 -35.0272
   -35.0252 -35.0252 -35.0248 -35.0248 -35.0100 -35.0100 -35.0099 -35.0099
   -34.9395 -34.9392 -34.9380 -34.9377 -34.9262 -34.9262 -34.9249 -34.9248
   -34.8726 -34.8691 -34.8583 -34.8583 -34.8576 -34.8576 -34.8571 -34.8567
   -34.8567 -34.8566 -34.8563 -34.8563 -34.8558 -34.8557 -34.8464 -34.8463
     7.9875   9.2645   9.5150   9.5150   9.5827   9.5896   9.5955   9.5955
     9.6523   9.6566   9.7917   9.7917   9.8785   9.8785  10.0620  10.0620
    10.1362  10.3301  10.4538  10.4539  10.4812  10.4812  10.5106  10.5106
    10.5317  10.5317  10.5934  10.6023  10.6023  10.6028  10.6128  10.6128
    10.7452  10.7452  10.8091  10.8091  10.8442  10.8442  10.9169  10.9169
    10.9375  10.9375  10.9972  10.9972  11.0620  11.1183  11.1183  11.1351
    11.1351  11.2803  11.2803  11.3449  11.3952  11.3952  11.4412  11.4412
    11.4595  11.4626  11.4627  11.4777  11.6437  11.6437  11.6515  11.6515
    11.6650  11.6717  11.8002  11.8002  11.8282  11.8307  11.8371  11.8371
    11.8717  11.8814  11.9374  11.9374  11.9739  11.9739  12.3279  12.3279
    12.3763  12.3763  12.3821  12.3901  12.4207  12.4207  12.4372  12.4372
    12.5059  12.5059  12.5430  12.5680  12.5680  12.6007  12.6007  12.6071
    12.6242  12.6302  12.6303  12.6794  12.6794  12.7322  12.7521  12.7857
    12.7857  12.8862  12.8862  12.9121  12.9121  12.9871  13.0015  13.0015
    13.0356  13.0356  13.0609  13.0609  13.1716  13.1716  13.2165  13.2165
    13.2289  13.2289  13.2680  13.4160  13.4160  13.4581  13.4863  13.4863
    13.5963  13.5963  13.6163  13.6169  13.6169  13.6367  13.6367  13.6450
    13.7158  13.7535  13.7834  13.7834  13.8011  13.8341  13.8418  13.8705
    13.8705  13.9097  13.9097  13.9546  13.9546  14.0767  14.0767  14.1533
    14.1570  14.1592  14.1592  14.2102  14.2906  14.3077  14.3077  14.3145
    14.3145  14.3554  14.4103  14.5219  14.5219  14.8142  14.8142  14.9175
    14.9175  15.2427  15.2427  15.5738  15.7475  15.9977  16.1908  16.1908
    16.4885  16.6030  16.6030  16.7235  16.7235  17.1146  17.2675  17.2675
    18.6841  18.7218  18.7218  19.0231  19.0231  19.5836  19.5836  19.6536
    19.7221  19.7221  19.8392  20.9612  20.9612  22.3583  22.3583  22.6173
    22.8518  22.8518  22.9451  22.9451  23.1880  23.2623  23.2624  23.5914
    23.5914  23.9438  23.9438  24.4925  24.4925  24.7472  24.7473  24.7977
    24.7977  25.4335

          k = 0.0556 0.0556 0.3111 ( 41273 PWs)   bands (ev):

   -69.8250 -69.8028 -69.8028 -69.7986 -69.7985 -69.7940 -69.7930 -69.7924
   -69.7923 -69.7912 -69.7853 -69.7853 -69.7839 -69.7839 -69.7767 -69.7766
   -69.2594 -69.2594 -69.2450 -69.2450 -69.2450 -69.2450 -69.2438 -69.2438
   -69.2436 -69.2435 -69.2422 -69.2422 -69.2422 -69.2422 -69.2277 -69.2277
   -35.6604 -35.6604 -35.6601 -35.6590 -35.6477 -35.6477 -35.6360 -35.6027
   -35.6027 -35.6002 -35.6002 -35.5659 -35.5659 -35.5543 -35.5543 -35.5451
   -35.5451 -35.5432 -35.5432 -35.5335 -35.5335 -35.5001 -35.5001 -35.4974
   -35.4974 -35.4956 -35.4908 -35.4908 -35.4856 -35.4836 -35.4836 -35.4674
   -35.4674 -35.4666 -35.4530 -35.4530 -35.4499 -35.4483 -35.4360 -35.4360
   -35.4309 -35.4308 -35.4000 -35.3981 -35.3981 -35.3939 -35.3818 -35.3802
   -35.1240 -35.1240 -35.1233 -35.1223 -35.1129 -35.1128 -35.1108 -35.1108
   -35.0425 -35.0424 -35.0423 -35.0423 -35.0275 -35.0275 -35.0272 -35.0272
   -35.0252 -35.0252 -35.0248 -35.0248 -35.0100 -35.0100 -35.0099 -35.0099
   -34.9395 -34.9393 -34.9380 -34.9377 -34.9262 -34.9262 -34.9249 -34.9249
   -34.8723 -34.8693 -34.8584 -34.8584 -34.8576 -34.8576 -34.8571 -34.8567
   -34.8566 -34.8565 -34.8563 -34.8563 -34.8557 -34.8557 -34.8464 -34.8464
     8.0008   9.2429   9.5169   9.5169   9.5858   9.5924   9.5986   9.5986
     9.6283   9.6551   9.7937   9.7937   9.8836   9.8836  10.0664  10.0664
    10.1492  10.3287  10.4497  10.4497  10.4815  10.4815  10.5111  10.5111
    10.5314  10.5314  10.5826  10.5916  10.5987  10.5987  10.6012  10.6012
    10.7463  10.7463  10.8070  10.8070  10.8429  10.8429  10.9066  10.9066
    10.9428  10.9428  10.9959  10.9959  11.0644  11.1176  11.1176  11.1338
    11.1338  11.2797  11.2797  11.3393  11.3920  11.3921  11.4406  11.4406
    11.4585  11.4591  11.4591  11.4762  11.6279  11.6279  11.6494  11.6495
    11.6637  11.6674  11.7830  11.7830  11.8285  11.8310  11.8382  11.8382
    11.8722  11.8822  11.9548  11.9548  11.9905  11.9905  12.3699  12.3699
    12.3811  12.3811  12.4084  12.4084  12.4290  12.4525  12.4641  12.4641
    12.4677  12.4677  12.5215  12.5600  12.5600  12.5637  12.5637  12.6059
    12.6231  12.6302  12.6302  12.6886  12.6886  12.7213  12.7487  12.7895
    12.7895  12.8980  12.8980  12.9345  12.9345  12.9876  13.0056  13.0056
    13.0670  13.0670  13.0789  13.0789  13.1675  13.1675  13.1936  13.1936
    13.1959  13.1959  13.2680  13.4094  13.4094  13.4984  13.4984  13.5650
    13.5650  13.6188  13.6277  13.6277  13.6458  13.6458  13.6471  13.6564
    13.6808  13.7554  13.7555  13.8344  13.8344  13.8393  13.8811  13.8811
    13.8953  13.8953  13.9024  14.0662  14.0662  14.0717  14.0717  14.1514
    14.1568  14.1599  14.1599  14.2092  14.2905  14.2997  14.2997  14.3065
    14.3065  14.3809  14.4057  14.5221  14.5221  14.6475  14.6475  14.9177
    14.9177  15.0638  15.0792  15.0792  15.7895  15.9710  16.2644  16.2644
    16.5645  16.5646  16.6360  17.0459  17.0497  17.0497  17.5905  17.5905
    18.5418  18.5418  18.7949  18.7949  19.0418  19.1102  19.1103  19.6946
    19.7631  19.7631  19.8188  20.8100  20.8100  22.5230  22.6289  22.6289
    22.8991  22.9647  22.9647  23.3244  23.3244  23.5883  23.5883  23.8254
    23.8254  24.0134  24.0134  24.4476  24.4476  24.5899  24.5899  24.7996
    24.7996  25.3577

          k = 0.0556 0.0556-0.4000 ( 41268 PWs)   bands (ev):

   -69.8250 -69.8028 -69.8028 -69.7986 -69.7985 -69.7940 -69.7930 -69.7924
   -69.7923 -69.7912 -69.7853 -69.7853 -69.7839 -69.7839 -69.7767 -69.7766
   -69.2594 -69.2594 -69.2450 -69.2450 -69.2450 -69.2450 -69.2438 -69.2438
   -69.2436 -69.2435 -69.2422 -69.2422 -69.2422 -69.2422 -69.2277 -69.2277
   -35.6604 -35.6604 -35.6601 -35.6590 -35.6477 -35.6477 -35.6360 -35.6026
   -35.6026 -35.6002 -35.6002 -35.5659 -35.5659 -35.5543 -35.5543 -35.5450
   -35.5450 -35.5432 -35.5432 -35.5335 -35.5334 -35.5001 -35.5001 -35.4974
   -35.4974 -35.4955 -35.4909 -35.4909 -35.4855 -35.4836 -35.4836 -35.4674
   -35.4674 -35.4666 -35.4530 -35.4530 -35.4499 -35.4483 -35.4360 -35.4360
   -35.4309 -35.4309 -35.3999 -35.3981 -35.3981 -35.3939 -35.3818 -35.3803
   -35.1240 -35.1240 -35.1233 -35.1223 -35.1128 -35.1128 -35.1108 -35.1108
   -35.0424 -35.0424 -35.0423 -35.0423 -35.0275 -35.0275 -35.0273 -35.0273
   -35.0252 -35.0252 -35.0248 -35.0248 -35.0100 -35.0100 -35.0099 -35.0099
   -34.9395 -34.9393 -34.9380 -34.9377 -34.9262 -34.9262 -34.9249 -34.9248
   -34.8723 -34.8694 -34.8585 -34.8585 -34.8576 -34.8576 -34.8570 -34.8567
   -34.8567 -34.8565 -34.8564 -34.8564 -34.8557 -34.8557 -34.8464 -34.8464
     8.0063   9.2337   9.5177   9.5177   9.5871   9.5934   9.5998   9.5998
     9.6193   9.6551   9.7946   9.7946   9.8856   9.8856  10.0681  10.0681
    10.1537  10.3282  10.4481  10.4481  10.4817  10.4817  10.5113  10.5113
    10.5312  10.5313  10.5786  10.5870  10.5966  10.5966  10.5973  10.5973
    10.7468  10.7468  10.8062  10.8062  10.8424  10.8424  10.9027  10.9027
    10.9449  10.9449  10.9953  10.9953  11.0654  11.1174  11.1174  11.1333
    11.1333  11.2795  11.2795  11.3373  11.3909  11.3909  11.4404  11.4404
    11.4577  11.4577  11.4582  11.4755  11.6218  11.6218  11.6487  11.6487
    11.6633  11.6658  11.7766  11.7766  11.8286  11.8312  11.8386  11.8386
    11.8724  11.8825  11.9617  11.9617  11.9968  11.9968  12.3859  12.3859
    12.3863  12.3863  12.3986  12.3986  12.4482  12.4560  12.4560  12.4750
    12.4750  12.4787  12.5147  12.5440  12.5440  12.5621  12.5621  12.6055
    12.6227  12.6309  12.6309  12.6934  12.6934  12.7177  12.7474  12.7903
    12.7903  12.9027  12.9027  12.9422  12.9422  12.9875  13.0089  13.0089
    13.0675  13.0676  13.1019  13.1019  13.1684  13.1684  13.1709  13.1709
    13.1893  13.1893  13.2680  13.4064  13.4064  13.5033  13.5033  13.5494
    13.5494  13.6199  13.6319  13.6320  13.6327  13.6479  13.6494  13.6494
    13.7200  13.7271  13.7562  13.8227  13.8227  13.8415  13.8697  13.8697
    13.9502  13.9502  14.0315  14.0619  14.0619  14.1242  14.1242  14.1507
    14.1567  14.1599  14.1600  14.2088  14.2905  14.2965  14.2965  14.3033
    14.3033  14.4039  14.4603  14.5222  14.5222  14.5742  14.5742  14.7551
    14.9178  14.9178  15.0108  15.0108  15.8140  15.9525  16.2989  16.2989
    16.5436  16.5436  16.7113  17.0013  17.2251  17.2251  17.7616  17.7616
    18.3154  18.3154  18.8257  18.8257  18.8899  18.8899  19.1760  19.7350
    19.7802  19.7802  19.7852  20.7510  20.7510  22.5308  22.5486  22.5486
    22.7555  23.2496  23.2496  23.3611  23.3611  23.8838  23.8838  23.9366
    23.9366  24.0418  24.0418  24.4102  24.4102  24.5687  24.5687  24.8030
    24.8030  25.2249

          k = 0.0556 0.1667 0.0444 ( 41247 PWs)   bands (ev):

   -69.8242 -69.8070 -69.8025 -69.7983 -69.7956 -69.7944 -69.7935 -69.7927
   -69.7907 -69.7901 -69.7868 -69.7855 -69.7842 -69.7825 -69.7774 -69.7769
   -69.2589 -69.2589 -69.2477 -69.2477 -69.2450 -69.2450 -69.2440 -69.2440
   -69.2433 -69.2433 -69.2423 -69.2423 -69.2395 -69.2395 -69.2282 -69.2282
   -35.6586 -35.6575 -35.6565 -35.6546 -35.6449 -35.6448 -35.6348 -35.6070
   -35.6057 -35.6046 -35.6011 -35.5852 -35.5795 -35.5741 -35.5528 -35.5463
   -35.5438 -35.5407 -35.5257 -35.5192 -35.5143 -35.5072 -35.5015 -35.5014
   -35.4997 -35.4958 -35.4951 -35.4907 -35.4862 -35.4817 -35.4803 -35.4755
   -35.4676 -35.4585 -35.4525 -35.4431 -35.4425 -35.4421 -35.4387 -35.4365
   -35.4314 -35.4272 -35.4052 -35.4046 -35.3995 -35.3926 -35.3867 -35.3817
   -35.1228 -35.1218 -35.1196 -35.1177 -35.1115 -35.1114 -35.1069 -35.1068
   -35.0592 -35.0589 -35.0570 -35.0566 -35.0450 -35.0443 -35.0405 -35.0398
   -35.0125 -35.0121 -35.0079 -35.0074 -34.9953 -34.9952 -34.9931 -34.9928
   -34.9439 -34.9436 -34.9393 -34.9388 -34.9306 -34.9306 -34.9266 -34.9265
   -34.8723 -34.8684 -34.8602 -34.8600 -34.8581 -34.8578 -34.8574 -34.8567
   -34.8566 -34.8563 -34.8562 -34.8559 -34.8541 -34.8540 -34.8467 -34.8466
     8.0337   9.3522   9.5480   9.5539   9.5900   9.5940   9.6105   9.6267
     9.6326   9.6931   9.7695   9.8122   9.8144   9.8731  10.0566  10.1172
    10.1566  10.3655  10.3729  10.3907  10.3997  10.4013  10.4041  10.5030
    10.5065  10.5330  10.5377  10.5410  10.5710  10.6074  10.6134  10.6535
    10.6584  10.6688  10.7284  10.7755  10.8782  10.8921  10.8941  10.9017
    10.9368  10.9385  10.9491  11.0768  11.1222  11.1419  11.1803  11.2133
    11.2322  11.2801  11.2891  11.3332  11.3465  11.3792  11.4304  11.4628
    11.4808  11.4851  11.5118  11.5282  11.5729  11.6229  11.6662  11.6752
    11.6878  11.7085  11.8518  11.8524  11.8550  11.8565  11.8642  11.8652
    11.8881  11.9302  11.9522  11.9535  11.9691  12.0755  12.1526  12.1628
    12.1820  12.2032  12.2328  12.2663  12.3282  12.3523  12.3795  12.4062
    12.4287  12.4962  12.5423  12.5614  12.5635  12.6537  12.6572  12.6576
    12.6621  12.7003  12.7409  12.7451  12.7600  12.7814  12.7863  12.7887
    12.8124  12.8173  12.8442  12.8591  12.9111  12.9301  12.9485  12.9583
    13.0974  13.1226  13.1416  13.1425  13.1553  13.2280  13.2953  13.3257
    13.3389  13.3575  13.3596  13.3802  13.4434  13.4540  13.4789  13.5153
    13.5190  13.5210  13.5633  13.6036  13.6070  13.6309  13.6633  13.6655
    13.6866  13.6914  13.7184  13.7449  13.7536  13.8653  13.9033  13.9195
    13.9417  13.9478  14.0318  14.0425  14.0585  14.0591  14.0617  14.0767
    14.0778  14.1019  14.1187  14.1913  14.2239  14.2554  14.3103  14.3130
    14.3263  14.3402  14.3987  14.4197  14.4546  14.7994  14.8072  14.8353
    15.1370  15.3962  15.5543  15.5820  15.7160  15.9743  16.0897  16.1052
    16.2127  16.2594  16.4636  16.7670  16.8432  17.2554  17.3670  17.7981
    17.8678  18.2034  18.8345  19.6859  19.6929  19.8391  19.8618  20.0697
    20.2429  20.4210  20.7364  20.7635  21.0556  21.2919  21.4327  21.6350
    22.2008  22.3120  22.3865  22.4468  22.9090  22.9819  23.1893  23.3033
    23.3275  23.5545  24.2899  24.4954  24.5371  24.5877  24.8316  24.8548
    24.8640  25.0703

          k = 0.0556 0.1667 0.1333 ( 41240 PWs)   bands (ev):

   -69.8242 -69.8070 -69.8025 -69.7983 -69.7956 -69.7944 -69.7935 -69.7927
   -69.7907 -69.7901 -69.7868 -69.7855 -69.7842 -69.7825 -69.7774 -69.7769
   -69.2589 -69.2589 -69.2477 -69.2477 -69.2450 -69.2450 -69.2440 -69.2440
   -69.2433 -69.2433 -69.2423 -69.2423 -69.2395 -69.2395 -69.2282 -69.2282
   -35.6586 -35.6575 -35.6565 -35.6546 -35.6449 -35.6448 -35.6347 -35.6070
   -35.6057 -35.6046 -35.6011 -35.5851 -35.5795 -35.5741 -35.5527 -35.5463
   -35.5438 -35.5407 -35.5257 -35.5192 -35.5143 -35.5073 -35.5015 -35.5014
   -35.4997 -35.4959 -35.4951 -35.4907 -35.4862 -35.4817 -35.4803 -35.4756
   -35.4676 -35.4585 -35.4525 -35.4431 -35.4425 -35.4421 -35.4387 -35.4365
   -35.4314 -35.4273 -35.4052 -35.4046 -35.3995 -35.3926 -35.3867 -35.3817
   -35.1228 -35.1219 -35.1196 -35.1177 -35.1115 -35.1113 -35.1070 -35.1068
   -35.0592 -35.0588 -35.0570 -35.0566 -35.0450 -35.0443 -35.0405 -35.0398
   -35.0125 -35.0120 -35.0079 -35.0074 -34.9953 -34.9952 -34.9931 -34.9928
   -34.9439 -34.9436 -34.9392 -34.9388 -34.9306 -34.9306 -34.9266 -34.9265
   -34.8722 -34.8685 -34.8603 -34.8599 -34.8582 -34.8577 -34.8574 -34.8567
   -34.8566 -34.8563 -34.8562 -34.8557 -34.8542 -34.8540 -34.8467 -34.8466
     8.0428   9.3402   9.5494   9.5552   9.5946   9.5957   9.6125   9.6286
     9.6347   9.6930   9.7420   9.8137   9.8158   9.8755  10.0585  10.1202
    10.1710  10.3647  10.3731  10.3897  10.3967  10.4014  10.4027  10.4998
    10.5035  10.5325  10.5384  10.5404  10.5657  10.5964  10.6099  10.6436
    10.6508  10.6714  10.7243  10.7816  10.8801  10.8925  10.8944  10.9014
    10.9312  10.9401  10.9415  11.0785  11.1192  11.1402  11.1803  11.2204
    11.2307  11.2734  11.2852  11.3325  11.3434  11.3759  11.4293  11.4642
    11.4708  11.4851  11.5106  11.5280  11.5740  11.6210  11.6662  11.6749
    11.6843  11.6995  11.8520  11.8532  11.8551  11.8554  11.8629  11.8663
    11.8879  11.9409  11.9445  11.9609  11.9743  12.0877  12.1765  12.1841
    12.1848  12.2405  12.2575  12.2622  12.3265  12.3719  12.3979  12.4014
    12.4473  12.4975  12.5056  12.5375  12.5410  12.6426  12.6535  12.6583
    12.6732  12.7029  12.7358  12.7488  12.7508  12.7634  12.7751  12.7859
    12.7907  12.8017  12.8354  12.8652  12.9455  12.9476  12.9683  12.9811
    13.1090  13.1337  13.1354  13.1523  13.2036  13.2285  13.2592  13.3176
    13.3402  13.3445  13.3549  13.3820  13.4489  13.4585  13.4621  13.5091
    13.5366  13.5399  13.5777  13.5994  13.6152  13.6600  13.6606  13.6638
    13.6935  13.6957  13.7231  13.7675  13.8268  13.8619  13.8976  13.9059
    13.9205  13.9383  13.9816  14.0026  14.0530  14.0651  14.0731  14.0909
    14.1080  14.1167  14.1371  14.1949  14.2350  14.2596  14.3057  14.3089
    14.3222  14.3348  14.4007  14.4167  14.4548  14.6652  14.8002  14.8355
    14.9968  15.3627  15.4420  15.5513  15.9226  15.9579  15.9640  16.0947
    16.3484  16.4149  16.4182  16.5474  16.9694  17.2353  17.5655  17.7629
    18.2499  18.3499  18.8795  19.0700  19.6377  19.6837  19.8045  19.8882
    20.0430  20.1817  20.6027  20.7307  21.0942  21.3025  21.7143  22.2606
    22.4326  22.4831  22.4856  22.6618  22.8338  22.8687  23.0207  23.4643
    23.5020  23.6135  24.1093  24.3518  24.5328  24.5339  24.6496  24.7766
    25.0578  25.1733

          k = 0.0556 0.1667 0.2222 ( 41232 PWs)   bands (ev):

   -69.8242 -69.8070 -69.8025 -69.7983 -69.7956 -69.7944 -69.7935 -69.7927
   -69.7907 -69.7901 -69.7868 -69.7855 -69.7842 -69.7825 -69.7774 -69.7769
   -69.2589 -69.2589 -69.2477 -69.2477 -69.2450 -69.2450 -69.2440 -69.2440
   -69.2433 -69.2433 -69.2423 -69.2423 -69.2395 -69.2395 -69.2282 -69.2282
   -35.6586 -35.6575 -35.6565 -35.6546 -35.6450 -35.6449 -35.6347 -35.6071
   -35.6057 -35.6047 -35.6010 -35.5851 -35.5794 -35.5740 -35.5527 -35.5463
   -35.5438 -35.5407 -35.5257 -35.5192 -35.5143 -35.5073 -35.5015 -35.5014
   -35.4997 -35.4958 -35.4951 -35.4907 -35.4862 -35.4816 -35.4803 -35.4756
   -35.4676 -35.4585 -35.4525 -35.4431 -35.4425 -35.4422 -35.4387 -35.4365
   -35.4313 -35.4273 -35.4052 -35.4046 -35.3994 -35.3926 -35.3867 -35.3817
   -35.1228 -35.1219 -35.1196 -35.1177 -35.1115 -35.1114 -35.1070 -35.1069
   -35.0592 -35.0589 -35.0570 -35.0565 -35.0449 -35.0443 -35.0404 -35.0398
   -35.0125 -35.0120 -35.0079 -35.0074 -34.9953 -34.9952 -34.9931 -34.9928
   -34.9438 -34.9437 -34.9392 -34.9389 -34.9306 -34.9305 -34.9266 -34.9266
   -34.8719 -34.8687 -34.8605 -34.8598 -34.8583 -34.8576 -34.8574 -34.8567
   -34.8566 -34.8563 -34.8563 -34.8557 -34.8542 -34.8539 -34.8467 -34.8466
     8.0571   9.3194   9.5517   9.5573   9.5986   9.6018   9.6153   9.6318
     9.6379   9.6912   9.7084   9.8160   9.8179   9.8792  10.0613  10.1248
    10.1886  10.3634  10.3732  10.3882  10.3920  10.4001  10.4016  10.4948
    10.4990  10.5318  10.5395  10.5395  10.5575  10.5838  10.6005  10.6303
    10.6378  10.6752  10.7188  10.7914  10.8832  10.8928  10.8948  10.9012
    10.9202  10.9300  10.9442  11.0812  11.1143  11.1375  11.1805  11.2282
    11.2315  11.2640  11.2799  11.3318  11.3383  11.3709  11.4277  11.4557
    11.4668  11.4850  11.5088  11.5279  11.5756  11.6182  11.6663  11.6745
    11.6794  11.6855  11.8367  11.8524  11.8561  11.8589  11.8687  11.8712
    11.8877  11.9228  11.9672  11.9723  11.9825  12.1060  12.1905  12.2148
    12.2176  12.2543  12.2941  12.3014  12.3244  12.3918  12.4025  12.4265
    12.4421  12.4799  12.5000  12.5166  12.5290  12.6208  12.6486  12.6607
    12.6762  12.6849  12.7090  12.7354  12.7373  12.7502  12.7700  12.7798
    12.7945  12.7997  12.8446  12.8786  12.9373  12.9821  12.9932  13.0059
    13.1202  13.1249  13.1401  13.1776  13.2272  13.2276  13.2539  13.3004
    13.3243  13.3361  13.3837  13.3904  13.4208  13.4563  13.4749  13.4929
    13.4933  13.5506  13.5887  13.6273  13.6528  13.6530  13.6694  13.7025
    13.7026  13.7308  13.7693  13.7941  13.8575  13.8656  13.8880  13.8978
    13.9051  13.9284  13.9486  13.9704  14.0445  14.0641  14.0827  14.0963
    14.1091  14.1179  14.1993  14.2477  14.2478  14.2984  14.3017  14.3026
    14.3229  14.3262  14.4034  14.4126  14.4551  14.4810  14.8015  14.8115
    14.8359  15.2556  15.3468  15.5331  15.7744  15.8041  15.9580  16.0824
    16.2307  16.6524  16.6807  16.7305  17.1939  17.2791  17.6889  17.8697
    18.3264  18.4880  18.8443  18.9533  19.0564  19.6108  19.7013  19.7675
    19.9048  19.9724  20.1746  20.4190  21.1196  21.7605  22.3845  22.4846
    22.5558  22.5714  22.6278  22.7473  22.9066  23.0893  23.2111  23.5085
    23.5540  23.7081  23.9631  24.1489  24.3653  24.4415  24.5961  24.6879
    25.0069  25.1746

          k = 0.0556 0.1667 0.3111 ( 41243 PWs)   bands (ev):

   -69.8242 -69.8070 -69.8025 -69.7983 -69.7956 -69.7944 -69.7935 -69.7927
   -69.7907 -69.7901 -69.7868 -69.7855 -69.7842 -69.7825 -69.7774 -69.7769
   -69.2589 -69.2589 -69.2477 -69.2477 -69.2450 -69.2450 -69.2440 -69.2440
   -69.2433 -69.2433 -69.2423 -69.2423 -69.2395 -69.2395 -69.2282 -69.2282
   -35.6586 -35.6574 -35.6565 -35.6546 -35.6449 -35.6449 -35.6346 -35.6072
   -35.6057 -35.6046 -35.6010 -35.5851 -35.5795 -35.5740 -35.5527 -35.5463
   -35.5438 -35.5407 -35.5257 -35.5192 -35.5143 -35.5073 -35.5015 -35.5015
   -35.4997 -35.4958 -35.4951 -35.4907 -35.4862 -35.4817 -35.4803 -35.4755
   -35.4676 -35.4585 -35.4524 -35.4432 -35.4425 -35.4421 -35.4387 -35.4365
   -35.4314 -35.4273 -35.4052 -35.4046 -35.3995 -35.3926 -35.3866 -35.3817
   -35.1228 -35.1219 -35.1195 -35.1178 -35.1115 -35.1114 -35.1070 -35.1068
   -35.0592 -35.0589 -35.0570 -35.0565 -35.0449 -35.0443 -35.0404 -35.0398
   -35.0126 -35.0120 -35.0079 -35.0075 -34.9953 -34.9951 -34.9931 -34.9928
   -34.9438 -34.9437 -34.9391 -34.9389 -34.9306 -34.9306 -34.9266 -34.9266
   -34.8716 -34.8689 -34.8606 -34.8597 -34.8585 -34.8575 -34.8574 -34.8567
   -34.8565 -34.8564 -34.8562 -34.8557 -34.8543 -34.8539 -34.8467 -34.8467
     8.0703   9.2987   9.5537   9.5591   9.6014   9.6084   9.6175   9.6349
     9.6405   9.6768   9.6970   9.8180   9.8198   9.8826  10.0638  10.1289
    10.2010  10.3623  10.3733  10.3868  10.3879  10.3974  10.4018  10.4905
    10.4950  10.5312  10.5387  10.5405  10.5505  10.5748  10.5904  10.6202
    10.6250  10.6786  10.7146  10.8004  10.8859  10.8929  10.8951  10.9012
    10.9106  10.9200  10.9472  11.0836  11.1097  11.1351  11.1810  11.2259
    11.2413  11.2565  11.2757  11.3317  11.3333  11.3666  11.4264  11.4423
    11.4696  11.4849  11.5072  11.5281  11.5770  11.6161  11.6663  11.6729
    11.6737  11.6761  11.8230  11.8527  11.8567  11.8619  11.8704  11.8771
    11.8877  11.9074  11.9814  11.9884  11.9901  12.1229  12.1984  12.2437
    12.2464  12.2517  12.3233  12.3280  12.3562  12.3806  12.3963  12.4302
    12.4522  12.4999  12.5036  12.5187  12.5206  12.6028  12.6293  12.6427
    12.6640  12.6755  12.6953  12.7178  12.7315  12.7490  12.7722  12.7777
    12.8031  12.8109  12.8522  12.8929  12.9380  12.9978  13.0141  13.0174
    13.1001  13.1375  13.1381  13.2052  13.2127  13.2257  13.2706  13.2935
    13.2958  13.3365  13.3800  13.3906  13.4252  13.4515  13.4615  13.4694
    13.4866  13.5071  13.6385  13.6455  13.6456  13.6492  13.7087  13.7117
    13.7378  13.7740  13.8233  13.8301  13.8388  13.8592  13.8606  13.8795
    13.8923  13.9242  13.9457  14.0372  14.0543  14.0631  14.0947  14.1035
    14.1082  14.1214  14.2023  14.2501  14.2908  14.2919  14.2976  14.3130
    14.3202  14.3860  14.4016  14.4056  14.4554  14.4608  14.6500  14.8025
    14.8361  15.0971  15.3069  15.3557  15.5074  15.6148  15.9792  16.0548
    16.5586  16.8170  16.8902  17.0616  17.1336  17.5826  17.6060  18.0011
    18.1887  18.4002  18.5702  19.0246  19.1338  19.2101  19.7115  19.7457
    19.7571  19.8768  19.8859  20.2676  20.9672  22.3209  22.5313  22.5578
    22.6281  22.6372  22.9172  22.9402  23.0201  23.1635  23.2687  23.2797
    23.8393  23.9267  24.0974  24.1397  24.3088  24.3348  24.6073  24.6546
    24.9971  25.1589

          k = 0.0556 0.1667-0.4000 ( 41294 PWs)   bands (ev):

   -69.8242 -69.8070 -69.8025 -69.7983 -69.7956 -69.7944 -69.7935 -69.7927
   -69.7907 -69.7901 -69.7868 -69.7855 -69.7842 -69.7825 -69.7774 -69.7769
   -69.2589 -69.2589 -69.2477 -69.2477 -69.2450 -69.2450 -69.2440 -69.2440
   -69.2433 -69.2433 -69.2423 -69.2423 -69.2395 -69.2395 -69.2282 -69.2282
   -35.6586 -35.6575 -35.6565 -35.6546 -35.6449 -35.6449 -35.6347 -35.6071
   -35.6057 -35.6047 -35.6011 -35.5851 -35.5795 -35.5741 -35.5527 -35.5463
   -35.5438 -35.5407 -35.5257 -35.5192 -35.5143 -35.5073 -35.5016 -35.5015
   -35.4997 -35.4959 -35.4952 -35.4907 -35.4863 -35.4817 -35.4803 -35.4755
   -35.4676 -35.4585 -35.4524 -35.4432 -35.4425 -35.4422 -35.4388 -35.4365
   -35.4314 -35.4273 -35.4052 -35.4047 -35.3995 -35.3926 -35.3867 -35.3817
   -35.1228 -35.1219 -35.1195 -35.1177 -35.1116 -35.1114 -35.1070 -35.1068
   -35.0592 -35.0589 -35.0570 -35.0566 -35.0449 -35.0443 -35.0404 -35.0398
   -35.0126 -35.0120 -35.0079 -35.0075 -34.9954 -34.9952 -34.9931 -34.9929
   -34.9438 -34.9437 -34.9391 -34.9389 -34.9307 -34.9306 -34.9266 -34.9266
   -34.8716 -34.8691 -34.8606 -34.8596 -34.8585 -34.8575 -34.8574 -34.8568
   -34.8565 -34.8564 -34.8563 -34.8557 -34.8543 -34.8539 -34.8468 -34.8467
     8.0756   9.2898   9.5545   9.5598   9.6026   9.6110   9.6183   9.6361
     9.6415   9.6685   9.6964   9.8188   9.8206   9.8839  10.0648  10.1306
    10.2053  10.3618  10.3733  10.3862  10.3863  10.3962  10.4019  10.4888
    10.4934  10.5310  10.5384  10.5409  10.5478  10.5718  10.5858  10.6178
    10.6184  10.6800  10.7132  10.8041  10.8870  10.8929  10.8952  10.9013
    10.9068  10.9161  10.9483  11.0846  11.1078  11.1342  11.1812  11.2250
    11.2453  11.2537  11.2741  11.3313  11.3318  11.3650  11.4259  11.4369
    11.4708  11.4849  11.5065  11.5283  11.5776  11.6153  11.6662  11.6678
    11.6728  11.6754  11.8177  11.8529  11.8569  11.8629  11.8709  11.8791
    11.8877  11.9014  11.9848  11.9932  11.9971  12.1300  12.2040  12.2369
    12.2583  12.2663  12.3232  12.3413  12.3754  12.3786  12.3796  12.4413
    12.4626  12.4943  12.5086  12.5105  12.5534  12.5919  12.5961  12.6403
    12.6656  12.6748  12.6784  12.7228  12.7301  12.7482  12.7699  12.7813
    12.8067  12.8166  12.8550  12.8989  12.9398  13.0013  13.0159  13.0303
    13.0881  13.1347  13.1436  13.1968  13.2248  13.2374  13.2719  13.2739
    13.2960  13.3381  13.3615  13.3898  13.4343  13.4380  13.4565  13.4632
    13.4891  13.4913  13.6423  13.6427  13.6429  13.6740  13.7111  13.7152
    13.7406  13.7988  13.8287  13.8324  13.8478  13.8593  13.8649  13.8667
    13.9256  13.9325  13.9346  14.0345  14.0498  14.0935  14.1077  14.1111
    14.1128  14.1228  14.2032  14.2355  14.2506  14.2893  14.2914  14.2963
    14.3155  14.4030  14.4064  14.4315  14.4555  14.5799  14.6414  14.8029
    14.8362  15.0057  15.0316  15.3653  15.4933  15.5501  16.0034  16.0290
    16.7388  16.8893  17.0092  17.0902  17.2401  17.5133  17.7683  17.7797
    18.3408  18.3560  18.4315  18.9109  19.0548  19.3476  19.4971  19.7783
    19.7868  19.8112  19.8535  20.2087  20.9077  22.5392  22.5669  22.5913
    22.6606  22.7343  22.7710  23.1021  23.1617  23.1794  23.1873  23.3142
    23.8051  23.9247  24.1208  24.3482  24.3483  24.5573  24.6615  24.6712
    24.9996  25.1436

          k = 0.0556 0.2778 0.0444 ( 41244 PWs)   bands (ev):

   -69.8228 -69.8109 -69.8019 -69.7979 -69.7972 -69.7946 -69.7922 -69.7904
   -69.7892 -69.7890 -69.7881 -69.7859 -69.7847 -69.7812 -69.7788 -69.7774
   -69.2580 -69.2580 -69.2503 -69.2503 -69.2449 -69.2449 -69.2443 -69.2443
   -69.2431 -69.2431 -69.2424 -69.2424 -69.2369 -69.2369 -69.2292 -69.2291
   -35.6536 -35.6516 -35.6496 -35.6478 -35.6396 -35.6391 -35.6321 -35.6126
   -35.6124 -35.6116 -35.6058 -35.6034 -35.5938 -35.5932 -35.5568 -35.5507
   -35.5357 -35.5332 -35.5124 -35.5076 -35.5048 -35.5044 -35.5041 -35.5030
   -35.5002 -35.4979 -35.4968 -35.4952 -35.4872 -35.4867 -35.4823 -35.4759
   -35.4583 -35.4508 -35.4502 -35.4462 -35.4370 -35.4356 -35.4319 -35.4307
   -35.4253 -35.4252 -35.4144 -35.4117 -35.4040 -35.3947 -35.3946 -35.3860
   -35.1186 -35.1170 -35.1130 -35.1105 -35.1078 -35.1075 -35.1006 -35.1003
   -35.0750 -35.0741 -35.0706 -35.0699 -35.0619 -35.0605 -35.0552 -35.0543
   -34.9978 -34.9972 -34.9910 -34.9905 -34.9815 -34.9814 -34.9770 -34.9767
   -34.9506 -34.9506 -34.9431 -34.9428 -34.9380 -34.9379 -34.9314 -34.9314
   -34.8710 -34.8677 -34.8623 -34.8620 -34.8582 -34.8577 -34.8576 -34.8568
   -34.8567 -34.8563 -34.8560 -34.8558 -34.8524 -34.8522 -34.8474 -34.8472
     8.1717   9.2645   9.4563   9.6189   9.6367   9.6371   9.6691   9.6919
     9.7047   9.7716   9.8606   9.8673   9.8681   9.8683  10.0396  10.0740
    10.2039  10.2115  10.2293  10.2326  10.2596  10.2614  10.3551  10.4326
    10.4408  10.5131  10.5833  10.5838  10.5932  10.5973  10.6023  10.6044
    10.6134  10.6542  10.6615  10.6911  10.8267  10.8703  10.8861  10.9097
    10.9438  10.9732  11.0121  11.1099  11.1212  11.1241  11.1451  11.1747
    11.1901  11.2400  11.2849  11.3107  11.3161  11.4505  11.4577  11.4664
    11.4825  11.4955  11.5738  11.5763  11.5914  11.6666  11.6855  11.6925
    11.7620  11.8229  11.8422  11.8454  11.8687  11.8938  11.8988  11.9012
    11.9027  11.9732  11.9744  11.9760  12.0321  12.0347  12.0817  12.0959
    12.1217  12.1277  12.1393  12.2249  12.2619  12.2878  12.3149  12.3548
    12.3571  12.3757  12.4400  12.4866  12.5382  12.5585  12.6248  12.6916
    12.7156  12.7241  12.7746  12.7878  12.7937  12.8082  12.8251  12.8551
    12.8764  12.8821  12.9163  12.9393  12.9700  13.0055  13.0202  13.1268
    13.1347  13.2003  13.2043  13.2359  13.2823  13.3115  13.3569  13.3682
    13.3707  13.3999  13.4267  13.4392  13.4502  13.4585  13.4668  13.4857
    13.4907  13.5186  13.5304  13.5347  13.6414  13.6960  13.6984  13.7343
    13.7798  13.8040  13.8065  13.8192  13.8374  13.8540  13.8604  13.8886
    13.8897  13.9614  13.9658  13.9787  13.9833  14.0344  14.0428  14.0643
    14.0663  14.0797  14.1425  14.1690  14.1696  14.1961  14.2792  14.3195
    14.3243  14.3320  14.3534  14.4113  14.5433  14.6121  14.6182  14.6964
    15.1209  15.1291  15.1948  15.2676  15.5982  15.6550  15.8613  16.2154
    16.2566  16.6598  16.7362  16.7798  17.2361  17.5550  17.9459  18.0387
    18.1028  18.4722  19.1860  19.2510  19.8630  19.9490  19.9519  20.2034
    20.2110  20.2907  20.3656  20.7603  21.1464  21.3647  21.5033  21.6716
    21.7418  21.7441  21.8722  22.0477  22.7644  22.8194  22.9436  23.0614
    23.3849  23.4448  23.5035  23.8987  23.9490  24.2232  24.3697  24.7320
    24.9559  25.0392

          k = 0.0556 0.2778 0.1333 ( 41226 PWs)   bands (ev):

   -69.8228 -69.8109 -69.8019 -69.7979 -69.7972 -69.7946 -69.7922 -69.7904
   -69.7892 -69.7890 -69.7881 -69.7859 -69.7847 -69.7812 -69.7788 -69.7774
   -69.2580 -69.2580 -69.2503 -69.2503 -69.2449 -69.2449 -69.2443 -69.2443
   -69.2431 -69.2431 -69.2424 -69.2424 -69.2369 -69.2369 -69.2292 -69.2291
   -35.6536 -35.6517 -35.6495 -35.6478 -35.6395 -35.6391 -35.6321 -35.6126
   -35.6125 -35.6116 -35.6058 -35.6034 -35.5938 -35.5932 -35.5568 -35.5506
   -35.5357 -35.5332 -35.5124 -35.5076 -35.5049 -35.5044 -35.5041 -35.5030
   -35.5002 -35.4979 -35.4968 -35.4952 -35.4872 -35.4867 -35.4823 -35.4758
   -35.4583 -35.4507 -35.4502 -35.4462 -35.4370 -35.4356 -35.4318 -35.4307
   -35.4253 -35.4252 -35.4144 -35.4117 -35.4039 -35.3947 -35.3946 -35.3860
   -35.1186 -35.1170 -35.1130 -35.1105 -35.1078 -35.1074 -35.1006 -35.1002
   -35.0750 -35.0742 -35.0706 -35.0699 -35.0618 -35.0606 -35.0552 -35.0543
   -34.9979 -34.9972 -34.9910 -34.9905 -34.9815 -34.9814 -34.9770 -34.9767
   -34.9506 -34.9506 -34.9431 -34.9428 -34.9380 -34.9379 -34.9314 -34.9313
   -34.8709 -34.8678 -34.8624 -34.8620 -34.8582 -34.8577 -34.8575 -34.8567
   -34.8566 -34.8563 -34.8560 -34.8557 -34.8524 -34.8522 -34.8473 -34.8472
     8.1805   9.2703   9.4454   9.6205   9.6378   9.6383   9.6707   9.6934
     9.7066   9.7713   9.8414   9.8620   9.8679   9.8692  10.0397  10.0768
    10.2016  10.2079  10.2292  10.2313  10.2621  10.2725  10.3544  10.4323
    10.4398  10.4994  10.5798  10.5847  10.5903  10.5931  10.5989  10.6064
    10.6117  10.6534  10.6620  10.6836  10.8291  10.8708  10.8829  10.9097
    10.9375  10.9660  11.0119  11.1114  11.1183  11.1280  11.1414  11.1673
    11.1885  11.2412  11.2777  11.3065  11.3179  11.4514  11.4547  11.4772
    11.4885  11.4949  11.5725  11.5745  11.5976  11.6639  11.6879  11.6953
    11.7571  11.8235  11.8448  11.8630  11.8724  11.8942  11.8957  11.9010
    11.9154  11.9721  11.9777  11.9917  12.0326  12.0326  12.0785  12.1099
    12.1325  12.1491  12.1571  12.2568  12.2612  12.3079  12.3162  12.3531
    12.3738  12.3760  12.4366  12.4899  12.5085  12.5472  12.6301  12.6709
    12.7122  12.7248  12.7559  12.7668  12.7786  12.8102  12.8256  12.8496
    12.8754  12.8855  12.9102  12.9363  12.9581  13.0120  13.0273  13.1268
    13.1353  13.2012  13.2363  13.2463  13.2671  13.2802  13.3286  13.3360
    13.3474  13.3990  13.4155  13.4342  13.4373  13.4393  13.4578  13.4741
    13.4892  13.5585  13.5693  13.6060  13.6487  13.6961  13.7245  13.7639
    13.8043  13.8093  13.8123  13.8148  13.8214  13.8584  13.8663  13.8738
    13.8866  13.9750  13.9758  13.9805  13.9965  14.0079  14.0411  14.0638
    14.0742  14.0833  14.1289  14.1650  14.1750  14.2638  14.2763  14.3180
    14.3238  14.3323  14.3478  14.4037  14.4088  14.6191  14.6720  14.6967
    14.9857  15.1022  15.1486  15.4632  15.4770  15.6441  15.8105  16.4243
    16.4504  16.5958  16.7053  16.8048  16.9842  17.6021  17.9208  18.2349
    18.4153  18.5567  18.6291  19.2940  19.6969  19.8142  19.9075  20.1268
    20.1808  20.2081  20.2822  20.5299  21.3393  21.5375  21.5398  21.6140
    21.7664  21.7874  22.0855  22.1773  22.6666  22.6873  23.3817  23.3843
    23.4754  23.6545  23.6809  23.7627  23.7858  24.1216  24.4649  24.8735
    24.9912  25.0429

          k = 0.0556 0.2778 0.2222 ( 41259 PWs)   bands (ev):

   -69.8228 -69.8109 -69.8019 -69.7979 -69.7972 -69.7946 -69.7922 -69.7904
   -69.7892 -69.7890 -69.7881 -69.7859 -69.7847 -69.7812 -69.7788 -69.7774
   -69.2580 -69.2580 -69.2503 -69.2503 -69.2449 -69.2449 -69.2443 -69.2443
   -69.2431 -69.2431 -69.2424 -69.2424 -69.2369 -69.2369 -69.2292 -69.2291
   -35.6535 -35.6516 -35.6495 -35.6478 -35.6395 -35.6392 -35.6321 -35.6126
   -35.6125 -35.6117 -35.6058 -35.6034 -35.5938 -35.5932 -35.5568 -35.5507
   -35.5357 -35.5332 -35.5124 -35.5076 -35.5049 -35.5044 -35.5042 -35.5030
   -35.5002 -35.4979 -35.4968 -35.4952 -35.4872 -35.4867 -35.4823 -35.4759
   -35.4582 -35.4507 -35.4503 -35.4461 -35.4370 -35.4356 -35.4318 -35.4307
   -35.4253 -35.4252 -35.4144 -35.4117 -35.4040 -35.3947 -35.3946 -35.3860
   -35.1186 -35.1170 -35.1129 -35.1106 -35.1078 -35.1074 -35.1007 -35.1002
   -35.0750 -35.0742 -35.0706 -35.0699 -35.0618 -35.0605 -35.0552 -35.0544
   -34.9979 -34.9972 -34.9910 -34.9905 -34.9815 -34.9813 -34.9770 -34.9767
   -34.9506 -34.9505 -34.9430 -34.9428 -34.9380 -34.9379 -34.9314 -34.9313
   -34.8706 -34.8680 -34.8625 -34.8620 -34.8584 -34.8577 -34.8574 -34.8568
   -34.8566 -34.8564 -34.8560 -34.8557 -34.8524 -34.8523 -34.8474 -34.8472
     8.1944   9.2793   9.4264   9.6229   9.6396   9.6403   9.6727   9.6960
     9.7091   9.7699   9.8077   9.8642   9.8688   9.8710  10.0398  10.0811
    10.1981  10.2016  10.2290  10.2295  10.2631  10.2883  10.3532  10.4318
    10.4370  10.4814  10.5744  10.5838  10.5860  10.5860  10.6007  10.6044
    10.6103  10.6427  10.6707  10.6744  10.8322  10.8712  10.8773  10.9097
    10.9279  10.9552  11.0116  11.1137  11.1138  11.1327  11.1363  11.1569
    11.1864  11.2435  11.2665  11.3034  11.3178  11.4518  11.4523  11.4939
    11.4953  11.4961  11.5704  11.5718  11.6079  11.6607  11.6906  11.6990
    11.7487  11.8246  11.8488  11.8776  11.8880  11.8894  11.8952  11.8992
    11.9323  11.9705  11.9793  12.0195  12.0294  12.0337  12.0727  12.1319
    12.1529  12.1833  12.1897  12.2499  12.3207  12.3207  12.3396  12.3496
    12.3776  12.3998  12.4310  12.4457  12.4988  12.5652  12.6298  12.6315
    12.6992  12.7130  12.7265  12.7367  12.7749  12.8149  12.8270  12.8505
    12.8604  12.8749  12.8894  12.9254  12.9810  13.0042  13.0499  13.1328
    13.1371  13.1966  13.2268  13.2286  13.2431  13.2985  13.3038  13.3124
    13.3189  13.3802  13.3950  13.3989  13.4370  13.4461  13.4561  13.4599
    13.4934  13.6044  13.6103  13.6601  13.6698  13.7084  13.7423  13.7836
    13.8123  13.8233  13.8249  13.8291  13.8304  13.8332  13.8656  13.8822
    13.8987  13.9686  13.9770  13.9934  14.0146  14.0177  14.0355  14.0611
    14.0737  14.0982  14.1055  14.1640  14.1827  14.2297  14.2719  14.3138
    14.3243  14.3327  14.3409  14.3890  14.4395  14.6204  14.6973  14.7716
    14.8091  15.0559  15.1174  15.2858  15.6270  15.7575  15.7823  16.1551
    16.4077  16.7435  16.7475  17.0227  17.2981  17.6797  17.8655  17.9748
    18.2903  18.5358  19.1125  19.1448  19.3651  19.6286  19.6433  19.8653
    19.9881  20.1065  20.1833  20.8013  21.1663  21.4173  21.6005  21.8286
    21.8563  22.1451  22.3571  22.4647  22.5938  22.7565  23.4540  23.5877
    23.6172  23.6527  23.6767  23.7840  24.0019  24.1387  24.8032  24.8085
    25.0294  25.1914

          k = 0.0556 0.2778 0.3111 ( 41249 PWs)   bands (ev):

   -69.8228 -69.8109 -69.8019 -69.7979 -69.7972 -69.7946 -69.7922 -69.7904
   -69.7892 -69.7890 -69.7881 -69.7859 -69.7847 -69.7812 -69.7788 -69.7774
   -69.2580 -69.2580 -69.2503 -69.2503 -69.2449 -69.2449 -69.2443 -69.2443
   -69.2431 -69.2431 -69.2424 -69.2424 -69.2369 -69.2369 -69.2292 -69.2291
   -35.6535 -35.6516 -35.6495 -35.6478 -35.6395 -35.6392 -35.6321 -35.6127
   -35.6126 -35.6117 -35.6058 -35.6034 -35.5938 -35.5932 -35.5568 -35.5507
   -35.5357 -35.5332 -35.5124 -35.5076 -35.5050 -35.5044 -35.5042 -35.5029
   -35.5002 -35.4979 -35.4969 -35.4952 -35.4872 -35.4867 -35.4823 -35.4759
   -35.4582 -35.4507 -35.4503 -35.4461 -35.4370 -35.4356 -35.4318 -35.4307
   -35.4253 -35.4252 -35.4143 -35.4117 -35.4039 -35.3947 -35.3945 -35.3860
   -35.1185 -35.1170 -35.1129 -35.1106 -35.1079 -35.1074 -35.1007 -35.1002
   -35.0750 -35.0742 -35.0706 -35.0700 -35.0618 -35.0606 -35.0551 -35.0544
   -34.9979 -34.9972 -34.9910 -34.9906 -34.9816 -34.9813 -34.9770 -34.9767
   -34.9506 -34.9505 -34.9430 -34.9428 -34.9379 -34.9379 -34.9314 -34.9313
   -34.8704 -34.8682 -34.8626 -34.8619 -34.8584 -34.8578 -34.8573 -34.8567
   -34.8566 -34.8565 -34.8559 -34.8556 -34.8524 -34.8522 -34.8474 -34.8472
     8.2071   9.2875   9.4073   9.6251   9.6411   9.6424   9.6742   9.6986
     9.7110   9.7646   9.7872   9.8661   9.8695   9.8726  10.0398  10.0850
    10.1950  10.1951  10.2278  10.2288  10.2639  10.2993  10.3522  10.4314
    10.4325  10.4693  10.5697  10.5792  10.5823  10.5872  10.5944  10.6018
    10.6143  10.6352  10.6576  10.6860  10.8343  10.8713  10.8714  10.9097
    10.9197  10.9458  11.0114  11.1098  11.1159  11.1324  11.1358  11.1485
    11.1851  11.2461  11.2562  11.3020  11.3165  11.4502  11.4531  11.4930
    11.5021  11.5127  11.5686  11.5697  11.6179  11.6583  11.6926  11.7018
    11.7405  11.8256  11.8524  11.8820  11.8820  11.8961  11.8981  11.9077
    11.9436  11.9694  11.9790  12.0267  12.0361  12.0459  12.0662  12.1521
    12.1752  12.2077  12.2312  12.2447  12.3318  12.3457  12.3686  12.3802
    12.3826  12.3917  12.4230  12.4252  12.5161  12.5867  12.5924  12.6272
    12.6485  12.6872  12.7053  12.7288  12.7781  12.8216  12.8288  12.8463
    12.8554  12.8565  12.8764  12.9280  12.9962  12.9994  13.0700  13.1388
    13.1462  13.1786  13.1884  13.2135  13.2208  13.2573  13.2750  13.3159
    13.3474  13.3643  13.3726  13.3882  13.4424  13.4454  13.4548  13.4573
    13.5006  13.6314  13.6687  13.6705  13.6887  13.6893  13.7594  13.8047
    13.8115  13.8132  13.8281  13.8455  13.8557  13.8626  13.8707  13.8795
    13.9294  13.9348  13.9750  14.0056  14.0277  14.0301  14.0529  14.0722
    14.0730  14.0803  14.0839  14.1106  14.1640  14.1885  14.2681  14.3091
    14.3282  14.3330  14.3334  14.3938  14.6215  14.6591  14.6858  14.6978
    14.8695  15.0323  15.0935  15.1383  15.6131  15.6621  15.7244  16.1100
    16.2515  17.0535  17.0832  17.2411  17.4843  17.6307  17.7549  17.7793
    18.1086  18.6195  18.8504  19.1646  19.4343  19.4770  19.5260  19.8569
    19.8708  19.9966  20.1128  20.3509  21.2630  21.6682  21.6792  21.9270
    22.1187  22.2168  22.4624  22.6638  22.6910  22.9659  23.2921  23.3313
    23.3334  23.7015  23.8065  24.0910  24.2229  24.7240  24.7465  25.0280
    25.1670  25.1864

          k = 0.0556 0.2778-0.4000 ( 41242 PWs)   bands (ev):

   -69.8228 -69.8109 -69.8019 -69.7979 -69.7972 -69.7946 -69.7922 -69.7904
   -69.7892 -69.7890 -69.7881 -69.7859 -69.7847 -69.7812 -69.7788 -69.7774
   -69.2580 -69.2580 -69.2503 -69.2503 -69.2449 -69.2449 -69.2443 -69.2443
   -69.2431 -69.2431 -69.2424 -69.2424 -69.2369 -69.2369 -69.2292 -69.2291
   -35.6535 -35.6516 -35.6495 -35.6478 -35.6395 -35.6392 -35.6321 -35.6126
   -35.6126 -35.6117 -35.6058 -35.6034 -35.5938 -35.5932 -35.5567 -35.5507
   -35.5358 -35.5332 -35.5124 -35.5076 -35.5050 -35.5044 -35.5041 -35.5029
   -35.5002 -35.4979 -35.4969 -35.4952 -35.4872 -35.4866 -35.4823 -35.4759
   -35.4582 -35.4507 -35.4503 -35.4462 -35.4371 -35.4356 -35.4319 -35.4307
   -35.4253 -35.4252 -35.4143 -35.4117 -35.4039 -35.3947 -35.3945 -35.3860
   -35.1185 -35.1170 -35.1129 -35.1106 -35.1079 -35.1074 -35.1007 -35.1003
   -35.0750 -35.0743 -35.0706 -35.0700 -35.0618 -35.0606 -35.0551 -35.0544
   -34.9979 -34.9971 -34.9910 -34.9906 -34.9816 -34.9813 -34.9770 -34.9768
   -34.9506 -34.9505 -34.9429 -34.9428 -34.9379 -34.9379 -34.9314 -34.9313
   -34.8702 -34.8683 -34.8626 -34.8618 -34.8585 -34.8578 -34.8574 -34.8567
   -34.8566 -34.8565 -34.8560 -34.8557 -34.8524 -34.8522 -34.8474 -34.8472
     8.2122   9.2908   9.3992   9.6259   9.6418   9.6433   9.6747   9.6997
     9.7117   9.7600   9.7828   9.8668   9.8698   9.8732  10.0399  10.0866
    10.1923  10.1939  10.2272  10.2287  10.2643  10.3030  10.3518  10.4300
    10.4312  10.4657  10.5678  10.5793  10.5808  10.5876  10.5885  10.6022
    10.6159  10.6330  10.6518  10.6909  10.8350  10.8688  10.8713  10.9097
    10.9164  10.9421  11.0114  11.1083  11.1167  11.1310  11.1367  11.1454
    11.1847  11.2472  11.2520  11.3018  11.3157  11.4498  11.4533  11.4927
    11.5044  11.5201  11.5679  11.5690  11.6221  11.6574  11.6933  11.7028
    11.7370  11.8260  11.8538  11.8785  11.8836  11.8965  11.8978  11.9148
    11.9473  11.9690  11.9783  12.0257  12.0379  12.0568  12.0628  12.1602
    12.1852  12.2173  12.2429  12.2493  12.3440  12.3535  12.3547  12.3803
    12.3817  12.4133  12.4226  12.4324  12.5366  12.5554  12.6193  12.6210
    12.6259  12.6502  12.7036  12.7300  12.7804  12.8254  12.8286  12.8296
    12.8558  12.8597  12.8778  12.9274  12.9979  13.0010  13.0789  13.1393
    13.1545  13.1572  13.1845  13.2076  13.2113  13.2364  13.2649  13.3164
    13.3337  13.3507  13.3845  13.4064  13.4237  13.4497  13.4543  13.4619
    13.5041  13.6459  13.6689  13.6735  13.6768  13.7426  13.7507  13.7935
    13.8105  13.8218  13.8294  13.8502  13.8621  13.8711  13.8795  13.9050
    13.9212  13.9476  13.9747  13.9920  14.0055  14.0238  14.0338  14.0467
    14.0716  14.0766  14.1130  14.1150  14.1641  14.1905  14.2666  14.3070
    14.3305  14.3319  14.3332  14.3924  14.5960  14.6219  14.6979  14.8912
    14.9119  15.0285  15.0787  15.0822  15.3776  15.6082  15.7133  16.1893
    16.2954  17.2114  17.2448  17.2666  17.3540  17.7170  17.7870  17.8084
    17.9937  18.3856  18.9388  19.0148  19.4179  19.4641  19.6701  19.8280
    19.8985  19.9047  20.0872  20.1423  21.2027  21.7000  21.8926  21.9585
    22.2501  22.2719  22.4302  22.7558  22.7647  23.1345  23.1512  23.1601
    23.2257  23.5315  23.9929  24.3483  24.4150  24.7000  24.9225  25.0294
    25.0454  25.0529

          k = 0.0556 0.3889 0.0444 ( 41256 PWs)   bands (ev):

   -69.8206 -69.8146 -69.8011 -69.7987 -69.7973 -69.7956 -69.7915 -69.7894
   -69.7880 -69.7878 -69.7868 -69.7865 -69.7855 -69.7809 -69.7800 -69.7780
   -69.2566 -69.2566 -69.2527 -69.2527 -69.2448 -69.2448 -69.2445 -69.2445
   -69.2429 -69.2428 -69.2425 -69.2425 -69.2345 -69.2345 -69.2306 -69.2305
   -35.6453 -35.6434 -35.6395 -35.6391 -35.6320 -35.6308 -35.6283 -35.6227
   -35.6199 -35.6198 -35.6181 -35.6137 -35.6108 -35.6077 -35.5582 -35.5546
   -35.5285 -35.5220 -35.5136 -35.5075 -35.5073 -35.5063 -35.5049 -35.5036
   -35.5028 -35.4985 -35.4928 -35.4903 -35.4831 -35.4807 -35.4779 -35.4735
   -35.4667 -35.4590 -35.4362 -35.4342 -35.4333 -35.4310 -35.4304 -35.4251
   -35.4241 -35.4200 -35.4187 -35.4128 -35.4114 -35.4054 -35.4000 -35.3928
   -35.1114 -35.1095 -35.1036 -35.1017 -35.1011 -35.1010 -35.0920 -35.0913
   -35.0894 -35.0880 -35.0828 -35.0820 -35.0776 -35.0757 -35.0689 -35.0680
   -34.9839 -34.9833 -34.9750 -34.9747 -34.9690 -34.9689 -34.9624 -34.9621
   -34.9598 -34.9596 -34.9494 -34.9493 -34.9480 -34.9480 -34.9392 -34.9391
   -34.8691 -34.8667 -34.8646 -34.8638 -34.8582 -34.8580 -34.8574 -34.8569
   -34.8566 -34.8564 -34.8559 -34.8558 -34.8509 -34.8506 -34.8483 -34.8481
     8.3736   8.9353   9.6052   9.7006   9.7194   9.7551   9.7595   9.7804
     9.8046   9.8342   9.8893   9.9316   9.9494   9.9680   9.9783   9.9973
    10.0071  10.0293  10.0650  10.0741  10.1344  10.1936  10.2350  10.3467
    10.3989  10.5391  10.5817  10.5902  10.5907  10.6256  10.6260  10.6467
    10.6918  10.6959  10.7067  10.7157  10.7321  10.8346  10.8927  10.8944
    10.9056  10.9566  10.9924  11.0066  11.0282  11.0584  11.0866  11.1019
    11.1062  11.1416  11.3093  11.3765  11.4406  11.4804  11.4865  11.4959
    11.5339  11.5703  11.6258  11.6542  11.6558  11.6654  11.6747  11.6946
    11.7999  11.8206  11.8352  11.8754  11.8779  11.8801  11.9226  11.9250
    11.9266  11.9272  11.9381  11.9885  11.9914  12.0292  12.0385  12.0653
    12.0833  12.0894  12.1565  12.1682  12.1883  12.2060  12.2500  12.2975
    12.3099  12.3358  12.5525  12.5664  12.5940  12.5999  12.6470  12.6817
    12.7361  12.7373  12.7625  12.7996  12.8452  12.8497  12.8680  12.8838
    12.8993  12.9231  12.9357  12.9366  13.0728  13.1127  13.1480  13.1590
    13.1958  13.1987  13.2073  13.2544  13.2698  13.2918  13.3308  13.3423
    13.3719  13.3724  13.4128  13.4357  13.4515  13.4916  13.5488  13.5642
    13.5761  13.6347  13.6367  13.6616  13.6751  13.6891  13.7182  13.7203
    13.7388  13.7413  13.7747  13.7787  13.8286  13.8416  13.8716  13.9110
    13.9212  13.9261  13.9682  13.9837  13.9851  13.9942  14.0039  14.0610
    14.0756  14.0929  14.1140  14.1184  14.1390  14.1764  14.2586  14.2673
    14.3394  14.3557  14.3681  14.4012  14.4120  14.4972  14.5438  14.7455
    14.8654  15.1023  15.1080  15.2350  15.2726  15.6289  15.7584  16.2212
    16.2442  16.7642  16.7933  16.7959  17.4582  17.6981  18.4369  18.6846
    18.7088  18.7776  19.0980  19.1986  19.3353  19.7872  20.2775  20.3553
    20.4176  20.4485  20.5481  20.5820  20.7208  20.9983  21.0580  21.1498
    21.2661  21.5175  22.1659  22.4798  22.7059  22.8174  22.9003  23.0081
    23.1363  23.1958  23.2197  23.5125  23.5229  23.6347  23.9665  23.9859
    24.6274  24.7149

          k = 0.0556 0.3889 0.1333 ( 41257 PWs)   bands (ev):

   -69.8206 -69.8146 -69.8011 -69.7987 -69.7973 -69.7956 -69.7915 -69.7894
   -69.7880 -69.7878 -69.7868 -69.7865 -69.7855 -69.7809 -69.7800 -69.7780
   -69.2566 -69.2566 -69.2527 -69.2527 -69.2448 -69.2448 -69.2445 -69.2445
   -69.2429 -69.2428 -69.2425 -69.2425 -69.2345 -69.2345 -69.2306 -69.2305
   -35.6452 -35.6434 -35.6395 -35.6391 -35.6320 -35.6308 -35.6283 -35.6227
   -35.6199 -35.6198 -35.6181 -35.6137 -35.6108 -35.6077 -35.5582 -35.5546
   -35.5285 -35.5221 -35.5135 -35.5074 -35.5073 -35.5063 -35.5049 -35.5036
   -35.5028 -35.4985 -35.4928 -35.4903 -35.4831 -35.4807 -35.4779 -35.4735
   -35.4667 -35.4589 -35.4362 -35.4342 -35.4333 -35.4310 -35.4304 -35.4251
   -35.4241 -35.4199 -35.4187 -35.4128 -35.4114 -35.4054 -35.4000 -35.3928
   -35.1115 -35.1096 -35.1036 -35.1017 -35.1011 -35.1010 -35.0920 -35.0913
   -35.0894 -35.0879 -35.0828 -35.0820 -35.0777 -35.0757 -35.0689 -35.0680
   -34.9839 -34.9833 -34.9750 -34.9747 -34.9690 -34.9688 -34.9624 -34.9621
   -34.9598 -34.9596 -34.9494 -34.9493 -34.9481 -34.9480 -34.9392 -34.9391
   -34.8690 -34.8668 -34.8646 -34.8639 -34.8583 -34.8580 -34.8573 -34.8569
   -34.8567 -34.8565 -34.8558 -34.8557 -34.8508 -34.8506 -34.8483 -34.8481
     8.3819   8.9422   9.5958   9.7010   9.7211   9.7559   9.7602   9.7813
     9.8058   9.8336   9.8889   9.9330   9.9502   9.9704   9.9777   9.9814
     9.9917  10.0280  10.0651  10.0735  10.1354  10.1934  10.2350  10.3265
    10.4088  10.5404  10.5846  10.5870  10.5969  10.6233  10.6271  10.6418
    10.6921  10.6948  10.7068  10.7130  10.7257  10.8310  10.8879  10.8911
    10.9099  10.9516  10.9890  11.0001  11.0261  11.0510  11.0821  11.1010
    11.1019  11.1427  11.3121  11.3740  11.4446  11.4786  11.4900  11.5005
    11.5334  11.5745  11.6374  11.6574  11.6638  11.6760  11.6798  11.7012
    11.8013  11.8184  11.8533  11.8810  11.8825  11.8988  11.9221  11.9225
    11.9244  11.9282  11.9425  11.9904  11.9943  12.0576  12.0679  12.0715
    12.0910  12.1004  12.1606  12.1717  12.1862  12.2264  12.2507  12.2962
    12.3239  12.3347  12.5441  12.5648  12.5767  12.5960  12.6499  12.6783
    12.7224  12.7378  12.7613  12.8007  12.8318  12.8431  12.8445  12.8607
    12.8720  12.8872  12.9183  12.9485  13.0207  13.0842  13.1051  13.1534
    13.1722  13.1901  13.2548  13.2572  13.2845  13.2847  13.3210  13.3269
    13.3660  13.3800  13.3911  13.4180  13.4771  13.4896  13.5646  13.5720
    13.6322  13.6393  13.6421  13.6570  13.6888  13.6975  13.7373  13.7405
    13.7490  13.7538  13.7752  13.7880  13.8370  13.8628  13.8889  13.9174
    13.9233  13.9314  13.9660  13.9845  13.9859  13.9886  13.9952  14.0411
    14.0635  14.0849  14.0914  14.1204  14.1321  14.1771  14.2045  14.2576
    14.3533  14.3634  14.3842  14.4125  14.4470  14.4994  14.5440  14.7385
    14.9755  15.0151  15.0762  15.2301  15.3270  15.5031  15.6713  16.4337
    16.4546  16.8442  16.9464  16.9981  17.1258  17.3183  18.0599  18.6707
    18.9587  18.9714  19.0128  19.0830  19.7339  19.8286  19.9849  20.0698
    20.3175  20.3305  20.4736  20.6363  20.7460  20.8174  21.0978  21.2198
    21.6941  21.7075  21.9875  22.0247  22.7161  22.8781  23.0861  23.1349
    23.1663  23.2928  23.3571  23.5737  23.7278  24.0278  24.0402  24.2001
    24.8102  24.8467

          k = 0.0556 0.3889 0.2222 ( 41277 PWs)   bands (ev):

   -69.8206 -69.8146 -69.8011 -69.7987 -69.7973 -69.7956 -69.7915 -69.7894
   -69.7880 -69.7878 -69.7868 -69.7865 -69.7855 -69.7809 -69.7800 -69.7780
   -69.2566 -69.2566 -69.2527 -69.2527 -69.2448 -69.2448 -69.2445 -69.2445
   -69.2429 -69.2428 -69.2425 -69.2425 -69.2345 -69.2345 -69.2306 -69.2305
   -35.6452 -35.6434 -35.6394 -35.6391 -35.6320 -35.6308 -35.6284 -35.6227
   -35.6199 -35.6198 -35.6182 -35.6137 -35.6108 -35.6077 -35.5582 -35.5546
   -35.5286 -35.5221 -35.5136 -35.5075 -35.5073 -35.5064 -35.5048 -35.5036
   -35.5028 -35.4985 -35.4928 -35.4903 -35.4831 -35.4806 -35.4779 -35.4734
   -35.4667 -35.4589 -35.4363 -35.4342 -35.4333 -35.4310 -35.4304 -35.4252
   -35.4241 -35.4199 -35.4186 -35.4128 -35.4114 -35.4054 -35.4000 -35.3928
   -35.1114 -35.1096 -35.1036 -35.1017 -35.1011 -35.1010 -35.0920 -35.0913
   -35.0893 -35.0880 -35.0828 -35.0820 -35.0776 -35.0757 -35.0689 -35.0680
   -34.9839 -34.9833 -34.9750 -34.9747 -34.9691 -34.9689 -34.9623 -34.9621
   -34.9599 -34.9595 -34.9494 -34.9493 -34.9480 -34.9479 -34.9391 -34.9391
   -34.8689 -34.8670 -34.8646 -34.8640 -34.8583 -34.8580 -34.8571 -34.8568
   -34.8567 -34.8566 -34.8558 -34.8556 -34.8508 -34.8507 -34.8483 -34.8481
     8.3951   8.9529   9.5793   9.7018   9.7238   9.7572   9.7611   9.7829
     9.8073   9.8327   9.8877   9.9350   9.9483   9.9515   9.9741   9.9770
     9.9819  10.0260  10.0652  10.0725  10.1369  10.1931  10.2349  10.2989
    10.4205  10.5424  10.5848  10.5895  10.6071  10.6170  10.6285  10.6357
    10.6862  10.6983  10.7065  10.7090  10.7144  10.8251  10.8774  10.8885
    10.9156  10.9441  10.9846  10.9903  11.0231  11.0402  11.0754  11.0928
    11.1019  11.1444  11.3166  11.3703  11.4498  11.4759  11.4960  11.5091
    11.5327  11.5798  11.6553  11.6593  11.6613  11.6869  11.7105  11.7115
    11.8037  11.8149  11.8804  11.8863  11.8884  11.9203  11.9208  11.9226
    11.9273  11.9385  11.9480  11.9931  11.9989  12.0795  12.0899  12.1033
    12.1173  12.1282  12.1698  12.1785  12.1827  12.2519  12.2591  12.2940
    12.3328  12.3455  12.5072  12.5607  12.5652  12.6020  12.6520  12.6734
    12.6860  12.7326  12.7598  12.7972  12.7981  12.8235  12.8359  12.8393
    12.8465  12.8489  12.9040  12.9447  12.9660  13.0414  13.0424  13.0906
    13.1797  13.1851  13.2397  13.2604  13.2683  13.3015  13.3023  13.3542
    13.3597  13.3919  13.3944  13.3958  13.4823  13.5323  13.5654  13.5880
    13.6401  13.6463  13.6544  13.6677  13.6876  13.7223  13.7317  13.7430
    13.7833  13.8154  13.8269  13.8298  13.8445  13.8909  13.9118  13.9232
    13.9235  13.9387  13.9586  13.9651  13.9838  13.9839  13.9966  14.0137
    14.0449  14.0524  14.0846  14.0904  14.1206  14.1261  14.1778  14.2560
    14.3494  14.3560  14.3853  14.4133  14.5052  14.5443  14.6848  14.7271
    14.8140  14.9108  15.2222  15.3416  15.3742  15.4167  15.5700  16.5650
    16.7605  16.7793  16.9239  17.1313  17.2252  17.3138  17.4820  18.5792
    18.7726  18.8307  19.1618  19.2685  19.5552  19.5984  19.8977  20.1541
    20.1775  20.3435  20.5891  20.6845  20.8096  20.9235  21.1622  21.2818
    21.4766  21.6928  21.8315  21.9792  22.8153  22.8794  22.9269  23.1469
    23.3602  23.6188  23.7304  23.9010  24.0496  24.2842  24.5341  24.5855
    24.8772  25.0109

          k = 0.0556 0.3889 0.3111 ( 41295 PWs)   bands (ev):

   -69.8206 -69.8146 -69.8011 -69.7987 -69.7973 -69.7956 -69.7915 -69.7894
   -69.7880 -69.7878 -69.7868 -69.7865 -69.7855 -69.7809 -69.7800 -69.7780
   -69.2566 -69.2566 -69.2527 -69.2527 -69.2448 -69.2448 -69.2445 -69.2445
   -69.2429 -69.2428 -69.2425 -69.2425 -69.2345 -69.2345 -69.2306 -69.2305
   -35.6452 -35.6433 -35.6394 -35.6391 -35.6320 -35.6308 -35.6283 -35.6228
   -35.6199 -35.6198 -35.6183 -35.6137 -35.6108 -35.6077 -35.5582 -35.5546
   -35.5285 -35.5221 -35.5136 -35.5074 -35.5073 -35.5064 -35.5049 -35.5036
   -35.5028 -35.4985 -35.4928 -35.4903 -35.4831 -35.4807 -35.4779 -35.4735
   -35.4667 -35.4589 -35.4363 -35.4342 -35.4333 -35.4310 -35.4304 -35.4252
   -35.4241 -35.4199 -35.4187 -35.4128 -35.4114 -35.4054 -35.4000 -35.3928
   -35.1114 -35.1096 -35.1036 -35.1018 -35.1011 -35.1010 -35.0920 -35.0913
[...]
    14.6285  14.6285  14.6285  14.6285  17.5338  17.5338  17.5338  17.5338
    17.5338  17.5338  17.5338  17.5338  18.8181  18.8181  18.8181  18.8181
    18.8182  18.8182  18.8182  18.8182  19.0018  19.0018  19.0018  19.0018
    19.7285  19.7285  19.7285  19.7285  20.5399  20.5399  20.5399  20.5399
    20.5399  20.5399  20.5399  20.5399  22.8443  22.8443  22.8443  22.8443
    24.0998  24.0998  24.0998  24.0998  24.0998  24.0998  24.0998  24.0998
    24.8376  24.8376

          k =-0.5000-0.5000 0.1333 ( 41280 PWs)   bands (ev):

   -69.8122 -69.8122 -69.8122 -69.8121 -69.7894 -69.7894 -69.7894 -69.7894
   -69.7845 -69.7845 -69.7845 -69.7845 -69.7845 -69.7845 -69.7845 -69.7845
   -69.2516 -69.2516 -69.2516 -69.2516 -69.2516 -69.2516 -69.2516 -69.2516
   -69.2357 -69.2356 -69.2356 -69.2356 -69.2356 -69.2356 -69.2356 -69.2356
   -35.6385 -35.6385 -35.6384 -35.6384 -35.6384 -35.6384 -35.6384 -35.6384
   -35.6213 -35.6213 -35.6213 -35.6213 -35.5740 -35.5740 -35.5740 -35.5740
   -35.5115 -35.5115 -35.5115 -35.5115 -35.5115 -35.5114 -35.5114 -35.5114
   -35.4736 -35.4736 -35.4736 -35.4736 -35.4711 -35.4711 -35.4711 -35.4711
   -35.4711 -35.4710 -35.4710 -35.4710 -35.4469 -35.4469 -35.4469 -35.4469
   -35.4308 -35.4308 -35.4308 -35.4308 -35.3812 -35.3812 -35.3811 -35.3811
   -35.1177 -35.1177 -35.1177 -35.1177 -35.1176 -35.1176 -35.1176 -35.1176
   -35.0345 -35.0345 -35.0345 -35.0345 -35.0318 -35.0318 -35.0318 -35.0318
   -35.0198 -35.0198 -35.0198 -35.0198 -35.0197 -35.0197 -35.0197 -35.0197
   -34.9314 -34.9314 -34.9314 -34.9314 -34.9313 -34.9313 -34.9313 -34.9313
   -34.8635 -34.8635 -34.8635 -34.8635 -34.8629 -34.8629 -34.8629 -34.8629
   -34.8515 -34.8515 -34.8515 -34.8515 -34.8515 -34.8515 -34.8515 -34.8514
     9.1023   9.1023   9.1023   9.1023   9.7320   9.7320   9.7320   9.7320
    10.0640  10.0640  10.0640  10.0640  10.0640  10.0640  10.0640  10.0640
    10.1837  10.1837  10.1837  10.1837  10.2305  10.2305  10.2305  10.2305
    10.2305  10.2305  10.2305  10.2305  10.3143  10.3143  10.3143  10.3143
    10.6172  10.6172  10.6173  10.6173  10.9257  10.9257  10.9257  10.9257
    10.9257  10.9257  10.9257  10.9257  11.2411  11.2411  11.2411  11.2411
    11.2411  11.2411  11.2411  11.2412  11.3940  11.3940  11.3940  11.3940
    11.6203  11.6203  11.6203  11.6203  11.8712  11.8712  11.8713  11.8713
    11.9667  11.9667  11.9667  11.9667  12.0144  12.0144  12.0144  12.0144
    12.0413  12.0413  12.0413  12.0413  12.2010  12.2010  12.2010  12.2010
    12.2010  12.2010  12.2010  12.2010  12.2459  12.2459  12.2459  12.2459
    12.5144  12.5144  12.5144  12.5144  12.6079  12.6079  12.6079  12.6079
    12.7716  12.7716  12.7716  12.7716  12.7716  12.7716  12.7716  12.7716
    12.8009  12.8009  12.8009  12.8009  12.8009  12.8009  12.8009  12.8009
    12.8595  12.8595  12.8595  12.8595  13.0856  13.0856  13.0856  13.0856
    13.3125  13.3125  13.3125  13.3125  13.4244  13.4244  13.4244  13.4244
    13.4244  13.4244  13.4244  13.4244  13.6515  13.6515  13.6515  13.6515
    13.6850  13.6850  13.6850  13.6850  13.8559  13.8559  13.8559  13.8559
    13.9711  13.9711  13.9711  13.9711  13.9711  13.9711  13.9711  13.9711
    14.2662  14.2662  14.2662  14.2662  14.3284  14.3284  14.3284  14.3284
    14.3285  14.3285  14.3285  14.3285  14.3429  14.3429  14.3429  14.3429
    14.9095  14.9095  14.9095  14.9095  17.5557  17.5557  17.5557  17.5557
    17.5557  17.5557  17.5557  17.5557  18.3563  18.3563  18.3563  18.3563
    18.7500  18.7500  18.7500  18.7500  18.7500  18.7500  18.7500  18.7500
    20.3869  20.3869  20.3869  20.3869  20.6506  20.6506  20.6506  20.6506
    20.6506  20.6506  20.6506  20.6506  22.8813  22.8813  22.8813  22.8813
    23.7286  23.7286  23.7286  23.7286  23.7286  23.7286  23.7286  23.7286
    24.6354  24.6354

          k =-0.5000-0.5000 0.2222 ( 41256 PWs)   bands (ev):

   -69.8122 -69.8122 -69.8122 -69.8121 -69.7894 -69.7894 -69.7894 -69.7894
   -69.7845 -69.7845 -69.7845 -69.7845 -69.7845 -69.7845 -69.7845 -69.7845
   -69.2516 -69.2516 -69.2516 -69.2516 -69.2516 -69.2516 -69.2516 -69.2516
   -69.2357 -69.2356 -69.2356 -69.2356 -69.2356 -69.2356 -69.2356 -69.2356
   -35.6384 -35.6384 -35.6384 -35.6384 -35.6384 -35.6384 -35.6384 -35.6384
   -35.6214 -35.6214 -35.6214 -35.6214 -35.5741 -35.5741 -35.5740 -35.5740
   -35.5115 -35.5115 -35.5115 -35.5115 -35.5114 -35.5114 -35.5114 -35.5114
   -35.4737 -35.4737 -35.4736 -35.4736 -35.4711 -35.4711 -35.4711 -35.4711
   -35.4710 -35.4710 -35.4710 -35.4710 -35.4470 -35.4470 -35.4470 -35.4469
   -35.4308 -35.4308 -35.4308 -35.4308 -35.3811 -35.3811 -35.3811 -35.3811
   -35.1176 -35.1176 -35.1176 -35.1176 -35.1176 -35.1176 -35.1176 -35.1176
   -35.0344 -35.0344 -35.0344 -35.0344 -35.0318 -35.0318 -35.0318 -35.0318
   -35.0197 -35.0197 -35.0197 -35.0197 -35.0197 -35.0197 -35.0197 -35.0197
   -34.9314 -34.9314 -34.9314 -34.9314 -34.9312 -34.9312 -34.9312 -34.9312
   -34.8637 -34.8637 -34.8637 -34.8637 -34.8628 -34.8628 -34.8628 -34.8628
   -34.8515 -34.8515 -34.8515 -34.8515 -34.8515 -34.8514 -34.8514 -34.8514
     9.1072   9.1072   9.1072   9.1072   9.7251   9.7251   9.7251   9.7251
    10.0637  10.0637  10.0637  10.0637  10.0637  10.0637  10.0637  10.0637
    10.1701  10.1701  10.1701  10.1701  10.2288  10.2288  10.2288  10.2288
    10.2288  10.2288  10.2288  10.2288  10.3326  10.3326  10.3326  10.3326
    10.6135  10.6135  10.6136  10.6136  10.9336  10.9336  10.9336  10.9336
    10.9337  10.9337  10.9337  10.9337  11.2366  11.2366  11.2366  11.2366
    11.2366  11.2366  11.2366  11.2366  11.3981  11.3981  11.3981  11.3981
    11.6212  11.6212  11.6212  11.6212  11.8715  11.8715  11.8715  11.8715
    11.9577  11.9577  11.9577  11.9577  12.0143  12.0143  12.0143  12.0143
    12.0713  12.0713  12.0713  12.0713  12.2005  12.2005  12.2006  12.2006
    12.2006  12.2006  12.2006  12.2006  12.2452  12.2452  12.2452  12.2452
    12.5007  12.5007  12.5007  12.5007  12.6247  12.6247  12.6247  12.6247
    12.7791  12.7791  12.7791  12.7791  12.7791  12.7791  12.7791  12.7791
    12.8132  12.8132  12.8132  12.8132  12.8132  12.8132  12.8132  12.8132
    12.8619  12.8619  12.8619  12.8619  13.0858  13.0858  13.0858  13.0858
    13.2740  13.2740  13.2741  13.2741  13.3639  13.3639  13.3639  13.3639
    13.3639  13.3639  13.3639  13.3639  13.5329  13.5329  13.5329  13.5329
    13.6522  13.6522  13.6522  13.6522  13.8498  13.8498  13.8498  13.8498
    14.0076  14.0076  14.0076  14.0076  14.0076  14.0076  14.0076  14.0077
    14.2698  14.2698  14.2698  14.2698  14.3344  14.3344  14.3344  14.3344
    14.3344  14.3344  14.3344  14.3344  14.3428  14.3428  14.3429  14.3429
    15.2973  15.2973  15.2973  15.2973  17.5926  17.5926  17.5926  17.5926
    17.5926  17.5926  17.5926  17.5926  17.7386  17.7386  17.7386  17.7386
    18.6496  18.6496  18.6496  18.6496  18.6496  18.6496  18.6496  18.6496
    20.8281  20.8281  20.8281  20.8281  20.8281  20.8281  20.8281  20.8281
    21.0074  21.0074  21.0074  21.0074  22.9451  22.9451  22.9451  22.9451
    23.3200  23.3200  23.3200  23.3200  23.3200  23.3200  23.3200  23.3200
    24.4190  24.4190

          k =-0.5000-0.5000 0.3111 ( 41208 PWs)   bands (ev):

   -69.8122 -69.8122 -69.8122 -69.8121 -69.7894 -69.7894 -69.7894 -69.7894
   -69.7845 -69.7845 -69.7845 -69.7845 -69.7845 -69.7845 -69.7845 -69.7845
   -69.2516 -69.2516 -69.2516 -69.2516 -69.2516 -69.2516 -69.2516 -69.2516
   -69.2357 -69.2356 -69.2356 -69.2356 -69.2356 -69.2356 -69.2356 -69.2356
   -35.6384 -35.6384 -35.6384 -35.6384 -35.6384 -35.6384 -35.6384 -35.6384
   -35.6214 -35.6214 -35.6214 -35.6214 -35.5741 -35.5741 -35.5741 -35.5741
   -35.5114 -35.5114 -35.5114 -35.5114 -35.5114 -35.5114 -35.5114 -35.5114
   -35.4736 -35.4736 -35.4736 -35.4736 -35.4710 -35.4710 -35.4710 -35.4710
   -35.4710 -35.4710 -35.4710 -35.4710 -35.4470 -35.4470 -35.4469 -35.4469
   -35.4308 -35.4308 -35.4308 -35.4308 -35.3811 -35.3811 -35.3811 -35.3811
   -35.1176 -35.1176 -35.1176 -35.1176 -35.1176 -35.1176 -35.1176 -35.1176
   -35.0344 -35.0344 -35.0344 -35.0344 -35.0319 -35.0319 -35.0319 -35.0319
   -35.0197 -35.0197 -35.0197 -35.0197 -35.0197 -35.0197 -35.0197 -35.0197
   -34.9314 -34.9314 -34.9314 -34.9314 -34.9312 -34.9312 -34.9312 -34.9312
   -34.8638 -34.8637 -34.8637 -34.8637 -34.8627 -34.8627 -34.8627 -34.8627
   -34.8514 -34.8514 -34.8514 -34.8514 -34.8514 -34.8514 -34.8514 -34.8514
     9.1116   9.1116   9.1116   9.1116   9.7189   9.7189   9.7189   9.7189
    10.0634  10.0634  10.0634  10.0634  10.0634  10.0634  10.0634  10.0634
    10.1603  10.1603  10.1603  10.1603  10.2272  10.2272  10.2272  10.2272
    10.2272  10.2272  10.2272  10.2272  10.3466  10.3466  10.3466  10.3466
    10.6101  10.6101  10.6101  10.6101  10.9409  10.9409  10.9409  10.9409
    10.9409  10.9409  10.9409  10.9409  11.2323  11.2323  11.2323  11.2323
    11.2323  11.2323  11.2323  11.2323  11.4016  11.4016  11.4016  11.4016
    11.6219  11.6219  11.6219  11.6219  11.8718  11.8718  11.8718  11.8718
    11.9528  11.9528  11.9528  11.9528  12.0142  12.0142  12.0142  12.0142
    12.0979  12.0979  12.0979  12.0979  12.2003  12.2003  12.2003  12.2003
    12.2003  12.2003  12.2003  12.2003  12.2445  12.2445  12.2445  12.2445
    12.4843  12.4843  12.4843  12.4843  12.6444  12.6444  12.6444  12.6444
    12.7827  12.7827  12.7827  12.7827  12.7828  12.7828  12.7828  12.7828
    12.8295  12.8295  12.8296  12.8296  12.8296  12.8296  12.8296  12.8296
    12.8641  12.8641  12.8641  12.8641  13.0859  13.0859  13.0859  13.0859
    13.2135  13.2135  13.2135  13.2135  13.3126  13.3126  13.3126  13.3126
    13.3126  13.3126  13.3126  13.3126  13.4587  13.4587  13.4587  13.4587
    13.6529  13.6529  13.6529  13.6529  13.8444  13.8444  13.8445  13.8445
    14.0349  14.0349  14.0349  14.0349  14.0349  14.0349  14.0349  14.0349
    14.2730  14.2730  14.2730  14.2730  14.3400  14.3400  14.3400  14.3400
    14.3400  14.3400  14.3400  14.3400  14.3428  14.3428  14.3428  14.3428
    15.7025  15.7025  15.7025  15.7025  17.2009  17.2009  17.2009  17.2009
    17.6294  17.6294  17.6294  17.6294  17.6295  17.6295  17.6295  17.6295
    18.5627  18.5627  18.5627  18.5627  18.5627  18.5627  18.5627  18.5627
    21.0018  21.0018  21.0018  21.0018  21.0018  21.0018  21.0018  21.0018
    21.4901  21.4901  21.4901  21.4901  23.0056  23.0056  23.0056  23.0056
    23.0056  23.0056  23.0056  23.0056  23.0105  23.0105  23.0105  23.0105
    24.2781  24.2781

          k =-0.5000-0.5000-0.4000 ( 41160 PWs)   bands (ev):

   -69.8122 -69.8122 -69.8122 -69.8121 -69.7894 -69.7894 -69.7894 -69.7894
   -69.7845 -69.7845 -69.7845 -69.7845 -69.7845 -69.7845 -69.7845 -69.7845
   -69.2516 -69.2516 -69.2516 -69.2516 -69.2516 -69.2516 -69.2516 -69.2516
   -69.2357 -69.2356 -69.2356 -69.2356 -69.2356 -69.2356 -69.2356 -69.2356
   -35.6384 -35.6383 -35.6383 -35.6383 -35.6383 -35.6383 -35.6383 -35.6383
   -35.6214 -35.6214 -35.6214 -35.6214 -35.5740 -35.5740 -35.5740 -35.5740
   -35.5114 -35.5114 -35.5114 -35.5114 -35.5114 -35.5114 -35.5114 -35.5114
   -35.4737 -35.4737 -35.4737 -35.4737 -35.4710 -35.4710 -35.4710 -35.4710
   -35.4710 -35.4710 -35.4710 -35.4710 -35.4469 -35.4469 -35.4469 -35.4469
   -35.4308 -35.4308 -35.4308 -35.4308 -35.3811 -35.3811 -35.3811 -35.3811
   -35.1176 -35.1176 -35.1176 -35.1176 -35.1175 -35.1175 -35.1175 -35.1175
   -35.0345 -35.0345 -35.0345 -35.0345 -35.0319 -35.0319 -35.0319 -35.0319
   -35.0197 -35.0197 -35.0197 -35.0197 -35.0197 -35.0197 -35.0197 -35.0197
   -34.9314 -34.9314 -34.9314 -34.9314 -34.9312 -34.9312 -34.9312 -34.9312
   -34.8638 -34.8638 -34.8638 -34.8638 -34.8626 -34.8626 -34.8626 -34.8626
   -34.8514 -34.8514 -34.8514 -34.8514 -34.8514 -34.8514 -34.8514 -34.8514
     9.1133   9.1133   9.1133   9.1133   9.7164   9.7164   9.7164   9.7164
    10.0633  10.0633  10.0633  10.0633  10.0633  10.0633  10.0633  10.0633
    10.1569  10.1569  10.1569  10.1569  10.2266  10.2266  10.2266  10.2266
    10.2266  10.2266  10.2266  10.2266  10.3518  10.3518  10.3518  10.3518
    10.6087  10.6087  10.6087  10.6087  10.9439  10.9439  10.9439  10.9439
    10.9439  10.9439  10.9439  10.9439  11.2305  11.2305  11.2305  11.2305
    11.2305  11.2305  11.2305  11.2305  11.4030  11.4030  11.4030  11.4030
    11.6221  11.6221  11.6221  11.6221  11.8719  11.8719  11.8719  11.8719
    11.9514  11.9514  11.9514  11.9514  12.0142  12.0142  12.0142  12.0142
    12.1090  12.1090  12.1090  12.1090  12.2002  12.2002  12.2002  12.2002
    12.2002  12.2002  12.2002  12.2002  12.2442  12.2442  12.2442  12.2442
    12.4766  12.4766  12.4766  12.4766  12.6538  12.6538  12.6538  12.6538
    12.7837  12.7837  12.7837  12.7837  12.7837  12.7837  12.7837  12.7837
    12.8374  12.8374  12.8374  12.8374  12.8374  12.8374  12.8374  12.8374
    12.8649  12.8649  12.8649  12.8649  13.0860  13.0860  13.0860  13.0860
    13.1826  13.1826  13.1826  13.1826  13.2923  13.2923  13.2923  13.2923
    13.2923  13.2923  13.2923  13.2923  13.4406  13.4406  13.4406  13.4406
    13.6532  13.6532  13.6532  13.6532  13.8423  13.8423  13.8423  13.8423
    14.0447  14.0447  14.0447  14.0447  14.0447  14.0447  14.0447  14.0447
    14.2743  14.2743  14.2743  14.2743  14.3424  14.3424  14.3424  14.3424
    14.3424  14.3424  14.3424  14.3424  14.3428  14.3428  14.3428  14.3428
    15.9335  15.9335  15.9335  15.9335  16.9263  16.9263  16.9263  16.9263
    17.6455  17.6455  17.6455  17.6455  17.6455  17.6455  17.6455  17.6455
    18.5281  18.5281  18.5281  18.5281  18.5281  18.5281  18.5281  18.5281
    21.0785  21.0785  21.0785  21.0785  21.0785  21.0785  21.0785  21.0785
    21.6833  21.6833  21.6833  21.6833  22.8823  22.8823  22.8823  22.8823
    22.8823  22.8823  22.8823  22.8823  23.0391  23.0391  23.0391  23.0391
    24.2393  24.2393

     the Fermi energy is    14.3493 ev

!    total energy              =  -16384.14382543 Ry

     total all-electron energy =   -322944.997533 Ry
     estimated scf accuracy    <       0.00000074 Ry
     smearing contrib. (-TS)   =       0.11703515 Ry
     internal energy E=F+TS    =  -16384.26086058 Ry

     The total energy is F=E-TS. E is the sum of the following terms:
     one-electron contribution =   -5292.00362529 Ry
     hartree contribution      =    2964.19517330 Ry
     xc contribution           =    -985.27674772 Ry
     ewald contribution        =   -4903.84487837 Ry
     one-center paw contrib.   =   -8167.33078250 Ry

     convergence has been achieved in  19 iterations

     Forces acting on atoms (cartesian axes, Ry/au):

     atom    1 type  1   force =     0.00000000    0.00000000    0.00402005
     atom    2 type  1   force =    -0.00000146   -0.00000146    0.00403454
     atom    3 type  1   force =    -0.00000236    0.00000000    0.00667003
     atom    4 type  1   force =     0.00000000   -0.00000236    0.00667003
     atom    5 type  1   force =     0.00000000    0.00000000   -0.00671849
     atom    6 type  1   force =    -0.00002456   -0.00002456   -0.00671378
     atom    7 type  1   force =     0.00000183    0.00000000   -0.00401086
     atom    8 type  1   force =     0.00000000    0.00000183   -0.00401086
     atom    9 type  1   force =     0.00000000    0.00000000    0.00403673
     atom   10 type  1   force =    -0.00000146    0.00000146    0.00403454
     atom   11 type  1   force =     0.00001073    0.00000000    0.00665918
     atom   12 type  1   force =     0.00000000    0.00000236    0.00667003
     atom   13 type  1   force =     0.00000000    0.00000000   -0.00669960
     atom   14 type  1   force =    -0.00002456    0.00002456   -0.00671378
     atom   15 type  1   force =    -0.00000660    0.00000000   -0.00396860
     atom   16 type  1   force =     0.00000000   -0.00000183   -0.00401086
     atom   17 type  1   force =     0.00000000    0.00000000    0.00403673
     atom   18 type  1   force =     0.00000146   -0.00000146    0.00403454
     atom   19 type  1   force =     0.00000236    0.00000000    0.00667003
     atom   20 type  1   force =     0.00000000    0.00001073    0.00665918
     atom   21 type  1   force =     0.00000000    0.00000000   -0.00669960
     atom   22 type  1   force =     0.00002456   -0.00002456   -0.00671378
     atom   23 type  1   force =    -0.00000183    0.00000000   -0.00401086
     atom   24 type  1   force =     0.00000000   -0.00000660   -0.00396860
     atom   25 type  1   force =     0.00000000    0.00000000    0.00404537
     atom   26 type  1   force =     0.00000146    0.00000146    0.00403454
     atom   27 type  1   force =    -0.00001073    0.00000000    0.00665918
     atom   28 type  1   force =     0.00000000   -0.00001073    0.00665918
     atom   29 type  1   force =     0.00000000    0.00000000   -0.00670322
     atom   30 type  1   force =     0.00002456    0.00002456   -0.00671378
     atom   31 type  1   force =     0.00000660    0.00000000   -0.00396860
     atom   32 type  1   force =     0.00000000    0.00000660   -0.00396860

     Total force =     0.031194     Total SCF correction =     0.003151
     SCF correction compared to forces is large: reduce conv_thr to get better values


     Computing stress (Cartesian axis) and pressure

          total   stress  (Ry/bohr**3)                   (kbar)     P=      -50.94
  -0.00036926   0.00000000   0.00000000          -54.32        0.00        0.00
   0.00000000  -0.00036926   0.00000000            0.00      -54.32        0.00
   0.00000000   0.00000000  -0.00030033            0.00        0.00      -44.18


     Writing output data file /scratch/waOFjOavJyNzVuIx.save/
 
     init_run     :     24.83s CPU     25.39s WALL (       1 calls)
     electrons    :   1540.11s CPU   1555.81s WALL (       1 calls)
     forces       :     14.04s CPU     14.15s WALL (       1 calls)
     stress       :    116.12s CPU    116.88s WALL (       1 calls)

     Called by init_run:
     wfcinit      :     24.33s CPU     24.82s WALL (       1 calls)
     potinit      :      0.16s CPU      0.17s WALL (       1 calls)
     hinit0       :      0.10s CPU      0.10s WALL (       1 calls)

     Called by electrons:
     c_bands      :   1353.13s CPU   1365.41s WALL (      20 calls)
     sum_band     :    184.39s CPU    187.37s WALL (      20 calls)
     v_of_rho     :      0.31s CPU      0.33s WALL (      20 calls)
     newd         :      0.56s CPU      0.85s WALL (      20 calls)
     PAW_pot      :      1.62s CPU      1.73s WALL (      20 calls)
     mix_rho      :      0.11s CPU      0.13s WALL (      20 calls)

     Called by c_bands:
     init_us_2    :      8.83s CPU      8.93s WALL (    3225 calls)
     cegterg      :   1322.23s CPU   1333.68s WALL (    1500 calls)

     Called by *egterg:
     cdiaghg      :    140.81s CPU    141.36s WALL (    5620 calls)
     h_psi        :    688.21s CPU    696.74s WALL (    5770 calls)
     s_psi        :     65.34s CPU     65.68s WALL (    5770 calls)
     g_psi        :      1.69s CPU      1.72s WALL (    4195 calls)

     Called by h_psi:
     h_psi:calbec :    109.28s CPU    109.86s WALL (    5770 calls)
     vloc_psi     :    508.93s CPU    516.39s WALL (    5770 calls)
     add_vuspsi   :     65.12s CPU     65.52s WALL (    5770 calls)

     General routines
     calbec       :    177.79s CPU    178.74s WALL (    7645 calls)
     fft          :      0.32s CPU      0.36s WALL (     284 calls)
     ffts         :      0.03s CPU      0.03s WALL (      40 calls)
     fftw         :    607.41s CPU    616.30s WALL ( 2737494 calls)
     interpolate  :      0.05s CPU      0.06s WALL (      20 calls)
 
     Parallel routines
     fft_scatt_xy :     47.83s CPU     48.56s WALL ( 2737818 calls)
     fft_scatt_yz :    475.06s CPU    482.02s WALL ( 2737818 calls)
 
     PWSCF        :  28m33.99s CPU  28m55.81s WALL

 
   This run was terminated on:  23:43:12   6Jan2022            

=------------------------------------------------------------------------------=
   JOB DONE.
=------------------------------------------------------------------------------=
