
     Program PWSCF v.6.7MaX starts on  7Jan2022 at  2: 2: 7 

     This program is part of the open-source Quantum ESPRESSO suite
     for quantum simulation of materials; please cite
         "P. Giannozzi et al., J. Phys.:Condens. Matter 21 395502 (2009);
         "P. Giannozzi et al., J. Phys.:Condens. Matter 29 465901 (2017);
          URL http://www.quantum-espresso.org", 
     in publications or presentations arising from this work. More details at
     http://www.quantum-espresso.org/quote

     Parallel version (MPI & OpenMP), running on      72 processor cores
     Number of MPI processes:                72
     Threads/MPI process:                     1

     MPI processes distributed on     1 nodes
     R & G space division:  proc/nbgrp/npool/nimage =      72
     Reading input from scf_14.in
Warning: card &CELL ignored
Warning: card CELL_DYNAMICS = 'BFGS', ignored
Warning: card CELL_FACTOR = 2.0, ignored
Warning: card PRESS = 0.0, ignored
Warning: card / ignored

     Current dimensions of program PWSCF are:
     Max number of different atomic species (ntypx) = 10
     Max number of k-points (npk) =  40000
     Max angular momentum in pseudopotentials (lmaxx) =  3
     file Pd.pbe-spn-kjpaw_psl.1.0.0.UPF: wavefunction(s)  4S 5S 4D renormalized

     Subspace diagonalization in iterative solution of the eigenvalue problem:
     one sub-group per band group will be used
     ELPA distributed-memory algorithm (size of sub-group:  8*  8 procs)

     Found symmetry operation: I + (  0.2500  0.2500  0.0000)
     This is a supercell, fractional translations are disabled
     Message from routine setup:
     using ibrav=0 with symmetry is DISCOURAGED, use correct ibrav instead
 
     Parallelization info
     --------------------
     sticks:   dense  smooth     PW     G-vecs:    dense   smooth      PW
     Min         104      68     18                 9606     5150     722
     Max         105      69     19                 9617     5163     731
     Sum        7521    4957   1353               692009   371411   52267
 


     bravais-lattice index     =            0
     lattice parameter (alat)  =      14.8394  a.u.
     unit-cell volume          =    4595.2941 (a.u.)^3
     number of atoms/cell      =           32
     number of atomic types    =            1
     number of electrons       =       576.00
     number of Kohn-Sham states=          346
     kinetic-energy cutoff     =      71.0000  Ry
     charge density cutoff     =     430.0000  Ry
     scf convergence threshold =      1.0E-06
     mixing beta               =       0.1000
     number of iterations used =           10  TF        mixing
     Exchange-correlation= SLA  PW   PBX  PBC
                           (   1   4   3   4   0   0   0)

     celldm(1)=  14.839420  celldm(2)=   0.000000  celldm(3)=   0.000000
     celldm(4)=   0.000000  celldm(5)=   0.000000  celldm(6)=   0.000000

     crystal axes: (cart. coord. in units of alat)
               a(1) = (   1.000000   0.000000   0.000000 )  
               a(2) = (   0.000000   1.000000   0.000000 )  
               a(3) = (   0.000000   0.000000   1.406250 )  

     reciprocal axes: (cart. coord. in units 2 pi/alat)
               b(1) = (  1.000000  0.000000  0.000000 )  
               b(2) = (  0.000000  1.000000  0.000000 )  
               b(3) = (  0.000000  0.000000  0.711111 )  


     PseudoPot. # 1 for Pd read from file:
     /rds/homes/b/bxp912/pp/Pd.pbe-spn-kjpaw_psl.1.0.0.UPF
     MD5 check sum: 790f2ebce206edfd9790dcb9844eca51
     Pseudo is Projector augmented-wave + core cor, Zval = 18.0
     Generated using &quot;atomic&quot; code by A. Dal Corso  v.6.3
     Shape of augmentation charge: PSQ
     Using radial grid of 1235 points,  6 beta functions with: 
                l(1) =   0
                l(2) =   0
                l(3) =   1
                l(4) =   1
                l(5) =   2
                l(6) =   2
     Q(r) pseudized with 0 coefficients 


     atomic species   valence    mass     pseudopotential
        Pd            18.00   106.42000     Pd( 1.00)

      8 Sym. Ops. (no inversion) found



   Cartesian axes

     site n.     atom                  positions (alat units)
         1           Pd  tau(   1) = (   0.0000000   0.0000000   0.0000000  )
         2           Pd  tau(   2) = (   0.2500000   0.2500000   0.0000000  )
         3           Pd  tau(   3) = (   0.2500000   0.0000000   0.2500000  )
         4           Pd  tau(   4) = (   0.0000000   0.2500000   0.2500000  )
         5           Pd  tau(   5) = (   0.0000000   0.0000000   0.9062500  )
         6           Pd  tau(   6) = (   0.2500000   0.2500000   0.9062500  )
         7           Pd  tau(   7) = (   0.2500000   0.0000000   1.1562500  )
         8           Pd  tau(   8) = (   0.0000000   0.2500000   1.1562500  )
         9           Pd  tau(   9) = (   0.0000000   0.5000000   0.0000000  )
        10           Pd  tau(  10) = (   0.2500000   0.7500000   0.0000000  )
        11           Pd  tau(  11) = (   0.2500000   0.5000000   0.2500000  )
        12           Pd  tau(  12) = (   0.0000000   0.7500000   0.2500000  )
        13           Pd  tau(  13) = (   0.0000000   0.5000000   0.9062500  )
        14           Pd  tau(  14) = (   0.2500000   0.7500000   0.9062500  )
        15           Pd  tau(  15) = (   0.2500000   0.5000000   1.1562500  )
        16           Pd  tau(  16) = (   0.0000000   0.7500000   1.1562500  )
        17           Pd  tau(  17) = (   0.5000000   0.0000000   0.0000000  )
        18           Pd  tau(  18) = (   0.7500000   0.2500000   0.0000000  )
        19           Pd  tau(  19) = (   0.7500000   0.0000000   0.2500000  )
        20           Pd  tau(  20) = (   0.5000000   0.2500000   0.2500000  )
        21           Pd  tau(  21) = (   0.5000000   0.0000000   0.9062500  )
        22           Pd  tau(  22) = (   0.7500000   0.2500000   0.9062500  )
        23           Pd  tau(  23) = (   0.7500000   0.0000000   1.1562500  )
        24           Pd  tau(  24) = (   0.5000000   0.2500000   1.1562500  )
        25           Pd  tau(  25) = (   0.5000000   0.5000000   0.0000000  )
        26           Pd  tau(  26) = (   0.7500000   0.7500000   0.0000000  )
        27           Pd  tau(  27) = (   0.7500000   0.5000000   0.2500000  )
        28           Pd  tau(  28) = (   0.5000000   0.7500000   0.2500000  )
        29           Pd  tau(  29) = (   0.5000000   0.5000000   0.9062500  )
        30           Pd  tau(  30) = (   0.7500000   0.7500000   0.9062500  )
        31           Pd  tau(  31) = (   0.7500000   0.5000000   1.1562500  )
        32           Pd  tau(  32) = (   0.5000000   0.7500000   1.1562500  )

     number of k points=    75  Marzari-Vanderbilt smearing, width (Ry)=  0.0400
                       cart. coord. in units 2pi/alat
        k(    1) = (   0.0555556   0.0555556   0.0395062), wk =   0.0219479
        k(    2) = (   0.0555556   0.0555556   0.1185185), wk =   0.0219479
        k(    3) = (   0.0555556   0.0555556   0.1975309), wk =   0.0219479
        k(    4) = (   0.0555556   0.0555556   0.2765432), wk =   0.0219479
        k(    5) = (   0.0555556   0.0555556  -0.3555556), wk =   0.0109739
        k(    6) = (   0.0555556   0.1666667   0.0395062), wk =   0.0438957
        k(    7) = (   0.0555556   0.1666667   0.1185185), wk =   0.0438957
        k(    8) = (   0.0555556   0.1666667   0.1975309), wk =   0.0438957
        k(    9) = (   0.0555556   0.1666667   0.2765432), wk =   0.0438957
        k(   10) = (   0.0555556   0.1666667  -0.3555556), wk =   0.0219479
        k(   11) = (   0.0555556   0.2777778   0.0395062), wk =   0.0438957
        k(   12) = (   0.0555556   0.2777778   0.1185185), wk =   0.0438957
        k(   13) = (   0.0555556   0.2777778   0.1975309), wk =   0.0438957
        k(   14) = (   0.0555556   0.2777778   0.2765432), wk =   0.0438957
        k(   15) = (   0.0555556   0.2777778  -0.3555556), wk =   0.0219479
        k(   16) = (   0.0555556   0.3888889   0.0395062), wk =   0.0438957
        k(   17) = (   0.0555556   0.3888889   0.1185185), wk =   0.0438957
        k(   18) = (   0.0555556   0.3888889   0.1975309), wk =   0.0438957
        k(   19) = (   0.0555556   0.3888889   0.2765432), wk =   0.0438957
        k(   20) = (   0.0555556   0.3888889  -0.3555556), wk =   0.0219479
        k(   21) = (   0.0555556  -0.5000000   0.0395062), wk =   0.0219479
        k(   22) = (   0.0555556  -0.5000000   0.1185185), wk =   0.0219479
        k(   23) = (   0.0555556  -0.5000000   0.1975309), wk =   0.0219479
        k(   24) = (   0.0555556  -0.5000000   0.2765432), wk =   0.0219479
        k(   25) = (   0.0555556  -0.5000000  -0.3555556), wk =   0.0109739
        k(   26) = (   0.1666667   0.1666667   0.0395062), wk =   0.0219479
        k(   27) = (   0.1666667   0.1666667   0.1185185), wk =   0.0219479
        k(   28) = (   0.1666667   0.1666667   0.1975309), wk =   0.0219479
        k(   29) = (   0.1666667   0.1666667   0.2765432), wk =   0.0219479
        k(   30) = (   0.1666667   0.1666667  -0.3555556), wk =   0.0109739
        k(   31) = (   0.1666667   0.2777778   0.0395062), wk =   0.0438957
        k(   32) = (   0.1666667   0.2777778   0.1185185), wk =   0.0438957
        k(   33) = (   0.1666667   0.2777778   0.1975309), wk =   0.0438957
        k(   34) = (   0.1666667   0.2777778   0.2765432), wk =   0.0438957
        k(   35) = (   0.1666667   0.2777778  -0.3555556), wk =   0.0219479
        k(   36) = (   0.1666667   0.3888889   0.0395062), wk =   0.0438957
        k(   37) = (   0.1666667   0.3888889   0.1185185), wk =   0.0438957
        k(   38) = (   0.1666667   0.3888889   0.1975309), wk =   0.0438957
        k(   39) = (   0.1666667   0.3888889   0.2765432), wk =   0.0438957
        k(   40) = (   0.1666667   0.3888889  -0.3555556), wk =   0.0219479
        k(   41) = (   0.1666667  -0.5000000   0.0395062), wk =   0.0219479
        k(   42) = (   0.1666667  -0.5000000   0.1185185), wk =   0.0219479
        k(   43) = (   0.1666667  -0.5000000   0.1975309), wk =   0.0219479
        k(   44) = (   0.1666667  -0.5000000   0.2765432), wk =   0.0219479
        k(   45) = (   0.1666667  -0.5000000  -0.3555556), wk =   0.0109739
        k(   46) = (   0.2777778   0.2777778   0.0395062), wk =   0.0219479
        k(   47) = (   0.2777778   0.2777778   0.1185185), wk =   0.0219479
        k(   48) = (   0.2777778   0.2777778   0.1975309), wk =   0.0219479
        k(   49) = (   0.2777778   0.2777778   0.2765432), wk =   0.0219479
        k(   50) = (   0.2777778   0.2777778  -0.3555556), wk =   0.0109739
        k(   51) = (   0.2777778   0.3888889   0.0395062), wk =   0.0438957
        k(   52) = (   0.2777778   0.3888889   0.1185185), wk =   0.0438957
        k(   53) = (   0.2777778   0.3888889   0.1975309), wk =   0.0438957
        k(   54) = (   0.2777778   0.3888889   0.2765432), wk =   0.0438957
        k(   55) = (   0.2777778   0.3888889  -0.3555556), wk =   0.0219479
        k(   56) = (   0.2777778  -0.5000000   0.0395062), wk =   0.0219479
        k(   57) = (   0.2777778  -0.5000000   0.1185185), wk =   0.0219479
        k(   58) = (   0.2777778  -0.5000000   0.1975309), wk =   0.0219479
        k(   59) = (   0.2777778  -0.5000000   0.2765432), wk =   0.0219479
        k(   60) = (   0.2777778  -0.5000000  -0.3555556), wk =   0.0109739
        k(   61) = (   0.3888889   0.3888889   0.0395062), wk =   0.0219479
        k(   62) = (   0.3888889   0.3888889   0.1185185), wk =   0.0219479
        k(   63) = (   0.3888889   0.3888889   0.1975309), wk =   0.0219479
        k(   64) = (   0.3888889   0.3888889   0.2765432), wk =   0.0219479
        k(   65) = (   0.3888889   0.3888889  -0.3555556), wk =   0.0109739
        k(   66) = (   0.3888889  -0.5000000   0.0395062), wk =   0.0219479
        k(   67) = (   0.3888889  -0.5000000   0.1185185), wk =   0.0219479
        k(   68) = (   0.3888889  -0.5000000   0.1975309), wk =   0.0219479
        k(   69) = (   0.3888889  -0.5000000   0.2765432), wk =   0.0219479
        k(   70) = (   0.3888889  -0.5000000  -0.3555556), wk =   0.0109739
        k(   71) = (  -0.5000000  -0.5000000   0.0395062), wk =   0.0054870
        k(   72) = (  -0.5000000  -0.5000000   0.1185185), wk =   0.0054870
        k(   73) = (  -0.5000000  -0.5000000   0.1975309), wk =   0.0054870
        k(   74) = (  -0.5000000  -0.5000000   0.2765432), wk =   0.0054870
        k(   75) = (  -0.5000000  -0.5000000  -0.3555556), wk =   0.0027435

     Dense  grid:   692009 G-vectors     FFT dimensions: ( 100, 100, 144)

     Smooth grid:   371411 G-vectors     FFT dimensions: (  80,  80, 120)

     Estimated max dynamical RAM per process >     312.90 MB

     Estimated total dynamical RAM >      22.00 GB

     Check: negative core charge=   -0.000001

     Initial potential from superposition of free atoms

     starting charge  575.98776, renormalised to  576.00000
     Starting wfcs are  320 randomized atomic wfcs +   26 random wfcs
     Checking if some PAW data can be deallocated... 

     total cpu time spent up to now is       27.1 secs

     Self-consistent Calculation

     iteration #  1     ecut=    71.00 Ry     beta= 0.10
     Davidson diagonalization with overlap
     ethr =  1.00E-02,  avg # of iterations =  3.9

     Threshold (ethr) on eigenvalues was too large:
     Diagonalizing with lowered threshold

     Davidson diagonalization with overlap
     ethr =  7.42E-04,  avg # of iterations =  1.1

     total cpu time spent up to now is      193.6 secs

     total energy              =  -16384.81662542 Ry
     estimated scf accuracy    <       4.26771046 Ry

     iteration #  2     ecut=    71.00 Ry     beta= 0.10
     Davidson diagonalization with overlap
     ethr =  7.41E-04,  avg # of iterations =  1.1

     total cpu time spent up to now is      263.4 secs

     total energy              =  -16384.33699507 Ry
     estimated scf accuracy    <       3.85354311 Ry

     iteration #  3     ecut=    71.00 Ry     beta= 0.10
     Davidson diagonalization with overlap
     ethr =  6.69E-04,  avg # of iterations =  2.2

     total cpu time spent up to now is      338.9 secs

     total energy              =  -16384.14935541 Ry
     estimated scf accuracy    <       2.58640250 Ry

     iteration #  4     ecut=    71.00 Ry     beta= 0.10
     Davidson diagonalization with overlap
     ethr =  4.49E-04,  avg # of iterations =  3.9

     total cpu time spent up to now is      422.1 secs

     total energy              =  -16384.31730745 Ry
     estimated scf accuracy    <       0.75729202 Ry

     iteration #  5     ecut=    71.00 Ry     beta= 0.10
     Davidson diagonalization with overlap
     ethr =  1.31E-04,  avg # of iterations =  3.1

     total cpu time spent up to now is      502.6 secs

     total energy              =  -16384.01546574 Ry
     estimated scf accuracy    <       1.01234178 Ry

     iteration #  6     ecut=    71.00 Ry     beta= 0.10
     Davidson diagonalization with overlap
     ethr =  1.31E-04,  avg # of iterations =  6.2

     total cpu time spent up to now is      596.4 secs

     total energy              =  -16384.04838667 Ry
     estimated scf accuracy    <       0.21919277 Ry

     iteration #  7     ecut=    71.00 Ry     beta= 0.10
     Davidson diagonalization with overlap
     c_bands:  1 eigenvalues not converged
     ethr =  3.81E-05,  avg # of iterations =  7.9

     total cpu time spent up to now is      698.5 secs

     total energy              =  -16384.04104810 Ry
     estimated scf accuracy    <       0.14324642 Ry

     iteration #  8     ecut=    71.00 Ry     beta= 0.10
     Davidson diagonalization with overlap
     ethr =  2.49E-05,  avg # of iterations =  2.2

     total cpu time spent up to now is      792.3 secs

     total energy              =  -16384.03182928 Ry
     estimated scf accuracy    <       0.08044633 Ry

     iteration #  9     ecut=    71.00 Ry     beta= 0.10
     Davidson diagonalization with overlap
     ethr =  1.40E-05,  avg # of iterations =  5.2

     total cpu time spent up to now is      880.5 secs

     total energy              =  -16384.04201003 Ry
     estimated scf accuracy    <       0.03167227 Ry

     iteration # 10     ecut=    71.00 Ry     beta= 0.10
     Davidson diagonalization with overlap
     ethr =  5.50E-06,  avg # of iterations =  1.7

     total cpu time spent up to now is      955.6 secs

     total energy              =  -16384.04627946 Ry
     estimated scf accuracy    <       0.02438092 Ry

     iteration # 11     ecut=    71.00 Ry     beta= 0.10
     Davidson diagonalization with overlap
     ethr =  4.23E-06,  avg # of iterations =  2.9

     total cpu time spent up to now is     1040.3 secs

     total energy              =  -16384.05235834 Ry
     estimated scf accuracy    <       0.01082039 Ry

     iteration # 12     ecut=    71.00 Ry     beta= 0.10
     Davidson diagonalization with overlap
     ethr =  1.88E-06,  avg # of iterations =  5.2

     total cpu time spent up to now is     1133.6 secs

     total energy              =  -16384.05448636 Ry
     estimated scf accuracy    <       0.00432646 Ry

     iteration # 13     ecut=    71.00 Ry     beta= 0.10
     Davidson diagonalization with overlap
     ethr =  7.51E-07,  avg # of iterations =  2.6

     total cpu time spent up to now is     1224.3 secs

     total energy              =  -16384.05636089 Ry
     estimated scf accuracy    <       0.00655332 Ry

     iteration # 14     ecut=    71.00 Ry     beta= 0.10
     Davidson diagonalization with overlap
     ethr =  7.51E-07,  avg # of iterations =  4.5

     total cpu time spent up to now is     1314.0 secs

     total energy              =  -16384.05851050 Ry
     estimated scf accuracy    <       0.00155967 Ry

     iteration # 15     ecut=    71.00 Ry     beta= 0.10
     Davidson diagonalization with overlap
     ethr =  2.71E-07,  avg # of iterations =  2.5

     total cpu time spent up to now is     1403.0 secs

     total energy              =  -16384.05932068 Ry
     estimated scf accuracy    <       0.00049684 Ry

     iteration # 16     ecut=    71.00 Ry     beta= 0.10
     Davidson diagonalization with overlap
     ethr =  8.63E-08,  avg # of iterations =  2.7

     total cpu time spent up to now is     1490.3 secs

     total energy              =  -16384.05986148 Ry
     estimated scf accuracy    <       0.00020358 Ry

     iteration # 17     ecut=    71.00 Ry     beta= 0.10
     Davidson diagonalization with overlap
     ethr =  3.53E-08,  avg # of iterations =  3.3

     total cpu time spent up to now is     1582.2 secs

     total energy              =  -16384.05996632 Ry
     estimated scf accuracy    <       0.00019713 Ry

     iteration # 18     ecut=    71.00 Ry     beta= 0.10
     Davidson diagonalization with overlap
     ethr =  3.42E-08,  avg # of iterations =  2.4

     total cpu time spent up to now is     1672.2 secs

     total energy              =  -16384.06003716 Ry
     estimated scf accuracy    <       0.00003628 Ry

     iteration # 19     ecut=    71.00 Ry     beta= 0.10
     Davidson diagonalization with overlap
     ethr =  6.30E-09,  avg # of iterations =  2.0

     total cpu time spent up to now is     1753.4 secs

     total energy              =  -16384.06005347 Ry
     estimated scf accuracy    <       0.00001163 Ry

     iteration # 20     ecut=    71.00 Ry     beta= 0.10
     Davidson diagonalization with overlap
     ethr =  2.02E-09,  avg # of iterations =  2.0

     total cpu time spent up to now is     1833.8 secs

     total energy              =  -16384.06007613 Ry
     estimated scf accuracy    <       0.00000872 Ry

     iteration # 21     ecut=    71.00 Ry     beta= 0.10
     Davidson diagonalization with overlap
     ethr =  1.51E-09,  avg # of iterations =  2.0

     total cpu time spent up to now is     1920.7 secs

     total energy              =  -16384.06008522 Ry
     estimated scf accuracy    <       0.00000267 Ry

     iteration # 22     ecut=    71.00 Ry     beta= 0.10
     Davidson diagonalization with overlap
     ethr =  4.63E-10,  avg # of iterations =  2.4

     total cpu time spent up to now is     2015.7 secs

     End of self-consistent calculation

          k = 0.0556 0.0556 0.0395 ( 46422 PWs)   bands (ev):

   -71.9476 -71.9254 -71.9254 -71.9212 -71.9212 -71.9166 -71.9156 -71.9150
   -71.9150 -71.9138 -71.9080 -71.9080 -71.9065 -71.9065 -71.8993 -71.8993
   -71.3581 -71.3581 -71.3437 -71.3437 -71.3437 -71.3437 -71.3425 -71.3425
   -71.3422 -71.3421 -71.3409 -71.3409 -71.3409 -71.3409 -71.3264 -71.3263
   -37.7822 -37.7821 -37.7818 -37.7809 -37.7685 -37.7685 -37.7613 -37.7272
   -37.7272 -37.7243 -37.7243 -37.6873 -37.6873 -37.6762 -37.6762 -37.6670
   -37.6670 -37.6640 -37.6640 -37.6550 -37.6550 -37.6259 -37.6259 -37.6194
   -37.6194 -37.6192 -37.6147 -37.6147 -37.6094 -37.6050 -37.6050 -37.5910
   -37.5881 -37.5881 -37.5737 -37.5737 -37.5708 -37.5698 -37.5595 -37.5595
   -37.5543 -37.5543 -37.5208 -37.5190 -37.5189 -37.5147 -37.5025 -37.5010
   -37.2314 -37.2314 -37.2307 -37.2297 -37.2198 -37.2198 -37.2178 -37.2178
   -37.1492 -37.1492 -37.1491 -37.1491 -37.1343 -37.1343 -37.1341 -37.1341
   -37.1320 -37.1319 -37.1316 -37.1316 -37.1167 -37.1167 -37.1166 -37.1166
   -37.0461 -37.0458 -37.0446 -37.0442 -37.0326 -37.0326 -37.0313 -37.0312
   -36.9623 -36.9589 -36.9477 -36.9477 -36.9473 -36.9473 -36.9463 -36.9460
   -36.9460 -36.9458 -36.9455 -36.9455 -36.9452 -36.9452 -36.9355 -36.9354
     5.8644   7.1611   7.3963   7.3963   7.4626   7.4688   7.4750   7.4750
     7.5346   7.5566   7.6709   7.6709   7.7589   7.7589   7.9425   7.9425
     8.0048   8.2111   8.3336   8.3336   8.3617   8.3617   8.3916   8.3916
     8.4124   8.4124   8.4835   8.4853   8.4853   8.4885   8.5012   8.5012
     8.6246   8.6246   8.6932   8.6932   8.7291   8.7291   8.8061   8.8061
     8.8157   8.8157   8.8798   8.8798   8.9414   9.0010   9.0010   9.0192
     9.0192   9.1629   9.1629   9.2303   9.2776   9.2776   9.3261   9.3261
     9.3389   9.3474   9.3474   9.3581   9.5374   9.5374   9.5384   9.5385
     9.5504   9.5611   9.7036   9.7036   9.7092   9.7112   9.7184   9.7185
     9.7514   9.7606   9.8163   9.8163   9.8505   9.8505  10.1969  10.1969
    10.2503  10.2539  10.2700  10.2700  10.2922  10.2922  10.3110  10.3110
    10.4517  10.4517  10.4729  10.4729  10.4826  10.4826  10.4903  10.5069
    10.5492  10.5492  10.5604  10.5604  10.5850  10.6383  10.6451  10.6579
    10.6579  10.7674  10.7674  10.7772  10.7772  10.8582  10.8933  10.8933
    10.9076  10.9076  10.9293  10.9293  11.0603  11.0603  11.1237  11.1237
    11.1278  11.1278  11.1493  11.1709  11.2993  11.2993  11.3649  11.3650
    11.4927  11.4927  11.4980  11.4980  11.4993  11.5179  11.5179  11.5283
    11.6038  11.6038  11.6312  11.6376  11.6480  11.7191  11.7675  11.7675
    11.7745  11.7817  11.7817  11.8011  11.8011  11.9660  11.9660  12.0379
    12.0401  12.0401  12.0417  12.0954  12.1741  12.1922  12.1922  12.1990
    12.1990  12.2413  12.2946  12.4012  12.4012  12.8033  12.8033  12.8047
    12.8047  13.2371  13.2371  13.6490  13.8652  14.0385  14.0539  14.0539
    14.2996  14.2996  14.3203  14.5052  14.5052  14.6948  14.8525  14.8525
    15.0162  16.5680  16.5680  17.2753  17.2753  17.3744  17.4401  17.4401
    17.5999  17.8382  17.8382  18.3996  18.3996  18.9458  18.9458  18.9826
    18.9826  20.6365  20.9387  20.9387  21.0000  21.0645  21.1160  21.1160
    21.2849  21.2849  21.6760  21.8022  21.8022  21.8620  21.8621  22.3313
    22.6434  22.6472

          k = 0.0556 0.0556 0.1185 ( 46393 PWs)   bands (ev):

   -71.9476 -71.9254 -71.9254 -71.9212 -71.9212 -71.9166 -71.9156 -71.9150
   -71.9150 -71.9138 -71.9080 -71.9080 -71.9065 -71.9065 -71.8993 -71.8993
   -71.3581 -71.3581 -71.3437 -71.3437 -71.3437 -71.3437 -71.3425 -71.3425
   -71.3422 -71.3421 -71.3409 -71.3409 -71.3409 -71.3409 -71.3264 -71.3263
   -37.7822 -37.7822 -37.7818 -37.7809 -37.7684 -37.7684 -37.7613 -37.7272
   -37.7272 -37.7243 -37.7243 -37.6873 -37.6873 -37.6762 -37.6762 -37.6670
   -37.6670 -37.6639 -37.6639 -37.6549 -37.6549 -37.6259 -37.6258 -37.6193
   -37.6193 -37.6192 -37.6147 -37.6147 -37.6095 -37.6050 -37.6050 -37.5909
   -37.5881 -37.5881 -37.5737 -37.5737 -37.5708 -37.5698 -37.5595 -37.5595
   -37.5543 -37.5543 -37.5208 -37.5190 -37.5190 -37.5146 -37.5025 -37.5010
   -37.2315 -37.2315 -37.2307 -37.2298 -37.2197 -37.2197 -37.2178 -37.2178
   -37.1492 -37.1492 -37.1491 -37.1491 -37.1343 -37.1343 -37.1341 -37.1341
   -37.1320 -37.1320 -37.1316 -37.1316 -37.1167 -37.1167 -37.1166 -37.1165
   -37.0461 -37.0458 -37.0446 -37.0441 -37.0326 -37.0326 -37.0313 -37.0312
   -36.9622 -36.9589 -36.9477 -36.9477 -36.9472 -36.9472 -36.9464 -36.9460
   -36.9460 -36.9458 -36.9455 -36.9455 -36.9451 -36.9451 -36.9354 -36.9354
     5.8658   7.1586   7.3964   7.3964   7.4628   7.4690   7.4752   7.4752
     7.5345   7.5522   7.6711   7.6711   7.7595   7.7595   7.9430   7.9430
     8.0073   8.2111   8.3334   8.3334   8.3617   8.3617   8.3916   8.3916
     8.4123   8.4123   8.4824   8.4848   8.4848   8.4876   8.5002   8.5002
     8.6248   8.6248   8.6928   8.6928   8.7289   8.7289   8.8055   8.8055
     8.8164   8.8164   8.8796   8.8796   8.9414   9.0010   9.0010   9.0192
     9.0192   9.1628   9.1629   9.2297   9.2772   9.2772   9.3261   9.3261
     9.3389   9.3472   9.3472   9.3581   9.5362   9.5362   9.5370   9.5370
     9.5501   9.5606   9.7007   9.7007   9.7092   9.7113   9.7185   9.7185
     9.7514   9.7607   9.8189   9.8189   9.8534   9.8534  10.2015  10.2016
    10.2551  10.2609  10.2703  10.2703  10.2915  10.2915  10.3129  10.3129
    10.4432  10.4432  10.4717  10.4718  10.4834  10.4835  10.4902  10.5069
    10.5417  10.5417  10.5613  10.5613  10.5811  10.6250  10.6381  10.6600
    10.6601  10.7681  10.7681  10.7819  10.7819  10.8623  10.8926  10.8926
    10.9146  10.9146  10.9311  10.9311  11.0600  11.0601  11.1188  11.1188
    11.1218  11.1219  11.1493  11.2450  11.2991  11.2991  11.3659  11.3659
    11.4898  11.4898  11.4986  11.4986  11.4993  11.5184  11.5184  11.5283
    11.6220  11.6220  11.6241  11.6376  11.6473  11.7193  11.7630  11.7757
    11.7757  11.7862  11.7862  11.7988  11.7988  11.9652  11.9652  12.0378
    12.0405  12.0405  12.0417  12.0954  12.1741  12.1917  12.1917  12.1985
    12.1985  12.2440  12.2944  12.4012  12.4012  12.7650  12.7650  12.8047
    12.8047  13.2000  13.2000  13.6517  13.7016  13.8649  14.0652  14.0652
    14.3453  14.3750  14.3750  14.4998  14.4998  14.9274  14.9274  15.0055
    15.0403  16.5766  16.5766  16.9831  16.9831  17.3856  17.4495  17.4495
    17.5487  17.5487  17.5902  18.7714  18.7714  18.9179  18.9179  19.3583
    19.3583  20.4403  20.7273  20.7273  20.7742  21.0525  21.1267  21.1267
    21.3402  21.3402  21.7790  21.8126  21.8126  22.1940  22.1941  22.6412
    22.6450  22.6866

          k = 0.0556 0.0556 0.1975 ( 46374 PWs)   bands (ev):

   -71.9476 -71.9254 -71.9254 -71.9212 -71.9212 -71.9166 -71.9156 -71.9150
   -71.9150 -71.9138 -71.9080 -71.9080 -71.9065 -71.9065 -71.8993 -71.8993
   -71.3581 -71.3581 -71.3437 -71.3437 -71.3437 -71.3437 -71.3425 -71.3425
   -71.3422 -71.3421 -71.3409 -71.3409 -71.3409 -71.3409 -71.3264 -71.3263
   -37.7822 -37.7822 -37.7818 -37.7809 -37.7684 -37.7684 -37.7613 -37.7272
   -37.7272 -37.7242 -37.7242 -37.6873 -37.6873 -37.6762 -37.6762 -37.6670
   -37.6670 -37.6639 -37.6639 -37.6549 -37.6549 -37.6258 -37.6257 -37.6193
   -37.6193 -37.6192 -37.6147 -37.6147 -37.6095 -37.6050 -37.6050 -37.5910
   -37.5881 -37.5881 -37.5737 -37.5737 -37.5708 -37.5698 -37.5595 -37.5595
   -37.5543 -37.5543 -37.5208 -37.5190 -37.5189 -37.5147 -37.5026 -37.5010
   -37.2315 -37.2315 -37.2307 -37.2298 -37.2197 -37.2197 -37.2177 -37.2177
   -37.1492 -37.1492 -37.1491 -37.1491 -37.1343 -37.1343 -37.1341 -37.1341
   -37.1320 -37.1320 -37.1316 -37.1316 -37.1167 -37.1167 -37.1165 -37.1165
   -37.0461 -37.0458 -37.0446 -37.0442 -37.0326 -37.0326 -37.0313 -37.0313
   -36.9622 -36.9590 -36.9477 -36.9477 -36.9472 -36.9472 -36.9463 -36.9460
   -36.9460 -36.9458 -36.9455 -36.9455 -36.9452 -36.9451 -36.9353 -36.9352
     5.8681   7.1547   7.3966   7.3966   7.4632   7.4694   7.4756   7.4756
     7.5344   7.5457   7.6713   7.6713   7.7604   7.7604   7.9437   7.9437
     8.0111   8.2110   8.3330   8.3330   8.3617   8.3617   8.3915   8.3915
     8.4122   8.4122   8.4807   8.4842   8.4842   8.4863   8.4986   8.4986
     8.6251   8.6251   8.6923   8.6923   8.7286   8.7286   8.8045   8.8045
     8.8175   8.8175   8.8794   8.8794   8.9416   9.0009   9.0009   9.0191
     9.0191   9.1627   9.1627   9.2287   9.2767   9.2767   9.3262   9.3262
     9.3387   9.3469   9.3469   9.3580   9.5329   9.5329   9.5366   9.5366
     9.5496   9.5598   9.6964   9.6964   9.7092   9.7113   9.7186   9.7186
     9.7513   9.7607   9.8228   9.8228   9.8577   9.8577  10.2087  10.2087
    10.2625  10.2709  10.2709  10.2717  10.2903  10.2904  10.3158  10.3158
    10.4309  10.4309  10.4703  10.4703  10.4844  10.4844  10.4902  10.5068
    10.5309  10.5309  10.5627  10.5628  10.5702  10.6073  10.6380  10.6628
    10.6628  10.7692  10.7692  10.7886  10.7886  10.8656  10.8917  10.8917
    10.9256  10.9256  10.9337  10.9337  11.0598  11.0598  11.1116  11.1116
    11.1125  11.1125  11.1493  11.2987  11.2987  11.3645  11.3673  11.3673
    11.4852  11.4852  11.4994  11.4996  11.4996  11.5193  11.5193  11.5285
    11.6132  11.6377  11.6451  11.6508  11.6508  11.7196  11.7453  11.7668
    11.7668  11.7954  11.7954  11.8155  11.8155  11.9641  11.9641  12.0377
    12.0411  12.0411  12.0417  12.0953  12.1741  12.1909  12.1909  12.1978
    12.1978  12.2505  12.2941  12.4013  12.4013  12.7082  12.7082  12.8047
    12.8047  13.1450  13.1450  13.3641  13.6571  13.8629  14.0831  14.0831
    14.3855  14.4910  14.4910  14.4975  14.4975  14.9874  15.0492  15.0492
    15.3858  16.5900  16.5900  16.6583  16.6583  17.2260  17.2260  17.4088
    17.4643  17.4643  17.5682  18.8762  18.8762  19.2535  19.2535  19.8553
    19.8553  20.2897  20.4630  20.5116  20.5116  20.8467  21.1437  21.1437
    21.4289  21.4289  21.8277  21.8277  22.1753  22.3468  22.3468  22.6265
    22.6348  22.6348

          k = 0.0556 0.0556 0.2765 ( 46382 PWs)   bands (ev):

   -71.9476 -71.9254 -71.9254 -71.9212 -71.9212 -71.9166 -71.9156 -71.9150
   -71.9150 -71.9138 -71.9080 -71.9080 -71.9065 -71.9065 -71.8993 -71.8993
   -71.3581 -71.3581 -71.3437 -71.3437 -71.3437 -71.3437 -71.3425 -71.3425
   -71.3422 -71.3421 -71.3409 -71.3409 -71.3409 -71.3409 -71.3264 -71.3263
   -37.7822 -37.7822 -37.7818 -37.7809 -37.7684 -37.7684 -37.7614 -37.7272
   -37.7272 -37.7243 -37.7243 -37.6873 -37.6873 -37.6762 -37.6762 -37.6670
   -37.6670 -37.6639 -37.6639 -37.6549 -37.6549 -37.6258 -37.6257 -37.6193
   -37.6193 -37.6192 -37.6147 -37.6147 -37.6095 -37.6050 -37.6050 -37.5910
   -37.5881 -37.5881 -37.5737 -37.5737 -37.5708 -37.5698 -37.5595 -37.5595
   -37.5543 -37.5543 -37.5208 -37.5190 -37.5190 -37.5147 -37.5026 -37.5010
   -37.2315 -37.2315 -37.2307 -37.2298 -37.2197 -37.2197 -37.2177 -37.2177
   -37.1493 -37.1492 -37.1491 -37.1491 -37.1343 -37.1343 -37.1341 -37.1341
   -37.1320 -37.1320 -37.1315 -37.1315 -37.1167 -37.1167 -37.1166 -37.1166
   -37.0461 -37.0458 -37.0446 -37.0443 -37.0326 -37.0326 -37.0313 -37.0313
   -36.9622 -36.9590 -36.9477 -36.9477 -36.9472 -36.9472 -36.9463 -36.9460
   -36.9460 -36.9458 -36.9455 -36.9455 -36.9452 -36.9452 -36.9353 -36.9352
     5.8701   7.1512   7.3967   7.3967   7.4636   7.4697   7.4759   7.4759
     7.5340   7.5405   7.6715   7.6715   7.7611   7.7611   7.9443   7.9443
     8.0142   8.2110   8.3327   8.3327   8.3617   8.3617   8.3915   8.3915
     8.4121   8.4121   8.4792   8.4836   8.4836   8.4851   8.4972   8.4972
     8.6253   8.6253   8.6918   8.6918   8.7283   8.7283   8.8037   8.8037
     8.8184   8.8184   8.8792   8.8792   8.9417   9.0009   9.0009   9.0191
     9.0191   9.1626   9.1626   9.2278   9.2762   9.2762   9.3263   9.3263
     9.3386   9.3467   9.3467   9.3579   9.5299   9.5299   9.5362   9.5362
     9.5493   9.5591   9.6927   9.6927   9.7092   9.7113   9.7187   9.7187
     9.7513   9.7607   9.8262   9.8262   9.8614   9.8614  10.2149  10.2150
    10.2690  10.2715  10.2715  10.2813  10.2892  10.2892  10.3183  10.3183
    10.4207  10.4207  10.4692  10.4692  10.4848  10.4848  10.4902  10.5068
    10.5219  10.5219  10.5566  10.5641  10.5641  10.6007  10.6378  10.6649
    10.6649  10.7702  10.7702  10.7941  10.7941  10.8673  10.8910  10.8910
    10.9354  10.9354  10.9357  10.9357  11.0597  11.0597  11.1040  11.1040
    11.1056  11.1056  11.1493  11.2983  11.2983  11.3685  11.3685  11.4809
    11.4809  11.4844  11.4995  11.5005  11.5005  11.5201  11.5201  11.5286
    11.6036  11.6378  11.6385  11.6774  11.6774  11.7199  11.7296  11.7592
    11.7592  11.7923  11.7923  11.8419  11.8419  11.9630  11.9630  12.0376
    12.0416  12.0416  12.0417  12.0953  12.1741  12.1902  12.1902  12.1971
    12.1971  12.2610  12.2938  12.4013  12.4013  12.6595  12.6595  12.8047
    12.8048  13.0981  13.0981  13.1091  13.6630  13.8598  14.0993  14.0993
    14.4232  14.4827  14.4827  14.6172  14.6172  14.9692  15.1682  15.1682
    15.6377  16.4121  16.4121  16.6020  16.6020  16.9814  16.9814  17.4433
    17.4778  17.4778  17.5336  18.8404  18.8404  19.7110  19.7110  20.2085
    20.2177  20.3481  20.3481  20.3658  20.3659  20.6622  21.1592  21.1592
    21.5125  21.5125  21.7764  21.7764  21.8810  21.8810  22.1748  22.1748
    22.5948  22.5949

          k = 0.0556 0.0556-0.3556 ( 46422 PWs)   bands (ev):

   -71.9476 -71.9254 -71.9254 -71.9212 -71.9212 -71.9166 -71.9156 -71.9150
   -71.9150 -71.9138 -71.9080 -71.9080 -71.9065 -71.9065 -71.8993 -71.8993
   -71.3581 -71.3581 -71.3437 -71.3437 -71.3437 -71.3437 -71.3425 -71.3425
   -71.3422 -71.3421 -71.3409 -71.3409 -71.3409 -71.3409 -71.3264 -71.3263
   -37.7822 -37.7822 -37.7819 -37.7810 -37.7684 -37.7684 -37.7615 -37.7272
   -37.7272 -37.7243 -37.7243 -37.6873 -37.6873 -37.6762 -37.6762 -37.6670
   -37.6670 -37.6639 -37.6639 -37.6549 -37.6549 -37.6257 -37.6257 -37.6194
   -37.6194 -37.6193 -37.6147 -37.6147 -37.6095 -37.6050 -37.6050 -37.5911
   -37.5881 -37.5881 -37.5737 -37.5737 -37.5708 -37.5698 -37.5595 -37.5595
   -37.5543 -37.5543 -37.5208 -37.5190 -37.5189 -37.5147 -37.5026 -37.5011
   -37.2315 -37.2315 -37.2307 -37.2298 -37.2197 -37.2197 -37.2177 -37.2177
   -37.1493 -37.1493 -37.1491 -37.1491 -37.1342 -37.1342 -37.1341 -37.1341
   -37.1320 -37.1320 -37.1315 -37.1315 -37.1167 -37.1167 -37.1166 -37.1166
   -37.0461 -37.0459 -37.0446 -37.0443 -37.0326 -37.0326 -37.0313 -37.0313
   -36.9623 -36.9591 -36.9477 -36.9477 -36.9472 -36.9472 -36.9464 -36.9460
   -36.9460 -36.9458 -36.9455 -36.9455 -36.9452 -36.9452 -36.9353 -36.9352
     5.8709   7.1497   7.3968   7.3968   7.4637   7.4698   7.4761   7.4761
     7.5336   7.5387   7.6715   7.6715   7.7614   7.7614   7.9445   7.9445
     8.0154   8.2109   8.3325   8.3325   8.3617   8.3617   8.3914   8.3915
     8.4120   8.4120   8.4787   8.4834   8.4834   8.4847   8.4966   8.4966
     8.6254   8.6254   8.6916   8.6916   8.7281   8.7281   8.8033   8.8033
     8.8188   8.8188   8.8791   8.8791   8.9417   9.0009   9.0009   9.0191
     9.0191   9.1625   9.1625   9.2274   9.2760   9.2760   9.3263   9.3263
     9.3386   9.3466   9.3466   9.3579   9.5288   9.5288   9.5360   9.5360
     9.5491   9.5588   9.6913   9.6913   9.7092   9.7113   9.7188   9.7188
     9.7512   9.7607   9.8276   9.8276   9.8628   9.8628  10.2174  10.2174
    10.2716  10.2717  10.2717  10.2851  10.2887  10.2887  10.3193  10.3193
    10.4168  10.4168  10.4688  10.4688  10.4849  10.4849  10.4901  10.5068
    10.5185  10.5185  10.5510  10.5647  10.5647  10.5992  10.6377  10.6656
    10.6656  10.7706  10.7706  10.7962  10.7962  10.8678  10.8908  10.8908
    10.9365  10.9365  10.9393  10.9393  11.0597  11.0597  11.1005  11.1005
    11.1033  11.1033  11.1492  11.2981  11.2981  11.3690  11.3690  11.4791
    11.4791  11.4996  11.5008  11.5008  11.5204  11.5204  11.5286  11.5420
    11.5999  11.6299  11.6378  11.6883  11.6883  11.7200  11.7234  11.7563
    11.7563  11.7911  11.7911  11.8526  11.8526  11.9626  11.9626  12.0376
    12.0416  12.0417  12.0417  12.0952  12.1741  12.1899  12.1899  12.1968
    12.1968  12.2679  12.2937  12.4013  12.4013  12.6403  12.6403  12.8047
    12.8048  13.0091  13.0798  13.0798  13.6656  13.8582  14.1059  14.1059
    14.4389  14.4792  14.4792  14.6692  14.6692  14.9613  15.2198  15.2198
    15.7312  16.3176  16.3176  16.6069  16.6069  16.8877  16.8877  17.4759
    17.4832  17.4832  17.5007  18.8265  18.8265  19.9351  19.9351  20.1107
    20.2021  20.3149  20.3149  20.5881  20.6112  20.6112  21.1652  21.1652
    21.5476  21.5476  21.5508  21.5508  21.8628  21.8628  21.8948  21.8948
    22.5791  22.5792

          k = 0.0556 0.1667 0.0395 ( 46428 PWs)   bands (ev):

   -71.9468 -71.9296 -71.9251 -71.9210 -71.9183 -71.9170 -71.9161 -71.9153
   -71.9134 -71.9127 -71.9094 -71.9082 -71.9068 -71.9052 -71.9000 -71.8995
   -71.3576 -71.3576 -71.3464 -71.3464 -71.3437 -71.3437 -71.3427 -71.3427
   -71.3420 -71.3419 -71.3410 -71.3409 -71.3382 -71.3382 -71.3268 -71.3268
   -37.7803 -37.7794 -37.7781 -37.7768 -37.7657 -37.7656 -37.7599 -37.7320
   -37.7301 -37.7285 -37.7244 -37.7066 -37.7005 -37.6957 -37.6749 -37.6674
   -37.6661 -37.6615 -37.6477 -37.6404 -37.6362 -37.6300 -37.6272 -37.6236
   -37.6233 -37.6205 -37.6196 -37.6124 -37.6101 -37.6043 -37.6024 -37.5991
   -37.5886 -37.5793 -37.5734 -37.5662 -37.5643 -37.5639 -37.5599 -37.5595
   -37.5546 -37.5505 -37.5261 -37.5255 -37.5203 -37.5135 -37.5074 -37.5024
   -37.2302 -37.2293 -37.2270 -37.2252 -37.2185 -37.2183 -37.2139 -37.2138
   -37.1661 -37.1658 -37.1639 -37.1635 -37.1518 -37.1512 -37.1472 -37.1466
   -37.1193 -37.1188 -37.1146 -37.1142 -37.1020 -37.1019 -37.0997 -37.0995
   -37.0504 -37.0502 -37.0457 -37.0454 -37.0371 -37.0371 -37.0330 -37.0330
   -36.9616 -36.9585 -36.9498 -36.9494 -36.9477 -36.9471 -36.9467 -36.9461
   -36.9459 -36.9456 -36.9456 -36.9451 -36.9434 -36.9433 -36.9358 -36.9357
     5.9341   7.2155   7.4330   7.4386   7.4789   7.4819   7.4944   7.5117
     7.5170   7.5733   7.6085   7.6953   7.6972   7.7604   7.9424   8.0051
     8.0578   8.2444   8.2541   8.2688   8.2756   8.2822   8.2845   8.3748
     8.3789   8.4140   8.4194   8.4197   8.4423   8.4758   8.4826   8.5212
     8.5241   8.5542   8.6036   8.6690   8.7660   8.7758   8.7792   8.7827
     8.8091   8.8191   8.8241   8.9607   8.9987   9.0227   9.0634   9.1072
     9.1106   9.1519   9.1640   9.2161   9.2232   9.2562   9.3076   9.3450
     9.3518   9.3635   9.3893   9.4134   9.4575   9.5032   9.5487   9.5584
     9.5669   9.5751   9.7325   9.7326   9.7368   9.7401   9.7509   9.7522
     9.7682   9.8224   9.8466   9.8516   9.8644   9.9889  10.0750  10.0872
    10.0902  10.1337  10.1669  10.1671  10.2154  10.2743  10.2763  10.3008
    10.3911  10.3940  10.4100  10.4170  10.4797  10.4901  10.5434  10.5533
    10.5783  10.5879  10.5902  10.6207  10.6518  10.6523  10.6760  10.6789
    10.6801  10.6818  10.7027  10.7624  10.8366  10.8487  10.8642  10.8684
    11.0032  11.0071  11.0113  11.0657  11.1085  11.1255  11.1465  11.2047
    11.2307  11.2319  11.2573  11.3240  11.3373  11.3394  11.3541  11.3861
    11.3895  11.3980  11.4566  11.4940  11.5088  11.5367  11.5378  11.5844
    11.5844  11.5881  11.6131  11.6232  11.7476  11.7584  11.7589  11.7725
    11.7799  11.8267  11.8326  11.8881  11.9335  11.9506  11.9522  11.9579
    11.9849  11.9930  12.0701  12.0815  12.1366  12.1408  12.1827  12.1867
    12.2009  12.2107  12.2815  12.2963  12.3344  12.4634  12.6875  12.7225
    12.7997  13.2494  13.2711  13.4119  13.7732  13.7984  13.8813  13.9506
    14.1970  14.3070  14.3967  14.5148  14.8653  14.9120  15.0908  15.4638
    15.6015  16.1729  16.7364  16.8011  17.3044  17.4237  17.5158  17.6633
    17.8121  17.8347  17.8597  18.4178  18.4289  18.4575  19.0278  19.1076
    19.5881  20.3522  20.4143  20.4219  20.4532  20.6530  20.7673  20.9447
    21.0760  21.0903  21.3994  21.7098  21.9424  22.0632  22.1895  22.4554
    22.4961  22.5061

          k = 0.0556 0.1667 0.1185 ( 46399 PWs)   bands (ev):

   -71.9468 -71.9296 -71.9251 -71.9210 -71.9183 -71.9170 -71.9161 -71.9153
   -71.9134 -71.9127 -71.9094 -71.9082 -71.9068 -71.9052 -71.9000 -71.8995
   -71.3576 -71.3576 -71.3464 -71.3464 -71.3437 -71.3437 -71.3427 -71.3427
   -71.3420 -71.3419 -71.3410 -71.3409 -71.3382 -71.3382 -71.3268 -71.3268
   -37.7803 -37.7794 -37.7781 -37.7768 -37.7657 -37.7655 -37.7599 -37.7320
   -37.7301 -37.7285 -37.7244 -37.7066 -37.7005 -37.6957 -37.6749 -37.6674
   -37.6661 -37.6614 -37.6477 -37.6404 -37.6362 -37.6300 -37.6272 -37.6236
   -37.6233 -37.6204 -37.6196 -37.6123 -37.6101 -37.6043 -37.6024 -37.5991
   -37.5887 -37.5793 -37.5734 -37.5662 -37.5643 -37.5639 -37.5599 -37.5595
   -37.5546 -37.5506 -37.5261 -37.5255 -37.5203 -37.5135 -37.5074 -37.5025
   -37.2302 -37.2293 -37.2270 -37.2252 -37.2184 -37.2183 -37.2139 -37.2137
   -37.1661 -37.1658 -37.1639 -37.1635 -37.1518 -37.1512 -37.1472 -37.1466
   -37.1193 -37.1188 -37.1146 -37.1141 -37.1020 -37.1019 -37.0997 -37.0995
   -37.0504 -37.0502 -37.0457 -37.0454 -37.0371 -37.0370 -37.0330 -37.0330
   -36.9615 -36.9585 -36.9498 -36.9494 -36.9477 -36.9471 -36.9467 -36.9460
   -36.9459 -36.9456 -36.9455 -36.9451 -36.9434 -36.9432 -36.9357 -36.9356
     5.9355   7.2131   7.4331   7.4388   7.4792   7.4826   7.4946   7.5120
     7.5173   7.5731   7.6042   7.6955   7.6974   7.7608   7.9427   8.0055
     8.0602   8.2444   8.2541   8.2687   8.2751   8.2822   8.2842   8.3746
     8.3786   8.4139   8.4194   8.4197   8.4414   8.4746   8.4821   8.5203
     8.5230   8.5546   8.6029   8.6701   8.7662   8.7758   8.7791   8.7826
     8.8085   8.8185   8.8246   8.9608   8.9981   9.0226   9.0636   9.1085
     9.1105   9.1510   9.1635   9.2161   9.2226   9.2560   9.3075   9.3434
     9.3523   9.3635   9.3892   9.4136   9.4576   9.5030   9.5486   9.5583
     9.5664   9.5734   9.7304   9.7325   9.7369   9.7404   9.7511   9.7529
     9.7680   9.8200   9.8493   9.8533   9.8657   9.9915  10.0751  10.0911
    10.0932  10.1334  10.1702  10.1736  10.2148  10.2738  10.2783  10.3025
    10.3840  10.3912  10.4095  10.4236  10.4695  10.4967  10.5438  10.5546
    10.5693  10.5911  10.5943  10.6204  10.6330  10.6532  10.6690  10.6792
    10.6797  10.6831  10.7037  10.7628  10.8345  10.8540  10.8680  10.8755
    11.0006  11.0097  11.0129  11.0706  11.1086  11.1329  11.1403  11.2012
    11.2246  11.2299  11.2598  11.3195  11.3376  11.3509  11.3550  11.3839
    11.3934  11.4156  11.4518  11.5094  11.5118  11.5362  11.5376  11.5848
    11.5849  11.6060  11.6134  11.6223  11.7473  11.7560  11.7702  11.7776
    11.7778  11.8208  11.8255  11.8828  11.9330  11.9500  11.9564  11.9596
    11.9857  11.9934  12.0819  12.0862  12.1359  12.1553  12.1823  12.1863
    12.2015  12.2102  12.2817  12.2963  12.3344  12.4242  12.6876  12.7226
    12.7627  13.2134  13.2666  13.4100  13.7371  13.8742  13.8777  13.8801
    13.9492  14.3826  14.4423  14.5397  14.9401  15.0815  15.2446  15.5381
    15.5828  16.1820  16.4446  16.8097  17.0143  17.4355  17.5123  17.5734
    17.6541  17.7753  18.1456  18.1972  18.3869  18.8263  19.0790  19.3968
    19.9610  20.3158  20.3626  20.4247  20.4560  20.4869  20.8416  20.9552
    21.0539  21.0766  21.4561  21.8146  21.8396  21.8896  22.1406  22.4133
    22.4220  22.4387

          k = 0.0556 0.1667 0.1975 ( 46393 PWs)   bands (ev):

   -71.9468 -71.9296 -71.9251 -71.9210 -71.9183 -71.9170 -71.9161 -71.9153
   -71.9134 -71.9127 -71.9094 -71.9082 -71.9068 -71.9052 -71.9000 -71.8995
   -71.3576 -71.3576 -71.3464 -71.3464 -71.3437 -71.3437 -71.3427 -71.3427
   -71.3420 -71.3419 -71.3410 -71.3409 -71.3382 -71.3382 -71.3268 -71.3268
   -37.7803 -37.7794 -37.7781 -37.7768 -37.7657 -37.7655 -37.7600 -37.7320
   -37.7301 -37.7285 -37.7244 -37.7066 -37.7004 -37.6957 -37.6749 -37.6674
   -37.6661 -37.6614 -37.6477 -37.6404 -37.6362 -37.6300 -37.6271 -37.6236
   -37.6232 -37.6203 -37.6196 -37.6123 -37.6101 -37.6043 -37.6023 -37.5991
   -37.5886 -37.5793 -37.5734 -37.5662 -37.5643 -37.5639 -37.5599 -37.5595
   -37.5546 -37.5506 -37.5261 -37.5255 -37.5203 -37.5135 -37.5074 -37.5025
   -37.2302 -37.2294 -37.2269 -37.2252 -37.2185 -37.2183 -37.2139 -37.2137
   -37.1661 -37.1658 -37.1639 -37.1634 -37.1518 -37.1512 -37.1472 -37.1466
   -37.1193 -37.1188 -37.1146 -37.1141 -37.1019 -37.1019 -37.0997 -37.0994
   -37.0504 -37.0502 -37.0457 -37.0455 -37.0371 -37.0370 -37.0330 -37.0330
   -36.9615 -36.9586 -36.9498 -36.9494 -36.9477 -36.9471 -36.9467 -36.9460
   -36.9459 -36.9456 -36.9456 -36.9451 -36.9434 -36.9433 -36.9356 -36.9356
     5.9377   7.2093   7.4333   7.4389   7.4795   7.4837   7.4949   7.5124
     7.5176   7.5727   7.5980   7.6957   7.6975   7.7613   7.9431   8.0061
     8.0638   8.2444   8.2541   8.2685   8.2743   8.2821   8.2836   8.3742
     8.3783   8.4136   8.4194   8.4198   8.4400   8.4729   8.4811   8.5188
     8.5213   8.5553   8.6020   8.6717   8.7664   8.7758   8.7791   8.7826
     8.8076   8.8175   8.8254   8.9609   8.9972   9.0225   9.0638   9.1103
     9.1105   9.1496   9.1628   9.2162   9.2217   9.2557   9.3073   9.3408
     9.3529   9.3635   9.3891   9.4139   9.4577   9.5026   9.5485   9.5580
     9.5657   9.5708   9.7272   9.7324   9.7369   9.7407   9.7514   9.7539
     9.7678   9.8163   9.8535   9.8558   9.8676   9.9955  10.0753  10.0972
    10.0979  10.1328  10.1753  10.1838  10.2137  10.2731  10.2814  10.3053
    10.3696  10.3913  10.4086  10.4349  10.4598  10.5010  10.5443  10.5563
    10.5607  10.5927  10.5990  10.6058  10.6207  10.6545  10.6592  10.6781
    10.6796  10.6851  10.7054  10.7635  10.8315  10.8613  10.8738  10.8832
    10.9963  11.0136  11.0150  11.0787  11.1086  11.1315  11.1411  11.1963
    11.2153  11.2273  11.2627  11.3124  11.3382  11.3563  11.3574  11.3803
    11.3864  11.4444  11.4737  11.5104  11.5354  11.5373  11.5402  11.5854
    11.5857  11.6140  11.6191  11.6343  11.7468  11.7523  11.7657  11.7741
    11.8029  11.8069  11.8238  11.8750  11.9322  11.9492  11.9617  11.9636
    11.9867  11.9941  12.0826  12.1106  12.1357  12.1816  12.1859  12.1860
    12.2032  12.2095  12.2820  12.2966  12.3345  12.3659  12.6877  12.7080
    12.7226  13.1603  13.2613  13.4064  13.5492  13.6838  13.8801  13.9455
    13.9969  14.5055  14.5150  14.5793  15.0621  15.0655  15.5503  15.5893
    15.6590  16.1202  16.1961  16.6891  16.8230  17.2515  17.4601  17.5097
    17.6325  17.7159  17.8279  18.3411  18.6568  19.0363  19.3069  19.8837
    20.2669  20.3035  20.3792  20.4411  20.4623  20.5197  20.5932  20.8699
    20.9719  21.1783  21.5466  21.8206  21.8566  21.9534  22.0721  22.2474
    22.2576  22.4969

          k = 0.0556 0.1667 0.2765 ( 46392 PWs)   bands (ev):

   -71.9468 -71.9296 -71.9251 -71.9210 -71.9183 -71.9170 -71.9161 -71.9153
   -71.9134 -71.9127 -71.9094 -71.9082 -71.9068 -71.9052 -71.9000 -71.8995
   -71.3576 -71.3576 -71.3464 -71.3464 -71.3437 -71.3437 -71.3427 -71.3427
   -71.3420 -71.3419 -71.3410 -71.3409 -71.3382 -71.3382 -71.3268 -71.3268
   -37.7803 -37.7794 -37.7781 -37.7768 -37.7657 -37.7655 -37.7601 -37.7320
   -37.7301 -37.7284 -37.7244 -37.7066 -37.7005 -37.6957 -37.6749 -37.6674
   -37.6661 -37.6614 -37.6477 -37.6404 -37.6362 -37.6301 -37.6271 -37.6236
   -37.6233 -37.6203 -37.6196 -37.6123 -37.6101 -37.6043 -37.6024 -37.5991
   -37.5887 -37.5792 -37.5734 -37.5662 -37.5643 -37.5639 -37.5599 -37.5595
   -37.5546 -37.5506 -37.5261 -37.5255 -37.5203 -37.5135 -37.5075 -37.5025
   -37.2301 -37.2293 -37.2269 -37.2252 -37.2184 -37.2183 -37.2139 -37.2137
   -37.1661 -37.1658 -37.1639 -37.1635 -37.1518 -37.1512 -37.1472 -37.1466
   -37.1193 -37.1188 -37.1146 -37.1141 -37.1020 -37.1019 -37.0997 -37.0994
   -37.0504 -37.0503 -37.0457 -37.0454 -37.0371 -37.0370 -37.0330 -37.0330
   -36.9615 -36.9587 -36.9499 -36.9494 -36.9477 -36.9471 -36.9467 -36.9460
   -36.9459 -36.9456 -36.9456 -36.9451 -36.9435 -36.9433 -36.9356 -36.9355
     5.9397   7.2060   7.4335   7.4390   7.4799   7.4847   7.4951   7.5127
     7.5179   7.5722   7.5929   7.6958   7.6977   7.7619   7.9435   8.0067
     8.0668   8.2443   8.2540   8.2683   8.2737   8.2821   8.2830   8.3738
     8.3779   8.4134   8.4193   8.4198   8.4388   8.4715   8.4802   8.5176
     8.5197   8.5559   8.6012   8.6731   8.7667   8.7758   8.7791   8.7825
     8.8067   8.8167   8.8260   8.9610   8.9963   9.0224   9.0641   9.1101
     9.1122   9.1483   9.1621   9.2162   9.2210   9.2555   9.3071   9.3386
     9.3535   9.3636   9.3891   9.4142   9.4578   9.5023   9.5485   9.5579
     9.5651   9.5686   9.7244   9.7322   9.7369   9.7410   9.7516   9.7548
     9.7677   9.8131   9.8572   9.8579   9.8693   9.9990  10.0755  10.1018
    10.1028  10.1323  10.1797  10.1927  10.2127  10.2723  10.2841  10.3077
    10.3577  10.3914  10.4079  10.4467  10.4529  10.5032  10.5448  10.5546
    10.5574  10.5830  10.5941  10.6017  10.6204  10.6509  10.6557  10.6767
    10.6801  10.6870  10.7068  10.7642  10.8292  10.8670  10.8788  10.8880
    10.9924  11.0166  11.0172  11.0866  11.1086  11.1244  11.1463  11.1925
    11.2071  11.2253  11.2647  11.3060  11.3386  11.3575  11.3599  11.3769
    11.3801  11.4379  11.5113  11.5347  11.5369  11.5393  11.5670  11.5859
    11.5864  11.6100  11.6144  11.6603  11.7464  11.7491  11.7601  11.7711
    11.7876  11.8224  11.8329  11.8685  11.9315  11.9484  11.9631  11.9706
    11.9874  11.9948  12.0832  12.1310  12.1357  12.1811  12.1854  12.2063
    12.2089  12.2286  12.2823  12.2982  12.3155  12.3345  12.6611  12.6878
    12.7227  13.1150  13.2581  13.2992  13.4028  13.6384  13.8820  13.9407
    14.1168  14.5827  14.6162  14.6257  15.0491  15.1812  15.5170  15.7770
    15.8441  15.8740  16.2088  16.4420  16.8349  17.0069  17.4959  17.5124
    17.5868  17.5980  17.6587  18.3021  18.9996  19.0733  19.7624  20.2305
    20.2563  20.2880  20.3536  20.3959  20.4562  20.6841  20.6971  20.9755
    20.9873  21.0458  21.4658  21.6307  21.7850  21.8462  22.0220  22.1127
    22.3027  22.3849

          k = 0.0556 0.1667-0.3556 ( 46370 PWs)   bands (ev):

   -71.9468 -71.9296 -71.9251 -71.9210 -71.9183 -71.9170 -71.9161 -71.9153
   -71.9134 -71.9127 -71.9094 -71.9082 -71.9068 -71.9052 -71.9000 -71.8995
   -71.3576 -71.3576 -71.3464 -71.3464 -71.3437 -71.3437 -71.3427 -71.3427
   -71.3420 -71.3419 -71.3410 -71.3409 -71.3382 -71.3382 -71.3268 -71.3268
   -37.7803 -37.7794 -37.7781 -37.7767 -37.7656 -37.7655 -37.7601 -37.7320
   -37.7301 -37.7284 -37.7244 -37.7066 -37.7005 -37.6957 -37.6750 -37.6674
   -37.6660 -37.6614 -37.6476 -37.6404 -37.6362 -37.6301 -37.6271 -37.6236
   -37.6233 -37.6203 -37.6196 -37.6123 -37.6101 -37.6043 -37.6023 -37.5991
   -37.5887 -37.5792 -37.5734 -37.5662 -37.5642 -37.5639 -37.5599 -37.5594
   -37.5546 -37.5506 -37.5261 -37.5255 -37.5203 -37.5135 -37.5074 -37.5025
   -37.2301 -37.2294 -37.2268 -37.2253 -37.2184 -37.2182 -37.2139 -37.2137
   -37.1661 -37.1658 -37.1638 -37.1635 -37.1518 -37.1512 -37.1472 -37.1466
   -37.1193 -37.1188 -37.1146 -37.1141 -37.1020 -37.1018 -37.0997 -37.0995
   -37.0504 -37.0502 -37.0457 -37.0454 -37.0370 -37.0370 -37.0330 -37.0330
   -36.9615 -36.9587 -36.9498 -36.9494 -36.9477 -36.9471 -36.9467 -36.9460
   -36.9459 -36.9456 -36.9456 -36.9451 -36.9435 -36.9433 -36.9356 -36.9356
     5.9405   7.2046   7.4335   7.4391   7.4800   7.4851   7.4952   7.5128
     7.5180   7.5720   7.5910   7.6959   7.6978   7.7621   7.9436   8.0069
     8.0680   8.2443   8.2540   8.2682   8.2734   8.2821   8.2828   8.3736
     8.3778   8.4133   8.4193   8.4198   8.4383   8.4710   8.4799   8.5172
     8.5191   8.5561   8.6009   8.6737   8.7667   8.7757   8.7791   8.7825
     8.8064   8.8164   8.8262   8.9610   8.9960   9.0223   9.0642   9.1100
     9.1129   9.1478   9.1618   9.2163   9.2207   9.2554   9.3070   9.3377
     9.3538   9.3636   9.3891   9.4144   9.4578   9.5022   9.5484   9.5578
     9.5649   9.5677   9.7234   9.7322   9.7369   9.7411   9.7517   9.7551
     9.7676   9.8118   9.8586   9.8587   9.8699  10.0004  10.0755  10.1035
    10.1049  10.1321  10.1815  10.1963  10.2123  10.2720  10.2852  10.3086
    10.3531  10.3914  10.4076  10.4504  10.4522  10.5039  10.5450  10.5523
    10.5577  10.5737  10.5947  10.6026  10.6203  10.6477  10.6561  10.6762
    10.6803  10.6878  10.7073  10.7645  10.8284  10.8690  10.8808  10.8896
    10.9907  11.0172  11.0186  11.0899  11.1086  11.1217  11.1480  11.1911
    11.2037  11.2245  11.2654  11.3034  11.3388  11.3580  11.3605  11.3754
    11.3776  11.4353  11.5116  11.5344  11.5368  11.5782  11.5839  11.5861
    11.5866  11.5891  11.6146  11.6709  11.7463  11.7478  11.7573  11.7699
    11.7815  11.8219  11.8434  11.8660  11.9312  11.9481  11.9635  11.9734
    11.9876  11.9951  12.0834  12.1357  12.1385  12.1808  12.1853  12.2082
    12.2087  12.2513  12.2824  12.2955  12.3006  12.3345  12.6427  12.6879
    12.7227  13.0974  13.2006  13.2571  13.4012  13.6208  13.8834  13.9382
    14.1690  14.6109  14.6315  14.6779  15.0419  15.2330  15.5023  15.7793
    15.8282  15.9395  16.2139  16.3471  16.8397  16.9130  17.4944  17.5163
    17.5254  17.5687  17.6333  18.2870  18.9854  19.2628  19.9844  20.1548
    20.2146  20.3127  20.4003  20.4623  20.5927  20.6094  20.7421  20.9668
    20.9934  21.2514  21.2701  21.6124  21.6650  21.8403  21.9590  22.0254
    22.0535  22.2511

          k = 0.0556 0.2778 0.0395 ( 46383 PWs)   bands (ev):

   -71.9454 -71.9336 -71.9245 -71.9206 -71.9198 -71.9172 -71.9148 -71.9131
   -71.9118 -71.9116 -71.9107 -71.9085 -71.9074 -71.9038 -71.9014 -71.9000
   -71.3567 -71.3567 -71.3490 -71.3490 -71.3436 -71.3436 -71.3429 -71.3429
   -71.3418 -71.3417 -71.3411 -71.3410 -71.3356 -71.3355 -71.3278 -71.3278
   -37.7751 -37.7737 -37.7711 -37.7702 -37.7603 -37.7599 -37.7573 -37.7376
   -37.7360 -37.7357 -37.7283 -37.7248 -37.7148 -37.7147 -37.6791 -37.6722
   -37.6565 -37.6557 -37.6360 -37.6299 -37.6296 -37.6275 -37.6263 -37.6255
   -37.6238 -37.6199 -37.6191 -37.6159 -37.6120 -37.6099 -37.6063 -37.5999
   -37.5792 -37.5740 -37.5716 -37.5669 -37.5600 -37.5581 -37.5547 -37.5515
   -37.5485 -37.5459 -37.5353 -37.5326 -37.5248 -37.5155 -37.5153 -37.5068
   -37.2259 -37.2244 -37.2203 -37.2180 -37.2148 -37.2144 -37.2075 -37.2071
   -37.1820 -37.1813 -37.1775 -37.1768 -37.1688 -37.1676 -37.1620 -37.1612
   -37.1046 -37.1040 -37.0976 -37.0972 -37.0882 -37.0880 -37.0836 -37.0834
   -37.0572 -37.0571 -37.0496 -37.0494 -37.0444 -37.0444 -37.0378 -37.0378
   -36.9602 -36.9578 -36.9518 -36.9517 -36.9477 -36.9470 -36.9469 -36.9461
   -36.9459 -36.9456 -36.9453 -36.9451 -36.9415 -36.9414 -36.9364 -36.9362
     6.0716   7.1587   7.3214   7.5042   7.5211   7.5213   7.5521   7.5764
     7.5882   7.6516   7.7081   7.7435   7.7504   7.7508   7.9217   7.9616
     8.0807   8.0886   8.1106   8.1108   8.1430   8.1588   8.2332   8.3124
     8.3188   8.3732   8.4549   8.4659   8.4662   8.4785   8.4811   8.4850
     8.4868   8.5318   8.5513   8.5581   8.7122   8.7554   8.7638   8.7942
     8.8164   8.8440   8.8924   8.9934   9.0001   9.0113   9.0208   9.0460
     9.0696   9.1253   9.1522   9.1884   9.1977   9.3305   9.3373   9.3728
     9.3732   9.3781   9.4511   9.4563   9.4924   9.5461   9.5710   9.5788
     9.6339   9.7046   9.7306   9.7581   9.7651   9.7744   9.7763   9.7819
     9.8126   9.8526   9.8611   9.8978   9.9128   9.9175   9.9538  10.0088
    10.0310  10.0597  10.0618  10.1425  10.2104  10.2137  10.2210  10.2338
    10.2643  10.2751  10.3153  10.3953  10.4050  10.4612  10.5103  10.5295
    10.5947  10.6105  10.6337  10.6546  10.6753  10.6984  10.7117  10.7437
    10.7618  10.7675  10.7937  10.8175  10.8612  10.8912  10.9251  11.0086
    11.0785  11.0796  11.1077  11.1290  11.1422  11.1930  11.2043  11.2154
    11.2364  11.2778  11.2811  11.3035  11.3259  11.3350  11.3383  11.3817
    11.3834  11.4221  11.5142  11.5222  11.5415  11.5840  11.6077  11.6772
    11.6798  11.6902  11.6990  11.7078  11.7265  11.7367  11.7427  11.7846
    11.7922  11.8033  11.8642  11.8652  11.8734  11.8848  11.9187  11.9296
    11.9449  11.9728  11.9793  12.0580  12.0590  12.1252  12.1559  12.1964
    12.2050  12.2072  12.2118  12.2248  12.2882  12.5053  12.5831  12.6020
    12.7949  12.9926  13.0065  13.2775  13.3429  13.5198  13.6931  14.3222
    14.4103  14.4216  14.4776  14.7738  14.8885  15.2787  15.5260  15.7697
    16.1390  16.2201  16.2313  17.2151  17.2842  17.3503  17.6266  17.6365
    17.8348  17.8744  17.9527  18.0086  18.5550  19.0520  19.0775  19.4082
    19.4692  19.4827  19.7130  20.0141  20.2186  20.3570  20.4847  20.5818
    20.8210  21.0729  21.2276  21.5521  21.5840  21.5844  21.9616  22.1321
    22.3408  22.5518

          k = 0.0556 0.2778 0.1185 ( 46398 PWs)   bands (ev):

   -71.9454 -71.9336 -71.9245 -71.9206 -71.9198 -71.9172 -71.9148 -71.9131
   -71.9118 -71.9116 -71.9107 -71.9085 -71.9074 -71.9038 -71.9014 -71.9000
   -71.3567 -71.3567 -71.3490 -71.3490 -71.3436 -71.3436 -71.3429 -71.3429
   -71.3418 -71.3417 -71.3411 -71.3410 -71.3356 -71.3355 -71.3278 -71.3278
   -37.7751 -37.7737 -37.7711 -37.7702 -37.7603 -37.7599 -37.7573 -37.7376
   -37.7360 -37.7357 -37.7283 -37.7249 -37.7148 -37.7146 -37.6791 -37.6723
   -37.6565 -37.6557 -37.6360 -37.6299 -37.6297 -37.6275 -37.6263 -37.6255
   -37.6238 -37.6199 -37.6191 -37.6159 -37.6120 -37.6099 -37.6063 -37.5999
   -37.5792 -37.5741 -37.5716 -37.5669 -37.5600 -37.5581 -37.5547 -37.5515
   -37.5485 -37.5459 -37.5353 -37.5326 -37.5248 -37.5156 -37.5153 -37.5068
   -37.2259 -37.2245 -37.2202 -37.2180 -37.2148 -37.2144 -37.2075 -37.2071
   -37.1820 -37.1813 -37.1775 -37.1768 -37.1688 -37.1676 -37.1620 -37.1611
   -37.1046 -37.1039 -37.0976 -37.0972 -37.0882 -37.0880 -37.0836 -37.0833
   -37.0572 -37.0571 -37.0496 -37.0494 -37.0444 -37.0444 -37.0379 -37.0378
   -36.9603 -36.9578 -36.9519 -36.9517 -36.9477 -36.9470 -36.9469 -36.9461
   -36.9459 -36.9457 -36.9453 -36.9451 -36.9415 -36.9415 -36.9364 -36.9362
     6.0730   7.1596   7.3192   7.5043   7.5211   7.5214   7.5522   7.5766
     7.5884   7.6514   7.7039   7.7436   7.7504   7.7510   7.9218   7.9619
     8.0804   8.0879   8.1104   8.1108   8.1430   8.1610   8.2331   8.3125
     8.3184   8.3711   8.4546   8.4659   8.4660   8.4776   8.4806   8.4848
     8.4876   8.5310   8.5526   8.5570   8.7126   8.7554   8.7631   8.7942
     8.8158   8.8434   8.8923   8.9934   8.9999   9.0121   9.0203   9.0449
     9.0695   9.1257   9.1510   9.1883   9.1975   9.3306   9.3368   9.3732
     9.3752   9.3791   9.4510   9.4561   9.4938   9.5459   9.5711   9.5790
     9.6328   9.7046   9.7308   9.7584   9.7675   9.7734   9.7763   9.7815
     9.8143   9.8526   9.8609   9.9008   9.9127   9.9171   9.9536  10.0107
    10.0332  10.0619  10.0665  10.1414  10.2159  10.2200  10.2225  10.2336
    10.2641  10.2767  10.3150  10.3844  10.4079  10.4644  10.5113  10.5234
    10.5946  10.6107  10.6295  10.6439  10.6729  10.6993  10.7120  10.7424
    10.7622  10.7632  10.7971  10.8116  10.8651  10.8920  10.9260  11.0096
    11.0788  11.0843  11.1079  11.1259  11.1359  11.1816  11.2098  11.2165
    11.2316  11.2747  11.2804  11.2997  11.3268  11.3328  11.3383  11.3753
    11.3813  11.4386  11.5231  11.5337  11.5421  11.5925  11.6005  11.6746
    11.6909  11.6914  11.6992  11.7080  11.7242  11.7427  11.7449  11.7882
    11.7930  11.8165  11.8650  11.8702  11.8744  11.8753  11.9185  11.9323
    11.9450  11.9743  11.9746  12.0560  12.0585  12.1557  12.1613  12.1655
    12.1964  12.2075  12.2119  12.2245  12.2891  12.5054  12.5831  12.6157
    12.7606  12.9885  12.9977  13.2440  13.4187  13.5178  13.6830  14.1765
    14.3749  14.3979  14.4820  14.8180  14.9630  15.5357  15.5998  15.7548
    15.9304  16.1932  16.2127  17.0666  17.2237  17.6010  17.6034  17.6241
    17.6339  17.7569  17.9105  18.0133  18.7786  18.9121  19.3782  19.3811
    19.5129  19.5493  19.7225  20.0240  20.3472  20.3754  20.5793  20.8088
    20.9759  21.0484  21.1092  21.5122  21.5348  21.5887  21.8261  21.9091
    22.1268  22.3361

          k = 0.0556 0.2778 0.1975 ( 46405 PWs)   bands (ev):

   -71.9454 -71.9336 -71.9245 -71.9206 -71.9198 -71.9172 -71.9148 -71.9131
   -71.9118 -71.9116 -71.9107 -71.9085 -71.9074 -71.9038 -71.9014 -71.9000
   -71.3567 -71.3567 -71.3490 -71.3490 -71.3436 -71.3436 -71.3429 -71.3429
   -71.3418 -71.3417 -71.3411 -71.3410 -71.3356 -71.3355 -71.3278 -71.3278
   -37.7751 -37.7737 -37.7711 -37.7702 -37.7604 -37.7599 -37.7574 -37.7376
   -37.7360 -37.7357 -37.7283 -37.7248 -37.7147 -37.7147 -37.6791 -37.6723
   -37.6565 -37.6557 -37.6361 -37.6299 -37.6296 -37.6275 -37.6263 -37.6255
   -37.6238 -37.6198 -37.6191 -37.6159 -37.6120 -37.6099 -37.6063 -37.5999
   -37.5792 -37.5741 -37.5716 -37.5669 -37.5600 -37.5581 -37.5547 -37.5514
   -37.5485 -37.5459 -37.5353 -37.5326 -37.5248 -37.5156 -37.5153 -37.5068
   -37.2259 -37.2245 -37.2202 -37.2180 -37.2148 -37.2144 -37.2075 -37.2072
   -37.1820 -37.1813 -37.1775 -37.1769 -37.1688 -37.1676 -37.1619 -37.1612
   -37.1046 -37.1039 -37.0976 -37.0972 -37.0882 -37.0880 -37.0835 -37.0833
   -37.0572 -37.0571 -37.0496 -37.0494 -37.0444 -37.0444 -37.0379 -37.0378
   -36.9602 -36.9579 -36.9519 -36.9517 -36.9477 -36.9471 -36.9469 -36.9461
   -36.9459 -36.9457 -36.9453 -36.9451 -36.9416 -36.9415 -36.9363 -36.9362
     6.0751   7.1610   7.3158   7.5045   7.5213   7.5217   7.5524   7.5770
     7.5886   7.6511   7.6977   7.7438   7.7506   7.7511   7.9218   7.9624
     8.0798   8.0867   8.1101   8.1107   8.1430   8.1642   8.2330   8.3126
     8.3179   8.3680   8.4541   8.4656   8.4660   8.4767   8.4796   8.4846
     8.4886   8.5300   8.5547   8.5552   8.7132   8.7552   8.7621   8.7942
     8.8149   8.8426   8.8922   8.9935   8.9996   9.0133   9.0195   9.0432
     9.0694   9.1263   9.1491   9.1880   9.1972   9.3308   9.3362   9.3731
     9.3790   9.3806   9.4509   9.4558   9.4959   9.5455   9.5712   9.5794
     9.6312   9.7045   9.7311   9.7590   9.7711   9.7720   9.7763   9.7810
     9.8168   9.8526   9.8606   9.9054   9.9125   9.9165   9.9533  10.0136
    10.0367  10.0653  10.0739  10.1399  10.2194  10.2253  10.2334  10.2351
    10.2639  10.2791  10.3145  10.3682  10.4130  10.4697  10.5124  10.5132
    10.5944  10.6111  10.6222  10.6277  10.6701  10.7007  10.7124  10.7407
    10.7572  10.7629  10.8014  10.8027  10.8705  10.8927  10.9276  11.0112
    11.0790  11.0937  11.1080  11.1211  11.1264  11.1635  11.2010  11.2253
    11.2347  11.2698  11.2793  11.2940  11.3282  11.3301  11.3382  11.3666
    11.3808  11.4623  11.5362  11.5429  11.5444  11.5898  11.6123  11.6706
    11.6931  11.6993  11.7063  11.7083  11.7207  11.7426  11.7518  11.7941
    11.7948  11.8371  11.8595  11.8648  11.8783  11.8809  11.9183  11.9349
    11.9454  11.9670  11.9767  12.0536  12.0593  12.1073  12.1553  12.1963
    12.2081  12.2119  12.2239  12.2264  12.2947  12.5056  12.5832  12.6371
    12.7101  12.9777  12.9903  13.1947  13.5149  13.5411  13.6687  13.8566
    14.3228  14.5213  14.5791  14.8884  15.0845  15.5508  15.6086  15.7285
    15.9483  16.1263  16.3327  16.7432  17.2370  17.2860  17.5545  17.6251
    17.6609  17.8401  18.0074  18.0667  18.4688  19.3373  19.3777  19.4722
    19.6621  19.7380  19.8514  20.0398  20.2980  20.4625  20.6324  21.0551
    21.0554  21.1275  21.2355  21.4461  21.4715  21.4745  21.6032  21.8259
    21.9284  22.0716

          k = 0.0556 0.2778 0.2765 ( 46418 PWs)   bands (ev):

   -71.9454 -71.9336 -71.9245 -71.9206 -71.9198 -71.9172 -71.9148 -71.9131
   -71.9118 -71.9116 -71.9107 -71.9085 -71.9074 -71.9038 -71.9014 -71.9000
   -71.3567 -71.3567 -71.3490 -71.3490 -71.3436 -71.3436 -71.3429 -71.3429
   -71.3418 -71.3417 -71.3411 -71.3410 -71.3356 -71.3355 -71.3278 -71.3278
   -37.7751 -37.7737 -37.7711 -37.7702 -37.7604 -37.7599 -37.7575 -37.7376
   -37.7361 -37.7357 -37.7283 -37.7249 -37.7147 -37.7147 -37.6791 -37.6723
   -37.6565 -37.6557 -37.6361 -37.6299 -37.6296 -37.6275 -37.6263 -37.6255
   -37.6238 -37.6198 -37.6191 -37.6159 -37.6119 -37.6099 -37.6063 -37.5999
   -37.5792 -37.5741 -37.5716 -37.5669 -37.5601 -37.5581 -37.5547 -37.5514
   -37.5485 -37.5459 -37.5353 -37.5326 -37.5248 -37.5156 -37.5153 -37.5068
   -37.2258 -37.2245 -37.2202 -37.2181 -37.2147 -37.2144 -37.2075 -37.2072
   -37.1820 -37.1813 -37.1775 -37.1769 -37.1687 -37.1676 -37.1619 -37.1612
   -37.1046 -37.1039 -37.0976 -37.0972 -37.0882 -37.0880 -37.0836 -37.0833
   -37.0572 -37.0571 -37.0496 -37.0494 -37.0445 -37.0444 -37.0379 -37.0378
   -36.9602 -36.9579 -36.9519 -36.9516 -36.9477 -36.9471 -36.9469 -36.9461
   -36.9460 -36.9457 -36.9453 -36.9451 -36.9416 -36.9415 -36.9363 -36.9362
     6.0770   7.1623   7.3127   7.5047   7.5214   7.5220   7.5525   7.5773
     7.5888   7.6507   7.6926   7.7440   7.7507   7.7513   7.9218   7.9629
     8.0793   8.0856   8.1098   8.1106   8.1431   8.1670   8.2329   8.3128
     8.3173   8.3654   8.4537   8.4653   8.4661   8.4763   8.4782   8.4845
     8.4894   8.5291   8.5536   8.5565   8.7137   8.7551   8.7612   8.7942
     8.8142   8.8418   8.8922   8.9936   8.9993   9.0143   9.0188   9.0418
     9.0693   9.1268   9.1475   9.1878   9.1969   9.3309   9.3357   9.3731
     9.3818   9.3823   9.4508   9.4556   9.4978   9.5451   9.5713   9.5796
     9.6298   9.7044   9.7314   9.7594   9.7706   9.7742   9.7763   9.7805
     9.8188   9.8527   9.8603   9.9095   9.9123   9.9160   9.9530  10.0161
    10.0400  10.0682  10.0806  10.1385  10.2225  10.2282  10.2332  10.2490
    10.2637  10.2813  10.3141  10.3541  10.4185  10.4750  10.5032  10.5131
    10.5942  10.6115  10.6133  10.6148  10.6682  10.7022  10.7128  10.7394
    10.7526  10.7635  10.7951  10.8044  10.8746  10.8930  10.9292  11.0126
    11.0791  11.1070  11.1078  11.1169  11.1178  11.1436  11.1930  11.2207
    11.2503  11.2655  11.2783  11.2890  11.3282  11.3294  11.3381  11.3602
    11.3806  11.4850  11.5436  11.5490  11.5495  11.5784  11.6349  11.6672
    11.6945  11.6990  11.7086  11.7177  11.7183  11.7420  11.7550  11.7973
    11.7997  11.8463  11.8531  11.8647  11.8808  11.8922  11.9180  11.9366
    11.9465  11.9590  11.9787  12.0523  12.0567  12.0601  12.1550  12.1962
    12.2088  12.2120  12.2233  12.2707  12.3336  12.5057  12.5833  12.6566
    12.6671  12.9670  12.9864  13.1530  13.5123  13.6122  13.6573  13.6605
    14.2786  14.6419  14.6713  14.9543  15.2033  15.3637  15.5643  15.7006
    16.0568  16.2119  16.4498  16.4960  17.0442  17.2489  17.5131  17.5903
    17.6368  17.7667  17.9976  18.2329  18.4416  19.2992  19.4914  19.7522
    19.7735  19.8074  20.0537  20.1669  20.3204  20.3511  20.5812  21.1032
    21.1641  21.1897  21.2693  21.3235  21.3363  21.4603  21.6825  21.9023
    22.0257  22.0669

          k = 0.0556 0.2778-0.3556 ( 46392 PWs)   bands (ev):

   -71.9454 -71.9336 -71.9245 -71.9206 -71.9198 -71.9172 -71.9148 -71.9131
   -71.9118 -71.9116 -71.9107 -71.9085 -71.9074 -71.9038 -71.9014 -71.9000
   -71.3567 -71.3567 -71.3490 -71.3490 -71.3436 -71.3436 -71.3429 -71.3429
   -71.3418 -71.3417 -71.3411 -71.3410 -71.3356 -71.3355 -71.3278 -71.3278
   -37.7751 -37.7737 -37.7711 -37.7702 -37.7604 -37.7598 -37.7575 -37.7376
   -37.7360 -37.7357 -37.7283 -37.7248 -37.7147 -37.7147 -37.6791 -37.6723
   -37.6565 -37.6557 -37.6361 -37.6299 -37.6295 -37.6275 -37.6263 -37.6255
   -37.6238 -37.6198 -37.6191 -37.6159 -37.6119 -37.6098 -37.6063 -37.5999
   -37.5792 -37.5741 -37.5716 -37.5669 -37.5600 -37.5581 -37.5547 -37.5514
   -37.5485 -37.5460 -37.5353 -37.5326 -37.5248 -37.5156 -37.5153 -37.5068
   -37.2258 -37.2245 -37.2202 -37.2180 -37.2147 -37.2144 -37.2075 -37.2072
   -37.1820 -37.1813 -37.1775 -37.1769 -37.1688 -37.1676 -37.1619 -37.1612
   -37.1045 -37.1039 -37.0976 -37.0971 -37.0882 -37.0880 -37.0836 -37.0833
   -37.0572 -37.0571 -37.0496 -37.0494 -37.0444 -37.0444 -37.0379 -37.0378
   -36.9601 -36.9579 -36.9519 -36.9517 -36.9477 -36.9471 -36.9469 -36.9461
   -36.9459 -36.9457 -36.9453 -36.9451 -36.9415 -36.9415 -36.9363 -36.9362
     6.0778   7.1628   7.3115   7.5048   7.5214   7.5221   7.5526   7.5774
     7.5889   7.6506   7.6906   7.7440   7.7508   7.7513   7.9219   7.9631
     8.0791   8.0852   8.1098   8.1106   8.1431   8.1680   8.2329   8.3128
     8.3171   8.3644   8.4536   8.4652   8.4662   8.4765   8.4774   8.4845
     8.4897   8.5287   8.5530   8.5572   8.7139   8.7550   8.7609   8.7943
     8.8139   8.8415   8.8921   8.9936   8.9992   9.0147   9.0186   9.0413
     9.0692   9.1271   9.1469   9.1877   9.1968   9.3310   9.3355   9.3730
     9.3823   9.3837   9.4508   9.4555   9.4985   9.5450   9.5714   9.5798
     9.6292   9.7044   9.7315   9.7596   9.7701   9.7755   9.7763   9.7804
     9.8196   9.8527   9.8601   9.9111   9.9123   9.9158   9.9529  10.0172
    10.0413  10.0694  10.0833  10.1379  10.2237  10.2295  10.2331  10.2546
    10.2636  10.2821  10.3139  10.3485  10.4211  10.4772  10.4988  10.5133
    10.5942  10.6075  10.6116  10.6117  10.6676  10.7028  10.7130  10.7390
    10.7510  10.7637  10.7921  10.8055  10.8762  10.8931  10.9298  11.0131
    11.0791  11.1077  11.1144  11.1153  11.1211  11.1272  11.1898  11.2191
    11.2564  11.2638  11.2779  11.2870  11.3276  11.3299  11.3381  11.3577
    11.3805  11.4949  11.5438  11.5501  11.5582  11.5704  11.6449  11.6659
    11.6950  11.6987  11.7086  11.7165  11.7229  11.7416  11.7560  11.7986
    11.8020  11.8409  11.8587  11.8646  11.8818  11.8972  11.9179  11.9371
    11.9478  11.9549  11.9795  12.0365  12.0519  12.0603  12.1549  12.1962
    12.2091  12.2120  12.2231  12.2758  12.3696  12.5057  12.5833  12.6503
    12.6644  12.9630  12.9850  13.1368  13.5112  13.5163  13.6530  13.7127
    14.2615  14.6943  14.7102  14.9817  15.2548  15.2692  15.5698  15.6879
    16.0260  16.3120  16.4009  16.5006  16.9512  17.2537  17.4972  17.5651
    17.6510  17.7280  17.9932  18.1423  18.6025  19.2844  19.4980  19.7580
    19.8221  20.0101  20.0548  20.2422  20.2729  20.3458  20.6448  20.9806
    21.0239  21.1960  21.3277  21.3390  21.3716  21.5339  21.7030  21.9386
    22.0131  22.0643

          k = 0.0556 0.3889 0.0395 ( 46389 PWs)   bands (ev):

   -71.9432 -71.9372 -71.9237 -71.9213 -71.9200 -71.9183 -71.9141 -71.9120
   -71.9107 -71.9104 -71.9094 -71.9091 -71.9082 -71.9035 -71.9026 -71.9007
   -71.3553 -71.3553 -71.3514 -71.3514 -71.3435 -71.3435 -71.3431 -71.3431
   -71.3415 -71.3415 -71.3412 -71.3412 -71.3331 -71.3331 -71.3292 -71.3292
   -37.7667 -37.7657 -37.7618 -37.7610 -37.7535 -37.7530 -37.7515 -37.7457
   -37.7435 -37.7434 -37.7413 -37.7355 -37.7324 -37.7284 -37.6804 -37.6766
   -37.6493 -37.6447 -37.6378 -37.6326 -37.6293 -37.6281 -37.6279 -37.6270
   -37.6251 -37.6214 -37.6156 -37.6113 -37.6060 -37.6045 -37.6024 -37.5974
   -37.5876 -37.5829 -37.5587 -37.5550 -37.5541 -37.5533 -37.5531 -37.5482
   -37.5453 -37.5410 -37.5394 -37.5335 -37.5323 -37.5262 -37.5208 -37.5136
   -37.2187 -37.2170 -37.2108 -37.2087 -37.2083 -37.2081 -37.1988 -37.1982
   -37.1964 -37.1951 -37.1897 -37.1889 -37.1846 -37.1829 -37.1758 -37.1749
   -37.0906 -37.0899 -37.0816 -37.0813 -37.0756 -37.0755 -37.0689 -37.0687
   -37.0664 -37.0661 -37.0559 -37.0559 -37.0545 -37.0545 -37.0456 -37.0456
   -36.9585 -36.9567 -36.9541 -36.9537 -36.9476 -36.9473 -36.9467 -36.9462
   -36.9459 -36.9458 -36.9451 -36.9450 -36.9399 -36.9398 -36.9373 -36.9371
     6.2726   6.8315   7.4728   7.5833   7.6050   7.6389   7.6411   7.6639
     7.6868   7.7153   7.7692   7.8144   7.8308   7.8485   7.8549   7.8590
     7.8712   7.9077   7.9472   7.9533   8.0164   8.0727   8.1158   8.1958
     8.2939   8.4218   8.4699   8.4725   8.4868   8.4969   8.5065   8.5220
     8.5676   8.5774   8.5880   8.5897   8.6022   8.7124   8.7669   8.7732
     8.7936   8.8316   8.8689   8.8788   8.9054   8.9297   8.9628   8.9768
     8.9825   9.0244   9.1967   9.2531   9.3271   9.3573   9.3756   9.3939
     9.4168   9.4577   9.5363   9.5412   9.5421   9.5648   9.5858   9.5877
     9.6833   9.6979   9.7586   9.7659   9.7665   9.8004   9.8047   9.8057
     9.8095   9.8128   9.8263   9.8723   9.8788   9.9608   9.9662   9.9842
     9.9968  10.0023  10.0521  10.0613  10.0711  10.1337  10.1373  10.1790
    10.2175  10.2224  10.4386  10.4613  10.4662  10.4918  10.5357  10.5599
    10.5922  10.6326  10.6458  10.6839  10.7229  10.7265  10.7373  10.7385
    10.7547  10.7549  10.8144  10.8206  10.9574  10.9700  10.9963  11.0223
    11.0225  11.0591  11.1324  11.1570  11.1585  11.1954  11.1964  11.2216
    11.2628  11.2715  11.2807  11.2835  11.3861  11.4224  11.4489  11.4788
    11.5161  11.5325  11.5535  11.5612  11.5687  11.5900  11.6192  11.6234
    11.6484  11.6556  11.6953  11.7097  11.7222  11.7570  11.7815  11.7989
    11.8030  11.8171  11.8272  11.8410  11.8633  11.8646  11.8802  11.9054
    11.9424  11.9585  11.9790  11.9892  11.9989  12.0189  12.0564  12.1404
    12.2328  12.2399  12.2456  12.2976  12.2985  12.3860  12.4290  12.6139
    12.7949  12.8680  12.9303  13.1081  13.2548  13.3287  13.5328  14.3454
    14.4058  14.7692  14.8427  14.9015  14.9157  15.1374  15.7278  15.7295
    16.5070  16.7468  16.7829  16.8465  16.8810  17.3753  17.7500  17.7600
    18.0417  18.1163  18.2128  18.3082  18.5575  18.6373  18.7064  19.0137
    19.0206  19.1577  19.7178  19.8361  20.1921  20.4331  20.4497  20.6414
    20.8016  20.8049  20.8508  21.0123  21.1448  21.4543  21.5684  21.9692
    22.0644  22.1226

          k = 0.0556 0.3889 0.1185 ( 46426 PWs)   bands (ev):

   -71.9432 -71.9372 -71.9237 -71.9213 -71.9200 -71.9183 -71.9141 -71.9120
   -71.9107 -71.9104 -71.9094 -71.9091 -71.9082 -71.9035 -71.9026 -71.9007
   -71.3553 -71.3553 -71.3514 -71.3514 -71.3435 -71.3435 -71.3431 -71.3431
   -71.3415 -71.3415 -71.3412 -71.3412 -71.3331 -71.3331 -71.3292 -71.3292
   -37.7668 -37.7657 -37.7618 -37.7610 -37.7536 -37.7530 -37.7515 -37.7457
   -37.7435 -37.7434 -37.7413 -37.7355 -37.7324 -37.7284 -37.6804 -37.6765
   -37.6493 -37.6447 -37.6379 -37.6326 -37.6293 -37.6281 -37.6280 -37.6271
   -37.6251 -37.6215 -37.6156 -37.6113 -37.6060 -37.6046 -37.6024 -37.5974
   -37.5877 -37.5829 -37.5587 -37.5550 -37.5541 -37.5533 -37.5531 -37.5482
   -37.5453 -37.5410 -37.5395 -37.5335 -37.5323 -37.5262 -37.5208 -37.5136
   -37.2187 -37.2170 -37.2108 -37.2086 -37.2084 -37.2080 -37.1989 -37.1982
   -37.1964 -37.1952 -37.1898 -37.1890 -37.1846 -37.1829 -37.1757 -37.1749
   -37.0906 -37.0899 -37.0816 -37.0813 -37.0756 -37.0755 -37.0689 -37.0687
   -37.0664 -37.0662 -37.0560 -37.0559 -37.0545 -37.0545 -37.0456 -37.0456
   -36.9585 -36.9567 -36.9540 -36.9537 -36.9476 -36.9473 -36.9467 -36.9463
   -36.9460 -36.9458 -36.9452 -36.9451 -36.9400 -36.9398 -36.9373 -36.9371
     6.2739   6.8326   7.4709   7.5834   7.6051   7.6389   7.6411   7.6640
     7.6869   7.7152   7.7691   7.8145   7.8309   7.8444   7.8551   7.8589
     7.8701   7.9074   7.9471   7.9531   8.0165   8.0727   8.1158   8.1925
     8.2956   8.4222   8.4704   8.4726   8.4880   8.4961   8.5065   8.5216
     8.5672   8.5780   8.5880   8.5895   8.6011   8.7117   8.7657   8.7731
     8.7945   8.8310   8.8684   8.8783   8.9052   8.9286   8.9625   8.9760
     8.9824   9.0244   9.1973   9.2529   9.3276   9.3572   9.3759   9.3951
     9.4168   9.4579   9.5385   9.5414   9.5421   9.5652   9.5883   9.5906
     9.6833   9.6974   9.7617   9.7661   9.7666   9.8002   9.8043   9.8056
     9.8095   9.8171   9.8270   9.8724   9.8794   9.9613   9.9692   9.9852
     9.9981  10.0116  10.0534  10.0620  10.0705  10.1362  10.1373  10.1789
    10.2174  10.2237  10.4384  10.4588  10.4626  10.4933  10.5368  10.5597
    10.5873  10.6310  10.6457  10.6836  10.7223  10.7263  10.7290  10.7364
    10.7458  10.7503  10.8150  10.8219  10.9526  10.9623  10.9681  11.0141
    11.0335  11.0609  11.1312  11.1564  11.1590  11.1938  11.1943  11.2205
    11.2602  11.2725  11.2810  11.3072  11.3832  11.4308  11.4489  11.4779
    11.5144  11.5327  11.5584  11.5687  11.5715  11.5789  11.6170  11.6230
    11.6667  11.6701  11.7033  11.7151  11.7229  11.7592  11.7825  11.8002
    11.8020  11.8149  11.8176  11.8411  11.8622  11.8649  11.8802  11.8996
    11.9365  11.9597  11.9780  11.9809  11.9865  11.9999  12.0565  12.1403
    12.2327  12.2396  12.2617  12.2977  12.3467  12.3870  12.4291  12.6129
    12.7648  12.8498  13.0057  13.1074  13.2668  13.2990  13.5148  14.4207
    14.4750  14.5524  14.7794  14.9612  14.9886  15.1025  15.4407  16.0481
    16.4774  16.7487  16.7526  16.9541  17.0828  17.1111  17.5464  17.7586
    17.9592  17.9714  18.2026  18.4314  18.6291  18.6554  18.9248  19.0288
    19.1902  19.2510  19.4578  19.8037  20.3648  20.4476  20.5327  20.7889
    20.8571  20.8853  20.9268  20.9353  21.1757  21.2693  21.6604  21.7581
    22.0240  22.1646

          k = 0.0556 0.3889 0.1975 ( 46428 PWs)   bands (ev):

   -71.9432 -71.9372 -71.9237 -71.9213 -71.9200 -71.9183 -71.9141 -71.9120
   -71.9107 -71.9104 -71.9094 -71.9091 -71.9082 -71.9035 -71.9026 -71.9007
   -71.3553 -71.3553 -71.3514 -71.3514 -71.3435 -71.3435 -71.3431 -71.3431
   -71.3415 -71.3415 -71.3412 -71.3412 -71.3331 -71.3331 -71.3292 -71.3292
   -37.7668 -37.7657 -37.7618 -37.7610 -37.7536 -37.7530 -37.7516 -37.7458
   -37.7435 -37.7434 -37.7413 -37.7355 -37.7323 -37.7285 -37.6805 -37.6765
   -37.6493 -37.6447 -37.6379 -37.6326 -37.6293 -37.6281 -37.6279 -37.6270
   -37.6251 -37.6215 -37.6156 -37.6113 -37.6060 -37.6045 -37.6023 -37.5974
   -37.5877 -37.5829 -37.5587 -37.5550 -37.5541 -37.5533 -37.5531 -37.5482
   -37.5453 -37.5410 -37.5394 -37.5335 -37.5322 -37.5262 -37.5208 -37.5136
   -37.2187 -37.2170 -37.2108 -37.2086 -37.2084 -37.2080 -37.1989 -37.1983
   -37.1964 -37.1952 -37.1897 -37.1890 -37.1846 -37.1829 -37.1757 -37.1749
   -37.0905 -37.0900 -37.0816 -37.0813 -37.0756 -37.0755 -37.0689 -37.0687
   -37.0664 -37.0662 -37.0560 -37.0559 -37.0545 -37.0544 -37.0456 -37.0456
   -36.9585 -36.9568 -36.9540 -36.9537 -36.9476 -36.9473 -36.9467 -36.9462
   -36.9459 -36.9458 -36.9451 -36.9451 -36.9400 -36.9398 -36.9373 -36.9371
     6.2760   6.8343   7.4680   7.5835   7.6054   7.6390   7.6412   7.6642
     7.6870   7.7151   7.7688   7.8146   7.8310   7.8383   7.8556   7.8588
     7.8683   7.9071   7.9471   7.9530   8.0166   8.0726   8.1157   8.1876
     8.2980   8.4229   8.4713   8.4729   8.4899   8.4949   8.5065   8.5211
     8.5667   8.5787   8.5878   8.5891   8.5995   8.7107   8.7640   8.7730
     8.7959   8.8303   8.8677   8.8775   8.9050   8.9269   8.9620   8.9746
     8.9823   9.0244   9.1982   9.2527   9.3283   9.3569   9.3764   9.3968
     9.4168   9.4583   9.5417   9.5418   9.5420   9.5659   9.5893   9.5982
     9.6833   9.6966   9.7660   9.7669   9.7669   9.8000   9.8037   9.8054
     9.8095   9.8236   9.8282   9.8725   9.8803   9.9620   9.9738   9.9866
    10.0000  10.0261  10.0555  10.0633  10.0697  10.1371  10.1402  10.1787
    10.2172  10.2256  10.4377  10.4479  10.4650  10.4957  10.5381  10.5595
    10.5792  10.6282  10.6456  10.6830  10.7167  10.7215  10.7260  10.7326
    10.7351  10.7439  10.8161  10.8230  10.9374  10.9452  10.9506  11.0014
    11.0394  11.0633  11.1294  11.1554  11.1598  11.1911  11.1914  11.2186
    11.2563  11.2741  11.2774  11.3511  11.3800  11.4425  11.4490  11.4772
    11.5099  11.5331  11.5542  11.5671  11.5687  11.5984  11.6137  11.6219
    11.6916  11.6918  11.7160  11.7239  11.7245  11.7623  11.7834  11.7943
    11.8000  11.8022  11.8184  11.8412  11.8603  11.8653  11.8804  11.8906
    11.9261  11.9309  11.9612  11.9749  11.9837  12.0016  12.0567  12.1402
    12.2325  12.2392  12.2665  12.2977  12.3888  12.4292  12.4473  12.6112
    12.7207  12.8241  13.1063  13.1267  13.2556  13.2857  13.4890  14.2366
    14.5436  14.5872  14.7955  15.0511  15.0575  15.1076  15.1222  16.4084
    16.4232  16.5980  16.6984  16.7990  17.0733  17.2707  17.4880  17.7721
    17.8500  17.8737  18.1832  18.4993  18.6435  18.7460  19.0347  19.1191
    19.1674  19.3946  19.4446  19.7557  20.5370  20.6621  20.6691  20.7637
    20.7999  20.8140  20.8173  21.0894  21.2201  21.2890  21.7357  21.8131
    22.1258  22.1832

          k = 0.0556 0.3889 0.2765 ( 46441 PWs)   bands (ev):

   -71.9432 -71.9372 -71.9237 -71.9213 -71.9200 -71.9183 -71.9141 -71.9120
[...]
    12.8039  12.8039  12.8039  12.8039  15.4640  15.4640  15.4640  15.4640
    15.4640  15.4640  15.4640  15.4640  15.9647  15.9647  15.9647  15.9647
    16.6285  16.6285  16.6285  16.6285  16.6285  16.6285  16.6285  16.6285
    17.1809  17.1809  17.1809  17.1809  18.4874  18.4874  18.4874  18.4874
    18.4874  18.4874  18.4874  18.4874  20.8068  20.8068  20.8068  20.8068
    21.4892  21.4892  21.4892  21.4892  21.4892  21.4892  21.4892  21.4892
    22.2751  22.2751

          k =-0.5000-0.5000 0.1185 ( 46396 PWs)   bands (ev):

   -71.9348 -71.9348 -71.9348 -71.9348 -71.9121 -71.9120 -71.9120 -71.9120
   -71.9072 -71.9072 -71.9071 -71.9071 -71.9071 -71.9071 -71.9071 -71.9071
   -71.3503 -71.3503 -71.3503 -71.3503 -71.3503 -71.3503 -71.3503 -71.3502
   -71.3343 -71.3343 -71.3343 -71.3343 -71.3343 -71.3343 -71.3343 -71.3342
   -37.7599 -37.7599 -37.7598 -37.7598 -37.7598 -37.7598 -37.7598 -37.7598
   -37.7462 -37.7462 -37.7462 -37.7462 -37.6958 -37.6958 -37.6958 -37.6958
   -37.6346 -37.6346 -37.6346 -37.6346 -37.6346 -37.6346 -37.6346 -37.6346
   -37.5947 -37.5947 -37.5947 -37.5947 -37.5933 -37.5933 -37.5933 -37.5933
   -37.5933 -37.5933 -37.5933 -37.5933 -37.5710 -37.5710 -37.5710 -37.5710
   -37.5516 -37.5516 -37.5516 -37.5516 -37.5019 -37.5019 -37.5019 -37.5019
   -37.2249 -37.2249 -37.2249 -37.2249 -37.2249 -37.2249 -37.2249 -37.2249
   -37.1413 -37.1413 -37.1412 -37.1412 -37.1388 -37.1388 -37.1388 -37.1388
   -37.1264 -37.1264 -37.1264 -37.1264 -37.1264 -37.1264 -37.1264 -37.1264
   -37.0379 -37.0379 -37.0379 -37.0379 -37.0377 -37.0377 -37.0377 -37.0377
   -36.9531 -36.9531 -36.9531 -36.9531 -36.9525 -36.9525 -36.9525 -36.9525
   -36.9406 -36.9406 -36.9406 -36.9406 -36.9406 -36.9406 -36.9406 -36.9405
     6.9884   6.9884   6.9885   6.9885   7.6102   7.6102   7.6102   7.6102
     7.9433   7.9433   7.9433   7.9433   7.9433   7.9433   7.9433   7.9434
     8.0588   8.0588   8.0588   8.0588   8.1120   8.1121   8.1121   8.1121
     8.1121   8.1121   8.1121   8.1121   8.2046   8.2046   8.2046   8.2046
     8.4968   8.4968   8.4968   8.4968   8.8171   8.8171   8.8171   8.8171
     8.8171   8.8171   8.8171   8.8171   9.1177   9.1177   9.1178   9.1178
     9.1178   9.1178   9.1178   9.1178   9.2836   9.2837   9.2837   9.2837
     9.5044   9.5044   9.5044   9.5044   9.7513   9.7513   9.7513   9.7513
     9.8554   9.8554   9.8554   9.8554   9.8931   9.8931   9.8931   9.8931
     9.9450   9.9450   9.9450   9.9450  10.0836  10.0836  10.0836  10.0836
    10.0836  10.0836  10.0836  10.0836  10.1278  10.1279  10.1279  10.1279
    10.4055  10.4055  10.4055  10.4055  10.5196  10.5196  10.5196  10.5196
    10.6625  10.6625  10.6625  10.6625  10.6625  10.6625  10.6625  10.6625
    10.6938  10.6938  10.6938  10.6938  10.6938  10.6938  10.6938  10.6938
    10.7466  10.7466  10.7466  10.7466  10.9677  10.9677  10.9677  10.9677
    11.2595  11.2595  11.2595  11.2595  11.2736  11.2736  11.2736  11.2736
    11.2736  11.2736  11.2736  11.2736  11.4504  11.4504  11.4504  11.4504
    11.5354  11.5354  11.5354  11.5354  11.7383  11.7383  11.7383  11.7383
    11.8695  11.8695  11.8695  11.8695  11.8695  11.8695  11.8695  11.8695
    12.1541  12.1541  12.1541  12.1541  12.2143  12.2143  12.2143  12.2143
    12.2143  12.2143  12.2143  12.2143  12.2243  12.2243  12.2243  12.2243
    12.8955  12.8955  12.8955  12.8955  15.4693  15.4693  15.4693  15.4693
    15.4693  15.4693  15.4693  15.4693  15.6795  15.6795  15.6795  15.6795
    16.6096  16.6096  16.6096  16.6096  16.6096  16.6096  16.6096  16.6096
    17.5179  17.5179  17.5179  17.5179  18.5313  18.5313  18.5313  18.5313
    18.5313  18.5313  18.5313  18.5313  20.8162  20.8162  20.8162  20.8162
    21.2641  21.2641  21.2641  21.2641  21.2641  21.2641  21.2641  21.2641
    21.9874  21.9874

          k =-0.5000-0.5000 0.1975 ( 46424 PWs)   bands (ev):

   -71.9348 -71.9348 -71.9348 -71.9348 -71.9121 -71.9120 -71.9120 -71.9120
   -71.9072 -71.9072 -71.9071 -71.9071 -71.9071 -71.9071 -71.9071 -71.9071
   -71.3503 -71.3503 -71.3503 -71.3503 -71.3503 -71.3503 -71.3503 -71.3502
   -71.3343 -71.3343 -71.3343 -71.3343 -71.3343 -71.3343 -71.3343 -71.3342
   -37.7599 -37.7599 -37.7599 -37.7598 -37.7598 -37.7598 -37.7598 -37.7598
   -37.7462 -37.7462 -37.7462 -37.7462 -37.6958 -37.6958 -37.6958 -37.6958
   -37.6346 -37.6346 -37.6346 -37.6346 -37.6346 -37.6346 -37.6346 -37.6346
   -37.5947 -37.5947 -37.5947 -37.5947 -37.5933 -37.5933 -37.5933 -37.5933
   -37.5933 -37.5933 -37.5933 -37.5933 -37.5711 -37.5710 -37.5710 -37.5710
   -37.5516 -37.5516 -37.5516 -37.5516 -37.5020 -37.5020 -37.5020 -37.5019
   -37.2249 -37.2249 -37.2249 -37.2249 -37.2249 -37.2249 -37.2249 -37.2248
   -37.1413 -37.1413 -37.1413 -37.1413 -37.1388 -37.1388 -37.1388 -37.1388
   -37.1264 -37.1264 -37.1264 -37.1264 -37.1264 -37.1264 -37.1264 -37.1264
   -37.0379 -37.0379 -37.0379 -37.0379 -37.0378 -37.0378 -37.0378 -37.0378
   -36.9532 -36.9531 -36.9531 -36.9531 -36.9525 -36.9525 -36.9525 -36.9525
   -36.9406 -36.9406 -36.9406 -36.9406 -36.9406 -36.9406 -36.9406 -36.9405
     6.9892   6.9893   6.9893   6.9893   7.6090   7.6090   7.6090   7.6090
     7.9433   7.9433   7.9433   7.9433   7.9433   7.9433   7.9433   7.9433
     8.0565   8.0565   8.0565   8.0565   8.1118   8.1118   8.1118   8.1118
     8.1118   8.1118   8.1118   8.1118   8.2078   8.2078   8.2078   8.2078
     8.4959   8.4960   8.4960   8.4960   8.8180   8.8180   8.8180   8.8180
     8.8180   8.8180   8.8180   8.8180   9.1172   9.1172   9.1172   9.1172
     9.1172   9.1172   9.1172   9.1172   9.2849   9.2849   9.2849   9.2849
     9.5041   9.5041   9.5042   9.5042   9.7514   9.7514   9.7514   9.7514
     9.8531   9.8531   9.8531   9.8531   9.8930   9.8930   9.8930   9.8931
     9.9523   9.9523   9.9523   9.9523  10.0835  10.0835  10.0835  10.0835
    10.0835  10.0835  10.0835  10.0835  10.1278  10.1278  10.1278  10.1278
    10.4000  10.4000  10.4000  10.4001  10.5261  10.5261  10.5261  10.5261
    10.6633  10.6633  10.6633  10.6633  10.6633  10.6633  10.6633  10.6633
    10.6958  10.6958  10.6958  10.6958  10.6958  10.6958  10.6958  10.6958
    10.7467  10.7467  10.7467  10.7467  10.9677  10.9677  10.9677  10.9677
    11.2643  11.2643  11.2643  11.2643  11.2648  11.2648  11.2648  11.2648
    11.2648  11.2648  11.2648  11.2649  11.3906  11.3906  11.3906  11.3906
    11.5354  11.5354  11.5354  11.5354  11.7380  11.7380  11.7380  11.7380
    11.8752  11.8752  11.8752  11.8752  11.8752  11.8753  11.8753  11.8753
    12.1543  12.1543  12.1543  12.1543  12.2151  12.2151  12.2151  12.2151
    12.2151  12.2151  12.2151  12.2151  12.2242  12.2242  12.2242  12.2242
    13.0419  13.0419  13.0419  13.0419  15.3484  15.3484  15.3484  15.3484
    15.4777  15.4777  15.4777  15.4777  15.4777  15.4777  15.4777  15.4777
    16.5813  16.5813  16.5813  16.5813  16.5813  16.5813  16.5813  16.5813
    17.9445  17.9445  17.9445  17.9445  18.6015  18.6015  18.6015  18.6015
    18.6015  18.6015  18.6015  18.6015  20.8303  20.8303  20.8303  20.8303
    21.0138  21.0138  21.0139  21.0139  21.0139  21.0139  21.0139  21.0139
    21.5283  21.5283

          k =-0.5000-0.5000 0.2765 ( 46432 PWs)   bands (ev):

   -71.9348 -71.9348 -71.9348 -71.9348 -71.9121 -71.9120 -71.9120 -71.9120
   -71.9072 -71.9072 -71.9071 -71.9071 -71.9071 -71.9071 -71.9071 -71.9071
   -71.3503 -71.3503 -71.3503 -71.3503 -71.3503 -71.3503 -71.3503 -71.3502
   -71.3343 -71.3343 -71.3343 -71.3343 -71.3343 -71.3343 -71.3343 -71.3342
   -37.7598 -37.7598 -37.7598 -37.7598 -37.7598 -37.7598 -37.7598 -37.7598
   -37.7462 -37.7462 -37.7462 -37.7462 -37.6957 -37.6957 -37.6957 -37.6957
   -37.6346 -37.6346 -37.6346 -37.6346 -37.6346 -37.6346 -37.6346 -37.6346
   -37.5947 -37.5947 -37.5947 -37.5947 -37.5933 -37.5933 -37.5933 -37.5933
   -37.5933 -37.5933 -37.5933 -37.5933 -37.5711 -37.5710 -37.5710 -37.5710
   -37.5517 -37.5517 -37.5517 -37.5517 -37.5020 -37.5020 -37.5020 -37.5020
   -37.2248 -37.2248 -37.2248 -37.2248 -37.2248 -37.2248 -37.2248 -37.2248
   -37.1413 -37.1413 -37.1413 -37.1412 -37.1389 -37.1389 -37.1389 -37.1389
   -37.1264 -37.1264 -37.1264 -37.1264 -37.1264 -37.1264 -37.1264 -37.1264
   -37.0379 -37.0379 -37.0379 -37.0379 -37.0378 -37.0378 -37.0378 -37.0378
   -36.9531 -36.9531 -36.9531 -36.9531 -36.9525 -36.9525 -36.9525 -36.9524
   -36.9407 -36.9406 -36.9406 -36.9406 -36.9406 -36.9406 -36.9406 -36.9405
     6.9900   6.9900   6.9900   6.9900   7.6079   7.6079   7.6080   7.6080
     7.9433   7.9433   7.9433   7.9433   7.9433   7.9433   7.9433   7.9433
     8.0544   8.0544   8.0545   8.0545   8.1116   8.1116   8.1116   8.1116
     8.1116   8.1116   8.1116   8.1116   8.2106   8.2106   8.2106   8.2106
     8.4952   8.4952   8.4952   8.4952   8.8189   8.8189   8.8189   8.8189
     8.8189   8.8189   8.8189   8.8189   9.1167   9.1167   9.1167   9.1167
     9.1167   9.1167   9.1167   9.1167   9.2860   9.2860   9.2860   9.2860
     9.5040   9.5040   9.5040   9.5040   9.7515   9.7515   9.7515   9.7515
     9.8513   9.8513   9.8513   9.8513   9.8930   9.8930   9.8930   9.8931
     9.9586   9.9586   9.9586   9.9586  10.0834  10.0835  10.0835  10.0835
    10.0835  10.0835  10.0835  10.0835  10.1277  10.1278  10.1278  10.1278
    10.3953  10.3953  10.3953  10.3953  10.5319  10.5319  10.5319  10.5319
    10.6639  10.6639  10.6639  10.6639  10.6639  10.6639  10.6639  10.6639
    10.6976  10.6976  10.6976  10.6976  10.6976  10.6976  10.6976  10.6976
    10.7468  10.7468  10.7468  10.7468  10.9677  10.9677  10.9677  10.9677
    11.2572  11.2572  11.2572  11.2572  11.2572  11.2572  11.2572  11.2572
    11.2745  11.2746  11.2746  11.2746  11.3362  11.3362  11.3362  11.3362
    11.5355  11.5355  11.5355  11.5355  11.7378  11.7378  11.7378  11.7378
    11.8801  11.8802  11.8802  11.8802  11.8802  11.8802  11.8802  11.8802
    12.1544  12.1544  12.1544  12.1544  12.2158  12.2158  12.2158  12.2158
    12.2158  12.2158  12.2159  12.2159  12.2242  12.2242  12.2242  12.2242
    13.1830  13.1830  13.1830  13.1830  15.0910  15.0910  15.0910  15.0910
    15.4852  15.4852  15.4852  15.4852  15.4852  15.4852  15.4852  15.4852
    16.5568  16.5568  16.5568  16.5568  16.5568  16.5568  16.5568  16.5568
    18.3131  18.3131  18.3131  18.3131  18.6670  18.6670  18.6670  18.6670
    18.6670  18.6670  18.6670  18.6670  20.8324  20.8324  20.8324  20.8324
    20.8324  20.8324  20.8324  20.8324  20.8385  20.8385  20.8386  20.8386
    21.1235  21.1235

          k =-0.5000-0.5000-0.3556 ( 46480 PWs)   bands (ev):

   -71.9348 -71.9348 -71.9348 -71.9348 -71.9121 -71.9120 -71.9120 -71.9120
   -71.9072 -71.9072 -71.9071 -71.9071 -71.9071 -71.9071 -71.9071 -71.9071
   -71.3503 -71.3503 -71.3503 -71.3503 -71.3503 -71.3503 -71.3503 -71.3502
   -71.3343 -71.3343 -71.3343 -71.3343 -71.3343 -71.3343 -71.3343 -71.3342
   -37.7598 -37.7598 -37.7598 -37.7598 -37.7598 -37.7598 -37.7598 -37.7598
   -37.7462 -37.7462 -37.7462 -37.7462 -37.6958 -37.6958 -37.6958 -37.6958
   -37.6346 -37.6346 -37.6346 -37.6346 -37.6346 -37.6346 -37.6346 -37.6346
   -37.5948 -37.5948 -37.5947 -37.5947 -37.5933 -37.5933 -37.5933 -37.5933
   -37.5933 -37.5933 -37.5933 -37.5933 -37.5711 -37.5711 -37.5711 -37.5711
   -37.5517 -37.5517 -37.5517 -37.5517 -37.5020 -37.5020 -37.5020 -37.5020
   -37.2248 -37.2248 -37.2248 -37.2248 -37.2248 -37.2248 -37.2248 -37.2248
   -37.1413 -37.1413 -37.1413 -37.1413 -37.1389 -37.1389 -37.1389 -37.1389
   -37.1264 -37.1264 -37.1264 -37.1264 -37.1264 -37.1264 -37.1264 -37.1264
   -37.0379 -37.0379 -37.0379 -37.0379 -37.0379 -37.0379 -37.0379 -37.0379
   -36.9532 -36.9532 -36.9532 -36.9532 -36.9525 -36.9524 -36.9524 -36.9524
   -36.9407 -36.9406 -36.9406 -36.9406 -36.9406 -36.9406 -36.9406 -36.9405
     6.9902   6.9902   6.9902   6.9902   7.6075   7.6075   7.6075   7.6075
     7.9433   7.9433   7.9433   7.9433   7.9433   7.9433   7.9433   7.9433
     8.0537   8.0537   8.0537   8.0537   8.1115   8.1115   8.1115   8.1115
     8.1115   8.1115   8.1115   8.1115   8.2116   8.2116   8.2116   8.2116
     8.4950   8.4950   8.4950   8.4950   8.8192   8.8192   8.8192   8.8192
     8.8192   8.8192   8.8192   8.8192   9.1165   9.1165   9.1165   9.1165
     9.1165   9.1165   9.1165   9.1165   9.2864   9.2864   9.2864   9.2864
     9.5039   9.5039   9.5039   9.5039   9.7515   9.7515   9.7515   9.7515
     9.8506   9.8506   9.8507   9.8507   9.8930   9.8930   9.8930   9.8930
     9.9611   9.9611   9.9611   9.9611  10.0834  10.0834  10.0834  10.0834
    10.0834  10.0834  10.0834  10.0834  10.1277  10.1277  10.1277  10.1277
    10.3934  10.3934  10.3934  10.3934  10.5342  10.5342  10.5342  10.5342
    10.6642  10.6642  10.6642  10.6642  10.6642  10.6642  10.6642  10.6642
    10.6984  10.6984  10.6984  10.6984  10.6984  10.6984  10.6984  10.6984
    10.7468  10.7469  10.7469  10.7469  10.9677  10.9677  10.9677  10.9677
    11.2542  11.2542  11.2542  11.2542  11.2542  11.2542  11.2542  11.2542
    11.2895  11.2896  11.2896  11.2896  11.3045  11.3045  11.3045  11.3045
    11.5355  11.5355  11.5355  11.5355  11.7377  11.7377  11.7377  11.7377
    11.8821  11.8821  11.8821  11.8821  11.8821  11.8821  11.8821  11.8821
    12.1545  12.1545  12.1545  12.1545  12.2162  12.2162  12.2162  12.2162
    12.2162  12.2162  12.2162  12.2162  12.2242  12.2242  12.2242  12.2242
    13.2442  13.2442  13.2442  13.2442  14.9909  14.9909  14.9909  14.9909
    15.4883  15.4883  15.4883  15.4883  15.4883  15.4883  15.4883  15.4883
    16.5473  16.5473  16.5473  16.5473  16.5473  16.5473  16.5473  16.5473
    18.4696  18.4696  18.4696  18.4696  18.6941  18.6941  18.6941  18.6941
    18.6941  18.6941  18.6941  18.6941  20.7660  20.7660  20.7660  20.7660
    20.7661  20.7661  20.7661  20.7661  20.8289  20.8289  20.8299  20.8300
    20.9658  20.9658

     the Fermi energy is    12.2261 ev

!    total energy              =  -16384.06009284 Ry

     total all-electron energy =   -322944.913800 Ry
     estimated scf accuracy    <       0.00000085 Ry
     smearing contrib. (-TS)   =       0.12312565 Ry
     internal energy E=F+TS    =  -16384.18321849 Ry

     The total energy is F=E-TS. E is the sum of the following terms:
     one-electron contribution =   -8617.71330618 Ry
     hartree contribution      =    4582.38336716 Ry
     xc contribution           =    -985.36631172 Ry
     ewald contribution        =   -3196.15728242 Ry
     one-center paw contrib.   =   -8167.32968534 Ry

     convergence has been achieved in  22 iterations

     Forces acting on atoms (cartesian axes, Ry/au):

     atom    1 type  1   force =     0.00000000    0.00000000    0.00334099
     atom    2 type  1   force =     0.00000112    0.00000112    0.00331101
     atom    3 type  1   force =    -0.00000008    0.00000000   -0.00350242
     atom    4 type  1   force =     0.00000000   -0.00000008   -0.00350242
     atom    5 type  1   force =     0.00000000    0.00000000    0.00345083
     atom    6 type  1   force =     0.00004103    0.00004103    0.00346967
     atom    7 type  1   force =     0.00001280    0.00000000   -0.00324393
     atom    8 type  1   force =     0.00000000    0.00001280   -0.00324393
     atom    9 type  1   force =     0.00000000    0.00000000    0.00329987
     atom   10 type  1   force =     0.00000112   -0.00000112    0.00331101
     atom   11 type  1   force =    -0.00002274    0.00000000   -0.00348884
     atom   12 type  1   force =     0.00000000    0.00000008   -0.00350242
     atom   13 type  1   force =     0.00000000    0.00000000    0.00343463
     atom   14 type  1   force =     0.00004103   -0.00004103    0.00346967
     atom   15 type  1   force =     0.00001701    0.00000000   -0.00329309
     atom   16 type  1   force =     0.00000000   -0.00001280   -0.00324393
     atom   17 type  1   force =     0.00000000    0.00000000    0.00329987
     atom   18 type  1   force =    -0.00000112    0.00000112    0.00331101
     atom   19 type  1   force =     0.00000008    0.00000000   -0.00350242
     atom   20 type  1   force =     0.00000000   -0.00002274   -0.00348884
     atom   21 type  1   force =     0.00000000    0.00000000    0.00343463
     atom   22 type  1   force =    -0.00004103    0.00004103    0.00346967
     atom   23 type  1   force =    -0.00001280    0.00000000   -0.00324393
     atom   24 type  1   force =     0.00000000    0.00001701   -0.00329309
     atom   25 type  1   force =     0.00000000    0.00000000    0.00328906
     atom   26 type  1   force =    -0.00000112   -0.00000112    0.00331101
     atom   27 type  1   force =     0.00002274    0.00000000   -0.00348884
     atom   28 type  1   force =     0.00000000    0.00002274   -0.00348884
     atom   29 type  1   force =     0.00000000    0.00000000    0.00344052
     atom   30 type  1   force =    -0.00004103   -0.00004103    0.00346967
     atom   31 type  1   force =    -0.00001701    0.00000000   -0.00329309
     atom   32 type  1   force =     0.00000000   -0.00001701   -0.00329309

     Total force =     0.019140     Total SCF correction =     0.003490
     SCF correction compared to forces is large: reduce conv_thr to get better values


     Computing stress (Cartesian axis) and pressure

          total   stress  (Ry/bohr**3)                   (kbar)     P=      -39.86
  -0.00033278   0.00000000   0.00000000          -48.95        0.00        0.00
   0.00000000  -0.00033278   0.00000000            0.00      -48.95        0.00
   0.00000000   0.00000000  -0.00014724            0.00        0.00      -21.66


     Writing output data file /scratch/cbhXnlFeZaQCJZFN.save/
 
     init_run     :     26.34s CPU     26.88s WALL (       1 calls)
     electrons    :   1967.13s CPU   1988.63s WALL (       1 calls)
     forces       :     14.75s CPU     14.90s WALL (       1 calls)
     stress       :    135.52s CPU    136.37s WALL (       1 calls)

     Called by init_run:
     wfcinit      :     25.71s CPU     26.19s WALL (       1 calls)
     potinit      :      0.16s CPU      0.18s WALL (       1 calls)
     hinit0       :      0.18s CPU      0.18s WALL (       1 calls)

     Called by electrons:
     c_bands      :   1743.13s CPU   1760.40s WALL (      23 calls)
     sum_band     :    220.70s CPU    224.40s WALL (      23 calls)
     v_of_rho     :      0.52s CPU      0.54s WALL (      23 calls)
     newd         :      0.72s CPU      1.06s WALL (      23 calls)
     PAW_pot      :      1.90s CPU      2.02s WALL (      23 calls)
     mix_rho      :      0.15s CPU      0.18s WALL (      23 calls)

     Called by c_bands:
     init_us_2    :     11.29s CPU     11.40s WALL (    3675 calls)
     cegterg      :   1702.91s CPU   1719.16s WALL (    1725 calls)

     Called by *egterg:
     cdiaghg      :    181.35s CPU    182.16s WALL (    7142 calls)
     h_psi        :    861.11s CPU    872.59s WALL (    7292 calls)
     s_psi        :     90.45s CPU     91.03s WALL (    7292 calls)
     g_psi        :      3.11s CPU      3.17s WALL (    5492 calls)

     Called by h_psi:
     h_psi:calbec :    139.70s CPU    140.65s WALL (    7292 calls)
     vloc_psi     :    623.58s CPU    633.24s WALL (    7292 calls)
     add_vuspsi   :     90.74s CPU     91.54s WALL (    7292 calls)

     General routines
     calbec       :    231.99s CPU    233.46s WALL (    9392 calls)
     fft          :      0.50s CPU      0.53s WALL (     323 calls)
     ffts         :      0.04s CPU      0.04s WALL (      46 calls)
     fftw         :    739.21s CPU    750.52s WALL ( 3261958 calls)
     interpolate  :      0.05s CPU      0.06s WALL (      23 calls)
 
     Parallel routines
     fft_scatt_xy :     57.12s CPU     58.03s WALL ( 3262327 calls)
     fft_scatt_yz :    579.56s CPU    588.43s WALL ( 3262327 calls)
 
     PWSCF        :  36m 3.36s CPU  36m31.81s WALL

 
   This run was terminated on:   2:38:39   7Jan2022            

=------------------------------------------------------------------------------=
   JOB DONE.
=------------------------------------------------------------------------------=
