
     Program PWSCF v.6.7MaX starts on  6Jan2022 at 20:10:39 

     This program is part of the open-source Quantum ESPRESSO suite
     for quantum simulation of materials; please cite
         "P. Giannozzi et al., J. Phys.:Condens. Matter 21 395502 (2009);
         "P. Giannozzi et al., J. Phys.:Condens. Matter 29 465901 (2017);
          URL http://www.quantum-espresso.org", 
     in publications or presentations arising from this work. More details at
     http://www.quantum-espresso.org/quote

     Parallel version (MPI & OpenMP), running on      72 processor cores
     Number of MPI processes:                72
     Threads/MPI process:                     1

     MPI processes distributed on     1 nodes
     R & G space division:  proc/nbgrp/npool/nimage =      72
     Reading input from scf_1.in
Warning: card &CELL ignored
Warning: card CELL_DYNAMICS = 'BFGS', ignored
Warning: card CELL_FACTOR = 2.0, ignored
Warning: card PRESS = 0.0, ignored
Warning: card / ignored

     Current dimensions of program PWSCF are:
     Max number of different atomic species (ntypx) = 10
     Max number of k-points (npk) =  40000
     Max angular momentum in pseudopotentials (lmaxx) =  3
     file Pd.pbe-spn-kjpaw_psl.1.0.0.UPF: wavefunction(s)  4S 5S 4D renormalized

     Subspace diagonalization in iterative solution of the eigenvalue problem:
     one sub-group per band group will be used
     ELPA distributed-memory algorithm (size of sub-group:  8*  8 procs)

     Found symmetry operation: I + (  0.2500  0.2500  0.0000)
     This is a supercell, fractional translations are disabled
     Message from routine setup:
     using ibrav=0 with symmetry is DISCOURAGED, use correct ibrav instead
 
     Parallelization info
     --------------------
     sticks:   dense  smooth     PW     G-vecs:    dense   smooth      PW
     Min         104      68     18                 6830     3658     516
     Max         105      69     19                 6837     3669     525
     Sum        7521    4957   1353               492057   263859   37529
 


     bravais-lattice index     =            0
     lattice parameter (alat)  =      14.8394  a.u.
     unit-cell volume          =    3267.7647 (a.u.)^3
     number of atoms/cell      =           32
     number of atomic types    =            1
     number of electrons       =       576.00
     number of Kohn-Sham states=          346
     kinetic-energy cutoff     =      71.0000  Ry
     charge density cutoff     =     430.0000  Ry
     scf convergence threshold =      1.0E-06
     mixing beta               =       0.1000
     number of iterations used =           10  TF        mixing
     Exchange-correlation= SLA  PW   PBX  PBC
                           (   1   4   3   4   0   0   0)

     celldm(1)=  14.839420  celldm(2)=   0.000000  celldm(3)=   0.000000
     celldm(4)=   0.000000  celldm(5)=   0.000000  celldm(6)=   0.000000

     crystal axes: (cart. coord. in units of alat)
               a(1) = (   1.000000   0.000000   0.000000 )  
               a(2) = (   0.000000   1.000000   0.000000 )  
               a(3) = (   0.000000   0.000000   1.000000 )  

     reciprocal axes: (cart. coord. in units 2 pi/alat)
               b(1) = (  1.000000  0.000000  0.000000 )  
               b(2) = (  0.000000  1.000000  0.000000 )  
               b(3) = (  0.000000  0.000000  1.000000 )  


     PseudoPot. # 1 for Pd read from file:
     /rds/homes/b/bxp912/pp/Pd.pbe-spn-kjpaw_psl.1.0.0.UPF
     MD5 check sum: 790f2ebce206edfd9790dcb9844eca51
     Pseudo is Projector augmented-wave + core cor, Zval = 18.0
     Generated using &quot;atomic&quot; code by A. Dal Corso  v.6.3
     Shape of augmentation charge: PSQ
     Using radial grid of 1235 points,  6 beta functions with: 
                l(1) =   0
                l(2) =   0
                l(3) =   1
                l(4) =   1
                l(5) =   2
                l(6) =   2
     Q(r) pseudized with 0 coefficients 


     atomic species   valence    mass     pseudopotential
        Pd            18.00   106.42000     Pd( 1.00)

     48 Sym. Ops., with inversion, found



   Cartesian axes

     site n.     atom                  positions (alat units)
         1           Pd  tau(   1) = (   0.0000000   0.0000000   0.0000000  )
         2           Pd  tau(   2) = (   0.2500000   0.2500000   0.0000000  )
         3           Pd  tau(   3) = (   0.2500000   0.0000000   0.2500000  )
         4           Pd  tau(   4) = (   0.0000000   0.2500000   0.2500000  )
         5           Pd  tau(   5) = (   0.0000000   0.0000000   0.5000000  )
         6           Pd  tau(   6) = (   0.2500000   0.2500000   0.5000000  )
         7           Pd  tau(   7) = (   0.2500000   0.0000000   0.7500000  )
         8           Pd  tau(   8) = (   0.0000000   0.2500000   0.7500000  )
         9           Pd  tau(   9) = (   0.0000000   0.5000000   0.0000000  )
        10           Pd  tau(  10) = (   0.2500000   0.7500000   0.0000000  )
        11           Pd  tau(  11) = (   0.2500000   0.5000000   0.2500000  )
        12           Pd  tau(  12) = (   0.0000000   0.7500000   0.2500000  )
        13           Pd  tau(  13) = (   0.0000000   0.5000000   0.5000000  )
        14           Pd  tau(  14) = (   0.2500000   0.7500000   0.5000000  )
        15           Pd  tau(  15) = (   0.2500000   0.5000000   0.7500000  )
        16           Pd  tau(  16) = (   0.0000000   0.7500000   0.7500000  )
        17           Pd  tau(  17) = (   0.5000000   0.0000000   0.0000000  )
        18           Pd  tau(  18) = (   0.7500000   0.2500000   0.0000000  )
        19           Pd  tau(  19) = (   0.7500000   0.0000000   0.2500000  )
        20           Pd  tau(  20) = (   0.5000000   0.2500000   0.2500000  )
        21           Pd  tau(  21) = (   0.5000000   0.0000000   0.5000000  )
        22           Pd  tau(  22) = (   0.7500000   0.2500000   0.5000000  )
        23           Pd  tau(  23) = (   0.7500000   0.0000000   0.7500000  )
        24           Pd  tau(  24) = (   0.5000000   0.2500000   0.7500000  )
        25           Pd  tau(  25) = (   0.5000000   0.5000000   0.0000000  )
        26           Pd  tau(  26) = (   0.7500000   0.7500000   0.0000000  )
        27           Pd  tau(  27) = (   0.7500000   0.5000000   0.2500000  )
        28           Pd  tau(  28) = (   0.5000000   0.7500000   0.2500000  )
        29           Pd  tau(  29) = (   0.5000000   0.5000000   0.5000000  )
        30           Pd  tau(  30) = (   0.7500000   0.7500000   0.5000000  )
        31           Pd  tau(  31) = (   0.7500000   0.5000000   0.7500000  )
        32           Pd  tau(  32) = (   0.5000000   0.7500000   0.7500000  )

     number of k points=    35  Marzari-Vanderbilt smearing, width (Ry)=  0.0400
                       cart. coord. in units 2pi/alat
        k(    1) = (   0.0555556   0.0555556   0.0555556), wk =   0.0219479
        k(    2) = (   0.0555556   0.0555556   0.1666667), wk =   0.0658436
        k(    3) = (   0.0555556   0.0555556   0.2777778), wk =   0.0658436
        k(    4) = (   0.0555556   0.0555556   0.3888889), wk =   0.0658436
        k(    5) = (   0.0555556   0.0555556  -0.5000000), wk =   0.0329218
        k(    6) = (   0.0555556   0.1666667   0.1666667), wk =   0.0658436
        k(    7) = (   0.0555556   0.1666667   0.2777778), wk =   0.1316872
        k(    8) = (   0.0555556   0.1666667   0.3888889), wk =   0.1316872
        k(    9) = (   0.0555556   0.1666667  -0.5000000), wk =   0.0658436
        k(   10) = (   0.0555556   0.2777778   0.2777778), wk =   0.0658436
        k(   11) = (   0.0555556   0.2777778   0.3888889), wk =   0.1316872
        k(   12) = (   0.0555556   0.2777778  -0.5000000), wk =   0.0658436
        k(   13) = (   0.0555556   0.3888889   0.3888889), wk =   0.0658436
        k(   14) = (   0.0555556   0.3888889  -0.5000000), wk =   0.0658436
        k(   15) = (   0.0555556  -0.5000000  -0.5000000), wk =   0.0164609
        k(   16) = (   0.1666667   0.1666667   0.1666667), wk =   0.0219479
        k(   17) = (   0.1666667   0.1666667   0.2777778), wk =   0.0658436
        k(   18) = (   0.1666667   0.1666667   0.3888889), wk =   0.0658436
        k(   19) = (   0.1666667   0.1666667  -0.5000000), wk =   0.0329218
        k(   20) = (   0.1666667   0.2777778   0.2777778), wk =   0.0658436
        k(   21) = (   0.1666667   0.2777778   0.3888889), wk =   0.1316872
        k(   22) = (   0.1666667   0.2777778  -0.5000000), wk =   0.0658436
        k(   23) = (   0.1666667   0.3888889   0.3888889), wk =   0.0658436
        k(   24) = (   0.1666667   0.3888889  -0.5000000), wk =   0.0658436
        k(   25) = (   0.1666667  -0.5000000  -0.5000000), wk =   0.0164609
        k(   26) = (   0.2777778   0.2777778   0.2777778), wk =   0.0219479
        k(   27) = (   0.2777778   0.2777778   0.3888889), wk =   0.0658436
        k(   28) = (   0.2777778   0.2777778  -0.5000000), wk =   0.0329218
        k(   29) = (   0.2777778   0.3888889   0.3888889), wk =   0.0658436
        k(   30) = (   0.2777778   0.3888889  -0.5000000), wk =   0.0658436
        k(   31) = (   0.2777778  -0.5000000  -0.5000000), wk =   0.0164609
        k(   32) = (   0.3888889   0.3888889   0.3888889), wk =   0.0219479
        k(   33) = (   0.3888889   0.3888889  -0.5000000), wk =   0.0329218
        k(   34) = (   0.3888889  -0.5000000  -0.5000000), wk =   0.0164609
        k(   35) = (  -0.5000000  -0.5000000  -0.5000000), wk =   0.0027435

     Dense  grid:   492057 G-vectors     FFT dimensions: ( 100, 100, 100)

     Smooth grid:   263859 G-vectors     FFT dimensions: (  80,  80,  80)

     Estimated max dynamical RAM per process >     126.71 MB

     Estimated total dynamical RAM >       8.91 GB

     Check: negative core charge=   -0.000002

     Initial potential from superposition of free atoms

     starting charge  575.98776, renormalised to  576.00000
     Starting wfcs are  320 randomized atomic wfcs +   26 random wfcs
     Checking if some PAW data can be deallocated... 

     total cpu time spent up to now is       11.0 secs

     Self-consistent Calculation

     iteration #  1     ecut=    71.00 Ry     beta= 0.10
     Davidson diagonalization with overlap
     ethr =  1.00E-02,  avg # of iterations =  3.0

     Threshold (ethr) on eigenvalues was too large:
     Diagonalizing with lowered threshold

     Davidson diagonalization with overlap
     ethr =  8.87E-05,  avg # of iterations =  3.7

     total cpu time spent up to now is       84.3 secs

     total energy              =  -16385.04837159 Ry
     estimated scf accuracy    <       0.47442218 Ry

     iteration #  2     ecut=    71.00 Ry     beta= 0.10
     Davidson diagonalization with overlap
     ethr =  8.24E-05,  avg # of iterations =  1.1

     total cpu time spent up to now is      112.4 secs

     total energy              =  -16384.90773803 Ry
     estimated scf accuracy    <       0.34515117 Ry

     iteration #  3     ecut=    71.00 Ry     beta= 0.10
     Davidson diagonalization with overlap
     ethr =  5.99E-05,  avg # of iterations =  2.2

     total cpu time spent up to now is      150.1 secs

     total energy              =  -16384.95909783 Ry
     estimated scf accuracy    <       0.01885472 Ry

     iteration #  4     ecut=    71.00 Ry     beta= 0.10
     Davidson diagonalization with overlap
     ethr =  3.27E-06,  avg # of iterations =  5.3

     total cpu time spent up to now is      184.6 secs

     total energy              =  -16384.95954154 Ry
     estimated scf accuracy    <       0.00741381 Ry

     iteration #  5     ecut=    71.00 Ry     beta= 0.10
     Davidson diagonalization with overlap
     ethr =  1.29E-06,  avg # of iterations =  1.2

     total cpu time spent up to now is      213.0 secs

     total energy              =  -16384.95720736 Ry
     estimated scf accuracy    <       0.00621898 Ry

     iteration #  6     ecut=    71.00 Ry     beta= 0.10
     Davidson diagonalization with overlap
     ethr =  1.08E-06,  avg # of iterations =  2.3

     total cpu time spent up to now is      248.0 secs

     total energy              =  -16384.95801088 Ry
     estimated scf accuracy    <       0.00059425 Ry

     iteration #  7     ecut=    71.00 Ry     beta= 0.10
     Davidson diagonalization with overlap
     ethr =  1.03E-07,  avg # of iterations =  3.2

     total cpu time spent up to now is      287.4 secs

     total energy              =  -16384.95806098 Ry
     estimated scf accuracy    <       0.00070492 Ry

     iteration #  8     ecut=    71.00 Ry     beta= 0.10
     Davidson diagonalization with overlap
     ethr =  1.03E-07,  avg # of iterations =  2.0

     total cpu time spent up to now is      320.3 secs

     total energy              =  -16384.95814078 Ry
     estimated scf accuracy    <       0.00004603 Ry

     iteration #  9     ecut=    71.00 Ry     beta= 0.10
     Davidson diagonalization with overlap
     ethr =  7.99E-09,  avg # of iterations =  3.7

     total cpu time spent up to now is      357.1 secs

     total energy              =  -16384.95814141 Ry
     estimated scf accuracy    <       0.00004036 Ry

     iteration # 10     ecut=    71.00 Ry     beta= 0.10
     Davidson diagonalization with overlap
     ethr =  7.01E-09,  avg # of iterations =  1.0

     total cpu time spent up to now is      384.7 secs

     total energy              =  -16384.95814323 Ry
     estimated scf accuracy    <       0.00003024 Ry

     iteration # 11     ecut=    71.00 Ry     beta= 0.10
     Davidson diagonalization with overlap
     ethr =  5.25E-09,  avg # of iterations =  1.0

     total cpu time spent up to now is      412.6 secs

     total energy              =  -16384.95814773 Ry
     estimated scf accuracy    <       0.00000908 Ry

     iteration # 12     ecut=    71.00 Ry     beta= 0.10
     Davidson diagonalization with overlap
     ethr =  1.58E-09,  avg # of iterations =  1.0

     total cpu time spent up to now is      441.0 secs

     total energy              =  -16384.95814944 Ry
     estimated scf accuracy    <       0.00000142 Ry

     iteration # 13     ecut=    71.00 Ry     beta= 0.10
     Davidson diagonalization with overlap
     ethr =  2.46E-10,  avg # of iterations =  2.5

     total cpu time spent up to now is      483.5 secs

     End of self-consistent calculation

          k = 0.0556 0.0556 0.0556 ( 32996 PWs)   bands (ev):

   -64.8696 -64.8405 -64.8405 -64.8405 -64.8350 -64.8349 -64.8349 -64.8246
   -64.8246 -64.8246 -64.8220 -64.8216 -64.8216 -64.8216 -64.8216 -64.8216
   -64.8216 -64.8215 -64.8215 -64.8215 -64.8190 -64.8190 -64.8190 -64.8059
   -64.8058 -64.8058 -64.8058 -64.8058 -64.8058 -64.8057 -64.8057 -64.8057
   -30.7542 -30.7542 -30.7541 -30.7524 -30.7337 -30.7337 -30.7337 -30.6559
   -30.6559 -30.6559 -30.6516 -30.6516 -30.6516 -30.6515 -30.6515 -30.6515
   -30.6437 -30.6437 -30.6437 -30.6384 -30.6384 -30.6384 -30.6384 -30.6384
   -30.6384 -30.6198 -30.6198 -30.6198 -30.6197 -30.6197 -30.6197 -30.5787
   -30.5787 -30.5787 -30.5542 -30.5542 -30.5542 -30.5481 -30.5481 -30.5481
   -30.5387 -30.5387 -30.5387 -30.5387 -30.5387 -30.5387 -30.5237 -30.5237
   -30.5237 -30.5228 -30.5228 -30.5228 -30.5227 -30.5227 -30.5227 -30.5223
   -30.5223 -30.5223 -30.5207 -30.5207 -30.5207 -30.4572 -30.4572 -30.4572
   -30.4570 -30.4570 -30.4570 -30.4448 -30.4448 -30.4448 -30.4446 -30.4446
   -30.4446 -30.4412 -30.4412 -30.4412 -30.4367 -30.4366 -30.4366 -30.4361
   -30.4361 -30.4361 -30.4360 -30.4360 -30.4360 -30.4356 -30.4356 -30.4356
   -30.4346 -30.4346 -30.4289 -30.4289 -30.4289 -30.3833 -30.3808 -30.3808
    12.2944  14.0510  14.0510  14.0511  14.1198  14.1335  14.1335  14.1335
    14.3239  14.3239  14.3239  14.3263  14.3263  14.3263  14.5188  14.5188
    14.5188  15.0644  15.0644  15.0644  15.0644  15.0644  15.0644  15.2184
    15.2184  15.2184  15.3687  15.3687  15.3687  15.4050  15.4050  15.4050
    15.4513  15.4513  15.4513  15.4513  15.4513  15.4513  15.4532  15.4532
    15.4532  15.7951  15.7951  15.7951  15.7951  15.7951  15.7951  15.9024
    15.9024  15.9024  15.9244  15.9244  15.9244  15.9244  15.9244  15.9244
    15.9813  15.9813  15.9813  16.1510  16.1510  16.1510  16.1510  16.1510
    16.1510  16.2565  16.2565  16.2565  16.2609  16.2609  16.2609  16.2609
    16.2609  16.2609  16.3686  16.3686  16.3686  16.4332  16.4332  16.4332
    16.4541  16.4541  16.4648  16.4648  16.4648  16.4828  16.5024  16.5024
    17.2995  17.2995  17.2995  17.3602  17.3602  17.3602  17.4329  17.4329
    17.4329  17.4329  17.4329  17.4329  17.4389  17.4389  17.4389  17.4871
    17.4871  17.4871  17.5906  17.5906  17.5906  17.7092  17.7092  17.7092
    17.8346  17.8346  17.8346  17.8922  17.8922  17.8922  17.9654  17.9654
    17.9654  17.9654  17.9654  17.9654  17.9845  17.9845  17.9845  18.0325
    18.0325  18.0401  18.0401  18.0401  18.0402  18.0402  18.0402  18.1494
    18.1494  18.1494  18.5369  18.5369  18.5369  18.6387  18.6387  18.6387
    19.0217  19.0217  19.0217  19.1462  19.1462  19.1462  19.1731  19.1731
    19.1933  19.1933  19.1933  19.4236  19.4236  19.4236  19.4779  19.4779
    19.4779  19.4779  19.4779  19.4779  19.4809  19.4809  19.4809  20.1446
    20.4510  20.4510  20.4510  20.9770  20.9770  20.9770  21.4873  21.4873
    21.4873  21.4874  21.4874  21.4874  22.0167  22.0167  22.0167  22.5969
    22.5969  22.5969  26.3539  26.3539  26.3539  26.5106  27.5025  27.5025
    27.5025  27.5025  27.5025  27.5025  28.1950  28.1950  28.1950  28.1950
    28.1950  28.1950  29.6085  29.6085  29.6085  29.6085  29.6085  29.6085
    29.7738  29.7738  29.7738  30.7302  30.7667  30.7669  30.7670  30.7670
    30.7670  30.7670

          k = 0.0556 0.0556 0.1667 ( 33001 PWs)   bands (ev):

   -64.8687 -64.8460 -64.8400 -64.8400 -64.8345 -64.8345 -64.8295 -64.8276
   -64.8276 -64.8245 -64.8241 -64.8241 -64.8225 -64.8216 -64.8216 -64.8215
   -64.8215 -64.8210 -64.8191 -64.8186 -64.8186 -64.8165 -64.8165 -64.8068
   -64.8063 -64.8063 -64.8062 -64.8062 -64.8058 -64.8058 -64.8058 -64.8057
   -30.7515 -30.7498 -30.7498 -30.7466 -30.7305 -30.7305 -30.7285 -30.6675
   -30.6622 -30.6622 -30.6578 -30.6578 -30.6567 -30.6567 -30.6564 -30.6564
   -30.6541 -30.6448 -30.6447 -30.6420 -30.6420 -30.6372 -30.6372 -30.6335
   -30.6335 -30.6226 -30.6226 -30.6163 -30.6163 -30.6085 -30.6017 -30.6017
   -30.5835 -30.5835 -30.5694 -30.5694 -30.5542 -30.5542 -30.5536 -30.5536
   -30.5422 -30.5281 -30.5281 -30.5260 -30.5260 -30.5234 -30.5234 -30.5226
   -30.5225 -30.5202 -30.5202 -30.5200 -30.5184 -30.5178 -30.5174 -30.5174
   -30.5169 -30.5169 -30.5139 -30.5088 -30.5088 -30.4695 -30.4691 -30.4599
   -30.4599 -30.4542 -30.4542 -30.4488 -30.4488 -30.4474 -30.4474 -30.4454
   -30.4454 -30.4430 -30.4413 -30.4413 -30.4410 -30.4405 -30.4405 -30.4368
   -30.4366 -30.4361 -30.4361 -30.4359 -30.4359 -30.4335 -30.4333 -30.4333
   -30.4327 -30.4324 -30.4291 -30.4244 -30.4244 -30.3898 -30.3830 -30.3823
    12.3678  14.0250  14.0855  14.0974  14.0974  14.1477  14.1751  14.1751
    14.1885  14.3541  14.3685  14.3685  14.3752  14.3752  14.5708  14.5708
    14.5879  14.9785  14.9785  15.0400  15.0993  15.0993  15.1060  15.1060
    15.1365  15.2175  15.2175  15.2445  15.2446  15.2569  15.2637  15.2637
    15.4104  15.4104  15.4269  15.4269  15.4404  15.4404  15.4768  15.4768
    15.5235  15.5235  15.5945  15.7816  15.7816  15.7981  15.7981  15.8438
    15.8438  15.8534  15.8534  15.9126  15.9126  16.0005  16.0005  16.0157
    16.0618  16.0618  16.1092  16.1136  16.1136  16.1200  16.1200  16.1557
    16.1557  16.2008  16.2008  16.2298  16.2298  16.3925  16.4108  16.4108
    16.4114  16.4114  16.4317  16.4317  16.4463  16.4545  16.4772  16.4778
    16.4876  16.5008  16.5008  16.5087  16.5320  16.5345  16.5396  16.5396
    17.1085  17.1085  17.2196  17.2259  17.2448  17.2448  17.2995  17.2995
    17.3173  17.3632  17.3848  17.3848  17.5033  17.5152  17.5152  17.5284
    17.5284  17.5669  17.5669  17.5764  17.5764  17.7891  17.7891  17.8077
    17.8156  17.8156  17.8817  17.8817  17.9616  17.9616  17.9708  17.9708
    17.9721  17.9721  17.9918  18.0487  18.0505  18.0618  18.0618  18.0891
    18.1799  18.1799  18.1883  18.1883  18.2245  18.2245  18.2795  18.2972
    18.2972  18.3289  18.4386  18.5825  18.5825  18.7074  18.7114  18.7114
    18.7413  18.7588  18.7588  18.9731  19.0844  19.0844  19.1061  19.1228
    19.1658  19.1662  19.1662  19.1918  19.1918  19.3537  19.4062  19.4062
    19.4071  19.4071  19.4193  19.4774  19.4774  19.4778  19.4778  20.1367
    20.5128  20.5128  20.6220  20.6220  20.8527  20.9482  20.9970  20.9970
    21.4645  21.4646  21.9977  22.0554  22.0554  22.2348  22.5967  22.5967
    22.8885  22.8885  26.3524  26.5123  26.5123  26.7855  26.7855  26.7923
    26.7923  26.8071  27.3855  27.3855  27.6352  27.6352  28.3196  28.3196
    28.8342  28.8342  29.6567  29.6567  29.7598  29.7598  29.7703  29.9161
    29.9161  29.9931  29.9931  30.2042  30.2042  30.2278  30.3137  30.3137
    30.7518  30.7518

          k = 0.0556 0.0556 0.2778 ( 32975 PWs)   bands (ev):

   -64.8668 -64.8513 -64.8390 -64.8390 -64.8336 -64.8336 -64.8305 -64.8305
   -64.8265 -64.8265 -64.8244 -64.8242 -64.8229 -64.8216 -64.8215 -64.8215
   -64.8215 -64.8206 -64.8193 -64.8157 -64.8157 -64.8141 -64.8141 -64.8087
   -64.8073 -64.8073 -64.8071 -64.8071 -64.8058 -64.8058 -64.8058 -64.8058
   -30.7445 -30.7414 -30.7414 -30.7369 -30.7242 -30.7242 -30.7186 -30.6846
   -30.6788 -30.6788 -30.6736 -30.6736 -30.6707 -30.6593 -30.6593 -30.6572
   -30.6572 -30.6473 -30.6473 -30.6379 -30.6379 -30.6368 -30.6359 -30.6359
   -30.6233 -30.6233 -30.6213 -30.6213 -30.6104 -30.6104 -30.5919 -30.5919
   -30.5843 -30.5843 -30.5839 -30.5839 -30.5676 -30.5676 -30.5651 -30.5650
   -30.5326 -30.5326 -30.5238 -30.5221 -30.5221 -30.5203 -30.5203 -30.5158
   -30.5144 -30.5114 -30.5114 -30.5088 -30.5088 -30.5080 -30.5080 -30.5068
   -30.5068 -30.4986 -30.4947 -30.4946 -30.4887 -30.4812 -30.4805 -30.4653
   -30.4653 -30.4582 -30.4582 -30.4565 -30.4565 -30.4534 -30.4526 -30.4526
   -30.4492 -30.4492 -30.4487 -30.4487 -30.4428 -30.4407 -30.4378 -30.4360
   -30.4360 -30.4359 -30.4359 -30.4359 -30.4359 -30.4329 -30.4329 -30.4326
   -30.4295 -30.4224 -30.4224 -30.4212 -30.4206 -30.4010 -30.3872 -30.3862
    12.5129  13.6749  14.1517  14.1878  14.1878  14.2173  14.2577  14.2577
    14.2838  14.4092  14.4528  14.4528  14.4744  14.4744  14.5558  14.6715
    14.6715  14.8310  14.8310  14.8744  14.8891  14.9667  14.9667  15.0183
    15.1265  15.1265  15.1645  15.1645  15.1874  15.1874  15.1953  15.1953
    15.2964  15.2964  15.3105  15.3105  15.4224  15.4224  15.4698  15.4698
    15.5875  15.5875  15.7283  15.7283  15.7622  15.7622  15.7805  15.7805
    15.7812  15.8004  15.8004  15.8278  15.8278  15.9401  15.9401  16.0119
    16.0119  16.0630  16.0678  16.0678  16.1386  16.1386  16.1629  16.1629
    16.1688  16.1688  16.2349  16.2500  16.2500  16.3353  16.3697  16.3723
    16.3723  16.4318  16.4318  16.4359  16.5335  16.5684  16.5684  16.5850
    16.5965  16.5986  16.7474  16.7474  16.7649  16.8146  16.9031  16.9031
    16.9593  16.9593  16.9776  16.9776  17.0477  17.1275  17.1333  17.1333
    17.1506  17.1567  17.4535  17.4719  17.4719  17.5692  17.5692  17.6368
    17.6368  17.6525  17.6525  17.7107  17.7107  17.7425  17.7425  17.8058
    17.8058  17.9135  17.9486  17.9486  17.9501  17.9501  17.9731  17.9731
    17.9792  17.9792  18.0807  18.1766  18.2293  18.2293  18.2447  18.2447
    18.2563  18.3393  18.3462  18.3462  18.3868  18.3868  18.3868  18.3868
    18.4344  18.4344  18.4616  18.4773  18.4773  18.5493  18.7274  18.7274
    18.7890  18.7890  18.7950  18.8426  18.9402  18.9402  18.9902  18.9902
    18.9956  19.0724  19.0801  19.0801  19.0923  19.2189  19.2729  19.2729
    19.2742  19.2742  19.3056  19.4770  19.4770  19.4776  19.4776  20.0846
    20.0846  20.3108  20.5356  20.5356  20.8467  20.8468  20.8888  21.2242
    21.4159  21.4160  21.6249  21.9534  22.6911  22.6911  23.2380  23.2380
    23.3771  23.3771  25.9095  25.9095  26.0606  26.0606  26.4693  26.4693
    26.5226  26.8268  26.8268  27.2312  27.8838  27.8838  28.5583  28.5583
    28.8770  29.3313  29.3313  29.4227  29.4227  29.6740  29.6740  29.7321
    29.7321  29.8184  29.8184  29.9818  30.0805  30.0805  30.2446  30.2446
    30.2537  30.2537

          k = 0.0556 0.0556 0.3889 ( 32995 PWs)   bands (ev):

   -64.8640 -64.8561 -64.8374 -64.8374 -64.8331 -64.8331 -64.8323 -64.8323
   -64.8287 -64.8287 -64.8241 -64.8234 -64.8216 -64.8215 -64.8215 -64.8215
   -64.8202 -64.8195 -64.8194 -64.8131 -64.8131 -64.8119 -64.8119 -64.8115
   -64.8088 -64.8088 -64.8083 -64.8083 -64.8058 -64.8058 -64.8058 -64.8058
   -30.7336 -30.7295 -30.7294 -30.7235 -30.7151 -30.7151 -30.7042 -30.7026
   -30.6970 -30.6970 -30.6894 -30.6894 -30.6892 -30.6626 -30.6593 -30.6593
   -30.6543 -30.6543 -30.6527 -30.6527 -30.6431 -30.6431 -30.6256 -30.6256
   -30.6179 -30.6179 -30.6076 -30.6076 -30.6026 -30.6026 -30.6024 -30.6024
   -30.5972 -30.5972 -30.5808 -30.5808 -30.5785 -30.5785 -30.5683 -30.5683
   -30.5420 -30.5420 -30.5217 -30.5217 -30.5208 -30.5207 -30.5096 -30.5083
   -30.5037 -30.4960 -30.4960 -30.4953 -30.4953 -30.4946 -30.4946 -30.4933
   -30.4933 -30.4920 -30.4911 -30.4819 -30.4815 -30.4815 -30.4732 -30.4731
   -30.4693 -30.4693 -30.4692 -30.4692 -30.4675 -30.4616 -30.4607 -30.4607
   -30.4602 -30.4602 -30.4529 -30.4437 -30.4437 -30.4400 -30.4386 -30.4360
   -30.4360 -30.4360 -30.4360 -30.4349 -30.4349 -30.4316 -30.4304 -30.4304
   -30.4300 -30.4229 -30.4228 -30.4169 -30.4106 -30.4098 -30.3933 -30.3923
    12.7258  13.3223  14.2443  14.3170  14.3170  14.3278  14.3803  14.3803
    14.4177  14.4659  14.4905  14.5787  14.5787  14.6142  14.6142  14.6545
    14.6546  14.6666  14.7255  14.7381  14.7381  14.7901  14.8134  14.8134
    14.9513  14.9513  14.9602  14.9602  15.1589  15.1589  15.2495  15.2495
    15.3046  15.3046  15.3732  15.3732  15.3919  15.3919  15.5314  15.5314
    15.5867  15.5867  15.5955  15.5955  15.6943  15.6943  15.7338  15.7338
    15.7512  15.7512  15.7928  15.7928  15.8395  15.8395  15.9585  15.9816
    15.9816  16.0136  16.0136  16.1239  16.1692  16.1692  16.1696  16.1696
    16.2003  16.2003  16.2592  16.2669  16.3026  16.3208  16.3208  16.3524
    16.3524  16.4017  16.4818  16.4818  16.6217  16.6665  16.6665  16.6915
    16.6929  16.6941  16.7224  16.7224  16.7308  16.7308  16.8835  16.9286
    16.9286  16.9696  16.9748  16.9809  17.1611  17.1645  17.1645  17.1790
    17.4051  17.4051  17.5379  17.5379  17.5444  17.5629  17.5629  17.7331
    17.7331  17.7695  17.7695  17.7781  17.7782  17.7944  17.7944  17.8041
    17.8313  17.8313  17.9176  17.9176  17.9521  17.9587  17.9587  17.9612
    17.9612  17.9754  17.9754  17.9910  17.9910  18.0753  18.1278  18.1908
    18.1908  18.2622  18.3391  18.3391  18.4330  18.4330  18.4679  18.5070
    18.5911  18.5911  18.5949  18.6510  18.6580  18.6580  18.6796  18.6796
    18.8326  18.8326  18.8473  18.9418  18.9487  18.9487  18.9772  18.9800
    18.9871  18.9871  19.0277  19.0936  19.0936  19.0946  19.0946  19.1662
    19.2851  19.2851  19.4126  19.4770  19.4770  19.4774  19.4774  19.6859
    19.6859  20.0966  20.0966  20.5026  20.7962  20.8939  21.0529  21.0529
    21.3357  21.3357  21.5214  21.8714  23.3997  23.3997  23.9475  23.9475
    23.9776  23.9776  25.0228  25.0228  25.3413  25.3413  25.5720  25.5720
    26.8736  27.2905  27.2905  27.7725  28.0768  28.2354  28.2354  28.6078
    28.6078  28.8938  28.8938  29.1540  29.1540  29.1614  29.5469  29.5469
    29.6909  29.6909  29.7653  29.7653  30.2133  30.2133  30.2229  30.2229
    30.4464  30.4464

          k = 0.0556 0.0556-0.5000 ( 33030 PWs)   bands (ev):

   -64.8604 -64.8604 -64.8355 -64.8355 -64.8355 -64.8355 -64.8307 -64.8307
   -64.8307 -64.8307 -64.8238 -64.8238 -64.8216 -64.8216 -64.8215 -64.8215
   -64.8198 -64.8198 -64.8151 -64.8151 -64.8108 -64.8108 -64.8108 -64.8108
   -64.8100 -64.8100 -64.8100 -64.8100 -64.8058 -64.8058 -64.8058 -64.8058
   -30.7194 -30.7194 -30.7143 -30.7143 -30.7143 -30.7143 -30.7073 -30.7073
   -30.7034 -30.7034 -30.7034 -30.7034 -30.6853 -30.6853 -30.6570 -30.6570
   -30.6570 -30.6570 -30.6493 -30.6493 -30.6493 -30.6493 -30.6142 -30.6142
   -30.6142 -30.6142 -30.6088 -30.6088 -30.6088 -30.6088 -30.5931 -30.5931
   -30.5931 -30.5931 -30.5925 -30.5925 -30.5925 -30.5925 -30.5541 -30.5541
   -30.5541 -30.5540 -30.5213 -30.5213 -30.5213 -30.5213 -30.5016 -30.5016
   -30.5004 -30.5004 -30.4846 -30.4846 -30.4833 -30.4833 -30.4833 -30.4833
   -30.4826 -30.4826 -30.4826 -30.4826 -30.4817 -30.4817 -30.4816 -30.4816
   -30.4759 -30.4759 -30.4759 -30.4759 -30.4700 -30.4700 -30.4700 -30.4700
   -30.4662 -30.4662 -30.4394 -30.4394 -30.4387 -30.4387 -30.4387 -30.4386
   -30.4374 -30.4374 -30.4360 -30.4360 -30.4360 -30.4360 -30.4308 -30.4308
   -30.4257 -30.4257 -30.4257 -30.4257 -30.4012 -30.4012 -30.4003 -30.4003
    12.9994  12.9994  14.3541  14.3541  14.4768  14.4768  14.4768  14.4768
    14.4783  14.4783  14.5412  14.5412  14.5412  14.5412  14.5877  14.5877
    14.5967  14.5967  14.7452  14.7452  14.7452  14.7452  14.7821  14.7821
    14.7821  14.7821  14.9831  14.9831  14.9831  14.9831  15.3334  15.3334
    15.3334  15.3334  15.4490  15.4490  15.4490  15.4490  15.4737  15.4737
    15.4737  15.4737  15.6081  15.6081  15.6081  15.6081  15.7627  15.7627
    15.7627  15.7627  15.7706  15.7706  15.7706  15.7706  15.9821  15.9821
    15.9821  15.9821  16.1201  16.1201  16.1719  16.1719  16.1719  16.1719
    16.1941  16.1941  16.2617  16.2617  16.2617  16.2617  16.3562  16.3562
    16.5184  16.5184  16.5184  16.5184  16.5793  16.5793  16.5793  16.5793
    16.7395  16.7395  16.7918  16.7918  16.7918  16.7918  16.8188  16.8188
    16.8200  16.8200  16.8251  16.8251  17.5565  17.5565  17.5565  17.5565
    17.5581  17.5581  17.5581  17.5581  17.5617  17.5617  17.6054  17.6054
    17.6747  17.6747  17.7761  17.7761  17.7761  17.7761  17.8594  17.8594
    17.8594  17.8594  17.8693  17.8693  17.8693  17.8693  17.8753  17.8753
    17.8753  17.8753  17.9143  17.9143  17.9143  17.9143  18.0894  18.0894
    18.0894  18.0894  18.1888  18.1888  18.6419  18.6419  18.6419  18.6419
    18.6685  18.6685  18.7824  18.7824  18.7824  18.7824  18.7890  18.7890
    18.8169  18.8169  18.8270  18.8270  18.8827  18.8827  18.8827  18.8827
    18.8907  18.8907  18.8907  18.8907  19.0439  19.0439  19.3167  19.3167
    19.3167  19.3167  19.4771  19.4771  19.4772  19.4772  19.6780  19.6780
    19.6780  19.6780  20.1338  20.1338  20.6675  20.6676  21.2167  21.2167
    21.2167  21.2167  21.7337  21.7337  24.1798  24.1798  24.1798  24.1798
    24.6412  24.6412  24.6412  24.6412  24.7271  24.7271  24.7271  24.7271
    27.3991  27.3991  27.8902  27.8902  27.8902  27.8902  28.4201  28.4201
    28.6666  28.6666  28.6666  28.6666  29.3042  29.3042  29.3042  29.3042
    29.6341  29.6341  29.6341  29.6341  30.3949  30.3949  30.3949  30.3949
    30.6765  30.6765

          k = 0.0556 0.1667 0.1667 ( 32991 PWs)   bands (ev):

   -64.8677 -64.8454 -64.8454 -64.8395 -64.8341 -64.8311 -64.8291 -64.8291
   -64.8274 -64.8274 -64.8240 -64.8240 -64.8234 -64.8220 -64.8207 -64.8206
   -64.8206 -64.8205 -64.8187 -64.8187 -64.8167 -64.8167 -64.8145 -64.8068
   -64.8068 -64.8067 -64.8067 -64.8064 -64.8064 -64.8061 -64.8061 -64.8058
   -30.7488 -30.7487 -30.7441 -30.7394 -30.7274 -30.7257 -30.7257 -30.6701
   -30.6701 -30.6676 -30.6676 -30.6580 -30.6580 -30.6567 -30.6547 -30.6547
   -30.6539 -30.6539 -30.6535 -30.6535 -30.6456 -30.6455 -30.6436 -30.6436
   -30.6201 -30.6135 -30.6135 -30.6118 -30.6118 -30.6070 -30.6070 -30.5987
   -30.5987 -30.5886 -30.5849 -30.5607 -30.5560 -30.5560 -30.5421 -30.5421
   -30.5378 -30.5378 -30.5319 -30.5252 -30.5252 -30.5237 -30.5237 -30.5180
   -30.5180 -30.5178 -30.5178 -30.5175 -30.5162 -30.5161 -30.5141 -30.5141
   -30.5124 -30.5124 -30.5001 -30.5001 -30.4945 -30.4722 -30.4722 -30.4668
   -30.4668 -30.4575 -30.4559 -30.4542 -30.4483 -30.4483 -30.4482 -30.4482
   -30.4452 -30.4451 -30.4443 -30.4443 -30.4440 -30.4434 -30.4399 -30.4388
   -30.4388 -30.4377 -30.4351 -30.4351 -30.4345 -30.4335 -30.4335 -30.4334
   -30.4288 -30.4288 -30.4248 -30.4248 -30.4178 -30.3978 -30.3849 -30.3821
    12.4404  14.0775  14.0775  14.1321  14.1321  14.1391  14.1605  14.2017
    14.2417  14.2417  14.3959  14.3959  14.4139  14.4158  14.6091  14.6403
    14.6403  15.0007  15.0007  15.0210  15.0210  15.0492  15.0492  15.0700
    15.0700  15.0934  15.1402  15.1402  15.1625  15.1625  15.2824  15.2891
    15.2891  15.2978  15.2978  15.3488  15.4589  15.4885  15.4885  15.4948
    15.4948  15.5249  15.5249  15.6120  15.6120  15.7568  15.7568  15.8403
    15.8403  15.8507  15.9456  15.9456  15.9609  15.9609  16.0214  16.0214
    16.0326  16.0933  16.0933  16.1028  16.1028  16.1566  16.1566  16.2544
    16.3024  16.3024  16.3480  16.3480  16.3551  16.3551  16.4024  16.4265
    16.4614  16.4614  16.4631  16.4665  16.4665  16.4845  16.4845  16.5020
    16.5335  16.5335  16.5338  16.5342  16.5467  16.5578  16.5578  16.5636
    17.0085  17.0669  17.0669  17.1178  17.2241  17.2241  17.3319  17.3533
    17.3533  17.3538  17.3538  17.4116  17.4116  17.4348  17.4348  17.4905
    17.4963  17.4963  17.5773  17.6501  17.6598  17.6598  17.6793  17.6793
    17.7029  17.9571  17.9571  17.9745  17.9745  17.9804  18.0388  18.0491
    18.0491  18.0660  18.0662  18.0662  18.0752  18.0752  18.1565  18.1565
    18.1849  18.1849  18.3645  18.3645  18.4051  18.4167  18.4167  18.4188
    18.4598  18.4598  18.4668  18.4668  18.5244  18.5244  18.5561  18.5981
    18.7212  18.8280  18.8807  18.8807  19.0144  19.0154  19.0154  19.0336
    19.1307  19.1616  19.1616  19.1787  19.1787  19.1899  19.3482  19.3482
    19.4056  19.4056  19.4081  19.4081  19.4180  19.4180  19.4407  19.8566
    20.0809  20.4812  20.4812  20.5216  20.9730  20.9730  21.1487  21.1487
    21.5455  21.5455  22.0425  22.0425  22.5252  22.5252  22.5843  22.5843
    23.1507  23.1810  26.1665  26.1665  26.3502  26.3502  26.8132  26.8803
    26.8803  26.9215  26.9215  27.2133  27.5146  27.5146  27.9526  27.9526
    28.9617  28.9617  29.2506  29.2506  29.6426  29.7413  29.7893  29.7893
    29.8764  29.8764  30.1048  30.1048  30.2177  30.2177  30.5981  30.5981
    30.8844  30.8883

          k = 0.0556 0.1667 0.2778 ( 32969 PWs)   bands (ev):

   -64.8658 -64.8506 -64.8442 -64.8385 -64.8344 -64.8332 -64.8302 -64.8284
   -64.8271 -64.8263 -64.8244 -64.8239 -64.8238 -64.8226 -64.8224 -64.8201
   -64.8196 -64.8188 -64.8173 -64.8170 -64.8159 -64.8144 -64.8125 -64.8087
   -64.8077 -64.8076 -64.8075 -64.8068 -64.8067 -64.8065 -64.8060 -64.8059
   -30.7433 -30.7420 -30.7346 -30.7283 -30.7211 -30.7201 -30.7162 -30.6875
   -30.6840 -30.6738 -30.6708 -30.6705 -30.6702 -30.6702 -30.6607 -30.6598
   -30.6595 -30.6541 -30.6533 -30.6513 -30.6494 -30.6482 -30.6451 -30.6387
   -30.6308 -30.6178 -30.6149 -30.6085 -30.6047 -30.6035 -30.5996 -30.5976
   -30.5932 -30.5910 -30.5816 -30.5720 -30.5692 -30.5558 -30.5515 -30.5400
   -30.5379 -30.5362 -30.5303 -30.5246 -30.5227 -30.5193 -30.5180 -30.5180
   -30.5157 -30.5155 -30.5138 -30.5092 -30.5059 -30.5042 -30.5035 -30.5008
   -30.4995 -30.4972 -30.4870 -30.4863 -30.4840 -30.4807 -30.4788 -30.4778
   -30.4625 -30.4619 -30.4616 -30.4600 -30.4576 -30.4573 -30.4569 -30.4560
   -30.4511 -30.4484 -30.4475 -30.4453 -30.4453 -30.4448 -30.4411 -30.4406
   -30.4402 -30.4383 -30.4379 -30.4371 -30.4339 -30.4334 -30.4316 -30.4255
   -30.4234 -30.4231 -30.4230 -30.4168 -30.4141 -30.4103 -30.3892 -30.3844
    12.5836  13.7308  14.1795  14.1988  14.2138  14.2207  14.2229  14.2684
    14.3338  14.3462  14.4501  14.4793  14.4925  14.5037  14.6074  14.6808
    14.7421  14.8179  14.8413  14.8718  14.9030  14.9077  14.9172  14.9501
    15.0402  15.0527  15.0756  15.0865  15.1046  15.1300  15.2033  15.2121
    15.2203  15.2389  15.2687  15.3196  15.3593  15.3811  15.4111  15.5111
    15.5230  15.5358  15.5772  15.6452  15.6838  15.6999  15.7077  15.7940
    15.8027  15.8134  15.8294  15.8446  15.8928  15.9574  15.9658  16.0100
    16.0138  16.0250  16.1115  16.1626  16.2064  16.2092  16.2608  16.2711
    16.2873  16.2897  16.3016  16.3280  16.3616  16.3799  16.3856  16.4181
    16.4445  16.4617  16.5197  16.5505  16.5748  16.5926  16.5971  16.6016
    16.6227  16.6398  16.6457  16.6574  16.6729  16.7755  16.8562  16.8868
    16.9104  16.9183  16.9421  17.0327  17.0528  17.1514  17.1619  17.1764
    17.2471  17.2643  17.2757  17.3496  17.3543  17.4297  17.4369  17.5410
    17.5556  17.5776  17.5836  17.6360  17.6806  17.7643  17.8160  17.8207
    17.8377  17.9146  17.9254  17.9407  17.9719  18.0204  18.0544  18.0649
    18.0890  18.1333  18.1365  18.1795  18.1859  18.1976  18.1978  18.2082
    18.2178  18.2475  18.3208  18.3609  18.3819  18.4148  18.4453  18.5093
    18.5186  18.5477  18.5527  18.5554  18.5603  18.5810  18.5860  18.6733
    18.6803  18.7035  18.7962  18.8800  18.9084  18.9317  19.0089  19.0246
    19.0962  19.1356  19.1367  19.1411  19.2225  19.2393  19.2402  19.2447
    19.2731  19.2763  19.3117  19.4053  19.4091  19.4154  19.4199  19.6907
    19.8906  20.0523  20.4174  20.5123  20.5502  20.9245  21.0570  21.4385
    21.6364  21.9194  22.0111  22.1676  22.5487  22.6915  23.0033  23.2348
    23.6040  23.8197  25.3332  25.5190  25.9778  26.2069  26.3523  26.4855
    26.5226  26.9993  27.1947  27.2097  27.2416  27.7186  27.7259  28.3627
    28.4819  28.7542  28.8937  29.0764  29.1941  29.2916  29.5190  29.6980
    29.8756  29.9738  30.0013  30.1963  30.2535  30.4753  30.5714  30.5876
    30.8141  30.9124

          k = 0.0556 0.1667 0.3889 ( 33011 PWs)   bands (ev):

   -64.8631 -64.8553 -64.8424 -64.8375 -64.8370 -64.8328 -64.8320 -64.8285
   -64.8273 -64.8266 -64.8252 -64.8244 -64.8236 -64.8229 -64.8197 -64.8192
   -64.8191 -64.8188 -64.8175 -64.8143 -64.8133 -64.8122 -64.8114 -64.8107
   -64.8093 -64.8092 -64.8088 -64.8078 -64.8067 -64.8065 -64.8060 -64.8059
   -30.7340 -30.7315 -30.7217 -30.7139 -30.7121 -30.7118 -30.7051 -30.7026
   -30.7014 -30.6885 -30.6882 -30.6865 -30.6784 -30.6698 -30.6680 -30.6632
   -30.6630 -30.6629 -30.6614 -30.6577 -30.6485 -30.6443 -30.6414 -30.6338
   -30.6255 -30.6218 -30.6166 -30.6124 -30.6092 -30.6013 -30.5927 -30.5881
   -30.5862 -30.5854 -30.5813 -30.5759 -30.5689 -30.5657 -30.5643 -30.5537
   -30.5502 -30.5397 -30.5182 -30.5181 -30.5150 -30.5149 -30.5149 -30.5129
   -30.5088 -30.5076 -30.5055 -30.4976 -30.4950 -30.4941 -30.4934 -30.4924
   -30.4898 -30.4886 -30.4859 -30.4834 -30.4757 -30.4750 -30.4715 -30.4714
   -30.4710 -30.4707 -30.4705 -30.4687 -30.4684 -30.4682 -30.4680 -30.4574
   -30.4554 -30.4550 -30.4482 -30.4475 -30.4464 -30.4463 -30.4452 -30.4441
   -30.4432 -30.4421 -30.4361 -30.4356 -30.4345 -30.4319 -30.4297 -30.4269
   -30.4266 -30.4238 -30.4180 -30.4128 -30.4128 -30.4060 -30.3954 -30.3894
    12.7937  13.3824  14.2922  14.3075  14.3247  14.3388  14.3528  14.3746
    14.4634  14.4862  14.5161  14.5302  14.5967  14.6038  14.6120  14.6359
    14.6610  14.6932  14.7010  14.7013  14.7614  14.7766  14.8265  14.8375
    14.8582  14.8865  14.9718  14.9913  15.0091  15.0895  15.2014  15.2203
    15.2256  15.2447  15.2807  15.3358  15.3437  15.4679  15.4765  15.4994
    15.5285  15.5431  15.6062  15.6192  15.6383  15.6452  15.6468  15.6548
    15.6903  15.7335  15.7908  15.8218  15.8331  15.8899  15.9667  15.9913
    16.0234  16.0715  16.1781  16.1860  16.2167  16.2409  16.2575  16.2584
    16.2597  16.2644  16.3111  16.3465  16.3615  16.3678  16.3771  16.4006
    16.4473  16.4834  16.4954  16.6273  16.6310  16.6878  16.6941  16.7025
    16.7075  16.7096  16.7505  16.7623  16.7822  16.8467  16.8534  16.8610
    16.9392  16.9529  16.9723  17.0425  17.0734  17.0976  17.1371  17.1572
    17.3185  17.3269  17.3493  17.3683  17.3740  17.4005  17.4964  17.5891
    17.5911  17.6096  17.6716  17.7201  17.7703  17.7841  17.7949  17.7954
    17.8125  17.8219  17.8692  17.9010  17.9411  17.9644  17.9706  17.9761
    18.0308  18.0379  18.0851  18.1157  18.1412  18.1926  18.2200  18.2317
    18.2629  18.2645  18.2659  18.4036  18.4220  18.4250  18.4531  18.4589
    18.5692  18.6086  18.6508  18.6842  18.7193  18.7424  18.7456  18.7502
    18.7559  18.7607  18.7852  18.8471  18.8507  18.9494  18.9542  18.9784
    19.0029  19.0475  19.0494  19.0951  19.0955  19.0957  19.1002  19.1871
    19.2613  19.3360  19.4056  19.4101  19.4110  19.4131  19.6539  19.6725
    19.7870  20.0408  20.0747  20.3210  20.5833  20.6462  20.8512  21.2026
    21.6755  21.9502  22.0312  22.4668  22.8668  23.4156  23.5810  23.9553
    24.1752  24.4698  24.5215  24.8619  25.0730  25.5003  25.5994  26.1244
    26.5536  26.8781  27.4794  27.5615  27.5880  27.7865  28.0273  28.0905
    28.2856  28.3147  28.5258  28.8252  28.9726  29.1796  29.5167  29.6038
    29.7505  29.9072  29.9247  30.0687  30.1582  30.3477  30.3608  30.4227
    30.4905  30.7529

          k = 0.0556 0.1667-0.5000 ( 33016 PWs)   bands (ev):

   -64.8596 -64.8596 -64.8402 -64.8402 -64.8351 -64.8351 -64.8304 -64.8304
   -64.8260 -64.8260 -64.8260 -64.8260 -64.8233 -64.8233 -64.8194 -64.8193
   -64.8181 -64.8181 -64.8149 -64.8149 -64.8116 -64.8116 -64.8111 -64.8111
   -64.8104 -64.8103 -64.8092 -64.8092 -64.8066 -64.8066 -64.8059 -64.8059
   -30.7210 -30.7210 -30.7177 -30.7177 -30.7059 -30.7059 -30.7010 -30.7010
   -30.7004 -30.7004 -30.6969 -30.6969 -30.6847 -30.6847 -30.6669 -30.6669
   -30.6640 -30.6640 -30.6636 -30.6636 -30.6438 -30.6438 -30.6336 -30.6336
   -30.6215 -30.6215 -30.6214 -30.6214 -30.6015 -30.6015 -30.5922 -30.5922
   -30.5812 -30.5812 -30.5757 -30.5757 -30.5708 -30.5708 -30.5622 -30.5622
   -30.5516 -30.5516 -30.5182 -30.5182 -30.5147 -30.5147 -30.5047 -30.5047
   -30.4995 -30.4995 -30.4964 -30.4964 -30.4943 -30.4943 -30.4870 -30.4870
   -30.4844 -30.4844 -30.4823 -30.4823 -30.4810 -30.4810 -30.4803 -30.4803
   -30.4777 -30.4777 -30.4681 -30.4681 -30.4643 -30.4643 -30.4576 -30.4576
   -30.4569 -30.4569 -30.4524 -30.4524 -30.4473 -30.4473 -30.4449 -30.4449
   -30.4432 -30.4432 -30.4396 -30.4396 -30.4352 -30.4352 -30.4280 -30.4280
   -30.4269 -30.4269 -30.4143 -30.4143 -30.4033 -30.4033 -30.3967 -30.3967
    13.0638  13.0638  14.4030  14.4030  14.4407  14.4407  14.4884  14.4884
    14.5032  14.5032  14.5138  14.5138  14.5193  14.5193  14.6286  14.6286
    14.6347  14.6347  14.6586  14.6586  14.7162  14.7162  14.7685  14.7685
    14.8063  14.8063  14.8844  14.8844  15.0610  15.0610  15.1431  15.1431
    15.3379  15.3379  15.3425  15.3425  15.3769  15.3769  15.4804  15.4804
    15.5560  15.5560  15.5835  15.5835  15.6334  15.6334  15.6579  15.6579
    15.7081  15.7081  15.7415  15.7415  15.7450  15.7450  16.1004  16.1004
    16.1228  16.1228  16.1235  16.1235  16.1425  16.1425  16.2042  16.2042
    16.3047  16.3047  16.3174  16.3174  16.4190  16.4190  16.4567  16.4567
    16.5167  16.5167  16.5608  16.5608  16.5736  16.5736  16.6892  16.6892
    16.7337  16.7337  16.8010  16.8010  16.8176  16.8176  16.8208  16.8208
    16.8824  16.8824  16.9033  16.9033  17.3566  17.3566  17.3666  17.3666
    17.4158  17.4158  17.4276  17.4276  17.4537  17.4537  17.5024  17.5024
    17.5481  17.5481  17.6943  17.6943  17.7012  17.7012  17.7713  17.7713
    17.7842  17.7842  17.8198  17.8198  17.8283  17.8283  17.8955  17.8955
    18.0077  18.0077  18.0469  18.0469  18.1179  18.1179  18.1835  18.1835
    18.3126  18.3126  18.3627  18.3627  18.4354  18.4354  18.6038  18.6038
    18.6441  18.6441  18.6614  18.6614  18.7962  18.7962  18.8205  18.8205
    18.8821  18.8821  18.9088  18.9088  18.9126  18.9126  18.9190  18.9190
    18.9275  18.9275  18.9302  18.9302  19.0182  19.0182  19.0693  19.0693
    19.2846  19.2846  19.4071  19.4071  19.4114  19.4114  19.6568  19.6568
    20.1215  20.1215  20.1933  20.1933  20.4692  20.4692  20.7553  20.7553
    21.8438  21.8438  22.3051  22.3051  23.6387  23.6387  24.2097  24.2097
    24.2125  24.2125  24.7460  24.7460  24.8168  24.8168  25.2904  25.2904
    26.9712  26.9712  27.4086  27.4086  27.8551  27.8551  28.0132  28.0132
    28.3993  28.3993  28.4366  28.4366  28.9947  28.9947  29.3769  29.3769
    29.9087  29.9087  30.0767  30.0767  30.0842  30.0842  30.1925  30.1925
    30.8604  30.8604

          k = 0.0556 0.2778 0.2778 ( 33002 PWs)   bands (ev):

   -64.8640 -64.8492 -64.8492 -64.8382 -64.8375 -64.8324 -64.8297 -64.8297
   -64.8260 -64.8260 -64.8257 -64.8234 -64.8234 -64.8233 -64.8189 -64.8188
   -64.8188 -64.8188 -64.8162 -64.8162 -64.8148 -64.8148 -64.8110 -64.8086
   -64.8085 -64.8085 -64.8085 -64.8078 -64.8078 -64.8066 -64.8066 -64.8059
   -30.7382 -30.7382 -30.7242 -30.7161 -30.7150 -30.7116 -30.7116 -30.6875
   -30.6875 -30.6859 -30.6859 -30.6737 -30.6737 -30.6656 -30.6656 -30.6632
   -30.6632 -30.6599 -30.6599 -30.6580 -30.6580 -30.6485 -30.6466 -30.6466
   -30.6422 -30.6422 -30.6135 -30.6078 -30.6011 -30.6011 -30.5938 -30.5937
   -30.5865 -30.5842 -30.5763 -30.5763 -30.5500 -30.5486 -30.5486 -30.5380
   -30.5380 -30.5361 -30.5360 -30.5258 -30.5257 -30.5134 -30.5134 -30.5116
   -30.5115 -30.5115 -30.5103 -30.5103 -30.5055 -30.5055 -30.4972 -30.4972
   -30.4898 -30.4898 -30.4882 -30.4882 -30.4754 -30.4754 -30.4749 -30.4749
   -30.4699 -30.4698 -30.4675 -30.4675 -30.4589 -30.4589 -30.4568 -30.4563
   -30.4563 -30.4550 -30.4550 -30.4537 -30.4451 -30.4451 -30.4437 -30.4426
   -30.4414 -30.4404 -30.4352 -30.4342 -30.4342 -30.4336 -30.4284 -30.4284
   -30.4243 -30.4242 -30.4242 -30.4115 -30.4115 -30.4082 -30.3935 -30.3845
    12.7232  13.8399  13.8400  14.2480  14.2872  14.2906  14.2906  14.3162
    14.4439  14.4439  14.5265  14.5317  14.5317  14.6023  14.6623  14.7005
    14.7077  14.7077  14.7511  14.7511  14.8641  14.8641  14.8676  14.8676
    14.9512  14.9512  14.9744  14.9744  15.1405  15.1417  15.1417  15.1480
    15.1480  15.2455  15.2455  15.2781  15.2781  15.3224  15.3224  15.4015
    15.4015  15.4802  15.5982  15.5982  15.6044  15.6044  15.6280  15.8168
    15.8169  15.8454  15.8454  15.8571  15.8571  15.8628  15.8715  16.1167
    16.1167  16.1898  16.1898  16.2770  16.2770  16.2801  16.2801  16.3229
    16.3263  16.3263  16.3528  16.3528  16.3713  16.4655  16.4919  16.4985
    16.4985  16.5897  16.5897  16.6039  16.6342  16.6588  16.6714  16.6951
    16.6951  16.6966  16.7418  16.7418  16.7584  16.7584  16.7692  16.8048
    16.9056  16.9056  16.9290  16.9290  17.0957  17.0957  17.1503  17.1503
    17.2316  17.2316  17.2851  17.3251  17.3770  17.3770  17.4080  17.4080
    17.4263  17.4263  17.4943  17.4992  17.6416  17.6416  17.7727  17.8599
    17.8599  17.8753  17.8753  17.8855  17.9102  17.9942  17.9942  18.0678
    18.1090  18.1643  18.1643  18.2199  18.2199  18.2667  18.2667  18.3069
    18.3069  18.4176  18.4176  18.4188  18.4188  18.4403  18.4406  18.4406
    18.4432  18.4943  18.4943  18.6493  18.6925  18.7188  18.7188  18.7253
    18.7253  18.7286  18.7286  18.8309  18.8338  18.8713  18.9935  18.9935
    19.0684  19.1462  19.1462  19.1623  19.1773  19.1773  19.2755  19.2755
    19.2791  19.2791  19.3025  19.3025  19.3424  19.3579  19.6610  19.6882
    19.6882  19.9885  19.9885  20.3696  20.4676  20.4676  21.6581  21.6582
    22.0259  22.0259  22.3888  22.3889  22.6822  22.6822  23.2099  23.2099
    24.0100  24.4482  24.7409  24.7409  25.9961  25.9961  26.3515  26.3515
    26.4830  26.4830  26.9519  26.9519  27.5786  27.5786  27.7533  27.8817
    27.8817  28.2808  28.3973  28.3973  28.4781  29.5818  29.7692  29.7692
    29.9141  29.9141  30.3343  30.3493  30.6158  30.6158  30.7681  30.7681
    30.9851  30.9852

          k = 0.0556 0.2778 0.3889 ( 33028 PWs)   bands (ev):

   -64.8614 -64.8538 -64.8472 -64.8416 -64.8361 -64.8322 -64.8313 -64.8290
   -64.8280 -64.8270 -64.8255 -64.8242 -64.8225 -64.8203 -64.8187 -64.8180
   -64.8175 -64.8167 -64.8156 -64.8154 -64.8138 -64.8129 -64.8112 -64.8099
   -64.8098 -64.8096 -64.8096 -64.8084 -64.8080 -64.8074 -64.8064 -64.8060
   -30.7305 -30.7294 -30.7106 -30.7061 -30.7049 -30.7043 -30.7023 -30.7010
   -30.6994 -30.6856 -30.6848 -30.6847 -30.6810 -30.6772 -30.6730 -30.6727
   -30.6720 -30.6652 -30.6649 -30.6642 -30.6582 -30.6550 -30.6476 -30.6465
   -30.6453 -30.6316 -30.6226 -30.6205 -30.6117 -30.5993 -30.5872 -30.5831
   -30.5793 -30.5688 -30.5675 -30.5613 -30.5606 -30.5605 -30.5515 -30.5484
   -30.5350 -30.5290 -30.5266 -30.5217 -30.5192 -30.5187 -30.5129 -30.5112
   -30.5085 -30.5066 -30.5056 -30.5009 -30.4995 -30.4982 -30.4946 -30.4884
   -30.4879 -30.4873 -30.4863 -30.4861 -30.4834 -30.4779 -30.4750 -30.4742
   -30.4730 -30.4710 -30.4665 -30.4663 -30.4645 -30.4622 -30.4619 -30.4614
   -30.4552 -30.4545 -30.4535 -30.4503 -30.4488 -30.4486 -30.4481 -30.4478
   -30.4420 -30.4406 -30.4392 -30.4370 -30.4355 -30.4354 -30.4350 -30.4310
   -30.4259 -30.4255 -30.4174 -30.4071 -30.4051 -30.4014 -30.3998 -30.3875
    12.9277  13.5006  13.9973  14.3199  14.3855  14.3878  14.4008  14.4210
    14.4222  14.5728  14.5739  14.5754  14.5852  14.6093  14.6138  14.6536
    14.6779  14.6832  14.6875  14.7312  14.7426  14.7681  14.8182  14.8333
    14.8504  14.9026  14.9309  14.9434  15.0128  15.0381  15.0641  15.0754
    15.1137  15.2123  15.2167  15.2516  15.2956  15.3228  15.3259  15.3758
    15.3900  15.4396  15.4677  15.5051  15.5430  15.6515  15.6960  15.7140
    15.7331  15.7811  15.8438  15.8748  15.9021  15.9255  15.9783  16.0869
    16.0998  16.1001  16.1840  16.2407  16.2472  16.3053  16.3518  16.3543
    16.3888  16.3909  16.3965  16.4336  16.4645  16.4853  16.5080  16.5960
    16.6011  16.6389  16.6606  16.6630  16.6771  16.7026  16.7104  16.7408
    16.7457  16.7486  16.7617  16.8456  16.8460  16.8660  16.8710  16.8878
    16.8978  16.9746  16.9763  16.9788  17.0552  17.0745  17.1421  17.1573
    17.1677  17.2044  17.2264  17.2371  17.2478  17.2862  17.3084  17.4078
    17.5177  17.5221  17.5427  17.5521  17.5609  17.5729  17.6356  17.6548
    17.6876  17.7204  17.7784  17.7949  17.8081  17.8897  18.0525  18.0957
    18.1051  18.1152  18.1330  18.1392  18.2646  18.2695  18.2837  18.2970
    18.2980  18.3444  18.4498  18.4713  18.4714  18.4823  18.5387  18.5511
    18.5541  18.6280  18.6563  18.6898  18.6953  18.7564  18.7823  18.8523
    18.8662  18.8662  18.8776  18.8779  18.8898  18.8901  18.9189  18.9408
    19.0335  19.0860  19.0921  19.0934  19.0984  19.1003  19.1033  19.1124
    19.1625  19.2317  19.2816  19.2827  19.2937  19.3171  19.5918  19.6702
    19.8955  20.0359  20.1700  20.2672  20.3146  20.4071  21.1567  21.6715
    22.3363  22.3409  22.5397  22.6419  22.9420  23.1221  23.4300  23.9088
    23.9385  24.1376  24.5380  25.1207  25.1334  25.5117  25.8000  26.3670
    26.5576  26.6595  26.7920  26.9220  27.1490  27.1841  27.4410  27.6139
    27.9002  27.9390  28.1350  28.3539  28.9136  29.2356  29.7938  29.8938
    29.9697  30.0109  30.0912  30.1760  30.2679  30.3765  30.9008  30.9087
    31.0739  31.1438

          k = 0.0556 0.2778-0.5000 ( 33018 PWs)   bands (ev):

   -64.8579 -64.8579 -64.8447 -64.8447 -64.8343 -64.8343 -64.8298 -64.8298
   -64.8281 -64.8281 -64.8249 -64.8249 -64.8215 -64.8215 -64.8173 -64.8173
   -64.8165 -64.8165 -64.8147 -64.8147 -64.8124 -64.8124 -64.8117 -64.8117
   -64.8111 -64.8111 -64.8084 -64.8084 -64.8083 -64.8083 -64.8062 -64.8062
   -30.7189 -30.7189 -30.7172 -30.7172 -30.6961 -30.6961 -30.6946 -30.6946
   -30.6946 -30.6946 -30.6835 -30.6835 -30.6834 -30.6834 -30.6804 -30.6804
   -30.6795 -30.6795 -30.6701 -30.6700 -30.6510 -30.6510 -30.6499 -30.6499
   -30.6342 -30.6342 -30.6207 -30.6207 -30.6155 -30.6155 -30.5737 -30.5737
   -30.5721 -30.5721 -30.5653 -30.5653 -30.5594 -30.5594 -30.5479 -30.5479
   -30.5467 -30.5467 -30.5121 -30.5121 -30.5108 -30.5108 -30.5089 -30.5089
   -30.5066 -30.5066 -30.5053 -30.5053 -30.4999 -30.4999 -30.4978 -30.4978
   -30.4868 -30.4868 -30.4842 -30.4842 -30.4777 -30.4777 -30.4773 -30.4773
   -30.4689 -30.4689 -30.4664 -30.4664 -30.4630 -30.4630 -30.4612 -30.4612
   -30.4553 -30.4553 -30.4520 -30.4520 -30.4513 -30.4513 -30.4500 -30.4500
   -30.4444 -30.4444 -30.4418 -30.4418 -30.4372 -30.4372 -30.4293 -30.4293
   -30.4282 -30.4282 -30.4078 -30.4078 -30.4047 -30.4047 -30.3932 -30.3932
    13.1905  13.1905  14.1947  14.1947  14.4290  14.4290  14.4983  14.4983
    14.5211  14.5211  14.5217  14.5217  14.5854  14.5854  14.6275  14.6275
    14.7106  14.7106  14.7387  14.7387  14.7539  14.7539  14.7715  14.7715
    14.8146  14.8146  14.9165  14.9165  14.9596  14.9596  15.0241  15.0241
    15.1982  15.1982  15.2131  15.2131  15.2924  15.2924  15.3570  15.3570
    15.3652  15.3652  15.5464  15.5464  15.5813  15.5813  15.5949  15.5949
    15.8628  15.8628  15.8662  15.8662  15.9732  15.9732  15.9875  15.9875
    16.0091  16.0091  16.1224  16.1224  16.3314  16.3314  16.4190  16.4190
    16.4289  16.4289  16.4557  16.4557  16.4994  16.4994  16.5153  16.5153
    16.5619  16.5619  16.7106  16.7106  16.7576  16.7576  16.7698  16.7698
    16.7888  16.7888  16.8222  16.8222  16.8270  16.8271  16.8408  16.8408
    16.9975  16.9975  17.0206  17.0206  17.1754  17.1754  17.1809  17.1809
    17.1907  17.1907  17.2560  17.2560  17.2695  17.2695  17.2845  17.2845
    17.3421  17.3421  17.5998  17.5998  17.6032  17.6032  17.6558  17.6558
    17.6848  17.6848  17.7107  17.7107  17.7152  17.7152  18.0023  18.0023
    18.0079  18.0080  18.1946  18.1946  18.2234  18.2234  18.2361  18.2361
    18.3974  18.3974  18.5247  18.5247  18.5290  18.5290  18.6504  18.6504
    18.6735  18.6735  18.7179  18.7179  18.7661  18.7661  18.7663  18.7663
    18.8878  18.8878  18.9149  18.9149  18.9411  18.9411  18.9881  18.9881
    18.9902  18.9902  19.0054  19.0054  19.0107  19.0107  19.0264  19.0264
    19.2229  19.2229  19.2874  19.2874  19.2940  19.2940  19.6243  19.6243
    19.7807  19.7807  20.3452  20.3452  20.6606  20.6606  20.9440  20.9440
    22.5379  22.5379  22.9124  22.9124  23.0972  23.0972  23.5330  23.5330
    24.2481  24.2481  24.7234  24.7234  25.1444  25.1444  25.8800  25.8800
    26.6279  26.6279  26.9858  26.9858  27.0583  27.0583  27.3645  27.3645
    27.5289  27.5289  28.7009  28.7009  29.0365  29.0365  29.6138  29.6138
    29.9137  29.9137  30.0535  30.0535  30.4767  30.4767  30.6671  30.6671
    31.3196  31.3196

          k = 0.0556 0.3889 0.3889 ( 33018 PWs)   bands (ev):

   -64.8588 -64.8516 -64.8516 -64.8454 -64.8348 -64.8312 -64.8312 -64.8302
   -64.8286 -64.8273 -64.8273 -64.8254 -64.8181 -64.8181 -64.8165 -64.8164
   -64.8164 -64.8163 -64.8145 -64.8145 -64.8138 -64.8138 -64.8110 -64.8109
   -64.8109 -64.8109 -64.8102 -64.8102 -64.8086 -64.8070 -64.8070 -64.8063
   -30.7233 -30.7233 -30.7005 -30.7004 -30.6996 -30.6996 -30.6973 -30.6967
   -30.6947 -30.6947 -30.6853 -30.6842 -30.6841 -30.6813 -30.6813 -30.6728
   -30.6728 -30.6661 -30.6661 -30.6653 -30.6653 -30.6640 -30.6640 -30.6517
   -30.6494 -30.6494 -30.6347 -30.6204 -30.6154 -30.5992 -30.5992 -30.5735
   -30.5653 -30.5653 -30.5535 -30.5535 -30.5464 -30.5389 -30.5389 -30.5336
   -30.5336 -30.5330 -30.5330 -30.5282 -30.5282 -30.5095 -30.5095 -30.5052
   -30.5052 -30.5047 -30.5047 -30.5031 -30.5015 -30.5015 -30.4993 -30.4992
   -30.4962 -30.4962 -30.4838 -30.4838 -30.4813 -30.4813 -30.4805 -30.4763
   -30.4763 -30.4661 -30.4661 -30.4636 -30.4636 -30.4634 -30.4634 -30.4607
   -30.4549 -30.4545 -30.4545 -30.4533 -30.4533 -30.4508 -30.4479 -30.4437
   -30.4435 -30.4407 -30.4392 -30.4392 -30.4388 -30.4366 -30.4346 -30.4280
   -30.4280 -30.4242 -30.4242 -30.4062 -30.4000 -30.3982 -30.3982 -30.3881
    13.1239  13.6722  13.6722  14.1446  14.3653  14.4588  14.4685  14.5193
    14.5194  14.5519  14.5519  14.5535  14.6687  14.6687  14.6952  14.7133
    14.7133  14.7275  14.7275  14.7289  14.7289  14.7534  14.7534  14.8733
    14.8733  14.8886  14.9050  14.9416  14.9416  15.0463  15.0463  15.0493
    15.0493  15.0743  15.0743  15.1183  15.1183  15.2526  15.2526  15.2666
    15.2666  15.2949  15.2949  15.5313  15.5313  15.5817  15.7705  15.7705
    15.7753  15.7753  15.8717  15.9375  15.9793  15.9793  15.9844  15.9844
    15.9993  16.1913  16.2996  16.2996  16.3531  16.4741  16.4852  16.4852
    16.5228  16.5228  16.5288  16.5288  16.5293  16.5293  16.5675  16.5675
    16.5946  16.6079  16.7514  16.7619  16.7770  16.7770  16.7848  16.8113
    16.8311  16.8424  16.8424  16.8620  16.8633  16.8633  16.9782  16.9782
    16.9885  16.9885  16.9911  16.9911  17.0076  17.0076  17.1068  17.1068
    17.1130  17.1301  17.2028  17.2028  17.2070  17.2688  17.3106  17.3106
    17.3158  17.3255  17.3255  17.3435  17.3435  17.3683  17.3683  17.5288
    17.6368  17.6368  17.6556  17.6556  17.7640  17.8283  17.8283  17.8598
    18.0157  18.1604  18.2565  18.2566  18.3013  18.3013  18.3897  18.3897
    18.4629  18.4629  18.5141  18.5141  18.5714  18.5714  18.5716  18.6775
    18.6775  18.7718  18.7962  18.8003  18.8003  18.8038  18.8038  18.8038
    18.8092  18.8092  18.8734  18.9432  18.9742  18.9742  18.9790  18.9790
    18.9895  19.0781  19.0781  19.1044  19.1044  19.1075  19.1075  19.1111
    19.1351  19.1351  19.1360  19.1360  19.2332  19.3120  19.4288  19.5057
    19.5057  19.9949  19.9949  20.0851  20.7756  20.7756  21.8171  21.8171
    22.2072  22.2072  22.9772  22.9772  23.3405  23.3405  23.4027  23.4027
    23.8209  23.8209  24.9936  24.9936  25.0223  25.7925  26.2103  26.2103
    26.3759  26.3759  26.6244  26.6244  26.7810  26.7810  27.1880  27.1881
    27.2983  27.3113  27.3113  28.6019  28.9893  29.5686  29.9090  29.9138
    29.9138  30.0480  30.4526  30.4526  30.6233  30.6233  31.0416  31.0416
    31.4719  31.4719

          k = 0.0556 0.3889-0.5000 ( 33038 PWs)   bands (ev):

   -64.8555 -64.8555 -64.8488 -64.8488 -64.8332 -64.8332 -64.8300 -64.8300
   -64.8289 -64.8289 -64.8264 -64.8264 -64.8174 -64.8174 -64.8153 -64.8153
   -64.8150 -64.8150 -64.8142 -64.8142 -64.8131 -64.8131 -64.8125 -64.8125
   -64.8122 -64.8122 -64.8106 -64.8106 -64.8077 -64.8077 -64.8066 -64.8066
   -30.7135 -30.7135 -30.7129 -30.7129 -30.6936 -30.6936 -30.6935 -30.6935
   -30.6888 -30.6888 -30.6861 -30.6861 -30.6815 -30.6815 -30.6809 -30.6809
   -30.6749 -30.6749 -30.6678 -30.6678 -30.6660 -30.6660 -30.6626 -30.6626
   -30.6495 -30.6495 -30.6326 -30.6326 -30.6109 -30.6109 -30.5862 -30.5862
   -30.5518 -30.5518 -30.5485 -30.5485 -30.5443 -30.5443 -30.5398 -30.5398
   -30.5250 -30.5250 -30.5205 -30.5205 -30.5197 -30.5196 -30.5181 -30.5181
   -30.5152 -30.5152 -30.5034 -30.5034 -30.4989 -30.4989 -30.4954 -30.4954
   -30.4897 -30.4896 -30.4876 -30.4876 -30.4818 -30.4818 -30.4799 -30.4799
   -30.4730 -30.4730 -30.4728 -30.4728 -30.4595 -30.4595 -30.4595 -30.4595
   -30.4591 -30.4591 -30.4553 -30.4553 -30.4460 -30.4460 -30.4449 -30.4449
   -30.4434 -30.4434 -30.4419 -30.4419 -30.4330 -30.4330 -30.4329 -30.4329
   -30.4314 -30.4314 -30.4144 -30.4144 -30.3977 -30.3977 -30.3918 -30.3918
    13.3756  13.3756  13.8903  13.8903  14.4431  14.4431  14.5455  14.5455
    14.5484  14.5484  14.5826  14.5826  14.6349  14.6349  14.6742  14.6742
    14.6857  14.6857  14.8022  14.8022  14.8242  14.8242  14.8688  14.8688
    14.8728  14.8728  14.8834  14.8834  14.9254  14.9254  14.9971  14.9971
    15.0631  15.0631  15.0868  15.0868  15.1579  15.1579  15.1654  15.1654
    15.1766  15.1766  15.4137  15.4137  15.6356  15.6356  15.6416  15.6416
    15.8654  15.8654  15.8725  15.8725  15.9736  15.9736  16.1035  16.1035
    16.1128  16.1128  16.2559  16.2559  16.3422  16.3422  16.4814  16.4814
    16.5275  16.5275  16.5463  16.5463  16.6527  16.6527  16.6875  16.6875
    16.7714  16.7714  16.8259  16.8259  16.8326  16.8326  16.8335  16.8335
    16.8390  16.8390  16.8569  16.8569  16.9243  16.9243  16.9464  16.9464
    16.9705  16.9705  17.0340  17.0340  17.0344  17.0344  17.0453  17.0453
    17.0533  17.0533  17.0847  17.0847  17.1696  17.1696  17.1714  17.1714
    17.1998  17.1998  17.3927  17.3927  17.4997  17.4997  17.5140  17.5140
    17.5491  17.5491  17.5758  17.5758  17.5876  17.5876  17.6916  17.6916
    18.1438  18.1438  18.2561  18.2561  18.4097  18.4097  18.4219  18.4219
    18.4355  18.4355  18.5531  18.5531  18.6517  18.6517  18.6883  18.6883
    18.6988  18.6988  18.7247  18.7247  18.8321  18.8321  18.9004  18.9004
    18.9056  18.9056  18.9672  18.9672  18.9932  18.9932  19.0109  19.0109
    19.0406  19.0406  19.0436  19.0436  19.0582  19.0582  19.0625  19.0625
    19.1185  19.1185  19.1424  19.1424  19.1733  19.1733  19.4174  19.4174
    19.6158  19.6158  19.9893  19.9893  21.2946  21.2946  21.4668  21.4668
    22.5530  22.5530  22.7698  22.7698  23.2699  23.2699  23.5043  23.5043
    24.2095  24.2095  24.5038  24.5038  25.5900  25.5900  26.4201  26.4201
    26.4716  26.4716  26.5465  26.5465  26.6466  26.6466  26.7741  26.7741
    26.8357  26.8357  27.9406  27.9406  29.6901  29.6901  29.8929  29.8929
    29.9639  29.9639  30.2787  30.2787  31.0251  31.0252  31.1297  31.1297
    31.1575  31.1575

          k = 0.0556-0.5000-0.5000 ( 32992 PWs)   bands (ev):

   -64.8525 -64.8525 -64.8525 -64.8525 -64.8317 -64.8317 -64.8317 -64.8317
   -64.8278 -64.8278 -64.8278 -64.8278 -64.8137 -64.8137 -64.8137 -64.8137
   -64.8137 -64.8137 -64.8137 -64.8137 -64.8137 -64.8137 -64.8137 -64.8137
   -64.8136 -64.8136 -64.8136 -64.8136 -64.8071 -64.8071 -64.8071 -64.8071
   -30.7049 -30.7049 -30.7049 -30.7049 -30.7049 -30.7049 -30.7049 -30.7049
   -30.6787 -30.6787 -30.6787 -30.6786 -30.6786 -30.6786 -30.6786 -30.6786
   -30.6753 -30.6753 -30.6753 -30.6753 -30.6656 -30.6656 -30.6656 -30.6656
   -30.6505 -30.6505 -30.6505 -30.6505 -30.5988 -30.5988 -30.5988 -30.5988
   -30.5325 -30.5325 -30.5325 -30.5325 -30.5325 -30.5325 -30.5325 -30.5325
   -30.5309 -30.5309 -30.5309 -30.5309 -30.5309 -30.5309 -30.5309 -30.5309
   -30.5027 -30.5027 -30.5027 -30.5027 -30.4925 -30.4925 -30.4925 -30.4925
   -30.4925 -30.4925 -30.4925 -30.4925 -30.4925 -30.4925 -30.4925 -30.4924
   -30.4668 -30.4667 -30.4667 -30.4667 -30.4667 -30.4667 -30.4667 -30.4667
   -30.4519 -30.4519 -30.4519 -30.4519 -30.4473 -30.4473 -30.4473 -30.4473
   -30.4387 -30.4387 -30.4387 -30.4387 -30.4366 -30.4366 -30.4366 -30.4366
   -30.4229 -30.4229 -30.4229 -30.4229 -30.3932 -30.3932 -30.3932 -30.3932
    13.6122  13.6122  13.6122  13.6122  14.4826  14.4826  14.4826  14.4826
    14.5993  14.5993  14.5993  14.5993  14.6761  14.6761  14.6761  14.6761
    14.8046  14.8046  14.8046  14.8046  14.8046  14.8046  14.8046  14.8047
    14.9746  14.9746  14.9746  14.9746  14.9746  14.9746  14.9746  14.9746
    15.0143  15.0143  15.0143  15.0144  15.0144  15.0144  15.0144  15.0144
    15.2339  15.2339  15.2339  15.2339  15.7448  15.7448  15.7448  15.7448
    15.7448  15.7448  15.7448  15.7448  16.0547  16.0547  16.0547  16.0547
    16.2985  16.2985  16.2985  16.2985  16.4901  16.4901  16.4901  16.4902
    16.6086  16.6086  16.6086  16.6086  16.6210  16.6210  16.6210  16.6210
    16.8441  16.8441  16.8441  16.8441  16.8728  16.8728  16.8728  16.8728
    16.8728  16.8728  16.8728  16.8728  16.9248  16.9248  16.9248  16.9248
    16.9321  16.9321  16.9321  16.9321  17.0395  17.0395  17.0395  17.0395
    17.1602  17.1602  17.1602  17.1602  17.1602  17.1602  17.1602  17.1602
    17.3238  17.3238  17.3238  17.3238  17.3370  17.3370  17.3370  17.3370
    17.3370  17.3370  17.3370  17.3370  17.6367  17.6367  17.6367  17.6367
    18.2899  18.2899  18.2899  18.2899  18.3796  18.3796  18.3796  18.3796
    18.5766  18.5767  18.5767  18.5767  18.5767  18.5767  18.5767  18.5767
    18.8973  18.8973  18.8973  18.8973  18.9242  18.9242  18.9242  18.9242
    18.9242  18.9242  18.9242  18.9242  19.0373  19.0373  19.0373  19.0373
    19.0697  19.0697  19.0697  19.0697  19.0697  19.0697  19.0697  19.0697
    19.0701  19.0701  19.0701  19.0701  19.1389  19.1389  19.1389  19.1389
    19.7230  19.7230  19.7230  19.7230  22.0075  22.0075  22.0075  22.0075
    22.0075  22.0075  22.0075  22.0075  23.9740  23.9740  23.9740  23.9740
    23.9740  23.9740  23.9740  23.9740  26.1177  26.1177  26.1177  26.1177
    26.4527  26.4527  26.4527  26.4527  26.4527  26.4527  26.4527  26.4527
    27.2161  27.2161  27.2161  27.2161  29.9125  29.9125  29.9125  29.9125
    30.3977  30.3977  30.3977  30.3977  30.9904  30.9904  30.9904  30.9904
    31.5756  31.5756

          k = 0.1667 0.1667 0.1667 ( 32972 PWs)   bands (ev):

   -64.8668 -64.8448 -64.8448 -64.8448 -64.8308 -64.8308 -64.8308 -64.8287
   -64.8287 -64.8287 -64.8249 -64.8207 -64.8206 -64.8206 -64.8206 -64.8206
   -64.8206 -64.8206 -64.8205 -64.8205 -64.8147 -64.8147 -64.8147 -64.8068
   -64.8068 -64.8068 -64.8067 -64.8067 -64.8067 -64.8067 -64.8067 -64.8067
   -30.7446 -30.7446 -30.7446 -30.7306 -30.7228 -30.7228 -30.7228 -30.6705
   -30.6705 -30.6705 -30.6631 -30.6631 -30.6631 -30.6630 -30.6630 -30.6630
   -30.6579 -30.6579 -30.6579 -30.6579 -30.6579 -30.6579 -30.6300 -30.6300
   -30.6300 -30.6155 -30.6155 -30.6155 -30.6011 -30.6011 -30.6011 -30.6011
   -30.6011 -30.6011 -30.5693 -30.5693 -30.5693 -30.5329 -30.5328 -30.5328
   -30.5295 -30.5295 -30.5295 -30.5282 -30.5282 -30.5282 -30.5282 -30.5282
   -30.5282 -30.5154 -30.5154 -30.5154 -30.5123 -30.5123 -30.5123 -30.5123
   -30.5123 -30.5123 -30.4864 -30.4864 -30.4864 -30.4713 -30.4713 -30.4713
   -30.4676 -30.4676 -30.4676 -30.4537 -30.4537 -30.4537 -30.4503 -30.4503
   -30.4503 -30.4443 -30.4443 -30.4443 -30.4442 -30.4442 -30.4442 -30.4407
   -30.4407 -30.4407 -30.4324 -30.4324 -30.4324 -30.4314 -30.4314 -30.4300
   -30.4300 -30.4300 -30.4184 -30.4184 -30.4184 -30.4061 -30.3841 -30.3841
    12.5118  14.1222  14.1222  14.1222  14.1576  14.1735  14.1735  14.1735
    14.2798  14.2798  14.2798  14.4411  14.4411  14.4411  14.6771  14.6771
    14.6771  14.9207  14.9207  14.9207  15.0404  15.0405  15.0405  15.0405
    15.0405  15.0405  15.1128  15.1128  15.1128  15.2543  15.2543  15.2543
    15.2585  15.2585  15.2585  15.2585  15.2585  15.2585  15.5007  15.5007
    15.5007  15.5007  15.5007  15.5007  15.6378  15.6378  15.6378  15.9295
    15.9295  15.9295  16.0214  16.0214  16.0214  16.0214  16.0214  16.0214
    16.0838  16.0838  16.0838  16.1725  16.1725  16.1725  16.1725  16.1725
    16.1725  16.3235  16.3235  16.3235  16.4108  16.4903  16.4903  16.4903
    16.4903  16.4903  16.4903  16.5027  16.5027  16.5027  16.5031  16.5031
    16.5650  16.5650  16.5650  16.5745  16.5745  16.5988  16.5988  16.5988
    16.9903  16.9903  16.9903  17.1602  17.1602  17.1602  17.2924  17.2924
    17.2924  17.3431  17.3431  17.3431  17.4665  17.4665  17.4665  17.5141
    17.5141  17.5141  17.5141  17.5141  17.5141  17.8020  17.8020  17.8020
    17.8473  17.8473  17.8473  17.9246  17.9246  17.9246  18.0005  18.0005
    18.0514  18.0514  18.0514  18.0515  18.0515  18.0515  18.2688  18.2688
    18.2688  18.3625  18.3625  18.3625  18.3625  18.3625  18.3625  18.4787
    18.4787  18.4787  18.5136  18.5136  18.5136  18.8446  18.8446  18.8446
    18.8584  18.8584  18.8584  18.9353  18.9354  18.9354  18.9847  18.9847
    18.9847  19.0279  19.0279  19.2029  19.2029  19.2029  19.2684  19.3495
    19.3495  19.3495  19.3495  19.3495  19.3495  19.4103  19.4103  19.4103
    20.0458  20.0458  20.0458  21.1920  21.1920  21.1920  21.5341  21.5341
    21.5341  21.5341  21.5341  21.5341  22.7819  22.7820  22.7820  23.1712
    23.1712  23.1712  26.2775  26.2775  26.2775  26.2775  26.2775  26.2775
    26.5140  26.5140  26.5140  27.6976  28.0624  28.0624  28.0624  28.0624
    28.0624  28.0624  28.7307  28.7307  28.7307  30.1990  30.1990  30.1990
    30.3520  30.3520  30.3520  30.3520  30.3520  30.3520  30.5488  30.5488
    30.5488  30.5488

          k = 0.1667 0.1667 0.2778 ( 32998 PWs)   bands (ev):

   -64.8649 -64.8499 -64.8436 -64.8436 -64.8341 -64.8341 -64.8303 -64.8281
   -64.8280 -64.8263 -64.8237 -64.8225 -64.8225 -64.8206 -64.8206 -64.8206
   -64.8205 -64.8192 -64.8174 -64.8174 -64.8152 -64.8129 -64.8129 -64.8086
   -64.8079 -64.8079 -64.8074 -64.8074 -64.8068 -64.8067 -64.8067 -64.8067
   -30.7408 -30.7368 -30.7368 -30.7181 -30.7172 -30.7172 -30.7141 -30.6886
   -30.6782 -30.6782 -30.6723 -30.6723 -30.6691 -30.6691 -30.6686 -30.6686
   -30.6633 -30.6633 -30.6581 -30.6581 -30.6566 -30.6566 -30.6464 -30.6409
   -30.6222 -30.6222 -30.6145 -30.6145 -30.6035 -30.6035 -30.5917 -30.5917
   -30.5864 -30.5863 -30.5815 -30.5815 -30.5476 -30.5461 -30.5461 -30.5421
   -30.5421 -30.5373 -30.5373 -30.5246 -30.5148 -30.5148 -30.5137 -30.5137
   -30.5132 -30.5131 -30.5122 -30.5122 -30.5115 -30.5059 -30.5049 -30.5049
   -30.5031 -30.5031 -30.4847 -30.4787 -30.4752 -30.4752 -30.4740 -30.4735
   -30.4735 -30.4644 -30.4640 -30.4640 -30.4611 -30.4611 -30.4565 -30.4565
   -30.4562 -30.4562 -30.4526 -30.4454 -30.4454 -30.4442 -30.4441 -30.4437
   -30.4425 -30.4425 -30.4360 -30.4360 -30.4332 -30.4283 -30.4250 -30.4250
   -30.4212 -30.4196 -30.4192 -30.4174 -30.4147 -30.4147 -30.3882 -30.3856
    12.6529  13.7811  14.1938  14.2081  14.2081  14.2398  14.2547  14.2547
    14.3555  14.3555  14.3926  14.4953  14.5308  14.5308  14.6436  14.7178
    14.7462  14.7462  14.7781  14.7781  14.8775  14.8775  14.9534  15.0141
    15.0141  15.0731  15.0731  15.0886  15.1168  15.1168  15.1739  15.1739
    15.1997  15.1997  15.2144  15.2144  15.2563  15.2563  15.3303  15.3303
    15.5118  15.5118  15.5317  15.5317  15.6885  15.6885  15.8138  15.8504
    15.8504  15.8738  15.8738  15.9155  15.9413  15.9413  16.0309  16.0309
    16.0639  16.0639  16.1522  16.1522  16.1568  16.1568  16.2314  16.2817
    16.2817  16.3453  16.3555  16.4153  16.4153  16.4995  16.4995  16.4998
    16.4998  16.5074  16.5074  16.5224  16.5377  16.6046  16.6046  16.6209
    16.6297  16.6746  16.6746  16.6876  16.6942  16.7823  16.8751  16.8751
    16.8772  16.8772  16.9853  16.9862  17.0917  17.0917  17.1130  17.1638
    17.1638  17.2541  17.2541  17.3041  17.3235  17.3235  17.5746  17.5746
    17.6066  17.6066  17.6487  17.6520  17.6789  17.6789  17.8002  17.8002
    17.8475  17.8475  17.9248  17.9248  17.9278  17.9730  17.9730  17.9735
    18.0021  18.0021  18.0401  18.0446  18.0446  18.0711  18.1488  18.2130
    18.2130  18.3661  18.4090  18.4090  18.5457  18.5457  18.5657  18.5685
    18.5685  18.5783  18.5783  18.5874  18.5874  18.6438  18.6438  18.6701
    18.7823  18.7856  18.7856  18.8863  18.8879  18.8951  18.8951  18.9649
    19.1696  19.1869  19.1870  19.2430  19.2430  19.2452  19.2452  19.2539
    19.2539  19.3525  19.3525  19.3533  19.3536  19.3908  19.3944  19.3944
    19.6549  19.6549  19.9754  21.0489  21.0489  21.2637  21.2638  21.5099
    21.5099  21.8299  22.1710  22.1730  22.1730  23.1324  23.2207  23.2207
    23.8139  23.8139  25.4202  25.4202  25.6446  25.6446  26.3476  26.4431
    26.4431  26.8371  26.8371  27.1860  27.1860  27.8636  28.2294  28.2294
    28.2578  28.2741  28.2741  28.5976  28.5976  29.4583  29.4583  29.8466
    29.8466  30.1434  30.1434  30.4951  30.4951  30.7252  30.7252  30.9453
    30.9455  30.9790

          k = 0.1667 0.1667 0.3889 ( 33010 PWs)   bands (ev):

   -64.8622 -64.8546 -64.8419 -64.8419 -64.8371 -64.8371 -64.8296 -64.8275
   -64.8271 -64.8270 -64.8242 -64.8242 -64.8206 -64.8206 -64.8206 -64.8206
   -64.8190 -64.8180 -64.8159 -64.8144 -64.8144 -64.8113 -64.8112 -64.8111
   -64.8096 -64.8096 -64.8084 -64.8084 -64.8068 -64.8068 -64.8067 -64.8067
   -30.7329 -30.7254 -30.7254 -30.7090 -30.7090 -30.7061 -30.7025 -30.7012
   -30.6950 -30.6950 -30.6861 -30.6861 -30.6711 -30.6711 -30.6681 -30.6680
   -30.6662 -30.6662 -30.6653 -30.6641 -30.6596 -30.6596 -30.6487 -30.6487
   -30.6307 -30.6307 -30.6034 -30.6034 -30.5975 -30.5975 -30.5918 -30.5918
   -30.5807 -30.5807 -30.5719 -30.5719 -30.5622 -30.5622 -30.5556 -30.5556
   -30.5471 -30.5471 -30.5246 -30.5174 -30.5127 -30.5126 -30.5121 -30.5121
   -30.5057 -30.5025 -30.5025 -30.4971 -30.4966 -30.4965 -30.4947 -30.4947
   -30.4920 -30.4920 -30.4890 -30.4823 -30.4823 -30.4820 -30.4803 -30.4703
   -30.4703 -30.4696 -30.4695 -30.4666 -30.4666 -30.4618 -30.4618 -30.4606
   -30.4587 -30.4587 -30.4509 -30.4486 -30.4486 -30.4464 -30.4440 -30.4440
   -30.4434 -30.4434 -30.4427 -30.4427 -30.4392 -30.4363 -30.4256 -30.4212
   -30.4195 -30.4195 -30.4138 -30.4138 -30.4109 -30.4063 -30.3941 -30.3899
    12.8597  13.4387  14.2693  14.3279  14.3279  14.3323  14.3724  14.3724
    14.4682  14.4682  14.5344  14.5367  14.5531  14.5756  14.6253  14.6253
    14.6626  14.6626  14.6951  14.6951  14.7992  14.7992  14.8078  14.8400
    14.8401  14.8962  15.0322  15.0322  15.0648  15.0648  15.1097  15.1097
    15.1779  15.1779  15.2205  15.2205  15.3316  15.3316  15.3617  15.3617
    15.5295  15.5295  15.5899  15.5899  15.6800  15.6800  15.7150  15.7150
    15.7616  15.7616  15.7803  15.7803  15.9476  15.9476  15.9612  15.9805
    16.1141  16.1141  16.1334  16.1811  16.1811  16.2290  16.2290  16.2591
    16.3263  16.3263  16.3377  16.3377  16.4632  16.5079  16.5079  16.5103
    16.5103  16.5225  16.6051  16.6311  16.6311  16.7048  16.7122  16.7656
    16.7656  16.7788  16.7788  16.8177  16.8188  16.8189  16.8195  16.8195
    16.8321  16.9214  16.9551  17.0208  17.0752  17.1307  17.1716  17.1716
    17.1882  17.1882  17.2294  17.2294  17.2942  17.2942  17.6331  17.6331
    17.6408  17.6742  17.6862  17.6862  17.7009  17.7009  17.7976  17.7976
    17.8266  17.8266  17.8292  17.8304  17.8304  17.9254  17.9254  17.9498
    17.9498  17.9784  18.0010  18.0120  18.0120  18.0982  18.1692  18.1692
    18.2634  18.2963  18.3672  18.4056  18.4056  18.4929  18.4929  18.5639
    18.6984  18.6984  18.7121  18.7202  18.7202  18.7472  18.7627  18.7627
    18.7657  18.7657  18.7872  18.7872  18.7936  18.7936  18.8320  19.0790
    19.0925  19.1047  19.1047  19.1054  19.1054  19.1069  19.1069  19.2765
    19.3009  19.3009  19.3577  19.3577  19.3784  19.3784  19.5543  19.6804
    19.6804  19.8695  20.0151  20.5800  20.5800  21.3434  21.3434  21.4514
    21.4708  21.4708  22.3809  22.8915  22.8915  23.0232  23.7663  23.7663
    24.5192  24.5192  24.5354  24.5354  25.0033  25.0033  26.0804  26.0804
    26.3651  26.9709  26.9709  27.1373  27.3099  27.3099  27.7530  27.7530
    28.5740  28.5740  28.6399  28.6399  28.8895  29.1154  29.1154  29.3747
    29.3747  29.9755  29.9755  30.3512  30.4695  30.4695  30.6746  30.6746
    30.8659  30.8659

          k = 0.1667 0.1667-0.5000 ( 33000 PWs)   bands (ev):

   -64.8587 -64.8587 -64.8397 -64.8397 -64.8397 -64.8397 -64.8286 -64.8286
   -64.8258 -64.8258 -64.8258 -64.8258 -64.8206 -64.8206 -64.8206 -64.8206
   -64.8169 -64.8168 -64.8148 -64.8148 -64.8118 -64.8118 -64.8118 -64.8118
   -64.8096 -64.8096 -64.8096 -64.8096 -64.8068 -64.8068 -64.8067 -64.8067
   -30.7211 -30.7211 -30.7113 -30.7113 -30.7112 -30.7112 -30.6986 -30.6986
   -30.6986 -30.6986 -30.6845 -30.6845 -30.6843 -30.6843 -30.6709 -30.6709
   -30.6709 -30.6709 -30.6626 -30.6626 -30.6626 -30.6626 -30.6398 -30.6398
   -30.6398 -30.6398 -30.5994 -30.5994 -30.5994 -30.5994 -30.5799 -30.5799
   -30.5799 -30.5799 -30.5685 -30.5685 -30.5685 -30.5685 -30.5586 -30.5586
   -30.5586 -30.5586 -30.5122 -30.5122 -30.5122 -30.5122 -30.5081 -30.5081
   -30.5023 -30.5023 -30.4981 -30.4981 -30.4915 -30.4915 -30.4915 -30.4915
   -30.4827 -30.4827 -30.4827 -30.4827 -30.4808 -30.4808 -30.4808 -30.4808
   -30.4805 -30.4805 -30.4805 -30.4805 -30.4569 -30.4569 -30.4531 -30.4531
   -30.4531 -30.4531 -30.4514 -30.4514 -30.4514 -30.4514 -30.4488 -30.4488
   -30.4484 -30.4484 -30.4439 -30.4439 -30.4438 -30.4438 -30.4232 -30.4232
   -30.4155 -30.4155 -30.4155 -30.4155 -30.4018 -30.4018 -30.3970 -30.3970
    13.1254  13.1254  14.3834  14.3834  14.4416  14.4416  14.4712  14.4712
    14.4712  14.4712  14.5218  14.5218  14.5218  14.5218  14.6166  14.6166
    14.6166  14.6166  14.6806  14.6806  14.7072  14.7072  14.8319  14.8319
    14.8319  14.8319  14.9494  14.9494  14.9494  14.9494  15.1443  15.1443
    15.1443  15.1443  15.3223  15.3223  15.3223  15.3223  15.5062  15.5062
    15.5062  15.5062  15.5705  15.5705  15.5705  15.5705  15.6770  15.6770
    15.6770  15.6770  15.8517  15.8517  15.8517  15.8517  16.0394  16.0394
    16.1313  16.1313  16.1711  16.1711  16.1711  16.1711  16.2426  16.2426
    16.2426  16.2426  16.5048  16.5048  16.5118  16.5118  16.5118  16.5118
    16.5629  16.5629  16.5629  16.5629  16.6821  16.6821  16.6821  16.6821
    16.7040  16.7040  16.8129  16.8129  16.8209  16.8209  16.8922  16.8922
    16.8922  16.8922  16.9652  16.9652  17.2092  17.2092  17.2092  17.2092
    17.2961  17.2961  17.2961  17.2961  17.3738  17.3738  17.4798  17.4798
    17.7217  17.7217  17.7298  17.7298  17.7298  17.7298  17.7479  17.7479
    17.7479  17.7479  17.8225  17.8225  17.8225  17.8225  17.8986  17.8986
    17.8986  17.8986  17.9404  17.9404  17.9404  17.9404  18.1733  18.1733
    18.2911  18.2911  18.5128  18.5128  18.5702  18.5702  18.5959  18.5959
    18.5959  18.5959  18.5976  18.5976  18.5976  18.5976  18.9421  18.9421
    18.9421  18.9421  18.9507  18.9507  18.9507  18.9507  18.9688  18.9688
    18.9688  18.9688  18.9771  18.9771  18.9843  18.9843  18.9843  18.9843
    19.1839  19.1839  19.3660  19.3660  19.3660  19.3660  19.7285  19.7285
    20.1238  20.1238  20.1238  20.1238  20.7138  20.7138  21.4149  21.4149
    21.4150  21.4150  22.7855  22.7855  23.6837  23.6837  23.6837  23.6837
    24.3704  24.3704  24.3704  24.3704  25.2858  25.2858  25.2858  25.2858
    26.6228  26.6228  27.3174  27.3174  27.3174  27.3174  27.9171  27.9171
    27.9171  27.9171  28.9461  28.9461  28.9461  28.9461  29.5890  29.5890
    29.6016  29.6016  29.6016  29.6016  30.5016  30.5016  30.5016  30.5016
    31.0365  31.0365

          k = 0.1667 0.2778 0.2778 ( 33025 PWs)   bands (ev):

   -64.8631 -64.8486 -64.8486 -64.8425 -64.8377 -64.8334 -64.8334 -64.8281
   -64.8274 -64.8231 -64.8231 -64.8223 -64.8223 -64.8210 -64.8189 -64.8188
   -64.8188 -64.8188 -64.8176 -64.8175 -64.8135 -64.8135 -64.8114 -64.8086
   -64.8085 -64.8085 -64.8085 -64.8081 -64.8080 -64.8072 -64.8072 -64.8068
   -30.7347 -30.7347 -30.7281 -30.7119 -30.7096 -30.7096 -30.7044 -30.6873
   -30.6873 -30.6826 -30.6826 -30.6743 -30.6742 -30.6704 -30.6704 -30.6698
   -30.6698 -30.6680 -30.6680 -30.6673 -30.6655 -30.6655 -30.6451 -30.6451
   -30.6307 -30.6307 -30.6301 -30.5964 -30.5930 -30.5930 -30.5918 -30.5886
   -30.5886 -30.5780 -30.5780 -30.5599 -30.5583 -30.5583 -30.5466 -30.5319
   -30.5318 -30.5288 -30.5288 -30.5274 -30.5274 -30.5203 -30.5203 -30.5097
   -30.5096 -30.5096 -30.5057 -30.5057 -30.5030 -30.5029 -30.5023 -30.5023
   -30.4975 -30.4975 -30.4889 -30.4889 -30.4759 -30.4759 -30.4730 -30.4714
   -30.4714 -30.4667 -30.4646 -30.4625 -30.4625 -30.4610 -30.4596 -30.4596
   -30.4587 -30.4586 -30.4576 -30.4557 -30.4557 -30.4471 -30.4471 -30.4459
   -30.4458 -30.4455 -30.4335 -30.4316 -30.4302 -30.4273 -30.4270 -30.4245
   -30.4245 -30.4163 -30.4163 -30.4131 -30.4131 -30.4091 -30.3913 -30.3864
    12.7897  13.8790  13.8790  14.2096  14.2621  14.3195  14.3200  14.3200
    14.4112  14.4723  14.4723  14.5847  14.5848  14.5848  14.6180  14.6180
    14.6302  14.7126  14.7126  14.7620  14.8925  14.8925  14.9455  14.9455
    14.9607  14.9607  15.0454  15.0454  15.0995  15.0995  15.1037  15.1037
    15.1134  15.1313  15.1313  15.2051  15.2052  15.2927  15.2927  15.3281
    15.3395  15.3395  15.5275  15.5275  15.7663  15.7663  15.7742  15.8307
    15.8434  15.8434  15.8509  15.8509  15.8960  15.8960  16.0244  16.0856
    16.0856  16.1727  16.1727  16.2058  16.2059  16.2601  16.3231  16.3231
    16.3231  16.3523  16.3524  16.4496  16.4496  16.4676  16.4676  16.5392
    16.5811  16.5916  16.6463  16.6463  16.6519  16.6716  16.7031  16.7352
    16.7352  16.7447  16.7624  16.7624  16.7813  16.7813  16.8096  16.8557
    16.8557  16.9059  16.9059  16.9503  16.9947  16.9947  17.0901  17.0901
    17.1059  17.1681  17.3509  17.3509  17.3900  17.3900  17.4147  17.4147
    17.4800  17.4800  17.6686  17.6871  17.7031  17.7056  17.7236  17.7236
    17.7505  17.7505  17.7875  17.7875  17.9143  17.9588  17.9589  18.0335
    18.0335  18.0338  18.0657  18.0657  18.1068  18.1445  18.1445  18.2067
    18.2067  18.2573  18.3647  18.4067  18.4067  18.4220  18.4220  18.5487
    18.6188  18.6188  18.6526  18.6526  18.7389  18.7562  18.7562  18.7592
    18.7832  18.7832  18.8076  18.8076  18.9363  18.9604  18.9604  18.9673
[...]
    21.1576  21.1576  21.1576  21.1576  22.2872  22.2872  22.2872  22.2872
    22.2872  22.2872  22.2872  22.2872  23.5176  23.5176  23.5176  23.5176
    23.5176  23.5176  23.5176  23.5176  24.6756  24.6756  24.6756  24.6756
    27.1104  27.1104  27.1104  27.1104  27.1104  27.1104  27.1104  27.1104
    27.5805  27.5805  27.5805  27.5805  29.2755  29.2755  29.2755  29.2755
    29.8263  29.8263  29.8263  29.8263  29.8263  29.8263  29.8263  29.8264
    31.4985  31.4985

          k = 0.3889 0.3889 0.3889 ( 33005 PWs)   bands (ev):

   -64.8541 -64.8477 -64.8477 -64.8477 -64.8421 -64.8421 -64.8421 -64.8376
   -64.8174 -64.8174 -64.8174 -64.8165 -64.8164 -64.8164 -64.8164 -64.8164
   -64.8164 -64.8164 -64.8164 -64.8164 -64.8119 -64.8119 -64.8119 -64.8110
   -64.8110 -64.8109 -64.8109 -64.8109 -64.8109 -64.8109 -64.8109 -64.8109
   -30.7078 -30.7078 -30.7078 -30.6948 -30.6948 -30.6948 -30.6915 -30.6915
   -30.6914 -30.6887 -30.6887 -30.6887 -30.6887 -30.6887 -30.6887 -30.6878
   -30.6878 -30.6878 -30.6878 -30.6878 -30.6878 -30.6771 -30.6771 -30.6771
   -30.6336 -30.5919 -30.5919 -30.5919 -30.5561 -30.5561 -30.5561 -30.5561
   -30.5561 -30.5561 -30.5528 -30.5528 -30.5528 -30.5494 -30.5494 -30.5494
   -30.5446 -30.5445 -30.5445 -30.5167 -30.5167 -30.5167 -30.5166 -30.5166
   -30.5166 -30.5101 -30.5101 -30.5101 -30.5056 -30.5055 -30.5055 -30.5052
   -30.4929 -30.4929 -30.4929 -30.4859 -30.4859 -30.4859 -30.4859 -30.4859
   -30.4859 -30.4788 -30.4788 -30.4788 -30.4733 -30.4733 -30.4733 -30.4711
   -30.4711 -30.4711 -30.4711 -30.4711 -30.4711 -30.4633 -30.4633 -30.4633
   -30.4234 -30.4234 -30.4234 -30.4169 -30.4169 -30.4126 -30.4126 -30.4125
   -30.4072 -30.4072 -30.4072 -30.4053 -30.4053 -30.4053 -30.3983 -30.3983
    13.4478  13.8756  13.8756  13.8756  14.1320  14.1320  14.1320  14.1730
    14.6090  14.6090  14.6090  14.7367  14.7367  14.7367  14.7556  14.7556
    14.7556  14.8197  14.8197  14.8197  14.8197  14.8198  14.8198  14.8479
    14.8479  14.8479  14.8479  14.8479  14.8479  14.8818  14.8818  14.8818
    15.0699  15.0699  15.0699  15.3498  15.3498  15.3498  15.4160  15.4160
    15.4160  15.4160  15.4160  15.4160  15.6840  15.6840  15.6840  15.6971
    15.6971  15.6971  15.6972  15.6972  15.6972  15.9099  15.9099  15.9099
    16.2270  16.2270  16.2270  16.2650  16.4581  16.4581  16.4581  16.6952
    16.6952  16.7158  16.7158  16.7158  16.7158  16.7158  16.7158  16.7757
    16.7757  16.7846  16.7846  16.7846  16.8081  16.8081  16.8081  16.8087
    16.8087  16.8087  16.8507  16.8507  16.8507  16.8783  16.8783  16.8783
    16.9483  16.9483  16.9483  16.9510  16.9510  16.9510  16.9510  16.9510
    16.9510  17.0541  17.0541  17.0541  17.1028  17.2285  17.2285  17.2285
    17.4857  17.4858  17.4858  17.5815  17.5815  17.5815  17.5826  17.5826
    17.5826  17.5826  17.5826  17.5826  17.7880  17.7880  17.7880  17.9278
    17.9278  17.9278  17.9278  17.9278  17.9278  17.9853  17.9853  17.9853
    18.0121  18.0121  18.0512  18.0512  18.0512  18.1680  18.1680  18.1680
    18.3086  18.3086  18.3086  18.4650  18.4650  18.5952  18.5952  18.5952
    19.1410  19.1410  19.1410  19.1806  19.1806  19.1806  19.1806  19.1806
    19.1806  19.2163  19.2163  19.2163  19.2164  19.2164  19.2164  19.2468
    19.2468  19.2468  19.2542  19.2542  19.2542  19.3127  19.3127  19.3127
    21.3510  21.3510  21.3510  22.1090  22.1090  22.1090  22.1090  22.1090
    22.1090  22.5014  22.5014  22.5014  22.9952  22.9952  22.9952  23.8615
    23.8615  23.8615  23.8615  23.8615  23.8615  24.3260  24.3260  24.3260
    26.7387  26.7387  26.7387  27.4632  27.4632  27.4632  27.9814  27.9814
    27.9814  27.9814  27.9814  27.9814  28.8333  28.8333  28.8333  28.8333
    28.8333  28.8333  29.3151  29.3151  29.3151  30.2289  30.2289  30.2289
    31.4802  32.3497

          k = 0.3889 0.3889-0.5000 ( 32980 PWs)   bands (ev):

   -64.8512 -64.8512 -64.8451 -64.8451 -64.8451 -64.8451 -64.8401 -64.8401
   -64.8170 -64.8170 -64.8170 -64.8170 -64.8164 -64.8164 -64.8164 -64.8164
   -64.8139 -64.8139 -64.8139 -64.8139 -64.8134 -64.8134 -64.8134 -64.8134
   -64.8114 -64.8114 -64.8114 -64.8114 -64.8110 -64.8110 -64.8109 -64.8109
   -30.7033 -30.7033 -30.6987 -30.6987 -30.6987 -30.6987 -30.6913 -30.6913
   -30.6913 -30.6913 -30.6898 -30.6898 -30.6898 -30.6898 -30.6897 -30.6897
   -30.6896 -30.6896 -30.6856 -30.6856 -30.6830 -30.6830 -30.6830 -30.6829
   -30.6129 -30.6129 -30.5704 -30.5704 -30.5704 -30.5704 -30.5553 -30.5553
   -30.5553 -30.5553 -30.5507 -30.5507 -30.5506 -30.5506 -30.5364 -30.5364
   -30.5364 -30.5364 -30.5287 -30.5287 -30.5281 -30.5281 -30.5268 -30.5268
   -30.5127 -30.5127 -30.5127 -30.5127 -30.5103 -30.5103 -30.5103 -30.5103
   -30.4891 -30.4891 -30.4891 -30.4891 -30.4865 -30.4865 -30.4793 -30.4793
   -30.4793 -30.4793 -30.4792 -30.4792 -30.4792 -30.4792 -30.4751 -30.4751
   -30.4751 -30.4751 -30.4687 -30.4687 -30.4674 -30.4674 -30.4674 -30.4674
   -30.4186 -30.4186 -30.4163 -30.4163 -30.4163 -30.4163 -30.4116 -30.4116
   -30.4056 -30.4056 -30.4056 -30.4056 -30.4048 -30.4048 -30.4002 -30.4002
    13.6470  13.6470  13.9962  13.9962  13.9962  13.9962  14.1443  14.1443
    14.6772  14.6772  14.6988  14.6988  14.6988  14.6988  14.7814  14.7814
    14.7814  14.7814  14.7934  14.7934  14.7934  14.7934  14.8317  14.8317
    14.8404  14.8404  14.8404  14.8404  14.8452  14.8452  14.8452  14.8452
    15.1950  15.1950  15.2434  15.2434  15.2434  15.2434  15.5323  15.5323
    15.5323  15.5323  15.5386  15.5386  15.5386  15.5387  15.5595  15.5595
    15.5595  15.5595  15.7810  15.7810  15.8212  15.8212  15.8212  15.8212
    16.2625  16.2626  16.3547  16.3547  16.3547  16.3547  16.6973  16.6973
    16.7378  16.7378  16.7893  16.7893  16.7893  16.7893  16.7962  16.7962
    16.8033  16.8033  16.8198  16.8198  16.8199  16.8199  16.8218  16.8218
    16.8218  16.8218  16.8243  16.8243  16.8292  16.8292  16.8292  16.8292
    16.8760  16.8760  16.8760  16.8760  16.9043  16.9043  16.9189  16.9189
    16.9189  16.9189  17.2248  17.2248  17.2249  17.2249  17.2761  17.2761
    17.3822  17.3822  17.3822  17.3822  17.4005  17.4005  17.6677  17.6677
    17.6677  17.6677  17.7362  17.7362  17.7362  17.7362  17.7588  17.7588
    17.7588  17.7588  17.9654  17.9654  17.9795  17.9795  18.0366  18.0366
    18.0366  18.0366  18.0374  18.0374  18.0374  18.0374  18.1527  18.1527
    18.2596  18.2596  18.4012  18.4012  18.4012  18.4012  18.5096  18.5096
    19.1936  19.1936  19.1936  19.1936  19.2114  19.2114  19.2158  19.2158
    19.2158  19.2158  19.2412  19.2412  19.2412  19.2412  19.2435  19.2435
    19.2435  19.2435  19.2754  19.2754  19.2754  19.2754  19.2995  19.2995
    21.7085  21.7085  21.7085  21.7085  22.1582  22.1582  22.2937  22.2937
    22.2937  22.2938  22.9645  22.9645  22.9645  22.9645  23.4066  23.4066
    23.4154  23.4154  23.4154  23.4154  24.1194  24.1194  24.1194  24.1194
    27.0582  27.0582  27.2786  27.2786  27.2786  27.2786  28.0985  28.0985
    28.0985  28.0985  28.3756  28.3756  28.3756  28.3756  28.6177  28.6177
    28.6177  28.6177  29.5024  29.5024  29.5024  29.5024  29.7399  29.7399
    32.1805  32.4523

          k = 0.3889-0.5000-0.5000 ( 33008 PWs)   bands (ev):

   -64.8484 -64.8484 -64.8484 -64.8484 -64.8428 -64.8428 -64.8428 -64.8428
   -64.8167 -64.8167 -64.8167 -64.8167 -64.8137 -64.8137 -64.8137 -64.8137
   -64.8137 -64.8137 -64.8137 -64.8137 -64.8137 -64.8137 -64.8137 -64.8137
   -64.8136 -64.8136 -64.8136 -64.8136 -64.8111 -64.8111 -64.8111 -64.8111
   -30.6968 -30.6968 -30.6968 -30.6968 -30.6968 -30.6968 -30.6968 -30.6968
   -30.6910 -30.6910 -30.6910 -30.6910 -30.6904 -30.6904 -30.6904 -30.6904
   -30.6878 -30.6878 -30.6878 -30.6878 -30.6877 -30.6877 -30.6877 -30.6877
   -30.5917 -30.5917 -30.5917 -30.5917 -30.5537 -30.5537 -30.5537 -30.5537
   -30.5482 -30.5482 -30.5482 -30.5482 -30.5327 -30.5326 -30.5326 -30.5326
   -30.5326 -30.5326 -30.5326 -30.5326 -30.5322 -30.5322 -30.5322 -30.5322
   -30.5322 -30.5322 -30.5322 -30.5322 -30.5109 -30.5109 -30.5109 -30.5109
   -30.4837 -30.4837 -30.4837 -30.4837 -30.4828 -30.4828 -30.4828 -30.4828
   -30.4828 -30.4828 -30.4828 -30.4828 -30.4739 -30.4739 -30.4739 -30.4739
   -30.4739 -30.4739 -30.4739 -30.4739 -30.4715 -30.4715 -30.4715 -30.4715
   -30.4144 -30.4144 -30.4144 -30.4144 -30.4097 -30.4097 -30.4097 -30.4097
   -30.4091 -30.4091 -30.4091 -30.4091 -30.4021 -30.4021 -30.4021 -30.4021
    13.8108  13.8108  13.8108  13.8108  14.0635  14.0635  14.0635  14.0635
    14.7475  14.7475  14.7475  14.7475  14.7475  14.7475  14.7475  14.7475
    14.7558  14.7558  14.7558  14.7558  14.7782  14.7782  14.7782  14.7782
    14.8300  14.8300  14.8300  14.8300  14.8300  14.8300  14.8300  14.8300
    15.3713  15.3713  15.3713  15.3713  15.3713  15.3713  15.3713  15.3713
    15.4077  15.4077  15.4077  15.4077  15.6736  15.6736  15.6736  15.6736
    15.6736  15.6736  15.6736  15.6736  15.6948  15.6948  15.6948  15.6948
    16.3245  16.3245  16.3245  16.3245  16.5713  16.5713  16.5713  16.5713
    16.7619  16.7619  16.7619  16.7619  16.7732  16.7732  16.7732  16.7732
    16.7963  16.7963  16.7963  16.7963  16.7992  16.7992  16.7992  16.7992
    16.8400  16.8400  16.8400  16.8400  16.8624  16.8624  16.8624  16.8624
    16.8624  16.8624  16.8624  16.8624  17.0520  17.0520  17.0520  17.0520
    17.0520  17.0520  17.0520  17.0520  17.0834  17.0834  17.0834  17.0834
    17.4964  17.4964  17.4964  17.4964  17.5568  17.5568  17.5568  17.5569
    17.5569  17.5569  17.5569  17.5569  17.8542  17.8542  17.8542  17.8542
    17.8542  17.8542  17.8542  17.8542  17.8653  17.8653  17.8653  17.8653
    18.0054  18.0054  18.0054  18.0054  18.2026  18.2026  18.2026  18.2026
    18.2335  18.2335  18.2335  18.2335  18.3720  18.3720  18.3720  18.3720
    19.2363  19.2363  19.2363  19.2363  19.2363  19.2363  19.2363  19.2363
    19.2487  19.2487  19.2487  19.2487  19.2718  19.2718  19.2718  19.2718
    19.2754  19.2754  19.2754  19.2754  19.2754  19.2754  19.2754  19.2754
    21.9796  21.9796  21.9796  21.9797  22.5449  22.5449  22.5449  22.5449
    22.5449  22.5449  22.5449  22.5449  23.1885  23.1885  23.1885  23.1885
    23.1885  23.1885  23.1885  23.1885  23.7632  23.7632  23.7632  23.7632
    27.6559  27.6559  27.6559  27.6559  27.6559  27.6559  27.6559  27.6559
    27.9011  27.9011  27.9011  27.9011  28.7632  28.7632  28.7633  28.7633
    29.0277  29.0277  29.0277  29.0277  29.0277  29.0277  29.0277  29.0277
    32.5680  32.5680

          k =-0.5000-0.5000-0.5000 ( 32968 PWs)   bands (ev):

   -64.8459 -64.8459 -64.8459 -64.8459 -64.8459 -64.8459 -64.8459 -64.8459
   -64.8137 -64.8137 -64.8137 -64.8137 -64.8137 -64.8137 -64.8137 -64.8137
   -64.8137 -64.8137 -64.8137 -64.8137 -64.8137 -64.8137 -64.8137 -64.8137
   -64.8136 -64.8136 -64.8136 -64.8136 -64.8136 -64.8136 -64.8136 -64.8136
   -30.6924 -30.6924 -30.6924 -30.6923 -30.6923 -30.6923 -30.6923 -30.6923
   -30.6923 -30.6923 -30.6923 -30.6923 -30.6923 -30.6923 -30.6923 -30.6923
   -30.6923 -30.6923 -30.6923 -30.6923 -30.6923 -30.6923 -30.6923 -30.6923
   -30.5698 -30.5698 -30.5698 -30.5698 -30.5698 -30.5697 -30.5697 -30.5697
   -30.5325 -30.5325 -30.5325 -30.5325 -30.5325 -30.5325 -30.5325 -30.5325
   -30.5325 -30.5325 -30.5325 -30.5325 -30.5325 -30.5324 -30.5324 -30.5324
   -30.5324 -30.5324 -30.5324 -30.5324 -30.5324 -30.5324 -30.5324 -30.5324
   -30.4782 -30.4782 -30.4782 -30.4782 -30.4782 -30.4782 -30.4782 -30.4782
   -30.4782 -30.4782 -30.4782 -30.4782 -30.4782 -30.4782 -30.4782 -30.4782
   -30.4782 -30.4782 -30.4782 -30.4781 -30.4781 -30.4781 -30.4781 -30.4781
   -30.4077 -30.4077 -30.4077 -30.4077 -30.4077 -30.4077 -30.4077 -30.4077
   -30.4077 -30.4077 -30.4077 -30.4077 -30.4077 -30.4077 -30.4077 -30.4077
    13.9293  13.9293  13.9293  13.9293  13.9293  13.9293  13.9293  13.9293
    14.7775  14.7775  14.7775  14.7775  14.7775  14.7775  14.7775  14.7775
    14.7775  14.7775  14.7775  14.7775  14.7775  14.7775  14.7775  14.7775
    14.7775  14.7775  14.7775  14.7775  14.7775  14.7775  14.7775  14.7775
    15.5340  15.5340  15.5340  15.5340  15.5340  15.5340  15.5340  15.5340
    15.5340  15.5340  15.5340  15.5340  15.5340  15.5340  15.5340  15.5340
    15.5340  15.5340  15.5340  15.5340  15.5340  15.5340  15.5340  15.5341
    16.4658  16.4658  16.4658  16.4658  16.4658  16.4658  16.4658  16.4658
    16.7745  16.7745  16.7745  16.7745  16.7745  16.7745  16.7745  16.7745
    16.7745  16.7745  16.7745  16.7745  16.7745  16.7745  16.7745  16.7745
    16.9599  16.9599  16.9599  16.9599  16.9599  16.9599  16.9599  16.9599
    16.9600  16.9600  16.9600  16.9600  16.9600  16.9600  16.9600  16.9600
    16.9600  16.9600  16.9600  16.9600  16.9600  16.9600  16.9600  16.9600
    17.6790  17.6790  17.6790  17.6790  17.6790  17.6790  17.6790  17.6790
    17.6790  17.6790  17.6790  17.6790  17.6790  17.6790  17.6790  17.6790
    17.6790  17.6790  17.6790  17.6790  17.6790  17.6790  17.6790  17.6790
    18.1850  18.1850  18.1850  18.1850  18.1850  18.1850  18.1850  18.1850
    18.1850  18.1850  18.1850  18.1850  18.1850  18.1850  18.1851  18.1851
    19.2778  19.2778  19.2778  19.2778  19.2778  19.2778  19.2778  19.2778
    19.2778  19.2778  19.2778  19.2778  19.2778  19.2778  19.2778  19.2778
    19.2778  19.2778  19.2778  19.2778  19.2778  19.2778  19.2778  19.2778
    22.8541  22.8541  22.8541  22.8541  22.8541  22.8541  22.8541  22.8541
    22.8541  22.8541  22.8541  22.8541  22.8541  22.8541  22.8541  22.8541
    22.8541  22.8541  22.8541  22.8541  22.8541  22.8542  22.8542  22.8542
    28.3002  28.3002  28.3002  28.3002  28.3002  28.3002  28.3002  28.3002
    28.3002  28.3002  28.3002  28.3003  28.3003  28.3003  28.3003  28.3003
    28.3003  28.3003  28.3003  28.3003  28.3003  28.3003  28.3003  28.3003
    33.5310  33.5311

     the Fermi energy is    19.2987 ev

!    total energy              =  -16384.95815721 Ry

     total all-electron energy =   -322945.811864 Ry
     estimated scf accuracy    <       0.00000033 Ry
     smearing contrib. (-TS)   =       0.03284317 Ry
     internal energy E=F+TS    =  -16384.99100038 Ry

     The total energy is F=E-TS. E is the sum of the following terms:
     one-electron contribution =   -2484.47953896 Ry
     hartree contribution      =    1660.13981637 Ry
     xc contribution           =    -986.52568530 Ry
     ewald contribution        =   -6406.69918156 Ry
     one-center paw contrib.   =   -8167.42641094 Ry

     convergence has been achieved in  13 iterations

     Forces acting on atoms (cartesian axes, Ry/au):

     atom    1 type  1   force =     0.00000000    0.00000000    0.00000000
     atom    2 type  1   force =     0.00000560    0.00000560   -0.00000000
     atom    3 type  1   force =     0.00000560    0.00000000    0.00000560
     atom    4 type  1   force =    -0.00000000    0.00000560    0.00000560
     atom    5 type  1   force =     0.00000000    0.00000000    0.00000000
     atom    6 type  1   force =     0.00001098    0.00001098    0.00000000
     atom    7 type  1   force =     0.00000560    0.00000000   -0.00000560
     atom    8 type  1   force =    -0.00000000    0.00000560   -0.00000560
     atom    9 type  1   force =     0.00000000    0.00000000    0.00000000
     atom   10 type  1   force =     0.00000560   -0.00000560    0.00000000
     atom   11 type  1   force =     0.00001098    0.00000000    0.00001098
     atom   12 type  1   force =     0.00000000   -0.00000560    0.00000560
     atom   13 type  1   force =     0.00000000    0.00000000    0.00000000
     atom   14 type  1   force =     0.00001098   -0.00001098    0.00000000
     atom   15 type  1   force =     0.00001098    0.00000000   -0.00001098
     atom   16 type  1   force =    -0.00000000   -0.00000560   -0.00000560
     atom   17 type  1   force =     0.00000000    0.00000000    0.00000000
     atom   18 type  1   force =    -0.00000560    0.00000560    0.00000000
     atom   19 type  1   force =    -0.00000560    0.00000000    0.00000560
     atom   20 type  1   force =     0.00000000    0.00001098    0.00001098
     atom   21 type  1   force =     0.00000000    0.00000000    0.00000000
     atom   22 type  1   force =    -0.00001098    0.00001098    0.00000000
     atom   23 type  1   force =    -0.00000560    0.00000000   -0.00000560
     atom   24 type  1   force =     0.00000000    0.00001098   -0.00001098
     atom   25 type  1   force =     0.00000000    0.00000000    0.00000000
     atom   26 type  1   force =    -0.00000560   -0.00000560   -0.00000000
     atom   27 type  1   force =    -0.00001098    0.00000000    0.00001098
     atom   28 type  1   force =     0.00000000   -0.00001098    0.00001098
     atom   29 type  1   force =     0.00000000    0.00000000    0.00000000
     atom   30 type  1   force =    -0.00001098   -0.00001098    0.00000000
     atom   31 type  1   force =    -0.00001098    0.00000000   -0.00001098
     atom   32 type  1   force =     0.00000000   -0.00001098   -0.00001098

     Total force =     0.000060     Total SCF correction =     0.000258
     SCF correction compared to forces is large: reduce conv_thr to get better values


     Computing stress (Cartesian axis) and pressure

          total   stress  (Ry/bohr**3)                   (kbar)     P=        1.05
   0.00000716   0.00000000   0.00000000            1.05        0.00        0.00
   0.00000000   0.00000716   0.00000000            0.00        1.05        0.00
   0.00000000   0.00000000   0.00000716            0.00        0.00        1.05


     Writing output data file /scratch/iNzCEhucAHrMjKZY.save/
 
     init_run     :     10.32s CPU     10.72s WALL (       1 calls)
     electrons    :    464.89s CPU    472.51s WALL (       1 calls)
     forces       :      5.69s CPU      5.76s WALL (       1 calls)
     stress       :     40.24s CPU     40.62s WALL (       1 calls)

     Called by init_run:
     wfcinit      :      9.96s CPU     10.24s WALL (       1 calls)
     potinit      :      0.12s CPU      0.14s WALL (       1 calls)
     hinit0       :      0.06s CPU      0.12s WALL (       1 calls)

     Called by electrons:
     c_bands      :    408.37s CPU    414.76s WALL (      14 calls)
     sum_band     :     54.84s CPU     55.82s WALL (      14 calls)
     v_of_rho     :      0.21s CPU      0.23s WALL (      14 calls)
     newd         :      0.32s CPU      0.47s WALL (      14 calls)
     PAW_pot      :      1.14s CPU      1.21s WALL (      14 calls)
     mix_rho      :      0.06s CPU      0.08s WALL (      14 calls)

     Called by c_bands:
     init_us_2    :      2.15s CPU      2.20s WALL (    1085 calls)
     cegterg      :    400.17s CPU    406.13s WALL (     490 calls)

     Called by *egterg:
     cdiaghg      :     44.83s CPU     45.45s WALL (    1620 calls)
     h_psi        :    222.30s CPU    226.35s WALL (    1690 calls)
     s_psi        :     18.64s CPU     18.81s WALL (    1690 calls)
     g_psi        :      0.45s CPU      0.46s WALL (    1165 calls)

     Called by h_psi:
     h_psi:calbec :     33.56s CPU     33.94s WALL (    1690 calls)
     vloc_psi     :    169.21s CPU    172.55s WALL (    1690 calls)
     add_vuspsi   :     18.20s CPU     18.48s WALL (    1690 calls)

     General routines
     calbec       :     63.51s CPU     64.08s WALL (    2355 calls)
     fft          :      0.22s CPU      0.24s WALL (     206 calls)
     ffts         :      0.02s CPU      0.02s WALL (      28 calls)
     fftw         :    198.21s CPU    201.93s WALL (  939812 calls)
     interpolate  :      0.03s CPU      0.04s WALL (      14 calls)
 
     Parallel routines
     fft_scatt_xy :     16.32s CPU     16.62s WALL (  940046 calls)
     fft_scatt_yz :    154.08s CPU    157.02s WALL (  940046 calls)
 
     PWSCF        :   8m48.82s CPU   8m59.12s WALL

 
   This run was terminated on:  20:19:38   6Jan2022            

=------------------------------------------------------------------------------=
   JOB DONE.
=------------------------------------------------------------------------------=
