
     Program PWSCF v.6.7MaX starts on  7Jan2022 at  0:15:56 

     This program is part of the open-source Quantum ESPRESSO suite
     for quantum simulation of materials; please cite
         "P. Giannozzi et al., J. Phys.:Condens. Matter 21 395502 (2009);
         "P. Giannozzi et al., J. Phys.:Condens. Matter 29 465901 (2017);
          URL http://www.quantum-espresso.org", 
     in publications or presentations arising from this work. More details at
     http://www.quantum-espresso.org/quote

     Parallel version (MPI & OpenMP), running on      72 processor cores
     Number of MPI processes:                72
     Threads/MPI process:                     1

     MPI processes distributed on     1 nodes
     R & G space division:  proc/nbgrp/npool/nimage =      72
     Reading input from scf_11.in
Warning: card &CELL ignored
Warning: card CELL_DYNAMICS = 'BFGS', ignored
Warning: card CELL_FACTOR = 2.0, ignored
Warning: card PRESS = 0.0, ignored
Warning: card / ignored

     Current dimensions of program PWSCF are:
     Max number of different atomic species (ntypx) = 10
     Max number of k-points (npk) =  40000
     Max angular momentum in pseudopotentials (lmaxx) =  3
     file Pd.pbe-spn-kjpaw_psl.1.0.0.UPF: wavefunction(s)  4S 5S 4D renormalized

     Subspace diagonalization in iterative solution of the eigenvalue problem:
     one sub-group per band group will be used
     ELPA distributed-memory algorithm (size of sub-group:  8*  8 procs)

     Found symmetry operation: I + (  0.2500  0.2500  0.0000)
     This is a supercell, fractional translations are disabled
     Message from routine setup:
     using ibrav=0 with symmetry is DISCOURAGED, use correct ibrav instead
 
     Parallelization info
     --------------------
     sticks:   dense  smooth     PW     G-vecs:    dense   smooth      PW
     Min         104      68     18                 8966     4808     674
     Max         105      69     19                 8975     4817     683
     Sum        7521    4957   1353               645809   346653   48823
 


     bravais-lattice index     =            0
     lattice parameter (alat)  =      14.8394  a.u.
     unit-cell volume          =    4288.9412 (a.u.)^3
     number of atoms/cell      =           32
     number of atomic types    =            1
     number of electrons       =       576.00
     number of Kohn-Sham states=          346
     kinetic-energy cutoff     =      71.0000  Ry
     charge density cutoff     =     430.0000  Ry
     scf convergence threshold =      1.0E-06
     mixing beta               =       0.1000
     number of iterations used =           10  TF        mixing
     Exchange-correlation= SLA  PW   PBX  PBC
                           (   1   4   3   4   0   0   0)

     celldm(1)=  14.839420  celldm(2)=   0.000000  celldm(3)=   0.000000
     celldm(4)=   0.000000  celldm(5)=   0.000000  celldm(6)=   0.000000

     crystal axes: (cart. coord. in units of alat)
               a(1) = (   1.000000   0.000000   0.000000 )  
               a(2) = (   0.000000   1.000000   0.000000 )  
               a(3) = (   0.000000   0.000000   1.312500 )  

     reciprocal axes: (cart. coord. in units 2 pi/alat)
               b(1) = (  1.000000  0.000000  0.000000 )  
               b(2) = (  0.000000  1.000000  0.000000 )  
               b(3) = (  0.000000  0.000000  0.761905 )  


     PseudoPot. # 1 for Pd read from file:
     /rds/homes/b/bxp912/pp/Pd.pbe-spn-kjpaw_psl.1.0.0.UPF
     MD5 check sum: 790f2ebce206edfd9790dcb9844eca51
     Pseudo is Projector augmented-wave + core cor, Zval = 18.0
     Generated using &quot;atomic&quot; code by A. Dal Corso  v.6.3
     Shape of augmentation charge: PSQ
     Using radial grid of 1235 points,  6 beta functions with: 
                l(1) =   0
                l(2) =   0
                l(3) =   1
                l(4) =   1
                l(5) =   2
                l(6) =   2
     Q(r) pseudized with 0 coefficients 


     atomic species   valence    mass     pseudopotential
        Pd            18.00   106.42000     Pd( 1.00)

      8 Sym. Ops. (no inversion) found



   Cartesian axes

     site n.     atom                  positions (alat units)
         1           Pd  tau(   1) = (   0.0000000   0.0000000   0.0000000  )
         2           Pd  tau(   2) = (   0.2500000   0.2500000   0.0000000  )
         3           Pd  tau(   3) = (   0.2500000   0.0000000   0.2500000  )
         4           Pd  tau(   4) = (   0.0000000   0.2500000   0.2500000  )
         5           Pd  tau(   5) = (   0.0000000   0.0000000   0.8125000  )
         6           Pd  tau(   6) = (   0.2500000   0.2500000   0.8125000  )
         7           Pd  tau(   7) = (   0.2500000   0.0000000   1.0625000  )
         8           Pd  tau(   8) = (   0.0000000   0.2500000   1.0625000  )
         9           Pd  tau(   9) = (   0.0000000   0.5000000   0.0000000  )
        10           Pd  tau(  10) = (   0.2500000   0.7500000   0.0000000  )
        11           Pd  tau(  11) = (   0.2500000   0.5000000   0.2500000  )
        12           Pd  tau(  12) = (   0.0000000   0.7500000   0.2500000  )
        13           Pd  tau(  13) = (   0.0000000   0.5000000   0.8125000  )
        14           Pd  tau(  14) = (   0.2500000   0.7500000   0.8125000  )
        15           Pd  tau(  15) = (   0.2500000   0.5000000   1.0625000  )
        16           Pd  tau(  16) = (   0.0000000   0.7500000   1.0625000  )
        17           Pd  tau(  17) = (   0.5000000   0.0000000   0.0000000  )
        18           Pd  tau(  18) = (   0.7500000   0.2500000   0.0000000  )
        19           Pd  tau(  19) = (   0.7500000   0.0000000   0.2500000  )
        20           Pd  tau(  20) = (   0.5000000   0.2500000   0.2500000  )
        21           Pd  tau(  21) = (   0.5000000   0.0000000   0.8125000  )
        22           Pd  tau(  22) = (   0.7500000   0.2500000   0.8125000  )
        23           Pd  tau(  23) = (   0.7500000   0.0000000   1.0625000  )
        24           Pd  tau(  24) = (   0.5000000   0.2500000   1.0625000  )
        25           Pd  tau(  25) = (   0.5000000   0.5000000   0.0000000  )
        26           Pd  tau(  26) = (   0.7500000   0.7500000   0.0000000  )
        27           Pd  tau(  27) = (   0.7500000   0.5000000   0.2500000  )
        28           Pd  tau(  28) = (   0.5000000   0.7500000   0.2500000  )
        29           Pd  tau(  29) = (   0.5000000   0.5000000   0.8125000  )
        30           Pd  tau(  30) = (   0.7500000   0.7500000   0.8125000  )
        31           Pd  tau(  31) = (   0.7500000   0.5000000   1.0625000  )
        32           Pd  tau(  32) = (   0.5000000   0.7500000   1.0625000  )

     number of k points=    75  Marzari-Vanderbilt smearing, width (Ry)=  0.0400
                       cart. coord. in units 2pi/alat
        k(    1) = (   0.0555556   0.0555556   0.0423280), wk =   0.0219479
        k(    2) = (   0.0555556   0.0555556   0.1269841), wk =   0.0219479
        k(    3) = (   0.0555556   0.0555556   0.2116402), wk =   0.0219479
        k(    4) = (   0.0555556   0.0555556   0.2962963), wk =   0.0219479
        k(    5) = (   0.0555556   0.0555556  -0.3809524), wk =   0.0109739
        k(    6) = (   0.0555556   0.1666667   0.0423280), wk =   0.0438957
        k(    7) = (   0.0555556   0.1666667   0.1269841), wk =   0.0438957
        k(    8) = (   0.0555556   0.1666667   0.2116402), wk =   0.0438957
        k(    9) = (   0.0555556   0.1666667   0.2962963), wk =   0.0438957
        k(   10) = (   0.0555556   0.1666667  -0.3809524), wk =   0.0219479
        k(   11) = (   0.0555556   0.2777778   0.0423280), wk =   0.0438957
        k(   12) = (   0.0555556   0.2777778   0.1269841), wk =   0.0438957
        k(   13) = (   0.0555556   0.2777778   0.2116402), wk =   0.0438957
        k(   14) = (   0.0555556   0.2777778   0.2962963), wk =   0.0438957
        k(   15) = (   0.0555556   0.2777778  -0.3809524), wk =   0.0219479
        k(   16) = (   0.0555556   0.3888889   0.0423280), wk =   0.0438957
        k(   17) = (   0.0555556   0.3888889   0.1269841), wk =   0.0438957
        k(   18) = (   0.0555556   0.3888889   0.2116402), wk =   0.0438957
        k(   19) = (   0.0555556   0.3888889   0.2962963), wk =   0.0438957
        k(   20) = (   0.0555556   0.3888889  -0.3809524), wk =   0.0219479
        k(   21) = (   0.0555556  -0.5000000   0.0423280), wk =   0.0219479
        k(   22) = (   0.0555556  -0.5000000   0.1269841), wk =   0.0219479
        k(   23) = (   0.0555556  -0.5000000   0.2116402), wk =   0.0219479
        k(   24) = (   0.0555556  -0.5000000   0.2962963), wk =   0.0219479
        k(   25) = (   0.0555556  -0.5000000  -0.3809524), wk =   0.0109739
        k(   26) = (   0.1666667   0.1666667   0.0423280), wk =   0.0219479
        k(   27) = (   0.1666667   0.1666667   0.1269841), wk =   0.0219479
        k(   28) = (   0.1666667   0.1666667   0.2116402), wk =   0.0219479
        k(   29) = (   0.1666667   0.1666667   0.2962963), wk =   0.0219479
        k(   30) = (   0.1666667   0.1666667  -0.3809524), wk =   0.0109739
        k(   31) = (   0.1666667   0.2777778   0.0423280), wk =   0.0438957
        k(   32) = (   0.1666667   0.2777778   0.1269841), wk =   0.0438957
        k(   33) = (   0.1666667   0.2777778   0.2116402), wk =   0.0438957
        k(   34) = (   0.1666667   0.2777778   0.2962963), wk =   0.0438957
        k(   35) = (   0.1666667   0.2777778  -0.3809524), wk =   0.0219479
        k(   36) = (   0.1666667   0.3888889   0.0423280), wk =   0.0438957
        k(   37) = (   0.1666667   0.3888889   0.1269841), wk =   0.0438957
        k(   38) = (   0.1666667   0.3888889   0.2116402), wk =   0.0438957
        k(   39) = (   0.1666667   0.3888889   0.2962963), wk =   0.0438957
        k(   40) = (   0.1666667   0.3888889  -0.3809524), wk =   0.0219479
        k(   41) = (   0.1666667  -0.5000000   0.0423280), wk =   0.0219479
        k(   42) = (   0.1666667  -0.5000000   0.1269841), wk =   0.0219479
        k(   43) = (   0.1666667  -0.5000000   0.2116402), wk =   0.0219479
        k(   44) = (   0.1666667  -0.5000000   0.2962963), wk =   0.0219479
        k(   45) = (   0.1666667  -0.5000000  -0.3809524), wk =   0.0109739
        k(   46) = (   0.2777778   0.2777778   0.0423280), wk =   0.0219479
        k(   47) = (   0.2777778   0.2777778   0.1269841), wk =   0.0219479
        k(   48) = (   0.2777778   0.2777778   0.2116402), wk =   0.0219479
        k(   49) = (   0.2777778   0.2777778   0.2962963), wk =   0.0219479
        k(   50) = (   0.2777778   0.2777778  -0.3809524), wk =   0.0109739
        k(   51) = (   0.2777778   0.3888889   0.0423280), wk =   0.0438957
        k(   52) = (   0.2777778   0.3888889   0.1269841), wk =   0.0438957
        k(   53) = (   0.2777778   0.3888889   0.2116402), wk =   0.0438957
        k(   54) = (   0.2777778   0.3888889   0.2962963), wk =   0.0438957
        k(   55) = (   0.2777778   0.3888889  -0.3809524), wk =   0.0219479
        k(   56) = (   0.2777778  -0.5000000   0.0423280), wk =   0.0219479
        k(   57) = (   0.2777778  -0.5000000   0.1269841), wk =   0.0219479
        k(   58) = (   0.2777778  -0.5000000   0.2116402), wk =   0.0219479
        k(   59) = (   0.2777778  -0.5000000   0.2962963), wk =   0.0219479
        k(   60) = (   0.2777778  -0.5000000  -0.3809524), wk =   0.0109739
        k(   61) = (   0.3888889   0.3888889   0.0423280), wk =   0.0219479
        k(   62) = (   0.3888889   0.3888889   0.1269841), wk =   0.0219479
        k(   63) = (   0.3888889   0.3888889   0.2116402), wk =   0.0219479
        k(   64) = (   0.3888889   0.3888889   0.2962963), wk =   0.0219479
        k(   65) = (   0.3888889   0.3888889  -0.3809524), wk =   0.0109739
        k(   66) = (   0.3888889  -0.5000000   0.0423280), wk =   0.0219479
        k(   67) = (   0.3888889  -0.5000000   0.1269841), wk =   0.0219479
        k(   68) = (   0.3888889  -0.5000000   0.2116402), wk =   0.0219479
        k(   69) = (   0.3888889  -0.5000000   0.2962963), wk =   0.0219479
        k(   70) = (   0.3888889  -0.5000000  -0.3809524), wk =   0.0109739
        k(   71) = (  -0.5000000  -0.5000000   0.0423280), wk =   0.0054870
        k(   72) = (  -0.5000000  -0.5000000   0.1269841), wk =   0.0054870
        k(   73) = (  -0.5000000  -0.5000000   0.2116402), wk =   0.0054870
        k(   74) = (  -0.5000000  -0.5000000   0.2962963), wk =   0.0054870
        k(   75) = (  -0.5000000  -0.5000000  -0.3809524), wk =   0.0027435

     Dense  grid:   645809 G-vectors     FFT dimensions: ( 100, 100, 135)

     Smooth grid:   346653 G-vectors     FFT dimensions: (  80,  80, 108)

     Estimated max dynamical RAM per process >     292.25 MB

     Estimated total dynamical RAM >      20.55 GB

     Check: negative core charge=   -0.000001

     Initial potential from superposition of free atoms

     starting charge  575.98776, renormalised to  576.00000
     Starting wfcs are  320 randomized atomic wfcs +   26 random wfcs
     Checking if some PAW data can be deallocated... 

     total cpu time spent up to now is       27.0 secs

     Self-consistent Calculation

     iteration #  1     ecut=    71.00 Ry     beta= 0.10
     Davidson diagonalization with overlap
     ethr =  1.00E-02,  avg # of iterations =  3.8

     Threshold (ethr) on eigenvalues was too large:
     Diagonalizing with lowered threshold

     Davidson diagonalization with overlap
     ethr =  7.17E-04,  avg # of iterations =  1.1

     total cpu time spent up to now is      187.8 secs

     total energy              =  -16384.79430196 Ry
     estimated scf accuracy    <       4.12118846 Ry

     iteration #  2     ecut=    71.00 Ry     beta= 0.10
     Davidson diagonalization with overlap
     ethr =  7.15E-04,  avg # of iterations =  1.1

     total cpu time spent up to now is      255.8 secs

     total energy              =  -16384.30229423 Ry
     estimated scf accuracy    <       3.69762636 Ry

     iteration #  3     ecut=    71.00 Ry     beta= 0.10
     Davidson diagonalization with overlap
     ethr =  6.42E-04,  avg # of iterations =  1.7

     total cpu time spent up to now is      328.1 secs

     total energy              =  -16384.14563204 Ry
     estimated scf accuracy    <       2.36277042 Ry

     iteration #  4     ecut=    71.00 Ry     beta= 0.10
     Davidson diagonalization with overlap
     ethr =  4.10E-04,  avg # of iterations =  3.3

     total cpu time spent up to now is      406.1 secs

     total energy              =  -16384.30931004 Ry
     estimated scf accuracy    <       0.62213702 Ry

     iteration #  5     ecut=    71.00 Ry     beta= 0.10
     Davidson diagonalization with overlap
     ethr =  1.08E-04,  avg # of iterations =  2.8

     total cpu time spent up to now is      481.1 secs

     total energy              =  -16384.02578747 Ry
     estimated scf accuracy    <       0.90151100 Ry

     iteration #  6     ecut=    71.00 Ry     beta= 0.10
     Davidson diagonalization with overlap
     ethr =  1.08E-04,  avg # of iterations =  5.9

     total cpu time spent up to now is      577.6 secs

     total energy              =  -16384.07496460 Ry
     estimated scf accuracy    <       0.14192353 Ry

     iteration #  7     ecut=    71.00 Ry     beta= 0.10
     Davidson diagonalization with overlap
     c_bands:  3 eigenvalues not converged
     c_bands:  3 eigenvalues not converged
     ethr =  2.46E-05,  avg # of iterations =  8.3

     total cpu time spent up to now is      673.5 secs

     total energy              =  -16384.08142455 Ry
     estimated scf accuracy    <       0.07579358 Ry

     iteration #  8     ecut=    71.00 Ry     beta= 0.10
     Davidson diagonalization with overlap
     c_bands:  1 eigenvalues not converged
     ethr =  1.32E-05,  avg # of iterations =  3.2

     total cpu time spent up to now is      770.3 secs

     total energy              =  -16384.07297077 Ry
     estimated scf accuracy    <       0.06591959 Ry

     iteration #  9     ecut=    71.00 Ry     beta= 0.10
     Davidson diagonalization with overlap
     ethr =  1.14E-05,  avg # of iterations =  3.8

     total cpu time spent up to now is      853.1 secs

     total energy              =  -16384.08167486 Ry
     estimated scf accuracy    <       0.01043216 Ry

     iteration # 10     ecut=    71.00 Ry     beta= 0.10
     Davidson diagonalization with overlap
     c_bands:  2 eigenvalues not converged
     ethr =  1.81E-06,  avg # of iterations =  3.3

     total cpu time spent up to now is      931.5 secs

     total energy              =  -16384.08446143 Ry
     estimated scf accuracy    <       0.00830932 Ry

     iteration # 11     ecut=    71.00 Ry     beta= 0.10
     Davidson diagonalization with overlap
     ethr =  1.44E-06,  avg # of iterations =  3.3

     total cpu time spent up to now is     1015.8 secs

     total energy              =  -16384.08693931 Ry
     estimated scf accuracy    <       0.00398805 Ry

     iteration # 12     ecut=    71.00 Ry     beta= 0.10
     Davidson diagonalization with overlap
     ethr =  6.92E-07,  avg # of iterations =  2.9

     total cpu time spent up to now is     1099.8 secs

     total energy              =  -16384.08800952 Ry
     estimated scf accuracy    <       0.00091941 Ry

     iteration # 13     ecut=    71.00 Ry     beta= 0.10
     Davidson diagonalization with overlap
     ethr =  1.60E-07,  avg # of iterations =  2.0

     total cpu time spent up to now is     1183.2 secs

     total energy              =  -16384.08823399 Ry
     estimated scf accuracy    <       0.00174043 Ry

     iteration # 14     ecut=    71.00 Ry     beta= 0.10
     Davidson diagonalization with overlap
     ethr =  1.60E-07,  avg # of iterations =  2.1

     total cpu time spent up to now is     1261.1 secs

     total energy              =  -16384.08854970 Ry
     estimated scf accuracy    <       0.00026242 Ry

     iteration # 15     ecut=    71.00 Ry     beta= 0.10
     Davidson diagonalization with overlap
     ethr =  4.56E-08,  avg # of iterations =  2.2

     total cpu time spent up to now is     1343.1 secs

     total energy              =  -16384.08864369 Ry
     estimated scf accuracy    <       0.00011231 Ry

     iteration # 16     ecut=    71.00 Ry     beta= 0.10
     Davidson diagonalization with overlap
     ethr =  1.95E-08,  avg # of iterations =  2.0

     total cpu time spent up to now is     1423.8 secs

     total energy              =  -16384.08870135 Ry
     estimated scf accuracy    <       0.00004678 Ry

     iteration # 17     ecut=    71.00 Ry     beta= 0.10
     Davidson diagonalization with overlap
     ethr =  8.12E-09,  avg # of iterations =  2.1

     total cpu time spent up to now is     1507.3 secs

     total energy              =  -16384.08870916 Ry
     estimated scf accuracy    <       0.00004840 Ry

     iteration # 18     ecut=    71.00 Ry     beta= 0.10
     Davidson diagonalization with overlap
     ethr =  8.12E-09,  avg # of iterations =  2.0

     total cpu time spent up to now is     1591.7 secs

     total energy              =  -16384.08871990 Ry
     estimated scf accuracy    <       0.00000729 Ry

     iteration # 19     ecut=    71.00 Ry     beta= 0.10
     Davidson diagonalization with overlap
     ethr =  1.27E-09,  avg # of iterations =  2.0

     total cpu time spent up to now is     1669.3 secs

     total energy              =  -16384.08872279 Ry
     estimated scf accuracy    <       0.00000314 Ry

     iteration # 20     ecut=    71.00 Ry     beta= 0.10
     Davidson diagonalization with overlap
     ethr =  5.46E-10,  avg # of iterations =  2.0

     total cpu time spent up to now is     1746.7 secs

     total energy              =  -16384.08872530 Ry
     estimated scf accuracy    <       0.00000206 Ry

     iteration # 21     ecut=    71.00 Ry     beta= 0.10
     Davidson diagonalization with overlap
     ethr =  3.58E-10,  avg # of iterations =  2.0

     total cpu time spent up to now is     1825.1 secs

     total energy              =  -16384.08872832 Ry
     estimated scf accuracy    <       0.00000131 Ry

     iteration # 22     ecut=    71.00 Ry     beta= 0.10
     Davidson diagonalization with overlap
     ethr =  2.28E-10,  avg # of iterations =  2.3

     total cpu time spent up to now is     1913.9 secs

     End of self-consistent calculation

          k = 0.0556 0.0556 0.0423 ( 43304 PWs)   bands (ev):

   -70.7329 -70.7107 -70.7107 -70.7065 -70.7065 -70.7019 -70.7009 -70.7003
   -70.7003 -70.6991 -70.6933 -70.6932 -70.6919 -70.6918 -70.6846 -70.6846
   -70.1520 -70.1520 -70.1376 -70.1376 -70.1376 -70.1376 -70.1364 -70.1364
   -70.1362 -70.1361 -70.1348 -70.1348 -70.1348 -70.1348 -70.1203 -70.1202
   -36.5678 -36.5678 -36.5675 -36.5665 -36.5546 -36.5546 -36.5456 -36.5117
   -36.5117 -36.5090 -36.5090 -36.4731 -36.4731 -36.4618 -36.4618 -36.4526
   -36.4526 -36.4500 -36.4500 -36.4407 -36.4407 -36.4099 -36.4099 -36.4049
   -36.4049 -36.4041 -36.3995 -36.3995 -36.3943 -36.3909 -36.3908 -36.3756
   -36.3742 -36.3742 -36.3598 -36.3598 -36.3568 -36.3556 -36.3446 -36.3445
   -36.3394 -36.3393 -36.3068 -36.3050 -36.3050 -36.3007 -36.2887 -36.2871
   -36.0222 -36.0221 -36.0214 -36.0205 -36.0107 -36.0107 -36.0087 -36.0086
   -35.9402 -35.9402 -35.9401 -35.9401 -35.9253 -35.9253 -35.9250 -35.9250
   -35.9229 -35.9229 -35.9226 -35.9226 -35.9077 -35.9077 -35.9076 -35.9076
   -35.8372 -35.8368 -35.8357 -35.8352 -35.8237 -35.8236 -35.8224 -35.8223
   -35.7598 -35.7563 -35.7453 -35.7453 -35.7448 -35.7448 -35.7439 -35.7436
   -35.7436 -35.7435 -35.7432 -35.7431 -35.7428 -35.7428 -35.7330 -35.7330
     7.0703   8.3829   8.6082   8.6082   8.6743   8.6808   8.6868   8.6868
     8.7479   8.7883   8.8836   8.8836   8.9689   8.9689   9.1530   9.1530
     9.2099   9.4251   9.5503   9.5503   9.5749   9.5749   9.6046   9.6046
     9.6260   9.6260   9.7004   9.7004   9.7025   9.7069   9.7202   9.7202
     9.8377   9.8377   9.9074   9.9074   9.9421   9.9421  10.0234  10.0234
    10.0263  10.0263  10.0933  10.0933  10.1540  10.2140  10.2141  10.2322
    10.2322  10.3760  10.3760  10.4468  10.4930  10.4930  10.5385  10.5385
    10.5535  10.5614  10.5614  10.5723  10.7510  10.7510  10.7606  10.7606
    10.7638  10.7754  10.9222  10.9244  10.9265  10.9265  10.9309  10.9309
    10.9650  10.9741  11.0184  11.0184  11.0515  11.0515  11.3861  11.3861
    11.4332  11.4382  11.4788  11.4788  11.5111  11.5111  11.5126  11.5126
    11.6881  11.6881  11.6888  11.6888  11.6960  11.6960  11.7033  11.7201
    11.7692  11.7692  11.7747  11.7850  11.7850  11.8517  11.8630  11.8630
    11.8923  11.9714  11.9714  11.9740  11.9740  12.0536  12.0931  12.0932
    12.1054  12.1054  12.1373  12.1374  12.2251  12.2737  12.2737  12.3511
    12.3511  12.3595  12.3595  12.3623  12.5142  12.5143  12.5720  12.5721
    12.7050  12.7050  12.7107  12.7158  12.7159  12.7258  12.7258  12.7395
    12.7634  12.7634  12.8490  12.8639  12.8760  12.9218  12.9218  12.9283
    13.0198  13.0198  13.0300  13.0300  13.0317  13.1832  13.1832  13.2509
    13.2512  13.2512  13.2537  13.3077  13.3865  13.4094  13.4094  13.4162
    13.4162  13.4497  13.5093  13.6148  13.6149  14.0156  14.0156  14.1194
    14.1194  14.5507  14.5507  14.8440  15.0801  15.2255  15.2255  15.3921
    15.3921  15.4575  15.5927  15.7325  15.7325  15.9433  15.9433  16.1680
    16.2570  17.7471  17.7471  18.6265  18.6702  18.6702  18.8349  18.8987
    18.8987  19.4452  19.4452  19.8211  19.8211  20.2493  20.2493  20.4150
    20.4150  22.0610  22.2921  22.2921  22.3536  22.3536  22.3857  22.3857
    22.4427  22.9791  22.9791  23.4461  23.5669  23.5669  23.7345  23.7345
    23.9004  23.9004

          k = 0.0556 0.0556 0.1270 ( 43311 PWs)   bands (ev):

   -70.7329 -70.7107 -70.7107 -70.7065 -70.7065 -70.7019 -70.7009 -70.7003
   -70.7003 -70.6991 -70.6933 -70.6932 -70.6919 -70.6918 -70.6846 -70.6846
   -70.1520 -70.1520 -70.1376 -70.1376 -70.1376 -70.1376 -70.1364 -70.1364
   -70.1362 -70.1361 -70.1348 -70.1348 -70.1348 -70.1348 -70.1203 -70.1202
   -36.5678 -36.5678 -36.5675 -36.5665 -36.5546 -36.5546 -36.5457 -36.5118
   -36.5118 -36.5091 -36.5090 -36.4731 -36.4731 -36.4618 -36.4618 -36.4526
   -36.4526 -36.4500 -36.4500 -36.4408 -36.4407 -36.4100 -36.4099 -36.4050
   -36.4049 -36.4041 -36.3995 -36.3995 -36.3943 -36.3908 -36.3908 -36.3756
   -36.3742 -36.3742 -36.3598 -36.3598 -36.3568 -36.3556 -36.3445 -36.3445
   -36.3393 -36.3393 -36.3068 -36.3050 -36.3050 -36.3007 -36.2886 -36.2870
   -36.0222 -36.0222 -36.0214 -36.0205 -36.0107 -36.0107 -36.0087 -36.0086
   -35.9402 -35.9402 -35.9401 -35.9401 -35.9252 -35.9252 -35.9250 -35.9250
   -35.9230 -35.9229 -35.9226 -35.9226 -35.9077 -35.9077 -35.9076 -35.9076
   -35.8372 -35.8368 -35.8356 -35.8352 -35.8237 -35.8237 -35.8224 -35.8223
   -35.7597 -35.7563 -35.7452 -35.7452 -35.7448 -35.7448 -35.7439 -35.7436
   -35.7436 -35.7435 -35.7432 -35.7431 -35.7428 -35.7428 -35.7331 -35.7331
     7.0749   8.3761   8.6087   8.6087   8.6752   8.6817   8.6877   8.6877
     8.7479   8.7749   8.8841   8.8841   8.9706   8.9706   9.1544   9.1544
     9.2172   9.4248   9.5492   9.5492   9.5749   9.5750   9.6046   9.6046
     9.6258   9.6259   9.6984   9.6992   9.6992   9.7039   9.7164   9.7164
     9.8381   9.8381   9.9064   9.9064   9.9416   9.9416  10.0205  10.0205
    10.0283  10.0283  10.0928  10.0929  10.1545  10.2139  10.2139  10.2319
    10.2319  10.3758  10.3758  10.4446  10.4918  10.4918  10.5384  10.5384
    10.5532  10.5605  10.5605  10.5720  10.7500  10.7500  10.7540  10.7540
    10.7630  10.7736  10.9178  10.9178  10.9223  10.9245  10.9313  10.9313
    10.9650  10.9743  11.0256  11.0256  11.0598  11.0598  11.4010  11.4010
    11.4533  11.4546  11.4801  11.4801  11.5102  11.5102  11.5188  11.5188
    11.6631  11.6631  11.6833  11.6833  11.6999  11.6999  11.7031  11.7199
    11.7560  11.7621  11.7621  11.7715  11.7715  11.8475  11.8510  11.8708
    11.8708  11.9772  11.9772  11.9861  11.9861  12.0740  12.1039  12.1039
    12.1108  12.1108  12.1427  12.1427  12.2725  12.2725  12.3373  12.3373
    12.3451  12.3451  12.3592  12.3624  12.5135  12.5135  12.5756  12.5756
    12.7080  12.7080  12.7088  12.7088  12.7112  12.7283  12.7283  12.7401
    12.8045  12.8045  12.8493  12.8544  12.8670  12.9295  12.9672  12.9672
    12.9998  13.0012  13.0012  13.0212  13.0212  13.1802  13.1802  13.2505
    13.2525  13.2525  13.2537  13.3075  13.3864  13.4071  13.4071  13.4139
    13.4139  13.4514  13.5083  13.6149  13.6150  14.0157  14.0157  14.0327
    14.0327  14.4652  14.4652  14.8488  15.0785  15.0844  15.2523  15.2523
    15.5095  15.5309  15.5309  15.7212  15.7212  16.0806  16.0806  16.2377
    16.6708  17.7716  17.7716  18.4326  18.4326  18.6341  18.6875  18.6875
    18.8358  18.9911  18.9911  20.1783  20.1783  20.3563  20.3563  20.9461
    20.9461  21.7990  22.0989  22.0989  22.3170  22.3170  22.4106  22.4909
    22.4909  23.0034  23.0035  23.5682  23.7283  23.7283  23.7916  23.8940
    23.8941  23.9591

          k = 0.0556 0.0556 0.2116 ( 43296 PWs)   bands (ev):

   -70.7329 -70.7107 -70.7107 -70.7065 -70.7065 -70.7019 -70.7009 -70.7003
   -70.7003 -70.6991 -70.6933 -70.6932 -70.6919 -70.6918 -70.6846 -70.6846
   -70.1520 -70.1520 -70.1376 -70.1376 -70.1376 -70.1376 -70.1364 -70.1364
   -70.1362 -70.1361 -70.1348 -70.1348 -70.1348 -70.1348 -70.1203 -70.1202
   -36.5679 -36.5679 -36.5675 -36.5665 -36.5545 -36.5545 -36.5457 -36.5118
   -36.5118 -36.5090 -36.5090 -36.4731 -36.4731 -36.4618 -36.4618 -36.4526
   -36.4526 -36.4500 -36.4500 -36.4407 -36.4407 -36.4100 -36.4099 -36.4049
   -36.4049 -36.4042 -36.3996 -36.3995 -36.3943 -36.3908 -36.3908 -36.3756
   -36.3742 -36.3742 -36.3598 -36.3598 -36.3568 -36.3556 -36.3445 -36.3445
   -36.3393 -36.3393 -36.3069 -36.3050 -36.3050 -36.3007 -36.2886 -36.2871
   -36.0222 -36.0222 -36.0215 -36.0205 -36.0107 -36.0106 -36.0087 -36.0086
   -35.9402 -35.9402 -35.9400 -35.9400 -35.9252 -35.9252 -35.9250 -35.9250
   -35.9230 -35.9230 -35.9225 -35.9225 -35.9077 -35.9077 -35.9075 -35.9075
   -35.8371 -35.8369 -35.8356 -35.8353 -35.8237 -35.8237 -35.8224 -35.8224
   -35.7597 -35.7564 -35.7453 -35.7452 -35.7448 -35.7448 -35.7440 -35.7436
   -35.7436 -35.7435 -35.7431 -35.7431 -35.7427 -35.7427 -35.7331 -35.7331
     7.0819   8.3650   8.6095   8.6095   8.6767   8.6830   8.6892   8.6892
     8.7477   8.7566   8.8850   8.8850   8.9733   8.9733   9.1567   9.1567
     9.2272   9.4244   9.5474   9.5474   9.5750   9.5751   9.6047   9.6047
     9.6256   9.6256   9.6924   9.6972   9.6972   9.6990   9.7107   9.7107
     9.8388   9.8388   9.9049   9.9049   9.9408   9.9408  10.0160  10.0160
    10.0314  10.0314  10.0921  10.0922  10.1553  10.2136  10.2137  10.2314
    10.2314  10.3754  10.3754  10.4413  10.4900  10.4900  10.5383  10.5383
    10.5527  10.5592  10.5592  10.5715  10.7443  10.7443  10.7486  10.7486
    10.7618  10.7709  10.9059  10.9059  10.9223  10.9246  10.9317  10.9317
    10.9651  10.9745  11.0363  11.0363  11.0713  11.0713  11.4238  11.4238
    11.4778  11.4825  11.4825  11.4874  11.5058  11.5058  11.5307  11.5307
    11.6301  11.6301  11.6789  11.6789  11.7020  11.7020  11.7028  11.7195
    11.7247  11.7327  11.7327  11.7756  11.7756  11.8249  11.8497  11.8779
    11.8779  11.9822  11.9822  12.0044  12.0044  12.0804  12.1030  12.1030
    12.1379  12.1379  12.1493  12.1493  12.2708  12.2708  12.3190  12.3190
    12.3231  12.3231  12.3623  12.5114  12.5114  12.5704  12.5811  12.5811
    12.6958  12.6958  12.7120  12.7125  12.7125  12.7322  12.7322  12.7408
    12.8213  12.8499  12.8713  12.8713  12.8741  12.9313  12.9503  12.9750
    12.9750  13.0078  13.0078  13.0386  13.0386  13.1755  13.1755  13.2499
    13.2536  13.2540  13.2540  13.3072  13.3864  13.4036  13.4036  13.4105
    13.4105  13.4580  13.5066  13.6151  13.6151  13.9098  13.9098  14.0158
    14.0158  14.3442  14.3442  14.5923  14.8634  15.0805  15.2955  15.2955
    15.5980  15.7012  15.7012  15.7523  15.7523  16.2017  16.3007  16.3007
    17.1176  17.8106  17.8106  17.9618  17.9618  18.5263  18.5263  18.6553
    18.7153  18.7153  18.8256  20.0750  20.0750  20.9591  20.9591  21.5632
    21.5632  21.6051  21.8286  21.8286  22.1596  22.3582  22.3582  22.6582
    22.6582  23.0436  23.0436  23.3174  23.7047  23.7047  23.8813  23.8813
    23.8891  23.8891

          k = 0.0556 0.0556 0.2963 ( 43301 PWs)   bands (ev):

   -70.7329 -70.7107 -70.7107 -70.7065 -70.7065 -70.7019 -70.7009 -70.7003
   -70.7003 -70.6991 -70.6933 -70.6932 -70.6919 -70.6918 -70.6846 -70.6846
   -70.1520 -70.1520 -70.1376 -70.1376 -70.1376 -70.1376 -70.1364 -70.1364
   -70.1362 -70.1361 -70.1348 -70.1348 -70.1348 -70.1348 -70.1203 -70.1202
   -36.5678 -36.5678 -36.5675 -36.5665 -36.5545 -36.5545 -36.5456 -36.5118
   -36.5118 -36.5091 -36.5091 -36.4731 -36.4731 -36.4618 -36.4618 -36.4526
   -36.4526 -36.4500 -36.4500 -36.4407 -36.4407 -36.4100 -36.4099 -36.4050
   -36.4049 -36.4042 -36.3996 -36.3996 -36.3943 -36.3908 -36.3908 -36.3756
   -36.3742 -36.3742 -36.3598 -36.3597 -36.3569 -36.3556 -36.3445 -36.3445
   -36.3393 -36.3393 -36.3069 -36.3050 -36.3050 -36.3007 -36.2886 -36.2871
   -36.0223 -36.0222 -36.0215 -36.0205 -36.0106 -36.0106 -36.0086 -36.0086
   -35.9402 -35.9402 -35.9400 -35.9400 -35.9252 -35.9252 -35.9250 -35.9250
   -35.9230 -35.9230 -35.9225 -35.9225 -35.9077 -35.9077 -35.9075 -35.9075
   -35.8372 -35.8368 -35.8356 -35.8353 -35.8237 -35.8237 -35.8224 -35.8223
   -35.7597 -35.7564 -35.7453 -35.7453 -35.7447 -35.7447 -35.7440 -35.7436
   -35.7436 -35.7435 -35.7432 -35.7432 -35.7427 -35.7427 -35.7331 -35.7331
     7.0882   8.3547   8.6102   8.6102   8.6780   8.6842   8.6904   8.6904
     8.7407   8.7489   8.8858   8.8858   8.9757   8.9757   9.1587   9.1587
     9.2351   9.4240   9.5459   9.5459   9.5751   9.5751   9.6048   9.6048
     9.6253   9.6253   9.6875   9.6944   9.6955   9.6955   9.7056   9.7056
     9.8395   9.8395   9.9037   9.9037   9.9400   9.9400  10.0121  10.0121
    10.0341  10.0341  10.0915  10.0915  10.1560  10.2134  10.2135  10.2310
    10.2310  10.3751  10.3751  10.4385  10.4884  10.4884  10.5382  10.5382
    10.5523  10.5580  10.5580  10.5711  10.7361  10.7361  10.7474  10.7474
    10.7609  10.7687  10.8963  10.8963  10.9224  10.9247  10.9321  10.9321
    10.9651  10.9748  11.0456  11.0456  11.0807  11.0807  11.4439  11.4439
    11.4862  11.4862  11.4995  11.5000  11.5000  11.5175  11.5413  11.5413
    11.6052  11.6052  11.6758  11.6758  11.6965  11.6965  11.7009  11.7025
    11.7158  11.7158  11.7193  11.7800  11.7800  11.8167  11.8487  11.8816
    11.8817  11.9867  11.9867  12.0180  12.0180  12.0821  12.1033  12.1033
    12.1537  12.1537  12.1631  12.1631  12.2700  12.2700  12.3015  12.3015
    12.3052  12.3052  12.3623  12.5091  12.5091  12.5860  12.5860  12.6819
    12.6819  12.7127  12.7165  12.7165  12.7356  12.7356  12.7415  12.7735
    12.7920  12.8504  12.8989  12.9059  12.9330  12.9368  12.9368  12.9542
    12.9542  12.9959  12.9959  13.1054  13.1054  13.1713  13.1713  13.2493
    13.2535  13.2550  13.2550  13.3070  13.3864  13.4005  13.4005  13.4074
    13.4074  13.4790  13.5052  13.6152  13.6152  13.8039  13.8039  14.0159
    14.0159  14.1875  14.2415  14.2415  14.8832  15.0688  15.3369  15.3370
    15.6798  15.6798  15.6874  15.9797  15.9797  16.1591  16.5262  16.5262
    17.4361  17.5883  17.5883  17.8466  17.8466  18.1577  18.1577  18.6932
    18.7412  18.7412  18.7945  19.9879  19.9879  21.5020  21.5020  21.5245
    21.6412  21.6412  21.9161  22.1437  22.1437  22.3984  22.3984  22.8204
    22.8204  22.9591  23.0808  23.0808  23.6609  23.6609  23.7660  23.7661
    23.8912  23.8912

          k = 0.0556 0.0556-0.3810 ( 43300 PWs)   bands (ev):

   -70.7329 -70.7107 -70.7107 -70.7065 -70.7065 -70.7019 -70.7009 -70.7003
   -70.7003 -70.6991 -70.6933 -70.6932 -70.6919 -70.6918 -70.6846 -70.6846
   -70.1520 -70.1520 -70.1376 -70.1376 -70.1376 -70.1376 -70.1364 -70.1364
   -70.1362 -70.1361 -70.1348 -70.1348 -70.1348 -70.1348 -70.1203 -70.1202
   -36.5678 -36.5678 -36.5675 -36.5665 -36.5545 -36.5545 -36.5456 -36.5119
   -36.5118 -36.5091 -36.5091 -36.4731 -36.4731 -36.4618 -36.4618 -36.4526
   -36.4526 -36.4500 -36.4500 -36.4407 -36.4407 -36.4099 -36.4099 -36.4050
   -36.4049 -36.4041 -36.3995 -36.3995 -36.3942 -36.3908 -36.3908 -36.3756
   -36.3742 -36.3742 -36.3597 -36.3597 -36.3569 -36.3556 -36.3445 -36.3445
   -36.3394 -36.3393 -36.3068 -36.3050 -36.3050 -36.3007 -36.2886 -36.2870
   -36.0222 -36.0222 -36.0215 -36.0205 -36.0106 -36.0106 -36.0087 -36.0086
   -35.9402 -35.9402 -35.9400 -35.9400 -35.9253 -35.9253 -35.9250 -35.9250
   -35.9230 -35.9230 -35.9225 -35.9225 -35.9077 -35.9077 -35.9075 -35.9075
   -35.8372 -35.8368 -35.8356 -35.8353 -35.8237 -35.8237 -35.8224 -35.8223
   -35.7597 -35.7564 -35.7453 -35.7453 -35.7448 -35.7448 -35.7439 -35.7436
   -35.7435 -35.7434 -35.7432 -35.7432 -35.7428 -35.7428 -35.7331 -35.7330
     7.0907   8.3504   8.6105   8.6105   8.6785   8.6846   8.6909   8.6910
     8.7354   8.7487   8.8861   8.8861   8.9767   8.9767   9.1595   9.1595
     9.2380   9.4238   9.5453   9.5453   9.5751   9.5751   9.6048   9.6048
     9.6252   9.6252   9.6856   9.6925   9.6948   9.6948   9.7036   9.7036
     9.8397   9.8397   9.9032   9.9032   9.9397   9.9397  10.0106  10.0106
    10.0351  10.0351  10.0912  10.0912  10.1563  10.2134  10.2134  10.2309
    10.2309  10.3749  10.3750  10.4374  10.4878  10.4878  10.5382  10.5382
    10.5522  10.5575  10.5575  10.5709  10.7329  10.7329  10.7469  10.7469
    10.7605  10.7678  10.8927  10.8927  10.9225  10.9247  10.9322  10.9323
    10.9652  10.9749  11.0493  11.0493  11.0843  11.0843  11.4518  11.4518
    11.4893  11.4893  11.4959  11.4959  11.5083  11.5298  11.5455  11.5455
    11.5963  11.5963  11.6747  11.6747  11.6904  11.6904  11.6927  11.7024
    11.7136  11.7136  11.7192  11.7819  11.7820  11.8145  11.8483  11.8827
    11.8828  11.9885  11.9885  12.0229  12.0229  12.0824  12.1037  12.1037
    12.1550  12.1550  12.1741  12.1741  12.2704  12.2704  12.2910  12.2910
    12.3002  12.3002  12.3623  12.5081  12.5081  12.5880  12.5880  12.6757
    12.6758  12.7129  12.7180  12.7180  12.7369  12.7369  12.7417  12.7805
    12.8316  12.8506  12.8881  12.9337  12.9467  12.9467  12.9524  12.9655
    12.9656  12.9912  12.9912  13.1334  13.1334  13.1696  13.1696  13.2492
    13.2535  13.2553  13.2553  13.3069  13.3864  13.3992  13.3992  13.4062
    13.4062  13.5046  13.5061  13.6152  13.6152  13.7610  13.7610  13.9969
    14.0159  14.0159  14.2008  14.2008  14.8932  15.0618  15.3546  15.3546
    15.6699  15.6699  15.7277  16.0888  16.0888  16.1372  16.6337  16.6337
    17.4311  17.4311  17.5538  17.8612  17.8612  18.0032  18.0032  18.7340
    18.7518  18.7518  18.7557  19.9542  19.9542  21.5198  21.5748  21.5748
    21.7593  21.7594  21.8066  22.4136  22.4136  22.4430  22.4430  22.8254
    22.8924  22.8924  23.0939  23.0940  23.6340  23.6344  23.7297  23.7437
    23.9102  23.9123

          k = 0.0556 0.1667 0.0423 ( 43299 PWs)   bands (ev):

   -70.7321 -70.7149 -70.7104 -70.7063 -70.7036 -70.7023 -70.7014 -70.7006
   -70.6987 -70.6980 -70.6947 -70.6934 -70.6921 -70.6904 -70.6853 -70.6848
   -70.1515 -70.1515 -70.1403 -70.1403 -70.1376 -70.1375 -70.1366 -70.1366
   -70.1359 -70.1359 -70.1349 -70.1348 -70.1321 -70.1321 -70.1208 -70.1207
   -36.5660 -36.5650 -36.5638 -36.5623 -36.5518 -36.5516 -36.5443 -36.5163
   -36.5147 -36.5133 -36.5095 -36.4923 -36.4864 -36.4814 -36.4605 -36.4533
   -36.4515 -36.4475 -36.4332 -36.4263 -36.4218 -36.4153 -36.4113 -36.4091
   -36.4082 -36.4047 -36.4045 -36.3981 -36.3949 -36.3891 -36.3885 -36.3841
   -36.3746 -36.3653 -36.3594 -36.3512 -36.3500 -36.3499 -36.3455 -36.3450
   -36.3398 -36.3357 -36.3121 -36.3115 -36.3063 -36.2995 -36.2935 -36.2885
   -36.0209 -36.0200 -36.0177 -36.0160 -36.0094 -36.0092 -36.0048 -36.0047
   -35.9570 -35.9567 -35.9548 -35.9544 -35.9428 -35.9421 -35.9382 -35.9376
   -35.9103 -35.9098 -35.9056 -35.9052 -35.8930 -35.8929 -35.8907 -35.8905
   -35.8415 -35.8413 -35.8368 -35.8365 -35.8281 -35.8281 -35.8241 -35.8241
   -35.7591 -35.7559 -35.7473 -35.7469 -35.7453 -35.7447 -35.7443 -35.7436
   -35.7436 -35.7432 -35.7432 -35.7427 -35.7411 -35.7409 -35.7334 -35.7333
     7.1401   8.4369   8.6448   8.6506   8.6908   8.6910   8.7067   8.7235
     8.7291   8.7869   8.8398   8.9080   8.9100   8.9712   9.1538   9.2159
     9.2632   9.4582   9.4673   9.4832   9.4910   9.4955   9.4984   9.5916
     9.5954   9.6274   9.6327   9.6335   9.6597   9.6944   9.7001   9.7397
     9.7434   9.7658   9.8193   9.8778   9.9771   9.9883   9.9911   9.9960
    10.0261  10.0351  10.0362  10.1734  10.2141  10.2360  10.2760  10.3157
    10.3247  10.3692  10.3798  10.4287  10.4384  10.4705  10.5223  10.5620
    10.5660  10.5776  10.6035  10.6249  10.6695  10.7170  10.7617  10.7713
    10.7813  10.7953  10.9462  10.9499  10.9515  10.9529  10.9611  10.9625
    10.9819  11.0426  11.0474  11.0582  11.0726  11.1905  11.2805  11.2855
    11.2869  11.3490  11.3513  11.3615  11.4282  11.4759  11.4920  11.5013
    11.5917  11.6009  11.6280  11.6330  11.6828  11.7212  11.7545  11.7627
    11.7802  11.7994  11.8167  11.8341  11.8610  11.8869  11.8889  11.8924
    11.8964  11.9072  11.9152  11.9698  12.0415  12.0545  12.0583  12.0626
    12.2088  12.2203  12.2272  12.2587  12.3022  12.3218  12.3749  12.4253
    12.4478  12.4594  12.4612  12.4640  12.5471  12.5542  12.5613  12.6055
    12.6097  12.6314  12.6593  12.6929  12.7156  12.7492  12.7529  12.7534
    12.7925  12.7937  12.8222  12.8467  12.9124  12.9608  12.9874  12.9924
    13.0089  13.0425  13.0869  13.1168  13.1491  13.1578  13.1669  13.1689
    13.1963  13.2059  13.2286  13.2914  13.3304  13.3508  13.3990  13.4025
    13.4155  13.4276  13.4942  13.5107  13.5480  13.7808  13.8982  13.9336
    14.1129  14.4905  14.5602  14.6347  14.8930  15.0839  15.0867  15.1729
    15.3967  15.4874  15.6508  15.7962  15.9537  16.3280  16.3377  16.5532
    16.8562  17.3513  17.9809  18.3739  18.6751  18.7969  18.8953  18.9287
    19.0853  19.2399  19.4665  19.7206  19.8791  20.0172  20.4118  20.4584
    21.0242  21.5098  21.5288  21.5909  21.8275  22.0793  22.1224  22.2073
    22.4702  22.4975  23.2750  23.4717  23.5136  23.6360  23.7465  23.7829
    23.8413  23.9709

          k = 0.0556 0.1667 0.1270 ( 43310 PWs)   bands (ev):

   -70.7321 -70.7149 -70.7104 -70.7063 -70.7036 -70.7023 -70.7014 -70.7006
   -70.6987 -70.6980 -70.6947 -70.6934 -70.6921 -70.6904 -70.6853 -70.6848
   -70.1515 -70.1515 -70.1403 -70.1403 -70.1376 -70.1375 -70.1366 -70.1366
   -70.1359 -70.1359 -70.1349 -70.1348 -70.1321 -70.1321 -70.1208 -70.1207
   -36.5660 -36.5650 -36.5638 -36.5623 -36.5517 -36.5516 -36.5443 -36.5164
   -36.5147 -36.5133 -36.5095 -36.4924 -36.4865 -36.4814 -36.4604 -36.4533
   -36.4516 -36.4475 -36.4332 -36.4263 -36.4217 -36.4153 -36.4113 -36.4091
   -36.4082 -36.4047 -36.4045 -36.3980 -36.3949 -36.3891 -36.3885 -36.3840
   -36.3746 -36.3653 -36.3594 -36.3511 -36.3499 -36.3498 -36.3456 -36.3449
   -36.3397 -36.3357 -36.3121 -36.3115 -36.3064 -36.2995 -36.2935 -36.2885
   -36.0209 -36.0201 -36.0177 -36.0160 -36.0094 -36.0092 -36.0048 -36.0047
   -35.9570 -35.9567 -35.9548 -35.9544 -35.9427 -35.9421 -35.9382 -35.9376
   -35.9103 -35.9098 -35.9056 -35.9051 -35.8930 -35.8929 -35.8907 -35.8905
   -35.8414 -35.8412 -35.8368 -35.8365 -35.8282 -35.8281 -35.8241 -35.8241
   -35.7590 -35.7560 -35.7474 -35.7470 -35.7452 -35.7447 -35.7443 -35.7436
   -35.7436 -35.7432 -35.7432 -35.7427 -35.7411 -35.7409 -35.7334 -35.7333
     7.1446   8.4304   8.6454   8.6511   8.6916   8.6933   8.7075   8.7244
     8.7300   8.7867   8.8268   8.9085   8.9105   8.9724   9.1547   9.2172
     9.2702   9.4580   9.4673   9.4827   9.4895   9.4955   9.4975   9.5904
     9.5943   9.6271   9.6329   9.6333   9.6571   9.6899   9.6984   9.7357
     9.7399   9.7671   9.8174   9.8809   9.9778   9.9884   9.9912   9.9959
    10.0233  10.0334  10.0366  10.1739  10.2125  10.2354  10.2762  10.3194
    10.3241  10.3661  10.3780  10.4286  10.4368  10.4694  10.5218  10.5610
    10.5630  10.5776  10.6032  10.6252  10.6699  10.7161  10.7616  10.7710
    10.7797  10.7905  10.9461  10.9469  10.9500  10.9524  10.9633  10.9636
    10.9817  11.0361  11.0551  11.0627  11.0758  11.1970  11.2867  11.2926
    11.2969  11.3495  11.3682  11.3730  11.4271  11.4839  11.4898  11.5087
    11.6017  11.6043  11.6043  11.6258  11.6679  11.7257  11.7553  11.7672
    11.7681  11.8015  11.8220  11.8327  11.8498  11.8632  11.8830  11.8885
    11.8921  11.9003  11.9165  11.9721  12.0484  12.0578  12.0732  12.0820
    12.2152  12.2213  12.2250  12.2683  12.3219  12.3293  12.3567  12.4153
    12.4423  12.4445  12.4729  12.4889  12.5422  12.5489  12.5647  12.6007
    12.6177  12.6295  12.6776  12.6971  12.7186  12.7514  12.7517  12.7882
    12.7954  12.7961  12.8238  12.8515  12.9592  12.9595  12.9783  12.9907
    13.0001  13.0384  13.0543  13.1006  13.1470  13.1643  13.1648  13.1752
    13.1990  13.2066  13.2706  13.2930  13.3408  13.3569  13.3971  13.4009
    13.4148  13.4254  13.4950  13.5098  13.5481  13.6934  13.8986  13.9337
    14.0284  14.4761  14.4767  14.6312  14.9998  15.0332  15.0802  15.1731
    15.2791  15.5364  15.5848  15.7043  16.0916  16.3117  16.6891  16.8259
    16.8501  17.3763  17.8987  18.0048  18.4657  18.6830  18.7816  18.8984
    19.0170  19.0448  19.5788  19.6448  19.7734  20.3394  20.4078  20.9760
    21.5422  21.5525  21.6163  21.6275  21.6382  21.8137  22.1460  22.4365
    22.5010  22.6051  23.1620  23.4024  23.5342  23.5957  23.6512  23.6583
    23.7131  23.8391

          k = 0.0556 0.1667 0.2116 ( 43302 PWs)   bands (ev):

   -70.7321 -70.7149 -70.7104 -70.7063 -70.7036 -70.7023 -70.7014 -70.7006
   -70.6987 -70.6980 -70.6947 -70.6934 -70.6921 -70.6904 -70.6853 -70.6848
   -70.1515 -70.1515 -70.1403 -70.1403 -70.1376 -70.1375 -70.1366 -70.1366
   -70.1359 -70.1359 -70.1349 -70.1348 -70.1321 -70.1321 -70.1208 -70.1207
   -36.5660 -36.5650 -36.5638 -36.5623 -36.5518 -36.5516 -36.5443 -36.5165
   -36.5147 -36.5133 -36.5094 -36.4924 -36.4864 -36.4814 -36.4604 -36.4533
   -36.4516 -36.4475 -36.4332 -36.4263 -36.4218 -36.4153 -36.4114 -36.4091
   -36.4083 -36.4047 -36.4045 -36.3980 -36.3949 -36.3891 -36.3884 -36.3840
   -36.3746 -36.3653 -36.3594 -36.3511 -36.3499 -36.3498 -36.3455 -36.3449
   -36.3397 -36.3356 -36.3121 -36.3115 -36.3063 -36.2995 -36.2935 -36.2885
   -36.0209 -36.0201 -36.0177 -36.0160 -36.0094 -36.0092 -36.0048 -36.0047
   -35.9570 -35.9567 -35.9548 -35.9544 -35.9427 -35.9421 -35.9382 -35.9375
   -35.9103 -35.9098 -35.9056 -35.9051 -35.8930 -35.8929 -35.8907 -35.8905
   -35.8414 -35.8413 -35.8368 -35.8365 -35.8282 -35.8281 -35.8241 -35.8241
   -35.7590 -35.7560 -35.7474 -35.7469 -35.7453 -35.7447 -35.7443 -35.7436
   -35.7436 -35.7432 -35.7432 -35.7427 -35.7410 -35.7409 -35.7334 -35.7334
     7.1515   8.4198   8.6462   8.6518   8.6929   8.6968   8.7086   8.7258
     8.7313   8.7859   8.8091   8.9094   8.9113   8.9742   9.1560   9.2193
     9.2798   9.4577   9.4673   9.4820   9.4872   9.4955   9.4960   9.5885
     9.5926   9.6265   9.6330   9.6332   9.6530   9.6841   9.6947   9.7302
     9.7340   9.7691   9.8145   9.8857   9.9790   9.9884   9.9913   9.9957
    10.0191  10.0290  10.0387  10.1746  10.2098  10.2345  10.2766  10.3232
    10.3250  10.3615  10.3755  10.4285  10.4342  10.4678  10.5211  10.5535
    10.5647  10.5777  10.6027  10.6256  10.6705  10.7148  10.7614  10.7707
    10.7773  10.7832  10.9382  10.9460  10.9502  10.9538  10.9642  10.9670
    10.9814  11.0265  11.0670  11.0691  11.0806  11.2072  11.2888  11.3114
    11.3127  11.3463  11.3898  11.3989  11.4253  11.4861  11.4964  11.5201
    11.5673  11.6031  11.6220  11.6272  11.6504  11.7277  11.7527  11.7569
    11.7704  11.7972  11.8055  11.8264  11.8327  11.8597  11.8670  11.8893
    11.8915  11.8975  11.9238  11.9766  12.0420  12.0765  12.0883  12.0987
    12.2109  12.2245  12.2295  12.2864  12.3217  12.3357  12.3528  12.4041
    12.4237  12.4366  12.4795  12.5222  12.5283  12.5516  12.5700  12.5915
    12.5960  12.6540  12.6859  12.7231  12.7481  12.7494  12.7591  12.7980
    12.7983  12.8265  12.8557  12.8618  12.9578  12.9645  12.9851  12.9865
    13.0068  13.0311  13.0332  13.0803  13.1436  13.1611  13.1774  13.1798
    13.2010  13.2086  13.2951  13.3330  13.3461  13.3943  13.3984  13.3985
    13.4172  13.4222  13.4961  13.5090  13.5483  13.5704  13.8991  13.9090
    13.9338  14.3589  14.4650  14.6215  14.8007  14.8810  15.0801  15.1653
    15.2552  15.7396  15.7598  15.7906  16.2807  16.3130  16.7677  16.9073
    17.3019  17.4162  17.4250  17.9930  18.0430  18.5519  18.7057  18.7630
    18.8904  18.9728  19.1235  19.5363  20.2342  20.3528  21.0043  21.5608
    21.5747  21.5975  21.6164  21.6555  21.8179  22.1588  22.1819  22.1851
    22.5114  22.7753  23.0409  23.2618  23.3543  23.4555  23.5623  23.6752
    23.6904  23.8996

          k = 0.0556 0.1667 0.2963 ( 43303 PWs)   bands (ev):

   -70.7321 -70.7149 -70.7104 -70.7063 -70.7036 -70.7023 -70.7014 -70.7006
   -70.6987 -70.6980 -70.6947 -70.6934 -70.6921 -70.6904 -70.6853 -70.6848
   -70.1515 -70.1515 -70.1403 -70.1403 -70.1376 -70.1375 -70.1366 -70.1366
   -70.1359 -70.1359 -70.1349 -70.1348 -70.1321 -70.1321 -70.1208 -70.1207
   -36.5660 -36.5650 -36.5638 -36.5623 -36.5517 -36.5516 -36.5443 -36.5165
   -36.5148 -36.5133 -36.5094 -36.4924 -36.4864 -36.4814 -36.4604 -36.4533
   -36.4515 -36.4475 -36.4332 -36.4263 -36.4218 -36.4154 -36.4114 -36.4092
   -36.4082 -36.4048 -36.4045 -36.3981 -36.3949 -36.3891 -36.3884 -36.3840
   -36.3746 -36.3653 -36.3594 -36.3511 -36.3499 -36.3498 -36.3455 -36.3449
   -36.3397 -36.3356 -36.3121 -36.3115 -36.3063 -36.2995 -36.2935 -36.2885
   -36.0210 -36.0201 -36.0177 -36.0159 -36.0094 -36.0092 -36.0048 -36.0047
   -35.9570 -35.9567 -35.9548 -35.9544 -35.9428 -35.9421 -35.9382 -35.9375
   -35.9102 -35.9098 -35.9056 -35.9051 -35.8929 -35.8929 -35.8908 -35.8905
   -35.8414 -35.8412 -35.8367 -35.8365 -35.8282 -35.8281 -35.8241 -35.8241
   -35.7590 -35.7560 -35.7474 -35.7469 -35.7453 -35.7447 -35.7443 -35.7436
   -35.7435 -35.7432 -35.7432 -35.7427 -35.7411 -35.7409 -35.7335 -35.7334
     7.1578   8.4099   8.6470   8.6525   8.6940   8.6999   8.7095   8.7271
     8.7323   8.7832   8.7970   8.9101   8.9120   8.9757   9.1572   9.2211
     9.2874   9.4574   9.4673   9.4813   9.4852   9.4945   9.4955   9.5869
     9.5911   9.6260   9.6327   9.6335   9.6494   9.6797   9.6908   9.7259
     9.7283   9.7708   9.8123   9.8901   9.9800   9.9883   9.9914   9.9956
    10.0155  10.0253  10.0404  10.1753  10.2075  10.2338  10.2771  10.3224
    10.3299  10.3577  10.3734  10.4285  10.4319  10.4664  10.5205  10.5468
    10.5662  10.5777  10.6022  10.6261  10.6710  10.7137  10.7613  10.7705
    10.7752  10.7768  10.9308  10.9459  10.9503  10.9550  10.9650  10.9697
    10.9812  11.0183  11.0744  11.0777  11.0848  11.2164  11.2910  11.3259
    11.3291  11.3431  11.4051  11.4237  11.4262  11.4825  11.5075  11.5302
    11.5386  11.6049  11.6179  11.6377  11.6565  11.7277  11.7406  11.7511
    11.7585  11.7716  11.8098  11.8285  11.8314  11.8375  11.8708  11.8841
    11.8944  11.9032  11.9287  11.9813  12.0386  12.0881  12.1019  12.1061
    12.1998  12.2313  12.2328  12.3069  12.3202  12.3212  12.3629  12.3974
    12.4040  12.4339  12.4821  12.5027  12.5487  12.5537  12.5747  12.5762
    12.5809  12.6331  12.7272  12.7452  12.7470  12.7568  12.8004  12.8016
    12.8232  12.8290  12.8807  12.9200  12.9527  12.9564  12.9672  12.9738
    12.9745  13.0300  13.0642  13.0967  13.1408  13.1575  13.1814  13.1912
    13.2019  13.2109  13.2968  13.3470  13.3751  13.3918  13.3966  13.4193
    13.4350  13.4626  13.4857  13.4971  13.5190  13.5484  13.8068  13.8996
    13.9340  14.2597  14.4049  14.4636  14.6094  14.7814  15.0899  15.1502
    15.4836  15.8758  15.8907  15.9896  16.2424  16.5402  16.6969  17.0485
    17.1305  17.4531  17.6167  17.6255  18.0783  18.1815  18.7462  18.7551
    18.7616  18.8599  18.8972  19.4460  20.1459  20.8497  21.5340  21.5341
    21.6253  21.6301  21.6947  21.9352  22.0119  22.0677  22.2229  22.2940
    22.7288  22.9347  22.9878  23.0242  23.1919  23.2482  23.4701  23.6541
    23.8364  23.8589

          k = 0.0556 0.1667-0.3810 ( 43320 PWs)   bands (ev):

   -70.7321 -70.7149 -70.7104 -70.7063 -70.7036 -70.7023 -70.7014 -70.7006
   -70.6987 -70.6980 -70.6947 -70.6934 -70.6921 -70.6904 -70.6853 -70.6848
   -70.1515 -70.1515 -70.1403 -70.1403 -70.1376 -70.1375 -70.1366 -70.1366
   -70.1359 -70.1359 -70.1349 -70.1348 -70.1321 -70.1321 -70.1208 -70.1207
   -36.5660 -36.5650 -36.5638 -36.5623 -36.5518 -36.5516 -36.5442 -36.5165
   -36.5148 -36.5133 -36.5095 -36.4924 -36.4865 -36.4815 -36.4604 -36.4533
   -36.4515 -36.4475 -36.4333 -36.4263 -36.4218 -36.4154 -36.4113 -36.4092
   -36.4082 -36.4047 -36.4045 -36.3981 -36.3949 -36.3891 -36.3884 -36.3841
   -36.3746 -36.3653 -36.3594 -36.3512 -36.3500 -36.3498 -36.3455 -36.3449
   -36.3398 -36.3356 -36.3121 -36.3115 -36.3064 -36.2995 -36.2935 -36.2885
   -36.0210 -36.0201 -36.0177 -36.0160 -36.0094 -36.0092 -36.0048 -36.0047
   -35.9570 -35.9568 -35.9549 -35.9544 -35.9428 -35.9422 -35.9382 -35.9375
   -35.9102 -35.9098 -35.9056 -35.9051 -35.8930 -35.8929 -35.8908 -35.8905
   -35.8414 -35.8412 -35.8368 -35.8364 -35.8282 -35.8281 -35.8241 -35.8241
   -35.7590 -35.7561 -35.7474 -35.7469 -35.7453 -35.7447 -35.7443 -35.7436
   -35.7435 -35.7432 -35.7432 -35.7428 -35.7411 -35.7410 -35.7334 -35.7333
     7.1603   8.4058   8.6473   8.6527   8.6945   8.7011   8.7098   8.7276
     8.7328   8.7808   8.7940   8.9104   8.9123   8.9764   9.1576   9.2218
     9.2902   9.4573   9.4673   9.4811   9.4844   9.4939   9.4954   9.5863
     9.5905   9.6259   9.6327   9.6336   9.6480   9.6781   9.6891   9.7247
     9.7256   9.7714   9.8114   9.8918   9.9804   9.9883   9.9914   9.9956
    10.0140  10.0238  10.0410  10.1756  10.2065  10.2334  10.2772  10.3221
    10.3319  10.3563  10.3726  10.4286  10.4309  10.4659  10.5203  10.5442
    10.5669  10.5777  10.6021  10.6263  10.6712  10.7133  10.7613  10.7704
    10.7742  10.7743  10.9280  10.9459  10.9504  10.9554  10.9652  10.9708
    10.9811  11.0150  11.0764  11.0820  11.0865  11.2201  11.2920  11.3313
    11.3360  11.3416  11.4112  11.4230  11.4371  11.4809  11.5119  11.5280
    11.5342  11.6059  11.6158  11.6331  11.6781  11.7241  11.7274  11.7360
    11.7592  11.7718  11.8119  11.8286  11.8290  11.8309  11.8724  11.8825
    11.8957  11.9057  11.9304  11.9833  12.0378  12.0917  12.1077  12.1081
    12.1946  12.2315  12.2362  12.3144  12.3172  12.3210  12.3655  12.3946
    12.3954  12.4332  12.4826  12.4944  12.5539  12.5545  12.5683  12.5760
    12.5766  12.6249  12.7288  12.7441  12.7459  12.7836  12.8013  12.8029
    12.8300  12.8530  12.8968  12.9480  12.9481  12.9508  12.9571  12.9644
    12.9698  13.0291  13.0580  13.1238  13.1397  13.1560  13.1817  13.1968
    13.2021  13.2118  13.2975  13.3472  13.3832  13.3909  13.3959  13.4172
    13.4183  13.4517  13.4975  13.5011  13.5484  13.5857  13.7656  13.8998
    13.9340  14.2178  14.2206  14.4649  14.6036  14.7425  15.0985  15.1398
    15.5943  15.9146  15.9583  16.1000  16.2217  16.6487  16.6601  16.8889
    17.2364  17.4581  17.4682  17.7456  18.0260  18.0928  18.6101  18.7572
    18.7848  18.8244  18.8615  19.4113  20.1117  21.0690  21.5292  21.6468
    21.6857  21.7113  21.7789  21.8242  22.1037  22.1648  22.2379  22.2605
    22.8507  22.9310  22.9912  23.1196  23.1654  23.3103  23.4746  23.4885
    23.8019  23.8024

          k = 0.0556 0.2778 0.0423 ( 43287 PWs)   bands (ev):

   -70.7307 -70.7189 -70.7098 -70.7059 -70.7051 -70.7025 -70.7001 -70.6984
   -70.6971 -70.6969 -70.6960 -70.6938 -70.6927 -70.6891 -70.6867 -70.6853
   -70.1506 -70.1506 -70.1429 -70.1429 -70.1375 -70.1375 -70.1369 -70.1368
   -70.1357 -70.1356 -70.1350 -70.1349 -70.1295 -70.1294 -70.1217 -70.1217
   -36.5609 -36.5593 -36.5569 -36.5556 -36.5464 -36.5459 -36.5417 -36.5219
   -36.5210 -36.5204 -36.5137 -36.5106 -36.5007 -36.5005 -36.4646 -36.4579
   -36.4425 -36.4410 -36.4210 -36.4154 -36.4138 -36.4128 -36.4114 -36.4113
   -36.4087 -36.4054 -36.4046 -36.4020 -36.3964 -36.3950 -36.3911 -36.3847
   -36.3652 -36.3590 -36.3576 -36.3529 -36.3452 -36.3435 -36.3400 -36.3375
   -36.3336 -36.3320 -36.3213 -36.3186 -36.3109 -36.3016 -36.3014 -36.2928
   -36.0166 -36.0152 -36.0110 -36.0088 -36.0057 -36.0053 -35.9984 -35.9980
   -35.9729 -35.9721 -35.9684 -35.9678 -35.9597 -35.9585 -35.9529 -35.9521
   -35.8956 -35.8949 -35.8886 -35.8882 -35.8792 -35.8790 -35.8746 -35.8743
   -35.8482 -35.8481 -35.8406 -35.8404 -35.8355 -35.8355 -35.8289 -35.8289
   -35.7578 -35.7552 -35.7493 -35.7492 -35.7453 -35.7447 -35.7445 -35.7437
   -35.7436 -35.7433 -35.7430 -35.7427 -35.7392 -35.7392 -35.7340 -35.7339
     7.2778   8.3670   8.5421   8.7159   8.7331   8.7333   8.7647   8.7884
     8.8006   8.8653   8.9392   8.9562   8.9630   8.9633   9.1344   9.1725
     9.2958   9.3039   9.3239   9.3250   9.3561   9.3650   9.4474   9.5259
     9.5335   9.5954   9.6718   9.6788   9.6826   9.6936   9.6968   9.6988
     9.6997   9.7491   9.7589   9.7771   9.9238   9.9677   9.9788  10.0062
    10.0328  10.0608  10.1060  10.2062  10.2140  10.2223  10.2362  10.2635
    10.2835  10.3372  10.3717  10.4030  10.4111  10.5441  10.5516  10.5761
    10.5856  10.5876  10.6654  10.6700  10.6980  10.7600  10.7831  10.7906
    10.8516  10.9179  10.9415  10.9655  10.9688  10.9892  10.9909  10.9961
    11.0165  11.0663  11.0739  11.0964  11.1270  11.1306  11.1699  11.2108
    11.2330  11.2535  11.2593  11.3571  11.3829  11.4124  11.4250  11.4479
    11.4757  11.4767  11.5307  11.6046  11.6334  11.6595  11.7216  11.7637
    11.8084  11.8216  11.8594  11.8802  11.8901  11.9075  11.9227  11.9577
    11.9730  11.9958  11.9959  12.0498  12.0587  12.1030  12.1307  12.2220
    12.2585  12.2922  12.3234  12.3569  12.3647  12.3787  12.4318  12.4467
    12.4579  12.4960  12.5084  12.5333  12.5355  12.5489  12.5519  12.5916
    12.5962  12.6187  12.6801  12.6840  12.7489  12.7880  12.8294  12.8515
    12.8996  12.9005  12.9062  12.9091  12.9185  12.9540  12.9556  12.9806
    12.9972  13.0443  13.0657  13.0756  13.0782  13.1257  13.1336  13.1431
    13.1576  13.1771  13.2120  13.2686  13.2728  13.2995  13.3707  13.4111
    13.4194  13.4255  13.4413  13.5021  13.5211  13.7164  13.7687  13.7943
    14.1024  14.2130  14.2514  14.4403  14.5826  14.7401  14.9309  15.4066
    15.4921  15.7183  15.8731  15.9728  16.1191  16.6568  16.7032  17.0147
    17.2274  17.5128  17.8692  18.3955  18.6704  18.9094  18.9394  18.9729
    19.1426  19.2237  19.3407  19.4713  19.9744  20.4925  20.5600  20.6185
    20.6542  20.7220  20.8914  21.1907  21.6496  21.7276  21.8585  21.9493
    22.2600  22.4196  22.6948  22.8732  22.9304  23.3473  23.4102  23.8409
    23.9279  24.1576

          k = 0.0556 0.2778 0.1270 ( 43301 PWs)   bands (ev):

   -70.7307 -70.7189 -70.7098 -70.7059 -70.7051 -70.7025 -70.7001 -70.6984
   -70.6971 -70.6969 -70.6960 -70.6938 -70.6927 -70.6891 -70.6867 -70.6853
   -70.1506 -70.1506 -70.1429 -70.1429 -70.1375 -70.1375 -70.1369 -70.1368
   -70.1357 -70.1356 -70.1350 -70.1349 -70.1295 -70.1294 -70.1217 -70.1217
   -36.5609 -36.5593 -36.5569 -36.5556 -36.5464 -36.5460 -36.5417 -36.5220
   -36.5210 -36.5204 -36.5137 -36.5106 -36.5007 -36.5005 -36.4645 -36.4580
   -36.4425 -36.4411 -36.4210 -36.4154 -36.4138 -36.4128 -36.4114 -36.4114
   -36.4088 -36.4054 -36.4046 -36.4020 -36.3965 -36.3949 -36.3911 -36.3847
   -36.3652 -36.3590 -36.3576 -36.3530 -36.3452 -36.3435 -36.3399 -36.3375
   -36.3337 -36.3320 -36.3213 -36.3186 -36.3108 -36.3016 -36.3014 -36.2928
   -36.0167 -36.0152 -36.0110 -36.0088 -36.0057 -36.0053 -35.9984 -35.9981
   -35.9729 -35.9721 -35.9684 -35.9678 -35.9597 -35.9585 -35.9529 -35.9521
   -35.8956 -35.8949 -35.8886 -35.8882 -35.8792 -35.8790 -35.8746 -35.8743
   -35.8482 -35.8481 -35.8406 -35.8404 -35.8355 -35.8355 -35.8289 -35.8289
   -35.7577 -35.7552 -35.7494 -35.7492 -35.7452 -35.7446 -35.7445 -35.7437
   -35.7436 -35.7433 -35.7429 -35.7427 -35.7392 -35.7392 -35.7341 -35.7339
     7.2821   8.3698   8.5361   8.7165   8.7335   8.7339   8.7652   8.7891
     8.8013   8.8650   8.9264   8.9567   8.9633   8.9637   9.1344   9.1737
     9.2946   9.3019   9.3238   9.3244   9.3563   9.3713   9.4471   9.5259
     9.5327   9.5889   9.6704   9.6791   9.6815   9.6900   9.6967   9.6988
     9.7006   9.7461   9.7628   9.7734   9.9250   9.9677   9.9770  10.0063
    10.0303  10.0581  10.1058  10.2066  10.2130  10.2243  10.2345  10.2600
    10.2829  10.3381  10.3681  10.4018  10.4112  10.5445  10.5503  10.5823
    10.5874  10.5885  10.6650  10.6692  10.7016  10.7590  10.7838  10.7916
    10.8488  10.9180  10.9425  10.9701  10.9734  10.9887  10.9893  10.9952
    11.0222  11.0661  11.0741  11.1053  11.1263  11.1303  11.1686  11.2173
    11.2393  11.2659  11.2676  11.3545  11.4047  11.4210  11.4276  11.4472
    11.4757  11.4834  11.5293  11.6054  11.6092  11.6663  11.7242  11.7499
    11.8074  11.8222  11.8514  11.8576  11.8831  11.9094  11.9233  11.9547
    11.9733  11.9819  12.0071  12.0318  12.0690  12.1065  12.1340  12.2235
    12.2629  12.2925  12.3234  12.3483  12.3616  12.3931  12.4113  12.4326
    12.4430  12.4945  12.4977  12.5228  12.5366  12.5429  12.5517  12.5806
    12.5910  12.6476  12.7010  12.7280  12.7516  12.7936  12.8178  12.8839
    12.8966  12.9034  12.9110  12.9194  12.9212  12.9466  12.9554  12.9893
    12.9975  13.0613  13.0758  13.0774  13.0819  13.0991  13.1328  13.1516
    13.1571  13.1827  13.2023  13.2656  13.2708  13.3563  13.3696  13.4105
    13.4197  13.4256  13.4324  13.4413  13.5020  13.7168  13.7945  13.8031
    14.0223  14.2009  14.2272  14.5034  14.5818  14.7345  14.9043  15.5477
    15.6029  15.6156  15.6354  15.9653  16.1111  16.7290  16.9919  17.1763
    17.3619  17.3867  17.4587  18.4188  18.5198  18.8598  18.8921  19.0429
    19.0593  19.1806  19.1989  19.2992  20.2005  20.4796  20.6355  20.6558
    20.6966  20.9145  20.9603  21.2133  21.6645  21.6793  22.1387  22.2972
    22.3680  22.5610  22.7809  22.7829  22.8262  23.1138  23.5827  23.5889
    24.0727  24.1472

          k = 0.0556 0.2778 0.2116 ( 43319 PWs)   bands (ev):

   -70.7307 -70.7189 -70.7098 -70.7059 -70.7051 -70.7025 -70.7001 -70.6984
   -70.6971 -70.6969 -70.6960 -70.6938 -70.6927 -70.6891 -70.6867 -70.6853
   -70.1506 -70.1506 -70.1429 -70.1429 -70.1375 -70.1375 -70.1369 -70.1368
   -70.1357 -70.1356 -70.1350 -70.1349 -70.1295 -70.1294 -70.1217 -70.1217
   -36.5609 -36.5593 -36.5569 -36.5556 -36.5464 -36.5459 -36.5417 -36.5220
   -36.5211 -36.5205 -36.5137 -36.5106 -36.5007 -36.5005 -36.4646 -36.4580
   -36.4425 -36.4411 -36.4210 -36.4154 -36.4139 -36.4129 -36.4114 -36.4114
   -36.4087 -36.4054 -36.4046 -36.4020 -36.3965 -36.3949 -36.3911 -36.3847
   -36.3652 -36.3589 -36.3577 -36.3530 -36.3452 -36.3435 -36.3400 -36.3375
   -36.3337 -36.3320 -36.3213 -36.3186 -36.3108 -36.3016 -36.3014 -36.2928
   -36.0166 -36.0152 -36.0110 -36.0087 -36.0057 -36.0053 -35.9984 -35.9981
   -35.9729 -35.9722 -35.9685 -35.9678 -35.9597 -35.9585 -35.9529 -35.9521
   -35.8956 -35.8949 -35.8886 -35.8882 -35.8792 -35.8790 -35.8746 -35.8743
   -35.8482 -35.8481 -35.8406 -35.8404 -35.8355 -35.8354 -35.8289 -35.8289
   -35.7577 -35.7553 -35.7495 -35.7492 -35.7453 -35.7447 -35.7445 -35.7437
   -35.7436 -35.7433 -35.7429 -35.7427 -35.7392 -35.7392 -35.7341 -35.7340
     7.2889   8.3742   8.5264   8.7174   8.7341   8.7348   8.7660   8.7903
     8.8023   8.8642   8.9087   8.9575   8.9637   8.9644   9.1345   9.1756
     9.2929   9.2985   9.3235   9.3236   9.3566   9.3800   9.4467   9.5261
     9.5312   9.5798   9.6684   9.6796   9.6799   9.6861   9.6955   9.6969
     9.7031   9.7419   9.7674   9.7690   9.9266   9.9676   9.9741  10.0064
    10.0266  10.0541  10.1056  10.2072  10.2114  10.2272  10.2321  10.2549
    10.2822  10.3396  10.3625  10.4005  10.4108  10.5449  10.5486  10.5870
    10.5922  10.5927  10.6644  10.6681  10.7073  10.7575  10.7847  10.7930
    10.8443  10.9182  10.9439  10.9722  10.9849  10.9850  10.9895  10.9940
    11.0298  11.0657  11.0741  11.1192  11.1252  11.1300  11.1666  11.2273
    11.2499  11.2790  11.2878  11.3506  11.4331  11.4343  11.4400  11.4459
    11.4758  11.4937  11.5271  11.5660  11.6189  11.6790  11.7254  11.7257
    11.8055  11.8234  11.8235  11.8331  11.8780  11.9128  11.9245  11.9523
    11.9666  11.9743  12.0064  12.0170  12.0817  12.1065  12.1420  12.2260
    12.2727  12.2915  12.3210  12.3344  12.3350  12.3843  12.4090  12.4292
    12.4357  12.4812  12.4917  12.5038  12.5388  12.5417  12.5512  12.5669
    12.5917  12.6897  12.7259  12.7556  12.7611  12.8032  12.8316  12.8827
    12.9065  12.9139  12.9207  12.9222  12.9328  12.9407  12.9572  12.9992
    13.0045  13.0669  13.0763  13.0856  13.0912  13.1006  13.1308  13.1553
    13.1557  13.1860  13.1907  13.2628  13.2740  13.3148  13.3679  13.4093
    13.4206  13.4258  13.4367  13.4647  13.5136  13.7174  13.7948  13.8587
    13.9103  14.1758  14.2074  14.3926  14.7259  14.8030  14.8714  15.1294
    15.5184  15.7744  15.8139  16.1110  16.3341  16.7702  16.9125  16.9464
    17.3517  17.5779  17.6379  18.0466  18.4562  18.5843  18.7475  18.8736
    18.9396  19.0992  19.2472  19.7505  19.7583  20.5338  20.6966  20.8920
    20.9538  21.0388  21.2514  21.3732  21.5997  21.7710  22.4259  22.5406
    22.5712  22.6406  22.6851  22.7260  22.8526  23.0585  23.4280  23.6803
    23.7338  23.8435

          k = 0.0556 0.2778 0.2963 ( 43319 PWs)   bands (ev):

   -70.7307 -70.7189 -70.7098 -70.7059 -70.7051 -70.7025 -70.7001 -70.6984
   -70.6971 -70.6969 -70.6960 -70.6938 -70.6927 -70.6891 -70.6867 -70.6853
   -70.1506 -70.1506 -70.1429 -70.1429 -70.1375 -70.1375 -70.1369 -70.1368
   -70.1357 -70.1356 -70.1350 -70.1349 -70.1295 -70.1294 -70.1217 -70.1217
   -36.5609 -36.5593 -36.5568 -36.5556 -36.5464 -36.5459 -36.5416 -36.5220
   -36.5211 -36.5205 -36.5137 -36.5106 -36.5007 -36.5005 -36.4646 -36.4580
   -36.4425 -36.4411 -36.4210 -36.4153 -36.4139 -36.4128 -36.4114 -36.4114
   -36.4087 -36.4055 -36.4046 -36.4019 -36.3965 -36.3950 -36.3911 -36.3847
   -36.3652 -36.3589 -36.3576 -36.3530 -36.3452 -36.3435 -36.3400 -36.3375
   -36.3336 -36.3320 -36.3213 -36.3186 -36.3108 -36.3016 -36.3014 -36.2929
   -36.0167 -36.0152 -36.0110 -36.0087 -36.0057 -36.0053 -35.9985 -35.9981
   -35.9729 -35.9721 -35.9684 -35.9678 -35.9597 -35.9585 -35.9529 -35.9521
   -35.8955 -35.8949 -35.8886 -35.8882 -35.8792 -35.8790 -35.8746 -35.8744
   -35.8482 -35.8482 -35.8406 -35.8404 -35.8355 -35.8354 -35.8289 -35.8289
   -35.7578 -35.7554 -35.7494 -35.7492 -35.7453 -35.7447 -35.7445 -35.7437
   -35.7436 -35.7433 -35.7429 -35.7427 -35.7392 -35.7392 -35.7341 -35.7340
     7.2949   8.3781   8.5173   8.7182   8.7347   8.7357   8.7666   8.7914
     8.8031   8.8629   8.8954   8.9582   8.9642   8.9650   9.1346   9.1772
     9.2914   9.2954   9.3227   9.3234   9.3569   9.3867   9.4463   9.5262
     9.5295   9.5727   9.6666   9.6785   9.6800   9.6842   9.6911   9.6970
     9.7053   9.7385   9.7618   9.7745   9.9279   9.9674   9.9713  10.0064
    10.0234  10.0505  10.1054  10.2078  10.2101  10.2294  10.2300  10.2506
    10.2817  10.3410  10.3576  10.3998  10.4102  10.5453  10.5474  10.5867
    10.5962  10.6013  10.6639  10.6672  10.7125  10.7563  10.7854  10.7942
    10.8401  10.9183  10.9452  10.9740  10.9813  10.9897  10.9930  10.9945
    11.0356  11.0654  11.0738  11.1243  11.1297  11.1318  11.1648  11.2363
    11.2603  11.2897  11.3082  11.3473  11.4412  11.4446  11.4463  11.4742
    11.4761  11.5028  11.5250  11.5313  11.6334  11.6945  11.6974  11.7259
    11.7899  11.8055  11.8092  11.8246  11.8765  11.9167  11.9255  11.9521
    11.9583  11.9756  11.9845  12.0216  12.0905  12.1049  12.1501  12.2286
    12.2864  12.2896  12.3094  12.3173  12.3230  12.3602  12.3861  12.4220
    12.4663  12.4726  12.4874  12.4888  12.5385  12.5463  12.5507  12.5545
    12.5934  12.7398  12.7473  12.7593  12.7657  12.7876  12.8711  12.8897
    12.9083  12.9169  12.9209  12.9219  12.9454  12.9506  12.9578  13.0044
    13.0205  13.0374  13.0757  13.0988  13.1020  13.1285  13.1337  13.1531
    13.1568  13.1704  13.1971  13.2091  13.2619  13.2767  13.3664  13.4078
    13.4224  13.4260  13.4340  13.4914  13.6596  13.7178  13.7950  13.8158
    13.9110  14.1565  14.1948  14.3005  14.7185  14.7416  14.8480  15.0313
    15.4213  16.0081  16.0121  16.2537  16.5344  16.5634  16.8086  16.8875
    17.2205  17.6671  17.7987  17.9724  18.2148  18.4909  18.6549  18.8464
    18.8730  19.0060  19.2068  19.4052  20.2022  20.4433  20.7338  20.9915
    21.0989  21.2880  21.4853  21.5458  21.6531  21.9422  22.3484  22.4223
    22.4806  22.6797  22.7361  22.7459  23.0450  23.2129  23.4146  23.5508
    23.9820  24.1159

          k = 0.0556 0.2778-0.3810 ( 43316 PWs)   bands (ev):

   -70.7307 -70.7189 -70.7098 -70.7059 -70.7051 -70.7025 -70.7001 -70.6984
   -70.6971 -70.6969 -70.6960 -70.6938 -70.6927 -70.6891 -70.6867 -70.6853
   -70.1506 -70.1506 -70.1429 -70.1429 -70.1375 -70.1375 -70.1369 -70.1368
   -70.1357 -70.1356 -70.1350 -70.1349 -70.1295 -70.1294 -70.1217 -70.1217
   -36.5609 -36.5592 -36.5569 -36.5556 -36.5464 -36.5459 -36.5416 -36.5220
   -36.5210 -36.5205 -36.5137 -36.5106 -36.5007 -36.5005 -36.4646 -36.4580
   -36.4425 -36.4411 -36.4211 -36.4153 -36.4138 -36.4128 -36.4114 -36.4114
   -36.4088 -36.4055 -36.4046 -36.4020 -36.3965 -36.3950 -36.3911 -36.3846
   -36.3652 -36.3590 -36.3576 -36.3530 -36.3452 -36.3435 -36.3400 -36.3376
   -36.3336 -36.3320 -36.3213 -36.3186 -36.3108 -36.3016 -36.3014 -36.2929
   -36.0167 -36.0152 -36.0110 -36.0087 -36.0056 -36.0052 -35.9985 -35.9981
   -35.9729 -35.9721 -35.9684 -35.9678 -35.9597 -35.9585 -35.9529 -35.9521
   -35.8955 -35.8949 -35.8886 -35.8882 -35.8792 -35.8790 -35.8746 -35.8744
   -35.8482 -35.8482 -35.8406 -35.8404 -35.8355 -35.8354 -35.8289 -35.8289
   -35.7578 -35.7554 -35.7494 -35.7492 -35.7453 -35.7447 -35.7444 -35.7436
   -35.7436 -35.7433 -35.7429 -35.7427 -35.7392 -35.7392 -35.7341 -35.7339
     7.2973   8.3797   8.5135   8.7186   8.7349   8.7361   8.7668   8.7918
     8.8034   8.8621   8.8907   8.9585   8.9643   8.9652   9.1346   9.1779
     9.2908   9.2941   9.3224   9.3234   9.3570   9.3892   9.4462   9.5262
     9.5286   9.5701   9.6658   9.6779   9.6801   9.6843   9.6885   9.6971
     9.7061   9.7373   9.7595   9.7768   9.9284   9.9674   9.9701  10.0065
    10.0222  10.0492  10.1054  10.2080  10.2095  10.2293  10.2303  10.2489
    10.2815  10.3416  10.3556  10.3995  10.4098  10.5455  10.5470  10.5866
    10.5976  10.6050  10.6637  10.6668  10.7147  10.7559  10.7856  10.7946
    10.8384  10.9184  10.9457  10.9747  10.9797  10.9898  10.9927  10.9981
    11.0376  11.0653  11.0735  11.1240  11.1297  11.1369  11.1640  11.2398
    11.2647  11.2940  11.3167  11.3460  11.4441  11.4463  11.4510  11.4763
    11.4890  11.5064  11.5164  11.5242  11.6445  11.6809  11.7029  11.7258
    11.7763  11.7967  11.8047  11.8251  11.8763  11.9184  11.9260  11.9523
    11.9562  11.9759  11.9763  12.0228  12.0935  12.1041  12.1534  12.2297
    12.2885  12.2949  12.2992  12.3155  12.3182  12.3486  12.3764  12.4201
    12.4603  12.4809  12.4875  12.4880  12.5390  12.5481  12.5481  12.5505
    12.5943  12.7604  12.7604  12.7659  12.7671  12.7762  12.8667  12.9087
    12.9127  12.9162  12.9207  12.9224  12.9535  12.9547  12.9554  13.0143
    13.0184  13.0280  13.0755  13.1015  13.1071  13.1275  13.1496  13.1508
    13.1571  13.1631  13.1645  13.1995  13.2616  13.2777  13.3659  13.4072
    13.4236  13.4260  13.4329  13.4920  13.7180  13.7665  13.7784  13.7951
    13.9327  14.1505  14.1897  14.2646  14.5628  14.7157  14.8398  15.1433
    15.3836  16.1032  16.1204  16.3186  16.3727  16.6730  16.8244  16.8550
    17.1527  17.5068  17.9033  18.0589  18.0978  18.5051  18.6194  18.8131
    18.8881  18.9525  19.1917  19.2572  20.3908  20.4082  20.7497  21.0074
    21.1980  21.3043  21.5697  21.6514  21.7154  22.0572  22.2169  22.3003
    22.4426  22.5810  22.8210  22.9011  23.0168  23.2907  23.3416  23.9561
    24.0920  24.1112

          k = 0.0556 0.3889 0.0423 ( 43313 PWs)   bands (ev):

   -70.7285 -70.7225 -70.7090 -70.7066 -70.7052 -70.7036 -70.6994 -70.6973
   -70.6959 -70.6957 -70.6947 -70.6944 -70.6935 -70.6888 -70.6879 -70.6860
   -70.1492 -70.1492 -70.1453 -70.1453 -70.1374 -70.1373 -70.1371 -70.1370
   -70.1355 -70.1354 -70.1351 -70.1351 -70.1271 -70.1270 -70.1231 -70.1231
   -36.5526 -36.5512 -36.5471 -36.5468 -36.5389 -36.5378 -36.5376 -36.5309
   -36.5285 -36.5276 -36.5271 -36.5212 -36.5181 -36.5145 -36.4659 -36.4621
   -36.4353 -36.4300 -36.4225 -36.4170 -36.4145 -36.4142 -36.4131 -36.4121
   -36.4106 -36.4066 -36.4008 -36.3972 -36.3912 -36.3894 -36.3870 -36.3822
   -36.3737 -36.3678 -36.3441 -36.3410 -36.3401 -36.3388 -36.3384 -36.3333
   -36.3312 -36.3270 -36.3255 -36.3196 -36.3183 -36.3122 -36.3069 -36.2997
   -36.0095 -36.0078 -36.0016 -35.9996 -35.9992 -35.9989 -35.9898 -35.9891
   -35.9873 -35.9860 -35.9807 -35.9799 -35.9755 -35.9737 -35.9667 -35.9658
   -35.8816 -35.8809 -35.8726 -35.8723 -35.8666 -35.8664 -35.8600 -35.8597
   -35.8575 -35.8572 -35.8470 -35.8470 -35.8456 -35.8455 -35.8367 -35.8366
   -35.7559 -35.7542 -35.7515 -35.7512 -35.7452 -35.7449 -35.7443 -35.7438
   -35.7437 -35.7434 -35.7428 -35.7426 -35.7376 -35.7375 -35.7350 -35.7348
     7.4791   8.0391   8.6923   8.7958   8.8166   8.8511   8.8542   8.8762
     8.8997   8.9282   8.9829   9.0272   9.0440   9.0660   9.0721   9.0790
     9.0879   9.1220   9.1600   9.1672   9.2294   9.2865   9.3291   9.4231
     9.5018   9.6341   9.6807   9.6855   9.6948   9.7141   9.7201   9.7375
     9.7844   9.7889   9.8013   9.8056   9.8201   9.9275   9.9840   9.9865
    10.0041  10.0474  10.0840  10.0951  10.1201  10.1472  10.1777  10.1950
    10.1960  10.2373  10.4081  10.4679  10.5387  10.5720  10.5866  10.6005
    10.6292  10.6692  10.7386  10.7530  10.7567  10.7754  10.7792  10.7973
    10.8962  10.9132  10.9565  10.9776  10.9780  11.0056  11.0159  11.0189
    11.0189  11.0225  11.0365  11.0849  11.0895  11.1635  11.1695  11.1788
    11.1906  11.2010  11.2592  11.2699  11.2842  11.3315  11.3488  11.3921
    11.4258  11.4306  11.6501  11.6697  11.6915  11.6994  11.7458  11.7739
    11.8194  11.8426  11.8582  11.8964  11.9389  11.9395  11.9548  11.9683
    11.9823  11.9983  12.0238  12.0320  12.1883  12.2006  12.2110  12.2603
    12.2625  12.2651  12.3525  12.3656  12.3772  12.4008  12.4176  12.4187
    12.4457  12.4786  12.4896  12.5096  12.5971  12.5990  12.6609  12.6867
    12.7089  12.7336  12.7406  12.7822  12.7900  12.7964  12.8193  12.8240
    12.8362  12.8477  12.8772  12.8990  12.9312  12.9582  12.9859  13.0086
    13.0177  13.0268  13.0569  13.0770  13.0779  13.0785  13.0917  13.1374
    13.1696  13.1758  13.1901  13.2114  13.2169  13.2699  13.3285  13.3534
    13.3975  13.4473  13.4560  13.4937  13.5093  13.5958  13.6407  13.8322
    14.0319  14.0931  14.1348  14.3247  14.4259  14.6241  14.7951  15.4228
    15.4719  15.9450  15.9821  15.9951  16.4433  16.5033  17.0856  17.3860
    17.7695  17.9683  18.0862  18.1151  18.1959  18.9304  18.9788  19.2546
    19.3534  19.4620  19.5537  19.6432  19.6499  19.9678  20.0383  20.2006
    20.3498  20.3948  21.1441  21.2596  21.6230  21.7857  21.8371  22.0155
    22.0459  22.1636  22.1646  22.3875  22.5926  22.6710  23.0883  23.1426
    23.6457  23.8217

          k = 0.0556 0.3889 0.1270 ( 43323 PWs)   bands (ev):

   -70.7285 -70.7225 -70.7090 -70.7066 -70.7052 -70.7036 -70.6994 -70.6973
   -70.6959 -70.6957 -70.6947 -70.6944 -70.6935 -70.6888 -70.6879 -70.6860
   -70.1492 -70.1492 -70.1453 -70.1453 -70.1374 -70.1373 -70.1371 -70.1370
   -70.1355 -70.1354 -70.1351 -70.1351 -70.1271 -70.1270 -70.1231 -70.1231
   -36.5525 -36.5511 -36.5471 -36.5468 -36.5390 -36.5379 -36.5376 -36.5309
   -36.5284 -36.5277 -36.5271 -36.5212 -36.5181 -36.5145 -36.4659 -36.4621
   -36.4354 -36.4300 -36.4225 -36.4170 -36.4145 -36.4142 -36.4131 -36.4120
   -36.4106 -36.4066 -36.4009 -36.3972 -36.3912 -36.3894 -36.3870 -36.3822
   -36.3737 -36.3677 -36.3441 -36.3410 -36.3401 -36.3387 -36.3384 -36.3334
   -36.3312 -36.3269 -36.3255 -36.3196 -36.3183 -36.3122 -36.3069 -36.2996
   -36.0095 -36.0077 -36.0016 -35.9996 -35.9992 -35.9989 -35.9898 -35.9891
   -35.9873 -35.9860 -35.9807 -35.9799 -35.9755 -35.9737 -35.9667 -35.9658
   -35.8816 -35.8809 -35.8726 -35.8723 -35.8667 -35.8665 -35.8599 -35.8597
   -35.8575 -35.8572 -35.8470 -35.8469 -35.8456 -35.8455 -35.8367 -35.8366
   -35.7560 -35.7542 -35.7516 -35.7512 -35.7452 -35.7449 -35.7442 -35.7438
   -35.7436 -35.7434 -35.7427 -35.7427 -35.7376 -35.7375 -35.7350 -35.7348
     7.4832   8.0424   8.6872   8.7961   8.8173   8.8514   8.8544   8.8766
     8.9001   8.9280   8.9826   9.0276   9.0443   9.0666   9.0670   9.0719
     9.0848   9.1214   9.1600   9.1669   9.2298   9.2865   9.3290   9.4132
     9.5066   9.6351   9.6823   9.6850   9.6982   9.7124   9.7203   9.7358
     9.7829   9.7904   9.8012   9.8046   9.8168   9.9256   9.9806   9.9860
    10.0065  10.0453  10.0825  10.0927  10.1194  10.1437  10.1761  10.1924
    10.1959  10.2376  10.4096  10.4670  10.5404  10.5713  10.5879  10.6035
    10.6291  10.6705  10.7446  10.7536  10.7562  10.7773  10.7916  10.7999
    10.8965  10.9119  10.9657  10.9786  10.9791  11.0150  11.0173  11.0177
    11.0186  11.0233  11.0386  11.0855  11.0911  11.1713  11.1735  11.1940
    11.2010  11.2057  11.2621  11.2720  11.2830  11.3407  11.3489  11.3916
    11.4302  11.4313  11.6481  11.6710  11.6753  11.7020  11.7482  11.7728
    11.8090  11.8410  11.8579  11.8965  11.9367  11.9388  11.9411  11.9517
    11.9689  11.9733  12.0238  12.0369  12.1575  12.1737  12.1889  12.2396
    12.2641  12.2708  12.3477  12.3669  12.3743  12.4117  12.4125  12.4421
    12.4531  12.4802  12.4821  12.5016  12.5901  12.6188  12.6611  12.6843
    12.7349  12.7419  12.7561  12.7747  12.7802  12.7821  12.8364  12.8384
    12.8558  12.8590  12.8971  12.9097  12.9341  12.9669  12.9924  13.0120
    13.0169  13.0289  13.0563  13.0594  13.0774  13.0783  13.0921  13.1240
    13.1540  13.1738  13.1886  13.2112  13.2132  13.2449  13.2702  13.3530
    13.4465  13.4545  13.4729  13.5095  13.5345  13.5977  13.6409  13.8287
    14.0203  14.0864  14.1739  14.3223  14.4566  14.5522  14.7485  15.5650
    15.6087  15.9718  15.9951  16.1008  16.1324  16.3610  16.8963  17.6056
    17.7302  18.0051  18.0743  18.1014  18.5592  18.6382  18.9534  18.9564
    19.2669  19.2699  19.4887  19.7413  19.7727  19.8824  20.2232  20.3068
    20.5166  20.6418  20.8652  21.0642  21.7357  21.8297  21.9818  22.1267
    22.1333  22.2055  22.2924  22.3833  22.8017  22.8222  23.1718  23.3116
    23.8972  23.9428

          k = 0.0556 0.3889 0.2116 ( 43344 PWs)   bands (ev):

   -70.7285 -70.7225 -70.7090 -70.7066 -70.7052 -70.7036 -70.6994 -70.6973
   -70.6959 -70.6957 -70.6947 -70.6944 -70.6935 -70.6888 -70.6879 -70.6860
   -70.1492 -70.1492 -70.1453 -70.1453 -70.1374 -70.1373 -70.1371 -70.1370
   -70.1355 -70.1354 -70.1351 -70.1351 -70.1271 -70.1270 -70.1231 -70.1231
   -36.5525 -36.5511 -36.5471 -36.5467 -36.5390 -36.5379 -36.5376 -36.5309
   -36.5285 -36.5278 -36.5271 -36.5211 -36.5181 -36.5145 -36.4659 -36.4621
   -36.4354 -36.4300 -36.4225 -36.4170 -36.4145 -36.4141 -36.4131 -36.4120
   -36.4106 -36.4067 -36.4008 -36.3973 -36.3912 -36.3894 -36.3870 -36.3822
   -36.3737 -36.3677 -36.3441 -36.3411 -36.3401 -36.3388 -36.3384 -36.3335
   -36.3312 -36.3270 -36.3255 -36.3196 -36.3183 -36.3123 -36.3069 -36.2996
   -36.0094 -36.0077 -36.0016 -35.9996 -35.9992 -35.9989 -35.9898 -35.9892
   -35.9873 -35.9860 -35.9806 -35.9799 -35.9755 -35.9737 -35.9667 -35.9658
   -35.8816 -35.8810 -35.8726 -35.8723 -35.8667 -35.8666 -35.8599 -35.8597
   -35.8575 -35.8572 -35.8470 -35.8469 -35.8456 -35.8455 -35.8367 -35.8366
   -35.7560 -35.7543 -35.7516 -35.7513 -35.7452 -35.7450 -35.7443 -35.7438
   -35.7436 -35.7435 -35.7428 -35.7427 -35.7376 -35.7375 -35.7351 -35.7349
     7.4896   8.0477   8.6788   8.7965   8.8183   8.8519   8.8547   8.8774
     8.9006   8.9277   8.9820   9.0283   9.0448   9.0494   9.0686   9.0716
     9.0798   9.1203   9.1599   9.1664   9.2303   9.2864   9.3289   9.3991
     9.5130   9.6366   9.6848   9.6850   9.7037   9.7089   9.7205   9.7335
     9.7806   9.7924   9.8009   9.8031   9.8115   9.9225   9.9754   9.9852
    10.0099  10.0422  10.0803  10.0891  10.1183  10.1383  10.1736  10.1883
    10.1958  10.2380  10.4120  10.4657  10.5428  10.5703  10.5902  10.6084
    10.6289  10.6723  10.7539  10.7544  10.7555  10.7800  10.8036  10.8111
    10.8971  10.9099  10.9785  10.9809  10.9819  11.0135  11.0163  11.0185
    11.0226  11.0374  11.0417  11.0863  11.0936  11.1750  11.1881  11.1994
    11.2130  11.2360  11.2676  11.2756  11.2810  11.3490  11.3550  11.3908
    11.4294  11.4398  11.6368  11.6576  11.6747  11.7071  11.7505  11.7713
    11.7883  11.8361  11.8575  11.8950  11.9148  11.9333  11.9376  11.9376
    11.9466  11.9529  12.0245  12.0376  12.1050  12.1517  12.1559  12.2054
    12.2641  12.2778  12.3405  12.3683  12.3707  12.4020  12.4024  12.4352
    12.4661  12.4875  12.4907  12.5354  12.5863  12.6458  12.6612  12.6869
    12.7354  12.7446  12.7577  12.7663  12.7818  12.8199  12.8251  12.8359
    12.8885  12.9131  12.9292  12.9296  12.9379  12.9792  13.0004  13.0143
    13.0162  13.0312  13.0321  13.0561  13.0745  13.0782  13.0926  13.1037
    13.1360  13.1419  13.1776  13.1829  13.2036  13.2170  13.2706  13.3524
    13.4451  13.4519  13.4804  13.5098  13.6016  13.6411  13.7112  13.8233
    13.9201  14.0246  14.3185  14.3922  14.4529  14.5060  14.6877  15.5232
    15.7946  15.8297  16.0148  16.2454  16.2912  16.3544  16.4231  17.6474
    17.8474  17.8910  18.0826  18.0979  18.3153  18.5566  18.9904  19.1298
    19.1452  19.1616  19.4152  19.7508  19.8789  19.9807  20.2548  20.3672
    20.4463  20.7460  20.8788  20.9501  21.8345  21.9236  22.0042  22.1302
    22.2102  22.3481  22.5154  22.7459  23.0660  23.3529  23.3632  23.5379
    23.5709  23.7692

[...]
    13.8522  13.8522  13.8522  13.8522  16.6572  16.6572  16.6572  16.6572
    16.6572  16.6572  16.6572  16.6572  17.6403  17.6403  17.6403  17.6403
    17.8793  17.8793  17.8793  17.8793  17.8793  17.8793  17.8793  17.8793
    18.5568  18.5568  18.5568  18.5568  19.6436  19.6436  19.6436  19.6436
    19.6436  19.6436  19.6436  19.6436  21.9850  21.9850  21.9850  21.9850
    22.9531  22.9531  22.9531  22.9531  22.9531  22.9531  22.9531  22.9531
    23.8154  23.8154

          k =-0.5000-0.5000 0.1270 ( 43332 PWs)   bands (ev):

   -70.7201 -70.7201 -70.7201 -70.7200 -70.6973 -70.6973 -70.6973 -70.6973
   -70.6925 -70.6925 -70.6924 -70.6924 -70.6924 -70.6924 -70.6924 -70.6924
   -70.1442 -70.1442 -70.1442 -70.1442 -70.1442 -70.1442 -70.1442 -70.1442
   -70.1282 -70.1282 -70.1282 -70.1282 -70.1282 -70.1282 -70.1282 -70.1282
   -36.5457 -36.5457 -36.5456 -36.5456 -36.5456 -36.5456 -36.5456 -36.5456
   -36.5307 -36.5307 -36.5306 -36.5306 -36.4814 -36.4814 -36.4814 -36.4814
   -36.4197 -36.4197 -36.4197 -36.4197 -36.4197 -36.4197 -36.4197 -36.4197
   -36.3806 -36.3806 -36.3806 -36.3806 -36.3789 -36.3789 -36.3788 -36.3788
   -36.3788 -36.3788 -36.3788 -36.3788 -36.3558 -36.3558 -36.3557 -36.3557
   -36.3377 -36.3377 -36.3377 -36.3377 -36.2880 -36.2880 -36.2880 -36.2880
   -36.0157 -36.0157 -36.0157 -36.0157 -36.0157 -36.0157 -36.0157 -36.0157
   -35.9322 -35.9322 -35.9322 -35.9322 -35.9297 -35.9297 -35.9297 -35.9297
   -35.9174 -35.9174 -35.9174 -35.9174 -35.9174 -35.9174 -35.9174 -35.9174
   -35.8290 -35.8290 -35.8290 -35.8290 -35.8288 -35.8288 -35.8288 -35.8288
   -35.7506 -35.7506 -35.7506 -35.7506 -35.7500 -35.7500 -35.7500 -35.7500
   -35.7384 -35.7384 -35.7383 -35.7383 -35.7383 -35.7383 -35.7383 -35.7383
     8.1997   8.1997   8.1997   8.1997   8.8248   8.8248   8.8248   8.8248
     9.1571   9.1571   9.1571   9.1571   9.1571   9.1571   9.1571   9.1571
     9.2756   9.2756   9.2756   9.2756   9.3252   9.3252   9.3252   9.3252
     9.3252   9.3252   9.3252   9.3252   9.4144   9.4144   9.4144   9.4144
     9.7107   9.7107   9.7107   9.7107  10.0273  10.0273  10.0273  10.0273
    10.0273  10.0273  10.0273  10.0273  10.3329  10.3329  10.3329  10.3329
    10.3329  10.3329  10.3329  10.3329  10.4936  10.4936  10.4936  10.4936
    10.7168  10.7168  10.7168  10.7168  10.9649  10.9649  10.9649  10.9649
    11.0676  11.0676  11.0676  11.0676  11.1071  11.1071  11.1071  11.1071
    11.1491  11.1491  11.1492  11.1492  11.2963  11.2963  11.2963  11.2963
    11.2963  11.2963  11.2963  11.2963  11.3407  11.3407  11.3407  11.3407
    11.6186  11.6186  11.6186  11.6186  11.7227  11.7227  11.7227  11.7227
    11.8729  11.8729  11.8729  11.8729  11.8729  11.8729  11.8729  11.8729
    11.9035  11.9036  11.9036  11.9036  11.9036  11.9036  11.9036  11.9036
    11.9579  11.9579  11.9579  11.9579  12.1806  12.1806  12.1806  12.1806
    12.4432  12.4432  12.4432  12.4432  12.5009  12.5009  12.5009  12.5009
    12.5009  12.5009  12.5009  12.5009  12.7235  12.7235  12.7235  12.7235
    12.7477  12.7477  12.7477  12.7477  12.9508  12.9508  12.9508  12.9508
    13.0753  13.0753  13.0753  13.0753  13.0753  13.0753  13.0753  13.0753
    13.3652  13.3652  13.3652  13.3652  13.4258  13.4258  13.4259  13.4259
    13.4259  13.4259  13.4259  13.4259  13.4375  13.4375  13.4375  13.4375
    14.0339  14.0339  14.0339  14.0339  16.6701  16.6701  16.6701  16.6701
    16.6701  16.6701  16.6701  16.6701  17.1577  17.1577  17.1577  17.1577
    17.8368  17.8368  17.8368  17.8368  17.8368  17.8368  17.8368  17.8368
    19.0688  19.0688  19.0688  19.0688  19.7223  19.7223  19.7223  19.7223
    19.7223  19.7223  19.7223  19.7223  22.0074  22.0074  22.0074  22.0074
    22.6413  22.6413  22.6413  22.6413  22.6413  22.6413  22.6413  22.6413
    23.6864  23.6864

          k =-0.5000-0.5000 0.2116 ( 43328 PWs)   bands (ev):

   -70.7201 -70.7201 -70.7201 -70.7200 -70.6973 -70.6973 -70.6973 -70.6973
   -70.6925 -70.6925 -70.6924 -70.6924 -70.6924 -70.6924 -70.6924 -70.6924
   -70.1442 -70.1442 -70.1442 -70.1442 -70.1442 -70.1442 -70.1442 -70.1442
   -70.1282 -70.1282 -70.1282 -70.1282 -70.1282 -70.1282 -70.1282 -70.1282
   -36.5456 -36.5456 -36.5456 -36.5456 -36.5456 -36.5456 -36.5456 -36.5456
   -36.5307 -36.5307 -36.5307 -36.5307 -36.4815 -36.4815 -36.4815 -36.4815
   -36.4197 -36.4197 -36.4197 -36.4197 -36.4197 -36.4197 -36.4196 -36.4196
   -36.3807 -36.3807 -36.3807 -36.3807 -36.3788 -36.3788 -36.3788 -36.3788
   -36.3788 -36.3788 -36.3788 -36.3788 -36.3558 -36.3558 -36.3558 -36.3558
   -36.3377 -36.3377 -36.3377 -36.3377 -36.2881 -36.2881 -36.2880 -36.2880
   -36.0157 -36.0157 -36.0157 -36.0157 -36.0156 -36.0156 -36.0156 -36.0156
   -35.9322 -35.9322 -35.9322 -35.9322 -35.9297 -35.9297 -35.9297 -35.9297
   -35.9174 -35.9174 -35.9174 -35.9174 -35.9174 -35.9174 -35.9174 -35.9174
   -35.8290 -35.8290 -35.8290 -35.8290 -35.8289 -35.8289 -35.8288 -35.8288
   -35.7507 -35.7507 -35.7507 -35.7507 -35.7500 -35.7500 -35.7500 -35.7500
   -35.7383 -35.7382 -35.7382 -35.7382 -35.7382 -35.7382 -35.7382 -35.7382
     8.2021   8.2021   8.2021   8.2021   8.8213   8.8213   8.8214   8.8214
     9.1570   9.1570   9.1570   9.1570   9.1570   9.1570   9.1570   9.1570
     9.2686   9.2686   9.2686   9.2686   9.3244   9.3244   9.3244   9.3244
     9.3244   9.3244   9.3244   9.3244   9.4238   9.4238   9.4238   9.4238
     9.7086   9.7086   9.7086   9.7086  10.0308  10.0308  10.0308  10.0308
    10.0309  10.0309  10.0309  10.0309  10.3309  10.3309  10.3309  10.3309
    10.3309  10.3309  10.3309  10.3309  10.4964  10.4964  10.4964  10.4964
    10.7166  10.7166  10.7167  10.7167  10.9650  10.9650  10.9650  10.9650
    11.0620  11.0620  11.0620  11.0620  11.1070  11.1070  11.1071  11.1071
    11.1671  11.1671  11.1671  11.1671  11.2961  11.2961  11.2961  11.2961
    11.2961  11.2961  11.2961  11.2961  11.3405  11.3405  11.3405  11.3405
    11.6081  11.6081  11.6081  11.6081  11.7357  11.7357  11.7357  11.7357
    11.8758  11.8758  11.8758  11.8758  11.8758  11.8758  11.8758  11.8758
    11.9100  11.9100  11.9100  11.9100  11.9100  11.9100  11.9100  11.9100
    11.9586  11.9586  11.9586  11.9586  12.1806  12.1806  12.1806  12.1806
    12.4331  12.4331  12.4331  12.4331  12.4722  12.4722  12.4722  12.4722
    12.4722  12.4722  12.4722  12.4722  12.6106  12.6106  12.6106  12.6106
    12.7479  12.7479  12.7479  12.7479  12.9490  12.9490  12.9490  12.9490
    13.0932  13.0932  13.0933  13.0933  13.0933  13.0933  13.0933  13.0933
    13.3663  13.3663  13.3663  13.3663  13.4286  13.4286  13.4286  13.4286
    13.4286  13.4286  13.4286  13.4286  13.4374  13.4374  13.4374  13.4374
    14.3100  14.3100  14.3100  14.3100  16.6590  16.6590  16.6590  16.6590
    16.6909  16.6909  16.6909  16.6909  16.6909  16.6909  16.6909  16.6909
    17.7739  17.7739  17.7739  17.7739  17.7739  17.7739  17.7739  17.7739
    19.6119  19.6120  19.6120  19.6120  19.8487  19.8487  19.8487  19.8487
    19.8487  19.8487  19.8487  19.8487  22.0446  22.0446  22.0446  22.0446
    22.3008  22.3008  22.3008  22.3008  22.3008  22.3008  22.3008  22.3008
    23.5257  23.5257

          k =-0.5000-0.5000 0.2963 ( 43284 PWs)   bands (ev):

   -70.7201 -70.7201 -70.7201 -70.7200 -70.6973 -70.6973 -70.6973 -70.6973
   -70.6925 -70.6925 -70.6924 -70.6924 -70.6924 -70.6924 -70.6924 -70.6924
   -70.1442 -70.1442 -70.1442 -70.1442 -70.1442 -70.1442 -70.1442 -70.1442
   -70.1282 -70.1282 -70.1282 -70.1282 -70.1282 -70.1282 -70.1282 -70.1282
   -36.5457 -36.5457 -36.5456 -36.5456 -36.5456 -36.5456 -36.5456 -36.5456
   -36.5307 -36.5307 -36.5307 -36.5307 -36.4815 -36.4815 -36.4814 -36.4814
   -36.4197 -36.4197 -36.4197 -36.4197 -36.4197 -36.4197 -36.4197 -36.4197
   -36.3806 -36.3806 -36.3806 -36.3806 -36.3788 -36.3788 -36.3788 -36.3788
   -36.3788 -36.3788 -36.3788 -36.3788 -36.3558 -36.3558 -36.3558 -36.3558
   -36.3377 -36.3376 -36.3376 -36.3376 -36.2880 -36.2880 -36.2879 -36.2879
   -36.0157 -36.0157 -36.0157 -36.0157 -36.0157 -36.0157 -36.0156 -36.0156
   -35.9322 -35.9322 -35.9322 -35.9322 -35.9297 -35.9297 -35.9296 -35.9296
   -35.9174 -35.9174 -35.9174 -35.9174 -35.9174 -35.9174 -35.9174 -35.9174
   -35.8289 -35.8289 -35.8289 -35.8289 -35.8288 -35.8288 -35.8288 -35.8288
   -35.7507 -35.7507 -35.7507 -35.7507 -35.7500 -35.7500 -35.7499 -35.7499
   -35.7383 -35.7383 -35.7383 -35.7383 -35.7383 -35.7382 -35.7382 -35.7382
     8.2043   8.2043   8.2043   8.2043   8.8183   8.8183   8.8183   8.8183
     9.1569   9.1569   9.1569   9.1569   9.1569   9.1569   9.1569   9.1569
     9.2631   9.2631   9.2631   9.2631   9.3236   9.3236   9.3236   9.3236
     9.3236   9.3236   9.3236   9.3236   9.4314   9.4314   9.4314   9.4314
     9.7067   9.7067   9.7067   9.7067  10.0340  10.0340  10.0340  10.0340
    10.0340  10.0340  10.0340  10.0340  10.3291  10.3291  10.3291  10.3291
    10.3291  10.3291  10.3291  10.3291  10.4989  10.4989  10.4989  10.4989
    10.7165  10.7165  10.7166  10.7166  10.9652  10.9652  10.9652  10.9652
    11.0583  11.0583  11.0583  11.0583  11.1071  11.1071  11.1071  11.1071
    11.1826  11.1826  11.1827  11.1827  11.2959  11.2959  11.2959  11.2959
    11.2959  11.2959  11.2960  11.2960  11.3403  11.3403  11.3403  11.3403
    11.5983  11.5983  11.5983  11.5983  11.7483  11.7483  11.7483  11.7483
    11.8776  11.8777  11.8777  11.8777  11.8777  11.8777  11.8777  11.8777
    11.9167  11.9167  11.9167  11.9168  11.9168  11.9168  11.9168  11.9168
    11.9593  11.9593  11.9593  11.9593  12.1806  12.1806  12.1806  12.1806
    12.4129  12.4129  12.4129  12.4129  12.4475  12.4475  12.4475  12.4475
    12.4475  12.4475  12.4475  12.4475  12.5391  12.5391  12.5391  12.5391
    12.7482  12.7482  12.7482  12.7482  12.9474  12.9474  12.9474  12.9474
    13.1078  13.1078  13.1078  13.1078  13.1078  13.1078  13.1078  13.1078
    13.3674  13.3674  13.3674  13.3674  13.4311  13.4311  13.4311  13.4311
    13.4311  13.4311  13.4312  13.4312  13.4373  13.4373  13.4374  13.4374
    14.5892  14.5892  14.5892  14.5892  16.2502  16.2502  16.2502  16.2502
    16.7107  16.7107  16.7107  16.7107  16.7107  16.7107  16.7107  16.7107
    17.7198  17.7198  17.7198  17.7198  17.7198  17.7198  17.7198  17.7198
    19.9698  19.9698  19.9698  19.9698  19.9698  19.9698  19.9698  19.9698
    20.0496  20.0496  20.0496  20.0496  22.0473  22.0473  22.0473  22.0473
    22.0473  22.0473  22.0473  22.0473  22.0808  22.0808  22.0808  22.0808
    23.4041  23.4041

          k =-0.5000-0.5000-0.3810 ( 43232 PWs)   bands (ev):

   -70.7201 -70.7201 -70.7201 -70.7200 -70.6973 -70.6973 -70.6973 -70.6973
   -70.6925 -70.6925 -70.6924 -70.6924 -70.6924 -70.6924 -70.6924 -70.6924
   -70.1442 -70.1442 -70.1442 -70.1442 -70.1442 -70.1442 -70.1442 -70.1442
   -70.1282 -70.1282 -70.1282 -70.1282 -70.1282 -70.1282 -70.1282 -70.1282
   -36.5457 -36.5457 -36.5457 -36.5457 -36.5457 -36.5457 -36.5456 -36.5456
   -36.5307 -36.5307 -36.5306 -36.5306 -36.4814 -36.4814 -36.4814 -36.4814
   -36.4197 -36.4197 -36.4197 -36.4197 -36.4197 -36.4197 -36.4197 -36.4197
   -36.3806 -36.3806 -36.3806 -36.3806 -36.3788 -36.3788 -36.3788 -36.3788
   -36.3788 -36.3788 -36.3788 -36.3788 -36.3557 -36.3557 -36.3557 -36.3557
   -36.3376 -36.3376 -36.3376 -36.3376 -36.2879 -36.2879 -36.2879 -36.2879
   -36.0157 -36.0157 -36.0157 -36.0157 -36.0157 -36.0157 -36.0156 -36.0156
   -35.9321 -35.9321 -35.9321 -35.9321 -35.9296 -35.9296 -35.9296 -35.9296
   -35.9174 -35.9174 -35.9174 -35.9174 -35.9174 -35.9174 -35.9174 -35.9174
   -35.8289 -35.8289 -35.8289 -35.8289 -35.8287 -35.8287 -35.8287 -35.8287
   -35.7506 -35.7506 -35.7506 -35.7506 -35.7499 -35.7499 -35.7499 -35.7499
   -35.7383 -35.7383 -35.7383 -35.7383 -35.7382 -35.7382 -35.7382 -35.7382
     8.2051   8.2051   8.2052   8.2052   8.8170   8.8170   8.8171   8.8171
     9.1568   9.1568   9.1568   9.1568   9.1568   9.1568   9.1569   9.1569
     9.2611   9.2611   9.2611   9.2611   9.3233   9.3233   9.3233   9.3233
     9.3233   9.3233   9.3234   9.3234   9.4343   9.4343   9.4343   9.4343
     9.7060   9.7060   9.7060   9.7060  10.0352  10.0352  10.0352  10.0352
    10.0352  10.0352  10.0352  10.0352  10.3283  10.3283  10.3283  10.3283
    10.3284  10.3284  10.3284  10.3284  10.4999  10.4999  10.4999  10.5000
    10.7165  10.7165  10.7165  10.7165  10.9653  10.9653  10.9653  10.9653
    11.0570  11.0570  11.0570  11.0570  11.1071  11.1071  11.1071  11.1071
    11.1889  11.1889  11.1889  11.1889  11.2959  11.2959  11.2959  11.2959
    11.2959  11.2959  11.2959  11.2959  11.3402  11.3402  11.3402  11.3402
    11.5943  11.5943  11.5943  11.5943  11.7536  11.7536  11.7536  11.7536
    11.8783  11.8783  11.8783  11.8783  11.8783  11.8783  11.8783  11.8783
    11.9197  11.9197  11.9197  11.9197  11.9197  11.9197  11.9197  11.9197
    11.9596  11.9596  11.9596  11.9596  12.1807  12.1807  12.1807  12.1807
    12.3994  12.3994  12.3994  12.3994  12.4379  12.4379  12.4379  12.4379
    12.4379  12.4379  12.4379  12.4379  12.5192  12.5192  12.5192  12.5192
    12.7483  12.7483  12.7483  12.7483  12.9468  12.9468  12.9468  12.9468
    13.1132  13.1132  13.1132  13.1132  13.1132  13.1132  13.1132  13.1133
    13.3678  13.3678  13.3678  13.3678  13.4322  13.4322  13.4322  13.4322
    13.4322  13.4322  13.4322  13.4322  13.4373  13.4373  13.4373  13.4373
    14.7253  14.7253  14.7253  14.7253  16.0715  16.0715  16.0715  16.0715
    16.7189  16.7189  16.7189  16.7189  16.7189  16.7189  16.7189  16.7189
    17.6986  17.6986  17.6986  17.6986  17.6986  17.6986  17.6986  17.6986
    20.0215  20.0215  20.0215  20.0215  20.0215  20.0215  20.0215  20.0215
    20.2287  20.2287  20.2287  20.2287  21.9515  21.9515  21.9515  21.9515
    21.9515  21.9515  21.9515  21.9515  22.0963  22.0963  22.0963  22.0963
    23.3574  23.4266

     the Fermi energy is    13.4407 ev

!    total energy              =  -16384.08873116 Ry

     total all-electron energy =   -322944.942438 Ry
     estimated scf accuracy    <       0.00000027 Ry
     smearing contrib. (-TS)   =       0.12109250 Ry
     internal energy E=F+TS    =  -16384.20982365 Ry

     The total energy is F=E-TS. E is the sum of the following terms:
     one-electron contribution =   -6508.64939113 Ry
     hartree contribution      =    3553.44798363 Ry
     xc contribution           =    -985.31819537 Ry
     ewald contribution        =   -4276.36107493 Ry
     one-center paw contrib.   =   -8167.32914585 Ry

     convergence has been achieved in  22 iterations

     Forces acting on atoms (cartesian axes, Ry/au):

     atom    1 type  1   force =     0.00000000    0.00000000    0.00359037
     atom    2 type  1   force =    -0.00000188   -0.00000188    0.00357891
     atom    3 type  1   force =     0.00000421    0.00000000    0.00032535
     atom    4 type  1   force =     0.00000000    0.00000421    0.00032535
     atom    5 type  1   force =     0.00000000    0.00000000   -0.00036898
     atom    6 type  1   force =     0.00001206    0.00001206   -0.00035912
     atom    7 type  1   force =     0.00001192    0.00000000   -0.00353640
     atom    8 type  1   force =     0.00000000    0.00001192   -0.00353640
     atom    9 type  1   force =     0.00000000    0.00000000    0.00358098
     atom   10 type  1   force =    -0.00000188    0.00000188    0.00357891
     atom   11 type  1   force =    -0.00001763    0.00000000    0.00032816
     atom   12 type  1   force =     0.00000000   -0.00000421    0.00032535
     atom   13 type  1   force =     0.00000000    0.00000000   -0.00036916
     atom   14 type  1   force =     0.00001206   -0.00001206   -0.00035912
     atom   15 type  1   force =    -0.00000092    0.00000000   -0.00354839
     atom   16 type  1   force =     0.00000000   -0.00001192   -0.00353640
     atom   17 type  1   force =     0.00000000    0.00000000    0.00358098
     atom   18 type  1   force =     0.00000188   -0.00000188    0.00357891
     atom   19 type  1   force =    -0.00000421    0.00000000    0.00032535
     atom   20 type  1   force =     0.00000000   -0.00001763    0.00032816
     atom   21 type  1   force =     0.00000000    0.00000000   -0.00036916
     atom   22 type  1   force =    -0.00001206    0.00001206   -0.00035912
     atom   23 type  1   force =    -0.00001192    0.00000000   -0.00353640
     atom   24 type  1   force =     0.00000000   -0.00000092   -0.00354839
     atom   25 type  1   force =     0.00000000    0.00000000    0.00357051
     atom   26 type  1   force =     0.00000188    0.00000188    0.00357891
     atom   27 type  1   force =     0.00001763    0.00000000    0.00032816
     atom   28 type  1   force =     0.00000000    0.00001763    0.00032816
     atom   29 type  1   force =     0.00000000    0.00000000   -0.00036960
     atom   30 type  1   force =    -0.00001206   -0.00001206   -0.00035912
     atom   31 type  1   force =     0.00000092    0.00000000   -0.00354839
     atom   32 type  1   force =     0.00000000    0.00000092   -0.00354839

     Total force =     0.014312     Total SCF correction =     0.001822
     SCF correction compared to forces is large: reduce conv_thr to get better values


     Computing stress (Cartesian axis) and pressure

          total   stress  (Ry/bohr**3)                   (kbar)     P=      -45.77
  -0.00035857   0.00000000   0.00000000          -52.75        0.00        0.00
   0.00000000  -0.00035857   0.00000000            0.00      -52.75        0.00
   0.00000000   0.00000000  -0.00021622            0.00        0.00      -31.81


     Writing output data file /scratch/hLbbnCgRoIXmKqWz.save/
 
     init_run     :     26.20s CPU     26.85s WALL (       1 calls)
     electrons    :   1866.00s CPU   1886.87s WALL (       1 calls)
     forces       :     13.92s CPU     14.03s WALL (       1 calls)
     stress       :    122.93s CPU    123.90s WALL (       1 calls)

     Called by init_run:
     wfcinit      :     25.64s CPU     26.22s WALL (       1 calls)
     potinit      :      0.17s CPU      0.19s WALL (       1 calls)
     hinit0       :      0.13s CPU      0.13s WALL (       1 calls)

     Called by electrons:
     c_bands      :   1646.73s CPU   1663.32s WALL (      23 calls)
     sum_band     :    216.22s CPU    219.99s WALL (      23 calls)
     v_of_rho     :      0.37s CPU      0.39s WALL (      23 calls)
     newd         :      0.67s CPU      0.99s WALL (      23 calls)
     PAW_pot      :      1.89s CPU      2.01s WALL (      23 calls)
     mix_rho      :      0.13s CPU      0.16s WALL (      23 calls)

     Called by c_bands:
     init_us_2    :     11.11s CPU     11.24s WALL (    3675 calls)
     cegterg      :   1609.05s CPU   1624.65s WALL (    1725 calls)

     Called by *egterg:
     cdiaghg      :    168.08s CPU    168.91s WALL (    6560 calls)
     h_psi        :    827.21s CPU    838.34s WALL (    6710 calls)
     s_psi        :     82.20s CPU     82.71s WALL (    6710 calls)
     g_psi        :      2.35s CPU      2.39s WALL (    4910 calls)

     Called by h_psi:
     h_psi:calbec :    131.89s CPU    132.82s WALL (    6710 calls)
     vloc_psi     :    606.65s CPU    616.05s WALL (    6710 calls)
     add_vuspsi   :     82.22s CPU     82.93s WALL (    6710 calls)

     General routines
     calbec       :    219.37s CPU    220.86s WALL (    8810 calls)
     fft          :      0.38s CPU      0.40s WALL (     323 calls)
     ffts         :      0.05s CPU      0.05s WALL (      46 calls)
     fftw         :    721.21s CPU    732.23s WALL ( 3221156 calls)
     interpolate  :      0.06s CPU      0.06s WALL (      23 calls)
 
     Parallel routines
     fft_scatt_xy :     55.99s CPU     56.89s WALL ( 3221525 calls)
     fft_scatt_yz :    566.01s CPU    574.71s WALL ( 3221525 calls)
 
     PWSCF        :  34m 8.29s CPU  34m36.06s WALL

 
   This run was terminated on:   0:50:32   7Jan2022            

=------------------------------------------------------------------------------=
   JOB DONE.
=------------------------------------------------------------------------------=
