
     Program PWSCF v.6.7MaX starts on 25Nov2021 at 16:15:13 

     This program is part of the open-source Quantum ESPRESSO suite
     for quantum simulation of materials; please cite
         "P. Giannozzi et al., J. Phys.:Condens. Matter 21 395502 (2009);
         "P. Giannozzi et al., J. Phys.:Condens. Matter 29 465901 (2017);
          URL http://www.quantum-espresso.org", 
     in publications or presentations arising from this work. More details at
     http://www.quantum-espresso.org/quote

     Parallel version (MPI & OpenMP), running on      72 processor cores
     Number of MPI processes:                72
     Threads/MPI process:                     1

     MPI processes distributed on     1 nodes
     R & G space division:  proc/nbgrp/npool/nimage =      72
     Reading input from scf_3.in
Warning: card &CELL ignored
Warning: card CELL_DYNAMICS = 'BFGS', ignored
Warning: card CELL_FACTOR = 2.0, ignored
Warning: card PRESS = 0.0, ignored
Warning: card / ignored

     Current dimensions of program PWSCF are:
     Max number of different atomic species (ntypx) = 10
     Max number of k-points (npk) =  40000
     Max angular momentum in pseudopotentials (lmaxx) =  3
     file Ru.pbe-spn-kjpaw_psl.1.0.0.UPF: wavefunction(s)  4D renormalized

     Subspace diagonalization in iterative solution of the eigenvalue problem:
     one sub-group per band group will be used
     ELPA distributed-memory algorithm (size of sub-group:  8*  8 procs)

     Found symmetry operation: I + (  0.2500  0.2500  0.0000)
     This is a supercell, fractional translations are disabled
     Message from routine setup:
     using ibrav=0 with symmetry is DISCOURAGED, use correct ibrav instead
 
     Parallelization info
     --------------------
     sticks:   dense  smooth     PW     G-vecs:    dense   smooth      PW
     Min          98      65     17                 6868     3686     521
     Max          99      67     18                 6873     3691     526
     Sum        7113    4693   1281               494673   265601   37677
 


     bravais-lattice index     =            0
     lattice parameter (alat)  =      14.4007  a.u.
     unit-cell volume          =    3285.0899 (a.u.)^3
     number of atoms/cell      =           32
     number of atomic types    =            1
     number of electrons       =       512.00
     number of Kohn-Sham states=          307
     kinetic-energy cutoff     =      71.0000  Ry
     charge density cutoff     =     430.0000  Ry
     scf convergence threshold =      1.0E-06
     mixing beta               =       0.1000
     number of iterations used =           10  TF        mixing
     Exchange-correlation= SLA  PW   PBX  PBC
                           (   1   4   3   4   0   0   0)

     celldm(1)=  14.400742  celldm(2)=   0.000000  celldm(3)=   0.000000
     celldm(4)=   0.000000  celldm(5)=   0.000000  celldm(6)=   0.000000

     crystal axes: (cart. coord. in units of alat)
               a(1) = (   1.000000   0.000000   0.000000 )  
               a(2) = (   0.000000   1.000000   0.000000 )  
               a(3) = (   0.000000   0.000000   1.100000 )  

     reciprocal axes: (cart. coord. in units 2 pi/alat)
               b(1) = (  1.000000  0.000000  0.000000 )  
               b(2) = (  0.000000  1.000000  0.000000 )  
               b(3) = (  0.000000  0.000000  0.909091 )  


     PseudoPot. # 1 for Ru read from file:
     /rds/homes/b/bxp912/pp/Ru.pbe-spn-kjpaw_psl.1.0.0.UPF
     MD5 check sum: 0ae1f594dea09af7be8575c3a481d1ae
     Pseudo is Projector augmented-wave + core cor, Zval = 16.0
     Generated using "atomic" code by A. Dal Corso  v.5.1
     Shape of augmentation charge: PSQ
     Using radial grid of 1233 points,  6 beta functions with: 
                l(1) =   0
                l(2) =   0
                l(3) =   1
                l(4) =   1
                l(5) =   2
                l(6) =   2
     Q(r) pseudized with 0 coefficients 


     atomic species   valence    mass     pseudopotential
        Ru            16.00   101.07000     Ru( 1.00)

      8 Sym. Ops. (no inversion) found



   Cartesian axes

     site n.     atom                  positions (alat units)
         1           Ru  tau(   1) = (   0.0000000   0.0000000   0.0000000  )
         2           Ru  tau(   2) = (   0.2500000   0.2500000   0.0000000  )
         3           Ru  tau(   3) = (   0.2500000   0.0000000   0.2500000  )
         4           Ru  tau(   4) = (   0.0000000   0.2500000   0.2500000  )
         5           Ru  tau(   5) = (   0.0000000   0.0000000   0.6000000  )
         6           Ru  tau(   6) = (   0.2500000   0.2500000   0.6000000  )
         7           Ru  tau(   7) = (   0.2500000   0.0000000   0.8500000  )
         8           Ru  tau(   8) = (   0.0000000   0.2500000   0.8500000  )
         9           Ru  tau(   9) = (   0.0000000   0.5000000   0.0000000  )
        10           Ru  tau(  10) = (   0.2500000   0.7500000   0.0000000  )
        11           Ru  tau(  11) = (   0.2500000   0.5000000   0.2500000  )
        12           Ru  tau(  12) = (   0.0000000   0.7500000   0.2500000  )
        13           Ru  tau(  13) = (   0.0000000   0.5000000   0.6000000  )
        14           Ru  tau(  14) = (   0.2500000   0.7500000   0.6000000  )
        15           Ru  tau(  15) = (   0.2500000   0.5000000   0.8500000  )
        16           Ru  tau(  16) = (   0.0000000   0.7500000   0.8500000  )
        17           Ru  tau(  17) = (   0.5000000   0.0000000   0.0000000  )
        18           Ru  tau(  18) = (   0.7500000   0.2500000   0.0000000  )
        19           Ru  tau(  19) = (   0.7500000   0.0000000   0.2500000  )
        20           Ru  tau(  20) = (   0.5000000   0.2500000   0.2500000  )
        21           Ru  tau(  21) = (   0.5000000   0.0000000   0.6000000  )
        22           Ru  tau(  22) = (   0.7500000   0.2500000   0.6000000  )
        23           Ru  tau(  23) = (   0.7500000   0.0000000   0.8500000  )
        24           Ru  tau(  24) = (   0.5000000   0.2500000   0.8500000  )
        25           Ru  tau(  25) = (   0.5000000   0.5000000   0.0000000  )
        26           Ru  tau(  26) = (   0.7500000   0.7500000   0.0000000  )
        27           Ru  tau(  27) = (   0.7500000   0.5000000   0.2500000  )
        28           Ru  tau(  28) = (   0.5000000   0.7500000   0.2500000  )
        29           Ru  tau(  29) = (   0.5000000   0.5000000   0.6000000  )
        30           Ru  tau(  30) = (   0.7500000   0.7500000   0.6000000  )
        31           Ru  tau(  31) = (   0.7500000   0.5000000   0.8500000  )
        32           Ru  tau(  32) = (   0.5000000   0.7500000   0.8500000  )

     number of k points=    75  Marzari-Vanderbilt smearing, width (Ry)=  0.0400
                       cart. coord. in units 2pi/alat
        k(    1) = (   0.0555556   0.0555556   0.0505051), wk =   0.0219479
        k(    2) = (   0.0555556   0.0555556   0.1515152), wk =   0.0219479
        k(    3) = (   0.0555556   0.0555556   0.2525253), wk =   0.0219479
        k(    4) = (   0.0555556   0.0555556   0.3535354), wk =   0.0219479
        k(    5) = (   0.0555556   0.0555556  -0.4545455), wk =   0.0109739
        k(    6) = (   0.0555556   0.1666667   0.0505051), wk =   0.0438957
        k(    7) = (   0.0555556   0.1666667   0.1515152), wk =   0.0438957
        k(    8) = (   0.0555556   0.1666667   0.2525253), wk =   0.0438957
        k(    9) = (   0.0555556   0.1666667   0.3535354), wk =   0.0438957
        k(   10) = (   0.0555556   0.1666667  -0.4545455), wk =   0.0219479
        k(   11) = (   0.0555556   0.2777778   0.0505051), wk =   0.0438957
        k(   12) = (   0.0555556   0.2777778   0.1515152), wk =   0.0438957
        k(   13) = (   0.0555556   0.2777778   0.2525253), wk =   0.0438957
        k(   14) = (   0.0555556   0.2777778   0.3535354), wk =   0.0438957
        k(   15) = (   0.0555556   0.2777778  -0.4545455), wk =   0.0219479
        k(   16) = (   0.0555556   0.3888889   0.0505051), wk =   0.0438957
        k(   17) = (   0.0555556   0.3888889   0.1515152), wk =   0.0438957
        k(   18) = (   0.0555556   0.3888889   0.2525253), wk =   0.0438957
        k(   19) = (   0.0555556   0.3888889   0.3535354), wk =   0.0438957
        k(   20) = (   0.0555556   0.3888889  -0.4545455), wk =   0.0219479
        k(   21) = (   0.0555556  -0.5000000   0.0505051), wk =   0.0219479
        k(   22) = (   0.0555556  -0.5000000   0.1515152), wk =   0.0219479
        k(   23) = (   0.0555556  -0.5000000   0.2525253), wk =   0.0219479
        k(   24) = (   0.0555556  -0.5000000   0.3535354), wk =   0.0219479
        k(   25) = (   0.0555556  -0.5000000  -0.4545455), wk =   0.0109739
        k(   26) = (   0.1666667   0.1666667   0.0505051), wk =   0.0219479
        k(   27) = (   0.1666667   0.1666667   0.1515152), wk =   0.0219479
        k(   28) = (   0.1666667   0.1666667   0.2525253), wk =   0.0219479
        k(   29) = (   0.1666667   0.1666667   0.3535354), wk =   0.0219479
        k(   30) = (   0.1666667   0.1666667  -0.4545455), wk =   0.0109739
        k(   31) = (   0.1666667   0.2777778   0.0505051), wk =   0.0438957
        k(   32) = (   0.1666667   0.2777778   0.1515152), wk =   0.0438957
        k(   33) = (   0.1666667   0.2777778   0.2525253), wk =   0.0438957
        k(   34) = (   0.1666667   0.2777778   0.3535354), wk =   0.0438957
        k(   35) = (   0.1666667   0.2777778  -0.4545455), wk =   0.0219479
        k(   36) = (   0.1666667   0.3888889   0.0505051), wk =   0.0438957
        k(   37) = (   0.1666667   0.3888889   0.1515152), wk =   0.0438957
        k(   38) = (   0.1666667   0.3888889   0.2525253), wk =   0.0438957
        k(   39) = (   0.1666667   0.3888889   0.3535354), wk =   0.0438957
        k(   40) = (   0.1666667   0.3888889  -0.4545455), wk =   0.0219479
        k(   41) = (   0.1666667  -0.5000000   0.0505051), wk =   0.0219479
        k(   42) = (   0.1666667  -0.5000000   0.1515152), wk =   0.0219479
        k(   43) = (   0.1666667  -0.5000000   0.2525253), wk =   0.0219479
        k(   44) = (   0.1666667  -0.5000000   0.3535354), wk =   0.0219479
        k(   45) = (   0.1666667  -0.5000000  -0.4545455), wk =   0.0109739
        k(   46) = (   0.2777778   0.2777778   0.0505051), wk =   0.0219479
        k(   47) = (   0.2777778   0.2777778   0.1515152), wk =   0.0219479
        k(   48) = (   0.2777778   0.2777778   0.2525253), wk =   0.0219479
        k(   49) = (   0.2777778   0.2777778   0.3535354), wk =   0.0219479
        k(   50) = (   0.2777778   0.2777778  -0.4545455), wk =   0.0109739
        k(   51) = (   0.2777778   0.3888889   0.0505051), wk =   0.0438957
        k(   52) = (   0.2777778   0.3888889   0.1515152), wk =   0.0438957
        k(   53) = (   0.2777778   0.3888889   0.2525253), wk =   0.0438957
        k(   54) = (   0.2777778   0.3888889   0.3535354), wk =   0.0438957
        k(   55) = (   0.2777778   0.3888889  -0.4545455), wk =   0.0219479
        k(   56) = (   0.2777778  -0.5000000   0.0505051), wk =   0.0219479
        k(   57) = (   0.2777778  -0.5000000   0.1515152), wk =   0.0219479
        k(   58) = (   0.2777778  -0.5000000   0.2525253), wk =   0.0219479
        k(   59) = (   0.2777778  -0.5000000   0.3535354), wk =   0.0219479
        k(   60) = (   0.2777778  -0.5000000  -0.4545455), wk =   0.0109739
        k(   61) = (   0.3888889   0.3888889   0.0505051), wk =   0.0219479
        k(   62) = (   0.3888889   0.3888889   0.1515152), wk =   0.0219479
        k(   63) = (   0.3888889   0.3888889   0.2525253), wk =   0.0219479
        k(   64) = (   0.3888889   0.3888889   0.3535354), wk =   0.0219479
        k(   65) = (   0.3888889   0.3888889  -0.4545455), wk =   0.0109739
        k(   66) = (   0.3888889  -0.5000000   0.0505051), wk =   0.0219479
        k(   67) = (   0.3888889  -0.5000000   0.1515152), wk =   0.0219479
        k(   68) = (   0.3888889  -0.5000000   0.2525253), wk =   0.0219479
        k(   69) = (   0.3888889  -0.5000000   0.3535354), wk =   0.0219479
        k(   70) = (   0.3888889  -0.5000000  -0.4545455), wk =   0.0109739
        k(   71) = (  -0.5000000  -0.5000000   0.0505051), wk =   0.0054870
        k(   72) = (  -0.5000000  -0.5000000   0.1515152), wk =   0.0054870
        k(   73) = (  -0.5000000  -0.5000000   0.2525253), wk =   0.0054870
        k(   74) = (  -0.5000000  -0.5000000   0.3535354), wk =   0.0054870
        k(   75) = (  -0.5000000  -0.5000000  -0.4545455), wk =   0.0027435

     Dense  grid:   494673 G-vectors     FFT dimensions: (  96,  96, 108)

     Smooth grid:   265601 G-vectors     FFT dimensions: (  80,  80,  90)

     Estimated max dynamical RAM per process >     203.54 MB

     Estimated total dynamical RAM >      14.31 GB

     Check: negative core charge=   -0.000002

     Initial potential from superposition of free atoms

     starting charge  511.97959, renormalised to  512.00000
     Starting wfcs are  320 randomized atomic wfcs
     Checking if some PAW data can be deallocated... 

     total cpu time spent up to now is       31.4 secs

     Self-consistent Calculation

     iteration #  1     ecut=    71.00 Ry     beta= 0.10
     Davidson diagonalization with overlap
     ethr =  1.00E-02,  avg # of iterations =  3.5

     Threshold (ethr) on eigenvalues was too large:
     Diagonalizing with lowered threshold

     Davidson diagonalization with overlap
     ethr =  8.09E-04,  avg # of iterations =  3.5

     total cpu time spent up to now is      199.8 secs

     total energy              =  -13812.96065686 Ry
     estimated scf accuracy    <       4.39896405 Ry

     iteration #  2     ecut=    71.00 Ry     beta= 0.10
     Davidson diagonalization with overlap
     ethr =  8.59E-04,  avg # of iterations =  1.1

     total cpu time spent up to now is      264.9 secs

     total energy              =  -13812.79021155 Ry
     estimated scf accuracy    <       2.47943915 Ry

     iteration #  3     ecut=    71.00 Ry     beta= 0.10
     Davidson diagonalization with overlap
     ethr =  4.84E-04,  avg # of iterations =  1.1

     total cpu time spent up to now is      319.9 secs

     total energy              =  -13812.68999312 Ry
     estimated scf accuracy    <       0.59353165 Ry

     iteration #  4     ecut=    71.00 Ry     beta= 0.10
     Davidson diagonalization with overlap
     ethr =  1.16E-04,  avg # of iterations =  3.1

     total cpu time spent up to now is      398.8 secs

     total energy              =  -13812.67842896 Ry
     estimated scf accuracy    <       0.27354923 Ry

     iteration #  5     ecut=    71.00 Ry     beta= 0.10
     Davidson diagonalization with overlap
     ethr =  5.34E-05,  avg # of iterations =  3.7

     total cpu time spent up to now is      488.1 secs

     total energy              =  -13812.65043663 Ry
     estimated scf accuracy    <       0.34844039 Ry

     iteration #  6     ecut=    71.00 Ry     beta= 0.10
     Davidson diagonalization with overlap
     ethr =  5.34E-05,  avg # of iterations =  2.0

     total cpu time spent up to now is      569.4 secs

     total energy              =  -13812.68855551 Ry
     estimated scf accuracy    <       0.00431950 Ry

     iteration #  7     ecut=    71.00 Ry     beta= 0.10
     Davidson diagonalization with overlap
     ethr =  8.44E-07,  avg # of iterations =  6.5

     total cpu time spent up to now is      665.8 secs

     total energy              =  -13812.68922961 Ry
     estimated scf accuracy    <       0.00504330 Ry

     iteration #  8     ecut=    71.00 Ry     beta= 0.10
     Davidson diagonalization with overlap
     ethr =  8.44E-07,  avg # of iterations =  1.0

     total cpu time spent up to now is      726.7 secs

     total energy              =  -13812.68780784 Ry
     estimated scf accuracy    <       0.00432408 Ry

     iteration #  9     ecut=    71.00 Ry     beta= 0.10
     Davidson diagonalization with overlap
     ethr =  8.44E-07,  avg # of iterations =  2.1

     total cpu time spent up to now is      806.3 secs

     total energy              =  -13812.68850093 Ry
     estimated scf accuracy    <       0.00073559 Ry

     iteration # 10     ecut=    71.00 Ry     beta= 0.10
     Davidson diagonalization with overlap
     ethr =  1.44E-07,  avg # of iterations =  2.0

     total cpu time spent up to now is      885.4 secs

     total energy              =  -13812.68854800 Ry
     estimated scf accuracy    <       0.00010185 Ry

     iteration # 11     ecut=    71.00 Ry     beta= 0.10
     Davidson diagonalization with overlap
     ethr =  1.99E-08,  avg # of iterations =  3.0

     total cpu time spent up to now is      987.5 secs

     total energy              =  -13812.68857454 Ry
     estimated scf accuracy    <       0.00004003 Ry

     iteration # 12     ecut=    71.00 Ry     beta= 0.10
     Davidson diagonalization with overlap
     ethr =  7.82E-09,  avg # of iterations =  2.1

     total cpu time spent up to now is     1057.4 secs

     total energy              =  -13812.68857074 Ry
     estimated scf accuracy    <       0.00001884 Ry

     iteration # 13     ecut=    71.00 Ry     beta= 0.10
     Davidson diagonalization with overlap
     ethr =  3.68E-09,  avg # of iterations =  3.2

     total cpu time spent up to now is     1152.5 secs

     total energy              =  -13812.68857317 Ry
     estimated scf accuracy    <       0.00001804 Ry

     iteration # 14     ecut=    71.00 Ry     beta= 0.10
     Davidson diagonalization with overlap
     ethr =  3.52E-09,  avg # of iterations =  2.1

     total cpu time spent up to now is     1226.9 secs

     End of self-consistent calculation

          k = 0.0556 0.0556 0.0505 ( 33242 PWs)   bands (ev):

   -52.4444 -52.3622 -52.3622 -52.3468 -52.3468 -52.3387 -52.3287 -52.3229
   -52.3229 -52.3189 -52.3024 -52.3024 -52.2963 -52.2963 -52.2687 -52.2687
   -52.1351 -52.1228 -52.0904 -52.0904 -52.0872 -52.0866 -52.0862 -52.0861
   -52.0855 -52.0855 -52.0815 -52.0815 -52.0776 -52.0776 -52.0327 -52.0327
   -22.7781 -22.7780 -22.7780 -22.7736 -22.7363 -22.7363 -22.6896 -22.5675
   -22.5675 -22.5612 -22.5612 -22.5259 -22.5259 -22.5057 -22.5057 -22.5004
   -22.5004 -22.4757 -22.4757 -22.4729 -22.4729 -22.4708 -22.4695 -22.4345
   -22.4345 -22.3907 -22.3907 -22.3627 -22.3627 -22.3359 -22.2819 -22.2819
   -22.2726 -22.2726 -22.2399 -22.2399 -22.2389 -22.2389 -22.1890 -22.1874
   -22.1873 -22.1873 -22.1750 -22.1750 -22.1628 -22.1628 -22.1377 -22.1148
   -22.1148 -22.0892 -22.0859 -22.0859 -22.0593 -22.0593 -22.0593 -22.0593
   -22.0563 -22.0354 -22.0299 -22.0299 -22.0243 -22.0220 -22.0220 -22.0193
   -22.0058 -22.0053 -22.0053 -21.9913 -21.9913 -21.9814 -21.9814 -21.9714
   -21.9714 -21.9694 -21.9694 -21.9498 -21.9434 -21.9434 -21.9366 -21.9306
   -21.9306 -21.9113 -21.9113 -21.9082 -21.9082 -21.8971 -21.8971 -21.8488
   -21.8164 -21.8158 -21.7913 -21.7913 -21.7894 -21.7882 -21.7872 -21.7851
    13.2321  14.6893  14.7683  14.7683  15.0145  15.0336  15.0346  15.0346
    15.1160  15.2468  15.2468  15.2890  15.4496  15.4496  15.4723  15.6343
    15.6343  16.0115  16.0115  16.0698  16.1539  16.1539  16.1752  16.1752
    16.3612  16.3612  16.5092  16.5092  16.5164  16.5495  16.5628  16.5628
    16.6933  16.6933  16.7117  16.7118  16.7327  16.7327  16.7829  16.7829
    16.9141  16.9810  16.9810  17.0590  17.0590  17.1626  17.1626  17.1935
    17.1935  17.3672  17.3672  17.4292  17.4465  17.4465  17.5080  17.5080
    17.5427  17.5427  17.5638  17.5827  17.5827  17.5870  17.5870  17.7537
    17.7537  17.7720  17.7720  17.7942  17.8075  17.8575  18.0024  18.0024
    18.0285  18.0285  18.0318  18.1055  18.1485  18.2752  18.2752  18.2959
    18.3029  18.3133  18.3133  18.3950  18.4128  18.4531  18.4531  18.6674
    18.6674  19.1075  19.1075  19.2044  19.2044  19.2811  19.2811  19.3886
    19.4002  19.4077  19.4077  19.4267  19.4267  19.5353  19.5481  19.5481
    19.6001  19.6001  19.6202  19.6202  19.6902  19.7158  19.7525  19.7525
    19.8724  19.8724  19.9391  19.9391  20.0029  20.0029  20.1508  20.2199
    20.2199  20.2924  20.2925  20.4069  20.4069  20.4617  20.4617  20.6209
    20.6401  20.6401  20.6995  20.7124  20.7597  20.7597  20.7770  20.8160
    20.8160  20.8828  20.8828  20.9595  21.0388  21.0388  21.1565  21.2311
    21.2311  21.2356  21.4717  21.7223  21.8728  21.8728  21.9147  21.9147
    21.9528  21.9785  21.9785  21.9944  22.0866  22.1126  22.1780  22.3186
    22.3186  22.3303  22.3303  22.4089  22.4258  22.4513  22.4513  22.6656
    22.6656  22.9274  22.9274  23.4771  23.4773  23.4773  23.9196  23.9196
    23.9730  23.9730  24.0575

          k = 0.0556 0.0556 0.1515 ( 33185 PWs)   bands (ev):

   -52.4443 -52.3622 -52.3622 -52.3468 -52.3468 -52.3388 -52.3287 -52.3229
   -52.3229 -52.3189 -52.3024 -52.3024 -52.2963 -52.2963 -52.2687 -52.2687
   -52.1343 -52.1235 -52.0902 -52.0902 -52.0872 -52.0865 -52.0862 -52.0861
   -52.0857 -52.0856 -52.0813 -52.0813 -52.0777 -52.0777 -52.0327 -52.0327
   -22.7774 -22.7771 -22.7771 -22.7725 -22.7359 -22.7359 -22.6876 -22.5677
   -22.5677 -22.5612 -22.5611 -22.5258 -22.5258 -22.5059 -22.5059 -22.5020
   -22.5020 -22.4757 -22.4757 -22.4752 -22.4752 -22.4747 -22.4712 -22.4341
   -22.4341 -22.3911 -22.3911 -22.3619 -22.3619 -22.3440 -22.2829 -22.2829
   -22.2701 -22.2701 -22.2409 -22.2408 -22.2376 -22.2376 -22.1900 -22.1900
   -22.1889 -22.1872 -22.1776 -22.1776 -22.1643 -22.1643 -22.1329 -22.1106
   -22.1106 -22.0854 -22.0796 -22.0796 -22.0564 -22.0564 -22.0547 -22.0547
   -22.0494 -22.0353 -22.0299 -22.0299 -22.0247 -22.0197 -22.0197 -22.0193
   -22.0075 -22.0075 -22.0000 -21.9955 -21.9955 -21.9814 -21.9813 -21.9777
   -21.9777 -21.9708 -21.9708 -21.9534 -21.9458 -21.9458 -21.9377 -21.9311
   -21.9311 -21.9104 -21.9104 -21.9069 -21.9069 -21.8955 -21.8955 -21.8553
   -21.8151 -21.8139 -21.7913 -21.7913 -21.7908 -21.7882 -21.7871 -21.7866
    13.2865  14.6834  14.7917  14.7917  15.0353  15.0598  15.0612  15.0612
    15.0653  15.1241  15.2732  15.2732  15.4801  15.4801  15.5671  15.6648
    15.6648  15.9655  15.9655  16.0339  16.1649  16.1649  16.1914  16.1914
    16.3672  16.3672  16.3757  16.4365  16.4365  16.4540  16.4668  16.4668
    16.6821  16.6821  16.6903  16.6903  16.7220  16.7220  16.8347  16.8347
    16.8371  16.8371  16.9655  17.0538  17.0538  17.1468  17.1468  17.1773
    17.1773  17.2950  17.2950  17.3915  17.4448  17.4448  17.4819  17.4819
    17.5020  17.5020  17.5331  17.5331  17.5455  17.5455  17.6209  17.8189
    17.8319  17.8319  17.8325  17.8516  17.8516  17.8671  18.0724  18.0724
    18.1380  18.1380  18.1519  18.2557  18.2696  18.3040  18.3159  18.3429
    18.3429  18.4191  18.4292  18.4440  18.4440  18.4994  18.4994  18.6621
    18.6621  18.9778  18.9778  19.0641  19.0641  19.2647  19.2647  19.3451
    19.3739  19.3898  19.3898  19.4686  19.4686  19.5356  19.5356  19.6093
    19.6229  19.6792  19.6792  19.6862  19.7155  19.7155  19.7867  19.7867
    19.8703  19.8703  19.9650  19.9650  20.0365  20.0365  20.1250  20.2037
    20.2037  20.3694  20.3694  20.3851  20.3851  20.4870  20.4870  20.6231
    20.7399  20.7400  20.7538  20.7538  20.7711  20.8086  20.8095  20.8350
    20.8350  20.9101  20.9846  20.9846  21.0067  21.0109  21.0109  21.0174
    21.1539  21.1539  21.2304  21.6142  21.6142  21.7369  21.8220  21.8220
    21.9143  21.9543  21.9543  21.9739  22.0860  22.1034  22.2518  22.2518
    22.2631  22.2631  22.3670  22.3721  22.6765  22.6766  22.7647  22.7647
    22.9007  22.9346  22.9346  23.0525  23.0525  23.2181  23.4923  23.4923
    23.9988  24.4424  24.4424

          k = 0.0556 0.0556 0.2525 ( 33182 PWs)   bands (ev):

   -52.4442 -52.3622 -52.3622 -52.3468 -52.3468 -52.3390 -52.3287 -52.3229
   -52.3229 -52.3189 -52.3025 -52.3025 -52.2964 -52.2963 -52.2687 -52.2687
   -52.1329 -52.1248 -52.0899 -52.0899 -52.0872 -52.0865 -52.0862 -52.0861
   -52.0859 -52.0859 -52.0812 -52.0812 -52.0778 -52.0778 -52.0327 -52.0327
   -22.7761 -22.7757 -22.7757 -22.7710 -22.7352 -22.7352 -22.6844 -22.5679
   -22.5679 -22.5610 -22.5610 -22.5256 -22.5256 -22.5063 -22.5063 -22.5045
   -22.5045 -22.4799 -22.4799 -22.4795 -22.4748 -22.4745 -22.4745 -22.4335
   -22.4335 -22.3918 -22.3918 -22.3605 -22.3605 -22.3559 -22.2846 -22.2846
   -22.2664 -22.2664 -22.2424 -22.2424 -22.2348 -22.2348 -22.1947 -22.1947
   -22.1888 -22.1870 -22.1815 -22.1815 -22.1667 -22.1667 -22.1254 -22.1040
   -22.1040 -22.0796 -22.0689 -22.0689 -22.0517 -22.0517 -22.0463 -22.0463
   -22.0423 -22.0353 -22.0299 -22.0299 -22.0255 -22.0193 -22.0161 -22.0161
   -22.0116 -22.0116 -22.0032 -22.0032 -21.9875 -21.9875 -21.9865 -21.9813
   -21.9813 -21.9740 -21.9740 -21.9590 -21.9496 -21.9495 -21.9398 -21.9315
   -21.9315 -21.9089 -21.9089 -21.9052 -21.9051 -21.8932 -21.8932 -21.8677
   -21.8122 -21.8105 -21.7933 -21.7913 -21.7913 -21.7894 -21.7882 -21.7871
    13.3858  14.6161  14.8309  14.8309  14.8744  15.0769  15.1070  15.1070
    15.1137  15.1371  15.3178  15.3178  15.5330  15.5330  15.5980  15.7175
    15.7175  15.8932  15.8932  15.9831  16.1818  16.1818  16.2114  16.2158
    16.2159  16.2704  16.2704  16.3007  16.3715  16.3715  16.3951  16.3951
    16.6501  16.6501  16.6640  16.6640  16.6910  16.6910  16.7051  16.7051
    16.8947  16.8947  17.0420  17.0420  17.0439  17.1214  17.1214  17.1477
    17.1477  17.2115  17.2115  17.3772  17.4039  17.4039  17.4156  17.4156
    17.4623  17.4623  17.5060  17.5060  17.5130  17.5131  17.6540  17.7897
    17.8124  17.8560  17.8560  17.8990  17.9739  17.9739  18.1694  18.1694
    18.2887  18.2887  18.3197  18.3341  18.3800  18.4312  18.4312  18.4458
    18.4565  18.4870  18.4955  18.4955  18.5563  18.6540  18.6540  18.8142
    18.8142  18.8341  18.8341  18.8553  18.8553  19.2465  19.2465  19.2907
    19.3245  19.3370  19.3370  19.5012  19.5016  19.5458  19.5458  19.5585
    19.5585  19.7881  19.7881  19.8018  19.8018  19.8559  19.8559  19.8788
    19.8788  19.9541  20.0103  20.0103  20.0506  20.0506  20.1045  20.1722
    20.1722  20.3035  20.3035  20.3844  20.3844  20.3915  20.4816  20.4816
    20.4953  20.5449  20.5449  20.6275  20.8661  20.8969  20.8969  20.9573
    20.9593  20.9593  21.0345  21.0345  21.0781  21.1111  21.1867  21.1867
    21.2163  21.2163  21.2364  21.4045  21.4045  21.6842  21.6842  21.7553
    21.8568  21.8967  21.9012  21.9012  21.9317  22.0890  22.1372  22.1372
    22.1465  22.1465  22.2798  22.6316  22.6316  22.6839  22.6839  22.7214
    22.8152  22.9405  22.9405  23.0453  23.0453  23.1605  23.1605  23.4234
    23.8834  24.4300  24.4300

          k = 0.0556 0.0556 0.3535 ( 33202 PWs)   bands (ev):

   -52.4441 -52.3622 -52.3622 -52.3468 -52.3468 -52.3392 -52.3287 -52.3229
   -52.3229 -52.3189 -52.3025 -52.3025 -52.2964 -52.2964 -52.2687 -52.2687
   -52.1311 -52.1266 -52.0896 -52.0896 -52.0872 -52.0865 -52.0862 -52.0862
   -52.0862 -52.0861 -52.0810 -52.0810 -52.0780 -52.0780 -52.0327 -52.0327
   -22.7750 -22.7744 -22.7744 -22.7697 -22.7346 -22.7346 -22.6815 -22.5681
   -22.5681 -22.5609 -22.5609 -22.5255 -22.5254 -22.5066 -22.5066 -22.5066
   -22.5066 -22.4836 -22.4836 -22.4833 -22.4783 -22.4738 -22.4738 -22.4330
   -22.4330 -22.3923 -22.3923 -22.3657 -22.3593 -22.3593 -22.2860 -22.2860
   -22.2634 -22.2634 -22.2437 -22.2437 -22.2310 -22.2310 -22.1999 -22.1999
   -22.1886 -22.1868 -22.1846 -22.1846 -22.1688 -22.1688 -22.1185 -22.0980
   -22.0980 -22.0744 -22.0571 -22.0571 -22.0467 -22.0467 -22.0387 -22.0353
   -22.0351 -22.0351 -22.0299 -22.0299 -22.0262 -22.0193 -22.0174 -22.0174
   -22.0146 -22.0146 -22.0113 -22.0113 -21.9973 -21.9973 -21.9814 -21.9813
   -21.9776 -21.9776 -21.9684 -21.9640 -21.9531 -21.9531 -21.9420 -21.9316
   -21.9316 -21.9076 -21.9076 -21.9039 -21.9039 -21.8916 -21.8916 -21.8828
   -21.8084 -21.8066 -21.7968 -21.7930 -21.7913 -21.7913 -21.7882 -21.7871
    13.5013  14.4481  14.8279  14.8696  14.8696  15.1259  15.1493  15.1543
    15.1543  15.1566  15.3627  15.3627  15.5882  15.5882  15.5970  15.7724
    15.7724  15.8271  15.8271  15.9412  16.0902  16.1365  16.1365  16.1636
    16.1959  16.1959  16.2294  16.2294  16.3336  16.3336  16.3656  16.3656
    16.5057  16.5057  16.6512  16.6512  16.6887  16.6887  16.7015  16.7015
    16.9470  16.9470  17.0229  17.0230  17.0889  17.0889  17.1133  17.1133
    17.1158  17.1628  17.1628  17.3525  17.3525  17.3681  17.3681  17.3772
    17.4004  17.4004  17.5046  17.5047  17.5133  17.5133  17.6698  17.7458
    17.7997  17.8540  17.8540  17.9065  18.1148  18.1149  18.2667  18.2668
    18.3321  18.3321  18.3365  18.3492  18.4249  18.4249  18.4329  18.4833
    18.5990  18.6376  18.6376  18.6581  18.6581  18.6634  18.6634  18.8028
    18.8028  18.8181  18.8807  19.1711  19.1711  19.2333  19.2333  19.2494
    19.2769  19.3030  19.3030  19.3988  19.4148  19.5562  19.5562  19.6481
    19.6481  19.8031  19.8031  19.8966  19.8966  19.9463  19.9463  19.9574
    19.9574  19.9681  19.9681  19.9719  20.0197  20.0291  20.0365  20.0365
    20.0397  20.0397  20.1265  20.1265  20.2271  20.2271  20.3844  20.4432
    20.4432  20.6317  20.6850  20.6850  20.8737  20.8737  20.9600  21.0494
    21.0494  21.0568  21.0856  21.0856  21.1125  21.1125  21.1381  21.2853
    21.2997  21.4743  21.4743  21.5208  21.5209  21.6181  21.7563  21.7563
    21.7606  21.8069  21.8436  21.8436  21.8821  22.0164  22.0164  22.0210
    22.0210  22.0800  22.1818  22.2262  22.2262  22.4412  22.6005  22.6005
    22.6872  22.6872  22.9435  22.9435  23.0403  23.5306  23.5306  23.7236
    23.9002  24.2453  24.2453

          k = 0.0556 0.0556-0.4545 ( 33244 PWs)   bands (ev):

   -52.4441 -52.3622 -52.3622 -52.3468 -52.3468 -52.3392 -52.3287 -52.3229
   -52.3229 -52.3189 -52.3025 -52.3025 -52.2964 -52.2964 -52.2687 -52.2687
   -52.1296 -52.1280 -52.0894 -52.0894 -52.0872 -52.0865 -52.0864 -52.0864
   -52.0862 -52.0861 -52.0809 -52.0809 -52.0781 -52.0781 -52.0327 -52.0327
   -22.7745 -22.7739 -22.7739 -22.7691 -22.7344 -22.7344 -22.6803 -22.5682
   -22.5682 -22.5609 -22.5609 -22.5254 -22.5254 -22.5075 -22.5075 -22.5068
   -22.5068 -22.4851 -22.4851 -22.4848 -22.4798 -22.4735 -22.4735 -22.4328
   -22.4328 -22.3926 -22.3926 -22.3696 -22.3589 -22.3589 -22.2865 -22.2865
   -22.2624 -22.2624 -22.2443 -22.2443 -22.2289 -22.2289 -22.2026 -22.2026
   -22.1885 -22.1867 -22.1857 -22.1857 -22.1697 -22.1697 -22.1157 -22.0956
   -22.0955 -22.0724 -22.0505 -22.0505 -22.0444 -22.0444 -22.0378 -22.0353
   -22.0299 -22.0299 -22.0265 -22.0253 -22.0253 -22.0220 -22.0220 -22.0198
   -22.0198 -22.0193 -22.0145 -22.0145 -22.0004 -22.0004 -21.9814 -21.9814
   -21.9793 -21.9793 -21.9660 -21.9586 -21.9546 -21.9546 -21.9430 -21.9315
   -21.9315 -21.9070 -21.9070 -21.9035 -21.9035 -21.8912 -21.8910 -21.8910
   -21.8058 -21.8042 -21.7992 -21.7952 -21.7913 -21.7913 -21.7882 -21.7871
    13.5610  14.3577  14.8250  14.8863  14.8863  15.1522  15.1544  15.1709
    15.1756  15.1756  15.3822  15.3822  15.5930  15.6134  15.6134  15.7973
    15.7973  15.8003  15.8003  15.9252  16.0486  16.0845  16.0845  16.1050
    16.2007  16.2007  16.2248  16.2248  16.3167  16.3167  16.3591  16.3591
    16.4507  16.4507  16.6497  16.6497  16.6804  16.6804  16.7071  16.7071
    16.9798  16.9798  17.0039  17.0039  17.0711  17.0711  17.0954  17.0954
    17.1458  17.1517  17.1517  17.3386  17.3387  17.3460  17.3460  17.3733
    17.3733  17.3789  17.5037  17.5037  17.5168  17.5168  17.6747  17.7260
    17.7940  17.8513  17.8513  17.9076  18.2033  18.2033  18.3168  18.3168
    18.3438  18.3438  18.3442  18.3546  18.4327  18.4327  18.4477  18.4947
    18.5345  18.5345  18.5835  18.5835  18.6463  18.6463  18.6499  18.9823
    18.9823  19.0680  19.0713  19.2285  19.2285  19.2353  19.2562  19.3193
    19.3193  19.3385  19.3385  19.3575  19.3820  19.5598  19.5598  19.6895
    19.6895  19.6957  19.7260  19.7260  19.7981  19.7981  19.8052  19.9662
    19.9662  19.9898  19.9898  19.9922  19.9922  20.0070  20.0211  20.0211
    20.0565  20.0565  20.0904  20.0904  20.1811  20.1811  20.4191  20.4192
    20.5970  20.5970  20.6334  20.6390  20.8756  20.8756  21.0025  21.0804
    21.1183  21.1183  21.1439  21.1439  21.1483  21.1483  21.1593  21.2970
    21.3297  21.4296  21.4297  21.4950  21.7548  21.7658  21.7658  21.7886
    21.8171  21.8171  21.8572  21.8920  21.8920  21.9593  21.9593  21.9675
    21.9675  22.0855  22.1305  22.1327  22.1327  22.1978  22.1978  22.2799
    22.6881  22.6881  22.9444  22.9444  23.2099  23.6092  23.7445  23.7445
    24.0969  24.0969  24.1960

          k = 0.0556 0.1667 0.0505 ( 33222 PWs)   bands (ev):

   -52.4416 -52.3775 -52.3611 -52.3459 -52.3374 -52.3346 -52.3317 -52.3270
   -52.3173 -52.3153 -52.3087 -52.3029 -52.2971 -52.2906 -52.2712 -52.2695
   -52.1336 -52.1217 -52.0990 -52.0930 -52.0903 -52.0881 -52.0868 -52.0856
   -52.0856 -52.0849 -52.0817 -52.0780 -52.0726 -52.0695 -52.0344 -52.0343
   -22.7730 -22.7688 -22.7684 -22.7602 -22.7284 -22.7274 -22.6844 -22.5825
   -22.5814 -22.5814 -22.5743 -22.5688 -22.5531 -22.5505 -22.5051 -22.5049
   -22.4935 -22.4857 -22.4700 -22.4687 -22.4629 -22.4596 -22.4381 -22.4074
   -22.4015 -22.3980 -22.3900 -22.3775 -22.3475 -22.3284 -22.3225 -22.3028
   -22.2640 -22.2625 -22.2309 -22.2192 -22.2085 -22.1983 -22.1969 -22.1866
   -22.1856 -22.1851 -22.1814 -22.1798 -22.1717 -22.1585 -22.1519 -22.1396
   -22.1047 -22.0960 -22.0957 -22.0921 -22.0908 -22.0740 -22.0648 -22.0481
   -22.0475 -22.0451 -22.0398 -22.0316 -22.0298 -22.0251 -22.0212 -22.0172
   -22.0165 -21.9868 -21.9866 -21.9814 -21.9804 -21.9794 -21.9791 -21.9582
   -21.9565 -21.9557 -21.9516 -21.9507 -21.9426 -21.9389 -21.9356 -21.9331
   -21.9314 -21.9227 -21.9121 -21.9058 -21.8930 -21.8902 -21.8867 -21.8614
   -21.8229 -21.8126 -21.8031 -21.8025 -21.8016 -21.7929 -21.7904 -21.7890
    13.3158  14.7545  14.8196  14.8287  15.0429  15.0813  15.0841  15.1024
    15.1415  15.1747  15.2821  15.2903  15.3549  15.4837  15.5404  15.6669
    15.6730  16.0122  16.0484  16.0722  16.0760  16.1155  16.1497  16.1797
    16.2063  16.2504  16.2556  16.4492  16.4570  16.4673  16.4785  16.4885
    16.5305  16.5665  16.6052  16.6620  16.7019  16.7320  16.7846  16.7885
    16.8748  16.9475  16.9667  16.9951  17.1133  17.1171  17.1173  17.2063
    17.2690  17.3233  17.3702  17.3708  17.4394  17.4586  17.4633  17.5287
    17.5483  17.5566  17.5650  17.5883  17.6438  17.7039  17.7684  17.7900
    17.7980  17.8002  17.8219  17.8950  17.9003  17.9396  17.9741  17.9938
    18.0341  18.0666  18.0766  18.1364  18.1535  18.2077  18.2659  18.2798
    18.3235  18.3334  18.3486  18.3606  18.3665  18.4305  18.5282  18.6853
    18.9212  18.9319  19.0137  19.0185  19.1276  19.1518  19.2863  19.2958
    19.2980  19.4149  19.4239  19.4389  19.4437  19.4678  19.5272  19.5444
    19.5940  19.5953  19.6633  19.7413  19.7493  19.7674  19.8031  19.8773
    19.9125  20.0144  20.0519  20.1013  20.2045  20.2108  20.2924  20.2962
    20.3049  20.3400  20.4342  20.4887  20.5340  20.5396  20.5823  20.5933
    20.6050  20.6197  20.6293  20.6727  20.7389  20.7590  20.7712  20.8123
    20.8166  20.9427  20.9547  20.9695  20.9738  21.0565  21.0786  21.1825
    21.2052  21.2092  21.3495  21.5595  21.7527  21.7686  21.8179  21.8462
    21.8603  21.8884  21.9010  22.0099  22.0401  22.0409  22.1955  22.2507
    22.2600  22.2714  22.3111  22.3440  22.4239  22.5439  22.6438  22.7002
    22.7386  22.7960  22.9405  23.0638  23.4359  23.4992  23.5223  23.8864
    23.9329  24.0718  24.0804

          k = 0.0556 0.1667 0.1515 ( 33197 PWs)   bands (ev):

   -52.4415 -52.3775 -52.3610 -52.3459 -52.3375 -52.3346 -52.3317 -52.3270
   -52.3173 -52.3153 -52.3087 -52.3029 -52.2971 -52.2906 -52.2712 -52.2695
   -52.1329 -52.1224 -52.0987 -52.0933 -52.0901 -52.0881 -52.0868 -52.0858
   -52.0856 -52.0849 -52.0816 -52.0780 -52.0725 -52.0696 -52.0344 -52.0343
   -22.7723 -22.7682 -22.7674 -22.7591 -22.7279 -22.7270 -22.6826 -22.5827
   -22.5816 -22.5813 -22.5743 -22.5686 -22.5529 -22.5508 -22.5062 -22.5045
   -22.4951 -22.4866 -22.4736 -22.4703 -22.4676 -22.4601 -22.4372 -22.4084
   -22.4006 -22.3986 -22.3896 -22.3768 -22.3549 -22.3260 -22.3237 -22.3007
   -22.2634 -22.2613 -22.2297 -22.2203 -22.2078 -22.1992 -22.1968 -22.1900
   -22.1883 -22.1870 -22.1840 -22.1800 -22.1736 -22.1534 -22.1522 -22.1352
   -22.0983 -22.0926 -22.0902 -22.0887 -22.0838 -22.0696 -22.0618 -22.0481
   -22.0476 -22.0437 -22.0419 -22.0316 -22.0302 -22.0239 -22.0239 -22.0174
   -22.0165 -21.9900 -21.9855 -21.9815 -21.9812 -21.9791 -21.9747 -21.9644
   -21.9611 -21.9606 -21.9540 -21.9498 -21.9443 -21.9399 -21.9367 -21.9331
   -21.9313 -21.9216 -21.9107 -21.9050 -21.8922 -21.8885 -21.8849 -21.8669
   -21.8217 -21.8128 -21.8031 -21.8023 -21.8016 -21.7928 -21.7905 -21.7904
    13.3693  14.7490  14.8433  14.8506  15.0565  15.1038  15.1159  15.1255
    15.1330  15.1744  15.1828  15.3081  15.3147  15.5042  15.6359  15.6924
    15.6980  16.0177  16.0245  16.0304  16.0612  16.0808  16.1631  16.1824
    16.1841  16.2445  16.2445  16.3207  16.3407  16.4165  16.4369  16.4727
    16.5031  16.5118  16.5345  16.6425  16.7223  16.7811  16.8029  16.8118
    16.8329  16.8526  16.8934  16.9974  17.0668  17.0922  17.1462  17.1709
    17.2116  17.2630  17.3269  17.3312  17.3765  17.3805  17.3982  17.5391
    17.5409  17.6016  17.6796  17.6973  17.7406  17.7420  17.7560  17.8088
    17.8252  17.8308  17.8720  17.8740  17.8986  17.9545  17.9722  18.0389
    18.1000  18.1349  18.1741  18.2475  18.2626  18.2690  18.3474  18.3592
    18.3776  18.3908  18.4008  18.4223  18.4556  18.4975  18.5065  18.6788
    18.8695  18.9373  18.9467  18.9860  19.0200  19.0926  19.2699  19.2788
    19.3384  19.3478  19.3858  19.4497  19.4735  19.5083  19.5112  19.5326
    19.5831  19.6196  19.6340  19.6579  19.7361  19.7802  19.8164  19.8619
    19.9290  20.0461  20.0674  20.1252  20.1708  20.1866  20.2786  20.2973
    20.3776  20.3975  20.4452  20.4505  20.4748  20.4817  20.4996  20.5276
    20.6112  20.6130  20.7055  20.7270  20.7436  20.8227  20.8495  20.8947
    20.9094  20.9523  20.9591  21.0036  21.0099  21.0236  21.1363  21.1739
    21.2156  21.3380  21.3583  21.4826  21.4868  21.5291  21.7376  21.7699
    21.8288  21.9177  21.9259  21.9405  22.0061  22.0386  22.1972  22.1988
    22.2039  22.2464  22.2770  22.3722  22.3724  22.5572  22.6576  22.7471
    22.7552  22.8051  23.0158  23.1547  23.2634  23.4614  23.4723  23.8104
    23.9650  23.9954  24.0265

          k = 0.0556 0.1667 0.2525 ( 33203 PWs)   bands (ev):

   -52.4414 -52.3775 -52.3610 -52.3459 -52.3377 -52.3346 -52.3317 -52.3270
   -52.3173 -52.3153 -52.3088 -52.3029 -52.2971 -52.2906 -52.2712 -52.2695
   -52.1316 -52.1236 -52.0983 -52.0937 -52.0899 -52.0881 -52.0868 -52.0860
   -52.0856 -52.0849 -52.0814 -52.0782 -52.0724 -52.0697 -52.0344 -52.0343
   -22.7711 -22.7673 -22.7659 -22.7575 -22.7273 -22.7265 -22.6796 -22.5830
   -22.5818 -22.5812 -22.5743 -22.5683 -22.5525 -22.5513 -22.5083 -22.5036
   -22.4975 -22.4879 -22.4782 -22.4737 -22.4728 -22.4628 -22.4357 -22.4098
   -22.3996 -22.3993 -22.3892 -22.3758 -22.3657 -22.3254 -22.3223 -22.2974
   -22.2648 -22.2574 -22.2273 -22.2220 -22.2062 -22.2006 -22.1967 -22.1946
   -22.1921 -22.1905 -22.1886 -22.1800 -22.1765 -22.1529 -22.1453 -22.1281
   -22.0895 -22.0856 -22.0833 -22.0813 -22.0745 -22.0617 -22.0574 -22.0480
   -22.0477 -22.0454 -22.0417 -22.0315 -22.0308 -22.0292 -22.0209 -22.0190
   -22.0164 -21.9956 -21.9860 -21.9835 -21.9809 -21.9792 -21.9710 -21.9679
   -21.9660 -21.9646 -21.9591 -21.9497 -21.9466 -21.9418 -21.9393 -21.9328
   -21.9316 -21.9202 -21.9085 -21.9039 -21.8912 -21.8859 -21.8826 -21.8783
   -21.8193 -21.8115 -21.8032 -21.8029 -21.8018 -21.7930 -21.7927 -21.7906
    13.4672  14.6832  14.8831  14.8875  14.9406  15.0905  15.1436  15.1628
    15.1794  15.1955  15.2321  15.3520  15.3541  15.5389  15.6666  15.7254
    15.7520  15.9502  15.9614  16.0257  16.0315  16.0643  16.1298  16.1683
    16.1724  16.1836  16.2274  16.2386  16.2501  16.2691  16.3425  16.3430
    16.4056  16.5510  16.6177  16.6400  16.6620  16.6719  16.7628  16.7637
    16.8246  16.8542  16.9160  17.0245  17.0551  17.0736  17.1073  17.1210
    17.2013  17.2307  17.2484  17.2790  17.2936  17.3237  17.3277  17.5095
    17.5255  17.6190  17.6701  17.7072  17.7326  17.7854  17.7931  17.8072
    17.8284  17.8385  17.8944  17.9006  17.9358  18.0541  18.1512  18.1874
    18.2345  18.2617  18.2703  18.2992  18.3514  18.3677  18.4282  18.4287
    18.4591  18.4831  18.4927  18.5317  18.5465  18.6649  18.7482  18.7773
    18.8128  18.8222  18.8586  18.9452  18.9738  19.0204  19.0611  19.2731
    19.3290  19.3629  19.4008  19.4028  19.4063  19.4454  19.4688  19.4822
    19.5855  19.6284  19.7051  19.7372  19.7589  19.8392  19.8586  19.9370
    20.0107  20.0441  20.1119  20.1198  20.1285  20.1293  20.1394  20.1638
    20.1956  20.2427  20.3146  20.3324  20.3951  20.4466  20.5135  20.5208
    20.5371  20.6163  20.8395  20.8457  20.8610  20.8659  20.8841  21.0071
    21.0448  21.0534  21.0886  21.1155  21.1206  21.1226  21.1364  21.1811
    21.2181  21.2322  21.3100  21.3910  21.4569  21.6087  21.6594  21.6985
    21.7831  21.8595  21.9126  21.9326  21.9375  22.0454  22.1063  22.1068
    22.1372  22.1571  22.2769  22.2831  22.3907  22.4332  22.5653  22.6025
    22.7576  22.8119  22.9527  23.0188  23.3669  23.3949  23.5318  23.6703
    23.7376  23.9230  24.4755

          k = 0.0556 0.1667 0.3535 ( 33201 PWs)   bands (ev):

   -52.4414 -52.3775 -52.3610 -52.3459 -52.3378 -52.3346 -52.3317 -52.3270
   -52.3173 -52.3153 -52.3088 -52.3029 -52.2971 -52.2906 -52.2712 -52.2695
   -52.1298 -52.1253 -52.0978 -52.0942 -52.0896 -52.0881 -52.0868 -52.0863
   -52.0856 -52.0849 -52.0813 -52.0784 -52.0723 -52.0698 -52.0344 -52.0343
   -22.7701 -22.7663 -22.7646 -22.7562 -22.7267 -22.7260 -22.6769 -22.5833
   -22.5820 -22.5810 -22.5745 -22.5680 -22.5521 -22.5518 -22.5101 -22.5027
   -22.4996 -22.4890 -22.4819 -22.4770 -22.4766 -22.4659 -22.4343 -22.4111
   -22.4006 -22.3980 -22.3888 -22.3749 -22.3747 -22.3269 -22.3190 -22.2946
   -22.2660 -22.2542 -22.2239 -22.2235 -22.2038 -22.2018 -22.1982 -22.1965
   -22.1953 -22.1949 -22.1936 -22.1800 -22.1790 -22.1537 -22.1379 -22.1216
   -22.0827 -22.0786 -22.0764 -22.0724 -22.0678 -22.0537 -22.0523 -22.0483
   -22.0479 -22.0479 -22.0406 -22.0367 -22.0314 -22.0312 -22.0234 -22.0164
   -22.0162 -22.0010 -21.9914 -21.9855 -21.9807 -21.9795 -21.9753 -21.9739
   -21.9666 -21.9637 -21.9505 -21.9503 -21.9482 -21.9439 -21.9425 -21.9324
   -21.9324 -21.9192 -21.9066 -21.9032 -21.8935 -21.8904 -21.8835 -21.8808
   -21.8157 -21.8098 -21.8042 -21.8027 -21.8019 -21.7965 -21.7926 -21.7906
    13.5808  14.5177  14.8942  14.9225  14.9243  15.1362  15.1906  15.1967
    15.2074  15.2203  15.2942  15.3897  15.3960  15.5737  15.6650  15.7588
    15.8096  15.8825  15.9038  15.9907  16.0119  16.0311  16.0688  16.0813
    16.1310  16.1481  16.1924  16.1999  16.2028  16.2110  16.2449  16.2966
    16.3780  16.5261  16.5304  16.5907  16.6409  16.7116  16.7286  16.8129
    16.8348  16.8782  16.9165  17.0235  17.0332  17.0355  17.0453  17.1434
    17.1610  17.1694  17.1758  17.2228  17.2566  17.3287  17.3671  17.4619
    17.5233  17.6079  17.6279  17.6515  17.6876  17.7216  17.7826  17.7852
    17.8205  17.8806  17.9141  17.9540  18.0795  18.1671  18.2566  18.2728
    18.3115  18.3370  18.3469  18.3609  18.3777  18.4664  18.4847  18.4898
    18.6261  18.6556  18.6690  18.6703  18.6894  18.6924  18.7058  18.7279
    18.7443  18.8061  18.9474  18.9520  19.0417  19.0851  19.1478  19.2852
    19.2994  19.3266  19.3533  19.3648  19.3721  19.3843  19.3900  19.4459
    19.6109  19.6173  19.7463  19.7765  19.8119  19.8158  19.8488  19.8605
    19.8905  19.9190  20.0052  20.0169  20.0314  20.0396  20.1183  20.1204
    20.1440  20.1605  20.2589  20.3375  20.3815  20.4207  20.4779  20.5209
    20.6205  20.6584  20.8043  20.8136  20.8712  20.9365  20.9438  20.9517
    21.0482  21.0517  21.1697  21.1786  21.1813  21.2236  21.2282  21.2433
    21.2848  21.3097  21.4576  21.4578  21.5346  21.6112  21.7320  21.7998
    21.8110  21.8509  21.8709  21.9083  21.9109  21.9996  22.0125  22.0242
    22.0428  22.0777  22.0943  22.1864  22.2095  22.4605  22.5684  22.5788
    22.6177  22.7649  22.8148  22.9649  23.0648  23.1903  23.2376  23.7691
    24.0841  24.2921  24.8178

          k = 0.0556 0.1667-0.4545 ( 33178 PWs)   bands (ev):

   -52.4413 -52.3775 -52.3610 -52.3459 -52.3379 -52.3346 -52.3317 -52.3270
   -52.3173 -52.3153 -52.3088 -52.3029 -52.2971 -52.2906 -52.2712 -52.2695
   -52.1284 -52.1267 -52.0976 -52.0944 -52.0894 -52.0881 -52.0868 -52.0864
   -52.0856 -52.0849 -52.0812 -52.0784 -52.0723 -52.0698 -52.0344 -52.0343
   -22.7696 -22.7660 -22.7641 -22.7557 -22.7265 -22.7258 -22.6758 -22.5834
   -22.5821 -22.5808 -22.5746 -22.5678 -22.5520 -22.5520 -22.5108 -22.5024
   -22.5005 -22.4895 -22.4832 -22.4784 -22.4780 -22.4673 -22.4337 -22.4116
   -22.4010 -22.3975 -22.3886 -22.3782 -22.3746 -22.3275 -22.3176 -22.2934
   -22.2665 -22.2530 -22.2240 -22.2219 -22.2023 -22.2016 -22.1996 -22.1979
   -22.1965 -22.1964 -22.1961 -22.1800 -22.1799 -22.1540 -22.1348 -22.1190
   -22.0796 -22.0767 -22.0723 -22.0683 -22.0654 -22.0525 -22.0480 -22.0478
   -22.0477 -22.0468 -22.0423 -22.0406 -22.0314 -22.0314 -22.0271 -22.0163
   -22.0127 -22.0033 -21.9957 -21.9863 -21.9806 -21.9796 -21.9766 -21.9763
   -21.9658 -21.9655 -21.9510 -21.9488 -21.9447 -21.9441 -21.9410 -21.9328
   -21.9322 -21.9188 -21.9058 -21.9030 -21.9028 -21.8901 -21.8826 -21.8802
   -21.8123 -21.8113 -21.8032 -21.8026 -21.8020 -21.7989 -21.7925 -21.7907
    13.6393  14.4285  14.8914  14.9396  14.9402  15.1638  15.2028  15.2123
    15.2161  15.2336  15.3233  15.4036  15.4151  15.5891  15.6606  15.7737
    15.8366  15.8549  15.8828  15.9740  15.9751  16.0319  16.0415  16.0614
    16.0918  16.1353  16.1425  16.1497  16.1948  16.2052  16.2490  16.3085
    16.3672  16.4736  16.4765  16.6084  16.6416  16.7097  16.7932  16.8001
    16.8374  16.8917  16.9075  17.0013  17.0067  17.0470  17.0579  17.0868
    17.1319  17.1461  17.1725  17.2195  17.2225  17.3321  17.4399  17.4783
    17.5234  17.5337  17.5835  17.6311  17.6842  17.7132  17.7624  17.7790
    17.8258  17.8904  17.9149  17.9584  18.2155  18.2325  18.2737  18.2803
    18.3508  18.3576  18.3668  18.3782  18.3837  18.4801  18.5300  18.5619
    18.5790  18.5806  18.5914  18.6288  18.6682  18.7471  18.8181  18.8385
    18.9262  18.9369  18.9458  18.9546  19.0352  19.2556  19.2593  19.2909
    19.3061  19.3083  19.3489  19.3504  19.3568  19.3747  19.3829  19.4601
    19.4858  19.5266  19.6131  19.6271  19.6891  19.7374  19.8304  19.8812
    19.8834  19.9123  19.9757  20.0033  20.0573  20.0709  20.0981  20.1217
    20.2251  20.2351  20.2884  20.3193  20.3397  20.3944  20.4050  20.5136
    20.5549  20.6201  20.7782  20.8350  20.8595  20.8775  20.9903  21.0011
    21.0012  21.1260  21.2212  21.2375  21.2400  21.2408  21.2698  21.3294
    21.3301  21.3761  21.4175  21.4353  21.6630  21.6813  21.7543  21.8018
    21.8259  21.8347  21.8400  21.8408  21.8858  21.9647  21.9736  21.9795
    21.9902  22.1022  22.1360  22.1649  22.1889  22.4190  22.4682  22.5692
    22.7104  22.7340  22.7382  22.7674  22.8156  23.1538  23.3305  23.6665
    24.3431  24.6305  24.6785

          k = 0.0556 0.2778 0.0505 ( 33193 PWs)   bands (ev):

   -52.4361 -52.3922 -52.3587 -52.3442 -52.3405 -52.3348 -52.3311 -52.3175
   -52.3149 -52.3123 -52.3120 -52.3037 -52.2986 -52.2853 -52.2762 -52.2712
   -52.1308 -52.1194 -52.1072 -52.1000 -52.0902 -52.0888 -52.0868 -52.0859
   -52.0849 -52.0836 -52.0821 -52.0787 -52.0640 -52.0617 -52.0377 -52.0374
   -22.7587 -22.7501 -22.7499 -22.7385 -22.7128 -22.7101 -22.6744 -22.6221
   -22.6145 -22.6073 -22.6018 -22.5995 -22.5911 -22.5893 -22.5191 -22.5118
   -22.4800 -22.4639 -22.4614 -22.4586 -22.4508 -22.4437 -22.4165 -22.4115
   -22.4080 -22.3944 -22.3814 -22.3671 -22.3593 -22.3461 -22.3312 -22.2910
   -22.2492 -22.2374 -22.2174 -22.2135 -22.1980 -22.1968 -22.1880 -22.1819
   -22.1763 -22.1749 -22.1738 -22.1694 -22.1677 -22.1624 -22.1588 -22.1444
   -22.1310 -22.1301 -22.1175 -22.1004 -22.0832 -22.0819 -22.0725 -22.0708
   -22.0617 -22.0567 -22.0437 -22.0411 -22.0404 -22.0343 -22.0217 -22.0136
   -21.9861 -21.9805 -21.9749 -21.9646 -21.9610 -21.9596 -21.9581 -21.9565
   -21.9536 -21.9505 -21.9450 -21.9390 -21.9366 -21.9360 -21.9347 -21.9337
   -21.9282 -21.9051 -21.9047 -21.8990 -21.8856 -21.8811 -21.8796 -21.8625
   -21.8362 -21.8251 -21.8224 -21.8180 -21.8114 -21.8053 -21.8005 -21.8002
    13.4807  14.7686  14.8820  14.9192  14.9466  15.1181  15.1766  15.1807
    15.2159  15.2917  15.3521  15.3782  15.4827  15.5242  15.5747  15.6730
    15.7140  15.8013  15.8198  15.9427  15.9662  16.0037  16.1762  16.1917
    16.2009  16.2058  16.2320  16.2584  16.2746  16.2927  16.3277  16.3522
    16.3993  16.5087  16.5427  16.5628  16.6334  16.6857  16.8043  16.8154
    16.9337  16.9420  17.0096  17.0215  17.0440  17.0442  17.1195  17.1464
    17.1596  17.1784  17.1862  17.3528  17.3754  17.4569  17.4683  17.4910
    17.4978  17.5393  17.5943  17.6109  17.6395  17.7050  17.7563  17.8144
    17.8797  17.8918  17.9149  17.9764  18.0061  18.0531  18.0875  18.0891
    18.1069  18.1847  18.1932  18.2007  18.2446  18.2648  18.2853  18.2887
    18.2924  18.3519  18.4379  18.4485  18.4545  18.4664  18.6394  18.7035
    18.7220  18.7641  18.7682  18.9632  19.0307  19.1509  19.1583  19.2418
    19.2688  19.2939  19.3284  19.5252  19.5935  19.6034  19.6284  19.6330
    19.6598  19.6765  19.6942  19.7156  19.7648  19.7999  20.0052  20.0173
    20.1660  20.1922  20.2521  20.2880  20.2909  20.2913  20.3165  20.3214
    20.3699  20.3710  20.3820  20.3970  20.4741  20.4839  20.5039  20.5703
    20.6068  20.6628  20.6697  20.6712  20.7457  20.7877  20.8045  20.8146
    20.8156  20.9955  21.0687  21.0888  21.0910  21.1794  21.2037  21.2038
    21.2166  21.3915  21.5148  21.5150  21.5224  21.5883  21.6910  21.7144
    21.7144  21.8003  21.8102  21.8449  21.9354  21.9367  22.0204  22.1331
    22.1345  22.3119  22.3206  22.3570  22.4161  22.4968  22.5039  22.5954
    22.6609  22.9334  23.0124  23.0448  23.0720  23.3507  23.3925  23.5488
    23.8159  23.8207  23.8494

          k = 0.0556 0.2778 0.1515 ( 33178 PWs)   bands (ev):

   -52.4361 -52.3922 -52.3587 -52.3442 -52.3405 -52.3349 -52.3311 -52.3175
   -52.3150 -52.3123 -52.3120 -52.3037 -52.2986 -52.2853 -52.2762 -52.2711
   -52.1301 -52.1201 -52.1068 -52.1004 -52.0901 -52.0888 -52.0868 -52.0860
   -52.0849 -52.0836 -52.0820 -52.0787 -52.0639 -52.0617 -52.0377 -52.0374
   -22.7583 -22.7498 -22.7489 -22.7375 -22.7124 -22.7099 -22.6728 -22.6223
   -22.6142 -22.6074 -22.6018 -22.5996 -22.5910 -22.5890 -22.5185 -22.5127
   -22.4815 -22.4657 -22.4656 -22.4589 -22.4558 -22.4432 -22.4166 -22.4121
   -22.4079 -22.3949 -22.3795 -22.3733 -22.3605 -22.3459 -22.3294 -22.2871
   -22.2466 -22.2377 -22.2166 -22.2133 -22.2003 -22.1987 -22.1907 -22.1864
   -22.1761 -22.1737 -22.1710 -22.1699 -22.1680 -22.1596 -22.1580 -22.1440
   -22.1282 -22.1229 -22.1113 -22.0957 -22.0812 -22.0792 -22.0746 -22.0710
   -22.0603 -22.0582 -22.0441 -22.0402 -22.0393 -22.0345 -22.0216 -22.0155
   -21.9909 -21.9800 -21.9751 -21.9691 -21.9661 -21.9606 -21.9583 -21.9580
   -21.9526 -21.9511 -21.9504 -21.9378 -21.9363 -21.9362 -21.9324 -21.9304
   -21.9268 -21.9048 -21.9033 -21.8991 -21.8847 -21.8838 -21.8815 -21.8606
   -21.8356 -21.8265 -21.8221 -21.8182 -21.8097 -21.8050 -21.8010 -21.8007
    13.5325  14.8056  14.8773  14.9436  14.9654  15.1236  15.1921  15.2110
    15.2479  15.2533  15.2995  15.3772  15.3991  15.5267  15.6048  15.7138
    15.7698  15.8048  15.8254  15.9315  15.9599  15.9844  16.1402  16.1412
    16.1551  16.1649  16.1736  16.2661  16.2905  16.2925  16.2942  16.3136
    16.3609  16.3854  16.4900  16.5703  16.6645  16.7156  16.7852  16.8087
    16.8325  16.8868  16.9527  16.9530  17.0488  17.0557  17.0864  17.1137
    17.1166  17.1186  17.1649  17.2870  17.4257  17.4409  17.4449  17.5495
    17.5922  17.6368  17.6728  17.6828  17.6993  17.7894  17.8223  17.8401
    17.8844  17.8939  17.9486  17.9769  18.0554  18.0985  18.1178  18.1260
    18.1768  18.2030  18.2484  18.2830  18.2836  18.2870  18.3036  18.3401
    18.3626  18.4096  18.4718  18.4808  18.4895  18.4906  18.5745  18.6837
    18.7401  18.7549  18.7845  18.9191  19.0173  19.0716  19.1823  19.2968
    19.3111  19.3297  19.3316  19.4605  19.5442  19.5602  19.5611  19.5721
    19.5740  19.5973  19.6260  19.6377  19.6912  19.8014  20.0243  20.0537
    20.0631  20.0905  20.1398  20.1554  20.1591  20.2423  20.2661  20.2962
    20.3458  20.3493  20.4035  20.4215  20.5493  20.5534  20.5649  20.6243
    20.6281  20.6964  20.7067  20.7661  20.8019  20.8224  20.8805  20.8813
    20.8982  20.9573  21.1529  21.1959  21.2379  21.2440  21.2622  21.2746
    21.2814  21.2841  21.2911  21.4883  21.4894  21.5576  21.5776  21.7292
    21.7566  21.7910  21.8331  21.9593  21.9621  22.0054  22.0274  22.0991
    22.1043  22.2523  22.2645  22.2857  22.3239  22.3416  22.3619  22.5009
    22.6048  22.8507  22.9401  22.9562  23.3975  23.4789  23.4980  23.5078
    23.7647  24.1200  24.3317

          k = 0.0556 0.2778 0.2525 ( 33199 PWs)   bands (ev):

   -52.4360 -52.3922 -52.3587 -52.3442 -52.3405 -52.3350 -52.3311 -52.3175
   -52.3150 -52.3123 -52.3120 -52.3038 -52.2987 -52.2854 -52.2762 -52.2711
   -52.1288 -52.1212 -52.1062 -52.1010 -52.0898 -52.0888 -52.0868 -52.0862
   -52.0849 -52.0836 -52.0819 -52.0789 -52.0639 -52.0618 -52.0377 -52.0374
   -22.7574 -22.7492 -22.7474 -22.7360 -22.7118 -22.7095 -22.6703 -22.6225
   -22.6137 -22.6076 -22.6018 -22.6001 -22.5909 -22.5885 -22.5176 -22.5141
   -22.4838 -22.4704 -22.4682 -22.4613 -22.4610 -22.4447 -22.4161 -22.4132
   -22.4083 -22.3950 -22.3825 -22.3772 -22.3623 -22.3455 -22.3265 -22.2811
   -22.2427 -22.2379 -22.2147 -22.2132 -22.2050 -22.1996 -22.1947 -22.1906
   -22.1795 -22.1772 -22.1692 -22.1682 -22.1619 -22.1608 -22.1510 -22.1433
   -22.1230 -22.1128 -22.1024 -22.0883 -22.0805 -22.0779 -22.0721 -22.0714
   -22.0615 -22.0578 -22.0446 -22.0397 -22.0368 -22.0353 -22.0213 -22.0198
   -21.9977 -21.9794 -21.9755 -21.9741 -21.9731 -21.9664 -21.9596 -21.9575
   -21.9554 -21.9552 -21.9454 -21.9366 -21.9366 -21.9349 -21.9304 -21.9273
   -21.9255 -21.9062 -21.9007 -21.8994 -21.8931 -21.8826 -21.8824 -21.8581
   -21.8344 -21.8264 -21.8216 -21.8187 -21.8090 -21.8046 -21.8023 -21.8012
    13.6271  14.8143  14.8717  14.9845  14.9978  15.0698  15.1470  15.2223
    15.2514  15.2904  15.3115  15.4196  15.4293  15.5311  15.6574  15.7143
    15.7999  15.8001  15.8113  15.8914  15.9585  15.9876  16.0046  16.0616
    16.0909  16.1274  16.1398  16.1414  16.2368  16.2954  16.3114  16.3393
    16.3931  16.3941  16.4186  16.4248  16.6880  16.7038  16.7145  16.7443
    16.7579  16.7896  16.8585  16.9534  17.0279  17.0539  17.0683  17.0697
    17.1138  17.1235  17.1261  17.2494  17.3502  17.3745  17.5018  17.6569
    17.6751  17.6797  17.6893  17.7026  17.8579  17.8976  17.9005  17.9017
    17.9287  17.9783  17.9869  18.0047  18.0261  18.1564  18.1918  18.2016
    18.2090  18.2416  18.2426  18.2633  18.3673  18.3773  18.4451  18.4562
    18.4692  18.5272  18.5335  18.5391  18.5507  18.5971  18.6420  18.7331
    18.7379  18.7716  18.7935  18.8746  18.9734  19.0125  19.1666  19.2819
    19.3096  19.3287  19.3444  19.3891  19.4226  19.4417  19.4574  19.5087
    19.5088  19.5194  19.5480  19.5880  19.6225  19.7619  19.7935  19.8149
    20.0124  20.0311  20.0396  20.0755  20.1179  20.1212  20.2037  20.2284
    20.3858  20.4134  20.4225  20.5095  20.5194  20.5616  20.5944  20.6463
    20.7740  20.7875  20.8059  20.8215  20.8510  20.8916  20.9310  20.9447
    20.9837  21.0530  21.1215  21.1895  21.2154  21.2293  21.2904  21.2984
    21.3756  21.3770  21.3919  21.4575  21.4601  21.4942  21.6824  21.7688
    21.7774  21.8545  21.9272  21.9500  21.9921  21.9997  22.0342  22.0369
    22.0561  22.1569  22.1781  22.1863  22.2296  22.2689  22.3512  22.5063
    22.5427  22.6092  22.8117  22.8755  22.9660  23.4125  23.9966  24.0443
    24.0690  24.1065  24.2062

          k = 0.0556 0.2778 0.3535 ( 33186 PWs)   bands (ev):

   -52.4359 -52.3922 -52.3587 -52.3442 -52.3405 -52.3352 -52.3311 -52.3175
   -52.3151 -52.3123 -52.3120 -52.3038 -52.2987 -52.2854 -52.2762 -52.2711
   -52.1272 -52.1228 -52.1055 -52.1016 -52.0896 -52.0887 -52.0869 -52.0864
   -52.0849 -52.0836 -52.0817 -52.0790 -52.0638 -52.0618 -52.0377 -52.0374
   -22.7566 -22.7486 -22.7462 -22.7348 -22.7112 -22.7092 -22.6680 -22.6225
   -22.6135 -22.6075 -22.6018 -22.6007 -22.5908 -22.5881 -22.5168 -22.5153
   -22.4859 -22.4739 -22.4705 -22.4646 -22.4639 -22.4470 -22.4149 -22.4141
   -22.4095 -22.3945 -22.3902 -22.3757 -22.3638 -22.3452 -22.3240 -22.2757
   -22.2396 -22.2380 -22.2130 -22.2117 -22.2087 -22.2002 -22.1980 -22.1936
   -22.1826 -22.1823 -22.1682 -22.1675 -22.1618 -22.1543 -22.1445 -22.1429
   -22.1171 -22.1048 -22.0957 -22.0811 -22.0803 -22.0792 -22.0720 -22.0667
   -22.0643 -22.0555 -22.0451 -22.0392 -22.0370 -22.0351 -22.0256 -22.0209
   -22.0032 -21.9787 -21.9786 -21.9778 -21.9761 -21.9713 -21.9615 -21.9579
   -21.9575 -21.9575 -21.9371 -21.9358 -21.9355 -21.9323 -21.9286 -21.9258
   -21.9249 -21.9087 -21.9067 -21.8998 -21.8978 -21.8839 -21.8799 -21.8560
   -21.8323 -21.8256 -21.8209 -21.8194 -21.8095 -21.8040 -21.8033 -21.8017
    13.7368  14.6541  14.9448  15.0237  15.0253  15.0309  15.1841  15.2637
    15.2720  15.3198  15.3229  15.4508  15.4619  15.5354  15.7051  15.7142
    15.7157  15.7974  15.8168  15.8624  15.9377  15.9722  15.9906  16.0128
    16.0464  16.0763  16.0889  16.1099  16.1482  16.2760  16.2828  16.3002
    16.3291  16.3697  16.4819  16.5028  16.5679  16.5788  16.6972  16.7068
    16.7223  16.7305  16.8644  16.9226  16.9413  17.0533  17.0554  17.0595
    17.1142  17.1232  17.1903  17.2331  17.3248  17.3268  17.6103  17.6436
    17.6454  17.6668  17.6999  17.7294  17.8503  17.8523  17.8593  17.9316
    17.9768  18.0011  18.0225  18.1548  18.1890  18.2385  18.2662  18.2773
    18.2892  18.2954  18.3010  18.3368  18.4075  18.4265  18.5459  18.5514
    18.5922  18.5983  18.6129  18.6220  18.6869  18.6929  18.7029  18.7141
    18.7294  18.8496  18.8954  18.9315  18.9580  19.0198  19.0944  19.1235
    19.2318  19.2775  19.3076  19.3090  19.3206  19.3228  19.3458  19.3748
    19.3859  19.4919  19.5519  19.5577  19.6723  19.6799  19.7055  19.7690
    19.7751  19.7941  19.9933  19.9968  20.0870  20.1202  20.2067  20.2907
    20.3506  20.3634  20.4263  20.4460  20.5594  20.5827  20.5891  20.6979
    20.7041  20.7283  20.7538  20.8967  20.9161  20.9787  20.9965  21.0591
    21.0829  21.1696  21.2421  21.2485  21.3172  21.3206  21.3311  21.3471
    21.3735  21.4206  21.4797  21.4838  21.5300  21.5356  21.6525  21.6983
    21.7678  21.8023  21.8247  21.8870  21.9249  21.9577  22.0082  22.0543
    22.0610  22.0698  22.1632  22.1796  22.3011  22.3535  22.4533  22.4819
    22.5104  22.5399  22.6092  22.7725  22.8864  23.3008  23.5536  23.6299
    24.5449  24.6578  24.6816

          k = 0.0556 0.2778-0.4545 ( 33182 PWs)   bands (ev):

   -52.4359 -52.3921 -52.3587 -52.3442 -52.3405 -52.3352 -52.3311 -52.3175
   -52.3151 -52.3123 -52.3120 -52.3038 -52.2987 -52.2853 -52.2762 -52.2711
   -52.1260 -52.1240 -52.1051 -52.1020 -52.0895 -52.0887 -52.0869 -52.0865
   -52.0849 -52.0836 -52.0817 -52.0791 -52.0638 -52.0618 -52.0377 -52.0374
   -22.7563 -22.7483 -22.7457 -22.7344 -22.7110 -22.7091 -22.6671 -22.6226
   -22.6134 -22.6074 -22.6018 -22.6010 -22.5907 -22.5879 -22.5165 -22.5158
   -22.4866 -22.4751 -22.4713 -22.4658 -22.4651 -22.4481 -22.4144 -22.4139
   -22.4105 -22.3942 -22.3932 -22.3753 -22.3644 -22.3450 -22.3230 -22.2736
   -22.2386 -22.2381 -22.2129 -22.2101 -22.2099 -22.2003 -22.1994 -22.1946
   -22.1850 -22.1839 -22.1682 -22.1670 -22.1622 -22.1511 -22.1427 -22.1418
   -22.1141 -22.1018 -22.0946 -22.0804 -22.0779 -22.0758 -22.0723 -22.0718
   -22.0603 -22.0545 -22.0452 -22.0389 -22.0381 -22.0346 -22.0289 -22.0207
   -22.0054 -21.9808 -21.9792 -21.9783 -21.9764 -21.9732 -21.9624 -21.9587
   -21.9584 -21.9576 -21.9374 -21.9354 -21.9308 -21.9278 -21.9254 -21.9248
   -21.9230 -21.9207 -21.9102 -21.8999 -21.8964 -21.8846 -21.8789 -21.8553
   -21.8311 -21.8254 -21.8201 -21.8201 -21.8099 -21.8037 -21.8037 -21.8021
    13.7933  14.5678  14.9803  15.0211  15.0435  15.0452  15.2082  15.2704
    15.2896  15.3237  15.3276  15.4568  15.4802  15.5373  15.6514  15.7166
    15.7420  15.7924  15.8175  15.8519  15.9297  15.9617  15.9741  16.0227
    16.0341  16.0686  16.0741  16.0961  16.1306  16.2140  16.2146  16.3025
    16.3362  16.3825  16.5151  16.5195  16.5270  16.6007  16.6359  16.6648
    16.7039  16.7089  16.9042  16.9046  16.9056  17.0033  17.0515  17.0619
    17.1285  17.1540  17.2157  17.2169  17.3186  17.3444  17.5395  17.6317
    17.6567  17.7094  17.7351  17.7908  17.8028  17.8319  17.8594  17.8697
    17.9384  17.9847  18.0084  18.2023  18.2856  18.2971  18.2995  18.3261
    18.3341  18.3544  18.3628  18.3949  18.4201  18.4469  18.5845  18.5958
    18.6083  18.6352  18.7002  18.7004  18.7097  18.7241  18.7484  18.7548
    18.7912  18.8333  18.8428  18.8612  19.0253  19.0898  19.0970  19.1046
    19.1156  19.1266  19.2397  19.2972  19.3014  19.3039  19.3095  19.3107
    19.3620  19.3863  19.4912  19.5827  19.6738  19.7121  19.7334  19.7336
    19.7418  19.8333  19.9232  19.9399  20.0275  20.0647  20.2086  20.2441
    20.3331  20.3452  20.4447  20.4551  20.4554  20.5183  20.6756  20.6937
    20.6942  20.7576  20.7623  20.9263  20.9268  21.0476  21.0882  21.1400
    21.1496  21.1870  21.2726  21.2947  21.3191  21.3267  21.3717  21.3762
    21.3787  21.4286  21.4444  21.4752  21.4818  21.5468  21.7576  21.7588
    21.7774  21.7944  21.8178  21.8677  21.8948  21.9579  22.0005  22.0110
    22.0122  22.0591  22.0804  22.1123  22.1848  22.3537  22.3611  22.5118
    22.6087  22.6679  22.7117  22.8041  22.9544  23.2294  23.2593  23.3084
    24.9801  25.1205  25.1970

          k = 0.0556 0.3889 0.0505 ( 33173 PWs)   bands (ev):

   -52.4281 -52.4059 -52.3553 -52.3460 -52.3417 -52.3350 -52.3311 -52.3209
   -52.3092 -52.3078 -52.3051 -52.3045 -52.3009 -52.2835 -52.2807 -52.2736
   -52.1266 -52.1160 -52.1146 -52.1063 -52.0900 -52.0893 -52.0867 -52.0862
   -52.0841 -52.0827 -52.0822 -52.0797 -52.0559 -52.0543 -52.0425 -52.0419
   -22.7357 -22.7233 -22.7229 -22.7099 -22.6901 -22.6854 -22.6661 -22.6601
   -22.6527 -22.6461 -22.6405 -22.6267 -22.6224 -22.6222 -22.5238 -22.5186
   -22.4604 -22.4488 -22.4438 -22.4403 -22.4368 -22.4230 -22.4207 -22.4145
   -22.4145 -22.4089 -22.3906 -22.3836 -22.3828 -22.3562 -22.3051 -22.2519
   -22.2376 -22.2316 -22.2163 -22.2059 -22.2037 -22.1897 -22.1851 -22.1823
   -22.1720 -22.1709 -22.1622 -22.1613 -22.1582 -22.1563 -22.1553 -22.1507
   -22.1424 -22.1282 -22.1226 -22.1091 -22.1024 -22.0986 -22.0938 -22.0925
   -22.0748 -22.0643 -22.0558 -22.0483 -22.0351 -22.0319 -22.0245 -22.0125
   -21.9766 -21.9694 -21.9609 -21.9593 -21.9573 -21.9553 -21.9547 -21.9495
   -21.9472 -21.9464 -21.9366 -21.9356 -21.9337 -21.9275 -21.9264 -21.9128
   -21.9078 -21.8993 -21.8952 -21.8843 -21.8799 -21.8666 -21.8604 -21.8564
   -21.8536 -21.8485 -21.8417 -21.8390 -21.8250 -21.8182 -21.8166 -21.8153
    13.7211  14.3847  15.0605  15.0656  15.1158  15.2351  15.3171  15.3200
    15.3711  15.4135  15.4556  15.4652  15.4990  15.5117  15.5547  15.5622
    15.6553  15.6633  15.7171  15.7542  15.7771  15.8617  15.9147  15.9659
    16.1152  16.1250  16.2218  16.2954  16.3379  16.3381  16.3659  16.3781
    16.3791  16.4604  16.4682  16.4859  16.6401  16.6895  16.7129  16.7967
    16.8310  16.8383  16.9109  16.9132  16.9320  17.0347  17.0565  17.0874
    17.1265  17.1355  17.1477  17.2340  17.4192  17.4415  17.5251  17.5370
    17.5605  17.5658  17.6130  17.6399  17.6607  17.6716  17.7369  17.7508
    17.7741  17.9437  17.9678  17.9973  18.0295  18.0588  18.1112  18.1534
    18.1774  18.1973  18.2084  18.2450  18.2839  18.3334  18.3524  18.3939
    18.3987  18.4271  18.4620  18.5157  18.5331  18.5792  18.6538  18.6832
    18.7311  18.7798  18.8321  18.8366  18.9694  19.0801  19.0924  19.2081
    19.2656  19.4660  19.5804  19.5826  19.6076  19.6168  19.6283  19.6574
    19.7057  19.7473  19.7691  19.8395  19.8972  19.9140  19.9428  19.9834
    20.0416  20.0568  20.0873  20.1275  20.1692  20.1849  20.2405  20.3095
    20.3308  20.3509  20.3995  20.5275  20.6046  20.6049  20.6229  20.6296
    20.6467  20.7146  20.7199  20.7206  20.7511  20.7772  20.8262  20.9442
    20.9783  21.0042  21.0949  21.1025  21.1649  21.2991  21.3340  21.4738
    21.4937  21.4939  21.5247  21.5289  21.5512  21.5716  21.6890  21.7106
    21.7203  21.7309  21.7533  21.7945  21.8872  21.9070  21.9800  22.0251
    22.0362  22.0663  22.1959  22.2586  22.3311  22.3844  22.4055  22.4223
    22.4945  22.6870  22.7975  23.0168  23.1343  23.2178  23.2825  23.3002
    23.7005  23.7172  23.7713

          k = 0.0556 0.3889 0.1515 ( 33174 PWs)   bands (ev):

   -52.4281 -52.4058 -52.3553 -52.3460 -52.3417 -52.3350 -52.3311 -52.3210
   -52.3092 -52.3078 -52.3051 -52.3045 -52.3009 -52.2835 -52.2807 -52.2736
   -52.1260 -52.1166 -52.1142 -52.1067 -52.0899 -52.0893 -52.0867 -52.0863
   -52.0841 -52.0826 -52.0822 -52.0797 -52.0559 -52.0543 -52.0425 -52.0419
   -22.7354 -22.7228 -22.7224 -22.7090 -22.6897 -22.6853 -22.6662 -22.6589
   -22.6521 -22.6467 -22.6400 -22.6264 -22.6222 -22.6221 -22.5235 -22.5190
   -22.4618 -22.4532 -22.4431 -22.4430 -22.4411 -22.4242 -22.4218 -22.4151
   -22.4121 -22.4106 -22.3956 -22.3833 -22.3815 -22.3548 -22.3049 -22.2467
   -22.2375 -22.2299 -22.2153 -22.2086 -22.2032 -22.1890 -22.1809 -22.1785
   -22.1741 -22.1663 -22.1651 -22.1599 -22.1597 -22.1561 -22.1544 -22.1479
   -22.1417 -22.1243 -22.1233 -22.1098 -22.1048 -22.0993 -22.0939 -22.0893
   -22.0721 -22.0647 -22.0550 -22.0469 -22.0348 -22.0323 -22.0240 -22.0148
   -21.9761 -21.9698 -21.9656 -21.9637 -21.9635 -21.9607 -21.9595 -21.9532
   -21.9511 -21.9425 -21.9375 -21.9351 -21.9291 -21.9239 -21.9232 -21.9117
   -21.9059 -21.8983 -21.8923 -21.8851 -21.8789 -21.8688 -21.8614 -21.8588
   -21.8511 -21.8479 -21.8398 -21.8396 -21.8245 -21.8205 -21.8171 -21.8127
    13.7703  14.4263  15.0620  15.0858  15.1303  15.2323  15.3224  15.3460
    15.4005  15.4356  15.4419  15.4724  15.4794  15.4889  15.5278  15.5555
    15.5674  15.6463  15.7054  15.7732  15.7742  15.9042  15.9152  15.9606
    15.9745  16.1601  16.2067  16.2313  16.3073  16.3106  16.3295  16.3345
    16.4015  16.4402  16.4828  16.4962  16.6285  16.7041  16.7053  16.7089
    16.7550  16.8130  16.8396  16.8929  16.9347  16.9521  16.9711  17.0531
    17.1217  17.1257  17.1578  17.3515  17.3580  17.5109  17.5160  17.5289
    17.5896  17.6734  17.6838  17.6911  17.7410  17.7685  17.7964  17.8040
    17.8983  17.9834  18.0043  18.0496  18.0502  18.0623  18.1200  18.1924
    18.2292  18.2442  18.3069  18.3083  18.3870  18.3877  18.4027  18.4047
    18.4301  18.4668  18.4851  18.5107  18.5519  18.5694  18.6018  18.6169
    18.7371  18.8064  18.8285  18.8488  18.8490  19.1022  19.1510  19.1518
    19.2412  19.4021  19.4925  19.5039  19.5174  19.5468  19.5721  19.6008
    19.6088  19.6389  19.6726  19.6860  19.7176  19.7508  19.8749  19.9238
    20.0184  20.0305  20.1045  20.1365  20.1850  20.1989  20.2296  20.2727
    20.3088  20.3803  20.4632  20.4860  20.6462  20.6783  20.7053  20.7158
    20.7544  20.7814  20.7950  20.8113  20.8243  20.8442  20.8481  20.9033
    20.9062  21.0225  21.0290  21.1648  21.2161  21.2520  21.3657  21.4077
    21.4961  21.5231  21.5342  21.5438  21.5848  21.6045  21.6309  21.6681
    21.7009  21.7718  21.8683  21.8686  21.9481  21.9639  21.9710  22.0060
    22.0550  22.0698  22.2001  22.2605  22.2874  22.3156  22.3506  22.4224
    22.4231  22.5166  22.8235  22.9788  23.0051  23.0677  23.2981  23.4310
    23.7788  24.1889  24.2080

          k = 0.0556 0.3889 0.2525 ( 33187 PWs)   bands (ev):

   -52.4280 -52.4058 -52.3553 -52.3460 -52.3417 -52.3350 -52.3313 -52.3210
   -52.3092 -52.3078 -52.3051 -52.3045 -52.3010 -52.2835 -52.2807 -52.2736
   -52.1248 -52.1177 -52.1133 -52.1075 -52.0897 -52.0892 -52.0868 -52.0864
   -52.0841 -52.0825 -52.0823 -52.0798 -52.0559 -52.0543 -52.0425 -52.0419
   -22.7349 -22.7226 -22.7211 -22.7078 -22.6891 -22.6852 -22.6663 -22.6570
   -22.6514 -22.6471 -22.6396 -22.6259 -22.6223 -22.6216 -22.5229 -22.5197
   -22.4640 -22.4578 -22.4472 -22.4458 -22.4440 -22.4272 -22.4221 -22.4162
   -22.4123 -22.4107 -22.4031 -22.3840 -22.3794 -22.3526 -22.3046 -22.2388
   -22.2373 -22.2280 -22.2134 -22.2126 -22.2013 -22.1873 -22.1774 -22.1738
   -22.1722 -22.1701 -22.1629 -22.1602 -22.1582 -22.1547 -22.1511 -22.1438
   -22.1407 -22.1242 -22.1193 -22.1111 -22.1081 -22.1006 -22.0946 -22.0839
   -22.0674 -22.0653 -22.0537 -22.0450 -22.0341 -22.0336 -22.0241 -22.0194
   -21.9775 -21.9753 -21.9713 -21.9705 -21.9695 -21.9660 -21.9617 -21.9549
   -21.9522 -21.9423 -21.9397 -21.9337 -21.9271 -21.9212 -21.9188 -21.9096
   -21.9031 -21.8995 -21.8872 -21.8866 -21.8771 -21.8722 -21.8632 -21.8594
   -21.8482 -21.8470 -21.8405 -21.8371 -21.8236 -21.8234 -21.8181 -21.8104
    13.8601  14.5014  15.0036  15.1285  15.1561  15.2422  15.2552  15.3398
    15.3733  15.4328  15.4750  15.4837  15.4908  15.5135  15.5195  15.5464
    15.5782  15.6346  15.6869  15.7449  15.7631  15.8070  15.9051  15.9815
    15.9906  16.1323  16.2221  16.2279  16.2287  16.2663  16.2687  16.2699
    16.4368  16.4483  16.4712  16.4993  16.5097  16.6381  16.6627  16.6764
    16.6900  16.7326  16.7438  16.7755  16.8939  16.9040  16.9244  16.9411
    17.1732  17.1739  17.1842  17.3657  17.4672  17.4779  17.5133  17.5852
    17.6637  17.7321  17.7924  17.8072  17.8380  17.9136  17.9283  17.9770
    17.9865  18.0304  18.0384  18.0767  18.0829  18.0991  18.2008  18.2645
    18.3161  18.3805  18.3989  18.4089  18.4155  18.4537  18.4618  18.4648
    18.4714  18.4718  18.5023  18.5311  18.5786  18.6177  18.6291  18.6733
    18.7245  18.7367  18.7954  18.8229  18.8327  19.0555  19.1268  19.1990
    19.2205  19.3117  19.3157  19.3450  19.3740  19.3972  19.4095  19.4503
    19.5156  19.5190  19.5696  19.5819  19.5869  19.6049  19.7242  19.8674
    19.8888  19.9652  20.0038  20.0202  20.0824  20.1725  20.2105  20.2159
    20.3698  20.4498  20.5063  20.6166  20.6277  20.7070  20.7207  20.7480
    20.8188  20.8560  20.8576  20.8669  20.9218  20.9265  20.9627  21.0601
    21.0671  21.0814  21.1373  21.2000  21.2502  21.3621  21.4219  21.4378
    21.4936  21.5163  21.5310  21.5803  21.5804  21.5844  21.6052  21.6470
    21.6492  21.6814  21.7928  21.8337  21.9289  21.9514  21.9875  22.0388
    22.0802  22.1853  22.2051  22.2055  22.2236  22.2460  22.4100  22.4102
    22.4538  22.5233  22.5816  22.7658  22.8913  22.9092  23.5182  23.8938
    24.3729  24.6796  24.6983

          k = 0.0556 0.3889 0.3535 ( 33198 PWs)   bands (ev):

   -52.4280 -52.4057 -52.3553 -52.3460 -52.3417 -52.3350 -52.3314 -52.3211
   -52.3092 -52.3078 -52.3051 -52.3045 -52.3010 -52.2836 -52.2807 -52.2736
   -52.1234 -52.1191 -52.1124 -52.1084 -52.0896 -52.0892 -52.0868 -52.0866
   -52.0841 -52.0824 -52.0823 -52.0799 -52.0559 -52.0543 -52.0425 -52.0419
   -22.7344 -22.7222 -22.7200 -22.7068 -22.6886 -22.6852 -22.6662 -22.6553
   -22.6509 -22.6471 -22.6396 -22.6255 -22.6224 -22.6211 -22.5225 -22.5203
   -22.4659 -22.4610 -22.4507 -22.4489 -22.4458 -22.4289 -22.4233 -22.4173
   -22.4131 -22.4104 -22.4093 -22.3846 -22.3783 -22.3507 -22.3043 -22.2370
   -22.2318 -22.2274 -22.2160 -22.2112 -22.1977 -22.1850 -22.1807 -22.1724
   -22.1669 -22.1663 -22.1663 -22.1652 -22.1557 -22.1489 -22.1450 -22.1409
   -22.1398 -22.1251 -22.1188 -22.1125 -22.1081 -22.1022 -22.0959 -22.0786
   -22.0658 -22.0619 -22.0521 -22.0437 -22.0355 -22.0327 -22.0256 -22.0250
   -21.9878 -21.9751 -21.9742 -21.9741 -21.9716 -21.9695 -21.9634 -21.9569
   -21.9515 -21.9458 -21.9382 -21.9329 -21.9274 -21.9194 -21.9158 -21.9074
   -21.9025 -21.8998 -21.8882 -21.8828 -21.8758 -21.8747 -21.8655 -21.8580
   -21.8458 -21.8456 -21.8417 -21.8350 -21.8262 -21.8223 -21.8194 -21.8089
    13.9638  14.5864  14.8520  15.1717  15.1837  15.2101  15.2646  15.3697
    15.3781  15.3927  15.4461  15.4640  15.4943  15.5427  15.5524  15.5593
    15.5904  15.6259  15.6706  15.7064  15.7515  15.8384  15.8834  15.9861
    15.9895  16.1165  16.1457  16.1886  16.2349  16.2401  16.3140  16.3303
    16.3547  16.3700  16.4663  16.4731  16.4869  16.5412  16.6258  16.6324
    16.6376  16.6488  16.6621  16.6854  16.8354  16.8577  16.8779  16.9113
    17.1883  17.2365  17.2490  17.3309  17.4926  17.5472  17.5489  17.5906
    17.7162  17.8138  17.8690  17.9287  17.9441  17.9663  17.9921  18.0102
    18.0214  18.0892  18.1156  18.1556  18.1796  18.2515  18.3197  18.3284
    18.3540  18.3808  18.3939  18.4130  18.4197  18.4814  18.5259  18.5721
    18.5886  18.5900  18.5963  18.6112  18.6310  18.6457  18.6564  18.7164
    18.7358  18.7742  18.7792  18.8017  18.9650  18.9966  18.9984  19.0030
    19.0796  19.1303  19.1507  19.2432  19.2470  19.2489  19.2701  19.2916
    19.4563  19.5008  19.5210  19.5627  19.5687  19.5780  19.6885  19.7680
    19.7908  19.8171  19.8970  19.9185  19.9384  19.9714  20.0132  20.2996
    20.3822  20.5522  20.5799  20.5847  20.6273  20.7377  20.7621  20.7861
    20.8410  20.9000  20.9358  21.0574  21.0676  21.0739  21.0794  21.1460
    21.1505  21.1927  21.1967  21.3354  21.4038  21.4395  21.4448  21.4631
    21.4679  21.4844  21.4860  21.5440  21.5739  21.5847  21.5930  21.6098
    21.6450  21.7079  21.7667  21.8195  21.9112  21.9423  21.9843  22.0263
    22.0772  22.0847  22.1170  22.1302  22.1370  22.1428  22.2091  22.3247
    22.3957  22.5014  22.6438  22.8252  22.9689  23.0170  24.0320  24.1440
    24.2934  24.3888  25.0221

          k = 0.0556 0.3889-0.4545 ( 33200 PWs)   bands (ev):

   -52.4280 -52.4057 -52.3553 -52.3460 -52.3417 -52.3350 -52.3314 -52.3211
   -52.3092 -52.3078 -52.3051 -52.3045 -52.3010 -52.2836 -52.2807 -52.2736
   -52.1224 -52.1201 -52.1118 -52.1089 -52.0895 -52.0891 -52.0869 -52.0867
   -52.0841 -52.0824 -52.0823 -52.0799 -52.0559 -52.0543 -52.0426 -52.0419
   -22.7342 -22.7220 -22.7196 -22.7065 -22.6884 -22.6852 -22.6662 -22.6546
   -22.6507 -22.6471 -22.6397 -22.6252 -22.6225 -22.6209 -22.5223 -22.5206
   -22.4667 -22.4621 -22.4519 -22.4499 -22.4466 -22.4294 -22.4240 -22.4177
   -22.4133 -22.4118 -22.4104 -22.3848 -22.3780 -22.3499 -22.3042 -22.2370
   -22.2290 -22.2274 -22.2173 -22.2103 -22.1956 -22.1836 -22.1821 -22.1731
   -22.1681 -22.1678 -22.1639 -22.1638 -22.1552 -22.1460 -22.1422 -22.1399
   -22.1394 -22.1254 -22.1205 -22.1133 -22.1065 -22.1030 -22.0968 -22.0762
   -22.0660 -22.0591 -22.0513 -22.0434 -22.0366 -22.0317 -22.0280 -22.0270
   -21.9916 -21.9763 -21.9759 -21.9732 -21.9725 -21.9707 -21.9640 -21.9574
   -21.9514 -21.9470 -21.9377 -21.9328 -21.9278 -21.9188 -21.9148 -21.9064
   -21.9041 -21.8981 -21.8890 -21.8813 -21.8775 -21.8732 -21.8669 -21.8571
   -21.8451 -21.8445 -21.8425 -21.8343 -21.8275 -21.8209 -21.8208 -21.8084
    14.0168  14.6287  14.7701  15.1915  15.1954  15.2080  15.2797  15.3268
    15.3715  15.3900  15.4419  15.4599  15.4987  15.5509  15.5683  15.5762
    15.5942  15.6227  15.6643  15.7063  15.7464  15.8514  15.8709  15.9804
    15.9929  16.1147  16.1333  16.2034  16.2212  16.2384  16.2899  16.2959
    16.3667  16.3965  16.4343  16.4603  16.5017  16.5036  16.5617  16.5880
    16.6001  16.6110  16.6492  16.7386  16.7816  16.8014  16.8738  16.9196
    17.1939  17.2576  17.2645  17.3091  17.5295  17.5394  17.6213  17.6673
    17.7122  17.7455  17.8605  17.9269  17.9909  17.9997  18.0124  18.0426
    18.0455  18.0842  18.1293  18.2681  18.2846  18.2955  18.3447  18.3536
    18.3659  18.3702  18.4251  18.4299  18.4788  18.5146  18.5711  18.5783
    18.6394  18.6514  18.6568  18.6604  18.6777  18.6809  18.7205  18.7262
    18.7364  18.7728  18.7863  18.8113  18.8125  18.8932  18.9258  18.9290
    19.0255  19.0900  19.1169  19.1588  19.1624  19.1953  19.2176  19.2555
    19.4401  19.5010  19.5885  19.5985  19.6023  19.6048  19.6728  19.6901
    19.7204  19.7483  19.7593  19.8626  19.8628  19.8813  19.9833  20.2750
    20.3702  20.5191  20.6432  20.6518  20.6638  20.7565  20.7903  20.8141
    20.8344  20.9676  20.9724  21.0060  21.1087  21.1171  21.1362  21.2179
    21.2195  21.2482  21.3091  21.3536  21.3795  21.3913  21.4160  21.4180
    21.4638  21.4957  21.5678  21.5819  21.5821  21.6029  21.6034  21.6480
    21.6602  21.6771  21.7316  21.8379  21.9375  21.9412  21.9716  22.0208
    22.0261  22.0470  22.0753  22.0835  22.0869  22.1329  22.2104  22.2268
    22.2766  22.3898  22.6274  22.7774  23.2709  23.3256  23.7793  23.9912
    24.5108  24.6820  24.7502

          k = 0.0556-0.5000 0.0505 ( 33172 PWs)   bands (ev):

   -52.4180 -52.4180 -52.3510 -52.3510 -52.3386 -52.3386 -52.3264 -52.3264
   -52.3069 -52.3069 -52.3040 -52.3040 -52.2930 -52.2930 -52.2768 -52.2768
   -52.1211 -52.1211 -52.1116 -52.1116 -52.0897 -52.0897 -52.0864 -52.0864
   -52.0834 -52.0834 -52.0809 -52.0809 -52.0487 -52.0487 -52.0476 -52.0476
   -22.7044 -22.7044 -22.6901 -22.6901 -22.6878 -22.6878 -22.6762 -22.6762
   -22.6610 -22.6610 -22.6551 -22.6551 -22.6424 -22.6424 -22.5231 -22.5231
   -22.4362 -22.4362 -22.4345 -22.4345 -22.4271 -22.4271 -22.4226 -22.4226
   -22.4155 -22.4155 -22.4009 -22.4009 -22.3758 -22.3758 -22.2685 -22.2685
   -22.2162 -22.2162 -22.2116 -22.2116 -22.1995 -22.1995 -22.1888 -22.1888
   -22.1873 -22.1873 -22.1463 -22.1463 -22.1425 -22.1425 -22.1413 -22.1413
   -22.1300 -22.1300 -22.1299 -22.1299 -22.1274 -22.1274 -22.0909 -22.0909
   -22.0750 -22.0750 -22.0548 -22.0548 -22.0368 -22.0368 -22.0153 -22.0153
   -21.9683 -21.9683 -21.9632 -21.9632 -21.9583 -21.9583 -21.9553 -21.9553
   -21.9392 -21.9391 -21.9293 -21.9292 -21.9258 -21.9258 -21.9142 -21.9142
   -21.8861 -21.8861 -21.8798 -21.8798 -21.8795 -21.8795 -21.8625 -21.8625
   -21.8508 -21.8508 -21.8405 -21.8405 -21.8373 -21.8373 -21.8259 -21.8259
    14.0275  14.0275  15.2316  15.2316  15.2950  15.2950  15.3261  15.3261
    15.3780  15.3780  15.4911  15.4911  15.4990  15.4990  15.5615  15.5615
    15.5905  15.5905  15.6912  15.6912  15.6921  15.6921  15.8816  15.8816
    16.0918  16.0918  16.1785  16.1785  16.3264  16.3264  16.4482  16.4482
    16.5090  16.5090  16.5858  16.5858  16.5957  16.5957  16.6048  16.6048
    16.7468  16.7468  16.8882  16.8882  16.9056  16.9056  17.0941  17.0941
    17.1510  17.1510  17.1642  17.1642  17.4233  17.4233  17.5825  17.5825
    17.6356  17.6356  17.6364  17.6364  17.6504  17.6504  17.6610  17.6610
    17.7964  17.7964  18.0542  18.0542  18.1023  18.1023  18.1842  18.1842
    18.2024  18.2024  18.2236  18.2236  18.2623  18.2623  18.3113  18.3113
    18.4196  18.4196  18.5274  18.5274  18.5322  18.5322  18.6603  18.6603
    18.6973  18.6973  19.0322  19.0322  19.1951  19.1951  19.2211  19.2211
    19.4564  19.4564  19.4747  19.4747  19.5021  19.5021  19.5594  19.5594
    19.6687  19.6687  19.8625  19.8625  19.8794  19.8794  20.0261  20.0261
    20.1117  20.1117  20.1288  20.1288  20.1706  20.1706  20.2355  20.2355
    20.2518  20.2518  20.3494  20.3494  20.5749  20.5749  20.6547  20.6547
    20.6651  20.6651  20.8045  20.8045  20.8792  20.8792  20.9679  20.9679
    20.9815  20.9815  21.1889  21.1889  21.2499  21.2499  21.2917  21.2917
    21.5150  21.5150  21.5781  21.5781  21.7143  21.7143  21.7222  21.7222
    21.8099  21.8099  21.8204  21.8204  21.8630  21.8630  21.9304  21.9304
    22.0263  22.0263  22.2659  22.2659  22.3329  22.3329  22.3958  22.3958
    22.4781  22.4781  22.4995  22.4995  23.0334  23.0334  23.5294  23.5294
    23.5309  23.5309  24.0547

          k = 0.0556-0.5000 0.1515 ( 33188 PWs)   bands (ev):

   -52.4179 -52.4179 -52.3510 -52.3510 -52.3386 -52.3386 -52.3264 -52.3264
   -52.3069 -52.3069 -52.3040 -52.3040 -52.2930 -52.2930 -52.2768 -52.2768
   -52.1206 -52.1206 -52.1122 -52.1122 -52.0897 -52.0897 -52.0865 -52.0865
   -52.0833 -52.0833 -52.0809 -52.0809 -52.0487 -52.0487 -52.0476 -52.0476
   -22.7044 -22.7044 -22.6894 -22.6894 -22.6880 -22.6880 -22.6755 -22.6755
[...]
   -22.0352 -22.0352 -22.0352 -22.0352 -22.0351 -22.0351 -22.0351 -22.0351
   -22.0062 -22.0062 -22.0062 -22.0062 -21.9914 -21.9914 -21.9914 -21.9914
   -21.9563 -21.9563 -21.9563 -21.9563 -21.9563 -21.9563 -21.9563 -21.9563
   -21.9204 -21.9204 -21.9204 -21.9204 -21.8898 -21.8898 -21.8898 -21.8898
   -21.8015 -21.8015 -21.8015 -21.8015 -21.7854 -21.7854 -21.7854 -21.7854
    14.6245  14.6245  14.6245  14.6245  15.3222  15.3222  15.3222  15.3222
    15.6518  15.6518  15.6518  15.6518  15.7254  15.7254  15.7254  15.7254
    15.7254  15.7254  15.7254  15.7254  15.8402  15.8402  15.8402  15.8402
    15.8758  15.8758  15.8758  15.8758  15.8758  15.8758  15.8758  15.8758
    16.4522  16.4522  16.4523  16.4523  16.5328  16.5328  16.5328  16.5328
    16.5328  16.5328  16.5328  16.5328  17.1374  17.1374  17.1375  17.1375
    17.1375  17.1375  17.1375  17.1375  17.3956  17.3956  17.3956  17.3956
    17.7589  17.7589  17.7589  17.7589  17.8608  17.8608  17.8608  17.8608
    18.3258  18.3258  18.3258  18.3258  18.4244  18.4244  18.4244  18.4244
    18.5020  18.5020  18.5020  18.5020  18.6271  18.6271  18.6271  18.6271
    18.6272  18.6272  18.6272  18.6272  18.6716  18.6716  18.6716  18.6716
    18.9406  18.9406  18.9406  18.9406  19.0192  19.0192  19.0192  19.0192
    19.1953  19.1953  19.1953  19.1953  19.1953  19.1953  19.1953  19.1953
    19.3894  19.3894  19.3894  19.3894  19.3894  19.3894  19.3894  19.3894
    19.6116  19.6116  19.6116  19.6116  20.0811  20.0811  20.0811  20.0811
    20.4752  20.4752  20.4752  20.4752  20.8547  20.8547  20.8547  20.8547
    20.9423  20.9423  20.9423  20.9423  20.9423  20.9423  20.9423  20.9423
    21.2825  21.2825  21.2825  21.2825  21.2825  21.2825  21.2825  21.2825
    21.3469  21.3469  21.3469  21.3469  21.4065  21.4065  21.4065  21.4065
    21.9256  21.9256  21.9256  21.9256  21.9346  21.9346  21.9346  21.9346
    22.1013  22.1013  22.1013  22.1013  22.1013  22.1013  22.1013  22.1013
    22.2052  22.2052  22.2052  22.2052  24.9887  24.9887  24.9887  24.9887
    24.9887  24.9887  24.9887

          k =-0.5000-0.5000 0.1515 ( 33188 PWs)   bands (ev):

   -52.3963 -52.3963 -52.3963 -52.3963 -52.3194 -52.3194 -52.3194 -52.3194
   -52.2959 -52.2959 -52.2959 -52.2958 -52.2958 -52.2958 -52.2958 -52.2958
   -52.1111 -52.1111 -52.1111 -52.1111 -52.1047 -52.1047 -52.1047 -52.1047
   -52.0595 -52.0595 -52.0595 -52.0595 -52.0595 -52.0595 -52.0595 -52.0595
   -22.7020 -22.7020 -22.7019 -22.7019 -22.7019 -22.7019 -22.7019 -22.7019
   -22.6339 -22.6339 -22.6339 -22.6339 -22.5619 -22.5619 -22.5619 -22.5619
   -22.4816 -22.4816 -22.4816 -22.4816 -22.4816 -22.4816 -22.4816 -22.4816
   -22.3509 -22.3509 -22.3509 -22.3509 -22.2720 -22.2720 -22.2720 -22.2720
   -22.2316 -22.2316 -22.2316 -22.2316 -22.2316 -22.2316 -22.2316 -22.2316
   -22.1281 -22.1281 -22.1281 -22.1281 -22.1242 -22.1242 -22.1242 -22.1242
   -22.1241 -22.1241 -22.1241 -22.1241 -22.0599 -22.0599 -22.0599 -22.0599
   -22.0348 -22.0348 -22.0348 -22.0348 -22.0347 -22.0347 -22.0347 -22.0347
   -22.0064 -22.0064 -22.0064 -22.0064 -22.0028 -22.0028 -22.0028 -22.0028
   -21.9566 -21.9566 -21.9566 -21.9566 -21.9566 -21.9566 -21.9566 -21.9565
   -21.9126 -21.9126 -21.9126 -21.9126 -21.8888 -21.8888 -21.8888 -21.8888
   -21.8005 -21.8005 -21.8005 -21.8005 -21.7863 -21.7863 -21.7863 -21.7863
    14.6404  14.6404  14.6404  14.6404  15.2910  15.2910  15.2910  15.2910
    15.6141  15.6141  15.6141  15.6141  15.7172  15.7172  15.7172  15.7172
    15.7172  15.7172  15.7172  15.7172  15.8689  15.8689  15.8689  15.8689
    15.8689  15.8689  15.8689  15.8689  15.9044  15.9044  15.9045  15.9045
    16.4482  16.4482  16.4483  16.4483  16.5651  16.5651  16.5651  16.5651
    16.5651  16.5651  16.5651  16.5651  17.1298  17.1298  17.1298  17.1298
    17.1298  17.1298  17.1298  17.1298  17.3746  17.3746  17.3746  17.3746
    17.7871  17.7871  17.7871  17.7871  17.8454  17.8454  17.8454  17.8454
    18.3540  18.3540  18.3540  18.3540  18.4097  18.4097  18.4098  18.4098
    18.5561  18.5561  18.5561  18.5561  18.6231  18.6231  18.6231  18.6231
    18.6232  18.6232  18.6232  18.6232  18.6667  18.6667  18.6667  18.6667
    18.9254  18.9254  18.9254  18.9254  18.9767  18.9767  18.9767  18.9767
    19.2106  19.2106  19.2107  19.2107  19.2107  19.2107  19.2107  19.2107
    19.4157  19.4157  19.4157  19.4157  19.4157  19.4157  19.4157  19.4157
    19.6545  19.6545  19.6545  19.6545  20.0951  20.0951  20.0951  20.0951
    20.3689  20.3689  20.3689  20.3689  20.6112  20.6112  20.6112  20.6112
    20.6112  20.6112  20.6112  20.6112  20.8387  20.8387  20.8387  20.8387
    21.0506  21.0506  21.0506  21.0506  21.3186  21.3187  21.3187  21.3187
    21.5646  21.5646  21.5646  21.5646  21.5646  21.5646  21.5646  21.5646
    21.9808  21.9808  21.9808  21.9808  22.1347  22.1347  22.1347  22.1347
    22.1347  22.1347  22.1347  22.1347  22.2185  22.2185  22.2185  22.2185
    22.4952  22.4952  22.4952  22.4952  25.0312  25.0312  25.0312  25.0312
    25.0312  25.0312  25.0312

          k =-0.5000-0.5000 0.2525 ( 33204 PWs)   bands (ev):

   -52.3963 -52.3963 -52.3963 -52.3963 -52.3194 -52.3194 -52.3194 -52.3194
   -52.2959 -52.2959 -52.2959 -52.2959 -52.2959 -52.2959 -52.2958 -52.2958
   -52.1105 -52.1105 -52.1105 -52.1105 -52.1053 -52.1053 -52.1053 -52.1053
   -52.0595 -52.0595 -52.0595 -52.0595 -52.0595 -52.0595 -52.0595 -52.0595
   -22.7018 -22.7018 -22.7018 -22.7018 -22.7018 -22.7018 -22.7018 -22.7017
   -22.6346 -22.6346 -22.6346 -22.6346 -22.5643 -22.5643 -22.5643 -22.5643
   -22.4819 -22.4819 -22.4819 -22.4819 -22.4819 -22.4819 -22.4819 -22.4819
   -22.3447 -22.3447 -22.3447 -22.3447 -22.2689 -22.2689 -22.2689 -22.2689
   -22.2320 -22.2320 -22.2320 -22.2320 -22.2320 -22.2320 -22.2320 -22.2320
   -22.1280 -22.1280 -22.1280 -22.1280 -22.1237 -22.1237 -22.1237 -22.1237
   -22.1237 -22.1237 -22.1237 -22.1237 -22.0610 -22.0610 -22.0610 -22.0610
   -22.0342 -22.0342 -22.0342 -22.0342 -22.0342 -22.0342 -22.0342 -22.0342
   -22.0187 -22.0187 -22.0187 -22.0187 -22.0067 -22.0067 -22.0067 -22.0067
   -21.9571 -21.9571 -21.9571 -21.9571 -21.9571 -21.9571 -21.9571 -21.9570
   -21.9029 -21.9029 -21.9029 -21.9029 -21.8877 -21.8877 -21.8877 -21.8877
   -21.7986 -21.7986 -21.7986 -21.7986 -21.7881 -21.7881 -21.7881 -21.7881
    14.6677  14.6677  14.6678  14.6678  15.2368  15.2368  15.2368  15.2368
    15.5886  15.5886  15.5886  15.5886  15.7103  15.7103  15.7103  15.7103
    15.7103  15.7103  15.7103  15.7103  15.8502  15.8502  15.8502  15.8502
    15.8502  15.8502  15.8502  15.8502  15.9770  15.9770  15.9770  15.9770
    16.4381  16.4381  16.4381  16.4381  16.6308  16.6308  16.6308  16.6308
    16.6308  16.6308  16.6308  16.6308  17.0995  17.0995  17.0995  17.0995
    17.0995  17.0995  17.0995  17.0995  17.3406  17.3406  17.3406  17.3406
    17.8243  17.8243  17.8243  17.8243  17.8498  17.8498  17.8498  17.8498
    18.3709  18.3709  18.3709  18.3709  18.4188  18.4188  18.4188  18.4188
    18.6185  18.6185  18.6185  18.6185  18.6293  18.6293  18.6293  18.6293
    18.6293  18.6293  18.6293  18.6293  18.6594  18.6594  18.6594  18.6594
    18.9039  18.9039  18.9039  18.9039  18.9087  18.9087  18.9087  18.9087
    19.2342  19.2342  19.2342  19.2342  19.2342  19.2342  19.2342  19.2342
    19.4695  19.4695  19.4695  19.4695  19.4695  19.4695  19.4695  19.4695
    19.7251  19.7251  19.7251  19.7251  20.1092  20.1092  20.1092  20.1092
    20.1918  20.1918  20.1918  20.1918  20.2908  20.2908  20.2908  20.2908
    20.2908  20.2908  20.2908  20.2908  20.8272  20.8272  20.8272  20.8272
    20.8870  20.8870  20.8870  20.8870  21.1907  21.1907  21.1907  21.1907
    21.7852  21.7852  21.7852  21.7852  21.7852  21.7852  21.7852  21.7852
    22.0468  22.0468  22.0468  22.0468  22.1892  22.1892  22.1892  22.1892
    22.1892  22.1892  22.1892  22.1892  22.2382  22.2382  22.2382  22.2382
    23.1621  23.1621  23.1621  23.1621  25.1151  25.1151  25.1151  25.1151
    25.1151  25.1151  25.1151

          k =-0.5000-0.5000 0.3535 ( 33204 PWs)   bands (ev):

   -52.3963 -52.3963 -52.3962 -52.3962 -52.3195 -52.3195 -52.3195 -52.3195
   -52.2959 -52.2959 -52.2958 -52.2958 -52.2958 -52.2958 -52.2958 -52.2958
   -52.1098 -52.1098 -52.1098 -52.1098 -52.1059 -52.1059 -52.1059 -52.1059
   -52.0595 -52.0595 -52.0595 -52.0595 -52.0595 -52.0595 -52.0595 -52.0595
   -22.7016 -22.7016 -22.7016 -22.7016 -22.7016 -22.7016 -22.7016 -22.7016
   -22.6352 -22.6352 -22.6352 -22.6352 -22.5663 -22.5663 -22.5663 -22.5663
   -22.4822 -22.4822 -22.4822 -22.4822 -22.4821 -22.4821 -22.4821 -22.4821
   -22.3391 -22.3391 -22.3391 -22.3391 -22.2663 -22.2663 -22.2663 -22.2663
   -22.2323 -22.2323 -22.2323 -22.2323 -22.2323 -22.2323 -22.2323 -22.2323
   -22.1279 -22.1279 -22.1279 -22.1279 -22.1233 -22.1233 -22.1233 -22.1233
   -22.1233 -22.1233 -22.1233 -22.1233 -22.0600 -22.0600 -22.0600 -22.0600
   -22.0337 -22.0337 -22.0337 -22.0337 -22.0337 -22.0337 -22.0337 -22.0337
   -22.0335 -22.0335 -22.0335 -22.0335 -22.0070 -22.0070 -22.0070 -22.0070
   -21.9575 -21.9575 -21.9575 -21.9575 -21.9575 -21.9575 -21.9575 -21.9575
   -21.8950 -21.8950 -21.8950 -21.8950 -21.8877 -21.8877 -21.8877 -21.8877
   -21.7961 -21.7961 -21.7961 -21.7961 -21.7905 -21.7905 -21.7904 -21.7904
    14.6960  14.6960  14.6960  14.6960  15.1837  15.1838  15.1838  15.1838
    15.5794  15.5794  15.5794  15.5794  15.7102  15.7102  15.7102  15.7102
    15.7103  15.7103  15.7103  15.7103  15.8263  15.8263  15.8263  15.8263
    15.8263  15.8263  15.8263  15.8263  16.0328  16.0328  16.0328  16.0328
    16.4237  16.4237  16.4237  16.4237  16.7149  16.7149  16.7149  16.7149
    16.7149  16.7149  16.7149  16.7149  17.0432  17.0432  17.0432  17.0432
    17.0432  17.0432  17.0432  17.0432  17.3100  17.3100  17.3100  17.3100
    17.8388  17.8388  17.8388  17.8388  17.8900  17.8900  17.8900  17.8900
    18.3582  18.3582  18.3582  18.3582  18.4728  18.4728  18.4728  18.4728
    18.6269  18.6269  18.6269  18.6269  18.6469  18.6469  18.6469  18.6469
    18.6469  18.6469  18.6469  18.6469  18.6532  18.6532  18.6533  18.6533
    18.8613  18.8613  18.8613  18.8613  18.8866  18.8866  18.8866  18.8866
    19.2565  19.2565  19.2565  19.2565  19.2565  19.2565  19.2565  19.2565
    19.5565  19.5565  19.5565  19.5565  19.5565  19.5565  19.5565  19.5565
    19.7974  19.7974  19.7974  19.7974  20.0144  20.0144  20.0144  20.0144
    20.0144  20.0144  20.0144  20.0144  20.0413  20.0414  20.0414  20.0414
    20.1077  20.1077  20.1077  20.1077  20.8140  20.8140  20.8140  20.8140
    20.8475  20.8475  20.8475  20.8475  21.0608  21.0608  21.0608  21.0608
    21.9209  21.9209  21.9209  21.9209  21.9209  21.9209  21.9209  21.9209
    22.0944  22.0944  22.0944  22.0944  22.2416  22.2416  22.2416  22.2416
    22.2416  22.2416  22.2416  22.2416  22.2549  22.2549  22.2549  22.2549
    23.8918  23.8918  23.8918  23.8918  25.2239  25.2239  25.2239  25.2239
    25.2239  25.2239  25.2240

          k =-0.5000-0.5000-0.4545 ( 33144 PWs)   bands (ev):

   -52.3962 -52.3962 -52.3962 -52.3962 -52.3195 -52.3195 -52.3195 -52.3195
   -52.2959 -52.2959 -52.2958 -52.2958 -52.2958 -52.2958 -52.2958 -52.2958
   -52.1094 -52.1094 -52.1094 -52.1094 -52.1063 -52.1063 -52.1063 -52.1063
   -52.0595 -52.0595 -52.0595 -52.0595 -52.0595 -52.0595 -52.0595 -52.0595
   -22.7015 -22.7015 -22.7015 -22.7015 -22.7015 -22.7015 -22.7015 -22.7015
   -22.6354 -22.6354 -22.6354 -22.6354 -22.5670 -22.5670 -22.5670 -22.5670
   -22.4822 -22.4822 -22.4822 -22.4822 -22.4822 -22.4822 -22.4822 -22.4822
   -22.3368 -22.3368 -22.3368 -22.3368 -22.2652 -22.2652 -22.2652 -22.2652
   -22.2325 -22.2325 -22.2324 -22.2324 -22.2324 -22.2324 -22.2324 -22.2324
   -22.1278 -22.1278 -22.1278 -22.1278 -22.1232 -22.1232 -22.1232 -22.1232
   -22.1232 -22.1232 -22.1232 -22.1232 -22.0581 -22.0581 -22.0581 -22.0581
   -22.0406 -22.0406 -22.0406 -22.0406 -22.0335 -22.0335 -22.0335 -22.0335
   -22.0335 -22.0334 -22.0334 -22.0334 -22.0070 -22.0070 -22.0070 -22.0070
   -21.9577 -21.9577 -21.9577 -21.9577 -21.9577 -21.9577 -21.9577 -21.9577
   -21.8907 -21.8907 -21.8907 -21.8907 -21.8891 -21.8891 -21.8891 -21.8891
   -21.7932 -21.7932 -21.7932 -21.7932 -21.7932 -21.7932 -21.7932 -21.7932
    14.7087  14.7087  14.7087  14.7087  15.1613  15.1613  15.1613  15.1613
    15.5776  15.5776  15.5776  15.5776  15.7123  15.7123  15.7123  15.7123
    15.7123  15.7123  15.7123  15.7123  15.8145  15.8145  15.8145  15.8145
    15.8145  15.8145  15.8145  15.8145  16.0545  16.0545  16.0545  16.0545
    16.4162  16.4162  16.4162  16.4162  16.7637  16.7637  16.7637  16.7637
    16.7637  16.7637  16.7637  16.7637  17.0043  17.0043  17.0043  17.0043
    17.0043  17.0043  17.0043  17.0043  17.2980  17.2980  17.2980  17.2980
    17.8450  17.8450  17.8450  17.8450  17.9099  17.9099  17.9099  17.9099
    18.3510  18.3510  18.3511  18.3511  18.5256  18.5256  18.5257  18.5257
    18.5846  18.5846  18.5846  18.5846  18.6508  18.6508  18.6509  18.6509
    18.6569  18.6569  18.6569  18.6569  18.6569  18.6569  18.6569  18.6569
    18.8549  18.8549  18.8549  18.8549  18.8802  18.8802  18.8802  18.8802
    19.2659  19.2659  19.2659  19.2659  19.2659  19.2659  19.2659  19.2659
    19.6366  19.6366  19.6366  19.6366  19.6366  19.6366  19.6366  19.6366
    19.8312  19.8312  19.8312  19.8312  19.8644  19.8644  19.8644  19.8644
    19.8644  19.8644  19.8644  19.8644  19.9849  19.9849  19.9849  19.9849
    20.1003  20.1003  20.1003  20.1003  20.7925  20.7925  20.7925  20.7925
    20.8865  20.8865  20.8865  20.8865  20.9816  20.9816  20.9816  20.9816
    21.9657  21.9657  21.9657  21.9657  21.9657  21.9657  21.9657  21.9657
    22.1114  22.1114  22.1114  22.1114  22.2613  22.2613  22.2613  22.2613
    22.2636  22.2636  22.2636  22.2636  22.2636  22.2636  22.2636  22.2636
    24.5237  24.5237  24.5237  24.5237  24.8835  24.8835  24.8835  24.8835
    25.2867  25.2867  25.2867

     the Fermi energy is    20.6060 ev

!    total energy              =  -13812.68857674 Ry

     total all-electron energy =   -289989.078916 Ry
     estimated scf accuracy    <       0.00000060 Ry
     smearing contrib. (-TS)   =       0.01842579 Ry
     internal energy E=F+TS    =  -13812.70700253 Ry

     The total energy is F=E-TS. E is the sum of the following terms:
     one-electron contribution =   -1523.00729480 Ry
     hartree contribution      =    1133.57263888 Ry
     xc contribution           =    -925.95281426 Ry
     ewald contribution        =   -4907.95914290 Ry
     one-center paw contrib.   =   -7589.36038945 Ry

     convergence has been achieved in  14 iterations

     Forces acting on atoms (cartesian axes, Ry/au):

     atom    1 type  1   force =     0.00000000    0.00000000    0.05622638
     atom    2 type  1   force =    -0.00000074   -0.00000074    0.05621108
     atom    3 type  1   force =     0.00000241    0.00000000    0.03015675
     atom    4 type  1   force =     0.00000000    0.00000241    0.03015675
     atom    5 type  1   force =     0.00000000    0.00000000   -0.03016139
     atom    6 type  1   force =     0.00002489    0.00002489   -0.03014711
     atom    7 type  1   force =    -0.00000955    0.00000000   -0.05619205
     atom    8 type  1   force =     0.00000000   -0.00000955   -0.05619205
     atom    9 type  1   force =     0.00000000    0.00000000    0.05619277
     atom   10 type  1   force =    -0.00000074    0.00000074    0.05621108
     atom   11 type  1   force =    -0.00000561    0.00000000    0.03018384
     atom   12 type  1   force =     0.00000000   -0.00000241    0.03015675
     atom   13 type  1   force =     0.00000000    0.00000000   -0.03018596
     atom   14 type  1   force =     0.00002489   -0.00002489   -0.03014711
     atom   15 type  1   force =     0.00000469    0.00000000   -0.05623695
     atom   16 type  1   force =     0.00000000    0.00000955   -0.05619205
     atom   17 type  1   force =     0.00000000    0.00000000    0.05619277
     atom   18 type  1   force =     0.00000074   -0.00000074    0.05621108
     atom   19 type  1   force =    -0.00000241    0.00000000    0.03015675
     atom   20 type  1   force =     0.00000000   -0.00000561    0.03018384
     atom   21 type  1   force =     0.00000000    0.00000000   -0.03018596
     atom   22 type  1   force =    -0.00002489    0.00002489   -0.03014711
     atom   23 type  1   force =     0.00000955    0.00000000   -0.05619205
     atom   24 type  1   force =     0.00000000    0.00000469   -0.05623695
     atom   25 type  1   force =     0.00000000    0.00000000    0.05620465
     atom   26 type  1   force =     0.00000074    0.00000074    0.05621108
     atom   27 type  1   force =     0.00000561    0.00000000    0.03018384
     atom   28 type  1   force =     0.00000000    0.00000561    0.03018384
     atom   29 type  1   force =     0.00000000    0.00000000   -0.03018546
     atom   30 type  1   force =    -0.00002489   -0.00002489   -0.03014711
     atom   31 type  1   force =    -0.00000469   -0.00000000   -0.05623695
     atom   32 type  1   force =     0.00000000   -0.00000469   -0.05623695

     Total force =     0.255178     Total SCF correction =     0.005427


     Computing stress (Cartesian axis) and pressure

          total   stress  (Ry/bohr**3)                   (kbar)     P=     -130.76
  -0.00063085   0.00000000   0.00000000          -92.80        0.00        0.00
   0.00000000  -0.00063085   0.00000000            0.00      -92.80        0.00
   0.00000000   0.00000000  -0.00140503            0.00        0.00     -206.69


     Writing output data file /scratch/vLzakKnuRBOVFQHl.save/
 
     init_run     :     28.12s CPU     28.70s WALL (       1 calls)
     electrons    :   1178.40s CPU   1195.62s WALL (       1 calls)
     forces       :     11.65s CPU     11.75s WALL (       1 calls)
     stress       :     77.49s CPU     78.05s WALL (       1 calls)

     Called by init_run:
     wfcinit      :     27.36s CPU     27.86s WALL (       1 calls)
     potinit      :      0.29s CPU      0.31s WALL (       1 calls)
     hinit0       :      0.14s CPU      0.15s WALL (       1 calls)

     Called by electrons:
     c_bands      :   1046.85s CPU   1061.75s WALL (      15 calls)
     sum_band     :    128.79s CPU    130.68s WALL (      15 calls)
     v_of_rho     :      0.23s CPU      0.26s WALL (      15 calls)
     newd         :      0.54s CPU      0.71s WALL (      15 calls)
     PAW_pot      :      1.30s CPU      1.38s WALL (      15 calls)
     mix_rho      :      0.82s CPU      0.94s WALL (      15 calls)

     Called by c_bands:
     init_us_2    :      4.96s CPU      5.06s WALL (    2475 calls)
     cegterg      :   1027.69s CPU   1041.90s WALL (    1125 calls)

     Called by *egterg:
     cdiaghg      :    122.09s CPU    123.69s WALL (    4050 calls)
     h_psi        :    553.63s CPU    562.66s WALL (    4200 calls)
     s_psi        :     41.51s CPU     41.82s WALL (    4200 calls)
     g_psi        :      1.06s CPU      1.08s WALL (    3000 calls)

     Called by h_psi:
     h_psi:calbec :     77.61s CPU     78.39s WALL (    4200 calls)
     vloc_psi     :    432.93s CPU    440.48s WALL (    4200 calls)
     add_vuspsi   :     40.25s CPU     40.92s WALL (    4200 calls)

     General routines
     calbec       :    143.03s CPU    144.19s WALL (    5700 calls)
     fft          :      0.78s CPU      0.80s WALL (     219 calls)
     ffts         :      0.02s CPU      0.02s WALL (      30 calls)
     fftw         :    505.68s CPU    514.14s WALL ( 2002093 calls)
     interpolate  :      0.07s CPU      0.08s WALL (      15 calls)
 
     Parallel routines
     fft_scatt_xy :     34.49s CPU     35.02s WALL ( 2002342 calls)
     fft_scatt_yz :    410.43s CPU    417.52s WALL ( 2002342 calls)
 
     PWSCF        :  21m53.69s CPU  22m15.88s WALL

 
   This run was terminated on:  16:37:29  25Nov2021            

=------------------------------------------------------------------------------=
   JOB DONE.
=------------------------------------------------------------------------------=
