
     Program PWSCF v.6.7MaX starts on 25Nov2021 at 15:52:36 

     This program is part of the open-source Quantum ESPRESSO suite
     for quantum simulation of materials; please cite
         "P. Giannozzi et al., J. Phys.:Condens. Matter 21 395502 (2009);
         "P. Giannozzi et al., J. Phys.:Condens. Matter 29 465901 (2017);
          URL http://www.quantum-espresso.org", 
     in publications or presentations arising from this work. More details at
     http://www.quantum-espresso.org/quote

     Parallel version (MPI & OpenMP), running on      72 processor cores
     Number of MPI processes:                72
     Threads/MPI process:                     1

     MPI processes distributed on     1 nodes
     R & G space division:  proc/nbgrp/npool/nimage =      72
     Reading input from scf_2.in
Warning: card &CELL ignored
Warning: card CELL_DYNAMICS = 'BFGS', ignored
Warning: card CELL_FACTOR = 2.0, ignored
Warning: card PRESS = 0.0, ignored
Warning: card / ignored

     Current dimensions of program PWSCF are:
     Max number of different atomic species (ntypx) = 10
     Max number of k-points (npk) =  40000
     Max angular momentum in pseudopotentials (lmaxx) =  3
     file Ru.pbe-spn-kjpaw_psl.1.0.0.UPF: wavefunction(s)  4D renormalized

     Subspace diagonalization in iterative solution of the eigenvalue problem:
     one sub-group per band group will be used
     ELPA distributed-memory algorithm (size of sub-group:  8*  8 procs)

     Found symmetry operation: I + (  0.2500  0.2500  0.0000)
     This is a supercell, fractional translations are disabled
     Message from routine setup:
     using ibrav=0 with symmetry is DISCOURAGED, use correct ibrav instead
 
     Parallelization info
     --------------------
     sticks:   dense  smooth     PW     G-vecs:    dense   smooth      PW
     Min          98      65     17                 6558     3518     497
     Max          99      67     18                 6563     3523     504
     Sum        7113    4693   1281               472283   253461   36035
 


     bravais-lattice index     =            0
     lattice parameter (alat)  =      14.4007  a.u.
     unit-cell volume          =    3135.7676 (a.u.)^3
     number of atoms/cell      =           32
     number of atomic types    =            1
     number of electrons       =       512.00
     number of Kohn-Sham states=          307
     kinetic-energy cutoff     =      71.0000  Ry
     charge density cutoff     =     430.0000  Ry
     scf convergence threshold =      1.0E-06
     mixing beta               =       0.1000
     number of iterations used =           10  TF        mixing
     Exchange-correlation= SLA  PW   PBX  PBC
                           (   1   4   3   4   0   0   0)

     celldm(1)=  14.400742  celldm(2)=   0.000000  celldm(3)=   0.000000
     celldm(4)=   0.000000  celldm(5)=   0.000000  celldm(6)=   0.000000

     crystal axes: (cart. coord. in units of alat)
               a(1) = (   1.000000   0.000000   0.000000 )  
               a(2) = (   0.000000   1.000000   0.000000 )  
               a(3) = (   0.000000   0.000000   1.050000 )  

     reciprocal axes: (cart. coord. in units 2 pi/alat)
               b(1) = (  1.000000  0.000000  0.000000 )  
               b(2) = (  0.000000  1.000000  0.000000 )  
               b(3) = (  0.000000  0.000000  0.952381 )  


     PseudoPot. # 1 for Ru read from file:
     /rds/homes/b/bxp912/pp/Ru.pbe-spn-kjpaw_psl.1.0.0.UPF
     MD5 check sum: 0ae1f594dea09af7be8575c3a481d1ae
     Pseudo is Projector augmented-wave + core cor, Zval = 16.0
     Generated using "atomic" code by A. Dal Corso  v.5.1
     Shape of augmentation charge: PSQ
     Using radial grid of 1233 points,  6 beta functions with: 
                l(1) =   0
                l(2) =   0
                l(3) =   1
                l(4) =   1
                l(5) =   2
                l(6) =   2
     Q(r) pseudized with 0 coefficients 


     atomic species   valence    mass     pseudopotential
        Ru            16.00   101.07000     Ru( 1.00)

      8 Sym. Ops. (no inversion) found



   Cartesian axes

     site n.     atom                  positions (alat units)
         1           Ru  tau(   1) = (   0.0000000   0.0000000   0.0000000  )
         2           Ru  tau(   2) = (   0.2500000   0.2500000   0.0000000  )
         3           Ru  tau(   3) = (   0.2500000   0.0000000   0.2500000  )
         4           Ru  tau(   4) = (   0.0000000   0.2500000   0.2500000  )
         5           Ru  tau(   5) = (   0.0000000   0.0000000   0.5500000  )
         6           Ru  tau(   6) = (   0.2500000   0.2500000   0.5500000  )
         7           Ru  tau(   7) = (   0.2500000   0.0000000   0.8000000  )
         8           Ru  tau(   8) = (   0.0000000   0.2500000   0.8000000  )
         9           Ru  tau(   9) = (   0.0000000   0.5000000   0.0000000  )
        10           Ru  tau(  10) = (   0.2500000   0.7500000   0.0000000  )
        11           Ru  tau(  11) = (   0.2500000   0.5000000   0.2500000  )
        12           Ru  tau(  12) = (   0.0000000   0.7500000   0.2500000  )
        13           Ru  tau(  13) = (   0.0000000   0.5000000   0.5500000  )
        14           Ru  tau(  14) = (   0.2500000   0.7500000   0.5500000  )
        15           Ru  tau(  15) = (   0.2500000   0.5000000   0.8000000  )
        16           Ru  tau(  16) = (   0.0000000   0.7500000   0.8000000  )
        17           Ru  tau(  17) = (   0.5000000   0.0000000   0.0000000  )
        18           Ru  tau(  18) = (   0.7500000   0.2500000   0.0000000  )
        19           Ru  tau(  19) = (   0.7500000   0.0000000   0.2500000  )
        20           Ru  tau(  20) = (   0.5000000   0.2500000   0.2500000  )
        21           Ru  tau(  21) = (   0.5000000   0.0000000   0.5500000  )
        22           Ru  tau(  22) = (   0.7500000   0.2500000   0.5500000  )
        23           Ru  tau(  23) = (   0.7500000   0.0000000   0.8000000  )
        24           Ru  tau(  24) = (   0.5000000   0.2500000   0.8000000  )
        25           Ru  tau(  25) = (   0.5000000   0.5000000   0.0000000  )
        26           Ru  tau(  26) = (   0.7500000   0.7500000   0.0000000  )
        27           Ru  tau(  27) = (   0.7500000   0.5000000   0.2500000  )
        28           Ru  tau(  28) = (   0.5000000   0.7500000   0.2500000  )
        29           Ru  tau(  29) = (   0.5000000   0.5000000   0.5500000  )
        30           Ru  tau(  30) = (   0.7500000   0.7500000   0.5500000  )
        31           Ru  tau(  31) = (   0.7500000   0.5000000   0.8000000  )
        32           Ru  tau(  32) = (   0.5000000   0.7500000   0.8000000  )

     number of k points=    75  Marzari-Vanderbilt smearing, width (Ry)=  0.0400
                       cart. coord. in units 2pi/alat
        k(    1) = (   0.0555556   0.0555556   0.0529101), wk =   0.0219479
        k(    2) = (   0.0555556   0.0555556   0.1587302), wk =   0.0219479
        k(    3) = (   0.0555556   0.0555556   0.2645503), wk =   0.0219479
        k(    4) = (   0.0555556   0.0555556   0.3703704), wk =   0.0219479
        k(    5) = (   0.0555556   0.0555556  -0.4761905), wk =   0.0109739
        k(    6) = (   0.0555556   0.1666667   0.0529101), wk =   0.0438957
        k(    7) = (   0.0555556   0.1666667   0.1587302), wk =   0.0438957
        k(    8) = (   0.0555556   0.1666667   0.2645503), wk =   0.0438957
        k(    9) = (   0.0555556   0.1666667   0.3703704), wk =   0.0438957
        k(   10) = (   0.0555556   0.1666667  -0.4761905), wk =   0.0219479
        k(   11) = (   0.0555556   0.2777778   0.0529101), wk =   0.0438957
        k(   12) = (   0.0555556   0.2777778   0.1587302), wk =   0.0438957
        k(   13) = (   0.0555556   0.2777778   0.2645503), wk =   0.0438957
        k(   14) = (   0.0555556   0.2777778   0.3703704), wk =   0.0438957
        k(   15) = (   0.0555556   0.2777778  -0.4761905), wk =   0.0219479
        k(   16) = (   0.0555556   0.3888889   0.0529101), wk =   0.0438957
        k(   17) = (   0.0555556   0.3888889   0.1587302), wk =   0.0438957
        k(   18) = (   0.0555556   0.3888889   0.2645503), wk =   0.0438957
        k(   19) = (   0.0555556   0.3888889   0.3703704), wk =   0.0438957
        k(   20) = (   0.0555556   0.3888889  -0.4761905), wk =   0.0219479
        k(   21) = (   0.0555556  -0.5000000   0.0529101), wk =   0.0219479
        k(   22) = (   0.0555556  -0.5000000   0.1587302), wk =   0.0219479
        k(   23) = (   0.0555556  -0.5000000   0.2645503), wk =   0.0219479
        k(   24) = (   0.0555556  -0.5000000   0.3703704), wk =   0.0219479
        k(   25) = (   0.0555556  -0.5000000  -0.4761905), wk =   0.0109739
        k(   26) = (   0.1666667   0.1666667   0.0529101), wk =   0.0219479
        k(   27) = (   0.1666667   0.1666667   0.1587302), wk =   0.0219479
        k(   28) = (   0.1666667   0.1666667   0.2645503), wk =   0.0219479
        k(   29) = (   0.1666667   0.1666667   0.3703704), wk =   0.0219479
        k(   30) = (   0.1666667   0.1666667  -0.4761905), wk =   0.0109739
        k(   31) = (   0.1666667   0.2777778   0.0529101), wk =   0.0438957
        k(   32) = (   0.1666667   0.2777778   0.1587302), wk =   0.0438957
        k(   33) = (   0.1666667   0.2777778   0.2645503), wk =   0.0438957
        k(   34) = (   0.1666667   0.2777778   0.3703704), wk =   0.0438957
        k(   35) = (   0.1666667   0.2777778  -0.4761905), wk =   0.0219479
        k(   36) = (   0.1666667   0.3888889   0.0529101), wk =   0.0438957
        k(   37) = (   0.1666667   0.3888889   0.1587302), wk =   0.0438957
        k(   38) = (   0.1666667   0.3888889   0.2645503), wk =   0.0438957
        k(   39) = (   0.1666667   0.3888889   0.3703704), wk =   0.0438957
        k(   40) = (   0.1666667   0.3888889  -0.4761905), wk =   0.0219479
        k(   41) = (   0.1666667  -0.5000000   0.0529101), wk =   0.0219479
        k(   42) = (   0.1666667  -0.5000000   0.1587302), wk =   0.0219479
        k(   43) = (   0.1666667  -0.5000000   0.2645503), wk =   0.0219479
        k(   44) = (   0.1666667  -0.5000000   0.3703704), wk =   0.0219479
        k(   45) = (   0.1666667  -0.5000000  -0.4761905), wk =   0.0109739
        k(   46) = (   0.2777778   0.2777778   0.0529101), wk =   0.0219479
        k(   47) = (   0.2777778   0.2777778   0.1587302), wk =   0.0219479
        k(   48) = (   0.2777778   0.2777778   0.2645503), wk =   0.0219479
        k(   49) = (   0.2777778   0.2777778   0.3703704), wk =   0.0219479
        k(   50) = (   0.2777778   0.2777778  -0.4761905), wk =   0.0109739
        k(   51) = (   0.2777778   0.3888889   0.0529101), wk =   0.0438957
        k(   52) = (   0.2777778   0.3888889   0.1587302), wk =   0.0438957
        k(   53) = (   0.2777778   0.3888889   0.2645503), wk =   0.0438957
        k(   54) = (   0.2777778   0.3888889   0.3703704), wk =   0.0438957
        k(   55) = (   0.2777778   0.3888889  -0.4761905), wk =   0.0219479
        k(   56) = (   0.2777778  -0.5000000   0.0529101), wk =   0.0219479
        k(   57) = (   0.2777778  -0.5000000   0.1587302), wk =   0.0219479
        k(   58) = (   0.2777778  -0.5000000   0.2645503), wk =   0.0219479
        k(   59) = (   0.2777778  -0.5000000   0.3703704), wk =   0.0219479
        k(   60) = (   0.2777778  -0.5000000  -0.4761905), wk =   0.0109739
        k(   61) = (   0.3888889   0.3888889   0.0529101), wk =   0.0219479
        k(   62) = (   0.3888889   0.3888889   0.1587302), wk =   0.0219479
        k(   63) = (   0.3888889   0.3888889   0.2645503), wk =   0.0219479
        k(   64) = (   0.3888889   0.3888889   0.3703704), wk =   0.0219479
        k(   65) = (   0.3888889   0.3888889  -0.4761905), wk =   0.0109739
        k(   66) = (   0.3888889  -0.5000000   0.0529101), wk =   0.0219479
        k(   67) = (   0.3888889  -0.5000000   0.1587302), wk =   0.0219479
        k(   68) = (   0.3888889  -0.5000000   0.2645503), wk =   0.0219479
        k(   69) = (   0.3888889  -0.5000000   0.3703704), wk =   0.0219479
        k(   70) = (   0.3888889  -0.5000000  -0.4761905), wk =   0.0109739
        k(   71) = (  -0.5000000  -0.5000000   0.0529101), wk =   0.0054870
        k(   72) = (  -0.5000000  -0.5000000   0.1587302), wk =   0.0054870
        k(   73) = (  -0.5000000  -0.5000000   0.2645503), wk =   0.0054870
        k(   74) = (  -0.5000000  -0.5000000   0.3703704), wk =   0.0054870
        k(   75) = (  -0.5000000  -0.5000000  -0.4761905), wk =   0.0027435

     Dense  grid:   472283 G-vectors     FFT dimensions: (  96,  96, 100)

     Smooth grid:   253461 G-vectors     FFT dimensions: (  80,  80,  81)

     Estimated max dynamical RAM per process >     194.76 MB

     Estimated total dynamical RAM >      13.69 GB

     Check: negative core charge=   -0.000002

     Initial potential from superposition of free atoms

     starting charge  511.97959, renormalised to  512.00000
     Starting wfcs are  320 randomized atomic wfcs
     Checking if some PAW data can be deallocated... 

     total cpu time spent up to now is       31.8 secs

     Self-consistent Calculation

     iteration #  1     ecut=    71.00 Ry     beta= 0.10
     Davidson diagonalization with overlap
     ethr =  1.00E-02,  avg # of iterations =  3.3

     Threshold (ethr) on eigenvalues was too large:
     Diagonalizing with lowered threshold

     Davidson diagonalization with overlap
     ethr =  3.19E-04,  avg # of iterations =  4.9

     total cpu time spent up to now is      203.1 secs

     total energy              =  -13813.26203366 Ry
     estimated scf accuracy    <       1.85348382 Ry

     iteration #  2     ecut=    71.00 Ry     beta= 0.10
     Davidson diagonalization with overlap
     ethr =  3.62E-04,  avg # of iterations =  1.1

     total cpu time spent up to now is      268.5 secs

     total energy              =  -13813.11981037 Ry
     estimated scf accuracy    <       1.10397601 Ry

     iteration #  3     ecut=    71.00 Ry     beta= 0.10
     Davidson diagonalization with overlap
     ethr =  2.16E-04,  avg # of iterations =  1.2

     total cpu time spent up to now is      325.2 secs

     total energy              =  -13813.07031282 Ry
     estimated scf accuracy    <       0.26020653 Ry

     iteration #  4     ecut=    71.00 Ry     beta= 0.10
     Davidson diagonalization with overlap
     ethr =  5.08E-05,  avg # of iterations =  2.6

     total cpu time spent up to now is      414.1 secs

     total energy              =  -13813.08541346 Ry
     estimated scf accuracy    <       0.08833438 Ry

     iteration #  5     ecut=    71.00 Ry     beta= 0.10
     Davidson diagonalization with overlap
     ethr =  1.73E-05,  avg # of iterations =  3.8

     total cpu time spent up to now is      521.9 secs

     total energy              =  -13813.04492493 Ry
     estimated scf accuracy    <       0.26869830 Ry

     iteration #  6     ecut=    71.00 Ry     beta= 0.10
     Davidson diagonalization with overlap
     ethr =  1.73E-05,  avg # of iterations =  2.7

     total cpu time spent up to now is      607.9 secs

     total energy              =  -13813.08163681 Ry
     estimated scf accuracy    <       0.00223297 Ry

     iteration #  7     ecut=    71.00 Ry     beta= 0.10
     Davidson diagonalization with overlap
     c_bands:  1 eigenvalues not converged
     ethr =  4.36E-07,  avg # of iterations =  3.7

     total cpu time spent up to now is      684.1 secs

     total energy              =  -13813.08178598 Ry
     estimated scf accuracy    <       0.00602300 Ry

     iteration #  8     ecut=    71.00 Ry     beta= 0.10
     Davidson diagonalization with overlap
     ethr =  4.36E-07,  avg # of iterations =  1.0

     total cpu time spent up to now is      740.7 secs

     total energy              =  -13813.08136614 Ry
     estimated scf accuracy    <       0.00205788 Ry

     iteration #  9     ecut=    71.00 Ry     beta= 0.10
     Davidson diagonalization with overlap
     ethr =  4.02E-07,  avg # of iterations =  2.3

     total cpu time spent up to now is      814.9 secs

     total energy              =  -13813.08141639 Ry
     estimated scf accuracy    <       0.00133137 Ry

     iteration # 10     ecut=    71.00 Ry     beta= 0.10
     Davidson diagonalization with overlap
     ethr =  2.60E-07,  avg # of iterations =  1.0

     total cpu time spent up to now is      871.0 secs

     total energy              =  -13813.08148705 Ry
     estimated scf accuracy    <       0.00001409 Ry

     iteration # 11     ecut=    71.00 Ry     beta= 0.10
     Davidson diagonalization with overlap
     ethr =  2.75E-09,  avg # of iterations =  4.5

     total cpu time spent up to now is      972.2 secs

     total energy              =  -13813.08147403 Ry
     estimated scf accuracy    <       0.00008876 Ry

     iteration # 12     ecut=    71.00 Ry     beta= 0.10
     Davidson diagonalization with overlap
     ethr =  2.75E-09,  avg # of iterations =  2.1

     total cpu time spent up to now is     1057.2 secs

     total energy              =  -13813.08147072 Ry
     estimated scf accuracy    <       0.00001556 Ry

     iteration # 13     ecut=    71.00 Ry     beta= 0.10
     Davidson diagonalization with overlap
     ethr =  2.75E-09,  avg # of iterations =  2.9

     total cpu time spent up to now is     1147.8 secs

     total energy              =  -13813.08147300 Ry
     estimated scf accuracy    <       0.00002813 Ry

     iteration # 14     ecut=    71.00 Ry     beta= 0.10
     Davidson diagonalization with overlap
     ethr =  2.75E-09,  avg # of iterations =  1.2

     total cpu time spent up to now is     1208.2 secs

     End of self-consistent calculation

          k = 0.0556 0.0556 0.0529 ( 31655 PWs)   bands (ev):

   -51.2331 -51.1479 -51.1479 -51.1320 -51.1320 -51.1315 -51.1125 -51.1067
   -51.1066 -51.1028 -51.0891 -51.0891 -51.0821 -51.0821 -51.0525 -51.0525
   -51.0180 -50.9798 -50.9713 -50.9713 -50.9649 -50.9629 -50.9629 -50.9622
   -50.9619 -50.9619 -50.9533 -50.9533 -50.9472 -50.9472 -50.9094 -50.9093
   -21.5828 -21.5828 -21.5822 -21.5791 -21.5362 -21.5362 -21.5044 -21.3588
   -21.3588 -21.3525 -21.3525 -21.3303 -21.3303 -21.3124 -21.3124 -21.3110
   -21.3086 -21.3086 -21.3083 -21.3083 -21.2995 -21.2800 -21.2800 -21.2353
   -21.2353 -21.2053 -21.2053 -21.1891 -21.1891 -21.1514 -21.1514 -21.1431
   -21.0885 -21.0885 -21.0457 -21.0457 -21.0343 -21.0343 -21.0117 -21.0117
   -21.0098 -21.0098 -21.0021 -20.9863 -20.9863 -20.9860 -20.9860 -20.9836
   -20.9810 -20.9717 -20.9717 -20.9648 -20.9648 -20.9586 -20.9405 -20.9403
   -20.9403 -20.9030 -20.9030 -20.8675 -20.8675 -20.8353 -20.8353 -20.8255
   -20.8237 -20.8201 -20.8148 -20.8148 -20.8042 -20.8039 -20.8039 -20.8015
   -20.8015 -20.7873 -20.7873 -20.7854 -20.7854 -20.7829 -20.7786 -20.7786
   -20.7735 -20.7607 -20.7607 -20.7514 -20.7514 -20.7382 -20.7382 -20.7011
   -20.6972 -20.6638 -20.6638 -20.6622 -20.6579 -20.6518 -20.6281 -20.6238
    14.2574  15.8250  15.8525  15.8525  16.0957  16.1160  16.1160  16.1172
    16.2603  16.3195  16.3195  16.3883  16.5055  16.5055  16.5807  16.6889
    16.6889  17.1287  17.1287  17.2558  17.2558  17.2658  17.2658  17.3061
    17.5008  17.5008  17.6723  17.6723  17.7024  17.7704  17.7802  17.7802
    17.7834  17.7834  17.8184  17.8184  17.8514  17.8514  17.8612  17.8612
    17.8912  18.2412  18.2412  18.2430  18.2430  18.2581  18.2581  18.3714
    18.3714  18.4458  18.4458  18.4629  18.4689  18.4689  18.4898  18.6042
    18.6042  18.6720  18.6720  18.7357  18.7357  18.7597  18.7597  18.8342
    18.8342  18.8580  18.8615  18.8615  18.9926  19.0270  19.0270  19.0375
    19.0375  19.1179  19.1179  19.1201  19.1275  19.1510  19.1510  19.1777
    19.3154  19.3154  19.4175  19.4175  19.4234  19.4327  19.5029  19.5229
    19.6697  20.3138  20.3138  20.4210  20.4210  20.5338  20.5338  20.5746
    20.5849  20.6291  20.6322  20.6322  20.6434  20.6434  20.6692  20.6692
    20.7873  20.7873  20.8524  20.8524  20.9440  20.9736  20.9736  20.9969
    21.0731  21.0731  21.2042  21.2042  21.2122  21.2122  21.3620  21.3620
    21.4244  21.4460  21.4460  21.5121  21.5121  21.5876  21.6056  21.6056
    21.6611  21.6836  21.6933  21.6933  21.7939  21.8260  21.8260  21.8492
    21.8492  21.9706  22.2267  22.2267  22.3853  22.3853  22.4213  22.4228
    22.4228  22.4310  22.6624  22.7975  23.2177  23.2177  23.2346  23.2676
    23.3255  23.3356  23.3357  23.3798  23.4294  23.4294  23.5214  23.6697
    23.6697  23.6722  23.6722  23.6802  23.6802  23.7019  23.7482  23.8733
    23.8733  24.0556  24.0556  24.9803  25.0124  25.0124  25.3277  25.4986
    25.4986  25.5028  25.5028

          k = 0.0556 0.0556 0.1587 ( 31691 PWs)   bands (ev):

   -51.2327 -51.1478 -51.1478 -51.1327 -51.1319 -51.1319 -51.1125 -51.1067
   -51.1066 -51.1028 -51.0893 -51.0893 -51.0822 -51.0822 -51.0525 -51.0525
   -51.0155 -50.9814 -50.9708 -50.9708 -50.9649 -50.9629 -50.9629 -50.9622
   -50.9616 -50.9616 -50.9537 -50.9537 -50.9474 -50.9474 -50.9094 -50.9093
   -21.5794 -21.5790 -21.5790 -21.5744 -21.5340 -21.5340 -21.4982 -21.3599
   -21.3599 -21.3525 -21.3525 -21.3289 -21.3289 -21.3222 -21.3190 -21.3189
   -21.3178 -21.3178 -21.3123 -21.3123 -21.3092 -21.2778 -21.2778 -21.2333
   -21.2333 -21.2077 -21.2077 -21.1864 -21.1864 -21.1730 -21.1385 -21.1385
   -21.0953 -21.0953 -21.0522 -21.0522 -21.0347 -21.0347 -21.0303 -21.0303
   -21.0151 -21.0151 -21.0022 -21.0022 -20.9871 -20.9828 -20.9800 -20.9620
   -20.9620 -20.9582 -20.9582 -20.9462 -20.9462 -20.9307 -20.9307 -20.9281
   -20.9241 -20.8940 -20.8940 -20.8675 -20.8675 -20.8401 -20.8401 -20.8293
   -20.8270 -20.8201 -20.8149 -20.8149 -20.8131 -20.8131 -20.8070 -20.8070
   -20.8041 -20.7986 -20.7985 -20.7932 -20.7855 -20.7855 -20.7830 -20.7830
   -20.7772 -20.7567 -20.7567 -20.7499 -20.7499 -20.7342 -20.7342 -20.6950
   -20.6910 -20.6640 -20.6638 -20.6638 -20.6622 -20.6579 -20.6303 -20.6272
    14.3301  15.8391  15.8962  15.8962  16.1133  16.1277  16.1596  16.1596
    16.1719  16.2805  16.3659  16.3659  16.5534  16.5534  16.6542  16.7383
    16.7383  17.0457  17.0457  17.2002  17.2832  17.2832  17.3015  17.3015
    17.4515  17.5191  17.5191  17.5405  17.5405  17.5721  17.5721  17.5820
    17.7759  17.7759  17.7916  17.7916  17.8318  17.8318  17.9357  17.9357
    17.9377  17.9377  18.0203  18.2326  18.2326  18.2376  18.2376  18.3399
    18.3399  18.3668  18.3668  18.4977  18.5770  18.5770  18.5851  18.5851
    18.5963  18.5963  18.6398  18.6398  18.6636  18.6980  18.6980  18.9004
    18.9004  18.9978  18.9978  19.0071  19.0369  19.0729  19.0956  19.0956
    19.1456  19.1456  19.1908  19.1981  19.1981  19.2960  19.3188  19.3188
    19.4335  19.4335  19.4421  19.4558  19.4558  19.4668  19.5367  19.5553
    19.7974  20.1659  20.1659  20.2589  20.2589  20.4775  20.5452  20.5452
    20.5473  20.5474  20.5498  20.6813  20.6813  20.7377  20.7377  20.7480
    20.7514  20.8147  20.8147  20.8150  20.8805  20.8805  21.0696  21.0696
    21.0865  21.0865  21.1670  21.1670  21.2788  21.2788  21.3760  21.4134
    21.4134  21.4926  21.4926  21.5024  21.5024  21.6666  21.6666  21.7913
    21.7926  21.8364  21.8721  21.8721  21.9193  21.9193  21.9510  21.9825
    21.9825  22.0080  22.0826  22.0834  22.0834  22.2206  22.3131  22.3131
    22.3870  22.4950  22.4950  22.8537  22.9839  22.9839  23.1406  23.1406
    23.1561  23.2340  23.2507  23.2507  23.3014  23.4048  23.5713  23.5713
    23.5817  23.5817  23.6429  23.6643  23.8954  23.8954  24.0398  24.0398
    24.0675  24.0675  24.2386  24.5424  24.5424  24.7102  25.0185  25.0185
    25.2685  25.8195  25.8195

          k = 0.0556 0.0556 0.2646 ( 31714 PWs)   bands (ev):

   -51.2321 -51.1477 -51.1477 -51.1346 -51.1319 -51.1318 -51.1125 -51.1067
   -51.1067 -51.1028 -51.0896 -51.0896 -51.0824 -51.0824 -51.0525 -51.0525
   -51.0112 -50.9844 -50.9699 -50.9699 -50.9649 -50.9629 -50.9629 -50.9622
   -50.9611 -50.9611 -50.9544 -50.9544 -50.9479 -50.9479 -50.9094 -50.9093
   -21.5740 -21.5728 -21.5728 -21.5676 -21.5304 -21.5304 -21.4875 -21.3614
   -21.3614 -21.3521 -21.3521 -21.3375 -21.3345 -21.3344 -21.3308 -21.3308
   -21.3271 -21.3271 -21.3250 -21.3127 -21.3127 -21.2740 -21.2740 -21.2301
   -21.2301 -21.2112 -21.2112 -21.2102 -21.1816 -21.1816 -21.1181 -21.1181
   -21.1048 -21.1048 -21.0615 -21.0615 -21.0459 -21.0459 -21.0366 -21.0366
   -21.0241 -21.0241 -21.0179 -21.0179 -20.9812 -20.9784 -20.9626 -20.9360
   -20.9360 -20.9354 -20.9354 -20.9241 -20.9241 -20.9148 -20.9148 -20.9079
   -20.8792 -20.8792 -20.8790 -20.8675 -20.8675 -20.8495 -20.8495 -20.8349
   -20.8298 -20.8298 -20.8289 -20.8218 -20.8218 -20.8202 -20.8155 -20.8155
   -20.8121 -20.8121 -20.8102 -20.8041 -20.7978 -20.7978 -20.7863 -20.7777
   -20.7777 -20.7499 -20.7499 -20.7491 -20.7491 -20.7310 -20.7310 -20.6921
   -20.6804 -20.6792 -20.6638 -20.6638 -20.6622 -20.6579 -20.6359 -20.6338
    14.4705  15.7096  15.9555  15.9755  15.9755  16.1991  16.2412  16.2412
    16.2621  16.3160  16.4515  16.4515  16.6385  16.6429  16.6429  16.8306
    16.8306  16.9098  16.9098  17.0718  17.1864  17.2695  17.2695  17.3253
    17.3296  17.3296  17.3554  17.3554  17.4402  17.4402  17.5292  17.5292
    17.6222  17.6222  17.7077  17.7077  17.8048  17.8048  17.8255  17.8255
    18.0071  18.0071  18.1948  18.2098  18.2098  18.2136  18.2136  18.2532
    18.2532  18.2679  18.2679  18.4653  18.4653  18.4883  18.4883  18.5334
    18.5677  18.5677  18.6559  18.6559  18.6908  18.6909  18.7857  18.9774
    18.9868  19.0201  19.0201  19.0259  19.0259  19.0783  19.0783  19.0823
    19.2551  19.2551  19.3236  19.3236  19.4451  19.4451  19.4838  19.5068
    19.5175  19.5730  19.5730  19.5976  19.6144  19.6254  19.9310  19.9310
    19.9589  19.9589  19.9839  19.9924  19.9924  20.3435  20.4093  20.4093
    20.4207  20.5328  20.5658  20.5848  20.5848  20.7370  20.7370  20.8390
    20.8390  20.9403  20.9403  21.0059  21.0059  21.0582  21.0582  21.0843
    21.0843  21.1106  21.2362  21.2362  21.2974  21.2974  21.3379  21.3814
    21.3814  21.4645  21.4645  21.5336  21.5418  21.5418  21.6514  21.6854
    21.6854  21.7232  21.7232  21.8181  21.9925  22.1114  22.1254  22.1254
    22.1663  22.1663  22.1893  22.1893  22.2517  22.2970  22.3464  22.4220
    22.4220  22.5139  22.5139  22.7567  22.7567  22.9284  22.9540  22.9540
    23.0347  23.1347  23.1347  23.1494  23.1741  23.2536  23.3946  23.3946
    23.4030  23.4030  23.5152  23.9029  23.9029  24.0209  24.0739  24.0739
    24.0842  24.0842  24.2571  24.4672  24.4672  24.5357  24.5357  24.7807
    25.1505  25.6962  25.6962

          k = 0.0556 0.0556 0.3704 ( 31699 PWs)   bands (ev):

   -51.2316 -51.1476 -51.1476 -51.1362 -51.1318 -51.1318 -51.1125 -51.1067
   -51.1067 -51.1028 -51.0899 -51.0899 -51.0826 -51.0826 -51.0524 -51.0524
   -51.0065 -50.9880 -50.9691 -50.9691 -50.9649 -50.9629 -50.9629 -50.9622
   -50.9606 -50.9606 -50.9551 -50.9551 -50.9483 -50.9483 -50.9094 -50.9093
   -21.5681 -21.5668 -21.5668 -21.5618 -21.5271 -21.5271 -21.4767 -21.3625
   -21.3625 -21.3514 -21.3514 -21.3491 -21.3480 -21.3480 -21.3414 -21.3414
   -21.3404 -21.3259 -21.3259 -21.3134 -21.3134 -21.2703 -21.2703 -21.2394
   -21.2270 -21.2270 -21.2140 -21.2140 -21.1764 -21.1764 -21.1127 -21.1127
   -21.0964 -21.0964 -21.0692 -21.0692 -21.0564 -21.0564 -21.0452 -21.0452
   -21.0302 -21.0302 -21.0300 -21.0300 -20.9797 -20.9770 -20.9370 -20.9133
   -20.9133 -20.9084 -20.9084 -20.8999 -20.8999 -20.8964 -20.8964 -20.8873
   -20.8674 -20.8673 -20.8633 -20.8633 -20.8631 -20.8631 -20.8530 -20.8507
   -20.8507 -20.8432 -20.8432 -20.8396 -20.8292 -20.8248 -20.8248 -20.8202
   -20.8192 -20.8192 -20.8100 -20.8095 -20.8095 -20.8042 -20.7981 -20.7720
   -20.7720 -20.7499 -20.7499 -20.7426 -20.7426 -20.7307 -20.7307 -20.7212
   -20.6692 -20.6677 -20.6638 -20.6638 -20.6622 -20.6579 -20.6446 -20.6432
    14.6597  15.4058  15.9887  16.0670  16.0670  16.2973  16.3413  16.3413
    16.3537  16.3584  16.5512  16.5512  16.5875  16.7544  16.7544  16.7757
    16.7757  16.9451  16.9451  16.9706  16.9836  17.0464  17.0464  17.0949
    17.2654  17.2654  17.3694  17.3694  17.3731  17.3731  17.4556  17.4556
    17.4677  17.4677  17.6993  17.6993  17.7772  17.7772  17.8653  17.8653
    18.0516  18.0516  18.1482  18.1482  18.1651  18.1651  18.1813  18.1813
    18.2018  18.2018  18.3598  18.3972  18.3972  18.4134  18.4134  18.4984
    18.4984  18.5719  18.6956  18.6956  18.7014  18.7014  18.8320  18.8816
    18.9442  18.9970  18.9970  19.0614  19.0614  19.0734  19.1847  19.1847
    19.3286  19.3286  19.3710  19.3710  19.5355  19.5442  19.5442  19.5639
    19.6659  19.6825  19.7204  19.7204  19.7618  19.7618  19.9474  19.9474
    19.9578  20.0410  20.1554  20.2422  20.2967  20.3073  20.3073  20.3636
    20.3859  20.4535  20.4535  20.5939  20.5939  20.8190  20.8190  20.9115
    20.9115  21.0412  21.0412  21.0533  21.0533  21.0535  21.0757  21.0757
    21.0890  21.1349  21.1349  21.1392  21.1392  21.1556  21.2543  21.2543
    21.2821  21.2821  21.3662  21.3662  21.3948  21.3948  21.6300  21.6300
    21.6893  21.8236  21.8236  21.8356  22.0238  22.0238  22.2057  22.2312
    22.3603  22.3603  22.3877  22.3877  22.4027  22.4158  22.4158  22.4760
    22.6536  22.7137  22.7137  22.8233  22.8233  22.8467  22.9124  22.9658
    22.9977  22.9977  23.0295  23.1395  23.1395  23.1833  23.1833  23.1845
    23.1845  23.2002  23.3494  23.6408  23.6408  23.7545  23.9054  23.9054
    24.0548  24.0548  24.0763  24.0763  24.3726  24.8625  24.8625  24.9659
    25.2767  25.5072  25.5072

          k = 0.0556 0.0556-0.4762 ( 31684 PWs)   bands (ev):

   -51.2313 -51.1475 -51.1475 -51.1368 -51.1317 -51.1317 -51.1126 -51.1067
   -51.1066 -51.1028 -51.0900 -51.0900 -51.0827 -51.0827 -51.0524 -51.0524
   -51.0040 -50.9901 -50.9687 -50.9687 -50.9649 -50.9629 -50.9629 -50.9623
   -50.9604 -50.9604 -50.9554 -50.9554 -50.9485 -50.9485 -50.9094 -50.9093
   -21.5654 -21.5643 -21.5643 -21.5597 -21.5257 -21.5257 -21.4719 -21.3629
   -21.3628 -21.3533 -21.3533 -21.3526 -21.3510 -21.3510 -21.3475 -21.3454
   -21.3454 -21.3256 -21.3256 -21.3138 -21.3138 -21.2687 -21.2687 -21.2506
   -21.2258 -21.2258 -21.2151 -21.2151 -21.1741 -21.1741 -21.1157 -21.1157
   -21.0835 -21.0835 -21.0721 -21.0721 -21.0601 -21.0601 -21.0544 -21.0544
   -21.0349 -21.0349 -21.0310 -21.0310 -20.9791 -20.9764 -20.9245 -20.9022
   -20.9022 -20.8860 -20.8860 -20.8844 -20.8844 -20.8810 -20.8810 -20.8777
   -20.8773 -20.8773 -20.8673 -20.8673 -20.8673 -20.8673 -20.8657 -20.8657
   -20.8506 -20.8475 -20.8475 -20.8414 -20.8392 -20.8349 -20.8349 -20.8249
   -20.8249 -20.8202 -20.8119 -20.8119 -20.8046 -20.8042 -20.7805 -20.7694
   -20.7694 -20.7507 -20.7507 -20.7485 -20.7386 -20.7386 -20.7319 -20.7319
   -20.6638 -20.6637 -20.6623 -20.6587 -20.6580 -20.6561 -20.6537 -20.6536
    14.7926  15.2279  16.0110  16.1141  16.1141  16.3677  16.3711  16.3914
    16.3971  16.3971  16.5604  16.5959  16.5959  16.7232  16.7232  16.8205
    16.8205  16.9148  16.9311  16.9485  16.9485  16.9781  17.0125  17.0125
    17.1874  17.1874  17.2668  17.2668  17.3569  17.3569  17.4370  17.4370
    17.4912  17.4912  17.7195  17.7195  17.7610  17.7610  17.8849  17.8849
    18.0466  18.0466  18.1035  18.1035  18.1400  18.1400  18.1596  18.1596
    18.1990  18.1990  18.3588  18.3588  18.4113  18.4113  18.4419  18.4614
    18.4614  18.5903  18.6980  18.6980  18.7200  18.7200  18.8204  18.8382
    18.9368  18.9812  18.9812  19.0549  19.0549  19.0651  19.3034  19.3034
    19.3498  19.3498  19.4538  19.4538  19.5447  19.5447  19.5661  19.5742
    19.5742  19.5783  19.6484  19.6484  19.6996  19.7172  20.1508  20.1508
    20.2132  20.2347  20.2616  20.2788  20.2944  20.3501  20.3596  20.4075
    20.4075  20.5931  20.5931  20.6482  20.6643  20.6643  20.7302  20.8034
    20.8034  20.8536  20.8536  20.9307  20.9307  21.0798  21.0798  21.1203
    21.1426  21.1426  21.1921  21.1922  21.1984  21.1984  21.2314  21.2314
    21.2489  21.2489  21.3414  21.3414  21.3849  21.3849  21.4618  21.4618
    21.5794  21.5794  21.8431  22.0367  22.2141  22.2141  22.2260  22.3366
    22.4372  22.4621  22.4621  22.5303  22.5303  22.5305  22.5360  22.5360
    22.5457  22.5457  22.6400  22.8811  22.9135  22.9175  22.9175  22.9291
    22.9393  23.0500  23.0500  23.0577  23.0577  23.1501  23.1501  23.2204
    23.2433  23.2743  23.2743  23.4434  23.5735  23.5735  23.5939  23.5939
    23.9060  23.9060  24.0770  24.0770  24.6003  24.8006  25.1236  25.1236
    25.3187  25.3187  25.7669

          k = 0.0556 0.1667 0.0529 ( 31652 PWs)   bands (ev):

   -51.2302 -51.1638 -51.1467 -51.1311 -51.1299 -51.1187 -51.1165 -51.1108
   -51.1012 -51.0993 -51.0963 -51.0893 -51.0827 -51.0757 -51.0550 -51.0533
   -51.0165 -50.9804 -50.9790 -50.9712 -50.9665 -50.9632 -50.9620 -50.9613
   -50.9606 -50.9590 -50.9538 -50.9525 -50.9478 -50.9408 -50.9112 -50.9108
   -21.5765 -21.5734 -21.5717 -21.5659 -21.5281 -21.5263 -21.4981 -21.3757
   -21.3751 -21.3740 -21.3725 -21.3593 -21.3524 -21.3510 -21.3155 -21.3132
   -21.3109 -21.3063 -21.3017 -21.2994 -21.2926 -21.2844 -21.2573 -21.2203
   -21.2182 -21.2111 -21.2015 -21.1890 -21.1696 -21.1647 -21.1537 -21.1439
   -21.1292 -21.0791 -21.0345 -21.0300 -21.0287 -21.0251 -21.0228 -21.0108
   -21.0078 -21.0040 -21.0033 -21.0016 -21.0001 -20.9920 -20.9919 -20.9867
   -20.9805 -20.9745 -20.9738 -20.9717 -20.9639 -20.9409 -20.9206 -20.9095
   -20.9081 -20.8777 -20.8685 -20.8672 -20.8656 -20.8635 -20.8339 -20.8337
   -20.8337 -20.8322 -20.8239 -20.8177 -20.8099 -20.8024 -20.8019 -20.8001
   -20.7911 -20.7899 -20.7884 -20.7849 -20.7836 -20.7770 -20.7770 -20.7706
   -20.7692 -20.7679 -20.7646 -20.7497 -20.7357 -20.7348 -20.7287 -20.7110
   -20.7002 -20.6770 -20.6719 -20.6681 -20.6589 -20.6546 -20.6410 -20.6280
    14.3423  15.8892  15.9026  15.9147  16.1285  16.1676  16.1711  16.1886
    16.1953  16.3200  16.3563  16.3709  16.4530  16.5588  16.6477  16.7213
    16.7466  17.1233  17.1423  17.1865  17.1905  17.2697  17.3030  17.3057
    17.3492  17.4037  17.4109  17.5076  17.5531  17.5771  17.6037  17.6703
    17.7412  17.7428  17.7446  17.7535  17.8430  17.8597  17.8814  17.8960
    17.9266  18.0277  18.0712  18.2182  18.2297  18.2528  18.2639  18.3455
    18.3998  18.4133  18.4268  18.4334  18.4869  18.5605  18.5780  18.5842
    18.6325  18.6680  18.6961  18.7075  18.7114  18.7874  18.8485  18.8728
    18.8852  18.9266  18.9521  18.9773  19.0027  19.0384  19.0437  19.0460
    19.1189  19.1221  19.1368  19.1651  19.1799  19.2132  19.2203  19.3163
    19.3911  19.4251  19.4346  19.4452  19.4481  19.4738  19.5321  19.5569
    19.6486  20.1052  20.2119  20.3024  20.3311  20.3924  20.4189  20.4212
    20.4524  20.4858  20.5123  20.6316  20.6467  20.7076  20.7503  20.7823
    20.7904  20.8505  20.8722  20.9120  20.9181  21.0602  21.0680  21.0730
    21.0834  21.2078  21.3557  21.3698  21.3834  21.4224  21.4508  21.4639
    21.5315  21.5373  21.5382  21.5427  21.5944  21.6047  21.6139  21.6880
    21.7049  21.7482  21.7660  21.8135  21.8720  21.8896  21.9440  22.0125
    22.0291  22.0426  22.0727  22.0830  22.0967  22.1450  22.2858  22.3006
    22.5025  22.5200  22.5511  22.7833  22.9908  23.1125  23.1723  23.1866
    23.2395  23.2531  23.2691  23.2999  23.3427  23.3827  23.5041  23.5422
    23.5744  23.5837  23.6605  23.6910  23.7430  23.7520  23.8898  23.9307
    23.9471  23.9728  24.1977  24.5447  24.7944  24.9634  25.0193  25.3422
    25.4547  25.4565  25.9686

          k = 0.0556 0.1667 0.1587 ( 31682 PWs)   bands (ev):

   -51.2299 -51.1636 -51.1466 -51.1311 -51.1310 -51.1187 -51.1165 -51.1108
   -51.1012 -51.0993 -51.0966 -51.0895 -51.0828 -51.0757 -51.0550 -51.0533
   -51.0141 -50.9806 -50.9796 -50.9707 -50.9665 -50.9632 -50.9618 -50.9613
   -50.9606 -50.9596 -50.9541 -50.9523 -50.9481 -50.9409 -50.9112 -50.9108
   -21.5739 -21.5703 -21.5689 -21.5605 -21.5260 -21.5244 -21.4923 -21.3772
   -21.3763 -21.3754 -21.3701 -21.3583 -21.3511 -21.3511 -21.3214 -21.3213
   -21.3180 -21.3129 -21.3110 -21.3087 -21.2957 -21.2928 -21.2546 -21.2242
   -21.2165 -21.2129 -21.1971 -21.1872 -21.1815 -21.1608 -21.1533 -21.1362
   -21.1311 -21.0834 -21.0479 -21.0402 -21.0312 -21.0298 -21.0247 -21.0141
   -21.0097 -21.0092 -21.0081 -21.0072 -20.9913 -20.9874 -20.9781 -20.9766
   -20.9753 -20.9623 -20.9606 -20.9461 -20.9460 -20.9291 -20.9189 -20.9009
   -20.8985 -20.8734 -20.8710 -20.8667 -20.8635 -20.8572 -20.8373 -20.8360
   -20.8346 -20.8344 -20.8291 -20.8181 -20.8132 -20.8089 -20.8047 -20.8024
   -20.8018 -20.7992 -20.7940 -20.7906 -20.7873 -20.7861 -20.7806 -20.7713
   -20.7711 -20.7692 -20.7607 -20.7489 -20.7329 -20.7328 -20.7203 -20.7047
   -20.6944 -20.6768 -20.6721 -20.6701 -20.6679 -20.6591 -20.6385 -20.6308
    14.4140  15.9036  15.9464  15.9550  16.1471  16.1774  16.1980  16.2343
    16.2414  16.2441  16.3399  16.4021  16.4167  16.5938  16.7228  16.7719
    16.7807  17.0979  17.1073  17.1392  17.1752  17.2463  17.2886  17.2984
    17.3311  17.3588  17.3621  17.3772  17.3920  17.4854  17.5835  17.6019
    17.6169  17.6200  17.6333  17.7687  17.8059  17.8868  17.9111  17.9294
    17.9407  17.9553  18.0094  18.0522  18.0560  18.1873  18.2747  18.2983
    18.3506  18.3902  18.4378  18.4808  18.4815  18.5194  18.5218  18.6527
    18.6706  18.6737  18.6757  18.7053  18.8376  18.8692  18.8937  18.9471
    18.9648  18.9679  18.9742  18.9987  19.0217  19.0816  19.0849  19.1091
    19.1435  19.1623  19.2339  19.2776  19.3221  19.3228  19.3495  19.4244
    19.4311  19.4412  19.4589  19.4916  19.4989  19.5248  19.5716  19.6554
    19.6850  20.0358  20.1166  20.1776  20.2980  20.3623  20.4629  20.4910
    20.4986  20.5013  20.5162  20.5464  20.6128  20.6185  20.6466  20.6904
    20.7255  20.8019  20.8898  20.9075  20.9453  20.9715  20.9861  20.9893
    21.0220  21.2809  21.3814  21.3877  21.3880  21.4110  21.4859  21.5128
    21.5231  21.5921  21.5991  21.6153  21.6508  21.6569  21.7108  21.7138
    21.7139  21.7411  21.8100  21.8197  21.9230  21.9516  21.9897  22.0351
    22.0603  22.0860  22.1503  22.1613  22.1645  22.2011  22.2716  22.3464
    22.4690  22.5407  22.6911  22.7849  22.8162  22.8262  22.9444  23.0412
    23.1560  23.2283  23.2343  23.2425  23.2766  23.3517  23.4065  23.4948
    23.5028  23.5635  23.5932  23.6615  23.6624  23.7782  23.9002  23.9446
    23.9724  24.0983  24.4951  24.5403  24.5643  24.7389  24.9757  25.2875
    25.3165  25.5260  25.5412

          k = 0.0556 0.1667 0.2646 ( 31691 PWs)   bands (ev):

   -51.2293 -51.1634 -51.1464 -51.1329 -51.1309 -51.1186 -51.1164 -51.1108
   -51.1012 -51.0993 -51.0971 -51.0898 -51.0830 -51.0758 -51.0550 -51.0533
   -51.0099 -50.9835 -50.9783 -50.9699 -50.9665 -50.9632 -50.9613 -50.9613
   -50.9606 -50.9606 -50.9548 -50.9520 -50.9485 -50.9412 -50.9112 -50.9108
   -21.5687 -21.5659 -21.5623 -21.5536 -21.5225 -21.5214 -21.4824 -21.3782
   -21.3772 -21.3770 -21.3691 -21.3567 -21.3522 -21.3489 -21.3358 -21.3326
   -21.3325 -21.3238 -21.3238 -21.3084 -21.3080 -21.3000 -21.2492 -21.2305
   -21.2165 -21.2163 -21.2110 -21.1921 -21.1844 -21.1466 -21.1461 -21.1356
   -21.1109 -21.0893 -21.0639 -21.0486 -21.0484 -21.0401 -21.0277 -21.0251
   -21.0185 -21.0173 -21.0068 -20.9896 -20.9880 -20.9854 -20.9746 -20.9640
   -20.9566 -20.9382 -20.9366 -20.9245 -20.9107 -20.9097 -20.9073 -20.8889
   -20.8830 -20.8806 -20.8661 -20.8636 -20.8615 -20.8472 -20.8438 -20.8413
   -20.8399 -20.8374 -20.8369 -20.8213 -20.8204 -20.8191 -20.8185 -20.8140
   -20.8094 -20.8068 -20.8017 -20.8016 -20.7931 -20.7890 -20.7814 -20.7795
   -20.7762 -20.7698 -20.7533 -20.7490 -20.7309 -20.7262 -20.7135 -20.7059
   -20.6874 -20.6787 -20.6765 -20.6722 -20.6677 -20.6593 -20.6419 -20.6358
    14.5522  15.7755  16.0206  16.0258  16.0297  16.2039  16.2662  16.3273
    16.3283  16.3361  16.3746  16.4866  16.4961  16.6577  16.7070  16.8433
    16.8665  16.9613  16.9713  17.1184  17.1209  17.1497  17.1662  17.1934
    17.2213  17.2861  17.3100  17.3464  17.3677  17.3768  17.3917  17.4174
    17.5446  17.6389  17.6458  17.6495  17.7053  17.8104  17.8230  17.8237
    17.9621  17.9851  17.9893  18.0874  18.1189  18.1923  18.2156  18.2223
    18.2791  18.3173  18.3528  18.3693  18.3910  18.4346  18.4794  18.6131
    18.6580  18.7512  18.7630  18.8295  18.8549  18.8622  18.9231  18.9513
    18.9752  18.9798  19.0156  19.0394  19.0788  19.0823  19.1355  19.2256
    19.2572  19.2846  19.3395  19.4000  19.4173  19.4701  19.5047  19.5524
    19.5618  19.5621  19.6046  19.6238  19.6374  19.6662  19.8268  19.8901
    19.9040  19.9156  19.9281  20.0113  20.1639  20.3063  20.3266  20.3622
    20.4610  20.5125  20.5199  20.5205  20.5416  20.5438  20.5457  20.6178
    20.7352  20.8381  20.8774  20.8911  20.9316  21.0121  21.0430  21.1417
    21.1805  21.2735  21.2948  21.3054  21.3113  21.3193  21.3222  21.3689
    21.4353  21.4667  21.4673  21.5672  21.6586  21.6731  21.6980  21.6994
    21.7480  21.7959  21.9199  22.0412  22.0601  22.0604  22.1046  22.1484
    22.2753  22.2927  22.3016  22.3034  22.3098  22.3129  22.3501  22.3873
    22.4148  22.5003  22.5554  22.5746  22.7324  22.8715  22.9735  23.0213
    23.0415  23.0578  23.2053  23.2089  23.2200  23.2252  23.3533  23.3572
    23.3925  23.4141  23.5199  23.6541  23.6735  23.7076  23.7853  23.9115
    23.9501  24.0409  24.1985  24.4956  24.6269  24.8685  24.9899  25.0412
    25.1431  25.1852  26.0806

          k = 0.0556 0.1667 0.3704 ( 31711 PWs)   bands (ev):

   -51.2287 -51.1632 -51.1463 -51.1344 -51.1308 -51.1186 -51.1163 -51.1108
   -51.1012 -51.0994 -51.0976 -51.0901 -51.0832 -51.0759 -51.0550 -51.0533
   -51.0054 -50.9870 -50.9770 -50.9691 -50.9665 -50.9632 -50.9617 -50.9613
   -50.9609 -50.9606 -50.9554 -50.9518 -50.9489 -50.9414 -50.9112 -50.9108
   -21.5631 -21.5605 -21.5568 -21.5486 -21.5192 -21.5186 -21.4724 -21.3799
   -21.3779 -21.3755 -21.3702 -21.3552 -21.3540 -21.3470 -21.3469 -21.3419
   -21.3417 -21.3384 -21.3342 -21.3243 -21.3040 -21.3034 -21.2436 -21.2417
   -21.2366 -21.2221 -21.2031 -21.1901 -21.1818 -21.1542 -21.1327 -21.1174
   -21.0937 -21.0892 -21.0741 -21.0609 -21.0546 -21.0525 -21.0388 -21.0385
   -21.0257 -21.0211 -21.0065 -20.9979 -20.9880 -20.9729 -20.9604 -20.9395
   -20.9360 -20.9137 -20.9113 -20.9012 -20.8971 -20.8957 -20.8901 -20.8804
   -20.8760 -20.8655 -20.8639 -20.8637 -20.8627 -20.8602 -20.8556 -20.8501
   -20.8453 -20.8451 -20.8371 -20.8344 -20.8291 -20.8289 -20.8214 -20.8201
   -20.8161 -20.8024 -20.8019 -20.8010 -20.7996 -20.7992 -20.7910 -20.7844
   -20.7749 -20.7712 -20.7506 -20.7452 -20.7342 -20.7316 -20.7195 -20.7102
   -20.6762 -20.6760 -20.6724 -20.6686 -20.6675 -20.6594 -20.6502 -20.6429
    14.7385  15.4750  16.0546  16.1155  16.1200  16.2924  16.3605  16.4078
    16.4115  16.4206  16.4535  16.5644  16.5848  16.6550  16.7343  16.8292
    16.8642  16.9191  16.9536  16.9791  16.9856  17.0220  17.0244  17.0972
    17.1368  17.1684  17.1916  17.2314  17.3516  17.3824  17.4008  17.4123
    17.4194  17.4786  17.4924  17.6882  17.6988  17.8155  17.8347  17.9158
    18.0007  18.0040  18.0310  18.0472  18.0614  18.0762  18.1253  18.1550
    18.1710  18.2165  18.3236  18.3831  18.4201  18.4825  18.4839  18.5218
    18.5876  18.7269  18.7954  18.8022  18.8048  18.8731  18.9078  18.9139
    18.9442  19.0113  19.0661  19.0748  19.1239  19.1417  19.1874  19.2243
    19.4037  19.4144  19.5248  19.5391  19.5610  19.5890  19.5969  19.6337
    19.6759  19.6827  19.7104  19.7526  19.7855  19.8087  19.8173  19.8544
    19.8614  19.9709  20.0904  20.2798  20.2998  20.3220  20.3372  20.3436
    20.3510  20.3917  20.4140  20.4219  20.4366  20.5391  20.5776  20.5887
    20.7854  20.8300  20.8312  20.8819  20.8883  20.9499  20.9893  21.0209
    21.0338  21.1393  21.1671  21.2383  21.2577  21.2690  21.3296  21.3394
    21.3843  21.3942  21.4701  21.5291  21.6269  21.6756  21.7079  21.7298
    21.7471  21.8202  21.9903  21.9908  22.0494  22.0963  22.1530  22.1619
    22.2558  22.3882  22.3898  22.4593  22.4852  22.5088  22.5145  22.5390
    22.5474  22.5658  22.6459  22.7375  22.7933  22.8269  22.9360  23.0235
    23.0601  23.1034  23.1099  23.1124  23.1822  23.1871  23.1897  23.1946
    23.2777  23.3286  23.3600  23.5064  23.6024  23.7243  23.7870  23.9183
    23.9321  23.9510  24.0174  24.3568  24.4679  24.4777  24.5313  25.0022
    25.4300  25.7059  26.0897

          k = 0.0556 0.1667-0.4762 ( 31706 PWs)   bands (ev):

   -51.2285 -51.1632 -51.1463 -51.1350 -51.1308 -51.1186 -51.1163 -51.1108
   -51.1012 -51.0994 -51.0978 -51.0902 -51.0832 -51.0760 -51.0550 -51.0533
   -51.0030 -50.9890 -50.9764 -50.9688 -50.9665 -50.9632 -50.9621 -50.9614
   -50.9607 -50.9606 -50.9557 -50.9517 -50.9490 -50.9415 -50.9112 -50.9107
   -21.5605 -21.5578 -21.5547 -21.5470 -21.5178 -21.5174 -21.4680 -21.3805
   -21.3781 -21.3730 -21.3725 -21.3550 -21.3546 -21.3503 -21.3462 -21.3453
   -21.3451 -21.3432 -21.3381 -21.3328 -21.3047 -21.3020 -21.2540 -21.2392
   -21.2362 -21.2269 -21.1976 -21.1914 -21.1808 -21.1573 -21.1266 -21.1083
   -21.0952 -21.0777 -21.0761 -21.0655 -21.0595 -21.0563 -21.0485 -21.0446
   -21.0285 -21.0216 -21.0064 -21.0038 -20.9873 -20.9721 -20.9465 -20.9275
   -20.9207 -20.9114 -20.8945 -20.8913 -20.8883 -20.8809 -20.8806 -20.8792
   -20.8763 -20.8752 -20.8733 -20.8652 -20.8637 -20.8622 -20.8609 -20.8545
   -20.8521 -20.8463 -20.8449 -20.8423 -20.8300 -20.8270 -20.8216 -20.8202
   -20.8111 -20.8084 -20.8040 -20.8021 -20.8013 -20.7983 -20.7891 -20.7731
   -20.7720 -20.7719 -20.7664 -20.7518 -20.7404 -20.7336 -20.7163 -20.7096
   -20.6761 -20.6725 -20.6674 -20.6665 -20.6602 -20.6595 -20.6590 -20.6487
    14.8692  15.2995  16.0773  16.1621  16.1674  16.3663  16.4107  16.4285
    16.4289  16.4510  16.5265  16.5714  16.6273  16.6299  16.7746  16.7772
    16.8517  16.8839  16.9243  16.9606  16.9630  16.9833  17.0196  17.0446
    17.0480  17.0592  17.1861  17.1957  17.2963  17.3064  17.3781  17.3918
    17.4379  17.4529  17.5305  17.6462  17.7284  17.8400  17.8984  17.9667
    17.9752  17.9759  18.0056  18.0132  18.0821  18.0918  18.1096  18.1125
    18.1157  18.1157  18.2491  18.4268  18.4373  18.4626  18.5421  18.5452
    18.6279  18.6567  18.7269  18.7804  18.7985  18.8469  18.8806  18.9016
    18.9387  19.0282  19.0538  19.0986  19.1384  19.1735  19.3139  19.3408
    19.4425  19.4833  19.5502  19.5618  19.5869  19.5939  19.6046  19.6075
    19.6580  19.6657  19.6668  19.6800  19.7134  19.7692  20.0306  20.0455
    20.1508  20.1633  20.2235  20.2750  20.2895  20.3086  20.3282  20.3495
    20.3700  20.3803  20.4044  20.4604  20.4861  20.5358  20.5988  20.6011
    20.6024  20.6508  20.6936  20.7569  20.7821  20.8672  20.9965  21.0874
    21.1271  21.1532  21.1636  21.1916  21.2471  21.2657  21.2916  21.3215
    21.4029  21.4209  21.4329  21.4813  21.4893  21.5748  21.6565  21.7280
    21.7750  21.8291  21.9370  21.9967  22.0165  22.1747  22.1806  22.2889
    22.3184  22.4592  22.4721  22.5465  22.5472  22.5580  22.5880  22.6107
    22.6139  22.6339  22.6422  22.7899  22.8196  22.9544  22.9762  22.9985
    23.0126  23.0175  23.0609  23.0721  23.0828  23.0912  23.1006  23.1197
    23.2289  23.2408  23.5451  23.5503  23.5557  23.7286  23.7873  23.9205
    23.9510  23.9622  24.0140  24.0655  24.1112  24.3322  24.6744  24.8521
    25.7321  25.8679  26.1306

          k = 0.0556 0.2778 0.0529 ( 31672 PWs)   bands (ev):

   -51.2246 -51.1790 -51.1442 -51.1292 -51.1269 -51.1248 -51.1151 -51.1036
   -51.1019 -51.0964 -51.0963 -51.0899 -51.0840 -51.0699 -51.0600 -51.0549
   -51.0135 -50.9889 -50.9775 -50.9709 -50.9679 -50.9641 -50.9633 -50.9623
   -50.9601 -50.9582 -50.9546 -50.9492 -50.9433 -50.9344 -50.9149 -50.9135
   -21.5606 -21.5545 -21.5519 -21.5436 -21.5124 -21.5071 -21.4860 -21.4197
   -21.4110 -21.4034 -21.3977 -21.3970 -21.3869 -21.3801 -21.3314 -21.3207
   -21.3061 -21.2947 -21.2890 -21.2848 -21.2704 -21.2656 -21.2523 -21.2324
   -21.2206 -21.2188 -21.2089 -21.1828 -21.1723 -21.1655 -21.1450 -21.1439
   -21.1297 -21.0765 -21.0529 -21.0426 -21.0343 -21.0287 -21.0199 -21.0186
   -21.0118 -21.0077 -21.0076 -20.9972 -20.9957 -20.9931 -20.9926 -20.9811
   -20.9680 -20.9643 -20.9634 -20.9619 -20.9399 -20.9118 -20.9001 -20.8807
   -20.8733 -20.8685 -20.8669 -20.8638 -20.8602 -20.8562 -20.8555 -20.8490
   -20.8465 -20.8306 -20.8298 -20.8120 -20.8119 -20.8075 -20.7989 -20.7944
   -20.7934 -20.7910 -20.7907 -20.7906 -20.7863 -20.7774 -20.7745 -20.7688
   -20.7664 -20.7651 -20.7452 -20.7383 -20.7280 -20.7264 -20.7255 -20.7095
   -20.7078 -20.6975 -20.6853 -20.6814 -20.6715 -20.6661 -20.6526 -20.6390
    14.5096  15.8174  15.9996  16.0146  16.0361  16.2140  16.2712  16.2764
    16.3116  16.4293  16.4389  16.4736  16.5784  16.6330  16.6503  16.7777
    16.8440  16.9128  16.9262  17.0494  17.1025  17.1725  17.2079  17.2716
    17.2991  17.3116  17.3735  17.3930  17.3975  17.4200  17.4341  17.4673
    17.4681  17.6366  17.6650  17.7065  17.7304  17.8734  17.8919  17.9183
    17.9946  18.0883  18.0966  18.1759  18.2014  18.2306  18.2565  18.2649
    18.2694  18.3186  18.3297  18.3315  18.3935  18.4611  18.5480  18.5825
    18.6544  18.6681  18.7026  18.7125  18.7186  18.7465  18.8542  18.8732
    18.8971  18.9221  19.0113  19.0252  19.0596  19.0785  19.0848  19.1405
    19.2352  19.2417  19.2609  19.3153  19.3341  19.3496  19.3573  19.3626
    19.4206  19.4653  19.4895  19.5510  19.5987  19.6440  19.6815  19.6843
    19.8480  19.9122  20.0785  20.0981  20.1304  20.1544  20.1727  20.1985
    20.2811  20.3121  20.5567  20.7382  20.8341  20.8503  20.8735  20.8854
    20.8892  20.9015  20.9327  20.9432  21.0839  21.0843  21.1291  21.1528
    21.3252  21.3722  21.4083  21.4169  21.4293  21.4540  21.4757  21.4873
    21.5020  21.5215  21.5310  21.5607  21.5713  21.7024  21.7260  21.7536
    21.7622  21.7642  21.7729  21.8357  21.8661  21.9015  21.9126  21.9684
    22.0642  22.1701  22.2719  22.2829  22.3135  22.3201  22.3492  22.3538
    22.5056  22.6506  22.7032  22.7201  22.7984  22.9004  22.9344  23.0100
    23.0640  23.0931  23.1189  23.1878  23.1936  23.2918  23.3532  23.4022
    23.4094  23.5307  23.6539  23.6552  23.7010  23.7379  23.7640  23.8689
    24.0888  24.2746  24.3379  24.3427  24.5518  24.6964  24.8142  24.8488
    24.8625  25.3595  25.3617

          k = 0.0556 0.2778 0.1587 ( 31681 PWs)   bands (ev):

   -51.2242 -51.1788 -51.1441 -51.1291 -51.1280 -51.1248 -51.1151 -51.1040
   -51.1018 -51.0964 -51.0963 -51.0901 -51.0841 -51.0699 -51.0600 -51.0549
   -51.0113 -50.9878 -50.9790 -50.9705 -50.9679 -50.9649 -50.9633 -50.9621
   -50.9601 -50.9582 -50.9550 -50.9494 -50.9432 -50.9344 -50.9149 -50.9135
   -21.5592 -21.5517 -21.5496 -21.5379 -21.5103 -21.5058 -21.4809 -21.4211
   -21.4085 -21.4066 -21.3980 -21.3947 -21.3854 -21.3798 -21.3291 -21.3267
   -21.3163 -21.3069 -21.2977 -21.2925 -21.2774 -21.2713 -21.2540 -21.2343
   -21.2273 -21.2179 -21.1968 -21.1966 -21.1736 -21.1727 -21.1425 -21.1304
   -21.1172 -21.0771 -21.0538 -21.0465 -21.0372 -21.0311 -21.0145 -21.0121
   -21.0083 -21.0077 -21.0072 -20.9977 -20.9921 -20.9896 -20.9855 -20.9713
   -20.9700 -20.9635 -20.9597 -20.9468 -20.9292 -20.9053 -20.9019 -20.8770
   -20.8718 -20.8699 -20.8686 -20.8632 -20.8621 -20.8567 -20.8564 -20.8506
   -20.8461 -20.8311 -20.8222 -20.8167 -20.8147 -20.8144 -20.8023 -20.8009
   -20.7983 -20.7977 -20.7956 -20.7935 -20.7912 -20.7796 -20.7781 -20.7697
   -20.7668 -20.7642 -20.7458 -20.7395 -20.7277 -20.7218 -20.7177 -20.7050
   -20.7005 -20.6968 -20.6863 -20.6859 -20.6809 -20.6667 -20.6484 -20.6400
    14.5790  15.8697  16.0296  16.0439  16.0700  16.2176  16.2867  16.3018
    16.3446  16.3705  16.4579  16.4739  16.5182  16.6587  16.6828  16.8466
    16.8566  16.9215  16.9513  17.0225  17.0832  17.1188  17.1747  17.1976
    17.2276  17.2657  17.3137  17.3361  17.3375  17.3622  17.4102  17.4301
    17.4545  17.4654  17.6456  17.7297  17.7718  17.7808  17.7912  17.9525
    17.9558  17.9893  17.9913  18.0894  18.1121  18.1499  18.2168  18.2329
    18.2620  18.2642  18.2983  18.3100  18.5420  18.5610  18.5712  18.6020
    18.6072  18.6190  18.7624  18.7931  18.8231  18.8745  18.9315  18.9383
    18.9804  18.9915  19.0314  19.1566  19.1596  19.1658  19.1878  19.2030
    19.2620  19.2900  19.3120  19.3557  19.3920  19.4125  19.4220  19.4232
    19.4646  19.4839  19.5695  19.5742  19.6031  19.6163  19.6383  19.6622
    19.8461  19.8872  20.0529  20.0693  20.1192  20.1835  20.2093  20.2698
    20.3114  20.3712  20.5163  20.5703  20.6956  20.7129  20.7319  20.7925
    20.8066  20.8285  20.8498  20.9226  20.9469  20.9671  21.1557  21.2098
    21.2343  21.2574  21.2714  21.3197  21.3605  21.3621  21.3966  21.4455
    21.4628  21.5586  21.6850  21.7000  21.7123  21.7454  21.7501  21.8052
    21.8071  21.8230  21.8483  21.9125  21.9474  22.0313  22.0496  22.0899
    22.1021  22.1854  22.3278  22.3973  22.4182  22.4209  22.4253  22.4648
    22.4931  22.4947  22.5683  22.5869  22.7660  22.8784  22.9222  22.9986
    23.0561  23.1058  23.1797  23.2006  23.2435  23.3335  23.3585  23.3614
    23.3836  23.5374  23.5608  23.5711  23.5996  23.6537  23.6618  23.6852
    23.7679  24.1014  24.2240  24.3986  24.7498  24.8875  24.9012  25.0334
    25.1176  25.2826  25.8945

          k = 0.0556 0.2778 0.2646 ( 31680 PWs)   bands (ev):

   -51.2236 -51.1785 -51.1440 -51.1296 -51.1291 -51.1247 -51.1151 -51.1048
   -51.1018 -51.0964 -51.0963 -51.0903 -51.0843 -51.0700 -51.0600 -51.0549
   -51.0074 -50.9860 -50.9818 -50.9698 -50.9678 -50.9663 -50.9633 -50.9617
   -50.9602 -50.9582 -50.9555 -50.9497 -50.9431 -50.9345 -50.9149 -50.9135
   -21.5553 -21.5487 -21.5433 -21.5315 -21.5069 -21.5038 -21.4725 -21.4213
   -21.4081 -21.4066 -21.3987 -21.3950 -21.3830 -21.3794 -21.3351 -21.3292
   -21.3253 -21.3201 -21.3100 -21.3063 -21.2866 -21.2846 -21.2539 -21.2376
   -21.2273 -21.2269 -21.2195 -21.1890 -21.1825 -21.1586 -21.1400 -21.1085
   -21.0973 -21.0760 -21.0713 -21.0499 -21.0464 -21.0287 -21.0125 -21.0108
   -21.0074 -21.0063 -21.0028 -20.9909 -20.9898 -20.9841 -20.9779 -20.9696
   -20.9594 -20.9464 -20.9415 -20.9263 -20.9151 -20.9134 -20.8895 -20.8868
   -20.8744 -20.8668 -20.8656 -20.8624 -20.8620 -20.8567 -20.8562 -20.8543
   -20.8461 -20.8319 -20.8289 -20.8260 -20.8175 -20.8131 -20.8124 -20.8064
   -20.8044 -20.8039 -20.8037 -20.7932 -20.7925 -20.7862 -20.7831 -20.7712
   -20.7684 -20.7572 -20.7477 -20.7471 -20.7285 -20.7235 -20.7132 -20.7018
   -20.6956 -20.6924 -20.6869 -20.6848 -20.6800 -20.6675 -20.6526 -20.6402
    14.7129  15.9042  15.9694  16.1237  16.1354  16.1478  16.2561  16.3372
    16.4321  16.4561  16.4912  16.5561  16.5852  16.6744  16.7754  16.8407
    16.8549  16.8715  16.9414  16.9538  17.0607  17.0650  17.0661  17.0703
    17.0896  17.1429  17.1790  17.2185  17.3049  17.4055  17.4326  17.4699
    17.4794  17.4815  17.4987  17.5189  17.6920  17.7072  17.7726  17.7976
    17.7980  17.8869  17.9711  18.0367  18.0607  18.0792  18.2288  18.2362
    18.2409  18.2700  18.2718  18.2757  18.3950  18.4110  18.6381  18.7649
    18.7904  18.8511  18.8534  18.8772  18.8848  18.9052  18.9689  19.0124
    19.0355  19.0565  19.0801  19.1418  19.1434  19.1949  19.2437  19.3166
    19.3361  19.3736  19.4102  19.4894  19.5094  19.5154  19.5447  19.5478
    19.6012  19.6104  19.6161  19.6468  19.6806  19.6995  19.7760  19.8071
    19.8146  19.8806  20.0485  20.0495  20.0899  20.0982  20.2239  20.3483
    20.4130  20.4522  20.4556  20.4685  20.4800  20.4808  20.5180  20.6592
    20.6751  20.7134  20.7372  20.7860  20.7879  20.9067  20.9546  20.9705
    21.0370  21.1024  21.1776  21.2561  21.2810  21.2951  21.3983  21.4169
    21.6354  21.6915  21.7225  21.7492  21.7675  21.8020  21.8388  21.9199
    21.9544  21.9769  22.0033  22.0325  22.0333  22.0495  22.0691  22.1135
    22.1478  22.1848  22.2993  22.4204  22.4398  22.5047  22.5121  22.5444
    22.5930  22.6010  22.6062  22.6086  22.7169  22.7479  22.9541  22.9836
    23.1388  23.2051  23.2107  23.2753  23.2814  23.2887  23.3187  23.3903
    23.3931  23.4051  23.4191  23.4352  23.4727  23.5021  23.5750  23.6691
    23.7604  23.9535  24.0154  24.1240  24.4150  24.6524  25.5265  25.5713
    25.5721  25.5774  25.6174

          k = 0.0556 0.2778 0.3704 ( 31680 PWs)   bands (ev):

   -51.2231 -51.1783 -51.1439 -51.1310 -51.1290 -51.1247 -51.1151 -51.1054
   -51.1018 -51.0965 -51.0963 -51.0905 -51.0844 -51.0700 -51.0600 -51.0549
   -51.0032 -50.9850 -50.9841 -50.9692 -50.9678 -50.9677 -50.9633 -50.9613
   -50.9603 -50.9582 -50.9560 -50.9500 -50.9430 -50.9347 -50.9149 -50.9135
   -21.5504 -21.5441 -21.5386 -21.5279 -21.5036 -21.5019 -21.4639 -21.4202
   -21.4069 -21.4066 -21.3993 -21.3983 -21.3807 -21.3790 -21.3420 -21.3374
   -21.3264 -21.3216 -21.3210 -21.3201 -21.3008 -21.2935 -21.2512 -21.2503
   -21.2410 -21.2246 -21.2210 -21.1903 -21.1881 -21.1436 -21.1376 -21.0872
   -21.0830 -21.0761 -21.0710 -21.0603 -21.0475 -21.0443 -21.0260 -21.0235
   -21.0045 -21.0040 -20.9841 -20.9822 -20.9807 -20.9699 -20.9658 -20.9653
   -20.9652 -20.9300 -20.9220 -20.9149 -20.9053 -20.8954 -20.8948 -20.8841
   -20.8815 -20.8791 -20.8669 -20.8630 -20.8608 -20.8600 -20.8572 -20.8568
   -20.8451 -20.8331 -20.8330 -20.8321 -20.8222 -20.8195 -20.8174 -20.8107
   -20.8076 -20.8039 -20.8033 -20.7939 -20.7907 -20.7877 -20.7783 -20.7763
   -20.7733 -20.7582 -20.7510 -20.7499 -20.7477 -20.7318 -20.7065 -20.6944
   -20.6887 -20.6880 -20.6867 -20.6791 -20.6747 -20.6684 -20.6614 -20.6425
    14.8934  15.6108  16.0997  16.1833  16.2102  16.2228  16.3274  16.4170
    16.4811  16.5264  16.5272  16.6118  16.6513  16.6617  16.6929  16.7869
    16.8685  16.8902  16.9032  16.9340  16.9639  16.9693  17.0154  17.0211
    17.0331  17.1240  17.1292  17.2025  17.2253  17.2502  17.2661  17.4554
    17.4630  17.4916  17.4996  17.5450  17.5915  17.5985  17.6244  17.7548
    17.8583  17.8753  17.8818  17.9126  17.9556  18.1130  18.1587  18.2194
    18.2498  18.2518  18.3177  18.3197  18.3573  18.4214  18.6962  18.7021
    18.7408  18.7905  18.8354  18.9206  18.9325  18.9501  18.9649  19.0357
    19.1180  19.1345  19.1905  19.2089  19.2314  19.3284  19.3618  19.3961
    19.4528  19.4643  19.4893  19.5432  19.5589  19.5942  19.5978  19.6775
    19.7012  19.7339  19.7390  19.7460  19.7538  19.7926  19.8530  19.9698
    19.9973  20.0299  20.0428  20.0672  20.0745  20.1361  20.2769  20.2923
    20.3083  20.3187  20.3377  20.3525  20.4187  20.4268  20.4397  20.4702
    20.4922  20.5895  20.6011  20.7228  20.7301  20.7452  20.8170  20.8355
    20.8990  20.9329  21.1448  21.1535  21.2291  21.3055  21.3497  21.5742
    21.5748  21.5783  21.5993  21.6250  21.7761  21.7793  21.8382  21.8493
    21.9228  22.0588  22.0729  22.1191  22.1365  22.1417  22.1924  22.3233
    22.3545  22.4117  22.4284  22.4777  22.5082  22.5133  22.6119  22.6560
    22.6618  22.7185  22.7396  22.7407  22.7658  22.7803  22.9325  22.9403
    23.0354  23.0397  23.1547  23.1565  23.1707  23.1925  23.1944  23.2132
    23.2256  23.3160  23.4154  23.5293  23.5325  23.5729  23.6738  23.7518
    23.8531  23.9453  23.9522  23.9857  24.1150  24.5140  25.0263  25.0869
    26.0333  26.1505  26.1696

          k = 0.0556 0.2778-0.4762 ( 31706 PWs)   bands (ev):

   -51.2229 -51.1782 -51.1438 -51.1316 -51.1290 -51.1247 -51.1151 -51.1057
   -51.1018 -51.0965 -51.0963 -51.0906 -51.0844 -51.0700 -51.0600 -51.0549
   -51.0011 -50.9868 -50.9833 -50.9689 -50.9685 -50.9677 -50.9633 -50.9612
   -50.9603 -50.9582 -50.9563 -50.9501 -50.9430 -50.9347 -50.9149 -50.9135
   -21.5481 -21.5416 -21.5370 -21.5271 -21.5023 -21.5012 -21.4602 -21.4194
   -21.4071 -21.4045 -21.4017 -21.3995 -21.3797 -21.3790 -21.3446 -21.3390
   -21.3284 -21.3260 -21.3239 -21.3201 -21.3097 -21.2960 -21.2603 -21.2470
   -21.2425 -21.2285 -21.2166 -21.1931 -21.1901 -21.1367 -21.1366 -21.0871
   -21.0776 -21.0693 -21.0653 -21.0603 -21.0536 -21.0388 -21.0370 -21.0367
   -21.0041 -21.0039 -20.9863 -20.9795 -20.9703 -20.9673 -20.9640 -20.9554
   -20.9530 -20.9418 -20.9069 -20.9051 -20.8958 -20.8951 -20.8918 -20.8899
   -20.8878 -20.8753 -20.8746 -20.8711 -20.8614 -20.8609 -20.8602 -20.8575
   -20.8446 -20.8322 -20.8301 -20.8288 -20.8269 -20.8228 -20.8200 -20.8148
   -20.8079 -20.8015 -20.7957 -20.7949 -20.7946 -20.7795 -20.7765 -20.7764
   -20.7743 -20.7690 -20.7678 -20.7532 -20.7408 -20.7361 -20.7040 -20.6938
   -20.6885 -20.6847 -20.6787 -20.6781 -20.6730 -20.6688 -20.6669 -20.6446
    15.0197  15.4404  16.1849  16.2069  16.2558  16.2711  16.3937  16.4540
    16.4863  16.5242  16.5427  16.5460  16.5926  16.6958  16.7023  16.7580
    16.8763  16.8770  16.8830  16.9682  16.9741  16.9807  17.0021  17.0193
    17.0355  17.0871  17.1215  17.1438  17.1642  17.1842  17.2220  17.3545
    17.3850  17.4873  17.5089  17.5583  17.5924  17.6468  17.6787  17.7192
    17.7886  17.8251  17.8276  17.9242  17.9738  18.0446  18.1649  18.1665
    18.2576  18.2666  18.3415  18.3416  18.4422  18.4936  18.5447  18.6673
    18.7085  18.7228  18.8936  18.9318  18.9363  18.9459  18.9819  19.0771
    19.0788  19.1294  19.1338  19.2108  19.3445  19.3710  19.4896  19.5104
    19.5474  19.5663  19.5965  19.6055  19.6146  19.6268  19.6328  19.6449
    19.6750  19.7027  19.7043  19.8154  19.9007  19.9118  19.9424  19.9644
    20.0340  20.0349  20.0626  20.0809  20.0904  20.1234  20.1413  20.2373
    20.2592  20.2888  20.3079  20.3281  20.3600  20.3912  20.3968  20.4619
    20.4713  20.4995  20.5595  20.5880  20.6550  20.7938  20.8799  20.9226
    20.9470  20.9709  21.0299  21.0586  21.1317  21.1839  21.2765  21.4029
    21.4502  21.4549  21.6677  21.6879  21.7259  21.8153  21.8319  21.8615
    22.0700  22.0714  22.0947  22.1192  22.1946  22.3007  22.3273  22.3708
    22.4116  22.4754  22.4975  22.5327  22.5518  22.5783  22.5791  22.6804
    22.7044  22.7074  22.7144  22.7592  22.7595  22.7840  22.9817  23.0627
    23.0717  23.0739  23.0758  23.0760  23.0836  23.1269  23.1336  23.1407
    23.1907  23.2122  23.4183  23.4684  23.4958  23.5718  23.6570  23.6754
    23.7484  23.8787  24.1742  24.2337  24.3990  24.4092  24.6364  24.6430
    26.3828  26.4862  26.7465

          k = 0.0556 0.3889 0.0529 ( 31693 PWs)   bands (ev):

   -51.2163 -51.1931 -51.1405 -51.1306 -51.1265 -51.1225 -51.1193 -51.1105
   -51.0940 -51.0921 -51.0908 -51.0886 -51.0860 -51.0674 -51.0649 -51.0574
   -51.0091 -50.9967 -50.9753 -50.9705 -50.9690 -50.9685 -50.9632 -50.9626
   -50.9587 -50.9558 -50.9557 -50.9510 -50.9347 -50.9281 -50.9202 -50.9175
   -21.5359 -21.5269 -21.5233 -21.5135 -21.4893 -21.4798 -21.4686 -21.4638
   -21.4523 -21.4452 -21.4383 -21.4249 -21.4226 -21.4115 -21.3357 -21.3284
   -21.2950 -21.2771 -21.2711 -21.2665 -21.2628 -21.2461 -21.2460 -21.2401
   -21.2354 -21.2304 -21.2174 -21.1988 -21.1955 -21.1943 -21.1150 -21.1097
   -21.1021 -21.0754 -21.0675 -21.0599 -21.0568 -21.0513 -21.0461 -21.0331
   -21.0229 -21.0184 -20.9984 -20.9983 -20.9762 -20.9706 -20.9692 -20.9612
   -20.9580 -20.9547 -20.9292 -20.9268 -20.9260 -20.9043 -20.9019 -20.9004
   -20.8878 -20.8782 -20.8676 -20.8544 -20.8539 -20.8539 -20.8516 -20.8465
   -20.8333 -20.8307 -20.8236 -20.8139 -20.8138 -20.8035 -20.7978 -20.7969
   -20.7966 -20.7945 -20.7915 -20.7816 -20.7790 -20.7750 -20.7679 -20.7670
   -20.7547 -20.7502 -20.7436 -20.7355 -20.7327 -20.7244 -20.7223 -20.7131
   -20.7045 -20.7042 -20.7021 -20.7015 -20.6875 -20.6786 -20.6610 -20.6555
    14.7536  15.4276  16.1369  16.1948  16.2102  16.3496  16.4246  16.4305
    16.4783  16.4816  16.5373  16.6153  16.6275  16.6689  16.6717  16.6854
    16.7557  16.8314  16.8504  16.8529  16.9275  16.9621  17.0230  17.0827
    17.1251  17.1533  17.2020  17.2951  17.4219  17.4587  17.4871  17.4912
    17.5051  17.5581  17.5622  17.6585  17.7868  17.8168  17.8339  17.9020
    17.9707  17.9747  18.0751  18.0884  18.0912  18.1285  18.1883  18.2328
    18.2409  18.2583  18.2722  18.2859  18.4001  18.4274  18.5546  18.5871
    18.6625  18.6737  18.6906  18.7436  18.7514  18.7847  18.8036  18.8738
    18.9239  18.9591  19.0097  19.0637  19.0729  19.1190  19.1290  19.1504
    19.1774  19.2338  19.2384  19.2741  19.3443  19.4168  19.4939  19.5338
    19.5882  19.5963  19.5976  19.6077  19.6537  19.8143  19.8144  19.8257
    19.8764  19.9235  19.9652  19.9701  19.9874  20.1353  20.1462  20.2184
    20.2458  20.7023  20.7214  20.8101  20.8521  20.8566  20.8679  20.8863
    20.9218  20.9572  21.0241  21.0703  21.0938  21.1045  21.1169  21.1339
    21.1458  21.2576  21.2742  21.2868  21.2868  21.3024  21.3458  21.4104
    21.4112  21.4924  21.5554  21.5682  21.5878  21.6923  21.7068  21.7187
    21.7438  21.8912  21.9214  21.9288  21.9868  22.0489  22.1210  22.1493
    22.2114  22.2872  22.4065  22.4676  22.4806  22.4957  22.6131  22.6551
    22.6750  22.7500  22.7749  22.8437  22.8520  22.8544  22.9199  22.9452
    22.9545  22.9952  23.0029  23.0807  23.1212  23.1452  23.1889  23.2554
    23.2588  23.2702  23.3547  23.6409  23.6530  23.6697  23.7205  23.7314
    23.7704  24.0968  24.1828  24.2058  24.2683  24.6920  24.6985  24.7048
    25.1407  25.2042  25.2105

          k = 0.0556 0.3889 0.1587 ( 31693 PWs)   bands (ev):

   -51.2160 -51.1929 -51.1405 -51.1306 -51.1265 -51.1234 -51.1192 -51.1112
   -51.0941 -51.0922 -51.0910 -51.0886 -51.0861 -51.0674 -51.0649 -51.0574
   -51.0071 -50.9952 -50.9766 -50.9702 -50.9695 -50.9689 -50.9631 -50.9624
   -50.9588 -50.9561 -50.9557 -50.9511 -50.9346 -50.9282 -50.9202 -50.9175
   -21.5355 -21.5243 -21.5221 -21.5079 -21.4873 -21.4793 -21.4648 -21.4647
   -21.4489 -21.4485 -21.4341 -21.4231 -21.4216 -21.4119 -21.3345 -21.3319
   -21.3046 -21.2899 -21.2789 -21.2719 -21.2689 -21.2576 -21.2472 -21.2471
   -21.2411 -21.2298 -21.2158 -21.2053 -21.1993 -21.1923 -21.1015 -21.0976
   -21.0955 -21.0705 -21.0581 -21.0555 -21.0540 -21.0383 -21.0355 -21.0354
   -21.0332 -21.0204 -20.9886 -20.9816 -20.9780 -20.9751 -20.9675 -20.9616
   -20.9587 -20.9549 -20.9345 -20.9318 -20.9178 -20.9047 -20.9017 -20.8982
   -20.8905 -20.8725 -20.8720 -20.8536 -20.8536 -20.8506 -20.8469 -20.8454
   -20.8353 -20.8325 -20.8309 -20.8256 -20.8145 -20.8097 -20.8068 -20.8065
   -20.7974 -20.7907 -20.7901 -20.7876 -20.7820 -20.7774 -20.7656 -20.7636
   -20.7634 -20.7495 -20.7374 -20.7336 -20.7236 -20.7231 -20.7195 -20.7147
   -20.7089 -20.7071 -20.7034 -20.7006 -20.6807 -20.6797 -20.6624 -20.6516
    14.8197  15.4847  16.1820  16.2107  16.2353  16.3376  16.4241  16.4788
    16.4976  16.5262  16.5417  16.5802  16.6331  16.6636  16.6691  16.6780
    16.6918  16.8101  16.8187  16.8881  16.9205  16.9355  17.0477  17.0937
    17.1013  17.1426  17.1606  17.1729  17.3140  17.3338  17.4009  17.4720
    17.5280  17.5361  17.5951  17.6394  17.6547  17.8204  17.8491  17.8584
    17.8637  17.9837  18.0018  18.0078  18.0367  18.1223  18.1364  18.1453
    18.1706  18.1910  18.2946  18.2978  18.3517  18.4725  18.6288  18.6474
    18.6831  18.8150  18.8221  18.8378  18.8381  18.8416  18.8537  18.8962
    18.9382  19.0233  19.0746  19.1085  19.1336  19.2409  19.2564  19.2658
    19.2906  19.3043  19.3821  19.4040  19.4612  19.4744  19.4972  19.5039
    19.5841  19.5887  19.6500  19.6811  19.6846  19.6951  19.7347  19.8124
    19.8510  19.9524  19.9940  20.0088  20.0617  20.0903  20.1259  20.1739
    20.2048  20.5970  20.6277  20.6593  20.6660  20.6978  20.7168  20.7780
    20.7923  20.8472  20.8483  20.8573  20.8872  20.9587  21.0763  21.0960
    21.0970  21.1818  21.2294  21.2696  21.3592  21.3702  21.3982  21.4057
    21.5551  21.5628  21.5825  21.6155  21.6993  21.7829  21.8308  21.8382
    21.8617  21.9162  21.9431  22.0490  22.0691  22.0699  22.0792  22.1724
    22.2428  22.2568  22.2854  22.4076  22.5938  22.6059  22.6109  22.6569
    22.6811  22.6960  22.6994  22.8106  22.8144  22.8501  22.8720  22.9550
    23.0052  23.0779  23.1076  23.1290  23.1843  23.1891  23.2475  23.2883
    23.3122  23.3206  23.3683  23.5702  23.5740  23.6209  23.6409  23.6449
    23.7183  23.8129  24.2222  24.2508  24.3357  24.5380  24.6203  24.7503
    25.2496  25.6018  25.7521

          k = 0.0556 0.3889 0.2646 ( 31668 PWs)   bands (ev):

   -51.2155 -51.1925 -51.1404 -51.1305 -51.1264 -51.1249 -51.1192 -51.1122
   -51.0941 -51.0922 -51.0911 -51.0886 -51.0862 -51.0674 -51.0649 -51.0574
   -51.0037 -50.9928 -50.9791 -50.9713 -50.9696 -50.9687 -50.9631 -50.9622
   -50.9589 -50.9565 -50.9558 -50.9514 -50.9346 -50.9282 -50.9202 -50.9175
   -21.5329 -21.5227 -21.5165 -21.5027 -21.4840 -21.4785 -21.4645 -21.4582
   -21.4494 -21.4457 -21.4326 -21.4203 -21.4200 -21.4125 -21.3368 -21.3328
   -21.3153 -21.3011 -21.2902 -21.2835 -21.2737 -21.2720 -21.2568 -21.2519
   -21.2444 -21.2413 -21.2339 -21.2040 -21.2017 -21.1810 -21.0986 -21.0789
   -21.0707 -21.0683 -21.0602 -21.0532 -21.0503 -21.0307 -21.0297 -21.0216
   -21.0162 -20.9937 -20.9915 -20.9879 -20.9819 -20.9747 -20.9621 -20.9545
   -20.9533 -20.9505 -20.9448 -20.9387 -20.9083 -20.9066 -20.9051 -20.8989
   -20.8906 -20.8781 -20.8625 -20.8589 -20.8529 -20.8511 -20.8489 -20.8478
   -20.8459 -20.8370 -20.8294 -20.8288 -20.8185 -20.8163 -20.8154 -20.8149
   -20.8086 -20.7967 -20.7883 -20.7861 -20.7793 -20.7786 -20.7688 -20.7622
   -20.7584 -20.7477 -20.7437 -20.7414 -20.7207 -20.7206 -20.7182 -20.7171
   -20.7063 -20.7059 -20.6987 -20.6941 -20.6817 -20.6728 -20.6690 -20.6470
    14.9473  15.5942  16.0896  16.2630  16.2879  16.3305  16.3542  16.4528
    16.5643  16.5884  16.6143  16.6148  16.6374  16.6589  16.6641  16.7031
    16.7171  16.7776  16.7888  16.8135  16.8906  16.9559  17.0327  17.0371
    17.0846  17.1466  17.1654  17.2010  17.2039  17.2387  17.2556  17.3631
    17.5348  17.5550  17.5662  17.5888  17.5999  17.6368  17.6564  17.7592
    17.7824  17.8004  17.8503  17.9175  17.9519  18.0492  18.0620  18.0971
    18.1595  18.3299  18.3484  18.3533  18.4995  18.5013  18.6036  18.6548
    18.7547  18.8396  18.9259  18.9509  18.9900  19.0020  19.0189  19.0568
    19.0634  19.0875  19.1314  19.1566  19.2639  19.3318  19.3655  19.4264
    19.4684  19.5039  19.5062  19.5342  19.5471  19.5508  19.5598  19.5746
    19.5906  19.5944  19.6273  19.7165  19.8061  19.8062  19.8180  19.8203
    19.8334  19.9084  19.9321  19.9328  19.9761  20.1355  20.1724  20.1871
    20.2620  20.4331  20.4358  20.4383  20.4457  20.5147  20.5268  20.5939
    20.5952  20.6373  20.6728  20.6924  20.7700  20.7863  20.8097  20.9091
    20.9619  21.0330  21.1594  21.1781  21.2008  21.3614  21.3917  21.4711
    21.6047  21.6093  21.6494  21.6735  21.7853  21.9215  21.9422  21.9719
    21.9730  21.9780  22.0904  22.1085  22.1397  22.2154  22.2352  22.2680
    22.2864  22.4024  22.4028  22.4681  22.5070  22.5580  22.7300  22.7400
    22.7448  22.7708  22.7762  22.7791  22.7964  22.8309  22.8494  22.9171
    22.9538  23.0714  23.0787  23.0912  23.1716  23.1869  23.2221  23.2649
    23.3107  23.3754  23.4258  23.4482  23.4583  23.4822  23.5897  23.6400
    23.8229  23.9098  23.9720  24.0183  24.1356  24.2963  25.0453  25.2233
    25.8865  26.1136  26.2876

          k = 0.0556 0.3889 0.3704 ( 31664 PWs)   bands (ev):

   -51.2150 -51.1922 -51.1403 -51.1305 -51.1263 -51.1262 -51.1192 -51.1130
   -51.0942 -51.0922 -51.0913 -51.0885 -51.0862 -51.0674 -51.0649 -51.0574
   -50.9999 -50.9903 -50.9820 -50.9733 -50.9692 -50.9685 -50.9630 -50.9619
   -50.9591 -50.9569 -50.9558 -50.9516 -50.9345 -50.9283 -50.9202 -50.9175
   -21.5292 -21.5192 -21.5129 -21.5008 -21.4809 -21.4777 -21.4629 -21.4518
   -21.4477 -21.4446 -21.4345 -21.4185 -21.4176 -21.4130 -21.3408 -21.3312
   -21.3207 -21.3044 -21.2997 -21.2972 -21.2829 -21.2736 -21.2713 -21.2611
   -21.2490 -21.2489 -21.2420 -21.2070 -21.2052 -21.1693 -21.0964 -21.0841
   -21.0723 -21.0539 -21.0458 -21.0419 -21.0349 -21.0288 -21.0082 -21.0072
   -21.0019 -21.0017 -20.9923 -20.9920 -20.9802 -20.9611 -20.9591 -20.9573
   -20.9487 -20.9479 -20.9432 -20.9347 -20.9203 -20.9145 -20.9114 -20.8902
   -20.8831 -20.8824 -20.8797 -20.8559 -20.8556 -20.8519 -20.8514 -20.8497
   -20.8490 -20.8446 -20.8319 -20.8276 -20.8239 -20.8216 -20.8166 -20.8164
   -20.8152 -20.7969 -20.7921 -20.7896 -20.7841 -20.7703 -20.7642 -20.7625
   -20.7576 -20.7566 -20.7471 -20.7410 -20.7281 -20.7238 -20.7175 -20.7090
   -20.7064 -20.6975 -20.6964 -20.6843 -20.6841 -20.6776 -20.6672 -20.6452
    15.1188  15.7397  15.8078  16.3469  16.3473  16.3687  16.3693  16.4011
    16.5099  16.5645  16.6190  16.6457  16.6969  16.7028  16.7143  16.7468
    16.7492  16.7504  16.7760  16.8597  16.8628  16.9763  17.0105  17.0261
    17.0307  17.0828  17.0841  17.1903  17.2095  17.2752  17.3325  17.3404
    17.3804  17.3860  17.4637  17.4790  17.5357  17.6102  17.6117  17.6341
    17.6529  17.7070  17.7665  17.7881  17.7959  17.9607  18.0709  18.1068
    18.2827  18.3244  18.3865  18.4556  18.4788  18.5786  18.6001  18.6077
    18.8789  18.9461  18.9642  18.9859  19.1176  19.1477  19.1527  19.1660
    19.1816  19.1858  19.2217  19.2519  19.3115  19.3801  19.4585  19.4642
    19.5455  19.5820  19.5859  19.6033  19.6250  19.6662  19.6777  19.7312
    19.7343  19.7475  19.7933  19.7948  19.8167  19.8483  19.8559  19.8569
    19.8619  19.8793  19.8883  20.0241  20.0682  20.0998  20.1105  20.1216
    20.2336  20.2445  20.2668  20.2732  20.2954  20.3080  20.3145  20.3363
    20.4751  20.4993  20.5337  20.6561  20.6586  20.7113  20.7213  20.7522
    20.7855  20.9580  21.0122  21.0198  21.0256  21.0965  21.1781  21.2923
    21.4968  21.8135  21.8185  21.8206  21.8743  21.8923  21.9928  22.0884
    22.1302  22.1832  22.2007  22.2402  22.2865  22.3257  22.3947  22.3973
    22.4068  22.4545  22.5320  22.6026  22.6067  22.6581  22.6744  22.6832
    22.7038  22.7439  22.8061  22.8113  22.8170  22.9069  22.9107  22.9666
    22.9793  23.0453  23.0667  23.1275  23.1428  23.1853  23.2058  23.2317
    23.2695  23.2708  23.2821  23.2864  23.2961  23.3800  23.4320  23.5203
    23.5483  23.8310  23.8488  24.0200  24.4405  24.5027  25.6143  25.6972
    25.7296  25.8541  26.5620

          k = 0.0556 0.3889-0.4762 ( 31670 PWs)   bands (ev):

   -51.2148 -51.1921 -51.1402 -51.1305 -51.1267 -51.1263 -51.1192 -51.1134
   -51.0942 -51.0922 -51.0914 -51.0885 -51.0863 -51.0674 -51.0650 -51.0574
   -50.9981 -50.9892 -50.9835 -50.9742 -50.9690 -50.9685 -50.9630 -50.9618
   -50.9592 -50.9571 -50.9559 -50.9517 -50.9345 -50.9283 -50.9202 -50.9175
   -21.5272 -21.5170 -21.5119 -21.5009 -21.4796 -21.4774 -21.4619 -21.4489
   -21.4458 -21.4446 -21.4367 -21.4179 -21.4165 -21.4132 -21.3423 -21.3305
   -21.3207 -21.3045 -21.3034 -21.3025 -21.2870 -21.2798 -21.2718 -21.2685
   -21.2512 -21.2470 -21.2453 -21.2118 -21.2050 -21.1639 -21.0955 -21.0892
   -21.0778 -21.0411 -21.0345 -21.0298 -21.0280 -21.0197 -21.0195 -21.0186
   -21.0078 -20.9876 -20.9864 -20.9798 -20.9789 -20.9712 -20.9554 -20.9536
   -20.9471 -20.9453 -20.9426 -20.9288 -20.9260 -20.9206 -20.9205 -20.8934
   -20.8832 -20.8793 -20.8695 -20.8653 -20.8608 -20.8536 -20.8533 -20.8510
   -20.8500 -20.8417 -20.8331 -20.8308 -20.8297 -20.8217 -20.8168 -20.8147
   -20.8109 -20.8010 -20.7917 -20.7895 -20.7871 -20.7704 -20.7659 -20.7652
   -20.7583 -20.7512 -20.7442 -20.7393 -20.7338 -20.7300 -20.7151 -20.7114
   -20.6952 -20.6945 -20.6934 -20.6917 -20.6853 -20.6772 -20.6652 -20.6451
    15.2383  15.6455  15.8381  16.2123  16.3903  16.3936  16.4186  16.4479
    16.5214  16.5666  16.6125  16.6132  16.6664  16.7121  16.7355  16.7570
    16.7722  16.7913  16.7944  16.8471  16.8928  16.9458  16.9649  17.0228
    17.0596  17.0844  17.1259  17.2024  17.2406  17.2465  17.2607  17.2723
    17.3943  17.4192  17.4296  17.4402  17.4449  17.5004  17.5247  17.6008
    17.6766  17.6779  17.7577  17.7891  17.8050  17.8112  18.0875  18.1352
    18.2707  18.2710  18.4003  18.5122  18.5357  18.5609  18.6941  18.7068
    18.8232  18.9319  18.9348  18.9463  18.9785  19.1864  19.1929  19.2020
    19.2274  19.2791  19.3258  19.4453  19.4539  19.5065  19.5118  19.5646
    19.5650  19.6050  19.6201  19.6524  19.6984  19.6995  19.7092  19.7136
    19.7196  19.7711  19.7924  19.8277  19.8514  19.8562  19.8764  19.8881
    19.8933  19.8962  19.8986  19.9687  20.0371  20.0440  20.0761  20.1186
    20.1264  20.1491  20.1695  20.2005  20.2085  20.2537  20.2574  20.4424
    20.4665  20.4830  20.5101  20.6197  20.6353  20.6423  20.7493  20.7564
    20.8246  20.8471  20.8839  20.8925  20.8976  20.9064  21.0717  21.1267
    21.6389  21.6995  21.9302  21.9629  21.9753  21.9830  21.9882  22.0585
    22.1460  22.1702  22.2316  22.3311  22.3343  22.3957  22.4690  22.5023
    22.5080  22.5122  22.5547  22.5568  22.5991  22.6181  22.6442  22.6562
    22.8002  22.8189  22.8442  22.8472  22.9130  22.9188  22.9240  22.9698
    23.0071  23.0649  23.0766  23.0803  23.0918  23.1511  23.1672  23.1867
    23.2198  23.2261  23.2263  23.2905  23.2936  23.3679  23.3823  23.4353
    23.4558  23.5328  23.8254  23.9368  24.8251  24.9589  25.2642  25.2901
    26.1242  26.3128  26.4206

          k = 0.0556-0.5000 0.0529 ( 31692 PWs)   bands (ev):

   -51.2057 -51.2057 -51.1359 -51.1359 -51.1231 -51.1231 -51.1169 -51.1169
   -51.0922 -51.0922 -51.0887 -51.0887 -51.0770 -51.0770 -51.0607 -51.0607
   -51.0035 -51.0035 -50.9723 -50.9723 -50.9699 -50.9699 -50.9629 -50.9629
   -50.9572 -50.9572 -50.9532 -50.9532 -50.9269 -50.9269 -50.9224 -50.9224
   -21.5031 -21.5031 -21.4921 -21.4921 -21.4871 -21.4871 -21.4774 -21.4774
   -21.4598 -21.4598 -21.4469 -21.4469 -21.4467 -21.4467 -21.3340 -21.3340
   -21.2793 -21.2793 -21.2559 -21.2559 -21.2520 -21.2520 -21.2472 -21.2472
   -21.2295 -21.2295 -21.2207 -21.2207 -21.2060 -21.2060 -21.0849 -21.0849
   -21.0815 -21.0815 -21.0701 -21.0701 -21.0674 -21.0674 -21.0647 -21.0647
   -21.0197 -21.0197 -20.9975 -20.9975 -20.9574 -20.9574 -20.9548 -20.9548
   -20.9390 -20.9390 -20.9338 -20.9338 -20.9211 -20.9211 -20.8946 -20.8946
   -20.8874 -20.8874 -20.8644 -20.8644 -20.8605 -20.8605 -20.8365 -20.8364
   -20.8352 -20.8352 -20.8324 -20.8324 -20.8013 -20.8013 -20.8003 -20.8003
   -20.7828 -20.7828 -20.7769 -20.7769 -20.7660 -20.7660 -20.7660 -20.7660
   -20.7549 -20.7549 -20.7383 -20.7383 -20.7325 -20.7325 -20.7261 -20.7261
   -20.7200 -20.7200 -20.6950 -20.6950 -20.6786 -20.6786 -20.6713 -20.6713
    15.0647  15.0647  16.3027  16.3027  16.4193  16.4194  16.4266  16.4266
    16.5264  16.5264  16.6217  16.6217  16.6281  16.6281  16.6785  16.6785
    16.6922  16.6922  16.8314  16.8314  16.8463  16.8463  16.9703  16.9703
    17.1147  17.1147  17.1853  17.1853  17.3076  17.3076  17.5871  17.5871
    17.6473  17.6473  17.7102  17.7102  17.7166  17.7166  17.7189  17.7189
    17.8969  17.8969  18.0638  18.0638  18.0922  18.0922  18.1915  18.1915
    18.2301  18.2301  18.2883  18.2883  18.4056  18.4056  18.6121  18.6121
    18.6450  18.6450  18.6620  18.6620  18.8428  18.8428  18.8740  18.8740
    18.9470  18.9470  19.0123  19.0123  19.0780  19.0780  19.1165  19.1165
    19.2224  19.2224  19.3305  19.3305  19.3894  19.3894  19.4920  19.4920
    19.5944  19.5944  19.6767  19.6767  19.6768  19.6768  19.7552  19.7552
    19.7877  19.7877  20.0110  20.0110  20.3845  20.3845  20.4049  20.4049
    20.5693  20.5693  20.5800  20.5800  20.7585  20.7585  20.8477  20.8477
    20.8586  20.8586  21.0891  21.0891  21.0990  21.0990  21.1956  21.1956
    21.2651  21.2651  21.2660  21.2660  21.3188  21.3188  21.3766  21.3766
    21.3917  21.3917  21.4150  21.4150  21.5535  21.5535  21.6418  21.6418
    21.7167  21.7167  21.8911  21.8911  22.3143  22.3143  22.3476  22.3476
    22.4676  22.4676  22.4710  22.4710  22.5411  22.5411  22.6531  22.6531
    22.7462  22.7462  22.7657  22.7657  22.8825  22.8825  22.9594  22.9594
    22.9620  22.9620  23.0104  23.0104  23.0348  23.0348  23.2519  23.2519
    23.2918  23.2918  23.4541  23.4541  23.6556  23.6556  23.6777  23.6777
    23.7256  23.7256  23.7444  23.7444  24.4861  24.4861  24.9827  24.9827
    24.9912  24.9912  25.4786

          k = 0.0556-0.5000 0.1587 ( 31710 PWs)   bands (ev):

   -51.2054 -51.2054 -51.1359 -51.1359 -51.1231 -51.1231 -51.1178 -51.1178
   -51.0923 -51.0923 -51.0887 -51.0887 -51.0770 -51.0770 -51.0607 -51.0607
   -51.0017 -51.0017 -50.9735 -50.9735 -50.9697 -50.9697 -50.9628 -50.9628
   -50.9574 -50.9574 -50.9533 -50.9533 -50.9269 -50.9269 -50.9224 -50.9224
   -21.5036 -21.5036 -21.4893 -21.4893 -21.4878 -21.4878 -21.4725 -21.4725
[...]
   -20.8971 -20.8971 -20.8971 -20.8971 -20.8971 -20.8971 -20.8971 -20.8971
   -20.8174 -20.8174 -20.8174 -20.8174 -20.8174 -20.8174 -20.8174 -20.8174
   -20.8144 -20.8144 -20.8144 -20.8144 -20.8013 -20.8013 -20.8013 -20.8013
   -20.7693 -20.7693 -20.7693 -20.7693 -20.7254 -20.7254 -20.7254 -20.7253
   -20.6813 -20.6813 -20.6813 -20.6813 -20.6350 -20.6350 -20.6350 -20.6350
    15.7219  15.7219  15.7219  15.7219  16.4917  16.4917  16.4917  16.4917
    16.6437  16.6437  16.6437  16.6437  16.8742  16.8742  16.8742  16.8742
    16.8742  16.8742  16.8742  16.8742  16.9050  16.9050  16.9050  16.9050
    17.0378  17.0378  17.0378  17.0378  17.0378  17.0378  17.0378  17.0378
    17.4557  17.4557  17.4557  17.4557  17.4557  17.4557  17.4557  17.4557
    17.5794  17.5794  17.5794  17.5794  18.2204  18.2204  18.2204  18.2204
    18.2204  18.2204  18.2204  18.2204  18.7023  18.7023  18.7023  18.7023
    18.8056  18.8056  18.8056  18.8056  19.0575  19.0575  19.0575  19.0575
    19.3213  19.3213  19.3213  19.3213  19.4417  19.4417  19.4417  19.4417
    19.6591  19.6591  19.6591  19.6591  19.7452  19.7452  19.7452  19.7452
    19.7452  19.7452  19.7452  19.7452  19.8824  19.8824  19.8824  19.8824
    20.1156  20.1156  20.1156  20.1156  20.2184  20.2184  20.2184  20.2184
    20.2184  20.2184  20.2184  20.2184  20.2313  20.2313  20.2313  20.2313
    20.4961  20.4961  20.4961  20.4961  20.4961  20.4961  20.4961  20.4961
    20.5556  20.5556  20.5556  20.5556  21.1814  21.1814  21.1814  21.1814
    21.8969  21.8969  21.8969  21.8969  21.9802  21.9802  21.9802  21.9802
    22.2288  22.2288  22.2288  22.2288  22.2288  22.2288  22.2288  22.2288
    22.6867  22.6867  22.6867  22.6867  22.7320  22.7320  22.7320  22.7320
    22.7320  22.7320  22.7320  22.7320  22.7668  22.7668  22.7668  22.7668
    23.0808  23.0808  23.0808  23.0808  23.2479  23.2479  23.2479  23.2479
    23.2479  23.2479  23.2479  23.2479  23.3349  23.3349  23.3349  23.3349
    23.3375  23.3375  23.3375  23.3375  26.1682  26.1682  26.1682  26.1682
    26.1682  26.1682  26.1682

          k =-0.5000-0.5000 0.1587 ( 31688 PWs)   bands (ev):

   -51.1829 -51.1829 -51.1829 -51.1829 -51.1084 -51.1084 -51.1084 -51.1084
   -51.0796 -51.0796 -51.0796 -51.0796 -51.0796 -51.0796 -51.0796 -51.0796
   -50.9921 -50.9921 -50.9921 -50.9921 -50.9693 -50.9693 -50.9693 -50.9693
   -50.9362 -50.9362 -50.9362 -50.9362 -50.9362 -50.9362 -50.9362 -50.9362
   -21.4945 -21.4945 -21.4945 -21.4945 -21.4945 -21.4945 -21.4945 -21.4945
   -21.4296 -21.4296 -21.4296 -21.4296 -21.3648 -21.3648 -21.3648 -21.3648
   -21.3266 -21.3266 -21.3266 -21.3266 -21.3266 -21.3266 -21.3266 -21.3266
   -21.1947 -21.1947 -21.1947 -21.1947 -21.1118 -21.1118 -21.1118 -21.1118
   -21.0272 -21.0272 -21.0272 -21.0272 -21.0272 -21.0272 -21.0272 -21.0272
   -20.9589 -20.9589 -20.9589 -20.9589 -20.9589 -20.9589 -20.9589 -20.9589
   -20.9331 -20.9331 -20.9331 -20.9331 -20.9180 -20.9180 -20.9180 -20.9180
   -20.8949 -20.8949 -20.8949 -20.8949 -20.8949 -20.8949 -20.8949 -20.8949
   -20.8447 -20.8447 -20.8447 -20.8447 -20.8188 -20.8188 -20.8188 -20.8188
   -20.8188 -20.8188 -20.8188 -20.8188 -20.8030 -20.8030 -20.8030 -20.8030
   -20.7478 -20.7478 -20.7478 -20.7478 -20.7209 -20.7209 -20.7209 -20.7209
   -20.6780 -20.6780 -20.6780 -20.6780 -20.6371 -20.6371 -20.6371 -20.6371
    15.7467  15.7467  15.7467  15.7467  16.4090  16.4090  16.4090  16.4090
    16.6549  16.6549  16.6549  16.6549  16.8482  16.8482  16.8482  16.8482
    16.8482  16.8482  16.8482  16.8482  16.9659  16.9659  16.9659  16.9659
    17.0418  17.0418  17.0418  17.0418  17.0418  17.0418  17.0418  17.0418
    17.4906  17.4906  17.4906  17.4906  17.4906  17.4906  17.4906  17.4906
    17.5916  17.5916  17.5916  17.5916  18.2285  18.2285  18.2285  18.2285
    18.2285  18.2285  18.2285  18.2285  18.5755  18.5755  18.5755  18.5755
    18.8548  18.8548  18.8548  18.8548  19.0556  19.0556  19.0556  19.0556
    19.4096  19.4096  19.4096  19.4096  19.4871  19.4871  19.4871  19.4871
    19.6574  19.6574  19.6574  19.6574  19.7257  19.7257  19.7257  19.7257
    19.7257  19.7258  19.7258  19.7258  19.8641  19.8641  19.8641  19.8641
    20.0777  20.0777  20.0777  20.0777  20.1773  20.1773  20.1773  20.1773
    20.2113  20.2113  20.2113  20.2113  20.2113  20.2113  20.2113  20.2113
    20.5483  20.5483  20.5483  20.5483  20.5483  20.5483  20.5484  20.5484
    20.6423  20.6423  20.6423  20.6423  21.2367  21.2367  21.2367  21.2367
    21.8186  21.8186  21.8186  21.8186  21.8892  21.8892  21.8892  21.8892
    21.8892  21.8892  21.8892  21.8892  21.9093  21.9093  21.9093  21.9093
    22.2876  22.2876  22.2876  22.2876  22.5967  22.5967  22.5967  22.5967
    23.0031  23.0031  23.0031  23.0031  23.0031  23.0031  23.0031  23.0031
    23.1963  23.1963  23.1963  23.1963  23.3058  23.3058  23.3059  23.3059
    23.3059  23.3059  23.3059  23.3059  23.3804  23.3804  23.3804  23.3804
    23.9868  23.9868  23.9868  23.9868  26.2284  26.2284  26.2284  26.2284
    26.2284  26.2284  26.2284

          k =-0.5000-0.5000 0.2646 ( 31660 PWs)   bands (ev):

   -51.1826 -51.1826 -51.1826 -51.1826 -51.1091 -51.1091 -51.1091 -51.1091
   -51.0796 -51.0796 -51.0796 -51.0796 -51.0796 -51.0796 -51.0796 -51.0796
   -50.9902 -50.9902 -50.9902 -50.9902 -50.9707 -50.9707 -50.9707 -50.9707
   -50.9362 -50.9362 -50.9362 -50.9362 -50.9362 -50.9362 -50.9362 -50.9362
   -21.4937 -21.4937 -21.4937 -21.4937 -21.4937 -21.4937 -21.4937 -21.4937
   -21.4331 -21.4331 -21.4331 -21.4331 -21.3732 -21.3732 -21.3732 -21.3732
   -21.3279 -21.3279 -21.3279 -21.3279 -21.3279 -21.3279 -21.3279 -21.3279
   -21.1723 -21.1723 -21.1723 -21.1723 -21.0982 -21.0982 -21.0982 -21.0982
   -21.0285 -21.0285 -21.0285 -21.0285 -21.0285 -21.0285 -21.0285 -21.0285
   -20.9585 -20.9585 -20.9585 -20.9585 -20.9585 -20.9585 -20.9585 -20.9585
   -20.9470 -20.9470 -20.9470 -20.9470 -20.9172 -20.9172 -20.9172 -20.9172
   -20.8913 -20.8913 -20.8913 -20.8913 -20.8913 -20.8913 -20.8913 -20.8913
   -20.8795 -20.8795 -20.8795 -20.8795 -20.8211 -20.8211 -20.8211 -20.8211
   -20.8211 -20.8211 -20.8211 -20.8211 -20.8056 -20.8056 -20.8056 -20.8056
   -20.7292 -20.7292 -20.7292 -20.7292 -20.7148 -20.7148 -20.7148 -20.7148
   -20.6723 -20.6723 -20.6723 -20.6723 -20.6409 -20.6409 -20.6409 -20.6409
    15.7931  15.7931  15.7931  15.7931  16.2952  16.2952  16.2952  16.2952
    16.6754  16.6754  16.6754  16.6754  16.8324  16.8324  16.8324  16.8324
    16.8324  16.8324  16.8324  16.8324  17.0061  17.0061  17.0061  17.0061
    17.0061  17.0061  17.0061  17.0061  17.0369  17.0369  17.0369  17.0369
    17.5883  17.5883  17.5883  17.5883  17.5883  17.5883  17.5883  17.5883
    17.6113  17.6114  17.6114  17.6114  18.2014  18.2014  18.2014  18.2015
    18.2015  18.2015  18.2015  18.2015  18.4170  18.4170  18.4170  18.4170
    18.9299  18.9299  18.9299  18.9299  19.0969  19.0969  19.0969  19.0969
    19.4196  19.4196  19.4196  19.4196  19.5952  19.5952  19.5952  19.5952
    19.6682  19.6682  19.6682  19.6682  19.7347  19.7347  19.7347  19.7347
    19.7347  19.7347  19.7347  19.7347  19.8394  19.8394  19.8394  19.8394
    20.0308  20.0308  20.0308  20.0308  20.0808  20.0808  20.0808  20.0808
    20.1904  20.1904  20.1904  20.1904  20.1904  20.1904  20.1904  20.1904
    20.6350  20.6350  20.6350  20.6350  20.6350  20.6350  20.6350  20.6350
    20.7826  20.7826  20.7826  20.7826  21.3055  21.3055  21.3055  21.3055
    21.5353  21.5353  21.5353  21.5353  21.5353  21.5353  21.5353  21.5353
    21.6566  21.6566  21.6566  21.6566  21.8223  21.8223  21.8223  21.8223
    22.0638  22.0638  22.0638  22.0638  22.3866  22.3866  22.3866  22.3866
    23.2184  23.2184  23.2184  23.2184  23.2184  23.2184  23.2184  23.2184
    23.3025  23.3025  23.3025  23.3025  23.4045  23.4045  23.4045  23.4045
    23.4045  23.4045  23.4045  23.4045  23.4383  23.4383  23.4383  23.4383
    24.7369  24.7369  24.7369  24.7369  26.3518  26.3518  26.3518  26.3518
    26.3518  26.3518  26.3519

          k =-0.5000-0.5000 0.3704 ( 31684 PWs)   bands (ev):

   -51.1823 -51.1823 -51.1823 -51.1823 -51.1097 -51.1097 -51.1097 -51.1097
   -51.0796 -51.0796 -51.0796 -51.0796 -51.0796 -51.0796 -51.0796 -51.0796
   -50.9884 -50.9884 -50.9884 -50.9884 -50.9721 -50.9721 -50.9721 -50.9721
   -50.9362 -50.9362 -50.9362 -50.9362 -50.9362 -50.9362 -50.9362 -50.9362
   -21.4929 -21.4929 -21.4929 -21.4929 -21.4929 -21.4929 -21.4929 -21.4929
   -21.4361 -21.4361 -21.4361 -21.4361 -21.3797 -21.3797 -21.3797 -21.3797
   -21.3290 -21.3290 -21.3290 -21.3290 -21.3290 -21.3290 -21.3290 -21.3290
   -21.1495 -21.1495 -21.1495 -21.1495 -21.0882 -21.0882 -21.0882 -21.0882
   -21.0296 -21.0296 -21.0296 -21.0296 -21.0296 -21.0296 -21.0296 -21.0296
   -20.9582 -20.9582 -20.9582 -20.9582 -20.9582 -20.9582 -20.9582 -20.9582
   -20.9538 -20.9538 -20.9538 -20.9538 -20.9165 -20.9165 -20.9165 -20.9165
   -20.9127 -20.9127 -20.9127 -20.9127 -20.8880 -20.8880 -20.8880 -20.8880
   -20.8880 -20.8880 -20.8880 -20.8880 -20.8234 -20.8234 -20.8234 -20.8234
   -20.8234 -20.8234 -20.8234 -20.8233 -20.8078 -20.8078 -20.8078 -20.8078
   -20.7168 -20.7168 -20.7168 -20.7168 -20.7104 -20.7104 -20.7104 -20.7104
   -20.6658 -20.6658 -20.6658 -20.6658 -20.6459 -20.6459 -20.6459 -20.6459
    15.8507  15.8507  15.8507  15.8507  16.1900  16.1900  16.1900  16.1900
    16.6945  16.6945  16.6945  16.6945  16.8406  16.8406  16.8406  16.8406
    16.8406  16.8406  16.8406  16.8406  16.9463  16.9463  16.9463  16.9463
    16.9463  16.9463  16.9463  16.9463  17.0898  17.0898  17.0898  17.0898
    17.6305  17.6305  17.6305  17.6305  17.7290  17.7290  17.7290  17.7290
    17.7290  17.7290  17.7290  17.7290  18.1156  18.1156  18.1156  18.1156
    18.1156  18.1156  18.1156  18.1156  18.2924  18.2924  18.2924  18.2924
    19.0062  19.0062  19.0062  19.0062  19.1638  19.1638  19.1638  19.1638
    19.3841  19.3841  19.3841  19.3841  19.6575  19.6575  19.6575  19.6575
    19.7172  19.7172  19.7172  19.7172  19.7883  19.7883  19.7883  19.7883
    19.7883  19.7883  19.7883  19.7883  19.8202  19.8202  19.8202  19.8202
    19.9668  19.9668  19.9668  19.9668  19.9959  19.9959  19.9959  19.9959
    20.1555  20.1555  20.1555  20.1555  20.1555  20.1555  20.1555  20.1555
    20.7468  20.7468  20.7468  20.7468  20.7468  20.7468  20.7468  20.7468
    20.9454  20.9454  20.9454  20.9454  21.2298  21.2298  21.2298  21.2298
    21.2298  21.2298  21.2298  21.2298  21.2944  21.2944  21.2944  21.2944
    21.5109  21.5109  21.5109  21.5109  21.8292  21.8292  21.8292  21.8292
    21.9671  21.9671  21.9671  21.9671  22.1710  22.1710  22.1710  22.1710
    23.3426  23.3426  23.3426  23.3426  23.3426  23.3426  23.3426  23.3426
    23.3732  23.3732  23.3732  23.3732  23.4826  23.4826  23.4826  23.4826
    23.4975  23.4975  23.4975  23.4975  23.4975  23.4975  23.4975  23.4975
    25.5472  25.5472  25.5472  25.5472  26.5279  26.5279  26.5279  26.5279
    26.5279  26.5279  26.5279

          k =-0.5000-0.5000-0.4762 ( 31704 PWs)   bands (ev):

   -51.1823 -51.1823 -51.1823 -51.1823 -51.1100 -51.1100 -51.1100 -51.1100
   -51.0796 -51.0796 -51.0796 -51.0796 -51.0796 -51.0796 -51.0796 -51.0796
   -50.9876 -50.9876 -50.9876 -50.9876 -50.9728 -50.9728 -50.9728 -50.9728
   -50.9362 -50.9362 -50.9362 -50.9362 -50.9362 -50.9362 -50.9362 -50.9362
   -21.4926 -21.4926 -21.4926 -21.4926 -21.4926 -21.4926 -21.4926 -21.4926
   -21.4373 -21.4373 -21.4373 -21.4373 -21.3821 -21.3821 -21.3821 -21.3821
   -21.3294 -21.3294 -21.3294 -21.3294 -21.3294 -21.3294 -21.3294 -21.3294
   -21.1386 -21.1386 -21.1386 -21.1386 -21.0861 -21.0861 -21.0861 -21.0861
   -21.0300 -21.0300 -21.0300 -21.0300 -21.0300 -21.0300 -21.0300 -21.0300
   -20.9581 -20.9581 -20.9581 -20.9581 -20.9581 -20.9581 -20.9581 -20.9581
   -20.9488 -20.9488 -20.9488 -20.9488 -20.9331 -20.9331 -20.9331 -20.9331
   -20.9162 -20.9162 -20.9162 -20.9162 -20.8867 -20.8867 -20.8867 -20.8867
   -20.8867 -20.8866 -20.8866 -20.8866 -20.8243 -20.8243 -20.8243 -20.8243
   -20.8243 -20.8243 -20.8243 -20.8243 -20.8087 -20.8087 -20.8087 -20.8087
   -20.7115 -20.7115 -20.7115 -20.7115 -20.7098 -20.7098 -20.7098 -20.7098
   -20.6620 -20.6620 -20.6620 -20.6620 -20.6490 -20.6490 -20.6490 -20.6490
    15.8837  15.8837  15.8837  15.8837  16.1400  16.1400  16.1400  16.1400
    16.7022  16.7022  16.7022  16.7022  16.8606  16.8606  16.8606  16.8606
    16.8606  16.8606  16.8606  16.8606  16.9059  16.9059  16.9059  16.9059
    16.9059  16.9059  16.9059  16.9059  17.1095  17.1095  17.1095  17.1095
    17.6388  17.6388  17.6388  17.6388  17.8256  17.8256  17.8256  17.8256
    17.8256  17.8256  17.8256  17.8256  18.0375  18.0375  18.0375  18.0375
    18.0375  18.0375  18.0375  18.0375  18.2448  18.2449  18.2449  18.2449
    19.0391  19.0391  19.0391  19.0391  19.2139  19.2139  19.2139  19.2139
    19.3439  19.3439  19.3439  19.3439  19.6751  19.6751  19.6751  19.6751
    19.7639  19.7639  19.7639  19.7639  19.8133  19.8133  19.8133  19.8133
    19.8265  19.8265  19.8265  19.8265  19.8265  19.8265  19.8265  19.8265
    19.8957  19.8957  19.8957  19.8957  19.9832  19.9832  19.9832  19.9832
    20.1324  20.1324  20.1324  20.1324  20.1324  20.1324  20.1324  20.1324
    20.8403  20.8403  20.8403  20.8403  20.8403  20.8403  20.8403  20.8403
    21.0583  21.0583  21.0583  21.0583  21.0634  21.0634  21.0634  21.0635
    21.0635  21.0635  21.0635  21.0635  21.2220  21.2220  21.2220  21.2220
    21.4594  21.4594  21.4594  21.4594  21.9373  21.9373  21.9373  21.9373
    21.9440  21.9440  21.9440  21.9440  21.9960  21.9960  21.9960  21.9960
    23.3839  23.3839  23.3839  23.3839  23.3839  23.3839  23.3839  23.3839
    23.3982  23.3982  23.3982  23.3982  23.4986  23.4986  23.4986  23.4986
    23.5333  23.5333  23.5333  23.5333  23.5333  23.5333  23.5333  23.5333
    26.2461  26.2461  26.2462  26.2462  26.6274  26.6274  26.6274  26.6274
    26.6560  26.6562  26.6563

     the Fermi energy is    21.7938 ev

!    total energy              =  -13813.08147406 Ry

     total all-electron energy =   -289989.471813 Ry
     estimated scf accuracy    <       0.00000093 Ry
     smearing contrib. (-TS)   =       0.01591129 Ry
     internal energy E=F+TS    =  -13813.09738535 Ry

     The total energy is F=E-TS. E is the sum of the following terms:
     one-electron contribution =   -1191.10692108 Ry
     hartree contribution      =     989.54541867 Ry
     xc contribution           =    -926.63407091 Ry
     ewald contribution        =   -5095.51419847 Ry
     one-center paw contrib.   =   -7589.38761356 Ry

     convergence has been achieved in  14 iterations

     Forces acting on atoms (cartesian axes, Ry/au):

     atom    1 type  1   force =     0.00000000    0.00000000    0.04207600
     atom    2 type  1   force =     0.00000250    0.00000250    0.04207010
     atom    3 type  1   force =     0.00001185    0.00000000    0.03475064
     atom    4 type  1   force =     0.00000000    0.00001185    0.03475064
     atom    5 type  1   force =     0.00000000    0.00000000   -0.03475088
     atom    6 type  1   force =     0.00002195    0.00002195   -0.03473434
     atom    7 type  1   force =    -0.00000472    0.00000000   -0.04205327
     atom    8 type  1   force =     0.00000000   -0.00000472   -0.04205327
     atom    9 type  1   force =     0.00000000    0.00000000    0.04205161
     atom   10 type  1   force =     0.00000250   -0.00000250    0.04207010
     atom   11 type  1   force =    -0.00000920    0.00000000    0.03477252
     atom   12 type  1   force =     0.00000000   -0.00001185    0.03475064
     atom   13 type  1   force =     0.00000000    0.00000000   -0.03477320
     atom   14 type  1   force =     0.00002195   -0.00002195   -0.03473434
     atom   15 type  1   force =    -0.00000128    0.00000000   -0.04209672
     atom   16 type  1   force =     0.00000000    0.00000472   -0.04205327
     atom   17 type  1   force =     0.00000000    0.00000000    0.04205161
     atom   18 type  1   force =    -0.00000250    0.00000250    0.04207010
     atom   19 type  1   force =    -0.00001185    0.00000000    0.03475064
     atom   20 type  1   force =     0.00000000   -0.00000920    0.03477252
     atom   21 type  1   force =     0.00000000    0.00000000   -0.03477320
     atom   22 type  1   force =    -0.00002195    0.00002195   -0.03473434
     atom   23 type  1   force =     0.00000472    0.00000000   -0.04205327
     atom   24 type  1   force =     0.00000000   -0.00000128   -0.04209672
     atom   25 type  1   force =     0.00000000    0.00000000    0.04205971
     atom   26 type  1   force =    -0.00000250   -0.00000250    0.04207010
     atom   27 type  1   force =     0.00000920    0.00000000    0.03477252
     atom   28 type  1   force =     0.00000000    0.00000920    0.03477252
     atom   29 type  1   force =     0.00000000    0.00000000   -0.03477737
     atom   30 type  1   force =    -0.00002195   -0.00002195   -0.03473434
     atom   31 type  1   force =     0.00000128    0.00000000   -0.04209672
     atom   32 type  1   force =     0.00000000    0.00000128   -0.04209672

     Total force =     0.218281     Total SCF correction =     0.001093


     Computing stress (Cartesian axis) and pressure

          total   stress  (Ry/bohr**3)                   (kbar)     P=     -102.94
  -0.00048872   0.00000000   0.00000000          -71.89        0.00        0.00
   0.00000000  -0.00048872   0.00000000            0.00      -71.89        0.00
   0.00000000   0.00000000  -0.00112183            0.00        0.00     -165.03


     Writing output data file /scratch/NqjBkOxznvHUqOYp.save/
 
     init_run     :     27.63s CPU     28.68s WALL (       1 calls)
     electrons    :   1158.52s CPU   1176.53s WALL (       1 calls)
     forces       :     11.45s CPU     11.61s WALL (       1 calls)
     stress       :     73.14s CPU     73.64s WALL (       1 calls)

     Called by init_run:
     wfcinit      :     26.80s CPU     27.50s WALL (       1 calls)
     potinit      :      0.17s CPU      0.47s WALL (       1 calls)
     hinit0       :      0.33s CPU      0.34s WALL (       1 calls)

     Called by electrons:
     c_bands      :   1026.17s CPU   1041.46s WALL (      15 calls)
     sum_band     :    130.41s CPU    132.86s WALL (      15 calls)
     v_of_rho     :      0.27s CPU      0.30s WALL (      15 calls)
     newd         :      0.37s CPU      0.52s WALL (      15 calls)
     PAW_pot      :      1.24s CPU      1.32s WALL (      15 calls)
     mix_rho      :      0.12s CPU      0.14s WALL (      15 calls)

     Called by c_bands:
     init_us_2    :      4.87s CPU      4.97s WALL (    2475 calls)
     cegterg      :   1008.04s CPU   1022.70s WALL (    1125 calls)

     Called by *egterg:
     cdiaghg      :    120.40s CPU    122.51s WALL (    3924 calls)
     h_psi        :    550.68s CPU    560.03s WALL (    4074 calls)
     s_psi        :     39.31s CPU     39.60s WALL (    4074 calls)
     g_psi        :      1.03s CPU      1.05s WALL (    2874 calls)

     Called by h_psi:
     h_psi:calbec :     75.51s CPU     76.05s WALL (    4074 calls)
     vloc_psi     :    435.37s CPU    443.44s WALL (    4074 calls)
     add_vuspsi   :     37.17s CPU     37.86s WALL (    4074 calls)

     General routines
     calbec       :    121.16s CPU    122.03s WALL (    5574 calls)
     fft          :      0.53s CPU      0.55s WALL (     219 calls)
     ffts         :      0.04s CPU      0.30s WALL (      30 calls)
     fftw         :    509.54s CPU    518.82s WALL ( 2009449 calls)
     interpolate  :      0.03s CPU      0.30s WALL (      15 calls)
 
     Parallel routines
     fft_scatt_xy :     34.61s CPU     35.15s WALL ( 2009698 calls)
     fft_scatt_yz :    412.12s CPU    419.97s WALL ( 2009698 calls)
 
     PWSCF        :  21m28.76s CPU  21m52.06s WALL

 
   This run was terminated on:  16:14:28  25Nov2021            

=------------------------------------------------------------------------------=
   JOB DONE.
=------------------------------------------------------------------------------=
