
     Program PWSCF v.6.7MaX starts on 25Nov2021 at 15:42:28 

     This program is part of the open-source Quantum ESPRESSO suite
     for quantum simulation of materials; please cite
         "P. Giannozzi et al., J. Phys.:Condens. Matter 21 395502 (2009);
         "P. Giannozzi et al., J. Phys.:Condens. Matter 29 465901 (2017);
          URL http://www.quantum-espresso.org", 
     in publications or presentations arising from this work. More details at
     http://www.quantum-espresso.org/quote

     Parallel version (MPI & OpenMP), running on      72 processor cores
     Number of MPI processes:                72
     Threads/MPI process:                     1

     MPI processes distributed on     1 nodes
     R & G space division:  proc/nbgrp/npool/nimage =      72
     Reading input from scf_1.in
Warning: card &CELL ignored
Warning: card CELL_DYNAMICS = 'BFGS', ignored
Warning: card CELL_FACTOR = 2.0, ignored
Warning: card PRESS = 0.0, ignored
Warning: card / ignored

     Current dimensions of program PWSCF are:
     Max number of different atomic species (ntypx) = 10
     Max number of k-points (npk) =  40000
     Max angular momentum in pseudopotentials (lmaxx) =  3
     file Ru.pbe-spn-kjpaw_psl.1.0.0.UPF: wavefunction(s)  4D renormalized

     Subspace diagonalization in iterative solution of the eigenvalue problem:
     one sub-group per band group will be used
     ELPA distributed-memory algorithm (size of sub-group:  8*  8 procs)

     Found symmetry operation: I + (  0.2500  0.2500  0.0000)
     This is a supercell, fractional translations are disabled
     Message from routine setup:
     using ibrav=0 with symmetry is DISCOURAGED, use correct ibrav instead
 
     Parallelization info
     --------------------
     sticks:   dense  smooth     PW     G-vecs:    dense   smooth      PW
     Min          98      65     17                 6240     3351     475
     Max          99      66     18                 6245     3355     482
     Sum        7113    4693   1281               449479   241377   34457
 


     bravais-lattice index     =            0
     lattice parameter (alat)  =      14.4007  a.u.
     unit-cell volume          =    2986.4454 (a.u.)^3
     number of atoms/cell      =           32
     number of atomic types    =            1
     number of electrons       =       512.00
     number of Kohn-Sham states=          307
     kinetic-energy cutoff     =      71.0000  Ry
     charge density cutoff     =     430.0000  Ry
     scf convergence threshold =      1.0E-06
     mixing beta               =       0.1000
     number of iterations used =           10  TF        mixing
     Exchange-correlation= SLA  PW   PBX  PBC
                           (   1   4   3   4   0   0   0)

     celldm(1)=  14.400742  celldm(2)=   0.000000  celldm(3)=   0.000000
     celldm(4)=   0.000000  celldm(5)=   0.000000  celldm(6)=   0.000000

     crystal axes: (cart. coord. in units of alat)
               a(1) = (   1.000000   0.000000   0.000000 )  
               a(2) = (   0.000000   1.000000   0.000000 )  
               a(3) = (   0.000000   0.000000   1.000000 )  

     reciprocal axes: (cart. coord. in units 2 pi/alat)
               b(1) = (  1.000000  0.000000  0.000000 )  
               b(2) = (  0.000000  1.000000  0.000000 )  
               b(3) = (  0.000000  0.000000  1.000000 )  


     PseudoPot. # 1 for Ru read from file:
     /rds/homes/b/bxp912/pp/Ru.pbe-spn-kjpaw_psl.1.0.0.UPF
     MD5 check sum: 0ae1f594dea09af7be8575c3a481d1ae
     Pseudo is Projector augmented-wave + core cor, Zval = 16.0
     Generated using "atomic" code by A. Dal Corso  v.5.1
     Shape of augmentation charge: PSQ
     Using radial grid of 1233 points,  6 beta functions with: 
                l(1) =   0
                l(2) =   0
                l(3) =   1
                l(4) =   1
                l(5) =   2
                l(6) =   2
     Q(r) pseudized with 0 coefficients 


     atomic species   valence    mass     pseudopotential
        Ru            16.00   101.07000     Ru( 1.00)

     48 Sym. Ops., with inversion, found



   Cartesian axes

     site n.     atom                  positions (alat units)
         1           Ru  tau(   1) = (   0.0000000   0.0000000   0.0000000  )
         2           Ru  tau(   2) = (   0.2500000   0.2500000   0.0000000  )
         3           Ru  tau(   3) = (   0.2500000   0.0000000   0.2500000  )
         4           Ru  tau(   4) = (   0.0000000   0.2500000   0.2500000  )
         5           Ru  tau(   5) = (   0.0000000   0.0000000   0.5000000  )
         6           Ru  tau(   6) = (   0.2500000   0.2500000   0.5000000  )
         7           Ru  tau(   7) = (   0.2500000   0.0000000   0.7500000  )
         8           Ru  tau(   8) = (   0.0000000   0.2500000   0.7500000  )
         9           Ru  tau(   9) = (   0.0000000   0.5000000   0.0000000  )
        10           Ru  tau(  10) = (   0.2500000   0.7500000   0.0000000  )
        11           Ru  tau(  11) = (   0.2500000   0.5000000   0.2500000  )
        12           Ru  tau(  12) = (   0.0000000   0.7500000   0.2500000  )
        13           Ru  tau(  13) = (   0.0000000   0.5000000   0.5000000  )
        14           Ru  tau(  14) = (   0.2500000   0.7500000   0.5000000  )
        15           Ru  tau(  15) = (   0.2500000   0.5000000   0.7500000  )
        16           Ru  tau(  16) = (   0.0000000   0.7500000   0.7500000  )
        17           Ru  tau(  17) = (   0.5000000   0.0000000   0.0000000  )
        18           Ru  tau(  18) = (   0.7500000   0.2500000   0.0000000  )
        19           Ru  tau(  19) = (   0.7500000   0.0000000   0.2500000  )
        20           Ru  tau(  20) = (   0.5000000   0.2500000   0.2500000  )
        21           Ru  tau(  21) = (   0.5000000   0.0000000   0.5000000  )
        22           Ru  tau(  22) = (   0.7500000   0.2500000   0.5000000  )
        23           Ru  tau(  23) = (   0.7500000   0.0000000   0.7500000  )
        24           Ru  tau(  24) = (   0.5000000   0.2500000   0.7500000  )
        25           Ru  tau(  25) = (   0.5000000   0.5000000   0.0000000  )
        26           Ru  tau(  26) = (   0.7500000   0.7500000   0.0000000  )
        27           Ru  tau(  27) = (   0.7500000   0.5000000   0.2500000  )
        28           Ru  tau(  28) = (   0.5000000   0.7500000   0.2500000  )
        29           Ru  tau(  29) = (   0.5000000   0.5000000   0.5000000  )
        30           Ru  tau(  30) = (   0.7500000   0.7500000   0.5000000  )
        31           Ru  tau(  31) = (   0.7500000   0.5000000   0.7500000  )
        32           Ru  tau(  32) = (   0.5000000   0.7500000   0.7500000  )

     number of k points=    35  Marzari-Vanderbilt smearing, width (Ry)=  0.0400
                       cart. coord. in units 2pi/alat
        k(    1) = (   0.0555556   0.0555556   0.0555556), wk =   0.0219479
        k(    2) = (   0.0555556   0.0555556   0.1666667), wk =   0.0658436
        k(    3) = (   0.0555556   0.0555556   0.2777778), wk =   0.0658436
        k(    4) = (   0.0555556   0.0555556   0.3888889), wk =   0.0658436
        k(    5) = (   0.0555556   0.0555556  -0.5000000), wk =   0.0329218
        k(    6) = (   0.0555556   0.1666667   0.1666667), wk =   0.0658436
        k(    7) = (   0.0555556   0.1666667   0.2777778), wk =   0.1316872
        k(    8) = (   0.0555556   0.1666667   0.3888889), wk =   0.1316872
        k(    9) = (   0.0555556   0.1666667  -0.5000000), wk =   0.0658436
        k(   10) = (   0.0555556   0.2777778   0.2777778), wk =   0.0658436
        k(   11) = (   0.0555556   0.2777778   0.3888889), wk =   0.1316872
        k(   12) = (   0.0555556   0.2777778  -0.5000000), wk =   0.0658436
        k(   13) = (   0.0555556   0.3888889   0.3888889), wk =   0.0658436
        k(   14) = (   0.0555556   0.3888889  -0.5000000), wk =   0.0658436
        k(   15) = (   0.0555556  -0.5000000  -0.5000000), wk =   0.0164609
        k(   16) = (   0.1666667   0.1666667   0.1666667), wk =   0.0219479
        k(   17) = (   0.1666667   0.1666667   0.2777778), wk =   0.0658436
        k(   18) = (   0.1666667   0.1666667   0.3888889), wk =   0.0658436
        k(   19) = (   0.1666667   0.1666667  -0.5000000), wk =   0.0329218
        k(   20) = (   0.1666667   0.2777778   0.2777778), wk =   0.0658436
        k(   21) = (   0.1666667   0.2777778   0.3888889), wk =   0.1316872
        k(   22) = (   0.1666667   0.2777778  -0.5000000), wk =   0.0658436
        k(   23) = (   0.1666667   0.3888889   0.3888889), wk =   0.0658436
        k(   24) = (   0.1666667   0.3888889  -0.5000000), wk =   0.0658436
        k(   25) = (   0.1666667  -0.5000000  -0.5000000), wk =   0.0164609
        k(   26) = (   0.2777778   0.2777778   0.2777778), wk =   0.0219479
        k(   27) = (   0.2777778   0.2777778   0.3888889), wk =   0.0658436
        k(   28) = (   0.2777778   0.2777778  -0.5000000), wk =   0.0329218
        k(   29) = (   0.2777778   0.3888889   0.3888889), wk =   0.0658436
        k(   30) = (   0.2777778   0.3888889  -0.5000000), wk =   0.0658436
        k(   31) = (   0.2777778  -0.5000000  -0.5000000), wk =   0.0164609
        k(   32) = (   0.3888889   0.3888889   0.3888889), wk =   0.0219479
        k(   33) = (   0.3888889   0.3888889  -0.5000000), wk =   0.0329218
        k(   34) = (   0.3888889  -0.5000000  -0.5000000), wk =   0.0164609
        k(   35) = (  -0.5000000  -0.5000000  -0.5000000), wk =   0.0027435

     Dense  grid:   449479 G-vectors     FFT dimensions: (  96,  96,  96)

     Smooth grid:   241377 G-vectors     FFT dimensions: (  80,  80,  80)

     Estimated max dynamical RAM per process >     107.08 MB

     Estimated total dynamical RAM >       7.53 GB

     Check: negative core charge=   -0.000002

     Initial potential from superposition of free atoms

     starting charge  511.97959, renormalised to  512.00000
     Starting wfcs are  320 randomized atomic wfcs
     Checking if some PAW data can be deallocated... 

     total cpu time spent up to now is       21.0 secs

     Self-consistent Calculation

     iteration #  1     ecut=    71.00 Ry     beta= 0.10
     Davidson diagonalization with overlap
     ethr =  1.00E-02,  avg # of iterations =  3.5

     Threshold (ethr) on eigenvalues was too large:
     Diagonalizing with lowered threshold

     Davidson diagonalization with overlap
     ethr =  8.38E-05,  avg # of iterations =  5.4

     total cpu time spent up to now is      112.7 secs

     total energy              =  -13813.45347367 Ry
     estimated scf accuracy    <       0.63776030 Ry

     iteration #  2     ecut=    71.00 Ry     beta= 0.10
     Davidson diagonalization with overlap
     ethr =  1.25E-04,  avg # of iterations =  1.1

     total cpu time spent up to now is      142.5 secs

     total energy              =  -13813.17359538 Ry
     estimated scf accuracy    <       0.50261839 Ry

     iteration #  3     ecut=    71.00 Ry     beta= 0.10
     Davidson diagonalization with overlap
     ethr =  9.82E-05,  avg # of iterations =  2.4

     total cpu time spent up to now is      186.6 secs

     total energy              =  -13813.29678042 Ry
     estimated scf accuracy    <       0.01427531 Ry

     iteration #  4     ecut=    71.00 Ry     beta= 0.10
     Davidson diagonalization with overlap
     c_bands:  1 eigenvalues not converged
     ethr =  2.79E-06,  avg # of iterations =  3.3

     total cpu time spent up to now is      241.5 secs

     total energy              =  -13813.29865394 Ry
     estimated scf accuracy    <       0.01427186 Ry

     iteration #  5     ecut=    71.00 Ry     beta= 0.10
     Davidson diagonalization with overlap
     ethr =  2.79E-06,  avg # of iterations =  2.9

     total cpu time spent up to now is      284.5 secs

     total energy              =  -13813.30038777 Ry
     estimated scf accuracy    <       0.00798904 Ry

     iteration #  6     ecut=    71.00 Ry     beta= 0.10
     Davidson diagonalization with overlap
     ethr =  1.56E-06,  avg # of iterations =  2.0

     total cpu time spent up to now is      320.4 secs

     total energy              =  -13813.30090179 Ry
     estimated scf accuracy    <       0.00119188 Ry

     iteration #  7     ecut=    71.00 Ry     beta= 0.10
     Davidson diagonalization with overlap
     ethr =  2.33E-07,  avg # of iterations =  2.7

     total cpu time spent up to now is      359.2 secs

     total energy              =  -13813.30092714 Ry
     estimated scf accuracy    <       0.00027230 Ry

     iteration #  8     ecut=    71.00 Ry     beta= 0.10
     Davidson diagonalization with overlap
     ethr =  5.32E-08,  avg # of iterations =  2.2

     total cpu time spent up to now is      392.1 secs

     total energy              =  -13813.30092175 Ry
     estimated scf accuracy    <       0.00007388 Ry

     iteration #  9     ecut=    71.00 Ry     beta= 0.10
     Davidson diagonalization with overlap
     ethr =  1.44E-08,  avg # of iterations =  2.0

     total cpu time spent up to now is      435.4 secs

     total energy              =  -13813.30086783 Ry
     estimated scf accuracy    <       0.00017530 Ry

     iteration # 10     ecut=    71.00 Ry     beta= 0.10
     Davidson diagonalization with overlap
     ethr =  1.44E-08,  avg # of iterations =  2.2

     total cpu time spent up to now is      471.5 secs

     total energy              =  -13813.30087395 Ry
     estimated scf accuracy    <       0.00001448 Ry

     iteration # 11     ecut=    71.00 Ry     beta= 0.10
     Davidson diagonalization with overlap
     ethr =  2.83E-09,  avg # of iterations =  3.1

     total cpu time spent up to now is      516.6 secs

     End of self-consistent calculation

          k = 0.0556 0.0556 0.0556 ( 30224 PWs)   bands (ev):

   -49.9069 -49.8070 -49.8070 -49.8070 -49.7877 -49.7877 -49.7877 -49.7518
   -49.7518 -49.7517 -49.7423 -49.7412 -49.7412 -49.7412 -49.7412 -49.7412
   -49.7412 -49.7407 -49.7407 -49.7407 -49.7324 -49.7324 -49.7323 -49.6869
   -49.6868 -49.6868 -49.6865 -49.6865 -49.6865 -49.6864 -49.6864 -49.6864
   -20.3118 -20.3118 -20.3118 -20.3076 -20.2490 -20.2490 -20.2490 -20.0487
   -20.0487 -20.0487 -20.0373 -20.0373 -20.0373 -20.0372 -20.0372 -20.0372
   -20.0170 -20.0170 -20.0170 -19.9943 -19.9943 -19.9943 -19.9943 -19.9943
   -19.9943 -19.9437 -19.9437 -19.9437 -19.9437 -19.9437 -19.9437 -19.8444
   -19.8444 -19.8444 -19.7712 -19.7712 -19.7712 -19.7634 -19.7634 -19.7634
   -19.7296 -19.7296 -19.7296 -19.7296 -19.7296 -19.7296 -19.6894 -19.6894
   -19.6894 -19.6826 -19.6826 -19.6826 -19.6825 -19.6825 -19.6825 -19.6768
   -19.6767 -19.6767 -19.6722 -19.6722 -19.6721 -19.5096 -19.5096 -19.5096
   -19.5090 -19.5090 -19.5090 -19.4774 -19.4774 -19.4774 -19.4772 -19.4772
   -19.4772 -19.4624 -19.4624 -19.4624 -19.4501 -19.4500 -19.4500 -19.4490
   -19.4490 -19.4490 -19.4490 -19.4490 -19.4490 -19.4471 -19.4471 -19.4470
   -19.4442 -19.4442 -19.4305 -19.4305 -19.4305 -19.3176 -19.3107 -19.3107
    15.3440  16.9012  16.9012  16.9013  17.1812  17.1989  17.1989  17.1989
    17.3696  17.3696  17.3696  17.5980  17.5980  17.5980  17.7693  17.7693
    17.7693  18.3104  18.3104  18.3104  18.3104  18.3104  18.3104  18.6260
    18.6260  18.6260  18.8928  18.8928  18.8928  18.8991  18.8991  18.8991
    18.9983  18.9983  18.9983  19.0021  19.0021  19.0021  19.0021  19.0021
    19.0021  19.4925  19.4925  19.4925  19.4925  19.4925  19.4925  19.6369
    19.6369  19.6369  19.6687  19.6687  19.6687  19.6687  19.6687  19.6687
    19.7331  19.7331  19.7331  19.9963  19.9963  19.9963  19.9974  19.9974
    19.9974  19.9974  19.9975  19.9975  19.9979  19.9979  19.9979  19.9979
    19.9979  19.9979  20.1673  20.1673  20.1673  20.4516  20.4516  20.4516
    20.4878  20.4878  20.5029  20.5029  20.5029  20.5817  20.6131  20.6131
    21.5893  21.5893  21.5893  21.7597  21.7597  21.7597  21.8074  21.8074
    21.8074  21.9076  21.9076  21.9076  21.9077  21.9077  21.9077  21.9215
    21.9215  21.9215  22.2185  22.2185  22.2185  22.3384  22.3384  22.3384
    22.5873  22.5873  22.5873  22.6647  22.6647  22.6647  22.6648  22.6648
    22.6648  22.6834  22.6834  22.6834  22.7235  22.7235  22.7235  22.9132
    22.9132  22.9133  22.9133  22.9133  22.9133  22.9726  22.9726  23.0865
    23.0865  23.0865  23.7480  23.7480  23.7480  23.7942  23.7942  23.7942
    23.9081  23.9081  23.9081  23.9946  24.7276  24.7276  24.7276  24.7698
    24.7698  24.8048  24.8048  24.8048  25.0885  25.0885  25.0885  25.1128
    25.1129  25.1129  25.2750  25.2750  25.2750  25.2750  25.2750  25.2750
    25.2800  25.2800  25.2800  26.7232  26.7232  26.7232  26.8873  26.8873
    26.8873  27.2569  27.2569

          k = 0.0556 0.0556 0.1667 ( 30207 PWs)   bands (ev):

   -49.9036 -49.8259 -49.8051 -49.8051 -49.7862 -49.7862 -49.7687 -49.7621
   -49.7621 -49.7514 -49.7499 -49.7499 -49.7441 -49.7412 -49.7412 -49.7407
   -49.7407 -49.7390 -49.7326 -49.7308 -49.7308 -49.7237 -49.7237 -49.6903
   -49.6883 -49.6883 -49.6880 -49.6880 -49.6869 -49.6868 -49.6865 -49.6864
   -20.3043 -20.3004 -20.3004 -20.2923 -20.2407 -20.2407 -20.2360 -20.0796
   -20.0662 -20.0662 -20.0531 -20.0531 -20.0506 -20.0506 -20.0452 -20.0428
   -20.0428 -20.0195 -20.0195 -20.0047 -20.0047 -19.9913 -19.9913 -19.9903
   -19.9903 -19.9519 -19.9519 -19.9347 -19.9347 -19.9229 -19.8947 -19.8947
   -19.8569 -19.8569 -19.8119 -19.8119 -19.7798 -19.7798 -19.7691 -19.7691
   -19.7382 -19.7004 -19.7004 -19.6884 -19.6884 -19.6873 -19.6873 -19.6825
   -19.6818 -19.6817 -19.6715 -19.6715 -19.6712 -19.6679 -19.6679 -19.6668
   -19.6663 -19.6663 -19.6626 -19.6497 -19.6497 -19.5413 -19.5400 -19.5167
   -19.5167 -19.5012 -19.5012 -19.4844 -19.4844 -19.4820 -19.4820 -19.4736
   -19.4736 -19.4678 -19.4678 -19.4675 -19.4618 -19.4608 -19.4608 -19.4501
   -19.4497 -19.4490 -19.4489 -19.4480 -19.4479 -19.4461 -19.4452 -19.4422
   -19.4422 -19.4414 -19.4309 -19.4187 -19.4187 -19.3350 -19.3163 -19.3142
    15.4303  16.9521  16.9650  16.9650  17.2210  17.2561  17.2561  17.2736
    17.2961  17.4077  17.4317  17.4317  17.6602  17.6602  17.7910  17.8348
    17.8348  18.1896  18.1896  18.3587  18.3587  18.3682  18.3683  18.3685
    18.5791  18.6653  18.6653  18.6844  18.6844  18.7344  18.7558  18.7558
    18.9321  18.9321  18.9417  18.9417  18.9641  18.9641  19.0380  19.0380
    19.0969  19.0969  19.1812  19.4709  19.4709  19.4964  19.4964  19.5479
    19.5479  19.5621  19.5621  19.6208  19.6209  19.7096  19.7096  19.7408
    19.8180  19.8180  19.8369  19.8369  19.9327  19.9501  19.9501  19.9832
    19.9832  19.9964  19.9964  20.0048  20.0048  20.2483  20.2483  20.2699
    20.2699  20.2944  20.3483  20.3781  20.4097  20.4097  20.4847  20.5206
    20.5213  20.5476  20.5476  20.5555  20.5555  20.5662  20.6561  20.6600
    21.3578  21.3578  21.4881  21.4881  21.5778  21.6053  21.7155  21.7155
    21.7455  21.8416  21.8416  21.8783  22.0193  22.0193  22.0230  22.0526
    22.0526  22.0995  22.0995  22.1288  22.1947  22.1947  22.5206  22.5206
    22.5387  22.5388  22.5538  22.5538  22.6665  22.6665  22.6810  22.6810
    22.8014  22.8014  22.8245  22.8245  22.9011  22.9223  22.9321  22.9321
    22.9776  22.9971  23.1372  23.1372  23.1530  23.2007  23.2007  23.2865
    23.3197  23.3197  23.3297  23.3811  23.3811  23.5688  23.5944  23.8104
    23.8104  24.0013  24.0013  24.0709  24.5269  24.5269  24.6391  24.6391
    24.6533  24.6872  24.7518  24.7519  24.7563  24.9521  25.0224  25.1471
    25.1471  25.1483  25.1483  25.1694  25.2736  25.2736  25.2747  25.2748
    25.4553  25.4554  25.6818  26.2042  26.2042  26.5854  26.6645  26.7304
    26.7304  27.2010  27.2010

          k = 0.0556 0.0556 0.2778 ( 30183 PWs)   bands (ev):

   -49.8970 -49.8439 -49.8015 -49.8015 -49.7831 -49.7831 -49.7721 -49.7721
   -49.7583 -49.7583 -49.7508 -49.7506 -49.7457 -49.7411 -49.7411 -49.7408
   -49.7407 -49.7375 -49.7331 -49.7210 -49.7209 -49.7154 -49.7154 -49.6969
   -49.6918 -49.6918 -49.6909 -49.6909 -49.6869 -49.6868 -49.6866 -49.6865
   -20.2857 -20.2782 -20.2782 -20.2664 -20.2242 -20.2242 -20.2103 -20.1254
   -20.1107 -20.1106 -20.0895 -20.0890 -20.0890 -20.0565 -20.0565 -20.0507
   -20.0507 -20.0200 -20.0200 -19.9969 -19.9963 -19.9963 -19.9942 -19.9942
   -19.9582 -19.9581 -19.9546 -19.9546 -19.9191 -19.9191 -19.8794 -19.8794
   -19.8505 -19.8505 -19.8473 -19.8473 -19.8085 -19.8085 -19.8066 -19.8066
   -19.7055 -19.7055 -19.6883 -19.6804 -19.6803 -19.6725 -19.6724 -19.6604
   -19.6562 -19.6553 -19.6552 -19.6490 -19.6490 -19.6419 -19.6419 -19.6387
   -19.6387 -19.6210 -19.6117 -19.6117 -19.6041 -19.5716 -19.5696 -19.5313
   -19.5313 -19.5073 -19.5073 -19.5034 -19.5034 -19.4984 -19.4984 -19.4961
   -19.4876 -19.4876 -19.4835 -19.4835 -19.4674 -19.4607 -19.4530 -19.4530
   -19.4524 -19.4488 -19.4488 -19.4482 -19.4481 -19.4418 -19.4418 -19.4389
   -19.4318 -19.4162 -19.4146 -19.4140 -19.4140 -19.3657 -19.3273 -19.3245
    15.6001  16.9206  17.0506  17.0894  17.0894  17.3180  17.3698  17.3698
    17.4037  17.4834  17.5552  17.5552  17.6961  17.7804  17.7804  17.9619
    17.9619  17.9830  17.9830  18.1326  18.2422  18.3421  18.3421  18.4093
    18.4508  18.4508  18.4819  18.4819  18.5808  18.5808  18.6335  18.6335
    18.7429  18.7429  18.7978  18.7978  18.9117  18.9117  18.9962  18.9962
    19.1693  19.1693  19.3728  19.3728  19.4359  19.4359  19.4380  19.4381
    19.4537  19.4537  19.4638  19.4989  19.4989  19.5944  19.5944  19.7535
    19.7535  19.8052  19.8704  19.8704  19.9340  19.9340  19.9990  19.9990
    20.0152  20.0152  20.0776  20.0776  20.1042  20.2745  20.3373  20.3373
    20.3454  20.3454  20.3943  20.4459  20.6029  20.6534  20.6534  20.6744
    20.6764  20.6905  20.6905  20.7500  20.7535  20.7970  21.0800  21.0800
    21.1409  21.1409  21.1436  21.1436  21.3538  21.4668  21.4668  21.5016
    21.5139  21.5722  21.9311  21.9717  21.9717  22.1814  22.1814  22.1994
    22.1994  22.2371  22.2371  22.3141  22.3141  22.4345  22.4345  22.5343
    22.5343  22.6541  22.6590  22.6590  22.6714  22.6714  22.6968  22.6968
    22.7515  22.7515  22.7633  22.8219  22.8521  22.8521  22.9682  23.0380
    23.0380  23.0455  23.1051  23.1051  23.2445  23.3790  23.4483  23.4483
    23.4513  23.5317  23.5317  23.5751  23.6051  23.6051  23.6256  23.8433
    23.8433  23.9883  23.9883  24.2326  24.2557  24.2557  24.4319  24.4319
    24.4631  24.5976  24.5976  24.5986  24.6281  24.6890  24.9139  24.9139
    24.9151  24.9151  24.9713  25.2727  25.2727  25.2743  25.2743  25.4185
    25.6949  25.6949  25.8902  25.8902  26.0580  26.2013  26.2013  26.2395
    26.5446  27.0842  27.0842

          k = 0.0556 0.0556 0.3889 ( 30161 PWs)   bands (ev):

   -49.8875 -49.8605 -49.7962 -49.7962 -49.7813 -49.7813 -49.7786 -49.7786
   -49.7660 -49.7660 -49.7498 -49.7473 -49.7411 -49.7410 -49.7409 -49.7408
   -49.7361 -49.7339 -49.7339 -49.7119 -49.7119 -49.7077 -49.7077 -49.7066
   -49.6971 -49.6971 -49.6953 -49.6953 -49.6868 -49.6867 -49.6866 -49.6866
   -20.2568 -20.2462 -20.2461 -20.2308 -20.2000 -20.2000 -20.1738 -20.1724
   -20.1593 -20.1593 -20.1392 -20.1315 -20.1315 -20.0643 -20.0554 -20.0554
   -20.0417 -20.0417 -20.0354 -20.0354 -20.0096 -20.0096 -19.9687 -19.9687
   -19.9405 -19.9405 -19.9219 -19.9219 -19.9077 -19.9077 -19.8981 -19.8981
   -19.8857 -19.8857 -19.8443 -19.8443 -19.8413 -19.8413 -19.8034 -19.8034
   -19.7314 -19.7314 -19.6784 -19.6784 -19.6742 -19.6741 -19.6444 -19.6407
   -19.6339 -19.6124 -19.6124 -19.6091 -19.6091 -19.6056 -19.6056 -19.6054
   -19.6054 -19.5994 -19.5967 -19.5765 -19.5765 -19.5753 -19.5527 -19.5527
   -19.5374 -19.5374 -19.5372 -19.5372 -19.5347 -19.5309 -19.5190 -19.5190
   -19.5166 -19.5165 -19.4952 -19.4722 -19.4722 -19.4592 -19.4550 -19.4487
   -19.4486 -19.4483 -19.4483 -19.4474 -19.4474 -19.4373 -19.4373 -19.4367
   -19.4331 -19.4160 -19.4160 -19.4097 -19.3885 -19.3864 -19.3434 -19.3405
    15.8477  16.5292  17.1901  17.2679  17.2680  17.4714  17.5373  17.5384
    17.5384  17.5870  17.5956  17.7367  17.7368  17.7392  17.7392  17.9228
    17.9379  17.9501  17.9501  18.0295  18.0295  18.0972  18.1421  18.1421
    18.2808  18.2808  18.3734  18.3734  18.5756  18.5756  18.5906  18.5906
    18.6466  18.6466  18.8308  18.8308  18.8568  18.8568  19.0765  19.0765
    19.0878  19.0878  19.1805  19.1805  19.3274  19.3274  19.3696  19.3696
    19.4119  19.4119  19.4773  19.4773  19.4857  19.4857  19.7357  19.7357
    19.7376  19.7890  19.7890  19.9040  20.0180  20.0180  20.0239  20.0239
    20.0308  20.0309  20.1519  20.2045  20.2144  20.2423  20.2424  20.2546
    20.2547  20.3796  20.4505  20.4505  20.7310  20.7957  20.7957  20.8062
    20.8062  20.8231  20.8231  20.8308  20.8903  20.8928  21.1132  21.1261
    21.1262  21.1913  21.2529  21.2835  21.2902  21.2902  21.2937  21.3041
    21.7735  21.7735  22.0968  22.0968  22.1049  22.1683  22.1683  22.2999
    22.2999  22.3046  22.3555  22.3686  22.3686  22.4130  22.4130  22.4489
    22.4489  22.4988  22.4988  22.5102  22.5102  22.5704  22.6246  22.6246
    22.6636  22.6636  22.6862  22.6862  22.7749  22.7749  22.9951  22.9951
    23.1169  23.1346  23.1346  23.2514  23.3220  23.4521  23.4522  23.5838
    23.7764  23.7770  23.7770  23.8829  23.8895  23.8895  23.9287  23.9287
    24.1520  24.1520  24.1530  24.2112  24.3081  24.3081  24.3113  24.3715
    24.3715  24.3916  24.4297  24.4308  24.6065  24.6065  24.6103  24.6103
    24.6636  24.6636  24.7427  25.1984  25.1984  25.2727  25.2727  25.2737
    25.2737  25.4126  25.6715  25.6715  25.7909  26.2961  26.2961  26.3600
    26.7308  26.8984  26.8984

          k = 0.0556 0.0556-0.5000 ( 30178 PWs)   bands (ev):

   -49.8752 -49.8752 -49.7894 -49.7894 -49.7894 -49.7894 -49.7729 -49.7729
   -49.7729 -49.7729 -49.7487 -49.7487 -49.7410 -49.7410 -49.7409 -49.7409
   -49.7349 -49.7349 -49.7190 -49.7190 -49.7038 -49.7038 -49.7038 -49.7038
   -49.7010 -49.7010 -49.7010 -49.7010 -49.6867 -49.6867 -49.6866 -49.6866
   -20.2188 -20.2188 -20.2057 -20.2057 -20.2057 -20.2057 -20.1876 -20.1876
   -20.1688 -20.1688 -20.1688 -20.1688 -20.1233 -20.1233 -20.0479 -20.0479
   -20.0479 -20.0479 -20.0273 -20.0273 -20.0273 -20.0273 -19.9385 -19.9385
   -19.9385 -19.9385 -19.9162 -19.9162 -19.9162 -19.9162 -19.8831 -19.8831
   -19.8831 -19.8831 -19.8720 -19.8720 -19.8720 -19.8720 -19.7643 -19.7643
   -19.7643 -19.7643 -19.6762 -19.6762 -19.6762 -19.6762 -19.6239 -19.6239
   -19.6206 -19.6206 -19.5814 -19.5814 -19.5800 -19.5800 -19.5800 -19.5800
   -19.5732 -19.5732 -19.5732 -19.5732 -19.5707 -19.5707 -19.5707 -19.5707
   -19.5581 -19.5581 -19.5581 -19.5581 -19.5453 -19.5453 -19.5453 -19.5453
   -19.5320 -19.5320 -19.4654 -19.4654 -19.4581 -19.4581 -19.4581 -19.4581
   -19.4573 -19.4573 -19.4485 -19.4485 -19.4485 -19.4485 -19.4347 -19.4347
   -19.4243 -19.4243 -19.4242 -19.4242 -19.3640 -19.3640 -19.3614 -19.3614
    16.1628  16.1628  17.3586  17.3586  17.4895  17.4895  17.4895  17.4895
    17.6791  17.6791  17.7428  17.7428  17.7595  17.7595  17.7595  17.7595
    17.8200  17.8200  17.9819  17.9819  17.9819  17.9819  18.1547  18.1547
    18.1547  18.1547  18.3600  18.3600  18.3600  18.3600  18.7123  18.7123
    18.7123  18.7123  18.8532  18.8532  18.8532  18.8532  19.0043  19.0043
    19.0043  19.0043  19.2011  19.2011  19.2011  19.2011  19.4164  19.4164
    19.4164  19.4164  19.4368  19.4368  19.4368  19.4368  19.7418  19.7418
    19.7418  19.7418  19.9916  19.9916  20.0238  20.0238  20.0261  20.0261
    20.0262  20.0262  20.1363  20.1363  20.1363  20.1363  20.2960  20.2960
    20.5040  20.5040  20.5040  20.5040  20.6096  20.6096  20.6096  20.6096
    20.9027  20.9027  20.9775  20.9775  20.9775  20.9775  21.0253  21.0253
    21.0740  21.0740  21.0769  21.0769  21.7526  21.7526  21.7526  21.7526
    21.7587  21.7587  21.7892  21.7892  22.1496  22.1496  22.1497  22.1497
    22.3409  22.3409  22.4404  22.4404  22.4404  22.4404  22.4667  22.4667
    22.4667  22.4667  22.5454  22.5454  22.5454  22.5454  22.5587  22.5587
    22.5587  22.5587  22.6247  22.6247  22.6247  22.6247  22.8773  22.8773
    22.8773  22.8773  23.2097  23.2097  23.8149  23.8149  23.8149  23.8149
    23.8257  23.8257  23.9125  23.9125  24.0919  24.0919  24.0919  24.0919
    24.1438  24.1438  24.1754  24.1754  24.2552  24.2552  24.2552  24.2552
    24.2718  24.2718  24.2718  24.2718  24.5530  24.5530  24.7272  24.7272
    24.7272  24.7272  24.7532  24.7532  25.1513  25.1513  25.1513  25.1513
    25.2731  25.2731  25.2732  25.2732  26.1082  26.1082  26.6362  26.6362
    26.6362  26.6362  27.1275

          k = 0.0556 0.1667 0.1667 ( 30215 PWs)   bands (ev):

   -49.9003 -49.8238 -49.8238 -49.8033 -49.7847 -49.7742 -49.7675 -49.7675
   -49.7615 -49.7615 -49.7496 -49.7496 -49.7474 -49.7424 -49.7380 -49.7379
   -49.7374 -49.7374 -49.7311 -49.7311 -49.7242 -49.7242 -49.7166 -49.6902
   -49.6902 -49.6897 -49.6897 -49.6886 -49.6886 -49.6877 -49.6877 -49.6869
   -20.2971 -20.2970 -20.2855 -20.2732 -20.2324 -20.2284 -20.2284 -20.0860
   -20.0860 -20.0798 -20.0798 -20.0495 -20.0481 -20.0481 -20.0463 -20.0463
   -20.0420 -20.0420 -20.0364 -20.0364 -20.0173 -20.0173 -20.0146 -20.0145
   -19.9550 -19.9317 -19.9317 -19.9279 -19.9278 -19.9098 -19.9098 -19.8870
   -19.8870 -19.8706 -19.8536 -19.7971 -19.7753 -19.7753 -19.7379 -19.7379
   -19.7266 -19.7265 -19.7039 -19.7025 -19.7025 -19.6815 -19.6815 -19.6689
   -19.6689 -19.6660 -19.6659 -19.6642 -19.6641 -19.6641 -19.6630 -19.6630
   -19.6541 -19.6541 -19.6257 -19.6257 -19.6114 -19.5486 -19.5486 -19.5338
   -19.5338 -19.5102 -19.5057 -19.4965 -19.4817 -19.4817 -19.4810 -19.4810
   -19.4750 -19.4737 -19.4730 -19.4730 -19.4713 -19.4712 -19.4592 -19.4556
   -19.4555 -19.4526 -19.4526 -19.4526 -19.4443 -19.4426 -19.4426 -19.4419
   -19.4351 -19.4351 -19.4197 -19.4197 -19.4019 -19.3569 -19.3213 -19.3134
    15.5152  17.0161  17.0161  17.0227  17.2413  17.2938  17.3456  17.3456
    17.3571  17.3571  17.4691  17.4692  17.4976  17.7070  17.8589  17.8589
    17.8813  18.2220  18.2220  18.2495  18.2495  18.4134  18.4134  18.4161
    18.4161  18.4673  18.4673  18.5466  18.6088  18.6088  18.7202  18.7695
    18.7695  18.7906  18.7906  18.8139  18.9783  19.0541  19.0541  19.0607
    19.0607  19.0904  19.0904  19.2071  19.2071  19.4348  19.4348  19.5359
    19.5359  19.5576  19.6128  19.6128  19.6454  19.6454  19.6962  19.6962
    19.7196  19.9063  19.9064  19.9122  19.9122  20.0034  20.0034  20.0715
    20.0715  20.1169  20.1912  20.1912  20.2990  20.2990  20.3172  20.3172
    20.3594  20.3594  20.3920  20.4634  20.4634  20.4717  20.4848  20.4967
    20.5392  20.5392  20.5601  20.6061  20.6380  20.6380  20.6770  20.7020
    21.2216  21.3230  21.3582  21.3582  21.6114  21.6114  21.7760  21.7899
    21.7899  21.7906  21.7906  21.8631  21.8631  21.8829  21.8829  21.9094
    21.9094  22.0658  22.1301  22.2341  22.2341  22.2558  22.2558  22.3066
    22.3851  22.6669  22.6670  22.7838  22.7955  22.7955  22.8114  22.8114
    22.8521  22.8521  22.8795  22.9338  22.9338  22.9770  23.0081  23.0081
    23.0718  23.0718  23.0911  23.1316  23.1317  23.2312  23.3217  23.3820
    23.3820  23.4129  23.4129  23.4934  23.5048  23.5048  23.6325  23.6325
    23.8403  24.0363  24.2053  24.2091  24.2091  24.3478  24.3479  24.5211
    24.6319  24.6319  24.6969  24.7778  24.7778  24.7915  24.7991  25.0435
    25.0435  25.1461  25.1461  25.1497  25.1497  25.1677  25.1677  25.2116
    25.4073  25.7024  26.0401  26.0401  26.1459  26.1459  26.6752  26.6752
    27.1808  27.1809  27.2916

          k = 0.0556 0.1667 0.2778 ( 30157 PWs)   bands (ev):

   -49.8938 -49.8415 -49.8196 -49.7998 -49.7856 -49.7817 -49.7712 -49.7650
   -49.7603 -49.7577 -49.7506 -49.7496 -49.7490 -49.7447 -49.7440 -49.7359
   -49.7343 -49.7316 -49.7265 -49.7253 -49.7215 -49.7162 -49.7099 -49.6967
   -49.6932 -49.6927 -49.6926 -49.6901 -49.6900 -49.6889 -49.6875 -49.6870
   -20.2825 -20.2790 -20.2602 -20.2438 -20.2160 -20.2133 -20.2040 -20.1324
   -20.1235 -20.0900 -20.0888 -20.0855 -20.0854 -20.0819 -20.0609 -20.0572
   -20.0558 -20.0399 -20.0384 -20.0307 -20.0281 -20.0245 -20.0208 -20.0019
   -19.9838 -19.9474 -19.9323 -19.9148 -19.9144 -19.9009 -19.8948 -19.8925
   -19.8724 -19.8663 -19.8402 -19.8272 -19.8106 -19.7745 -19.7629 -19.7366
   -19.7265 -19.7216 -19.6995 -19.6904 -19.6857 -19.6702 -19.6692 -19.6663
   -19.6617 -19.6596 -19.6550 -19.6452 -19.6358 -19.6316 -19.6297 -19.6273
   -19.6272 -19.6232 -19.5906 -19.5882 -19.5792 -19.5748 -19.5648 -19.5638
   -19.5223 -19.5215 -19.5167 -19.5144 -19.5072 -19.5056 -19.5046 -19.5020
   -19.4928 -19.4871 -19.4789 -19.4744 -19.4743 -19.4717 -19.4660 -19.4618
   -19.4606 -19.4584 -19.4553 -19.4516 -19.4436 -19.4429 -19.4371 -19.4222
   -19.4216 -19.4197 -19.4155 -19.4040 -19.3921 -19.3912 -19.3324 -19.3192
    15.6823  16.9839  17.1152  17.1360  17.1411  17.3175  17.3864  17.4712
    17.4755  17.4874  17.5436  17.5915  17.6277  17.7643  17.7960  17.9694
    17.9913  18.0014  18.0412  18.1528  18.1821  18.2761  18.2821  18.3188
    18.3426  18.3674  18.4552  18.4826  18.5026  18.5027  18.5064  18.5287
    18.6565  18.6785  18.6905  18.7949  18.8303  18.9027  18.9109  19.0704
    19.0851  19.1110  19.1474  19.2562  19.2862  19.3491  19.3636  19.3907
    19.4001  19.4558  19.4823  19.5261  19.6073  19.6190  19.6433  19.7157
    19.7396  19.7772  19.8899  20.0077  20.0435  20.0783  20.1027  20.1390
    20.1635  20.1908  20.2215  20.2440  20.3145  20.3284  20.3468  20.3624
    20.3769  20.4616  20.4875  20.5202  20.5343  20.5934  20.6316  20.6329
    20.6988  20.7565  20.7573  20.7652  20.7818  20.7877  21.0126  21.0305
    21.0604  21.1165  21.1308  21.3546  21.3569  21.3665  21.5242  21.5634
    21.6404  21.6552  21.6918  21.8194  21.8554  21.9094  21.9804  22.0748
    22.0954  22.1309  22.1834  22.2278  22.2762  22.2866  22.3841  22.4656
    22.4954  22.5758  22.5816  22.6187  22.6299  22.6533  22.7632  22.7690
    22.7782  22.7894  22.8831  22.9080  22.9731  23.0151  23.0774  23.0914
    23.1092  23.1378  23.1407  23.3249  23.4193  23.4205  23.4408  23.4690
    23.4944  23.6499  23.6698  23.7098  23.7178  23.7218  23.7523  23.7674
    23.7750  23.8550  23.9693  24.0626  24.2217  24.3351  24.4346  24.4583
    24.4723  24.5451  24.5723  24.6841  24.7038  24.7070  24.8538  24.8546
    24.9153  24.9180  24.9810  25.0349  25.1457  25.1512  25.1624  25.1747
    25.2211  25.5999  25.6385  26.0289  26.1482  26.4674  26.5633  26.6500
    26.6658  26.7499  27.6656

          k = 0.0556 0.1667 0.3889 ( 30138 PWs)   bands (ev):

   -49.8844 -49.8579 -49.8135 -49.7962 -49.7946 -49.7801 -49.7774 -49.7652
   -49.7613 -49.7586 -49.7536 -49.7510 -49.7481 -49.7455 -49.7345 -49.7331
   -49.7324 -49.7315 -49.7269 -49.7159 -49.7126 -49.7088 -49.7063 -49.7037
   -49.6988 -49.6983 -49.6968 -49.6936 -49.6898 -49.6892 -49.6873 -49.6870
   -20.2573 -20.2508 -20.2257 -20.2056 -20.1920 -20.1912 -20.1798 -20.1703
   -20.1682 -20.1367 -20.1286 -20.1239 -20.1108 -20.0837 -20.0784 -20.0658
   -20.0653 -20.0630 -20.0591 -20.0490 -20.0258 -20.0117 -20.0100 -19.9909
   -19.9675 -19.9518 -19.9459 -19.9266 -19.9253 -19.8959 -19.8724 -19.8703
   -19.8648 -19.8520 -19.8431 -19.8252 -19.8093 -19.7967 -19.7965 -19.7787
   -19.7545 -19.7252 -19.6688 -19.6671 -19.6637 -19.6595 -19.6578 -19.6537
   -19.6478 -19.6389 -19.6383 -19.6138 -19.6074 -19.6036 -19.6021 -19.5993
   -19.5943 -19.5932 -19.5859 -19.5791 -19.5583 -19.5571 -19.5565 -19.5472
   -19.5434 -19.5420 -19.5410 -19.5409 -19.5405 -19.5347 -19.5346 -19.5082
   -19.5058 -19.5014 -19.4857 -19.4825 -19.4776 -19.4763 -19.4758 -19.4699
   -19.4672 -19.4644 -19.4493 -19.4490 -19.4450 -19.4415 -19.4368 -19.4322
   -19.4243 -19.4183 -19.4049 -19.3942 -19.3896 -19.3757 -19.3486 -19.3322
    15.9258  16.5971  17.2554  17.3009  17.3205  17.4489  17.5330  17.6046
    17.6440  17.6484  17.6540  17.6784  17.7511  17.7736  17.7926  17.8185
    17.8706  17.9175  17.9759  17.9811  18.0819  18.0895  18.1455  18.1806
    18.1865  18.2042  18.3088  18.3574  18.3624  18.3715  18.5395  18.5604
    18.6250  18.6358  18.6675  18.6924  18.7966  18.9950  19.0015  19.0200
    19.0313  19.1287  19.1451  19.1957  19.2064  19.2425  19.2637  19.2738
    19.3123  19.3226  19.4672  19.4679  19.4696  19.5816  19.7381  19.7435
    19.7481  19.8163  20.0150  20.0241  20.0660  20.0926  20.1217  20.1281
    20.1542  20.1913  20.2079  20.2764  20.2812  20.2815  20.3293  20.3516
    20.4544  20.4584  20.4862  20.6820  20.7433  20.7736  20.7953  20.8310
    20.8913  20.9133  20.9184  20.9288  20.9345  20.9376  20.9435  20.9789
    21.0723  21.1592  21.2137  21.2405  21.2994  21.3099  21.3980  21.4268
    21.6424  21.7281  21.7818  21.8531  21.8644  21.9174  22.0243  22.0882
    22.1062  22.1365  22.1771  22.1928  22.1965  22.1989  22.2701  22.3374
    22.4041  22.4598  22.5563  22.5830  22.6035  22.6659  22.6942  22.7137
    22.7290  22.8289  22.8719  22.8838  22.9724  23.0063  23.0152  23.0921
    23.1392  23.1796  23.3224  23.3583  23.4080  23.4091  23.4835  23.4996
    23.6838  23.7121  23.7792  23.8732  23.9953  23.9976  24.0189  24.0271
    24.0499  24.0614  24.0737  24.1662  24.1790  24.2603  24.2630  24.3602
    24.4366  24.5418  24.5477  24.6076  24.6084  24.6087  24.6132  24.6220
    24.7602  24.7644  24.8352  25.0768  25.1443  25.1466  25.1529  25.1577
    25.1581  25.3418  25.6203  25.8533  25.8883  26.0378  26.1932  26.3925
    26.8815  27.2055  27.4902

          k = 0.0556 0.1667-0.5000 ( 30170 PWs)   bands (ev):

   -49.8723 -49.8723 -49.8056 -49.8056 -49.7880 -49.7880 -49.7718 -49.7718
   -49.7566 -49.7566 -49.7563 -49.7563 -49.7469 -49.7469 -49.7333 -49.7333
   -49.7290 -49.7290 -49.7185 -49.7185 -49.7066 -49.7066 -49.7048 -49.7048
   -49.7023 -49.7023 -49.6982 -49.6982 -49.6895 -49.6895 -49.6871 -49.6871
   -20.2224 -20.2224 -20.2139 -20.2139 -20.1837 -20.1837 -20.1627 -20.1627
   -20.1610 -20.1610 -20.1603 -20.1603 -20.1217 -20.1217 -20.0746 -20.0746
   -20.0668 -20.0668 -20.0657 -20.0657 -20.0118 -20.0118 -19.9892 -19.9892
   -19.9583 -19.9583 -19.9508 -19.9508 -19.9054 -19.9054 -19.8718 -19.8718
   -19.8420 -19.8420 -19.8265 -19.8265 -19.8244 -19.8244 -19.7876 -19.7876
   -19.7579 -19.7579 -19.6681 -19.6681 -19.6580 -19.6580 -19.6326 -19.6326
   -19.6181 -19.6181 -19.6142 -19.6142 -19.6076 -19.6076 -19.5880 -19.5880
   -19.5781 -19.5781 -19.5715 -19.5715 -19.5687 -19.5687 -19.5666 -19.5666
   -19.5651 -19.5651 -19.5372 -19.5372 -19.5297 -19.5297 -19.5110 -19.5110
   -19.5091 -19.5091 -19.4943 -19.4943 -19.4924 -19.4924 -19.4719 -19.4719
   -19.4675 -19.4675 -19.4610 -19.4610 -19.4468 -19.4468 -19.4279 -19.4279
   -19.4275 -19.4275 -19.3942 -19.3942 -19.3695 -19.3695 -19.3514 -19.3514
    16.2360  16.2360  17.4249  17.4249  17.5101  17.5101  17.5434  17.5434
    17.6342  17.6342  17.7321  17.7321  17.7989  17.7989  17.8512  17.8512
    17.8745  17.8745  17.9139  17.9139  18.0135  18.0136  18.0584  18.0584
    18.0643  18.0643  18.2286  18.2286  18.4134  18.4134  18.4559  18.4560
    18.7386  18.7386  18.7579  18.7579  18.8121  18.8121  18.8995  18.8995
    19.1472  19.1472  19.1810  19.1810  19.2108  19.2108  19.2468  19.2468
    19.3176  19.3176  19.3812  19.3812  19.3976  19.3976  19.8680  19.8680
    19.9296  19.9296  19.9369  19.9369  19.9939  19.9939  20.0533  20.0533
    20.2033  20.2033  20.2228  20.2228  20.3996  20.3996  20.4317  20.4317
    20.5050  20.5050  20.5474  20.5474  20.6051  20.6051  20.7890  20.7890
    20.8974  20.8974  20.9916  20.9916  21.0687  21.0687  21.0764  21.0764
    21.1072  21.1072  21.1397  21.1397  21.5614  21.5614  21.6030  21.6030
    21.6370  21.6370  21.6863  21.6863  21.8556  21.8556  21.8599  21.8599
    22.1180  22.1180  22.2923  22.2923  22.3151  22.3151  22.3656  22.3656
    22.3722  22.3722  22.4361  22.4361  22.4995  22.4995  22.6079  22.6079
    22.8025  22.8025  22.8256  22.8256  22.9302  22.9302  23.1958  23.1958
    23.2296  23.2296  23.2327  23.2327  23.3015  23.3015  23.7550  23.7550
    23.8394  23.8394  23.8507  23.8507  24.0705  24.0705  24.1253  24.1253
    24.2514  24.2514  24.3047  24.3047  24.3055  24.3055  24.3268  24.3268
    24.3271  24.3271  24.3348  24.3348  24.3464  24.3464  24.5354  24.5354
    24.6755  24.6755  25.1008  25.1008  25.1499  25.1499  25.1550  25.1550
    25.3943  25.3943  25.6216  25.6216  25.6297  25.6297  26.1641  26.1641
    27.2296  27.2296  27.6557

          k = 0.0556 0.2778 0.2778 ( 30150 PWs)   bands (ev):

   -49.8876 -49.8368 -49.8368 -49.7986 -49.7965 -49.7789 -49.7695 -49.7694
   -49.7565 -49.7565 -49.7553 -49.7476 -49.7476 -49.7471 -49.7318 -49.7318
   -49.7313 -49.7312 -49.7226 -49.7225 -49.7178 -49.7178 -49.7047 -49.6964
   -49.6963 -49.6959 -49.6959 -49.6936 -49.6936 -49.6893 -49.6893 -49.6872
   -20.2686 -20.2686 -20.2325 -20.2118 -20.1998 -20.1917 -20.1917 -20.1317
   -20.1317 -20.1279 -20.1279 -20.0905 -20.0905 -20.0680 -20.0680 -20.0634
   -20.0634 -20.0609 -20.0609 -20.0531 -20.0531 -20.0260 -20.0260 -20.0258
   -20.0110 -20.0110 -19.9300 -19.9218 -19.8947 -19.8947 -19.8752 -19.8751
   -19.8665 -19.8597 -19.8265 -19.8265 -19.7545 -19.7545 -19.7540 -19.7262
   -19.7262 -19.7209 -19.7208 -19.6878 -19.6878 -19.6657 -19.6657 -19.6543
   -19.6543 -19.6484 -19.6480 -19.6480 -19.6340 -19.6339 -19.6125 -19.6125
   -19.5948 -19.5948 -19.5929 -19.5929 -19.5576 -19.5576 -19.5556 -19.5556
   -19.5412 -19.5412 -19.5396 -19.5314 -19.5104 -19.5103 -19.5088 -19.5022
   -19.5022 -19.4993 -19.4992 -19.4992 -19.4724 -19.4724 -19.4705 -19.4705
   -19.4678 -19.4606 -19.4471 -19.4452 -19.4452 -19.4430 -19.4351 -19.4351
   -19.4299 -19.4186 -19.4186 -19.3891 -19.3890 -19.3771 -19.3437 -19.3189
    15.8439  17.1076  17.1076  17.2303  17.2413  17.2413  17.3688  17.4536
    17.6197  17.6198  17.6635  17.6635  17.7680  17.8268  17.8975  17.8975
    17.9894  18.0409  18.0409  18.0409  18.0713  18.0713  18.1551  18.1551
    18.2084  18.2084  18.2808  18.2808  18.4821  18.5662  18.5662  18.5830
    18.5830  18.6150  18.6150  18.7020  18.7020  18.8001  18.8001  18.8771
    18.8771  18.9956  19.1419  19.1419  19.2115  19.2115  19.2145  19.4535
    19.4535  19.4695  19.4695  19.5136  19.5148  19.5148  19.5756  19.9116
    19.9116  20.0234  20.0234  20.0986  20.0986  20.1697  20.1697  20.2120
    20.2120  20.2259  20.2259  20.3096  20.3245  20.3980  20.3981  20.4807
    20.4878  20.5511  20.5511  20.7047  20.7047  20.7137  20.7688  20.7924
    20.8033  20.8377  20.8377  20.8566  20.8901  20.9054  20.9058  20.9059
    21.0646  21.0646  21.1916  21.1916  21.4229  21.4229  21.5605  21.5605
    21.6169  21.6169  21.7210  21.7210  21.7395  21.8126  21.8335  21.8335
    21.8721  21.8721  22.0475  22.0711  22.2080  22.2310  22.2310  22.2357
    22.2357  22.3608  22.4306  22.5634  22.5634  22.7113  22.7284  22.7284
    23.0115  23.0178  23.0178  23.1461  23.1461  23.1722  23.1722  23.2732
    23.2791  23.2920  23.2920  23.3778  23.3779  23.4817  23.4817  23.4890
    23.4890  23.5418  23.5419  23.8044  23.8316  23.8316  23.8879  23.9797
    23.9797  23.9849  24.0056  24.0057  24.1613  24.2142  24.3878  24.3878
    24.5913  24.7182  24.7182  24.7392  24.7454  24.7455  24.7522  24.7766
    24.9208  24.9208  24.9222  24.9222  24.9628  24.9628  24.9716  24.9716
    25.0703  25.4292  25.5270  25.5270  26.0429  26.0429  27.1008  27.1008
    27.3534  27.4042  27.4042

          k = 0.0556 0.2778 0.3889 ( 30193 PWs)   bands (ev):

   -49.8784 -49.8527 -49.8299 -49.8105 -49.7916 -49.7779 -49.7749 -49.7669
   -49.7635 -49.7597 -49.7548 -49.7500 -49.7448 -49.7367 -49.7317 -49.7286
   -49.7271 -49.7241 -49.7203 -49.7199 -49.7142 -49.7110 -49.7056 -49.7007
   -49.7005 -49.6999 -49.6998 -49.6959 -49.6945 -49.6921 -49.6886 -49.6876
   -20.2476 -20.2447 -20.1964 -20.1771 -20.1761 -20.1736 -20.1719 -20.1715
   -20.1598 -20.1236 -20.1236 -20.1223 -20.1091 -20.1072 -20.0905 -20.0887
   -20.0879 -20.0752 -20.0712 -20.0684 -20.0485 -20.0451 -20.0281 -20.0224
   -20.0160 -19.9861 -19.9557 -19.9546 -19.9246 -19.9000 -19.8566 -19.8470
   -19.8366 -19.8155 -19.8069 -19.7866 -19.7854 -19.7836 -19.7624 -19.7533
   -19.7131 -19.7126 -19.6950 -19.6817 -19.6736 -19.6708 -19.6533 -19.6504
   -19.6404 -19.6366 -19.6337 -19.6236 -19.6190 -19.6177 -19.6042 -19.5979
   -19.5885 -19.5871 -19.5865 -19.5854 -19.5779 -19.5652 -19.5547 -19.5515
   -19.5478 -19.5438 -19.5297 -19.5294 -19.5293 -19.5216 -19.5209 -19.5196
   -19.5071 -19.4972 -19.4949 -19.4889 -19.4850 -19.4840 -19.4824 -19.4817
   -19.4782 -19.4627 -19.4578 -19.4540 -19.4532 -19.4500 -19.4484 -19.4363
   -19.4231 -19.4229 -19.4067 -19.3765 -19.3695 -19.3625 -19.3602 -19.3263
    16.0795  16.7303  17.2857  17.3728  17.3831  17.4225  17.4718  17.5709
    17.7364  17.7657  17.7704  17.7893  17.7987  17.8117  17.8272  17.8419
    17.8719  17.9013  17.9508  17.9677  17.9966  18.0256  18.0819  18.0891
    18.1050  18.1404  18.2850  18.2993  18.3189  18.3225  18.3645  18.4282
    18.4984  18.5964  18.6581  18.7124  18.7242  18.7277  18.7692  18.7692
    18.8655  18.9541  18.9786  19.0582  19.0970  19.2212  19.2256  19.2599
    19.3370  19.4204  19.5439  19.5528  19.5805  19.5945  19.7624  19.8164
    19.8491  19.8702  19.9562  20.0970  20.1753  20.1765  20.2680  20.2850
    20.3069  20.3269  20.3322  20.4165  20.4607  20.4728  20.4767  20.5979
    20.5980  20.6700  20.6886  20.7093  20.7160  20.7409  20.8226  20.8729
    20.9140  20.9211  20.9547  20.9660  20.9797  21.0564  21.0871  21.0910
    21.0942  21.1673  21.2005  21.2200  21.3014  21.3649  21.4158  21.5074
    21.5695  21.5750  21.6084  21.6331  21.6660  21.6908  21.7149  21.7257
    21.8332  21.8465  21.8685  21.9258  22.0440  22.0773  22.0907  22.1461
    22.2539  22.2608  22.4264  22.4505  22.5747  22.6112  22.6956  22.7714
    22.9204  22.9486  22.9589  23.0080  23.0804  23.1688  23.2313  23.2397
    23.3214  23.3570  23.4048  23.5094  23.5189  23.5343  23.6057  23.6679
    23.7174  23.7184  23.8747  23.8765  23.8778  23.9246  24.1043  24.1497
    24.1684  24.1844  24.2239  24.2302  24.2445  24.2510  24.2531  24.2939
    24.3659  24.5157  24.5838  24.6017  24.6026  24.6147  24.6335  24.6382
    24.6458  24.7131  24.9174  24.9279  24.9332  24.9467  24.9991  25.0383
    25.3633  25.4834  25.5033  25.5208  25.5670  25.8887  26.7608  26.7755
    27.5367  27.7134  28.0216

          k = 0.0556 0.2778-0.5000 ( 30164 PWs)   bands (ev):

   -49.8667 -49.8667 -49.8211 -49.8211 -49.7853 -49.7853 -49.7697 -49.7697
   -49.7636 -49.7636 -49.7526 -49.7526 -49.7411 -49.7411 -49.7261 -49.7261
   -49.7234 -49.7234 -49.7175 -49.7175 -49.7093 -49.7093 -49.7069 -49.7069
   -49.7049 -49.7049 -49.6956 -49.6956 -49.6952 -49.6952 -49.6881 -49.6881
   -20.2166 -20.2166 -20.2118 -20.2118 -20.1537 -20.1537 -20.1503 -20.1503
   -20.1455 -20.1455 -20.1250 -20.1250 -20.1185 -20.1185 -20.1109 -20.1109
   -20.1086 -20.1086 -20.0828 -20.0828 -20.0344 -20.0344 -20.0268 -20.0268
   -19.9922 -19.9922 -19.9494 -19.9494 -19.9433 -19.9433 -19.8199 -19.8199
   -19.8175 -19.8175 -19.7991 -19.7991 -19.7823 -19.7823 -19.7635 -19.7635
   -19.7454 -19.7454 -19.6521 -19.6521 -19.6492 -19.6492 -19.6469 -19.6469
   -19.6374 -19.6374 -19.6356 -19.6356 -19.6229 -19.6229 -19.6137 -19.6137
   -19.5848 -19.5848 -19.5761 -19.5761 -19.5599 -19.5599 -19.5584 -19.5584
   -19.5409 -19.5409 -19.5347 -19.5347 -19.5312 -19.5312 -19.5187 -19.5187
   -19.5053 -19.5053 -19.4906 -19.4906 -19.4891 -19.4891 -19.4887 -19.4887
   -19.4783 -19.4783 -19.4668 -19.4668 -19.4527 -19.4527 -19.4338 -19.4338
   -19.4291 -19.4291 -19.3814 -19.3814 -19.3695 -19.3695 -19.3412 -19.3412
    16.3799  16.3799  17.5091  17.5091  17.5546  17.5546  17.5614  17.5614
    17.6255  17.6255  17.6481  17.6481  17.7372  17.7372  17.9106  17.9106
    17.9294  17.9294  18.0217  18.0217  18.0413  18.0413  18.0766  18.0766
    18.0775  18.0775  18.1978  18.1978  18.2157  18.2157  18.3275  18.3275
    18.5200  18.5200  18.6238  18.6238  18.7331  18.7331  18.8588  18.8588
    18.8620  18.8620  19.0053  19.0053  19.1095  19.1095  19.1397  19.1397
    19.5055  19.5055  19.5837  19.5837  19.6747  19.6747  19.6835  19.6835
    19.7182  19.7182  19.9872  19.9872  20.2339  20.2339  20.3414  20.3414
    20.3658  20.3658  20.4528  20.4528  20.4709  20.4709  20.5090  20.5090
    20.5955  20.5955  20.7456  20.7456  20.8558  20.8558  20.9510  20.9510
    20.9552  20.9552  21.0288  21.0288  21.0679  21.0679  21.0844  21.0844
    21.2534  21.2534  21.2859  21.2859  21.3044  21.3044  21.3099  21.3099
    21.4896  21.4896  21.4948  21.4948  21.5946  21.5946  21.6026  21.6026
    21.8143  21.8143  22.0380  22.0380  22.1867  22.1867  22.2103  22.2103
    22.2483  22.2483  22.2895  22.2895  22.3996  22.3996  22.5879  22.5879
    22.7825  22.7825  23.0983  23.0983  23.1369  23.1369  23.2009  23.2009
    23.3433  23.3433  23.5966  23.5966  23.6367  23.6367  23.7526  23.7526
    23.8476  23.8476  23.9207  23.9207  24.0033  24.0033  24.0037  24.0037
    24.2572  24.2572  24.2578  24.2578  24.3632  24.3632  24.4300  24.4300
    24.4303  24.4303  24.4509  24.4509  24.4712  24.4712  24.4731  24.4731
    24.5754  24.5754  24.9356  24.9356  24.9569  24.9569  25.0035  25.0035
    25.1547  25.1547  25.6969  25.6969  26.0966  26.0966  26.1759  26.1759
    27.8987  27.8987  28.2269

          k = 0.0556 0.3889 0.3889 ( 30175 PWs)   bands (ev):

   -49.8697 -49.8451 -49.8451 -49.8237 -49.7871 -49.7746 -49.7746 -49.7712
   -49.7653 -49.7611 -49.7611 -49.7542 -49.7295 -49.7295 -49.7236 -49.7235
   -49.7231 -49.7230 -49.7165 -49.7165 -49.7141 -49.7141 -49.7047 -49.7046
   -49.7042 -49.7042 -49.7021 -49.7021 -49.6963 -49.6907 -49.6907 -49.6884
   -20.2280 -20.2280 -20.1659 -20.1659 -20.1639 -20.1639 -20.1596 -20.1529
   -20.1475 -20.1474 -20.1300 -20.1211 -20.1210 -20.1116 -20.1116 -20.0876
   -20.0876 -20.0737 -20.0736 -20.0722 -20.0722 -20.0713 -20.0713 -20.0339
   -20.0339 -20.0322 -19.9933 -19.9489 -19.9432 -19.8904 -19.8904 -19.8194
   -19.7990 -19.7990 -19.7648 -19.7648 -19.7589 -19.7278 -19.7278 -19.7132
   -19.7131 -19.7119 -19.7119 -19.6957 -19.6956 -19.6477 -19.6477 -19.6472
   -19.6471 -19.6333 -19.6333 -19.6258 -19.6244 -19.6244 -19.6209 -19.6209
   -19.6079 -19.6079 -19.5774 -19.5774 -19.5693 -19.5693 -19.5658 -19.5570
   -19.5569 -19.5329 -19.5329 -19.5287 -19.5214 -19.5214 -19.5214 -19.5214
   -19.5037 -19.4988 -19.4987 -19.4974 -19.4974 -19.4907 -19.4829 -19.4758
   -19.4703 -19.4646 -19.4607 -19.4588 -19.4588 -19.4520 -19.4472 -19.4296
   -19.4296 -19.4248 -19.4248 -19.3771 -19.3565 -19.3534 -19.3534 -19.3277
    16.3037  16.9236  16.9236  17.4545  17.4894  17.5401  17.5669  17.5669
    17.6517  17.8070  17.8070  17.8324  17.8609  17.8609  17.9264  17.9264
    17.9387  17.9387  17.9432  17.9433  17.9754  17.9854  17.9854  18.0561
    18.0561  18.1258  18.1730  18.2396  18.2396  18.4363  18.4363  18.4376
    18.4376  18.4452  18.4452  18.4474  18.4474  18.6874  18.6874  18.6983
    18.6983  18.7533  18.7533  19.0040  19.0040  19.1344  19.3403  19.3403
    19.3455  19.3455  19.5131  19.6721  19.6721  19.6896  19.7030  19.7672
    19.7672  20.0922  20.1039  20.1039  20.2667  20.3692  20.3692  20.4809
    20.4967  20.4967  20.5037  20.5037  20.5103  20.5103  20.5445  20.5445
    20.6203  20.6661  20.8290  20.8290  20.9230  20.9230  20.9368  20.9873
    20.9885  21.0019  21.0121  21.0516  21.1023  21.1023  21.1352  21.1352
    21.2773  21.2773  21.2934  21.2934  21.2962  21.3245  21.3245  21.3757
    21.4495  21.4495  21.4821  21.4821  21.5021  21.5139  21.5554  21.5554
    21.5787  21.5787  21.7173  21.7878  21.7878  21.8188  21.8188  22.0973
    22.2478  22.2478  22.2626  22.2627  22.3497  22.3497  22.4126  22.4992
    22.8115  23.1392  23.1881  23.1881  23.2111  23.2111  23.4774  23.4774
    23.4881  23.4881  23.5874  23.5874  23.6477  23.6477  23.7174  23.7556
    23.9008  23.9008  24.0070  24.0342  24.0342  24.0514  24.0514  24.0607
    24.0607  24.1473  24.2557  24.3543  24.3901  24.4122  24.4122  24.4152
    24.4152  24.4596  24.5227  24.5787  24.5787  24.6255  24.6255  24.6402
    24.6402  24.6659  24.6704  24.6704  24.6875  24.6875  24.8582  24.8857
    24.8857  25.2168  25.3817  25.3817  26.1448  26.1448  27.4262  27.4262
    27.4931  27.4931  28.2102

          k = 0.0556 0.3889-0.5000 ( 30172 PWs)   bands (ev):

   -49.8585 -49.8585 -49.8353 -49.8353 -49.7814 -49.7814 -49.7704 -49.7704
   -49.7666 -49.7666 -49.7579 -49.7579 -49.7268 -49.7268 -49.7195 -49.7195
   -49.7182 -49.7182 -49.7160 -49.7160 -49.7119 -49.7119 -49.7098 -49.7098
   -49.7087 -49.7087 -49.7035 -49.7035 -49.6932 -49.6932 -49.6894 -49.6894
   -20.2014 -20.2014 -20.1996 -20.1996 -20.1468 -20.1468 -20.1467 -20.1467
   -20.1314 -20.1314 -20.1230 -20.1230 -20.1173 -20.1173 -20.1132 -20.1132
   -20.0957 -20.0957 -20.0832 -20.0832 -20.0733 -20.0733 -20.0608 -20.0608
   -20.0333 -20.0333 -19.9890 -19.9890 -19.9226 -19.9226 -19.8548 -19.8548
   -19.7625 -19.7625 -19.7537 -19.7537 -19.7411 -19.7411 -19.7273 -19.7273
   -19.7023 -19.7023 -19.6773 -19.6773 -19.6734 -19.6734 -19.6717 -19.6717
   -19.6637 -19.6637 -19.6292 -19.6292 -19.6150 -19.6150 -19.6076 -19.6076
   -19.5925 -19.5925 -19.5858 -19.5858 -19.5848 -19.5848 -19.5672 -19.5672
   -19.5469 -19.5469 -19.5462 -19.5462 -19.5143 -19.5143 -19.5108 -19.5108
   -19.5107 -19.5107 -19.5029 -19.5029 -19.4791 -19.4791 -19.4748 -19.4748
   -19.4711 -19.4711 -19.4658 -19.4658 -19.4481 -19.4481 -19.4432 -19.4432
   -19.4384 -19.4384 -19.3989 -19.3989 -19.3511 -19.3511 -19.3369 -19.3369
    16.5894  16.5894  17.1688  17.1688  17.6527  17.6527  17.6528  17.6528
    17.7416  17.7416  17.7748  17.7748  17.7966  17.7966  17.8093  17.8093
    17.9463  17.9463  17.9721  17.9721  18.0765  18.0765  18.1647  18.1647
    18.1703  18.1703  18.1975  18.1975  18.2020  18.2020  18.2435  18.2435
    18.4192  18.4192  18.4469  18.4469  18.5579  18.5579  18.5947  18.5947
    18.6170  18.6170  18.9069  18.9069  19.1347  19.1347  19.1485  19.1485
    19.4888  19.4888  19.4996  19.4996  19.7467  19.7467  19.8282  19.8282
    19.9522  19.9522  20.0302  20.0302  20.2225  20.2225  20.4754  20.4754
    20.5285  20.5285  20.5832  20.5832  20.6729  20.6729  20.7243  20.7243
    20.8346  20.8346  20.8546  20.8546  20.8816  20.8816  21.0420  21.0420
    21.0492  21.0492  21.0722  21.0722  21.0957  21.0957  21.1273  21.1273
    21.1869  21.1869  21.2313  21.2313  21.2433  21.2433  21.2707  21.2707
    21.3801  21.3801  21.3873  21.3873  21.5327  21.5327  21.5568  21.5568
    21.5635  21.5635  21.7225  21.7225  21.9675  21.9675  21.9701  21.9701
    22.0191  22.0191  22.0386  22.0386  22.1904  22.1904  22.3710  22.3710
    23.0134  23.0134  23.2791  23.2791  23.3917  23.3917  23.4360  23.4360
    23.4653  23.4653  23.7020  23.7020  23.7771  23.7771  23.7973  23.7973
    23.8732  23.8732  23.9556  23.9556  24.0700  24.0700  24.2099  24.2099
    24.2750  24.2750  24.3655  24.3655  24.4332  24.4332  24.4352  24.4352
    24.4532  24.4532  24.5198  24.5198  24.5228  24.5228  24.5579  24.5579
    24.5625  24.5625  24.6427  24.6427  24.6969  24.6969  24.7553  24.7553
    24.8729  24.8729  25.2328  25.2328  26.7970  26.7970  26.7989  26.7989
    28.1410  28.1410  28.2109

          k = 0.0556-0.5000-0.5000 ( 30184 PWs)   bands (ev):

   -49.8479 -49.8479 -49.8479 -49.8479 -49.7764 -49.7764 -49.7763 -49.7763
   -49.7626 -49.7626 -49.7626 -49.7626 -49.7142 -49.7142 -49.7141 -49.7141
   -49.7141 -49.7141 -49.7141 -49.7141 -49.7137 -49.7137 -49.7137 -49.7137
   -49.7136 -49.7136 -49.7136 -49.7136 -49.6912 -49.6912 -49.6911 -49.6911
   -20.1777 -20.1777 -20.1777 -20.1777 -20.1777 -20.1777 -20.1777 -20.1777
   -20.1058 -20.1058 -20.1058 -20.1058 -20.1057 -20.1057 -20.1057 -20.1057
   -20.0943 -20.0943 -20.0943 -20.0943 -20.0762 -20.0762 -20.0762 -20.0762
   -20.0370 -20.0370 -20.0370 -20.0370 -19.8897 -19.8897 -19.8897 -19.8897
   -19.7106 -19.7106 -19.7106 -19.7106 -19.7106 -19.7106 -19.7106 -19.7106
   -19.7044 -19.7044 -19.7044 -19.7044 -19.7044 -19.7044 -19.7044 -19.7044
   -19.6425 -19.6425 -19.6424 -19.6424 -19.6004 -19.6004 -19.6004 -19.6004
   -19.6004 -19.6004 -19.6004 -19.6004 -19.5978 -19.5978 -19.5978 -19.5978
   -19.5301 -19.5301 -19.5301 -19.5301 -19.5301 -19.5301 -19.5301 -19.5301
   -19.4946 -19.4946 -19.4946 -19.4946 -19.4807 -19.4807 -19.4807 -19.4807
   -19.4581 -19.4581 -19.4581 -19.4581 -19.4534 -19.4534 -19.4534 -19.4534
   -19.4214 -19.4214 -19.4213 -19.4213 -19.3401 -19.3401 -19.3401 -19.3401
    16.8564  16.8564  16.8564  16.8564  17.7149  17.7149  17.7149  17.7149
    17.7895  17.7895  17.7895  17.7895  17.8446  17.8446  17.8447  17.8447
    17.9761  17.9761  17.9761  17.9761  17.9761  17.9761  17.9761  17.9761
    18.2940  18.2940  18.2941  18.2941  18.2941  18.2941  18.2941  18.2941
    18.3946  18.3946  18.3946  18.3946  18.3946  18.3946  18.3946  18.3946
    18.6568  18.6568  18.6568  18.6568  19.3009  19.3009  19.3009  19.3009
    19.3009  19.3009  19.3009  19.3009  19.8728  19.8728  19.8728  19.8728
    20.1030  20.1030  20.1031  20.1031  20.3822  20.3822  20.3822  20.3822
    20.6060  20.6060  20.6060  20.6060  20.6172  20.6172  20.6172  20.6172
    20.9682  20.9682  20.9682  20.9682  20.9682  20.9682  20.9682  20.9682
    21.0747  21.0747  21.0747  21.0747  21.2115  21.2115  21.2115  21.2115
    21.2263  21.2263  21.2264  21.2264  21.3673  21.3673  21.3673  21.3673
    21.3804  21.3804  21.3804  21.3804  21.3804  21.3804  21.3804  21.3804
    21.6507  21.6507  21.6507  21.6507  21.7785  21.7785  21.7785  21.7785
    21.7786  21.7786  21.7786  21.7786  22.2803  22.2803  22.2803  22.2803
    23.2515  23.2515  23.2515  23.2515  23.4529  23.4529  23.4529  23.4529
    23.6625  23.6625  23.6625  23.6625  23.6625  23.6625  23.6625  23.6625
    24.1812  24.1812  24.1812  24.1812  24.3076  24.3076  24.3076  24.3076
    24.3076  24.3076  24.3076  24.3076  24.3089  24.3089  24.3089  24.3089
    24.5436  24.5436  24.5436  24.5436  24.5724  24.5724  24.5724  24.5724
    24.5724  24.5724  24.5724  24.5724  24.5832  24.5832  24.5832  24.5832
    24.8395  24.8395  24.8395  24.8395  27.4849  27.4849  27.4849  27.4849
    27.4849  27.4849  27.4849

          k = 0.1667 0.1667 0.1667 ( 30217 PWs)   bands (ev):

   -49.8971 -49.8217 -49.8217 -49.8217 -49.7733 -49.7733 -49.7733 -49.7662
   -49.7662 -49.7662 -49.7524 -49.7380 -49.7380 -49.7379 -49.7379 -49.7379
   -49.7379 -49.7375 -49.7374 -49.7374 -49.7174 -49.7174 -49.7174 -49.6902
   -49.6901 -49.6901 -49.6898 -49.6898 -49.6898 -49.6897 -49.6897 -49.6897
   -20.2864 -20.2864 -20.2863 -20.2501 -20.2208 -20.2208 -20.2208 -20.0865
   -20.0865 -20.0865 -20.0679 -20.0679 -20.0679 -20.0679 -20.0679 -20.0679
   -20.0477 -20.0477 -20.0477 -20.0477 -20.0477 -20.0477 -19.9818 -19.9818
   -19.9818 -19.9415 -19.9415 -19.9415 -19.8940 -19.8940 -19.8940 -19.8939
   -19.8939 -19.8939 -19.8112 -19.8112 -19.8112 -19.7231 -19.7231 -19.7231
   -19.7005 -19.7005 -19.7005 -19.7005 -19.7005 -19.7005 -19.6974 -19.6974
   -19.6974 -19.6589 -19.6589 -19.6589 -19.6536 -19.6536 -19.6536 -19.6536
   -19.6536 -19.6536 -19.5895 -19.5895 -19.5895 -19.5463 -19.5463 -19.5463
   -19.5358 -19.5358 -19.5358 -19.4950 -19.4950 -19.4950 -19.4876 -19.4875
   -19.4875 -19.4711 -19.4711 -19.4711 -19.4711 -19.4711 -19.4711 -19.4607
   -19.4607 -19.4607 -19.4446 -19.4446 -19.4446 -19.4384 -19.4384 -19.4384
   -19.4362 -19.4362 -19.4033 -19.4033 -19.4033 -19.3797 -19.3188 -19.3188
    15.5984  17.0736  17.0736  17.0736  17.2421  17.3976  17.3976  17.3976
    17.4067  17.4067  17.4067  17.5348  17.5348  17.5348  17.9060  17.9060
    17.9060  18.2792  18.2792  18.2792  18.2792  18.2792  18.2792  18.3115
    18.3115  18.3115  18.4751  18.4751  18.4751  18.7020  18.7020  18.7020
    18.7315  18.7315  18.7315  18.7315  18.7315  18.7315  19.0673  19.0673
    19.0673  19.0673  19.0673  19.0673  19.2440  19.2441  19.2441  19.5812
    19.5812  19.5812  19.7289  19.7289  19.7289  19.7289  19.7289  19.7289
    19.8746  19.8746  19.8747  19.9554  19.9554  19.9554  19.9554  19.9554
    19.9554  20.2539  20.2539  20.2539  20.4404  20.4404  20.4404  20.4549
    20.4729  20.4729  20.4729  20.4729  20.4729  20.4729  20.5019  20.5019
    20.5019  20.5624  20.5624  20.6991  20.6991  20.6991  20.7174  20.7174
    21.2451  21.2451  21.2451  21.5284  21.5284  21.5284  21.5914  21.5914
    21.5914  21.7711  21.7711  21.7711  21.9682  21.9682  21.9682  22.0229
    22.0229  22.0229  22.0229  22.0229  22.0229  22.4359  22.4359  22.4359
    22.6014  22.6014  22.6014  22.7223  22.7223  22.7223  22.7538  22.7538
    22.7538  22.8215  22.8215  22.8215  22.8216  22.8216  22.8216  22.9101
    22.9101  23.2180  23.3935  23.3935  23.3935  23.3935  23.3936  23.3936
    23.6515  23.6515  23.6515  23.6635  23.6635  23.6635  23.7566  23.7566
    23.7567  24.0607  24.0607  24.0607  24.2345  24.2345  24.2345  24.4355
    24.4355  24.4355  24.5202  24.5202  24.8206  24.8206  24.8206  25.0460
    25.0460  25.0460  25.0461  25.0461  25.0461  25.1608  25.1608  25.1608
    25.6446  25.6446  25.6446  26.1287  26.1287  26.1287  27.2457  27.2457
    27.2457  27.2457  27.2457

          k = 0.1667 0.1667 0.2778 ( 30175 PWs)   bands (ev):

   -49.8907 -49.8392 -49.8176 -49.8176 -49.7845 -49.7845 -49.7715 -49.7638
   -49.7638 -49.7572 -49.7486 -49.7444 -49.7444 -49.7379 -49.7378 -49.7375
   -49.7375 -49.7327 -49.7267 -49.7267 -49.7191 -49.7110 -49.7110 -49.6966
   -49.6938 -49.6938 -49.6921 -49.6921 -49.6902 -49.6901 -49.6898 -49.6898
   -20.2758 -20.2654 -20.2653 -20.2172 -20.2060 -20.2060 -20.1980 -20.1349
   -20.1085 -20.1084 -20.0863 -20.0863 -20.0818 -20.0817 -20.0814 -20.0814
   -20.0631 -20.0630 -20.0508 -20.0508 -20.0488 -20.0488 -20.0256 -20.0079
   -19.9591 -19.9591 -19.9407 -19.9407 -19.9014 -19.9014 -19.8689 -19.8689
   -19.8539 -19.8538 -19.8439 -19.8439 -19.7583 -19.7583 -19.7522 -19.7374
   -19.7374 -19.7192 -19.7192 -19.6846 -19.6645 -19.6645 -19.6597 -19.6596
   -19.6544 -19.6543 -19.6528 -19.6528 -19.6505 -19.6486 -19.6335 -19.6335
   -19.6282 -19.6282 -19.5810 -19.5644 -19.5569 -19.5569 -19.5552 -19.5551
   -19.5551 -19.5263 -19.5260 -19.5260 -19.5146 -19.5146 -19.5041 -19.5041
   -19.5036 -19.5036 -19.4920 -19.4749 -19.4749 -19.4708 -19.4707 -19.4685
   -19.4658 -19.4657 -19.4547 -19.4547 -19.4420 -19.4285 -19.4246 -19.4246
   -19.4159 -19.4157 -19.4060 -19.4054 -19.3940 -19.3940 -19.3294 -19.3223
    15.7622  17.0391  17.1721  17.1866  17.1866  17.2970  17.5011  17.5011
    17.5020  17.5020  17.5496  17.6089  17.6644  17.6644  17.8129  17.9962
    17.9962  18.0332  18.0552  18.0552  18.1438  18.1438  18.2471  18.3328
    18.3328  18.3906  18.3906  18.3994  18.3994  18.4897  18.5982  18.5982
    18.6027  18.6027  18.6228  18.6229  18.7124  18.7124  18.8211  18.8211
    19.0786  19.0786  19.1008  19.1008  19.3161  19.3161  19.4487  19.4487
    19.5029  19.5029  19.5097  19.5608  19.5958  19.5958  19.7913  19.7913
    19.7933  19.7933  19.9629  19.9629  19.9802  19.9802  20.0932  20.1771
    20.1771  20.2745  20.3589  20.3589  20.3617  20.4054  20.4054  20.4761
    20.4761  20.4875  20.4875  20.5892  20.6006  20.6079  20.6079  20.6132
    20.7838  20.7980  20.8107  20.8107  20.8172  20.8370  21.0177  21.0177
    21.0772  21.0772  21.2673  21.2673  21.2719  21.2784  21.5058  21.5398
    21.5398  21.7105  21.7105  21.7293  21.7409  21.7409  21.9953  22.1310
    22.1310  22.1671  22.1672  22.2422  22.2697  22.2697  22.3555  22.3555
    22.3827  22.5174  22.5174  22.5931  22.5931  22.6136  22.6136  22.7277
    22.7558  22.7558  22.7825  22.8202  22.8202  22.9496  22.9707  23.0686
    23.0889  23.0889  23.4434  23.4434  23.4749  23.5015  23.5015  23.7264
    23.7264  23.7312  23.7312  23.7387  23.7387  23.7864  23.8742  23.8742
    23.9013  23.9013  23.9156  24.2604  24.2605  24.2684  24.2792  24.3514
    24.4293  24.5233  24.5233  24.6467  24.7611  24.7863  24.7863  24.8613
    24.8613  24.8633  24.8633  25.0518  25.0518  25.0669  25.1329  25.1330
    25.1656  25.1656  25.5301  26.3151  26.3152  26.7072  26.7072  26.8576
    27.0752  27.1507  27.1507

          k = 0.1667 0.1667 0.3889 ( 30171 PWs)   bands (ev):

   -49.8814 -49.8553 -49.8116 -49.8116 -49.7948 -49.7948 -49.7689 -49.7616
   -49.7603 -49.7603 -49.7505 -49.7505 -49.7378 -49.7377 -49.7376 -49.7375
   -49.7324 -49.7285 -49.7215 -49.7165 -49.7164 -49.7060 -49.7051 -49.7051
   -49.6997 -49.6997 -49.6955 -49.6955 -49.6901 -49.6900 -49.6899 -49.6898
   -20.2542 -20.2351 -20.2351 -20.1843 -20.1843 -20.1817 -20.1757 -20.1644
   -20.1536 -20.1535 -20.1233 -20.1233 -20.0871 -20.0871 -20.0766 -20.0766
   -20.0764 -20.0731 -20.0731 -20.0682 -20.0537 -20.0537 -20.0297 -20.0297
   -19.9816 -19.9816 -19.9018 -19.9018 -19.8957 -19.8957 -19.8714 -19.8714
   -19.8394 -19.8394 -19.8145 -19.8145 -19.8016 -19.8016 -19.7732 -19.7732
   -19.7463 -19.7462 -19.6898 -19.6658 -19.6521 -19.6521 -19.6519 -19.6519
   -19.6335 -19.6310 -19.6310 -19.6141 -19.6141 -19.6132 -19.6059 -19.6059
   -19.5982 -19.5982 -19.5907 -19.5816 -19.5762 -19.5762 -19.5742 -19.5392
   -19.5392 -19.5384 -19.5384 -19.5327 -19.5327 -19.5236 -19.5236 -19.5182
   -19.5113 -19.5113 -19.4877 -19.4837 -19.4837 -19.4758 -19.4726 -19.4726
   -19.4703 -19.4703 -19.4683 -19.4683 -19.4626 -19.4586 -19.4215 -19.4101
   -19.4090 -19.4090 -19.3922 -19.3922 -19.3888 -19.3761 -19.3450 -19.3335
    16.0010  16.6592  17.3112  17.3511  17.3511  17.4060  17.6352  17.6352
    17.6549  17.6549  17.6559  17.7191  17.7451  17.7791  17.8023  17.8023
    17.8542  17.8542  17.9687  17.9687  18.0415  18.1066  18.1066  18.1223
    18.1223  18.2327  18.3871  18.3871  18.4002  18.4002  18.4409  18.4409
    18.5459  18.5459  18.5477  18.5477  18.7813  18.7813  18.8387  18.8387
    19.0924  19.0924  19.1645  19.1645  19.2198  19.2198  19.2989  19.2989
    19.3852  19.3852  19.4187  19.4187  19.6357  19.6757  19.6757  19.7659
    19.8771  19.8771  19.9248  20.0113  20.0113  20.0811  20.0811  20.2052
    20.2258  20.2258  20.2360  20.2360  20.4791  20.4965  20.4965  20.5005
    20.5005  20.5818  20.6851  20.6851  20.7118  20.8582  20.8582  20.9038
    20.9046  20.9046  20.9137  20.9137  20.9182  20.9629  20.9629  20.9704
    21.0163  21.0448  21.2076  21.2095  21.2737  21.4741  21.4868  21.4868
    21.5868  21.5868  21.6073  21.6073  21.6681  21.6681  21.9014  21.9014
    21.9975  22.1236  22.2580  22.3008  22.3008  22.3207  22.3207  22.4704
    22.4951  22.4951  22.5012  22.5012  22.5404  22.5404  22.6084  22.6491
    22.6491  22.6700  22.6700  22.7770  22.7770  22.8689  22.8689  23.0598
    23.3077  23.3150  23.4079  23.4119  23.4120  23.4124  23.5489  23.5489
    23.8192  23.8192  23.9567  23.9567  23.9871  24.0302  24.0302  24.0306
    24.0476  24.0476  24.0719  24.0720  24.1167  24.1167  24.1829  24.6153
    24.6233  24.6233  24.6263  24.6276  24.6276  24.6314  24.6314  24.7118
    24.7118  24.8948  24.9397  25.0065  25.0351  25.0351  25.0618  25.0619
    25.1021  25.1021  25.3614  26.1537  26.1537  26.4122  26.5594  26.5594
    27.0024  27.0025  27.5309

          k = 0.1667 0.1667-0.5000 ( 30122 PWs)   bands (ev):

   -49.8695 -49.8695 -49.8040 -49.8040 -49.8039 -49.8039 -49.7656 -49.7656
   -49.7559 -49.7558 -49.7558 -49.7558 -49.7377 -49.7377 -49.7376 -49.7376
   -49.7247 -49.7247 -49.7180 -49.7180 -49.7074 -49.7074 -49.7073 -49.7073
   -49.6999 -49.6999 -49.6998 -49.6998 -49.6900 -49.6900 -49.6899 -49.6899
   -20.2224 -20.2224 -20.1970 -20.1970 -20.1969 -20.1969 -20.1564 -20.1564
   -20.1564 -20.1564 -20.1278 -20.1278 -20.1207 -20.1207 -20.0852 -20.0852
   -20.0852 -20.0852 -20.0627 -20.0627 -20.0627 -20.0627 -20.0059 -20.0059
   -20.0059 -20.0059 -19.8916 -19.8916 -19.8916 -19.8916 -19.8485 -19.8485
   -19.8485 -19.8485 -19.8073 -19.8073 -19.8073 -19.8073 -19.7783 -19.7783
   -19.7783 -19.7783 -19.6515 -19.6515 -19.6515 -19.6515 -19.6418 -19.6418
   -19.6295 -19.6295 -19.6140 -19.6140 -19.6012 -19.6012 -19.6012 -19.6012
   -19.5733 -19.5733 -19.5733 -19.5733 -19.5705 -19.5705 -19.5704 -19.5704
   -19.5677 -19.5677 -19.5677 -19.5677 -19.5184 -19.5184 -19.4964 -19.4964
   -19.4964 -19.4964 -19.4958 -19.4958 -19.4958 -19.4958 -19.4848 -19.4848
   -19.4822 -19.4822 -19.4696 -19.4696 -19.4695 -19.4695 -19.4153 -19.4153
   -19.3976 -19.3976 -19.3975 -19.3975 -19.3650 -19.3650 -19.3517 -19.3517
    16.3050  16.3050  17.4789  17.4789  17.5603  17.5603  17.5603  17.5603
    17.5677  17.5677  17.7950  17.7950  17.7950  17.7950  17.8575  17.8575
    17.8575  17.8575  17.8641  17.8641  17.9768  17.9768  18.0979  18.0979
    18.0979  18.0979  18.2747  18.2747  18.2747  18.2747  18.4722  18.4722
    18.4722  18.4722  18.7249  18.7249  18.7249  18.7249  19.0189  19.0189
    19.0189  19.0189  19.1180  19.1180  19.1181  19.1181  19.2629  19.2629
    19.2629  19.2629  19.5435  19.5435  19.5435  19.5435  19.7658  19.7658
    19.9772  19.9772  19.9773  19.9773  20.0018  20.0018  20.1023  20.1023
    20.1023  20.1023  20.5048  20.5048  20.5049  20.5049  20.5463  20.5463
    20.5523  20.5523  20.5523  20.5523  20.7814  20.7814  20.7814  20.7814
    20.8565  20.8565  21.0577  21.0577  21.0771  21.0771  21.1086  21.1086
    21.1086  21.1086  21.2315  21.2315  21.4767  21.4767  21.4767  21.4767
    21.5222  21.5222  21.6050  21.6050  21.6298  21.6298  21.6298  21.6298
    22.2291  22.2291  22.2291  22.2291  22.4101  22.4101  22.4101  22.4101
    22.4149  22.4149  22.5008  22.5008  22.5008  22.5008  22.6187  22.6187
    22.6187  22.6187  22.6698  22.6698  22.6698  22.6698  22.9569  22.9569
    23.1755  23.1755  23.6584  23.6584  23.6852  23.6852  23.6852  23.6852
    23.7390  23.7390  23.7391  23.7391  23.7391  23.7391  24.2978  24.2978
    24.2978  24.2978  24.3478  24.3478  24.3478  24.3478  24.3730  24.3730
    24.3730  24.3730  24.3819  24.3819  24.3819  24.3819  24.4278  24.4278
    24.7871  24.7871  25.0780  25.0780  25.0781  25.0781  25.1449  25.1449
    25.5915  25.5915  25.5915  25.5915  25.7043  25.7043  26.8010  26.8010
    26.8010  26.8010  28.0863

          k = 0.1667 0.2778 0.2778 ( 30156 PWs)   bands (ev):

   -49.8845 -49.8346 -49.8346 -49.8137 -49.7971 -49.7822 -49.7822 -49.7635
   -49.7616 -49.7468 -49.7468 -49.7438 -49.7438 -49.7391 -49.7318 -49.7317
   -49.7313 -49.7313 -49.7272 -49.7272 -49.7132 -49.7132 -49.7061 -49.6964
   -49.6963 -49.6960 -49.6959 -49.6944 -49.6944 -49.6916 -49.6916 -49.6903
   -20.2592 -20.2592 -20.2423 -20.1917 -20.1862 -20.1861 -20.1811 -20.1310
   -20.1310 -20.1192 -20.1192 -20.0922 -20.0922 -20.0877 -20.0877 -20.0801
   -20.0801 -20.0760 -20.0760 -20.0759 -20.0732 -20.0732 -20.0187 -20.0187
   -19.9841 -19.9841 -19.9799 -19.8927 -19.8729 -19.8729 -19.8714 -19.8611
   -19.8611 -19.8318 -19.8318 -19.7951 -19.7811 -19.7811 -19.7451 -19.7048
   -19.7047 -19.7013 -19.7012 -19.6974 -19.6974 -19.6895 -19.6895 -19.6439
   -19.6439 -19.6434 -19.6353 -19.6353 -19.6303 -19.6303 -19.6274 -19.6273
   -19.6130 -19.6130 -19.5925 -19.5924 -19.5569 -19.5569 -19.5514 -19.5454
   -19.5454 -19.5291 -19.5277 -19.5245 -19.5245 -19.5216 -19.5106 -19.5106
   -19.5097 -19.5096 -19.5083 -19.5014 -19.5013 -19.4778 -19.4778 -19.4757
   -19.4757 -19.4738 -19.4550 -19.4420 -19.4338 -19.4299 -19.4265 -19.4244
   -19.4244 -19.3978 -19.3978 -19.3933 -19.3933 -19.3794 -19.3374 -19.3240
    15.9195  17.1462  17.1462  17.2790  17.2841  17.2842  17.3264  17.5529
    17.5768  17.6572  17.6572  17.7377  17.7377  17.8051  17.9076  17.9076
    17.9188  17.9188  17.9246  18.0184  18.0864  18.0864  18.1582  18.1582
    18.3184  18.3184  18.3760  18.3760  18.4270  18.4270  18.4602  18.4885
    18.4885  18.5141  18.5141  18.6272  18.6272  18.7571  18.7571  18.7722
    18.8188  18.8188  19.0829  19.0829  19.3444  19.3444  19.4330  19.4506
    19.4527  19.4527  19.5225  19.5225  19.5608  19.5608  19.7887  19.7920
    19.7920  19.9902  19.9902  20.0466  20.0466  20.1325  20.1947  20.1947
    20.2465  20.2465  20.3030  20.3659  20.3659  20.4361  20.4361  20.6114
    20.6131  20.6396  20.6396  20.6819  20.7776  20.7802  20.7802  20.8289
    20.8451  20.8451  20.8574  20.9162  20.9654  20.9654  20.9804  20.9884
    20.9884  21.0760  21.1538  21.1538  21.2865  21.2865  21.4656  21.4694
    21.4694  21.5812  21.6087  21.6087  21.8495  21.8495  21.8949  21.8949
    21.9774  21.9774  21.9951  22.0584  22.0584  22.2765  22.3530  22.3576
    22.3767  22.3926  22.3926  22.4372  22.4372  22.6974  22.6975  22.7559
    22.8634  22.8776  22.8776  22.9237  22.9237  22.9529  22.9904  22.9905
    23.0833  23.0833  23.1430  23.2319  23.2319  23.5261  23.5261  23.7538
    23.7902  23.7902  23.8275  23.8275  24.0273  24.0273  24.0316  24.0412
    24.1008  24.1008  24.1030  24.1030  24.2599  24.3117  24.3117  24.3666
    24.4196  24.4327  24.7237  24.7645  24.7645  24.7870  24.7871  24.8402
    24.8787  24.8787  24.8807  24.8807  24.9585  24.9585  25.0546  25.0547
    25.0568  25.0568  25.0780  26.2298  26.6233  26.6233  27.0899  27.0899
    27.3307  27.3307  27.6940

          k = 0.1667 0.2778 0.3889 ( 30187 PWs)   bands (ev):

   -49.8755 -49.8502 -49.8278 -49.8088 -49.8080 -49.7920 -49.7788 -49.7693
   -49.7584 -49.7494 -49.7441 -49.7429 -49.7405 -49.7364 -49.7311 -49.7300
   -49.7279 -49.7256 -49.7201 -49.7175 -49.7165 -49.7078 -49.7055 -49.7016
   -49.7015 -49.7011 -49.6990 -49.6960 -49.6950 -49.6942 -49.6911 -49.6905
   -20.2418 -20.2334 -20.2108 -20.1763 -20.1708 -20.1689 -20.1606 -20.1569
   -20.1371 -20.1304 -20.1217 -20.1209 -20.1209 -20.1133 -20.0984 -20.0961
   -20.0919 -20.0879 -20.0735 -20.0723 -20.0710 -20.0627 -20.0616 -20.0351
   -20.0326 -20.0063 -19.9380 -19.8899 -19.8892 -19.8481 -19.8415 -19.8405
   -19.8400 -19.8188 -19.8075 -19.8035 -19.7948 -19.7745 -19.7372 -19.7371
   -19.7366 -19.7302 -19.7163 -19.6839 -19.6675 -19.6530 -19.6407 -19.6369
   -19.6355 -19.6285 -19.6279 -19.6265 -19.6230 -19.6119 -19.6103 -19.6033
   -19.5994 -19.5960 -19.5919 -19.5911 -19.5874 -19.5845 -19.5736 -19.5610
   -19.5486 -19.5453 -19.5449 -19.5338 -19.5332 -19.5259 -19.5195 -19.5161
   -19.5048 -19.5039 -19.4979 -19.4968 -19.4921 -19.4909 -19.4882 -19.4864
   -19.4860 -19.4779 -19.4769 -19.4531 -19.4430 -19.4415 -19.4189 -19.4169
   -19.4034 -19.3973 -19.3969 -19.3805 -19.3723 -19.3663 -19.3527 -19.3308
    16.1487  16.7806  17.2989  17.4060  17.4193  17.4213  17.4477  17.6243
    17.6977  17.7010  17.7084  17.7567  17.8093  17.8110  17.8332  17.8472
    17.8484  17.9001  17.9257  18.0047  18.0438  18.0657  18.0704  18.1390
    18.1707  18.2258  18.2403  18.2883  18.2988  18.3240  18.4146  18.4476
    18.4600  18.4855  18.5290  18.5422  18.5649  18.5729  18.6011  18.8285
    18.9660  19.0067  19.0723  19.0799  19.1098  19.1218  19.2818  19.3131
    19.3263  19.5063  19.5753  19.6001  19.6226  19.6277  19.7559  19.7951
    19.8025  19.8683  19.8991  20.0169  20.0667  20.1817  20.2044  20.3414
    20.3470  20.3571  20.3858  20.5297  20.5594  20.6313  20.6320  20.6403
    20.6883  20.7112  20.7431  20.7680  20.7792  20.7805  20.8256  20.8671
    20.8731  20.9247  20.9362  20.9513  21.0370  21.0604  21.0783  21.1023
    21.1327  21.1465  21.1591  21.1736  21.2578  21.3450  21.3962  21.4446
    21.4493  21.4871  21.5317  21.5635  21.5786  21.6367  21.6842  21.6917
    21.7467  21.8313  21.9583  22.0250  22.0996  22.1888  22.2118  22.3555
    22.3598  22.4523  22.4659  22.5241  22.5875  22.5925  22.6101  22.6244
    22.6473  22.6894  22.8228  22.8453  22.8745  22.9079  22.9966  23.0252
    23.0344  23.2463  23.2574  23.2752  23.3343  23.3846  23.6826  23.8153
    23.8689  23.8969  23.9007  23.9173  23.9653  23.9727  24.1105  24.1851
    24.2008  24.2266  24.2781  24.2956  24.2956  24.3160  24.3179  24.3374
    24.4994  24.5914  24.6100  24.6335  24.6365  24.6569  24.6667  24.7020
    24.7221  24.7580  24.9001  24.9088  24.9091  24.9418  24.9713  25.0036
    25.0130  25.5613  25.5672  26.0809  26.2547  26.5041  26.7596  27.0030
    27.3279  27.7016  27.8508

          k = 0.1667 0.2778-0.5000 ( 30158 PWs)   bands (ev):

   -49.8640 -49.8640 -49.8192 -49.8191 -49.8007 -49.8007 -49.7744 -49.7744
   -49.7543 -49.7543 -49.7418 -49.7418 -49.7406 -49.7406 -49.7289 -49.7289
   -49.7206 -49.7206 -49.7171 -49.7171 -49.7098 -49.7098 -49.7088 -49.7088
   -49.7030 -49.7030 -49.6975 -49.6975 -49.6955 -49.6955 -49.6908 -49.6908
   -20.2138 -20.2138 -20.1999 -20.1999 -20.1726 -20.1726 -20.1469 -20.1469
   -20.1443 -20.1443 -20.1187 -20.1187 -20.1138 -20.1138 -20.1079 -20.1079
   -20.0952 -20.0952 -20.0875 -20.0875 -20.0697 -20.0697 -20.0475 -20.0475
   -20.0348 -20.0348 -19.8960 -19.8960 -19.8893 -19.8893 -19.8301 -19.8301
   -19.8066 -19.8066 -19.7889 -19.7889 -19.7771 -19.7771 -19.7715 -19.7715
   -19.7605 -19.7605 -19.6575 -19.6575 -19.6537 -19.6537 -19.6386 -19.6386
   -19.6373 -19.6372 -19.6304 -19.6304 -19.6103 -19.6103 -19.6086 -19.6086
   -19.5798 -19.5798 -19.5797 -19.5797 -19.5724 -19.5724 -19.5639 -19.5639
   -19.5604 -19.5604 -19.5600 -19.5600 -19.5555 -19.5555 -19.5317 -19.5317
   -19.5002 -19.5002 -19.4973 -19.4973 -19.4931 -19.4931 -19.4780 -19.4780
   -19.4728 -19.4728 -19.4640 -19.4640 -19.4637 -19.4637 -19.4105 -19.4105
   -19.4041 -19.4041 -19.3729 -19.3729 -19.3728 -19.3728 -19.3451 -19.3451
    16.4406  16.4406  17.4879  17.4879  17.5346  17.5346  17.5853  17.5853
    17.6061  17.6061  17.6565  17.6565  17.7117  17.7117  17.8627  17.8627
    17.9923  17.9923  18.0043  18.0043  18.0646  18.0646  18.1373  18.1373
    18.1659  18.1659  18.2155  18.2155  18.2173  18.2173  18.2511  18.2511
    18.4513  18.4513  18.4786  18.4786  18.6198  18.6198  18.8053  18.8053
    18.9388  18.9388  19.1207  19.1207  19.1388  19.1388  19.2070  19.2070
    19.2839  19.2839  19.6334  19.6334  19.6979  19.6979  19.7415  19.7415
    19.8034  19.8034  19.9874  19.9874  20.0068  20.0068  20.3534  20.3534
    20.4093  20.4093  20.5647  20.5647  20.6250  20.6250  20.6278  20.6278
    20.7465  20.7465  20.7648  20.7648  20.8548  20.8548  20.8872  20.8872
    20.9464  20.9464  21.0440  21.0440  21.0534  21.0534  21.0788  21.0788
    21.1523  21.1523  21.2842  21.2842  21.3502  21.3502  21.3846  21.3846
    21.4124  21.4124  21.4281  21.4281  21.4415  21.4415  21.4764  21.4764
    21.9901  21.9901  22.0667  22.0667  22.0940  22.0940  22.3173  22.3173
    22.4160  22.4160  22.4220  22.4220  22.4609  22.4609  22.4646  22.4646
    22.6641  22.6641  22.7195  22.7195  22.8930  22.8930  22.9786  22.9786
    23.1680  23.1680  23.5600  23.5600  23.5791  23.5791  23.6126  23.6126
    23.6741  23.6741  23.9581  23.9581  24.0403  24.0403  24.1373  24.1373
    24.2066  24.2066  24.3986  24.3986  24.4433  24.4433  24.4763  24.4763
    24.4779  24.4779  24.5270  24.5270  24.5460  24.5460  24.5592  24.5592
    24.7066  24.7066  24.7909  24.7909  24.9505  24.9505  24.9538  24.9538
    25.5275  25.5275  26.1664  26.1664  26.2721  26.2721  26.3672  26.3672
    27.5394  27.5394  28.5176

          k = 0.1667 0.3889 0.3889 ( 30150 PWs)   bands (ev):

   -49.8669 -49.8427 -49.8427 -49.8217 -49.8027 -49.7879 -49.7879 -49.7763
   -49.7556 -49.7477 -49.7477 -49.7432 -49.7291 -49.7291 -49.7235 -49.7235
   -49.7231 -49.7230 -49.7189 -49.7189 -49.7118 -49.7118 -49.7047 -49.7046
   -49.7043 -49.7042 -49.7025 -49.7025 -49.6983 -49.6930 -49.6930 -49.6911
   -20.2206 -20.2206 -20.1791 -20.1638 -20.1638 -20.1577 -20.1577 -20.1514
   -20.1459 -20.1459 -20.1227 -20.1226 -20.1149 -20.1149 -20.1019 -20.1019
   -20.1001 -20.1001 -20.0914 -20.0862 -20.0861 -20.0774 -20.0774 -20.0753
   -20.0372 -19.9884 -19.9884 -19.8945 -19.8879 -19.8653 -19.8653 -19.8052
   -19.7947 -19.7947 -19.7851 -19.7683 -19.7683 -19.7428 -19.7428 -19.7074
   -19.7073 -19.7031 -19.7030 -19.6960 -19.6960 -19.6733 -19.6733 -19.6466
   -19.6466 -19.6240 -19.6239 -19.6235 -19.6235 -19.6213 -19.6150 -19.6150
   -19.6034 -19.6034 -19.5755 -19.5755 -19.5722 -19.5722 -19.5713 -19.5712
   -19.5626 -19.5547 -19.5546 -19.5545 -19.5509 -19.5275 -19.5257 -19.5257
   -19.5253 -19.5253 -19.5163 -19.5021 -19.5020 -19.4889 -19.4889 -19.4883
   -19.4690 -19.4690 -19.4611 -19.4389 -19.4339 -19.4235 -19.4213 -19.4133
   -19.4133 -19.4046 -19.4046 -19.3681 -19.3597 -19.3574 -19.3574 -19.3322
    16.3638  16.9558  16.9558  17.4299  17.4496  17.5319  17.5823  17.5823
    17.6203  17.6590  17.6590  17.7765  17.8963  17.8963  17.9039  17.9039
    17.9880  17.9880  18.0332  18.0334  18.0334  18.0336  18.0336  18.0414
[...]
   -19.5849 -19.5849 -19.5849 -19.5849 -19.5400 -19.5400 -19.5400 -19.5400
   -19.5400 -19.5400 -19.5400 -19.5400 -19.5239 -19.5239 -19.5239 -19.5239
   -19.4147 -19.4147 -19.4147 -19.4147 -19.3965 -19.3965 -19.3965 -19.3965
   -19.3943 -19.3943 -19.3943 -19.3943 -19.3518 -19.3518 -19.3518 -19.3518
    16.9460  16.9460  16.9460  16.9460  17.4181  17.4181  17.4181  17.4181
    17.8783  17.8783  17.8783  17.8783  17.9250  17.9250  17.9250  17.9250
    17.9250  17.9250  17.9251  17.9251  18.0059  18.0059  18.0059  18.0059
    18.1992  18.1992  18.1992  18.1992  18.1992  18.1992  18.1992  18.1992
    18.5948  18.5948  18.5948  18.5948  18.5948  18.5948  18.5948  18.5948
    18.7560  18.7560  18.7560  18.7560  19.3237  19.3237  19.3237  19.3237
    19.3237  19.3237  19.3237  19.3237  19.5043  19.5043  19.5043  19.5043
    20.0466  20.0466  20.0466  20.0466  20.5258  20.5258  20.5258  20.5258
    20.7799  20.7799  20.7799  20.7799  20.8587  20.8587  20.8587  20.8587
    20.8971  20.8971  20.8972  20.8972  20.8972  20.8972  20.8972  20.8972
    21.0204  21.0204  21.0204  21.0204  21.0458  21.0458  21.0458  21.0458
    21.0965  21.0965  21.0965  21.0965  21.3114  21.3114  21.3114  21.3114
    21.3115  21.3115  21.3115  21.3115  21.4517  21.4517  21.4517  21.4517
    21.7869  21.7869  21.7869  21.7870  21.9765  21.9765  21.9765  21.9765
    21.9765  21.9765  21.9765  21.9765  22.6054  22.6054  22.6054  22.6054
    22.8715  22.8715  22.8715  22.8715  22.9222  22.9222  22.9222  22.9222
    22.9223  22.9223  22.9223  22.9223  23.3104  23.3104  23.3104  23.3104
    23.3254  23.3254  23.3254  23.3254  23.7489  23.7489  23.7489  23.7489
    24.7532  24.7532  24.7532  24.7532  24.7532  24.7532  24.7532  24.7532
    24.7908  24.7908  24.7908  24.7908  24.8173  24.8173  24.8173  24.8173
    24.8173  24.8173  24.8173  24.8173  24.8666  24.8666  24.8666  24.8666
    26.4524  26.4524  26.4524  26.4524  27.7439  27.7439  27.7439  27.7439
    27.7439  27.7439  27.7439

          k = 0.3889 0.3889 0.3889 ( 30196 PWs)   bands (ev):

   -49.8536 -49.8314 -49.8314 -49.8313 -49.8123 -49.8123 -49.8123 -49.7965
   -49.7269 -49.7269 -49.7269 -49.7234 -49.7234 -49.7234 -49.7233 -49.7233
   -49.7233 -49.7232 -49.7232 -49.7232 -49.7076 -49.7076 -49.7076 -49.7046
   -49.7045 -49.7045 -49.7044 -49.7044 -49.7044 -49.7043 -49.7043 -49.7043
   -20.1861 -20.1861 -20.1860 -20.1496 -20.1496 -20.1495 -20.1390 -20.1390
   -20.1390 -20.1342 -20.1342 -20.1342 -20.1342 -20.1342 -20.1341 -20.1298
   -20.1298 -20.1298 -20.1298 -20.1298 -20.1298 -20.1031 -20.1031 -20.1031
   -19.9935 -19.8819 -19.8819 -19.8819 -19.7742 -19.7742 -19.7742 -19.7742
   -19.7742 -19.7742 -19.7683 -19.7683 -19.7683 -19.7660 -19.7659 -19.7659
   -19.7422 -19.7421 -19.7421 -19.6680 -19.6680 -19.6680 -19.6680 -19.6680
   -19.6680 -19.6505 -19.6505 -19.6505 -19.6498 -19.6382 -19.6381 -19.6381
   -19.5996 -19.5996 -19.5996 -19.5812 -19.5812 -19.5811 -19.5811 -19.5811
   -19.5811 -19.5632 -19.5632 -19.5632 -19.5471 -19.5471 -19.5471 -19.5424
   -19.5424 -19.5424 -19.5424 -19.5424 -19.5424 -19.5213 -19.5213 -19.5212
   -19.4199 -19.4199 -19.4199 -19.4009 -19.4009 -19.3916 -19.3916 -19.3916
   -19.3752 -19.3752 -19.3752 -19.3716 -19.3716 -19.3715 -19.3545 -19.3545
    16.6512  17.1098  17.1098  17.1098  17.3495  17.3592  17.3592  17.3592
    17.7175  17.7175  17.7175  17.9391  17.9391  17.9391  18.0185  18.0185
    18.0185  18.0318  18.0318  18.0318  18.0319  18.0319  18.0319  18.1206
    18.1206  18.1206  18.1206  18.1206  18.1206  18.1505  18.1505  18.1505
    18.4049  18.4049  18.4049  18.7772  18.7772  18.7772  18.8804  18.8805
    18.8805  18.8805  18.8805  18.8805  19.2357  19.2357  19.2357  19.2450
    19.2450  19.2450  19.2450  19.2450  19.2450  19.5469  19.5469  19.5469
    20.0686  20.0686  20.0686  20.1570  20.3430  20.3430  20.3430  20.7587
    20.7587  20.7587  20.7587  20.7587  20.7587  20.8610  20.8610  20.9552
    20.9552  20.9552  21.0037  21.0037  21.0037  21.0041  21.0041  21.0214
    21.0214  21.0214  21.0332  21.0332  21.0332  21.0360  21.0664  21.0664
    21.0664  21.1022  21.1022  21.1022  21.1023  21.1023  21.1023  21.1096
    21.1096  21.1096  21.2119  21.2119  21.2119  21.6321  21.6321  21.6321
    21.8370  21.8370  21.8370  22.1558  22.1558  22.1558  22.1558  22.1558
    22.1558  22.1572  22.1573  22.1573  22.4933  22.4933  22.4933  22.6807
    22.6807  22.6807  22.6808  22.6808  22.6808  22.7959  22.7959  22.7959
    22.8877  22.8877  22.9242  22.9242  22.9242  23.0780  23.0780  23.0780
    23.3576  23.3576  23.3576  23.5895  23.5895  23.7560  23.7560  23.7560
    24.7057  24.7057  24.7057  24.7591  24.7591  24.7591  24.7591  24.7591
    24.7591  24.8275  24.8275  24.8275  24.8275  24.8275  24.8275  24.8934
    24.8934  24.8935  24.9096  24.9096  24.9096  25.0031  25.0031  25.0031
    26.6678  26.6678  26.6678  27.5720  27.5720  27.5720  27.5720  27.5720
    27.5720  27.8515  27.8516

          k = 0.3889 0.3889-0.5000 ( 30162 PWs)   bands (ev):

   -49.8435 -49.8435 -49.8227 -49.8227 -49.8226 -49.8226 -49.8051 -49.8051
   -49.7253 -49.7253 -49.7253 -49.7253 -49.7233 -49.7233 -49.7233 -49.7233
   -49.7148 -49.7148 -49.7147 -49.7147 -49.7130 -49.7130 -49.7130 -49.7130
   -49.7058 -49.7058 -49.7058 -49.7058 -49.7045 -49.7045 -49.7044 -49.7044
   -20.1730 -20.1730 -20.1613 -20.1613 -20.1612 -20.1612 -20.1397 -20.1397
   -20.1396 -20.1396 -20.1362 -20.1362 -20.1362 -20.1362 -20.1344 -20.1344
   -20.1344 -20.1344 -20.1245 -20.1245 -20.1189 -20.1189 -20.1189 -20.1189
   -19.9381 -19.9381 -19.8247 -19.8247 -19.8247 -19.8247 -19.7722 -19.7722
   -19.7722 -19.7722 -19.7592 -19.7592 -19.7592 -19.7592 -19.7211 -19.7211
   -19.7210 -19.7210 -19.7078 -19.7078 -19.7008 -19.7008 -19.6985 -19.6985
   -19.6576 -19.6576 -19.6576 -19.6576 -19.6513 -19.6513 -19.6512 -19.6512
   -19.5893 -19.5893 -19.5893 -19.5893 -19.5830 -19.5830 -19.5638 -19.5637
   -19.5637 -19.5637 -19.5631 -19.5631 -19.5631 -19.5631 -19.5531 -19.5531
   -19.5531 -19.5531 -19.5353 -19.5353 -19.5326 -19.5326 -19.5325 -19.5325
   -19.4060 -19.4060 -19.4013 -19.4013 -19.4013 -19.4013 -19.3869 -19.3869
   -19.3719 -19.3719 -19.3719 -19.3719 -19.3714 -19.3714 -19.3585 -19.3585
    16.8647  16.8647  17.2249  17.2249  17.2249  17.2249  17.3421  17.3421
    17.8332  17.8332  17.8523  17.8523  17.8523  17.8523  18.0137  18.0137
    18.0137  18.0137  18.0582  18.0582  18.0582  18.0582  18.0759  18.0759
    18.0759  18.0759  18.0927  18.0927  18.0927  18.0927  18.1051  18.1051
    18.5688  18.5688  18.6437  18.6437  18.6437  18.6437  19.0231  19.0231
    19.0231  19.0231  19.0347  19.0347  19.0347  19.0347  19.0707  19.0707
    19.0707  19.0707  19.3618  19.3618  19.4164  19.4164  19.4164  19.4164
    20.1346  20.1346  20.2187  20.2187  20.2187  20.2187  20.6908  20.6908
    20.8990  20.8990  20.8990  20.8990  20.9222  20.9222  20.9230  20.9230
    20.9230  20.9230  20.9259  20.9259  20.9740  20.9740  20.9740  20.9740
    20.9884  20.9884  20.9885  20.9885  21.0246  21.0246  21.0255  21.0255
    21.0424  21.0424  21.0596  21.0596  21.0596  21.0596  21.0605  21.0605
    21.0605  21.0605  21.4785  21.4785  21.4785  21.4785  21.5281  21.5281
    21.8604  21.8604  21.8604  21.8604  21.8870  21.8870  22.2991  22.2991
    22.2991  22.2991  22.3927  22.3927  22.3927  22.3928  22.4224  22.4224
    22.4224  22.4224  22.7859  22.7859  22.7980  22.7980  22.8631  22.8631
    22.8631  22.8631  22.8911  22.8911  22.8911  22.8911  23.1097  23.1097
    23.2572  23.2572  23.4825  23.4825  23.4825  23.4825  23.6440  23.6440
    24.7941  24.7941  24.7942  24.7942  24.8258  24.8258  24.8258  24.8258
    24.8292  24.8292  24.8768  24.8768  24.8768  24.8768  24.8831  24.8831
    24.8831  24.8831  24.9354  24.9354  24.9354  24.9354  24.9842  24.9842
    27.0966  27.0966  27.0966  27.0966  27.5486  27.5486  27.6961  27.6961
    27.6961  27.6961  28.4839

          k = 0.3889-0.5000-0.5000 ( 30188 PWs)   bands (ev):

   -49.8340 -49.8340 -49.8340 -49.8340 -49.8147 -49.8147 -49.8146 -49.8146
   -49.7244 -49.7244 -49.7244 -49.7244 -49.7140 -49.7140 -49.7140 -49.7140
   -49.7139 -49.7139 -49.7139 -49.7139 -49.7138 -49.7138 -49.7138 -49.7138
   -49.7138 -49.7138 -49.7138 -49.7138 -49.7051 -49.7051 -49.7051 -49.7051
   -20.1554 -20.1554 -20.1553 -20.1553 -20.1553 -20.1553 -20.1553 -20.1553
   -20.1406 -20.1406 -20.1406 -20.1406 -20.1367 -20.1367 -20.1367 -20.1367
   -20.1305 -20.1305 -20.1305 -20.1305 -20.1304 -20.1304 -20.1304 -20.1304
   -19.8814 -19.8814 -19.8814 -19.8814 -19.7677 -19.7677 -19.7677 -19.7677
   -19.7654 -19.7654 -19.7654 -19.7654 -19.7111 -19.7111 -19.7111 -19.7111
   -19.7111 -19.7111 -19.7111 -19.7111 -19.7097 -19.7097 -19.7097 -19.7097
   -19.7096 -19.7096 -19.7096 -19.7096 -19.6527 -19.6527 -19.6527 -19.6527
   -19.5750 -19.5750 -19.5750 -19.5750 -19.5730 -19.5730 -19.5730 -19.5730
   -19.5729 -19.5729 -19.5729 -19.5729 -19.5493 -19.5493 -19.5493 -19.5493
   -19.5493 -19.5493 -19.5493 -19.5493 -19.5434 -19.5434 -19.5434 -19.5434
   -19.3951 -19.3951 -19.3951 -19.3951 -19.3824 -19.3824 -19.3824 -19.3824
   -19.3822 -19.3822 -19.3822 -19.3822 -19.3632 -19.3632 -19.3632 -19.3632
    17.0326  17.0326  17.0326  17.0326  17.2737  17.2737  17.2737  17.2737
    17.9428  17.9428  17.9428  17.9428  17.9428  17.9428  17.9428  17.9428
    17.9438  17.9438  17.9438  17.9438  18.0226  18.0226  18.0226  18.0226
    18.0869  18.0869  18.0869  18.0869  18.0869  18.0869  18.0869  18.0869
    18.8084  18.8084  18.8084  18.8084  18.8084  18.8084  18.8084  18.8084
    18.8663  18.8663  18.8664  18.8664  19.2152  19.2152  19.2152  19.2152
    19.2152  19.2152  19.2152  19.2152  19.2424  19.2424  19.2424  19.2424
    20.1962  20.1962  20.1963  20.1963  20.4688  20.4688  20.4688  20.4688
    20.9257  20.9257  20.9257  20.9257  20.9476  20.9476  20.9476  20.9476
    20.9701  20.9701  20.9701  20.9701  20.9701  20.9701  20.9701  20.9701
    20.9861  20.9861  20.9861  20.9861  21.0207  21.0207  21.0207  21.0207
    21.0306  21.0306  21.0306  21.0306  21.2251  21.2251  21.2251  21.2251
    21.2251  21.2251  21.2252  21.2252  21.2837  21.2837  21.2837  21.2837
    22.0412  22.0412  22.0412  22.0412  22.1222  22.1222  22.1222  22.1222
    22.1222  22.1222  22.1222  22.1222  22.5816  22.5816  22.5816  22.5816
    22.5816  22.5816  22.5816  22.5816  22.5981  22.5981  22.5981  22.5981
    22.8617  22.8617  22.8617  22.8617  23.1516  23.1516  23.1516  23.1516
    23.2260  23.2260  23.2260  23.2260  23.4474  23.4474  23.4474  23.4474
    24.8698  24.8698  24.8698  24.8698  24.8698  24.8698  24.8698  24.8698
    24.8914  24.8914  24.8914  24.8914  24.9370  24.9370  24.9370  24.9370
    24.9371  24.9371  24.9371  24.9371  24.9382  24.9382  24.9382  24.9382
    27.3659  27.3659  27.3659  27.3659  28.0045  28.0045  28.0045  28.0045
    28.0045  28.0046  28.0046

          k =-0.5000-0.5000-0.5000 ( 30280 PWs)   bands (ev):

   -49.8252 -49.8252 -49.8252 -49.8252 -49.8252 -49.8252 -49.8252 -49.8251
   -49.7140 -49.7140 -49.7140 -49.7140 -49.7139 -49.7139 -49.7139 -49.7139
   -49.7139 -49.7139 -49.7139 -49.7139 -49.7139 -49.7139 -49.7139 -49.7139
   -49.7139 -49.7139 -49.7139 -49.7139 -49.7139 -49.7139 -49.7139 -49.7138
   -20.1431 -20.1431 -20.1431 -20.1431 -20.1431 -20.1431 -20.1431 -20.1431
   -20.1431 -20.1431 -20.1431 -20.1431 -20.1431 -20.1430 -20.1430 -20.1430
   -20.1430 -20.1430 -20.1430 -20.1430 -20.1430 -20.1430 -20.1430 -20.1430
   -19.8230 -19.8230 -19.8230 -19.8230 -19.8230 -19.8230 -19.8230 -19.8230
   -19.7109 -19.7109 -19.7109 -19.7109 -19.7108 -19.7108 -19.7108 -19.7108
   -19.7107 -19.7107 -19.7107 -19.7107 -19.7107 -19.7107 -19.7107 -19.7107
   -19.7107 -19.7107 -19.7107 -19.7107 -19.7107 -19.7107 -19.7107 -19.7107
   -19.5607 -19.5607 -19.5607 -19.5607 -19.5607 -19.5607 -19.5607 -19.5607
   -19.5607 -19.5607 -19.5607 -19.5607 -19.5607 -19.5606 -19.5606 -19.5606
   -19.5606 -19.5606 -19.5606 -19.5606 -19.5606 -19.5606 -19.5606 -19.5606
   -19.3778 -19.3778 -19.3778 -19.3778 -19.3778 -19.3778 -19.3778 -19.3778
   -19.3778 -19.3778 -19.3778 -19.3778 -19.3778 -19.3777 -19.3777 -19.3777
    17.1432  17.1432  17.1432  17.1432  17.1432  17.1432  17.1432  17.1432
    17.9981  17.9981  17.9981  17.9981  17.9981  17.9981  17.9981  17.9981
    17.9981  17.9981  17.9981  17.9981  17.9981  17.9981  17.9981  17.9981
    17.9981  17.9981  17.9981  17.9981  17.9981  17.9981  17.9981  17.9981
    19.0276  19.0276  19.0276  19.0276  19.0276  19.0276  19.0276  19.0276
    19.0276  19.0276  19.0276  19.0276  19.0276  19.0276  19.0276  19.0276
    19.0276  19.0276  19.0276  19.0276  19.0276  19.0276  19.0276  19.0276
    20.3508  20.3508  20.3508  20.3508  20.3508  20.3508  20.3508  20.3508
    20.9909  20.9909  20.9909  20.9909  20.9909  20.9909  20.9909  20.9909
    20.9910  20.9910  20.9910  20.9910  20.9910  20.9910  20.9910  20.9910
    21.1004  21.1004  21.1004  21.1004  21.1004  21.1004  21.1004  21.1004
    21.1004  21.1004  21.1004  21.1004  21.1004  21.1004  21.1004  21.1004
    21.1004  21.1004  21.1004  21.1004  21.1004  21.1004  21.1004  21.1004
    22.3154  22.3154  22.3154  22.3154  22.3154  22.3154  22.3154  22.3154
    22.3154  22.3154  22.3154  22.3154  22.3154  22.3154  22.3154  22.3154
    22.3154  22.3154  22.3154  22.3154  22.3154  22.3154  22.3154  22.3154
    23.1474  23.1474  23.1474  23.1474  23.1474  23.1474  23.1474  23.1474
    23.1474  23.1474  23.1474  23.1474  23.1474  23.1474  23.1474  23.1474
    24.9450  24.9450  24.9450  24.9450  24.9450  24.9450  24.9450  24.9450
    24.9451  24.9451  24.9451  24.9451  24.9451  24.9451  24.9451  24.9451
    24.9451  24.9451  24.9451  24.9451  24.9451  24.9451  24.9451  24.9451
    28.3253  28.3253  28.3253  28.3253  28.3253  28.3253  28.3253  28.3253
    28.3253  28.3253  28.3253

     the Fermi energy is    23.1147 ev

!    total energy              =  -13813.30088100 Ry

     total all-electron energy =   -289989.691220 Ry
     estimated scf accuracy    <       0.00000042 Ry
     smearing contrib. (-TS)   =       0.02043125 Ry
     internal energy E=F+TS    =  -13813.32131225 Ry

     The total energy is F=E-TS. E is the sum of the following terms:
     one-electron contribution =    -995.53296598 Ry
     hartree contribution      =     916.00241919 Ry
     xc contribution           =    -928.06330176 Ry
     ewald contribution        =   -5216.28554340 Ry
     one-center paw contrib.   =   -7589.44192030 Ry

     convergence has been achieved in  11 iterations

     Forces acting on atoms (cartesian axes, Ry/au):

     atom    1 type  1   force =     0.00000000    0.00000000    0.00000000
     atom    2 type  1   force =     0.00000980    0.00000980    0.00000000
     atom    3 type  1   force =     0.00000980    0.00000000    0.00000980
     atom    4 type  1   force =    -0.00000000    0.00000980    0.00000980
     atom    5 type  1   force =     0.00000000    0.00000000    0.00000000
     atom    6 type  1   force =    -0.00000713   -0.00000713    0.00000000
     atom    7 type  1   force =     0.00000980    0.00000000   -0.00000980
     atom    8 type  1   force =     0.00000000    0.00000980   -0.00000980
     atom    9 type  1   force =     0.00000000    0.00000000    0.00000000
     atom   10 type  1   force =     0.00000980   -0.00000980    0.00000000
     atom   11 type  1   force =    -0.00000713    0.00000000   -0.00000713
     atom   12 type  1   force =     0.00000000   -0.00000980    0.00000980
     atom   13 type  1   force =     0.00000000    0.00000000    0.00000000
     atom   14 type  1   force =    -0.00000713    0.00000713    0.00000000
     atom   15 type  1   force =    -0.00000713    0.00000000    0.00000713
     atom   16 type  1   force =     0.00000000   -0.00000980   -0.00000980
     atom   17 type  1   force =     0.00000000    0.00000000    0.00000000
     atom   18 type  1   force =    -0.00000980    0.00000980    0.00000000
     atom   19 type  1   force =    -0.00000980    0.00000000    0.00000980
     atom   20 type  1   force =     0.00000000   -0.00000713   -0.00000713
     atom   21 type  1   force =     0.00000000    0.00000000    0.00000000
     atom   22 type  1   force =     0.00000713   -0.00000713    0.00000000
     atom   23 type  1   force =    -0.00000980    0.00000000   -0.00000980
     atom   24 type  1   force =     0.00000000   -0.00000713    0.00000713
     atom   25 type  1   force =     0.00000000    0.00000000    0.00000000
     atom   26 type  1   force =    -0.00000980   -0.00000980    0.00000000
     atom   27 type  1   force =     0.00000713    0.00000000   -0.00000713
     atom   28 type  1   force =     0.00000000    0.00000713   -0.00000713
     atom   29 type  1   force =     0.00000000    0.00000000    0.00000000
     atom   30 type  1   force =     0.00000713    0.00000713    0.00000000
     atom   31 type  1   force =     0.00000713    0.00000000    0.00000713
     atom   32 type  1   force =     0.00000000    0.00000713    0.00000713

     Total force =     0.000059     Total SCF correction =     0.000310
     SCF correction compared to forces is large: reduce conv_thr to get better values


     Computing stress (Cartesian axis) and pressure

          total   stress  (Ry/bohr**3)                   (kbar)     P=       -4.75
  -0.00003231   0.00000000   0.00000000           -4.75        0.00        0.00
   0.00000000  -0.00003231   0.00000000            0.00       -4.75        0.00
   0.00000000   0.00000000  -0.00003231            0.00        0.00       -4.75


     Writing output data file /scratch/VKUSSKZHlShmXJLD.save/
 
     init_run     :     17.35s CPU     17.95s WALL (       1 calls)
     electrons    :    486.78s CPU    495.65s WALL (       1 calls)
     forces       :      5.34s CPU      5.39s WALL (       1 calls)
     stress       :     32.24s CPU     32.55s WALL (       1 calls)

     Called by init_run:
     wfcinit      :     16.73s CPU     17.22s WALL (       1 calls)
     potinit      :      0.17s CPU      0.20s WALL (       1 calls)
     hinit0       :      0.08s CPU      0.09s WALL (       1 calls)

     Called by electrons:
     c_bands      :    438.07s CPU    445.72s WALL (      12 calls)
     sum_band     :     47.32s CPU     48.31s WALL (      12 calls)
     v_of_rho     :      0.17s CPU      0.19s WALL (      12 calls)
     newd         :      0.26s CPU      0.38s WALL (      12 calls)
     PAW_pot      :      0.99s CPU      1.07s WALL (      12 calls)
     mix_rho      :      0.05s CPU      0.06s WALL (      12 calls)

     Called by c_bands:
     init_us_2    :      1.75s CPU      1.81s WALL (     945 calls)
     cegterg      :    431.67s CPU    438.99s WALL (     420 calls)

     Called by *egterg:
     cdiaghg      :     53.78s CPU     54.66s WALL (    1535 calls)
     h_psi        :    230.53s CPU    235.32s WALL (    1605 calls)
     s_psi        :     15.17s CPU     15.28s WALL (    1605 calls)
     g_psi        :      0.39s CPU      0.40s WALL (    1150 calls)

     Called by h_psi:
     h_psi:calbec :     30.15s CPU     30.41s WALL (    1605 calls)
     vloc_psi     :    185.09s CPU    189.09s WALL (    1605 calls)
     add_vuspsi   :     14.31s CPU     14.82s WALL (    1605 calls)

     General routines
     calbec       :     49.75s CPU     50.14s WALL (    2200 calls)
     fft          :      0.32s CPU      0.34s WALL (     180 calls)
     ffts         :      0.02s CPU      0.02s WALL (      24 calls)
     fftw         :    211.84s CPU    216.29s WALL (  803322 calls)
     interpolate  :      0.03s CPU      0.04s WALL (      12 calls)
 
     Parallel routines
     fft_scatt_xy :     13.80s CPU     14.02s WALL (  803526 calls)
     fft_scatt_yz :    174.37s CPU    178.28s WALL (  803526 calls)
 
     PWSCF        :   9m11.14s CPU   9m23.33s WALL

 
   This run was terminated on:  15:51:52  25Nov2021            

=------------------------------------------------------------------------------=
   JOB DONE.
=------------------------------------------------------------------------------=
