
     Program PWSCF v.6.7MaX starts on 16Jan2022 at  9:11:50 

     This program is part of the open-source Quantum ESPRESSO suite
     for quantum simulation of materials; please cite
         "P. Giannozzi et al., J. Phys.:Condens. Matter 21 395502 (2009);
         "P. Giannozzi et al., J. Phys.:Condens. Matter 29 465901 (2017);
          URL http://www.quantum-espresso.org", 
     in publications or presentations arising from this work. More details at
     http://www.quantum-espresso.org/quote

     Parallel version (MPI & OpenMP), running on      72 processor cores
     Number of MPI processes:                72
     Threads/MPI process:                     1

     MPI processes distributed on     1 nodes
     R & G space division:  proc/nbgrp/npool/nimage =      72
     Reading input from scf_7.in
Warning: card &CELL ignored
Warning: card CELL_DYNAMICS = 'BFGS', ignored
Warning: card CELL_FACTOR = 2.0, ignored
Warning: card PRESS = 0.0, ignored
Warning: card / ignored

     Current dimensions of program PWSCF are:
     Max number of different atomic species (ntypx) = 10
     Max number of k-points (npk) =  40000
     Max angular momentum in pseudopotentials (lmaxx) =  3
     file Fe.pbe-spn-kjpaw_psl.1.0.0.UPF: wavefunction(s)  3P 3D renormalized
     file Fe.pbe-spn-kjpaw_psl.1.0.0.UPF: wavefunction(s)  3P 3D renormalized

     Subspace diagonalization in iterative solution of the eigenvalue problem:
     one sub-group per band group will be used
     ELPA distributed-memory algorithm (size of sub-group:  8*  8 procs)

     Found symmetry operation: I + (  0.2500  0.0000  0.2500)
     This is a supercell, fractional translations are disabled
     Message from routine setup:
     using ibrav=0 with symmetry is DISCOURAGED, use correct ibrav instead
 
     Parallelization info
     --------------------
     sticks:   dense  smooth     PW     G-vecs:    dense   smooth      PW
     Min         119      78     21                 6789     3644     519
     Max         120      79     23                 6793     3649     522
     Sum        8581    5673   1555               488985   262593   37431
 


     bravais-lattice index     =            0
     lattice parameter (alat)  =      12.9382  a.u.
     unit-cell volume          =    3248.7166 (a.u.)^3
     number of atoms/cell      =           32
     number of atomic types    =            2
     number of electrons       =       512.00
     number of Kohn-Sham states=          325
     kinetic-energy cutoff     =      71.0000  Ry
     charge density cutoff     =     430.0000  Ry
     scf convergence threshold =      1.0E-07
     mixing beta               =       0.1000
     number of iterations used =           10  local-TF  mixing
     Exchange-correlation= SLA  PW   PBX  PBC
                           (   1   4   3   4   0   0   0)

     celldm(1)=  12.938190  celldm(2)=   0.000000  celldm(3)=   0.000000
     celldm(4)=   0.000000  celldm(5)=   0.000000  celldm(6)=   0.000000

     crystal axes: (cart. coord. in units of alat)
               a(1) = (   1.000000   0.000000   0.000000 )  
               a(2) = (   0.000000   1.500000   0.000000 )  
               a(3) = (   0.000000   0.000000   1.000000 )  

     reciprocal axes: (cart. coord. in units 2 pi/alat)
               b(1) = (  1.000000  0.000000  0.000000 )  
               b(2) = (  0.000000  0.666667  0.000000 )  
               b(3) = (  0.000000  0.000000  1.000000 )  


     PseudoPot. # 1 for Fe read from file:
     /rds/homes/b/bxp912/pp/Fe.pbe-spn-kjpaw_psl.1.0.0.UPF
     MD5 check sum: 42f43b795421b414b0dc916aa790dbcb
     Pseudo is Projector augmented-wave + core cor, Zval = 16.0
     Generated using &quot;atomic&quot; code by A. Dal Corso  v.6.3
     Shape of augmentation charge: PSQ
     Using radial grid of 1191 points,  6 beta functions with: 
                l(1) =   0
                l(2) =   0
                l(3) =   1
                l(4) =   1
                l(5) =   2
                l(6) =   2
     Q(r) pseudized with 0 coefficients 


     PseudoPot. # 2 for Fe read from file:
     /rds/homes/b/bxp912/pp/Fe.pbe-spn-kjpaw_psl.1.0.0.UPF
     MD5 check sum: 42f43b795421b414b0dc916aa790dbcb
     Pseudo is Projector augmented-wave + core cor, Zval = 16.0
     Generated using &quot;atomic&quot; code by A. Dal Corso  v.6.3
     Shape of augmentation charge: PSQ
     Using radial grid of 1191 points,  6 beta functions with: 
                l(1) =   0
                l(2) =   0
                l(3) =   1
                l(4) =   1
                l(5) =   2
                l(6) =   2
     Q(r) pseudized with 0 coefficients 


     atomic species   valence    mass     pseudopotential
        Fe1           16.00    55.84500     Fe( 1.00)
        Fe2           16.00    55.84500     Fe( 1.00)

     Starting magnetic structure 
     atomic species   magnetization
        Fe1          0.100
        Fe2         -0.100

      8 Sym. Ops. (no inversion) found



   Cartesian axes

     site n.     atom                  positions (alat units)
         1           Fe1 tau(   1) = (   0.0000000   0.0000000   0.0000000  )
         2           Fe2 tau(   2) = (   0.2500000   0.2500000   0.0000000  )
         3           Fe1 tau(   3) = (   0.2500000   0.0000000   0.2500000  )
         4           Fe2 tau(   4) = (   0.0000000   0.2500000   0.2500000  )
         5           Fe1 tau(   5) = (   0.0000000   0.0000000   0.5000000  )
         6           Fe2 tau(   6) = (   0.2500000   0.2500000   0.5000000  )
         7           Fe1 tau(   7) = (   0.2500000   0.0000000   0.7500000  )
         8           Fe2 tau(   8) = (   0.0000000   0.2500000   0.7500000  )
         9           Fe1 tau(   9) = (   0.0000000   1.0000000   0.0000000  )
        10           Fe2 tau(  10) = (   0.2500000   1.2500000   0.0000000  )
        11           Fe1 tau(  11) = (   0.2500000   1.0000000   0.2500000  )
        12           Fe2 tau(  12) = (   0.0000000   1.2500000   0.2500000  )
        13           Fe1 tau(  13) = (   0.0000000   1.0000000   0.5000000  )
        14           Fe2 tau(  14) = (   0.2500000   1.2500000   0.5000000  )
        15           Fe1 tau(  15) = (   0.2500000   1.0000000   0.7500000  )
        16           Fe2 tau(  16) = (   0.0000000   1.2500000   0.7500000  )
        17           Fe1 tau(  17) = (   0.5000000   0.0000000   0.0000000  )
        18           Fe2 tau(  18) = (   0.7500000   0.2500000   0.0000000  )
        19           Fe1 tau(  19) = (   0.7500000   0.0000000   0.2500000  )
        20           Fe2 tau(  20) = (   0.5000000   0.2500000   0.2500000  )
        21           Fe1 tau(  21) = (   0.5000000   0.0000000   0.5000000  )
        22           Fe2 tau(  22) = (   0.7500000   0.2500000   0.5000000  )
        23           Fe1 tau(  23) = (   0.7500000   0.0000000   0.7500000  )
        24           Fe2 tau(  24) = (   0.5000000   0.2500000   0.7500000  )
        25           Fe1 tau(  25) = (   0.5000000   1.0000000   0.0000000  )
        26           Fe2 tau(  26) = (   0.7500000   1.2500000   0.0000000  )
        27           Fe1 tau(  27) = (   0.7500000   1.0000000   0.2500000  )
        28           Fe2 tau(  28) = (   0.5000000   1.2500000   0.2500000  )
        29           Fe1 tau(  29) = (   0.5000000   1.0000000   0.5000000  )
        30           Fe2 tau(  30) = (   0.7500000   1.2500000   0.5000000  )
        31           Fe1 tau(  31) = (   0.7500000   1.0000000   0.7500000  )
        32           Fe2 tau(  32) = (   0.5000000   1.2500000   0.7500000  )

     number of k points=    75  Marzari-Vanderbilt smearing, width (Ry)=  0.0400
                       cart. coord. in units 2pi/alat
        k(    1) = (   0.0555556   0.0370370   0.0555556), wk =   0.0109739
        k(    2) = (   0.0555556   0.0370370   0.1666667), wk =   0.0219479
        k(    3) = (   0.0555556   0.0370370   0.2777778), wk =   0.0219479
        k(    4) = (   0.0555556   0.0370370   0.3888889), wk =   0.0219479
        k(    5) = (   0.0555556   0.0370370  -0.5000000), wk =   0.0109739
        k(    6) = (   0.0555556   0.1111111   0.0555556), wk =   0.0109739
        k(    7) = (   0.0555556   0.1111111   0.1666667), wk =   0.0219479
        k(    8) = (   0.0555556   0.1111111   0.2777778), wk =   0.0219479
        k(    9) = (   0.0555556   0.1111111   0.3888889), wk =   0.0219479
        k(   10) = (   0.0555556   0.1111111  -0.5000000), wk =   0.0109739
        k(   11) = (   0.0555556   0.1851852   0.0555556), wk =   0.0109739
        k(   12) = (   0.0555556   0.1851852   0.1666667), wk =   0.0219479
        k(   13) = (   0.0555556   0.1851852   0.2777778), wk =   0.0219479
        k(   14) = (   0.0555556   0.1851852   0.3888889), wk =   0.0219479
        k(   15) = (   0.0555556   0.1851852  -0.5000000), wk =   0.0109739
        k(   16) = (   0.0555556   0.2592593   0.0555556), wk =   0.0109739
        k(   17) = (   0.0555556   0.2592593   0.1666667), wk =   0.0219479
        k(   18) = (   0.0555556   0.2592593   0.2777778), wk =   0.0219479
        k(   19) = (   0.0555556   0.2592593   0.3888889), wk =   0.0219479
        k(   20) = (   0.0555556   0.2592593  -0.5000000), wk =   0.0109739
        k(   21) = (   0.0555556  -0.3333333   0.0555556), wk =   0.0054870
        k(   22) = (   0.0555556  -0.3333333   0.1666667), wk =   0.0109739
        k(   23) = (   0.0555556  -0.3333333   0.2777778), wk =   0.0109739
        k(   24) = (   0.0555556  -0.3333333   0.3888889), wk =   0.0109739
        k(   25) = (   0.0555556  -0.3333333  -0.5000000), wk =   0.0054870
        k(   26) = (   0.1666667   0.0370370   0.1666667), wk =   0.0109739
        k(   27) = (   0.1666667   0.0370370   0.2777778), wk =   0.0219479
        k(   28) = (   0.1666667   0.0370370   0.3888889), wk =   0.0219479
        k(   29) = (   0.1666667   0.0370370  -0.5000000), wk =   0.0109739
        k(   30) = (   0.1666667   0.1111111   0.1666667), wk =   0.0109739
        k(   31) = (   0.1666667   0.1111111   0.2777778), wk =   0.0219479
        k(   32) = (   0.1666667   0.1111111   0.3888889), wk =   0.0219479
        k(   33) = (   0.1666667   0.1111111  -0.5000000), wk =   0.0109739
        k(   34) = (   0.1666667   0.1851852   0.1666667), wk =   0.0109739
        k(   35) = (   0.1666667   0.1851852   0.2777778), wk =   0.0219479
        k(   36) = (   0.1666667   0.1851852   0.3888889), wk =   0.0219479
        k(   37) = (   0.1666667   0.1851852  -0.5000000), wk =   0.0109739
        k(   38) = (   0.1666667   0.2592593   0.1666667), wk =   0.0109739
        k(   39) = (   0.1666667   0.2592593   0.2777778), wk =   0.0219479
        k(   40) = (   0.1666667   0.2592593   0.3888889), wk =   0.0219479
        k(   41) = (   0.1666667   0.2592593  -0.5000000), wk =   0.0109739
        k(   42) = (   0.1666667  -0.3333333   0.1666667), wk =   0.0054870
        k(   43) = (   0.1666667  -0.3333333   0.2777778), wk =   0.0109739
        k(   44) = (   0.1666667  -0.3333333   0.3888889), wk =   0.0109739
        k(   45) = (   0.1666667  -0.3333333  -0.5000000), wk =   0.0054870
        k(   46) = (   0.2777778   0.0370370   0.2777778), wk =   0.0109739
        k(   47) = (   0.2777778   0.0370370   0.3888889), wk =   0.0219479
        k(   48) = (   0.2777778   0.0370370  -0.5000000), wk =   0.0109739
        k(   49) = (   0.2777778   0.1111111   0.2777778), wk =   0.0109739
        k(   50) = (   0.2777778   0.1111111   0.3888889), wk =   0.0219479
        k(   51) = (   0.2777778   0.1111111  -0.5000000), wk =   0.0109739
        k(   52) = (   0.2777778   0.1851852   0.2777778), wk =   0.0109739
        k(   53) = (   0.2777778   0.1851852   0.3888889), wk =   0.0219479
        k(   54) = (   0.2777778   0.1851852  -0.5000000), wk =   0.0109739
        k(   55) = (   0.2777778   0.2592593   0.2777778), wk =   0.0109739
        k(   56) = (   0.2777778   0.2592593   0.3888889), wk =   0.0219479
        k(   57) = (   0.2777778   0.2592593  -0.5000000), wk =   0.0109739
        k(   58) = (   0.2777778  -0.3333333   0.2777778), wk =   0.0054870
        k(   59) = (   0.2777778  -0.3333333   0.3888889), wk =   0.0109739
        k(   60) = (   0.2777778  -0.3333333  -0.5000000), wk =   0.0054870
        k(   61) = (   0.3888889   0.0370370   0.3888889), wk =   0.0109739
        k(   62) = (   0.3888889   0.0370370  -0.5000000), wk =   0.0109739
        k(   63) = (   0.3888889   0.1111111   0.3888889), wk =   0.0109739
        k(   64) = (   0.3888889   0.1111111  -0.5000000), wk =   0.0109739
        k(   65) = (   0.3888889   0.1851852   0.3888889), wk =   0.0109739
        k(   66) = (   0.3888889   0.1851852  -0.5000000), wk =   0.0109739
        k(   67) = (   0.3888889   0.2592593   0.3888889), wk =   0.0109739
        k(   68) = (   0.3888889   0.2592593  -0.5000000), wk =   0.0109739
        k(   69) = (   0.3888889  -0.3333333   0.3888889), wk =   0.0054870
        k(   70) = (   0.3888889  -0.3333333  -0.5000000), wk =   0.0054870
        k(   71) = (  -0.5000000   0.0370370  -0.5000000), wk =   0.0027435
        k(   72) = (  -0.5000000   0.1111111  -0.5000000), wk =   0.0027435
        k(   73) = (  -0.5000000   0.1851852  -0.5000000), wk =   0.0027435
        k(   74) = (  -0.5000000   0.2592593  -0.5000000), wk =   0.0027435
        k(   75) = (  -0.5000000  -0.3333333  -0.5000000), wk =   0.0013717

     Dense  grid:   488985 G-vectors     FFT dimensions: (  90, 135,  90)

     Smooth grid:   262593 G-vectors     FFT dimensions: (  72, 108,  72)

     Estimated max dynamical RAM per process >     380.82 MB

     Estimated total dynamical RAM >      26.78 GB

     Check: negative core charge=   -0.000005
     Generating pointlists ...
     new r_m :   0.1458 (alat units)  1.8869 (a.u.) for type    1
     new r_m :   0.1458 (alat units)  1.8869 (a.u.) for type    2

     Initial potential from superposition of free atoms

     starting charge  511.98600, renormalised to  512.00000
     Starting wfcs are  320 randomized atomic wfcs +    5 random wfcs
     Checking if some PAW data can be deallocated... 

     total cpu time spent up to now is       43.9 secs

     Self-consistent Calculation

     iteration #  1     ecut=    71.00 Ry     beta= 0.10
     Davidson diagonalization with overlap
     ethr =  1.00E-02,  avg # of iterations =  3.0

     total cpu time spent up to now is      197.4 secs

     total energy              =  -10536.25978156 Ry
     estimated scf accuracy    <      31.93239400 Ry

     total magnetization       =     0.01 Bohr mag/cell
     absolute magnetization    =    45.30 Bohr mag/cell

     iteration #  2     ecut=    71.00 Ry     beta= 0.10
     Davidson diagonalization with overlap
     ethr =  6.24E-03,  avg # of iterations =  1.0

     total cpu time spent up to now is      307.5 secs

     total energy              =  -10535.89369479 Ry
     estimated scf accuracy    <       9.75400384 Ry

     total magnetization       =     0.04 Bohr mag/cell
     absolute magnetization    =    47.17 Bohr mag/cell

     iteration #  3     ecut=    71.00 Ry     beta= 0.10
     Davidson diagonalization with overlap
     ethr =  1.91E-03,  avg # of iterations =  1.0

     negative rho (up, down):  1.600E-03 2.977E-03

     total cpu time spent up to now is      418.3 secs

     total energy              =  -10534.59825231 Ry
     estimated scf accuracy    <       5.80132240 Ry

     total magnetization       =     0.07 Bohr mag/cell
     absolute magnetization    =    47.44 Bohr mag/cell

     iteration #  4     ecut=    71.00 Ry     beta= 0.10
     Davidson diagonalization with overlap
     ethr =  1.13E-03,  avg # of iterations =  2.1

     negative rho (up, down):  2.656E-03 3.671E-03

     total cpu time spent up to now is      549.0 secs

     total energy              =  -10534.93009621 Ry
     estimated scf accuracy    <       1.70049708 Ry

     total magnetization       =     0.07 Bohr mag/cell
     absolute magnetization    =    48.92 Bohr mag/cell

     iteration #  5     ecut=    71.00 Ry     beta= 0.10
     Davidson diagonalization with overlap
     ethr =  3.32E-04,  avg # of iterations =  5.7

     negative rho (up, down):  3.101E-04 1.870E-03

     total cpu time spent up to now is      695.5 secs

     total energy              =  -10535.01864904 Ry
     estimated scf accuracy    <       0.66832265 Ry

     total magnetization       =     0.12 Bohr mag/cell
     absolute magnetization    =    50.16 Bohr mag/cell

     iteration #  6     ecut=    71.00 Ry     beta= 0.10
     Davidson diagonalization with overlap
     ethr =  1.31E-04,  avg # of iterations =  3.8

     negative rho (up, down):  0.000E+00 2.424E-04

     total cpu time spent up to now is      825.6 secs

     total energy              =  -10534.96396086 Ry
     estimated scf accuracy    <       0.35155267 Ry

     total magnetization       =     0.10 Bohr mag/cell
     absolute magnetization    =    50.62 Bohr mag/cell

     iteration #  7     ecut=    71.00 Ry     beta= 0.10
     Davidson diagonalization with overlap
     ethr =  6.87E-05,  avg # of iterations =  5.0

     negative rho (up, down):  0.000E+00 2.132E-04

     total cpu time spent up to now is      961.5 secs

     total energy              =  -10534.97370865 Ry
     estimated scf accuracy    <       0.06798297 Ry

     total magnetization       =     0.10 Bohr mag/cell
     absolute magnetization    =    51.57 Bohr mag/cell

     iteration #  8     ecut=    71.00 Ry     beta= 0.10
     Davidson diagonalization with overlap
     ethr =  1.33E-05,  avg # of iterations =  6.4

     negative rho (up, down):  0.000E+00 2.919E-04

     total cpu time spent up to now is     1101.5 secs

     total energy              =  -10534.97459358 Ry
     estimated scf accuracy    <       0.04161319 Ry

     total magnetization       =     0.06 Bohr mag/cell
     absolute magnetization    =    51.91 Bohr mag/cell

     iteration #  9     ecut=    71.00 Ry     beta= 0.10
     Davidson diagonalization with overlap
     ethr =  8.13E-06,  avg # of iterations =  3.4

     negative rho (up, down):  0.000E+00 3.784E-04

     total cpu time spent up to now is     1231.7 secs

     total energy              =  -10534.97665771 Ry
     estimated scf accuracy    <       0.02224663 Ry

     total magnetization       =     0.01 Bohr mag/cell
     absolute magnetization    =    52.55 Bohr mag/cell

     iteration # 10     ecut=    71.00 Ry     beta= 0.10
     Davidson diagonalization with overlap
     ethr =  4.35E-06,  avg # of iterations =  2.8

     negative rho (up, down):  0.000E+00 3.677E-04

     total cpu time spent up to now is     1365.7 secs

     total energy              =  -10534.98006926 Ry
     estimated scf accuracy    <       0.01148965 Ry

     total magnetization       =     0.03 Bohr mag/cell
     absolute magnetization    =    52.96 Bohr mag/cell

     iteration # 11     ecut=    71.00 Ry     beta= 0.10
     Davidson diagonalization with overlap
     ethr =  2.24E-06,  avg # of iterations =  2.2

     negative rho (up, down):  0.000E+00 4.398E-04

     total cpu time spent up to now is     1486.1 secs

     total energy              =  -10534.98144573 Ry
     estimated scf accuracy    <       0.00969935 Ry

     total magnetization       =     0.05 Bohr mag/cell
     absolute magnetization    =    53.03 Bohr mag/cell

     iteration # 12     ecut=    71.00 Ry     beta= 0.10
     Davidson diagonalization with overlap
     ethr =  1.89E-06,  avg # of iterations =  3.2

     negative rho (up, down):  0.000E+00 4.386E-04

     total cpu time spent up to now is     1619.8 secs

     total energy              =  -10534.98327977 Ry
     estimated scf accuracy    <       0.00205368 Ry

     total magnetization       =     0.03 Bohr mag/cell
     absolute magnetization    =    53.47 Bohr mag/cell

     iteration # 13     ecut=    71.00 Ry     beta= 0.10
     Davidson diagonalization with overlap
     ethr =  4.01E-07,  avg # of iterations =  2.0

     negative rho (up, down):  0.000E+00 4.487E-04

     total cpu time spent up to now is     1745.2 secs

     total energy              =  -10534.98362209 Ry
     estimated scf accuracy    <       0.00044573 Ry

     total magnetization       =     0.02 Bohr mag/cell
     absolute magnetization    =    53.45 Bohr mag/cell

     iteration # 14     ecut=    71.00 Ry     beta= 0.10
     Davidson diagonalization with overlap
     ethr =  8.71E-08,  avg # of iterations =  2.2

     negative rho (up, down):  0.000E+00 4.562E-04

     total cpu time spent up to now is     1887.5 secs

     total energy              =  -10534.98373706 Ry
     estimated scf accuracy    <       0.00033224 Ry

     total magnetization       =     0.01 Bohr mag/cell
     absolute magnetization    =    53.52 Bohr mag/cell

     iteration # 15     ecut=    71.00 Ry     beta= 0.10
     Davidson diagonalization with overlap
     ethr =  6.49E-08,  avg # of iterations =  1.0

     negative rho (up, down):  0.000E+00 4.735E-04

     total cpu time spent up to now is     1998.9 secs

     total energy              =  -10534.98384300 Ry
     estimated scf accuracy    <       0.00018180 Ry

     total magnetization       =     0.01 Bohr mag/cell
     absolute magnetization    =    53.49 Bohr mag/cell

     iteration # 16     ecut=    71.00 Ry     beta= 0.10
     Davidson diagonalization with overlap
     ethr =  3.55E-08,  avg # of iterations =  3.3

     negative rho (up, down):  0.000E+00 4.749E-04

     total cpu time spent up to now is     2150.5 secs

     total energy              =  -10534.98396728 Ry
     estimated scf accuracy    <       0.00004121 Ry

     total magnetization       =     0.01 Bohr mag/cell
     absolute magnetization    =    53.45 Bohr mag/cell

     iteration # 17     ecut=    71.00 Ry     beta= 0.10
     Davidson diagonalization with overlap
     ethr =  8.05E-09,  avg # of iterations =  2.4

     negative rho (up, down):  0.000E+00 4.736E-04

     total cpu time spent up to now is     2279.3 secs

     total energy              =  -10534.98399112 Ry
     estimated scf accuracy    <       0.00003819 Ry

     total magnetization       =     0.01 Bohr mag/cell
     absolute magnetization    =    53.44 Bohr mag/cell

     iteration # 18     ecut=    71.00 Ry     beta= 0.10
     Davidson diagonalization with overlap
     ethr =  7.46E-09,  avg # of iterations =  1.0

     negative rho (up, down):  0.000E+00 4.826E-04

     total cpu time spent up to now is     2390.4 secs

     total energy              =  -10534.98399867 Ry
     estimated scf accuracy    <       0.00002617 Ry

     total magnetization       =     0.01 Bohr mag/cell
     absolute magnetization    =    53.43 Bohr mag/cell

     iteration # 19     ecut=    71.00 Ry     beta= 0.10
     Davidson diagonalization with overlap
     ethr =  5.11E-09,  avg # of iterations =  3.2

     negative rho (up, down):  0.000E+00 4.816E-04

     total cpu time spent up to now is     2549.8 secs

     total energy              =  -10534.98404674 Ry
     estimated scf accuracy    <       0.00002390 Ry

     total magnetization       =     0.00 Bohr mag/cell
     absolute magnetization    =    53.35 Bohr mag/cell

     iteration # 20     ecut=    71.00 Ry     beta= 0.10
     Davidson diagonalization with overlap
     ethr =  4.67E-09,  avg # of iterations =  2.0

     negative rho (up, down):  0.000E+00 4.809E-04

     total cpu time spent up to now is     2679.4 secs

     total energy              =  -10534.98405913 Ry
     estimated scf accuracy    <       0.00000862 Ry

     total magnetization       =     0.00 Bohr mag/cell
     absolute magnetization    =    53.33 Bohr mag/cell

     iteration # 21     ecut=    71.00 Ry     beta= 0.10
     Davidson diagonalization with overlap
     ethr =  1.68E-09,  avg # of iterations =  2.0

     negative rho (up, down):  0.000E+00 4.830E-04

     total cpu time spent up to now is     2810.8 secs

     total energy              =  -10534.98406776 Ry
     estimated scf accuracy    <       0.00000699 Ry

     total magnetization       =     0.00 Bohr mag/cell
     absolute magnetization    =    53.31 Bohr mag/cell

     iteration # 22     ecut=    71.00 Ry     beta= 0.10
     Davidson diagonalization with overlap
     ethr =  1.37E-09,  avg # of iterations =  2.3

     negative rho (up, down):  0.000E+00 4.831E-04

     total cpu time spent up to now is     2954.7 secs

     total energy              =  -10534.98407432 Ry
     estimated scf accuracy    <       0.00000553 Ry

     total magnetization       =     0.00 Bohr mag/cell
     absolute magnetization    =    53.28 Bohr mag/cell

     iteration # 23     ecut=    71.00 Ry     beta= 0.10
     Davidson diagonalization with overlap
     ethr =  1.08E-09,  avg # of iterations =  3.6

     negative rho (up, down):  0.000E+00 4.823E-04

     total cpu time spent up to now is     3109.6 secs

     total energy              =  -10534.98408650 Ry
     estimated scf accuracy    <       0.00000172 Ry

     total magnetization       =     0.00 Bohr mag/cell
     absolute magnetization    =    53.22 Bohr mag/cell

     iteration # 24     ecut=    71.00 Ry     beta= 0.10
     Davidson diagonalization with overlap
     ethr =  3.37E-10,  avg # of iterations =  2.8

     negative rho (up, down):  0.000E+00 4.822E-04

     total cpu time spent up to now is     3257.4 secs

     total energy              =  -10534.98409059 Ry
     estimated scf accuracy    <       0.00000084 Ry

     total magnetization       =     0.00 Bohr mag/cell
     absolute magnetization    =    53.20 Bohr mag/cell

     iteration # 25     ecut=    71.00 Ry     beta= 0.10
     Davidson diagonalization with overlap
     ethr =  1.64E-10,  avg # of iterations =  1.2

     negative rho (up, down):  0.000E+00 4.818E-04

     total cpu time spent up to now is     3368.8 secs

     total energy              =  -10534.98409238 Ry
     estimated scf accuracy    <       0.00000071 Ry

     total magnetization       =     0.00 Bohr mag/cell
     absolute magnetization    =    53.20 Bohr mag/cell

     iteration # 26     ecut=    71.00 Ry     beta= 0.10
     Davidson diagonalization with overlap
     ethr =  1.39E-10,  avg # of iterations =  3.1

     negative rho (up, down):  0.000E+00 4.818E-04

     total cpu time spent up to now is     3521.1 secs

     total energy              =  -10534.98409534 Ry
     estimated scf accuracy    <       0.00000033 Ry

     total magnetization       =    -0.00 Bohr mag/cell
     absolute magnetization    =    53.18 Bohr mag/cell

     iteration # 27     ecut=    71.00 Ry     beta= 0.10
     Davidson diagonalization with overlap
     ethr =  6.50E-11,  avg # of iterations =  2.0

     negative rho (up, down):  0.000E+00 4.820E-04

     total cpu time spent up to now is     3655.4 secs

     total energy              =  -10534.98409708 Ry
     estimated scf accuracy    <       0.00000011 Ry

     total magnetization       =    -0.00 Bohr mag/cell
     absolute magnetization    =    53.19 Bohr mag/cell

     iteration # 28     ecut=    71.00 Ry     beta= 0.10
     Davidson diagonalization with overlap
     ethr =  2.23E-11,  avg # of iterations =  2.1

     negative rho (up, down):  0.000E+00 4.820E-04
 
     Magnetic moment per site:
     atom:    1    charge:   14.4698    magn:    1.0045    constr:    0.0000
     atom:    2    charge:   14.3128    magn:   -2.1684    constr:    0.0000
     atom:    3    charge:   14.4691    magn:    1.0218    constr:    0.0000
     atom:    4    charge:   14.3128    magn:   -2.1684    constr:    0.0000
     atom:    5    charge:   14.4699    magn:    1.0029    constr:    0.0000
     atom:    6    charge:   14.3128    magn:   -2.1685    constr:    0.0000
     atom:    7    charge:   14.4691    magn:    1.0218    constr:    0.0000
     atom:    8    charge:   14.3128    magn:   -2.1684    constr:    0.0000
     atom:    9    charge:   14.3131    magn:    2.1685    constr:    0.0000
     atom:   10    charge:   14.4693    magn:   -1.0111    constr:    0.0000
     atom:   11    charge:   14.3126    magn:    2.1687    constr:    0.0000
     atom:   12    charge:   14.4693    magn:   -1.0111    constr:    0.0000
     atom:   13    charge:   14.3131    magn:    2.1683    constr:    0.0000
     atom:   14    charge:   14.4692    magn:   -1.0141    constr:    0.0000
     atom:   15    charge:   14.3126    magn:    2.1687    constr:    0.0000
     atom:   16    charge:   14.4693    magn:   -1.0111    constr:    0.0000
     atom:   17    charge:   14.4699    magn:    1.0029    constr:    0.0000
     atom:   18    charge:   14.3128    magn:   -2.1684    constr:    0.0000
     atom:   19    charge:   14.4691    magn:    1.0218    constr:    0.0000
     atom:   20    charge:   14.3128    magn:   -2.1685    constr:    0.0000
     atom:   21    charge:   14.4699    magn:    1.0036    constr:    0.0000
     atom:   22    charge:   14.3128    magn:   -2.1685    constr:    0.0000
     atom:   23    charge:   14.4691    magn:    1.0218    constr:    0.0000
     atom:   24    charge:   14.3128    magn:   -2.1685    constr:    0.0000
     atom:   25    charge:   14.3131    magn:    2.1683    constr:    0.0000
     atom:   26    charge:   14.4693    magn:   -1.0111    constr:    0.0000
     atom:   27    charge:   14.3126    magn:    2.1687    constr:    0.0000
     atom:   28    charge:   14.4692    magn:   -1.0141    constr:    0.0000
     atom:   29    charge:   14.3131    magn:    2.1678    constr:    0.0000
     atom:   30    charge:   14.4692    magn:   -1.0141    constr:    0.0000
     atom:   31    charge:   14.3126    magn:    2.1687    constr:    0.0000
     atom:   32    charge:   14.4692    magn:   -1.0141    constr:    0.0000

     total cpu time spent up to now is     3796.5 secs

     End of self-consistent calculation

     Number of k-points >= 100: set verbosity='high' to print the bands.

     the Fermi energy is    12.9179 ev

!    total energy              =  -10534.98410409 Ry

     total all-electron energy =    -81456.473162 Ry
     estimated scf accuracy    <       0.00000009 Ry
     smearing contrib. (-TS)   =       0.03870363 Ry
     internal energy E=F+TS    =  -10535.02280772 Ry

     The total energy is F=E-TS. E is the sum of the following terms:
     one-electron contribution =  -10848.53162093 Ry
     hartree contribution      =    5641.20820784 Ry
     xc contribution           =    -886.96547485 Ry
     ewald contribution        =   -1791.34864938 Ry
     one-center paw contrib.   =   -2649.38527040 Ry

     total magnetization       =    -0.00 Bohr mag/cell
     absolute magnetization    =    53.18 Bohr mag/cell

     convergence has been achieved in  28 iterations

     negative rho (up, down):  0.000E+00 4.820E-04

     Forces acting on atoms (cartesian axes, Ry/au):

     atom    1 type  1   force =     0.00000000    0.00102091    0.00000000
     atom    2 type  2   force =     0.00000986    0.02610093    0.00000000
     atom    3 type  1   force =    -0.00001558    0.00090568   -0.00001558
     atom    4 type  2   force =    -0.00000000    0.02610093    0.00000986
     atom    5 type  1   force =     0.00000000    0.00104813    0.00000000
     atom    6 type  2   force =    -0.00000316    0.02609577    0.00000000
     atom    7 type  1   force =    -0.00001558    0.00090568    0.00001558
     atom    8 type  2   force =     0.00000000    0.02610093   -0.00000986
     atom    9 type  1   force =     0.00000000   -0.02579423    0.00000000
     atom   10 type  2   force =     0.00002405   -0.00117577    0.00000000
     atom   11 type  1   force =    -0.00000832   -0.02599898   -0.00000832
     atom   12 type  2   force =     0.00000000   -0.00117577    0.00002405
     atom   13 type  1   force =     0.00000000   -0.02580339    0.00000000
     atom   14 type  2   force =     0.00001818   -0.00117009    0.00000000
     atom   15 type  1   force =    -0.00000832   -0.02599898    0.00000832
     atom   16 type  2   force =     0.00000000   -0.00117577   -0.00002405
     atom   17 type  1   force =     0.00000000    0.00104813    0.00000000
     atom   18 type  2   force =    -0.00000986    0.02610093    0.00000000
     atom   19 type  1   force =     0.00001558    0.00090568   -0.00001558
     atom   20 type  2   force =     0.00000000    0.02609577   -0.00000316
     atom   21 type  1   force =     0.00000000    0.00107099    0.00000000
     atom   22 type  2   force =     0.00000316    0.02609577    0.00000000
     atom   23 type  1   force =     0.00001558    0.00090568    0.00001558
     atom   24 type  2   force =     0.00000000    0.02609577    0.00000316
     atom   25 type  1   force =     0.00000000   -0.02580339    0.00000000
     atom   26 type  2   force =    -0.00002405   -0.00117577    0.00000000
     atom   27 type  1   force =     0.00000832   -0.02599898   -0.00000832
     atom   28 type  2   force =     0.00000000   -0.00117009    0.00001818
     atom   29 type  1   force =     0.00000000   -0.02581734    0.00000000
     atom   30 type  2   force =    -0.00001818   -0.00117009    0.00000000
     atom   31 type  1   force =     0.00000832   -0.02599898    0.00000832
     atom   32 type  2   force =     0.00000000   -0.00117009   -0.00001818

     Total force =     0.104091     Total SCF correction =     0.000655


     Computing stress (Cartesian axis) and pressure


     negative rho (up, down):  0.000E+00 4.820E-04
          total   stress  (Ry/bohr**3)                   (kbar)     P=       21.96
   0.00007592   0.00000000   0.00000000           11.17        0.00        0.00
   0.00000000   0.00029607   0.00000000            0.00       43.55        0.00
   0.00000000   0.00000000   0.00007592            0.00        0.00       11.17


     Writing output data file /scratch/rFSwOCeUrTTDfOen.save/
 
     init_run     :     42.48s CPU     43.39s WALL (       1 calls)
     electrons    :   3712.10s CPU   3752.61s WALL (       1 calls)
     forces       :     23.34s CPU     23.54s WALL (       1 calls)
     stress       :    159.09s CPU    160.43s WALL (       1 calls)

     Called by init_run:
     wfcinit      :     41.83s CPU     42.67s WALL (       1 calls)
     potinit      :      0.28s CPU      0.30s WALL (       1 calls)
     hinit0       :      0.17s CPU      0.18s WALL (       1 calls)

     Called by electrons:
     c_bands      :   3252.26s CPU   3285.56s WALL (      28 calls)
     sum_band     :    451.47s CPU    457.82s WALL (      28 calls)
     v_of_rho     :      1.04s CPU      1.11s WALL (      29 calls)
     newd         :      1.52s CPU      1.93s WALL (      29 calls)
     PAW_pot      :      5.00s CPU      5.28s WALL (      29 calls)
     mix_rho      :      0.88s CPU      0.97s WALL (      28 calls)

     Called by c_bands:
     init_us_2    :     18.52s CPU     18.72s WALL (    8850 calls)
     cegterg      :   3181.23s CPU   3213.21s WALL (    4200 calls)

     Called by *egterg:
     cdiaghg      :    367.18s CPU    368.83s WALL (   15547 calls)
     h_psi        :   1754.32s CPU   1778.12s WALL (   15697 calls)
     s_psi        :    147.06s CPU    148.02s WALL (   15697 calls)
     g_psi        :      3.85s CPU      3.91s WALL (   11347 calls)

     Called by h_psi:
     h_psi:calbec :    262.35s CPU    263.96s WALL (   15697 calls)
     vloc_psi     :   1342.20s CPU   1362.77s WALL (   15697 calls)
     add_vuspsi   :    139.66s CPU    141.15s WALL (   15697 calls)

     General routines
     calbec       :    409.15s CPU    411.69s WALL (   20647 calls)
     fft          :      0.91s CPU      0.95s WALL (     763 calls)
     ffts         :      0.47s CPU      0.48s WALL (    1077 calls)
     fftw         :   1606.70s CPU   1631.14s WALL ( 7472562 calls)
     interpolate  :      0.10s CPU      0.10s WALL (      58 calls)
 
     Parallel routines
     fft_scatt_xy :     79.56s CPU     80.77s WALL ( 7474402 calls)
     fft_scatt_yz :   1372.82s CPU   1393.97s WALL ( 7474402 calls)
 
     PWSCF        :      1h 6m CPU      1h 6m WALL

 
   This run was terminated on:  10:18:48  16Jan2022            

=------------------------------------------------------------------------------=
   JOB DONE.
=------------------------------------------------------------------------------=
