
     Program PWSCF v.6.7MaX starts on 16Jan2022 at  9:32:50 

     This program is part of the open-source Quantum ESPRESSO suite
     for quantum simulation of materials; please cite
         "P. Giannozzi et al., J. Phys.:Condens. Matter 21 395502 (2009);
         "P. Giannozzi et al., J. Phys.:Condens. Matter 29 465901 (2017);
          URL http://www.quantum-espresso.org", 
     in publications or presentations arising from this work. More details at
     http://www.quantum-espresso.org/quote

     Parallel version (MPI & OpenMP), running on      72 processor cores
     Number of MPI processes:                72
     Threads/MPI process:                     1

     MPI processes distributed on     1 nodes
     R & G space division:  proc/nbgrp/npool/nimage =      72
     Reading input from scf_3.in
Warning: card &CELL ignored
Warning: card CELL_DYNAMICS = 'BFGS', ignored
Warning: card CELL_FACTOR = 2.0, ignored
Warning: card PRESS = 0.0, ignored
Warning: card / ignored

     Current dimensions of program PWSCF are:
     Max number of different atomic species (ntypx) = 10
     Max number of k-points (npk) =  40000
     Max angular momentum in pseudopotentials (lmaxx) =  3
     file Fe.pbe-spn-kjpaw_psl.1.0.0.UPF: wavefunction(s)  3P 3D renormalized
     file Fe.pbe-spn-kjpaw_psl.1.0.0.UPF: wavefunction(s)  3P 3D renormalized

     Subspace diagonalization in iterative solution of the eigenvalue problem:
     one sub-group per band group will be used
     ELPA distributed-memory algorithm (size of sub-group:  8*  8 procs)

     Found symmetry operation: I + (  0.2500  0.0000  0.2500)
     This is a supercell, fractional translations are disabled
     Message from routine setup:
     using ibrav=0 with symmetry is DISCOURAGED, use correct ibrav instead
 
     Parallelization info
     --------------------
     sticks:   dense  smooth     PW     G-vecs:    dense   smooth      PW
     Min          87      57     15                 4983     2669     381
     Max          88      58     17                 4990     2678     388
     Sum        6301    4157   1137               358989   192501   27641
 


     bravais-lattice index     =            0
     lattice parameter (alat)  =      12.9382  a.u.
     unit-cell volume          =    2382.3922 (a.u.)^3
     number of atoms/cell      =           32
     number of atomic types    =            2
     number of electrons       =       512.00
     number of Kohn-Sham states=          325
     kinetic-energy cutoff     =      71.0000  Ry
     charge density cutoff     =     430.0000  Ry
     scf convergence threshold =      1.0E-07
     mixing beta               =       0.1000
     number of iterations used =           10  local-TF  mixing
     Exchange-correlation= SLA  PW   PBX  PBC
                           (   1   4   3   4   0   0   0)

     celldm(1)=  12.938190  celldm(2)=   0.000000  celldm(3)=   0.000000
     celldm(4)=   0.000000  celldm(5)=   0.000000  celldm(6)=   0.000000

     crystal axes: (cart. coord. in units of alat)
               a(1) = (   1.000000   0.000000   0.000000 )  
               a(2) = (   0.000000   1.100000   0.000000 )  
               a(3) = (   0.000000   0.000000   1.000000 )  

     reciprocal axes: (cart. coord. in units 2 pi/alat)
               b(1) = (  1.000000  0.000000  0.000000 )  
               b(2) = (  0.000000  0.909091  0.000000 )  
               b(3) = (  0.000000  0.000000  1.000000 )  


     PseudoPot. # 1 for Fe read from file:
     /rds/homes/b/bxp912/pp/Fe.pbe-spn-kjpaw_psl.1.0.0.UPF
     MD5 check sum: 42f43b795421b414b0dc916aa790dbcb
     Pseudo is Projector augmented-wave + core cor, Zval = 16.0
     Generated using &quot;atomic&quot; code by A. Dal Corso  v.6.3
     Shape of augmentation charge: PSQ
     Using radial grid of 1191 points,  6 beta functions with: 
                l(1) =   0
                l(2) =   0
                l(3) =   1
                l(4) =   1
                l(5) =   2
                l(6) =   2
     Q(r) pseudized with 0 coefficients 


     PseudoPot. # 2 for Fe read from file:
     /rds/homes/b/bxp912/pp/Fe.pbe-spn-kjpaw_psl.1.0.0.UPF
     MD5 check sum: 42f43b795421b414b0dc916aa790dbcb
     Pseudo is Projector augmented-wave + core cor, Zval = 16.0
     Generated using &quot;atomic&quot; code by A. Dal Corso  v.6.3
     Shape of augmentation charge: PSQ
     Using radial grid of 1191 points,  6 beta functions with: 
                l(1) =   0
                l(2) =   0
                l(3) =   1
                l(4) =   1
                l(5) =   2
                l(6) =   2
     Q(r) pseudized with 0 coefficients 


     atomic species   valence    mass     pseudopotential
        Fe1           16.00    55.84500     Fe( 1.00)
        Fe2           16.00    55.84500     Fe( 1.00)

     Starting magnetic structure 
     atomic species   magnetization
        Fe1          0.100
        Fe2         -0.100

      8 Sym. Ops. (no inversion) found



   Cartesian axes

     site n.     atom                  positions (alat units)
         1           Fe1 tau(   1) = (   0.0000000   0.0000000   0.0000000  )
         2           Fe2 tau(   2) = (   0.2500000   0.2500000   0.0000000  )
         3           Fe1 tau(   3) = (   0.2500000   0.0000000   0.2500000  )
         4           Fe2 tau(   4) = (   0.0000000   0.2500000   0.2500000  )
         5           Fe1 tau(   5) = (   0.0000000   0.0000000   0.5000000  )
         6           Fe2 tau(   6) = (   0.2500000   0.2500000   0.5000000  )
         7           Fe1 tau(   7) = (   0.2500000   0.0000000   0.7500000  )
         8           Fe2 tau(   8) = (   0.0000000   0.2500000   0.7500000  )
         9           Fe1 tau(   9) = (   0.0000000   0.6000000   0.0000000  )
        10           Fe2 tau(  10) = (   0.2500000   0.8500000   0.0000000  )
        11           Fe1 tau(  11) = (   0.2500000   0.6000000   0.2500000  )
        12           Fe2 tau(  12) = (   0.0000000   0.8500000   0.2500000  )
        13           Fe1 tau(  13) = (   0.0000000   0.6000000   0.5000000  )
        14           Fe2 tau(  14) = (   0.2500000   0.8500000   0.5000000  )
        15           Fe1 tau(  15) = (   0.2500000   0.6000000   0.7500000  )
        16           Fe2 tau(  16) = (   0.0000000   0.8500000   0.7500000  )
        17           Fe1 tau(  17) = (   0.5000000   0.0000000   0.0000000  )
        18           Fe2 tau(  18) = (   0.7500000   0.2500000   0.0000000  )
        19           Fe1 tau(  19) = (   0.7500000   0.0000000   0.2500000  )
        20           Fe2 tau(  20) = (   0.5000000   0.2500000   0.2500000  )
        21           Fe1 tau(  21) = (   0.5000000   0.0000000   0.5000000  )
        22           Fe2 tau(  22) = (   0.7500000   0.2500000   0.5000000  )
        23           Fe1 tau(  23) = (   0.7500000   0.0000000   0.7500000  )
        24           Fe2 tau(  24) = (   0.5000000   0.2500000   0.7500000  )
        25           Fe1 tau(  25) = (   0.5000000   0.6000000   0.0000000  )
        26           Fe2 tau(  26) = (   0.7500000   0.8500000   0.0000000  )
        27           Fe1 tau(  27) = (   0.7500000   0.6000000   0.2500000  )
        28           Fe2 tau(  28) = (   0.5000000   0.8500000   0.2500000  )
        29           Fe1 tau(  29) = (   0.5000000   0.6000000   0.5000000  )
        30           Fe2 tau(  30) = (   0.7500000   0.8500000   0.5000000  )
        31           Fe1 tau(  31) = (   0.7500000   0.6000000   0.7500000  )
        32           Fe2 tau(  32) = (   0.5000000   0.8500000   0.7500000  )

     number of k points=    75  Marzari-Vanderbilt smearing, width (Ry)=  0.0400
                       cart. coord. in units 2pi/alat
        k(    1) = (   0.0555556   0.0505051   0.0555556), wk =   0.0109739
        k(    2) = (   0.0555556   0.0505051   0.1666667), wk =   0.0219479
        k(    3) = (   0.0555556   0.0505051   0.2777778), wk =   0.0219479
        k(    4) = (   0.0555556   0.0505051   0.3888889), wk =   0.0219479
        k(    5) = (   0.0555556   0.0505051  -0.5000000), wk =   0.0109739
        k(    6) = (   0.0555556   0.1515152   0.0555556), wk =   0.0109739
        k(    7) = (   0.0555556   0.1515152   0.1666667), wk =   0.0219479
        k(    8) = (   0.0555556   0.1515152   0.2777778), wk =   0.0219479
        k(    9) = (   0.0555556   0.1515152   0.3888889), wk =   0.0219479
        k(   10) = (   0.0555556   0.1515152  -0.5000000), wk =   0.0109739
        k(   11) = (   0.0555556   0.2525253   0.0555556), wk =   0.0109739
        k(   12) = (   0.0555556   0.2525253   0.1666667), wk =   0.0219479
        k(   13) = (   0.0555556   0.2525253   0.2777778), wk =   0.0219479
        k(   14) = (   0.0555556   0.2525253   0.3888889), wk =   0.0219479
        k(   15) = (   0.0555556   0.2525253  -0.5000000), wk =   0.0109739
        k(   16) = (   0.0555556   0.3535354   0.0555556), wk =   0.0109739
        k(   17) = (   0.0555556   0.3535354   0.1666667), wk =   0.0219479
        k(   18) = (   0.0555556   0.3535354   0.2777778), wk =   0.0219479
        k(   19) = (   0.0555556   0.3535354   0.3888889), wk =   0.0219479
        k(   20) = (   0.0555556   0.3535354  -0.5000000), wk =   0.0109739
        k(   21) = (   0.0555556  -0.4545455   0.0555556), wk =   0.0054870
        k(   22) = (   0.0555556  -0.4545455   0.1666667), wk =   0.0109739
        k(   23) = (   0.0555556  -0.4545455   0.2777778), wk =   0.0109739
        k(   24) = (   0.0555556  -0.4545455   0.3888889), wk =   0.0109739
        k(   25) = (   0.0555556  -0.4545455  -0.5000000), wk =   0.0054870
        k(   26) = (   0.1666667   0.0505051   0.1666667), wk =   0.0109739
        k(   27) = (   0.1666667   0.0505051   0.2777778), wk =   0.0219479
        k(   28) = (   0.1666667   0.0505051   0.3888889), wk =   0.0219479
        k(   29) = (   0.1666667   0.0505051  -0.5000000), wk =   0.0109739
        k(   30) = (   0.1666667   0.1515152   0.1666667), wk =   0.0109739
        k(   31) = (   0.1666667   0.1515152   0.2777778), wk =   0.0219479
        k(   32) = (   0.1666667   0.1515152   0.3888889), wk =   0.0219479
        k(   33) = (   0.1666667   0.1515152  -0.5000000), wk =   0.0109739
        k(   34) = (   0.1666667   0.2525253   0.1666667), wk =   0.0109739
        k(   35) = (   0.1666667   0.2525253   0.2777778), wk =   0.0219479
        k(   36) = (   0.1666667   0.2525253   0.3888889), wk =   0.0219479
        k(   37) = (   0.1666667   0.2525253  -0.5000000), wk =   0.0109739
        k(   38) = (   0.1666667   0.3535354   0.1666667), wk =   0.0109739
        k(   39) = (   0.1666667   0.3535354   0.2777778), wk =   0.0219479
        k(   40) = (   0.1666667   0.3535354   0.3888889), wk =   0.0219479
        k(   41) = (   0.1666667   0.3535354  -0.5000000), wk =   0.0109739
        k(   42) = (   0.1666667  -0.4545455   0.1666667), wk =   0.0054870
        k(   43) = (   0.1666667  -0.4545455   0.2777778), wk =   0.0109739
        k(   44) = (   0.1666667  -0.4545455   0.3888889), wk =   0.0109739
        k(   45) = (   0.1666667  -0.4545455  -0.5000000), wk =   0.0054870
        k(   46) = (   0.2777778   0.0505051   0.2777778), wk =   0.0109739
        k(   47) = (   0.2777778   0.0505051   0.3888889), wk =   0.0219479
        k(   48) = (   0.2777778   0.0505051  -0.5000000), wk =   0.0109739
        k(   49) = (   0.2777778   0.1515152   0.2777778), wk =   0.0109739
        k(   50) = (   0.2777778   0.1515152   0.3888889), wk =   0.0219479
        k(   51) = (   0.2777778   0.1515152  -0.5000000), wk =   0.0109739
        k(   52) = (   0.2777778   0.2525253   0.2777778), wk =   0.0109739
        k(   53) = (   0.2777778   0.2525253   0.3888889), wk =   0.0219479
        k(   54) = (   0.2777778   0.2525253  -0.5000000), wk =   0.0109739
        k(   55) = (   0.2777778   0.3535354   0.2777778), wk =   0.0109739
        k(   56) = (   0.2777778   0.3535354   0.3888889), wk =   0.0219479
        k(   57) = (   0.2777778   0.3535354  -0.5000000), wk =   0.0109739
        k(   58) = (   0.2777778  -0.4545455   0.2777778), wk =   0.0054870
        k(   59) = (   0.2777778  -0.4545455   0.3888889), wk =   0.0109739
        k(   60) = (   0.2777778  -0.4545455  -0.5000000), wk =   0.0054870
        k(   61) = (   0.3888889   0.0505051   0.3888889), wk =   0.0109739
        k(   62) = (   0.3888889   0.0505051  -0.5000000), wk =   0.0109739
        k(   63) = (   0.3888889   0.1515152   0.3888889), wk =   0.0109739
        k(   64) = (   0.3888889   0.1515152  -0.5000000), wk =   0.0109739
        k(   65) = (   0.3888889   0.2525253   0.3888889), wk =   0.0109739
        k(   66) = (   0.3888889   0.2525253  -0.5000000), wk =   0.0109739
        k(   67) = (   0.3888889   0.3535354   0.3888889), wk =   0.0109739
        k(   68) = (   0.3888889   0.3535354  -0.5000000), wk =   0.0109739
        k(   69) = (   0.3888889  -0.4545455   0.3888889), wk =   0.0054870
        k(   70) = (   0.3888889  -0.4545455  -0.5000000), wk =   0.0054870
        k(   71) = (  -0.5000000   0.0505051  -0.5000000), wk =   0.0027435
        k(   72) = (  -0.5000000   0.1515152  -0.5000000), wk =   0.0027435
        k(   73) = (  -0.5000000   0.2525253  -0.5000000), wk =   0.0027435
        k(   74) = (  -0.5000000   0.3535354  -0.5000000), wk =   0.0027435
        k(   75) = (  -0.5000000  -0.4545455  -0.5000000), wk =   0.0013717

     Dense  grid:   358989 G-vectors     FFT dimensions: (  90,  96,  90)

     Smooth grid:   192501 G-vectors     FFT dimensions: (  72,  80,  72)

     Estimated max dynamical RAM per process >     280.42 MB

     Estimated total dynamical RAM >      19.72 GB

     Check: negative core charge=   -0.000006
     Generating pointlists ...
     new r_m :   0.1458 (alat units)  1.8869 (a.u.) for type    1
     new r_m :   0.1458 (alat units)  1.8869 (a.u.) for type    2

     Initial potential from superposition of free atoms

     starting charge  511.98600, renormalised to  512.00000
     Starting wfcs are  320 randomized atomic wfcs +    5 random wfcs
     Checking if some PAW data can be deallocated... 

     total cpu time spent up to now is       39.5 secs

     Self-consistent Calculation

     iteration #  1     ecut=    71.00 Ry     beta= 0.10
     Davidson diagonalization with overlap
     ethr =  1.00E-02,  avg # of iterations =  3.0

     total cpu time spent up to now is      173.8 secs

     total energy              =  -10536.53678031 Ry
     estimated scf accuracy    <      12.33966878 Ry

     total magnetization       =     0.03 Bohr mag/cell
     absolute magnetization    =    44.46 Bohr mag/cell

     iteration #  2     ecut=    71.00 Ry     beta= 0.10
     Davidson diagonalization with overlap
     ethr =  2.41E-03,  avg # of iterations =  1.0

     total cpu time spent up to now is      269.8 secs

     total energy              =  -10536.22671744 Ry
     estimated scf accuracy    <       3.20090852 Ry

     total magnetization       =     0.05 Bohr mag/cell
     absolute magnetization    =    46.07 Bohr mag/cell

     iteration #  3     ecut=    71.00 Ry     beta= 0.10
     Davidson diagonalization with overlap
     ethr =  6.25E-04,  avg # of iterations =  1.0

     negative rho (up, down):  0.000E+00 1.144E-03

     total cpu time spent up to now is      366.3 secs

     total energy              =  -10535.65934512 Ry
     estimated scf accuracy    <       1.40371540 Ry

     total magnetization       =     0.07 Bohr mag/cell
     absolute magnetization    =    46.43 Bohr mag/cell

     iteration #  4     ecut=    71.00 Ry     beta= 0.10
     Davidson diagonalization with overlap
     ethr =  2.74E-04,  avg # of iterations =  2.0

     negative rho (up, down):  1.573E-04 1.700E-03

     total cpu time spent up to now is      486.1 secs

     total energy              =  -10535.76562857 Ry
     estimated scf accuracy    <       0.41444425 Ry

     total magnetization       =     0.07 Bohr mag/cell
     absolute magnetization    =    47.18 Bohr mag/cell

     iteration #  5     ecut=    71.00 Ry     beta= 0.10
     Davidson diagonalization with overlap
     ethr =  8.09E-05,  avg # of iterations =  4.3

     negative rho (up, down):  0.000E+00 5.243E-04

     total cpu time spent up to now is      620.9 secs

     total energy              =  -10535.85596722 Ry
     estimated scf accuracy    <       0.24662026 Ry

     total magnetization       =     0.07 Bohr mag/cell
     absolute magnetization    =    47.91 Bohr mag/cell

     iteration #  6     ecut=    71.00 Ry     beta= 0.10
     Davidson diagonalization with overlap
     ethr =  4.82E-05,  avg # of iterations =  4.0

     negative rho (up, down):  0.000E+00 2.843E-04

     total cpu time spent up to now is      739.8 secs

     total energy              =  -10535.88971896 Ry
     estimated scf accuracy    <       0.12235363 Ry

     total magnetization       =     0.09 Bohr mag/cell
     absolute magnetization    =    48.43 Bohr mag/cell

     iteration #  7     ecut=    71.00 Ry     beta= 0.10
     Davidson diagonalization with overlap
     ethr =  2.39E-05,  avg # of iterations =  4.4

     negative rho (up, down):  0.000E+00 9.312E-05

     total cpu time spent up to now is      856.6 secs

     total energy              =  -10535.89511342 Ry
     estimated scf accuracy    <       0.04862389 Ry

     total magnetization       =     0.08 Bohr mag/cell
     absolute magnetization    =    48.85 Bohr mag/cell

     iteration #  8     ecut=    71.00 Ry     beta= 0.10
     Davidson diagonalization with overlap
     c_bands:  1 eigenvalues not converged
     c_bands:  1 eigenvalues not converged
     c_bands:  1 eigenvalues not converged
     c_bands:  1 eigenvalues not converged
     c_bands:  1 eigenvalues not converged
     ethr =  9.50E-06,  avg # of iterations =  6.9

     total cpu time spent up to now is      980.4 secs

     total energy              =  -10535.89526315 Ry
     estimated scf accuracy    <       0.02576041 Ry

     total magnetization       =     0.07 Bohr mag/cell
     absolute magnetization    =    49.10 Bohr mag/cell

     iteration #  9     ecut=    71.00 Ry     beta= 0.10
     Davidson diagonalization with overlap
     c_bands:  1 eigenvalues not converged
     c_bands:  1 eigenvalues not converged
     ethr =  5.03E-06,  avg # of iterations =  2.9

     total cpu time spent up to now is     1090.6 secs

     total energy              =  -10535.89831983 Ry
     estimated scf accuracy    <       0.00548198 Ry

     total magnetization       =     0.04 Bohr mag/cell
     absolute magnetization    =    49.58 Bohr mag/cell

     iteration # 10     ecut=    71.00 Ry     beta= 0.10
     Davidson diagonalization with overlap
     c_bands:  1 eigenvalues not converged
     c_bands:  1 eigenvalues not converged
     c_bands:  1 eigenvalues not converged
     c_bands:  1 eigenvalues not converged
     c_bands:  1 eigenvalues not converged
     c_bands:  1 eigenvalues not converged
     ethr =  1.07E-06,  avg # of iterations =  5.2

     total cpu time spent up to now is     1208.5 secs

     total energy              =  -10535.89906416 Ry
     estimated scf accuracy    <       0.00268195 Ry

     total magnetization       =     0.04 Bohr mag/cell
     absolute magnetization    =    49.74 Bohr mag/cell

     iteration # 11     ecut=    71.00 Ry     beta= 0.10
     Davidson diagonalization with overlap
     ethr =  5.24E-07,  avg # of iterations =  1.4

     total cpu time spent up to now is     1307.1 secs

     total energy              =  -10535.89995146 Ry
     estimated scf accuracy    <       0.00196209 Ry

     total magnetization       =     0.04 Bohr mag/cell
     absolute magnetization    =    49.78 Bohr mag/cell

     iteration # 12     ecut=    71.00 Ry     beta= 0.10
     Davidson diagonalization with overlap
     c_bands:  1 eigenvalues not converged
     ethr =  3.83E-07,  avg # of iterations =  2.3

     negative rho (up, down):  0.000E+00 1.787E-05

     total cpu time spent up to now is     1418.2 secs

     total energy              =  -10535.90036178 Ry
     estimated scf accuracy    <       0.00072121 Ry

     total magnetization       =     0.03 Bohr mag/cell
     absolute magnetization    =    50.02 Bohr mag/cell

     iteration # 13     ecut=    71.00 Ry     beta= 0.10
     Davidson diagonalization with overlap
     ethr =  1.41E-07,  avg # of iterations =  2.6

     negative rho (up, down):  0.000E+00 3.343E-05

     total cpu time spent up to now is     1546.0 secs

     total energy              =  -10535.90114557 Ry
     estimated scf accuracy    <       0.00020232 Ry

     total magnetization       =     0.02 Bohr mag/cell
     absolute magnetization    =    50.30 Bohr mag/cell

     iteration # 14     ecut=    71.00 Ry     beta= 0.10
     Davidson diagonalization with overlap
     ethr =  3.95E-08,  avg # of iterations =  2.0

     negative rho (up, down):  0.000E+00 3.539E-05

     total cpu time spent up to now is     1656.8 secs

     total energy              =  -10535.90116342 Ry
     estimated scf accuracy    <       0.00020893 Ry

     total magnetization       =     0.01 Bohr mag/cell
     absolute magnetization    =    50.29 Bohr mag/cell

     iteration # 15     ecut=    71.00 Ry     beta= 0.10
     Davidson diagonalization with overlap
     ethr =  3.95E-08,  avg # of iterations =  2.0

     negative rho (up, down):  0.000E+00 6.075E-05

     total cpu time spent up to now is     1766.7 secs

     total energy              =  -10535.90125170 Ry
     estimated scf accuracy    <       0.00013253 Ry

     total magnetization       =     0.01 Bohr mag/cell
     absolute magnetization    =    50.29 Bohr mag/cell

     iteration # 16     ecut=    71.00 Ry     beta= 0.10
     Davidson diagonalization with overlap
     ethr =  2.59E-08,  avg # of iterations =  2.0

     negative rho (up, down):  0.000E+00 6.072E-05

     total cpu time spent up to now is     1888.8 secs

     total energy              =  -10535.90132375 Ry
     estimated scf accuracy    <       0.00003088 Ry

     total magnetization       =     0.01 Bohr mag/cell
     absolute magnetization    =    50.23 Bohr mag/cell

     iteration # 17     ecut=    71.00 Ry     beta= 0.10
     Davidson diagonalization with overlap
     ethr =  6.03E-09,  avg # of iterations =  2.0

     negative rho (up, down):  0.000E+00 6.599E-05

     total cpu time spent up to now is     1997.7 secs

     total energy              =  -10535.90133850 Ry
     estimated scf accuracy    <       0.00002207 Ry

     total magnetization       =     0.01 Bohr mag/cell
     absolute magnetization    =    50.21 Bohr mag/cell

     iteration # 18     ecut=    71.00 Ry     beta= 0.10
     Davidson diagonalization with overlap
     ethr =  4.31E-09,  avg # of iterations =  2.0

     negative rho (up, down):  0.000E+00 6.342E-05

     total cpu time spent up to now is     2112.5 secs

     total energy              =  -10535.90135696 Ry
     estimated scf accuracy    <       0.00001675 Ry

     total magnetization       =     0.01 Bohr mag/cell
     absolute magnetization    =    50.18 Bohr mag/cell

     iteration # 19     ecut=    71.00 Ry     beta= 0.10
     Davidson diagonalization with overlap
     ethr =  3.27E-09,  avg # of iterations =  2.0

     negative rho (up, down):  0.000E+00 6.247E-05

     total cpu time spent up to now is     2225.2 secs

     total energy              =  -10535.90136031 Ry
     estimated scf accuracy    <       0.00001145 Ry

     total magnetization       =     0.01 Bohr mag/cell
     absolute magnetization    =    50.13 Bohr mag/cell

     iteration # 20     ecut=    71.00 Ry     beta= 0.10
     Davidson diagonalization with overlap
     ethr =  2.24E-09,  avg # of iterations =  3.3

     negative rho (up, down):  0.000E+00 6.105E-05

     total cpu time spent up to now is     2362.5 secs

     total energy              =  -10535.90138176 Ry
     estimated scf accuracy    <       0.00000663 Ry

     total magnetization       =     0.00 Bohr mag/cell
     absolute magnetization    =    50.06 Bohr mag/cell

     iteration # 21     ecut=    71.00 Ry     beta= 0.10
     Davidson diagonalization with overlap
     ethr =  1.29E-09,  avg # of iterations =  2.1

     negative rho (up, down):  0.000E+00 6.155E-05

     total cpu time spent up to now is     2472.6 secs

     total energy              =  -10535.90138423 Ry
     estimated scf accuracy    <       0.00000377 Ry

     total magnetization       =     0.00 Bohr mag/cell
     absolute magnetization    =    50.04 Bohr mag/cell

     iteration # 22     ecut=    71.00 Ry     beta= 0.10
     Davidson diagonalization with overlap
     ethr =  7.36E-10,  avg # of iterations =  2.7

     negative rho (up, down):  0.000E+00 5.920E-05

     total cpu time spent up to now is     2599.4 secs

     total energy              =  -10535.90138899 Ry
     estimated scf accuracy    <       0.00000170 Ry

     total magnetization       =     0.00 Bohr mag/cell
     absolute magnetization    =    50.00 Bohr mag/cell

     iteration # 23     ecut=    71.00 Ry     beta= 0.10
     Davidson diagonalization with overlap
     ethr =  3.31E-10,  avg # of iterations =  3.2

     negative rho (up, down):  0.000E+00 5.925E-05

     total cpu time spent up to now is     2729.9 secs

     total energy              =  -10535.90139143 Ry
     estimated scf accuracy    <       0.00000041 Ry

     total magnetization       =     0.00 Bohr mag/cell
     absolute magnetization    =    49.97 Bohr mag/cell

     iteration # 24     ecut=    71.00 Ry     beta= 0.10
     Davidson diagonalization with overlap
     ethr =  7.99E-11,  avg # of iterations =  2.7

     negative rho (up, down):  0.000E+00 5.924E-05

     total cpu time spent up to now is     2856.9 secs

     total energy              =  -10535.90139254 Ry
     estimated scf accuracy    <       0.00000026 Ry

     total magnetization       =     0.00 Bohr mag/cell
     absolute magnetization    =    49.96 Bohr mag/cell

     iteration # 25     ecut=    71.00 Ry     beta= 0.10
     Davidson diagonalization with overlap
     ethr =  5.13E-11,  avg # of iterations =  2.0

     negative rho (up, down):  0.000E+00 6.026E-05
 
     Magnetic moment per site:
     atom:    1    charge:   14.4681    magn:    1.0668    constr:    0.0000
     atom:    2    charge:   14.3143    magn:   -1.9303    constr:    0.0000
     atom:    3    charge:   14.4672    magn:    1.0704    constr:    0.0000
     atom:    4    charge:   14.3143    magn:   -1.9303    constr:    0.0000
     atom:    5    charge:   14.4682    magn:    1.0666    constr:    0.0000
     atom:    6    charge:   14.3143    magn:   -1.9304    constr:    0.0000
     atom:    7    charge:   14.4672    magn:    1.0704    constr:    0.0000
     atom:    8    charge:   14.3143    magn:   -1.9303    constr:    0.0000
     atom:    9    charge:   14.3144    magn:    1.9301    constr:    0.0000
     atom:   10    charge:   14.4679    magn:   -1.0676    constr:    0.0000
     atom:   11    charge:   14.3140    magn:    1.9306    constr:    0.0000
     atom:   12    charge:   14.4679    magn:   -1.0676    constr:    0.0000
     atom:   13    charge:   14.3144    magn:    1.9303    constr:    0.0000
     atom:   14    charge:   14.4679    magn:   -1.0689    constr:    0.0000
     atom:   15    charge:   14.3140    magn:    1.9306    constr:    0.0000
     atom:   16    charge:   14.4679    magn:   -1.0676    constr:    0.0000
     atom:   17    charge:   14.4682    magn:    1.0666    constr:    0.0000
     atom:   18    charge:   14.3143    magn:   -1.9303    constr:    0.0000
     atom:   19    charge:   14.4672    magn:    1.0704    constr:    0.0000
     atom:   20    charge:   14.3143    magn:   -1.9304    constr:    0.0000
     atom:   21    charge:   14.4681    magn:    1.0661    constr:    0.0000
     atom:   22    charge:   14.3143    magn:   -1.9304    constr:    0.0000
     atom:   23    charge:   14.4672    magn:    1.0704    constr:    0.0000
     atom:   24    charge:   14.3143    magn:   -1.9304    constr:    0.0000
     atom:   25    charge:   14.3144    magn:    1.9303    constr:    0.0000
     atom:   26    charge:   14.4679    magn:   -1.0676    constr:    0.0000
     atom:   27    charge:   14.3140    magn:    1.9306    constr:    0.0000
     atom:   28    charge:   14.4679    magn:   -1.0689    constr:    0.0000
     atom:   29    charge:   14.3144    magn:    1.9300    constr:    0.0000
     atom:   30    charge:   14.4679    magn:   -1.0689    constr:    0.0000
     atom:   31    charge:   14.3140    magn:    1.9306    constr:    0.0000
     atom:   32    charge:   14.4679    magn:   -1.0689    constr:    0.0000

     total cpu time spent up to now is     2968.0 secs

     End of self-consistent calculation

     Number of k-points >= 100: set verbosity='high' to print the bands.

     the Fermi energy is    19.1396 ev

!    total energy              =  -10535.90139585 Ry

     total all-electron energy =    -81457.390454 Ry
     estimated scf accuracy    <       0.00000009 Ry
     smearing contrib. (-TS)   =       0.01764914 Ry
     internal energy E=F+TS    =  -10535.91904499 Ry

     The total energy is F=E-TS. E is the sum of the following terms:
     one-electron contribution =   -3738.32410791 Ry
     hartree contribution      =    2201.63114310 Ry
     xc contribution           =    -886.96669527 Ry
     ewald contribution        =   -5462.76190103 Ry
     one-center paw contrib.   =   -2649.49748389 Ry

     total magnetization       =     0.00 Bohr mag/cell
     absolute magnetization    =    49.96 Bohr mag/cell

     convergence has been achieved in  25 iterations

     negative rho (up, down):  0.000E+00 6.026E-05

     Forces acting on atoms (cartesian axes, Ry/au):

     atom    1 type  1   force =     0.00000000    0.00779613    0.00000000
     atom    2 type  2   force =     0.00000300    0.07628315    0.00000000
     atom    3 type  1   force =     0.00000813    0.00775431    0.00000813
     atom    4 type  2   force =     0.00000000    0.07628315    0.00000300
     atom    5 type  1   force =     0.00000000    0.00775961    0.00000000
     atom    6 type  2   force =     0.00000483    0.07629483    0.00000000
     atom    7 type  1   force =     0.00000813    0.00775431   -0.00000813
     atom    8 type  2   force =     0.00000000    0.07628315   -0.00000300
     atom    9 type  1   force =     0.00000000   -0.07633947    0.00000000
     atom   10 type  2   force =    -0.00002957   -0.00779206    0.00000000
     atom   11 type  1   force =    -0.00002709   -0.07618291   -0.00002709
     atom   12 type  2   force =     0.00000000   -0.00779206   -0.00002957
     atom   13 type  1   force =     0.00000000   -0.07638388    0.00000000
     atom   14 type  2   force =    -0.00002705   -0.00778276    0.00000000
     atom   15 type  1   force =    -0.00002709   -0.07618291    0.00002709
     atom   16 type  2   force =     0.00000000   -0.00779206    0.00002957
     atom   17 type  1   force =     0.00000000    0.00775961    0.00000000
     atom   18 type  2   force =    -0.00000300    0.07628315    0.00000000
     atom   19 type  1   force =    -0.00000813    0.00775431    0.00000813
     atom   20 type  2   force =     0.00000000    0.07629483    0.00000483
     atom   21 type  1   force =     0.00000000    0.00781594    0.00000000
     atom   22 type  2   force =    -0.00000483    0.07629483    0.00000000
     atom   23 type  1   force =    -0.00000813    0.00775431   -0.00000813
     atom   24 type  2   force =     0.00000000    0.07629483   -0.00000483
     atom   25 type  1   force =     0.00000000   -0.07638388    0.00000000
     atom   26 type  2   force =     0.00002957   -0.00779206    0.00000000
     atom   27 type  1   force =     0.00002709   -0.07618291   -0.00002709
     atom   28 type  2   force =     0.00000000   -0.00778276   -0.00002705
     atom   29 type  1   force =     0.00000000   -0.07632229    0.00000000
     atom   30 type  2   force =     0.00002705   -0.00778276    0.00000000
     atom   31 type  1   force =     0.00002709   -0.07618291    0.00002709
     atom   32 type  2   force =     0.00000000   -0.00778276    0.00002705

     Total force =     0.306701     Total SCF correction =     0.001703


     Computing stress (Cartesian axis) and pressure


     negative rho (up, down):  0.000E+00 6.026E-05
          total   stress  (Ry/bohr**3)                   (kbar)     P=        4.03
   0.00014804   0.00000000   0.00000000           21.78        0.00        0.00
   0.00000000  -0.00021392   0.00000000            0.00      -31.47        0.00
   0.00000000   0.00000000   0.00014804            0.00        0.00       21.78


     Writing output data file /scratch/mTUZchskWExephBu.save/
 
     init_run     :     36.28s CPU     37.13s WALL (       1 calls)
     electrons    :   2893.73s CPU   2928.56s WALL (       1 calls)
     forces       :     20.84s CPU     20.99s WALL (       1 calls)
     stress       :     98.59s CPU     99.38s WALL (       1 calls)

     Called by init_run:
     wfcinit      :     35.47s CPU     36.23s WALL (       1 calls)
     potinit      :      0.37s CPU      0.41s WALL (       1 calls)
     hinit0       :      0.18s CPU      0.19s WALL (       1 calls)

     Called by electrons:
     c_bands      :   2539.87s CPU   2568.53s WALL (      25 calls)
     sum_band     :    347.30s CPU    352.84s WALL (      25 calls)
     v_of_rho     :      0.65s CPU      0.70s WALL (      26 calls)
     newd         :      1.00s CPU      1.27s WALL (      26 calls)
     PAW_pot      :      4.57s CPU      4.83s WALL (      26 calls)
     mix_rho      :      0.48s CPU      0.54s WALL (      25 calls)

     Called by c_bands:
     init_us_2    :     11.58s CPU     11.76s WALL (    7950 calls)
     cegterg      :   2492.28s CPU   2519.94s WALL (    3750 calls)

     Called by *egterg:
     cdiaghg      :    331.79s CPU    333.75s WALL (   14105 calls)
     h_psi        :   1358.48s CPU   1379.45s WALL (   14255 calls)
     s_psi        :    101.78s CPU    102.49s WALL (   14255 calls)
     g_psi        :      2.45s CPU      2.49s WALL (   10355 calls)

     Called by h_psi:
     h_psi:calbec :    204.49s CPU    205.85s WALL (   14255 calls)
     vloc_psi     :   1048.00s CPU   1066.34s WALL (   14255 calls)
     add_vuspsi   :     99.77s CPU    100.95s WALL (   14255 calls)

     General routines
     calbec       :    314.73s CPU    316.77s WALL (   18755 calls)
     fft          :      0.56s CPU      0.59s WALL (     688 calls)
     ffts         :      0.25s CPU      0.26s WALL (     606 calls)
     fftw         :   1255.46s CPU   1277.27s WALL ( 6665110 calls)
     interpolate  :      0.09s CPU      0.10s WALL (      52 calls)
 
     Parallel routines
     fft_scatt_xy :     55.24s CPU     56.19s WALL ( 6666404 calls)
     fft_scatt_yz :   1095.24s CPU   1114.52s WALL ( 6666404 calls)
 
     PWSCF        :  51m21.00s CPU  52m 3.39s WALL

 
   This run was terminated on:  10:24:53  16Jan2022            

=------------------------------------------------------------------------------=
   JOB DONE.
=------------------------------------------------------------------------------=
