
     Program PWSCF v.6.7MaX starts on 16Jan2022 at 12:46:10 

     This program is part of the open-source Quantum ESPRESSO suite
     for quantum simulation of materials; please cite
         "P. Giannozzi et al., J. Phys.:Condens. Matter 21 395502 (2009);
         "P. Giannozzi et al., J. Phys.:Condens. Matter 29 465901 (2017);
          URL http://www.quantum-espresso.org", 
     in publications or presentations arising from this work. More details at
     http://www.quantum-espresso.org/quote

     Parallel version (MPI & OpenMP), running on      72 processor cores
     Number of MPI processes:                72
     Threads/MPI process:                     1

     MPI processes distributed on     1 nodes
     R & G space division:  proc/nbgrp/npool/nimage =      72
     Reading input from scf_10.in
Warning: card &CELL ignored
Warning: card CELL_DYNAMICS = 'BFGS', ignored
Warning: card CELL_FACTOR = 2.0, ignored
Warning: card PRESS = 0.0, ignored
Warning: card / ignored

     Current dimensions of program PWSCF are:
     Max number of different atomic species (ntypx) = 10
     Max number of k-points (npk) =  40000
     Max angular momentum in pseudopotentials (lmaxx) =  3
     file Fe.pbe-spn-kjpaw_psl.1.0.0.UPF: wavefunction(s)  3P 3D renormalized
     file Fe.pbe-spn-kjpaw_psl.1.0.0.UPF: wavefunction(s)  3P 3D renormalized

     Subspace diagonalization in iterative solution of the eigenvalue problem:
     one sub-group per band group will be used
     ELPA distributed-memory algorithm (size of sub-group:  8*  8 procs)

     Found symmetry operation: I + (  0.2500  0.0000  0.2500)
     This is a supercell, fractional translations are disabled
     Message from routine setup:
     using ibrav=0 with symmetry is DISCOURAGED, use correct ibrav instead
 
     Parallelization info
     --------------------
     sticks:   dense  smooth     PW     G-vecs:    dense   smooth      PW
     Min         143      94     25                 8149     4376     619
     Max         144      95     26                 8153     4379     624
     Sum       10297    6821   1861               586977   315181   44785
 


     bravais-lattice index     =            0
     lattice parameter (alat)  =      12.9382  a.u.
     unit-cell volume          =    3898.4600 (a.u.)^3
     number of atoms/cell      =           32
     number of atomic types    =            2
     number of electrons       =       512.00
     number of Kohn-Sham states=          325
     kinetic-energy cutoff     =      71.0000  Ry
     charge density cutoff     =     430.0000  Ry
     scf convergence threshold =      1.0E-07
     mixing beta               =       0.1000
     number of iterations used =           10  local-TF  mixing
     Exchange-correlation= SLA  PW   PBX  PBC
                           (   1   4   3   4   0   0   0)

     celldm(1)=  12.938190  celldm(2)=   0.000000  celldm(3)=   0.000000
     celldm(4)=   0.000000  celldm(5)=   0.000000  celldm(6)=   0.000000

     crystal axes: (cart. coord. in units of alat)
               a(1) = (   1.000000   0.000000   0.000000 )  
               a(2) = (   0.000000   1.800000   0.000000 )  
               a(3) = (   0.000000   0.000000   1.000000 )  

     reciprocal axes: (cart. coord. in units 2 pi/alat)
               b(1) = (  1.000000  0.000000  0.000000 )  
               b(2) = (  0.000000  0.555556  0.000000 )  
               b(3) = (  0.000000  0.000000  1.000000 )  


     PseudoPot. # 1 for Fe read from file:
     /rds/homes/b/bxp912/pp/Fe.pbe-spn-kjpaw_psl.1.0.0.UPF
     MD5 check sum: 42f43b795421b414b0dc916aa790dbcb
     Pseudo is Projector augmented-wave + core cor, Zval = 16.0
     Generated using &quot;atomic&quot; code by A. Dal Corso  v.6.3
     Shape of augmentation charge: PSQ
     Using radial grid of 1191 points,  6 beta functions with: 

     Initial potential from superposition of free atoms

     starting charge  511.98600, renormalised to  512.00000
     Checking if some PAW data can be deallocated... 

     total cpu time spent up to now is       47.9 secs

     Self-consistent Calculation

     iteration #  1     ecut=    71.00 Ry     beta= 0.10
     Davidson diagonalization with overlap
     ethr =  1.00E-02,  avg # of iterations =  3.1

     total cpu time spent up to now is      217.8 secs

     total energy              =  -10536.27769987 Ry
     estimated scf accuracy    <      32.02531431 Ry

     total magnetization       =     0.01 Bohr mag/cell
     absolute magnetization    =    45.28 Bohr mag/cell

     iteration #  2     ecut=    71.00 Ry     beta= 0.10
     Davidson diagonalization with overlap
     ethr =  6.25E-03,  avg # of iterations =  1.0

     total cpu time spent up to now is      341.1 secs

     total energy              =  -10535.92327796 Ry
     estimated scf accuracy    <       9.85520371 Ry

     total magnetization       =     0.04 Bohr mag/cell
     absolute magnetization    =    47.16 Bohr mag/cell

     iteration #  3     ecut=    71.00 Ry     beta= 0.10
     Davidson diagonalization with overlap
     ethr =  1.92E-03,  avg # of iterations =  1.0

     negative rho (up, down):  7.365E-04 2.936E-03

     total cpu time spent up to now is      463.0 secs

     total energy              =  -10534.67138001 Ry
     estimated scf accuracy    <       5.93469225 Ry

     total magnetization       =     0.07 Bohr mag/cell
     absolute magnetization    =    47.43 Bohr mag/cell

     iteration #  4     ecut=    71.00 Ry     beta= 0.10
     Davidson diagonalization with overlap
     ethr =  1.16E-03,  avg # of iterations =  2.0

     negative rho (up, down):  2.111E-03 4.553E-03

     total cpu time spent up to now is      607.3 secs

     total energy              =  -10534.97241975 Ry
     estimated scf accuracy    <       2.02160578 Ry

     total magnetization       =     0.07 Bohr mag/cell
     absolute magnetization    =    48.85 Bohr mag/cell

     iteration #  5     ecut=    71.00 Ry     beta= 0.10
     Davidson diagonalization with overlap
     ethr =  3.95E-04,  avg # of iterations =  4.7

     negative rho (up, down):  0.000E+00 2.163E-03

     total cpu time spent up to now is      764.9 secs

     total energy              =  -10535.07188211 Ry
     estimated scf accuracy    <       0.89101232 Ry

     total magnetization       =     0.14 Bohr mag/cell
     absolute magnetization    =    50.13 Bohr mag/cell

     iteration #  6     ecut=    71.00 Ry     beta= 0.10
     Davidson diagonalization with overlap
     ethr =  1.74E-04,  avg # of iterations =  4.3

     negative rho (up, down):  0.000E+00 3.306E-04

     total cpu time spent up to now is      911.5 secs

     total energy              =  -10534.98473641 Ry
     estimated scf accuracy    <       0.49319958 Ry

     total magnetization       =     0.09 Bohr mag/cell
     absolute magnetization    =    50.60 Bohr mag/cell

     iteration #  7     ecut=    71.00 Ry     beta= 0.10
     Davidson diagonalization with overlap
     ethr =  9.63E-05,  avg # of iterations =  5.0

     negative rho (up, down):  0.000E+00 2.516E-05

     total cpu time spent up to now is     1062.3 secs

     total energy              =  -10534.97760437 Ry
     estimated scf accuracy    <       0.15138433 Ry

     total magnetization       =     0.11 Bohr mag/cell
     absolute magnetization    =    51.46 Bohr mag/cell

     iteration #  8     ecut=    71.00 Ry     beta= 0.10
     Davidson diagonalization with overlap
     c_bands:  1 eigenvalues not converged
     c_bands:  2 eigenvalues not converged
     c_bands:  1 eigenvalues not converged
     c_bands:  1 eigenvalues not converged
     c_bands:  1 eigenvalues not converged
     ethr =  2.96E-05,  avg # of iterations =  8.0

     negative rho (up, down):  0.000E+00 2.865E-05

     total cpu time spent up to now is     1223.9 secs

     total energy              =  -10534.96640328 Ry
     estimated scf accuracy    <       0.10600813 Ry

     total magnetization       =     0.07 Bohr mag/cell
     absolute magnetization    =    51.93 Bohr mag/cell

     iteration #  9     ecut=    71.00 Ry     beta= 0.10
     Davidson diagonalization with overlap
     c_bands:  2 eigenvalues not converged
     c_bands:  1 eigenvalues not converged
     c_bands:  1 eigenvalues not converged
     c_bands:  2 eigenvalues not converged
     ethr =  2.07E-05,  avg # of iterations =  5.1

     negative rho (up, down):  0.000E+00 5.637E-05

     total cpu time spent up to now is     1376.9 secs

     total energy              =  -10534.95562170 Ry
     estimated scf accuracy    <       0.07162702 Ry

     total magnetization       =    -0.01 Bohr mag/cell
     absolute magnetization    =    52.52 Bohr mag/cell

     iteration # 10     ecut=    71.00 Ry     beta= 0.10
     Davidson diagonalization with overlap
     c_bands:  1 eigenvalues not converged
     ethr =  1.40E-05,  avg # of iterations =  6.7

     negative rho (up, down):  0.000E+00 4.410E-05

     total cpu time spent up to now is     1535.9 secs

     total energy              =  -10534.96118652 Ry
     estimated scf accuracy    <       0.04388492 Ry

     total magnetization       =     0.02 Bohr mag/cell
     absolute magnetization    =    53.08 Bohr mag/cell

     iteration # 11     ecut=    71.00 Ry     beta= 0.10
     Davidson diagonalization with overlap
     ethr =  8.57E-06,  avg # of iterations =  1.7

     negative rho (up, down):  0.000E+00 7.563E-05

     total cpu time spent up to now is     1667.0 secs

     total energy              =  -10534.95962105 Ry
     estimated scf accuracy    <       0.03406246 Ry

     total magnetization       =     0.06 Bohr mag/cell
     absolute magnetization    =    53.17 Bohr mag/cell

     iteration # 12     ecut=    71.00 Ry     beta= 0.10
     Davidson diagonalization with overlap
     c_bands:  1 eigenvalues not converged
     ethr =  6.65E-06,  avg # of iterations =  5.8

     negative rho (up, down):  0.000E+00 1.593E-04

     total cpu time spent up to now is     1824.2 secs

     total energy              =  -10534.96485521 Ry
     estimated scf accuracy    <       0.00826969 Ry

     total magnetization       =     0.04 Bohr mag/cell
     absolute magnetization    =    53.61 Bohr mag/cell

     iteration # 13     ecut=    71.00 Ry     beta= 0.10
     Davidson diagonalization with overlap
     c_bands:  1 eigenvalues not converged
     c_bands:  1 eigenvalues not converged
     ethr =  1.62E-06,  avg # of iterations =  4.7

     negative rho (up, down):  0.000E+00 1.465E-04

     total cpu time spent up to now is     1973.4 secs

     total energy              =  -10534.96597483 Ry
     estimated scf accuracy    <       0.00245577 Ry

     total magnetization       =     0.01 Bohr mag/cell
     absolute magnetization    =    53.39 Bohr mag/cell

     iteration # 14     ecut=    71.00 Ry     beta= 0.10
     Davidson diagonalization with overlap
     ethr =  4.80E-07,  avg # of iterations =  2.1

     negative rho (up, down):  0.000E+00 1.638E-04

     total cpu time spent up to now is     2112.7 secs

     total energy              =  -10534.96669550 Ry
     estimated scf accuracy    <       0.00171131 Ry

     total magnetization       =     0.01 Bohr mag/cell
     absolute magnetization    =    53.44 Bohr mag/cell

     iteration # 15     ecut=    71.00 Ry     beta= 0.10
     Davidson diagonalization with overlap
     ethr =  3.34E-07,  avg # of iterations =  2.0

     negative rho (up, down):  0.000E+00 1.686E-04

     total cpu time spent up to now is     2250.8 secs

     total energy              =  -10534.96716781 Ry
     estimated scf accuracy    <       0.00091351 Ry

     total magnetization       =     0.00 Bohr mag/cell
     absolute magnetization    =    53.35 Bohr mag/cell

     iteration # 16     ecut=    71.00 Ry     beta= 0.10
     Davidson diagonalization with overlap
     ethr =  1.78E-07,  avg # of iterations =  2.1

     negative rho (up, down):  0.000E+00 1.671E-04

     total cpu time spent up to now is     2408.7 secs

     total energy              =  -10534.96741909 Ry
     estimated scf accuracy    <       0.00007495 Ry

     total magnetization       =     0.01 Bohr mag/cell
     absolute magnetization    =    53.22 Bohr mag/cell

     iteration # 17     ecut=    71.00 Ry     beta= 0.10
     Davidson diagonalization with overlap
     ethr =  1.46E-08,  avg # of iterations =  2.0

     negative rho (up, down):  0.000E+00 1.650E-04

     total cpu time spent up to now is     2551.4 secs

     total energy              =  -10534.96744452 Ry
     estimated scf accuracy    <       0.00004478 Ry

     total magnetization       =     0.01 Bohr mag/cell
     absolute magnetization    =    53.22 Bohr mag/cell

     iteration # 18     ecut=    71.00 Ry     beta= 0.10
     Davidson diagonalization with overlap
     ethr =  8.75E-09,  avg # of iterations =  1.5

     negative rho (up, down):  0.000E+00 1.612E-04

     total cpu time spent up to now is     2680.6 secs

     total energy              =  -10534.96748280 Ry
     estimated scf accuracy    <       0.00003519 Ry

     total magnetization       =     0.01 Bohr mag/cell
     absolute magnetization    =    53.20 Bohr mag/cell

     iteration # 19     ecut=    71.00 Ry     beta= 0.10
     Davidson diagonalization with overlap
     ethr =  6.87E-09,  avg # of iterations =  2.0

     negative rho (up, down):  0.000E+00 1.573E-04

     total cpu time spent up to now is     2833.8 secs

     total energy              =  -10534.96749558 Ry
     estimated scf accuracy    <       0.00000752 Ry

     total magnetization       =     0.01 Bohr mag/cell
     absolute magnetization    =    53.18 Bohr mag/cell

     iteration # 20     ecut=    71.00 Ry     beta= 0.10
     Davidson diagonalization with overlap
     ethr =  1.47E-09,  avg # of iterations =  2.3

     negative rho (up, down):  0.000E+00 1.565E-04

     total cpu time spent up to now is     2994.4 secs

     total energy              =  -10534.96749878 Ry
     estimated scf accuracy    <       0.00000231 Ry

     total magnetization       =     0.01 Bohr mag/cell
     absolute magnetization    =    53.16 Bohr mag/cell

     iteration # 21     ecut=    71.00 Ry     beta= 0.10
     Davidson diagonalization with overlap
     ethr =  4.52E-10,  avg # of iterations =  1.7

     negative rho (up, down):  0.000E+00 1.565E-04

     total cpu time spent up to now is     3128.7 secs

     total energy              =  -10534.96750094 Ry
     estimated scf accuracy    <       0.00000188 Ry

     total magnetization       =     0.01 Bohr mag/cell
     absolute magnetization    =    53.16 Bohr mag/cell

     iteration # 22     ecut=    71.00 Ry     beta= 0.10
     Davidson diagonalization with overlap
     ethr =  3.68E-10,  avg # of iterations =  2.0

     negative rho (up, down):  0.000E+00 1.548E-04

     total cpu time spent up to now is     3278.8 secs

     total energy              =  -10534.96750280 Ry
     estimated scf accuracy    <       0.00000122 Ry

     total magnetization       =     0.01 Bohr mag/cell
     absolute magnetization    =    53.15 Bohr mag/cell

     iteration # 23     ecut=    71.00 Ry     beta= 0.10
     Davidson diagonalization with overlap
     ethr =  2.39E-10,  avg # of iterations =  2.1

     negative rho (up, down):  0.000E+00 1.544E-04

     total cpu time spent up to now is     3435.7 secs

     total energy              =  -10534.96750413 Ry
     estimated scf accuracy    <       0.00000065 Ry

     total magnetization       =     0.01 Bohr mag/cell
     absolute magnetization    =    53.14 Bohr mag/cell

     iteration # 24     ecut=    71.00 Ry     beta= 0.10
     Davidson diagonalization with overlap
     ethr =  1.26E-10,  avg # of iterations =  2.0

     negative rho (up, down):  0.000E+00 1.544E-04

     total cpu time spent up to now is     3574.2 secs

     total energy              =  -10534.96750503 Ry
     estimated scf accuracy    <       0.00000054 Ry

     total magnetization       =     0.01 Bohr mag/cell
     absolute magnetization    =    53.14 Bohr mag/cell

     iteration # 25     ecut=    71.00 Ry     beta= 0.10
     Davidson diagonalization with overlap
     ethr =  1.06E-10,  avg # of iterations =  1.7

     negative rho (up, down):  0.000E+00 1.542E-04

     total cpu time spent up to now is     3706.4 secs

     total energy              =  -10534.96750578 Ry
     estimated scf accuracy    <       0.00000045 Ry

     total magnetization       =     0.00 Bohr mag/cell
     absolute magnetization    =    53.14 Bohr mag/cell

     iteration # 26     ecut=    71.00 Ry     beta= 0.10
     Davidson diagonalization with overlap
     ethr =  8.74E-11,  avg # of iterations =  2.4

     negative rho (up, down):  0.000E+00 1.545E-04

     total cpu time spent up to now is     3862.9 secs

     total energy              =  -10534.96750655 Ry
     estimated scf accuracy    <       0.00000024 Ry

     total magnetization       =     0.00 Bohr mag/cell
     absolute magnetization    =    53.13 Bohr mag/cell

     iteration # 27     ecut=    71.00 Ry     beta= 0.10
     Davidson diagonalization with overlap
     ethr =  4.62E-11,  avg # of iterations =  3.7

     negative rho (up, down):  0.000E+00 1.546E-04

     total cpu time spent up to now is     4035.6 secs

     total energy              =  -10534.96750728 Ry
     estimated scf accuracy    <       0.00000016 Ry

     total magnetization       =     0.00 Bohr mag/cell
     absolute magnetization    =    53.12 Bohr mag/cell

     iteration # 28     ecut=    71.00 Ry     beta= 0.10
     Davidson diagonalization with overlap
     ethr =  3.05E-11,  avg # of iterations =  2.0

     negative rho (up, down):  0.000E+00 1.548E-04

     total cpu time spent up to now is     4174.5 secs

     total energy              =  -10534.96750762 Ry
     estimated scf accuracy    <       0.00000014 Ry

     total magnetization       =     0.00 Bohr mag/cell
     absolute magnetization    =    53.12 Bohr mag/cell

     iteration # 29     ecut=    71.00 Ry     beta= 0.10
     Davidson diagonalization with overlap
     ethr =  2.70E-11,  avg # of iterations =  2.0

     negative rho (up, down):  0.000E+00 1.556E-04
 
     Magnetic moment per site:
     atom:    1    charge:   14.4698    magn:    1.0050    constr:    0.0000
     atom:    2    charge:   14.3142    magn:   -2.1615    constr:    0.0000
     atom:    3    charge:   14.4686    magn:    1.0246    constr:    0.0000
     atom:    4    charge:   14.3142    magn:   -2.1615    constr:    0.0000
     atom:    5    charge:   14.4698    magn:    1.0027    constr:    0.0000
     atom:    6    charge:   14.3142    magn:   -2.1615    constr:    0.0000
     atom:    7    charge:   14.4686    magn:    1.0246    constr:    0.0000
     atom:    8    charge:   14.3142    magn:   -2.1615    constr:    0.0000
     atom:    9    charge:   14.3144    magn:    2.1617    constr:    0.0000
     atom:   10    charge:   14.4697    magn:   -1.0119    constr:    0.0000
     atom:   11    charge:   14.3137    magn:    2.1618    constr:    0.0000
     atom:   12    charge:   14.4697    magn:   -1.0119    constr:    0.0000
     atom:   13    charge:   14.3144    magn:    2.1612    constr:    0.0000
     atom:   14    charge:   14.4696    magn:   -1.0161    constr:    0.0000
     atom:   15    charge:   14.3137    magn:    2.1618    constr:    0.0000
     atom:   16    charge:   14.4697    magn:   -1.0119    constr:    0.0000
     atom:   17    charge:   14.4698    magn:    1.0027    constr:    0.0000
     atom:   18    charge:   14.3142    magn:   -2.1615    constr:    0.0000
     atom:   19    charge:   14.4686    magn:    1.0246    constr:    0.0000
     atom:   20    charge:   14.3142    magn:   -2.1615    constr:    0.0000
     atom:   21    charge:   14.4698    magn:    1.0044    constr:    0.0000
     atom:   22    charge:   14.3142    magn:   -2.1615    constr:    0.0000
     atom:   23    charge:   14.4686    magn:    1.0246    constr:    0.0000
     atom:   24    charge:   14.3142    magn:   -2.1615    constr:    0.0000
     atom:   25    charge:   14.3144    magn:    2.1612    constr:    0.0000
     atom:   26    charge:   14.4697    magn:   -1.0119    constr:    0.0000
     atom:   27    charge:   14.3137    magn:    2.1618    constr:    0.0000
     atom:   28    charge:   14.4696    magn:   -1.0161    constr:    0.0000
     atom:   29    charge:   14.3144    magn:    2.1609    constr:    0.0000
     atom:   30    charge:   14.4696    magn:   -1.0161    constr:    0.0000
     atom:   31    charge:   14.3137    magn:    2.1618    constr:    0.0000
     atom:   32    charge:   14.4696    magn:   -1.0161    constr:    0.0000

     total cpu time spent up to now is     4320.4 secs

     End of self-consistent calculation

     Number of k-points >= 100: set verbosity='high' to print the bands.

     the Fermi energy is     9.9930 ev

!    total energy              =  -10534.96750896 Ry

     total all-electron energy =    -81456.456567 Ry
     estimated scf accuracy    <       0.00000009 Ry
     smearing contrib. (-TS)   =       0.03693194 Ry
     internal energy E=F+TS    =  -10535.00444090 Ry

     The total energy is F=E-TS. E is the sum of the following terms:
     one-electron contribution =  -19048.69727377 Ry
     hartree contribution      =    9686.29414138 Ry
     xc contribution           =    -886.97373388 Ry
     ewald contribution        =    2363.75844723 Ry
     one-center paw contrib.   =   -2649.38602186 Ry

     total magnetization       =     0.00 Bohr mag/cell
     absolute magnetization    =    53.11 Bohr mag/cell

     convergence has been achieved in  29 iterations

     negative rho (up, down):  0.000E+00 1.556E-04

     Forces acting on atoms (cartesian axes, Ry/au):

     atom    1 type  1   force =     0.00000000    0.00125829    0.00000000
     atom    2 type  2   force =     0.00001036    0.02356306    0.00000000
     atom    3 type  1   force =    -0.00002249    0.00110470   -0.00002249
     atom    4 type  2   force =     0.00000000    0.02356306    0.00001036
     atom    5 type  1   force =     0.00000000    0.00131044    0.00000000
     atom    6 type  2   force =    -0.00000902    0.02355593    0.00000000
     atom    7 type  1   force =    -0.00002249    0.00110470    0.00002249
     atom    8 type  2   force =     0.00000000    0.02356306   -0.00001036
     atom    9 type  1   force =     0.00000000   -0.02385322    0.00000000
     atom   10 type  2   force =     0.00003497   -0.00098683    0.00000000
     atom   11 type  1   force =    -0.00000806   -0.02369822   -0.00000806
     atom   12 type  2   force =    -0.00000000   -0.00098683    0.00003497
     atom   13 type  1   force =     0.00000000   -0.02384978    0.00000000
     atom   14 type  2   force =     0.00001494   -0.00098178    0.00000000
     atom   15 type  1   force =    -0.00000806   -0.02369822    0.00000806
     atom   16 type  2   force =     0.00000000   -0.00098683   -0.00003497
     atom   17 type  1   force =     0.00000000    0.00131044    0.00000000
     atom   18 type  2   force =    -0.00001036    0.02356306    0.00000000
     atom   19 type  1   force =     0.00002249    0.00110470   -0.00002249
     atom   20 type  2   force =     0.00000000    0.02355593   -0.00000902
     atom   21 type  1   force =     0.00000000    0.00132852    0.00000000
     atom   22 type  2   force =     0.00000902    0.02355593    0.00000000
     atom   23 type  1   force =     0.00002249    0.00110470    0.00002249
     atom   24 type  2   force =     0.00000000    0.02355593    0.00000902
     atom   25 type  1   force =     0.00000000   -0.02384978    0.00000000
     atom   26 type  2   force =    -0.00003497   -0.00098683   -0.00000000
     atom   27 type  1   force =     0.00000806   -0.02369822   -0.00000806
     atom   28 type  2   force =     0.00000000   -0.00098178    0.00001494
     atom   29 type  1   force =     0.00000000   -0.02388235    0.00000000
     atom   30 type  2   force =    -0.00001494   -0.00098178    0.00000000
     atom   31 type  1   force =     0.00000806   -0.02369822    0.00000806
     atom   32 type  2   force =     0.00000000   -0.00098178   -0.00001494

     Total force =     0.094780     Total SCF correction =     0.000843


     Computing stress (Cartesian axis) and pressure


     negative rho (up, down):  0.000E+00 1.556E-04
          total   stress  (Ry/bohr**3)                   (kbar)     P=       19.02
   0.00005628   0.00000000   0.00000000            8.28        0.00        0.00
   0.00000000   0.00027525   0.00000000            0.00       40.49        0.00
   0.00000000   0.00000000   0.00005628            0.00        0.00        8.28


     Writing output data file /scratch/qNzzkNfwyhvtgOUM.save/
 
     init_run     :     46.57s CPU     47.58s WALL (       1 calls)
     electrons    :   4227.09s CPU   4272.54s WALL (       1 calls)
     forces       :     25.57s CPU     25.77s WALL (       1 calls)
     stress       :    203.35s CPU    204.78s WALL (       1 calls)

     Called by init_run:
     wfcinit      :     45.78s CPU     46.70s WALL (       1 calls)
     potinit      :      0.31s CPU      0.35s WALL (       1 calls)
     hinit0       :      0.22s CPU      0.22s WALL (       1 calls)

     Called by electrons:
     c_bands      :   3702.76s CPU   3739.90s WALL (      29 calls)
     sum_band     :    513.29s CPU    520.52s WALL (      29 calls)
     v_of_rho     :      1.24s CPU      1.34s WALL (      30 calls)
     newd         :      1.86s CPU      2.41s WALL (      30 calls)
     PAW_pot      :      5.17s CPU      5.48s WALL (      30 calls)
     mix_rho      :      2.80s CPU      2.92s WALL (      29 calls)

     Called by c_bands:
     init_us_2    :     22.41s CPU     22.67s WALL (    9150 calls)
     cegterg      :   3615.91s CPU   3651.47s WALL (    4350 calls)

     Called by *egterg:
     cdiaghg      :    389.74s CPU    391.60s WALL (   17348 calls)
     h_psi        :   1960.97s CPU   1986.62s WALL (   17498 calls)
     s_psi        :    179.29s CPU    180.43s WALL (   17498 calls)
     g_psi        :      4.42s CPU      4.49s WALL (   12998 calls)

     Called by h_psi:
     h_psi:calbec :    301.62s CPU    303.52s WALL (   17498 calls)
     vloc_psi     :   1469.88s CPU   1491.94s WALL (   17498 calls)
     add_vuspsi   :    176.88s CPU    178.38s WALL (   17498 calls)

     General routines
     calbec       :    470.61s CPU    473.53s WALL (   22598 calls)
     fft          :      1.28s CPU      1.32s WALL (     788 calls)
     ffts         :      1.78s CPU      1.82s WALL (    3698 calls)
     fftw         :   1765.68s CPU   1791.74s WALL ( 7581988 calls)
     interpolate  :      0.11s CPU      0.11s WALL (      60 calls)
 
     Parallel routines
     fft_scatt_xy :     92.72s CPU     94.17s WALL ( 7586474 calls)
     fft_scatt_yz :   1446.80s CPU   1468.22s WALL ( 7586474 calls)
 
     PWSCF        :      1h15m CPU      1h16m WALL

 
   This run was terminated on:  14: 2:45  16Jan2022            

=------------------------------------------------------------------------------=
   JOB DONE.
=------------------------------------------------------------------------------=
