--------------------------------------------------------------------------
WARNING: No preset parameters were found for the device that Open MPI
detected:

  Local host:            bear-pg0206u39a
  Device name:           mlx5_0
  Device vendor ID:      0x02c9
  Device vendor part ID: 4123

Default device parameters will be used, which may result in lower
performance.  You can edit any of the files specified by the
btl_openib_device_param_files MCA parameter to set values for your
device.

NOTE: You can turn off this warning by setting the MCA parameter
      btl_openib_warn_no_device_params_found to 0.
--------------------------------------------------------------------------
--------------------------------------------------------------------------
WARNING: There was an error initializing an OpenFabrics device.

  Local host:   bear-pg0206u39a
  Local device: mlx5_0
--------------------------------------------------------------------------

     Program PWSCF v.6.3 starts on  9Sep2020 at 10:38: 1 

     This program is part of the open-source Quantum ESPRESSO suite
     for quantum simulation of materials; please cite
         "P. Giannozzi et al., J. Phys.:Condens. Matter 21 395502 (2009);
         "P. Giannozzi et al., J. Phys.:Condens. Matter 29 465901 (2017);
          URL http://www.quantum-espresso.org", 
     in publications or presentations arising from this work. More details at
     http://www.quantum-espresso.org/quote

     Parallel version (MPI & OpenMP), running on      40 processor cores
     Number of MPI processes:                40
     Threads/MPI process:                     1

     MPI processes distributed on     1 nodes
     R & G space division:  proc/nbgrp/npool/nimage =      40
     Reading input from wd/eos/eos_006.in
Warning: card &IONS ignored
Warning: card ION_DYNAMICS = 'BFGS', ignored
Warning: card / ignored
Warning: card &CELL ignored
Warning: card CELL_DYNAMICS = 'BFGS', ignored
Warning: card CELL_FACTOR = 2.0, ignored
Warning: card PRESS = 0.0, ignored
Warning: card / ignored

     Current dimensions of program PWSCF are:
     Max number of different atomic species (ntypx) = 10
     Max number of k-points (npk) =  40000
     Max angular momentum in pseudopotentials (lmaxx) =  3
               file Fe.pbe-spn-kjpaw_psl.1.0.0.UPF: wavefunction(s)  3P 3D renormalized
               file Fe.pbe-spn-kjpaw_psl.1.0.0.UPF: wavefunction(s)  3P 3D renormalized

     Subspace diagonalization in iterative solution of the eigenvalue problem:
     a serial algorithm will be used

     Found symmetry operation: I + (  0.0000  0.0000 -0.5000)
     This is a supercell, fractional translations are disabled
 
     Parallelization info
     --------------------
     sticks:   dense  smooth     PW     G-vecs:    dense   smooth      PW
     Min          96      64     17                 4522     2428     357
     Max          97      65     18                 4527     2432     362
     Sum        3869    2561    717               180995    97233   14411
 


     bravais-lattice index     =            0
     lattice parameter (alat)  =      10.5935  a.u.
     unit-cell volume          =    1200.7609 (a.u.)^3
     number of atoms/cell      =           16
     number of atomic types    =            2
     number of electrons       =       256.00
     number of Kohn-Sham states=          154
     kinetic-energy cutoff     =      71.0000  Ry
     charge density cutoff     =     430.0000  Ry
     convergence threshold     =      1.0E-06
     mixing beta               =       0.1000
     number of iterations used =           10  plain     mixing
     Exchange-correlation      = SLA PW PBX PBC ( 1  4  3  4 0 0)

     celldm(1)=  10.593520  celldm(2)=   0.000000  celldm(3)=   0.000000
     celldm(4)=   0.000000  celldm(5)=   0.000000  celldm(6)=   0.000000

     crystal axes: (cart. coord. in units of alat)
               a(1) = (   1.003333   0.000000   0.000000 )  
               a(2) = (   0.000000   1.003333   0.000000 )  
               a(3) = (   0.000000   0.000000   1.003333 )  

     reciprocal axes: (cart. coord. in units 2 pi/alat)
               b(1) = (  0.996678  0.000000  0.000000 )  
               b(2) = (  0.000000  0.996678  0.000000 )  
               b(3) = (  0.000000  0.000000  0.996678 )  


     PseudoPot. # 1 for Fe read from file:
     /rds/homes/b/bxp912/pp/Fe.pbe-spn-kjpaw_psl.1.0.0.UPF
     MD5 check sum: 42f43b795421b414b0dc916aa790dbcb
     Pseudo is Projector augmented-wave + core cor, Zval = 16.0
     Generated using "atomic" code by A. Dal Corso v.6.3
     Shape of augmentation charge: PSQ
     Using radial grid of 1191 points,  6 beta functions with: 
                l(1) =   0
                l(2) =   0
                l(3) =   1
                l(4) =   1
                l(5) =   2
                l(6) =   2
     Q(r) pseudized with 0 coefficients 


     PseudoPot. # 2 for Fe read from file:
     /rds/homes/b/bxp912/pp/Fe.pbe-spn-kjpaw_psl.1.0.0.UPF
     MD5 check sum: 42f43b795421b414b0dc916aa790dbcb
     Pseudo is Projector augmented-wave + core cor, Zval = 16.0
     Generated using "atomic" code by A. Dal Corso v.6.3
     Shape of augmentation charge: PSQ
     Using radial grid of 1191 points,  6 beta functions with: 
                l(1) =   0
                l(2) =   0
                l(3) =   1
                l(4) =   1
                l(5) =   2
                l(6) =   2
     Q(r) pseudized with 0 coefficients 


     atomic species   valence    mass     pseudopotential
        Fe1           16.00    55.84500     Fe( 1.00)
        Fe2           16.00    55.84500     Fe( 1.00)

     Starting magnetic structure 
     atomic species   magnetization
        Fe1          0.100
        Fe2          0.100

     48 Sym. Ops., with inversion, found



   Cartesian axes

     site n.     atom                  positions (alat units)
         1           Fe1 tau(   1) = (   0.0000000   0.0000000   0.0000000  )
         2           Fe2 tau(   2) = (   0.2508338   0.2508338   0.2508338  )
         3           Fe1 tau(   3) = (   0.0000000   0.0000000   0.5016667  )
         4           Fe2 tau(   4) = (   0.2508338   0.2508338   0.7524996  )
         5           Fe1 tau(   5) = (   0.0000000   0.5016667   0.0000000  )
         6           Fe2 tau(   6) = (   0.2508338   0.7524996   0.2508338  )
         7           Fe1 tau(   7) = (   0.0000000   0.5016667   0.5016667  )
         8           Fe2 tau(   8) = (   0.2508338   0.7524996   0.7524996  )
         9           Fe1 tau(   9) = (   0.5016667   0.0000000   0.0000000  )
        10           Fe2 tau(  10) = (   0.7524996   0.2508338   0.2508338  )
        11           Fe1 tau(  11) = (   0.5016667   0.0000000   0.5016667  )
        12           Fe2 tau(  12) = (   0.7524996   0.2508338   0.7524996  )
        13           Fe1 tau(  13) = (   0.5016667   0.5016667   0.0000000  )
        14           Fe2 tau(  14) = (   0.7524996   0.7524996   0.2508338  )
        15           Fe1 tau(  15) = (   0.5016667   0.5016667   0.5016667  )
        16           Fe2 tau(  16) = (   0.7524996   0.7524996   0.7524996  )

     number of k points=    35  Marzari-Vanderbilt smearing, width (Ry)=  0.0400
                       cart. coord. in units 2pi/alat
        k(    1) = (   0.0553710   0.0553710   0.0553710), wk =   0.0109739
        k(    2) = (   0.0553710   0.0553710   0.1661130), wk =   0.0329218
        k(    3) = (   0.0553710   0.0553710   0.2768549), wk =   0.0329218
        k(    4) = (   0.0553710   0.0553710   0.3875969), wk =   0.0329218
        k(    5) = (   0.0553710   0.0553710  -0.4983389), wk =   0.0164609
        k(    6) = (   0.0553710   0.1661130   0.1661130), wk =   0.0329218
        k(    7) = (   0.0553710   0.1661130   0.2768549), wk =   0.0658436
        k(    8) = (   0.0553710   0.1661130   0.3875969), wk =   0.0658436
        k(    9) = (   0.0553710   0.1661130  -0.4983389), wk =   0.0329218
        k(   10) = (   0.0553710   0.2768549   0.2768549), wk =   0.0329218
        k(   11) = (   0.0553710   0.2768549   0.3875969), wk =   0.0658436
        k(   12) = (   0.0553710   0.2768549  -0.4983389), wk =   0.0329218
        k(   13) = (   0.0553710   0.3875969   0.3875969), wk =   0.0329218
        k(   14) = (   0.0553710   0.3875969  -0.4983389), wk =   0.0329218
        k(   15) = (   0.0553710  -0.4983389  -0.4983389), wk =   0.0082305
        k(   16) = (   0.1661130   0.1661130   0.1661130), wk =   0.0109739
        k(   17) = (   0.1661130   0.1661130   0.2768549), wk =   0.0329218
        k(   18) = (   0.1661130   0.1661130   0.3875969), wk =   0.0329218
        k(   19) = (   0.1661130   0.1661130  -0.4983389), wk =   0.0164609
        k(   20) = (   0.1661130   0.2768549   0.2768549), wk =   0.0329218
        k(   21) = (   0.1661130   0.2768549   0.3875969), wk =   0.0658436
        k(   22) = (   0.1661130   0.2768549  -0.4983389), wk =   0.0329218
        k(   23) = (   0.1661130   0.3875969   0.3875969), wk =   0.0329218
        k(   24) = (   0.1661130   0.3875969  -0.4983389), wk =   0.0329218
        k(   25) = (   0.1661130  -0.4983389  -0.4983389), wk =   0.0082305
        k(   26) = (   0.2768549   0.2768549   0.2768549), wk =   0.0109739
        k(   27) = (   0.2768549   0.2768549   0.3875969), wk =   0.0329218
        k(   28) = (   0.2768549   0.2768549  -0.4983389), wk =   0.0164609
        k(   29) = (   0.2768549   0.3875969   0.3875969), wk =   0.0329218
        k(   30) = (   0.2768549   0.3875969  -0.4983389), wk =   0.0329218
        k(   31) = (   0.2768549  -0.4983389  -0.4983389), wk =   0.0082305
        k(   32) = (   0.3875969   0.3875969   0.3875969), wk =   0.0109739
        k(   33) = (   0.3875969   0.3875969  -0.4983389), wk =   0.0164609
        k(   34) = (   0.3875969  -0.4983389  -0.4983389), wk =   0.0082305
        k(   35) = (  -0.4983389  -0.4983389  -0.4983389), wk =   0.0013717

     Dense  grid:   180995 G-vectors     FFT dimensions: (  72,  72,  72)

     Smooth grid:    97233 G-vectors     FFT dimensions: (  60,  60,  60)

     Estimated max dynamical RAM per process >      89.13 MB

     Estimated total dynamical RAM >       3.48 GB
     Generating pointlists ...
     new r_m :   0.1792 (alat units)  1.8985 (a.u.) for type    1
     new r_m :   0.1792 (alat units)  1.8985 (a.u.) for type    2

     Check: negative/imaginary core charge=   -0.000006    0.000000

     Initial potential from superposition of free atoms

     starting charge  255.99300, renormalised to  256.00000
     Starting wfcs are  160 randomized atomic wfcs
     Checking if some PAW data can be deallocated... 

     total cpu time spent up to now is        7.9 secs

     Self-consistent Calculation

     iteration #  1     ecut=    71.00 Ry     beta= 0.10
     Davidson diagonalization with overlap
     ethr =  1.00E-02,  avg # of iterations =  3.3

     Threshold (ethr) on eigenvalues was too large:
     Diagonalizing with lowered threshold

     Davidson diagonalization with overlap
     ethr =  1.96E-04,  avg # of iterations =  3.5

     total cpu time spent up to now is       61.9 secs

     total energy              =   -5267.97455449 Ry
     Harris-Foulkes estimate   =   -5268.02096443 Ry
     estimated scf accuracy    <       0.58493807 Ry

     total magnetization       =    28.19 Bohr mag/cell
     absolute magnetization    =    28.30 Bohr mag/cell

     iteration #  2     ecut=    71.00 Ry     beta= 0.10
     Davidson diagonalization with overlap
     ethr =  2.28E-04,  avg # of iterations =  1.0

     total cpu time spent up to now is       77.7 secs

     total energy              =   -5267.96422625 Ry
     Harris-Foulkes estimate   =   -5267.98583141 Ry
     estimated scf accuracy    <       0.34064949 Ry

     total magnetization       =    28.83 Bohr mag/cell
     absolute magnetization    =    28.97 Bohr mag/cell

     iteration #  3     ecut=    71.00 Ry     beta= 0.10
     Davidson diagonalization with overlap
     ethr =  1.33E-04,  avg # of iterations =  3.1

     total cpu time spent up to now is      104.4 secs

     total energy              =   -5268.02321718 Ry
     Harris-Foulkes estimate   =   -5268.02595706 Ry
     estimated scf accuracy    <       0.36151354 Ry

     total magnetization       =    30.11 Bohr mag/cell
     absolute magnetization    =    30.43 Bohr mag/cell

     iteration #  4     ecut=    71.00 Ry     beta= 0.10
     Davidson diagonalization with overlap
     ethr =  1.33E-04,  avg # of iterations =  1.0

     total cpu time spent up to now is      120.2 secs

     total energy              =   -5268.04068896 Ry
     Harris-Foulkes estimate   =   -5268.03188482 Ry
     estimated scf accuracy    <       0.11796595 Ry

     total magnetization       =    30.33 Bohr mag/cell
     absolute magnetization    =    30.68 Bohr mag/cell

     iteration #  5     ecut=    71.00 Ry     beta= 0.10
     Davidson diagonalization with overlap
     ethr =  4.61E-05,  avg # of iterations =  1.2

     total cpu time spent up to now is      136.5 secs

     total energy              =   -5268.12547351 Ry
     Harris-Foulkes estimate   =   -5268.04481661 Ry
     estimated scf accuracy    <       0.10608480 Ry

     total magnetization       =    30.39 Bohr mag/cell
     absolute magnetization    =    30.78 Bohr mag/cell

     iteration #  6     ecut=    71.00 Ry     beta= 0.10
     Davidson diagonalization with overlap
     ethr =  4.14E-05,  avg # of iterations =  3.3

     negative rho (up, down):  0.000E+00 3.513E-03

     total cpu time spent up to now is      164.9 secs

     total energy              =   -5268.14198102 Ry
     Harris-Foulkes estimate   =   -5268.16297514 Ry
     estimated scf accuracy    <       0.22264161 Ry

     total magnetization       =    31.06 Bohr mag/cell
     absolute magnetization    =    31.81 Bohr mag/cell

     iteration #  7     ecut=    71.00 Ry     beta= 0.10
     Davidson diagonalization with overlap
     ethr =  4.14E-05,  avg # of iterations =  2.9

     negative rho (up, down):  0.000E+00 2.112E-03

     total cpu time spent up to now is      191.6 secs

     total energy              =   -5268.18435544 Ry
     Harris-Foulkes estimate   =   -5268.19005393 Ry
     estimated scf accuracy    <       0.01198476 Ry

     total magnetization       =    32.49 Bohr mag/cell
     absolute magnetization    =    34.10 Bohr mag/cell

     iteration #  8     ecut=    71.00 Ry     beta= 0.10
     Davidson diagonalization with overlap
     ethr =  4.68E-06,  avg # of iterations =  2.4

     negative rho (up, down):  0.000E+00 2.010E-03

     total cpu time spent up to now is      214.4 secs

     total energy              =   -5268.18678055 Ry
     Harris-Foulkes estimate   =   -5268.18622476 Ry
     estimated scf accuracy    <       0.00855456 Ry

     total magnetization       =    32.40 Bohr mag/cell
     absolute magnetization    =    33.82 Bohr mag/cell

     iteration #  9     ecut=    71.00 Ry     beta= 0.10
     Davidson diagonalization with overlap
     ethr =  3.34E-06,  avg # of iterations =  1.3

     negative rho (up, down):  0.000E+00 2.464E-03

     total cpu time spent up to now is      231.2 secs

     total energy              =   -5268.18999223 Ry
     Harris-Foulkes estimate   =   -5268.18700616 Ry
     estimated scf accuracy    <       0.00552054 Ry

     total magnetization       =    32.48 Bohr mag/cell
     absolute magnetization    =    33.93 Bohr mag/cell

     iteration # 10     ecut=    71.00 Ry     beta= 0.10
     Davidson diagonalization with overlap
     ethr =  2.16E-06,  avg # of iterations =  3.4

     negative rho (up, down):  0.000E+00 2.392E-03

     total cpu time spent up to now is      258.3 secs

     total energy              =   -5268.19156999 Ry
     Harris-Foulkes estimate   =   -5268.19149990 Ry
     estimated scf accuracy    <       0.00085606 Ry

     total magnetization       =    32.81 Bohr mag/cell
     absolute magnetization    =    34.50 Bohr mag/cell

     iteration # 11     ecut=    71.00 Ry     beta= 0.10
     Davidson diagonalization with overlap
     ethr =  3.34E-07,  avg # of iterations =  1.3

     negative rho (up, down):  0.000E+00 2.160E-03

     total cpu time spent up to now is      274.8 secs

     total energy              =   -5268.19179513 Ry
     Harris-Foulkes estimate   =   -5268.19158556 Ry
     estimated scf accuracy    <       0.00070177 Ry

     total magnetization       =    32.82 Bohr mag/cell
     absolute magnetization    =    34.51 Bohr mag/cell

     iteration # 12     ecut=    71.00 Ry     beta= 0.10
     Davidson diagonalization with overlap
     ethr =  2.74E-07,  avg # of iterations =  1.8

     negative rho (up, down):  0.000E+00 2.431E-03

     total cpu time spent up to now is      294.0 secs

     total energy              =   -5268.19194672 Ry
     Harris-Foulkes estimate   =   -5268.19187681 Ry
     estimated scf accuracy    <       0.00072180 Ry

     total magnetization       =    32.88 Bohr mag/cell
     absolute magnetization    =    34.59 Bohr mag/cell

     iteration # 13     ecut=    71.00 Ry     beta= 0.10
     Davidson diagonalization with overlap
     ethr =  2.74E-07,  avg # of iterations =  3.3

     negative rho (up, down):  0.000E+00 2.479E-03

     total cpu time spent up to now is      321.7 secs

     total energy              =   -5268.19218189 Ry
     Harris-Foulkes estimate   =   -5268.19219584 Ry
     estimated scf accuracy    <       0.00015379 Ry

     total magnetization       =    33.03 Bohr mag/cell
     absolute magnetization    =    34.85 Bohr mag/cell

     iteration # 14     ecut=    71.00 Ry     beta= 0.10
     Davidson diagonalization with overlap
     ethr =  6.01E-08,  avg # of iterations =  2.1

     negative rho (up, down):  0.000E+00 2.483E-03

     total cpu time spent up to now is      341.9 secs

     total energy              =   -5268.19220799 Ry
     Harris-Foulkes estimate   =   -5268.19220747 Ry
     estimated scf accuracy    <       0.00014678 Ry

     total magnetization       =    33.06 Bohr mag/cell
     absolute magnetization    =    34.88 Bohr mag/cell

     iteration # 15     ecut=    71.00 Ry     beta= 0.10
     Davidson diagonalization with overlap
     ethr =  5.73E-08,  avg # of iterations =  1.0

     negative rho (up, down):  0.000E+00 2.494E-03

     total cpu time spent up to now is      357.7 secs

     total energy              =   -5268.19223620 Ry
     Harris-Foulkes estimate   =   -5268.19221804 Ry
     estimated scf accuracy    <       0.00002394 Ry

     total magnetization       =    33.08 Bohr mag/cell
     absolute magnetization    =    34.91 Bohr mag/cell

     iteration # 16     ecut=    71.00 Ry     beta= 0.10
     Davidson diagonalization with overlap
     ethr =  9.35E-09,  avg # of iterations =  2.9

     negative rho (up, down):  0.000E+00 2.500E-03

     total cpu time spent up to now is      382.0 secs

     total energy              =   -5268.19224230 Ry
     Harris-Foulkes estimate   =   -5268.19224027 Ry
     estimated scf accuracy    <       0.00000789 Ry

     total magnetization       =    33.07 Bohr mag/cell
     absolute magnetization    =    34.89 Bohr mag/cell

     iteration # 17     ecut=    71.00 Ry     beta= 0.10
     Davidson diagonalization with overlap
     ethr =  3.08E-09,  avg # of iterations =  3.2

     negative rho (up, down):  0.000E+00 2.509E-03

     total cpu time spent up to now is      409.0 secs

     total energy              =   -5268.19224621 Ry
     Harris-Foulkes estimate   =   -5268.19224492 Ry
     estimated scf accuracy    <       0.00000426 Ry

     total magnetization       =    33.09 Bohr mag/cell
     absolute magnetization    =    34.91 Bohr mag/cell

     iteration # 18     ecut=    71.00 Ry     beta= 0.10
     Davidson diagonalization with overlap
     ethr =  1.66E-09,  avg # of iterations =  2.2

     negative rho (up, down):  0.000E+00 2.525E-03
 
     Magnetic moment per site:
     atom:    1    charge:   14.3745    magn:    2.1126    constr:    0.0000
     atom:    2    charge:   14.3745    magn:    2.1148    constr:    0.0000
     atom:    3    charge:   14.3745    magn:    2.1134    constr:    0.0000
     atom:    4    charge:   14.3745    magn:    2.1148    constr:    0.0000
     atom:    5    charge:   14.3745    magn:    2.1134    constr:    0.0000
     atom:    6    charge:   14.3745    magn:    2.1148    constr:    0.0000
     atom:    7    charge:   14.3746    magn:    2.1139    constr:    0.0000
     atom:    8    charge:   14.3745    magn:    2.1148    constr:    0.0000
     atom:    9    charge:   14.3745    magn:    2.1134    constr:    0.0000
     atom:   10    charge:   14.3745    magn:    2.1148    constr:    0.0000
     atom:   11    charge:   14.3746    magn:    2.1139    constr:    0.0000
     atom:   12    charge:   14.3745    magn:    2.1148    constr:    0.0000
     atom:   13    charge:   14.3746    magn:    2.1139    constr:    0.0000
     atom:   14    charge:   14.3745    magn:    2.1148    constr:    0.0000
     atom:   15    charge:   14.3746    magn:    2.1144    constr:    0.0000
     atom:   16    charge:   14.3745    magn:    2.1148    constr:    0.0000

     total cpu time spent up to now is      429.8 secs

     End of self-consistent calculation

 ------ SPIN UP ------------


          k = 0.0554 0.0554 0.0554 ( 12113 PWs)   bands (ev):

   -69.3130 -69.2398 -69.2398 -69.2397 -69.2283 -69.2283 -69.2282 -69.2269
   -69.2268 -69.2268 -69.2264 -69.2264 -69.2260 -69.2224 -69.2209 -69.1646
   -35.5295 -35.5294 -35.5294 -35.5271 -35.5271 -35.5271 -35.4056 -35.4056
   -35.4009 -35.3423 -35.3397 -35.3397 -35.3397 -35.3233 -35.3233 -35.3121
   -35.3121 -35.3121 -35.2850 -35.2850 -35.2657 -35.2557 -35.2556 -35.2556
   -35.2465 -35.2465 -35.2465 -35.2372 -35.2372 -35.2372 -35.2344 -35.2344
   -35.2344 -35.2278 -35.2277 -35.2277 -35.2191 -35.2191 -35.2190 -35.0926
   -35.0897 -35.0897 -35.0897 -35.0875 -35.0875 -35.0875 -35.0874 -35.0874
    10.1825  13.7393  13.7393  13.7393  13.7584  13.7585  13.7585  13.7732
    13.7732  13.7732  13.7944  13.7944  14.1820  14.1820  14.1820  15.3550
    15.3685  15.3685  15.3685  15.3810  15.3810  15.3811  15.4390  15.4390
    15.5144  15.5144  15.5144  15.5810  15.5810  15.6355  15.8487  15.8487
    15.8487  16.4870  16.4870  16.5281  16.8108  16.8108  16.8109  16.8887
    16.8887  16.8887  16.9810  16.9810  16.9810  17.0608  17.0608  17.0608
    17.6845  17.6845  17.6871  17.6872  17.6872  17.7278  17.7279  17.7279
    17.7724  17.7724  17.7724  17.7786  17.7786  17.7786  17.8908  17.8909
    17.8909  17.9059  17.9059  17.9060  17.9286  17.9286  17.9301  17.9301
    18.7824  18.7824  18.7824  18.8519  18.8519  18.8519  18.9482  19.0135
    19.0135  19.0359  19.0360  19.0360  19.3501  19.3501  19.3501  19.5566
    19.5566  19.5567

          k = 0.0554 0.0554 0.1661 ( 12136 PWs)   bands (ev):

   -69.3103 -69.2528 -69.2392 -69.2392 -69.2296 -69.2296 -69.2280 -69.2267
   -69.2266 -69.2261 -69.2259 -69.2258 -69.2227 -69.2212 -69.2143 -69.1666
   -35.5236 -35.5236 -35.5225 -35.5206 -35.5169 -35.5169 -35.4082 -35.4005
   -35.3929 -35.3709 -35.3641 -35.3641 -35.3624 -35.3616 -35.3377 -35.3377
   -35.3112 -35.2899 -35.2835 -35.2804 -35.2738 -35.2553 -35.2553 -35.2474
   -35.2420 -35.2402 -35.2402 -35.2389 -35.2366 -35.2325 -35.2325 -35.2282
   -35.2282 -35.2240 -35.2240 -35.2004 -35.1974 -35.1974 -35.1924 -35.1032
   -35.0975 -35.0974 -35.0961 -35.0942 -35.0919 -35.0900 -35.0899 -35.0892
    10.3129  13.2237  13.7566  13.7566  13.8155  13.8155  13.8217  13.8217
    13.8309  13.8491  13.8503  13.8533  14.2186  14.2186  14.4085  15.1844
    15.2503  15.3462  15.3550  15.3664  15.3669  15.4123  15.4123  15.4495
    15.4495  15.4705  15.4974  15.4974  15.7751  15.7765  15.7999  15.7999
    16.1697  16.4661  16.4847  16.5845  16.6205  16.6205  16.6765  16.7683
    16.7802  16.7802  17.0043  17.0043  17.1269  17.1269  17.1892  17.2775
    17.3541  17.3541  17.4732  17.6141  17.6141  17.6260  17.6746  17.7094
    17.7308  17.7308  17.7848  17.7872  17.8066  17.8067  17.8871  17.8871
    17.8930  17.9242  17.9259  17.9270  17.9296  18.0997  18.0997  18.1231
    18.2336  18.4158  18.4722  18.7739  18.7740  18.8036  18.8053  18.8053
    18.8995  19.0067  19.1262  19.1262  19.4129  19.4129  19.4264  19.4264
    19.8804  19.8804

          k = 0.0554 0.0554 0.2769 ( 12128 PWs)   bands (ev):

   -69.3051 -69.2656 -69.2381 -69.2381 -69.2313 -69.2313 -69.2273 -69.2264
   -69.2263 -69.2256 -69.2256 -69.2254 -69.2234 -69.2218 -69.2027 -69.1704
   -35.5099 -35.5099 -35.5088 -35.5074 -35.4986 -35.4986 -35.4082 -35.4030
   -35.3981 -35.3968 -35.3968 -35.3905 -35.3811 -35.3801 -35.3721 -35.3721
   -35.3103 -35.3001 -35.2998 -35.2862 -35.2540 -35.2540 -35.2501 -35.2472
   -35.2461 -35.2433 -35.2433 -35.2311 -35.2311 -35.2281 -35.2281 -35.2115
   -35.2051 -35.1964 -35.1964 -35.1748 -35.1713 -35.1712 -35.1674 -35.1221
   -35.1090 -35.1090 -35.1080 -35.1070 -35.1002 -35.0974 -35.0973 -35.0963
    10.5698  12.6064  13.8038  13.8038  13.8896  13.8896  13.9065  13.9065
    13.9608  13.9636  14.0076  14.0233  14.2515  14.2515  14.4652  14.8711
    15.1028  15.1494  15.2953  15.3324  15.3416  15.3443  15.5106  15.5106
    15.5286  15.5286  15.5725  15.5725  15.7872  15.7873  16.0177  16.0291
    16.3644  16.3644  16.4267  16.4551  16.4827  16.5091  16.5091  16.5767
    16.6675  16.7358  16.8952  16.8952  17.1415  17.1415  17.1870  17.1870
    17.2377  17.2377  17.2698  17.4358  17.4796  17.5108  17.5332  17.6491
    17.6666  17.6666  17.7491  17.7491  17.7567  17.8085  17.8254  17.8973
    17.9138  17.9170  17.9217  17.9294  18.1051  18.1456  18.1456  18.1831
    18.3319  18.3514  18.3514  18.5843  18.6921  18.7725  18.7725  18.8520
    18.8520  18.9445  19.0965  19.0965  19.2939  19.2939  19.5285  19.5285
    19.9664  19.9664

          k = 0.0554 0.0554 0.3876 ( 12124 PWs)   bands (ev):

   -69.2978 -69.2777 -69.2367 -69.2367 -69.2332 -69.2331 -69.2264 -69.2260
   -69.2260 -69.2255 -69.2255 -69.2247 -69.2242 -69.2226 -69.1924 -69.1760
   -35.4888 -35.4886 -35.4886 -35.4881 -35.4733 -35.4733 -35.4347 -35.4325
   -35.4305 -35.4304 -35.4083 -35.4083 -35.4060 -35.3929 -35.3759 -35.3659
   -35.3351 -35.3246 -35.2870 -35.2774 -35.2611 -35.2559 -35.2520 -35.2519
   -35.2464 -35.2464 -35.2300 -35.2300 -35.2286 -35.2286 -35.2124 -35.1785
   -35.1752 -35.1695 -35.1695 -35.1512 -35.1474 -35.1469 -35.1468 -35.1445
   -35.1259 -35.1257 -35.1250 -35.1250 -35.1133 -35.1093 -35.1093 -35.1082
    10.9454  11.9906  13.8662  13.8662  13.9310  13.9310  14.0212  14.0212
    14.1093  14.1229  14.2275  14.2275  14.2546  14.2659  14.4000  14.5844
    14.8509  14.8608  15.2782  15.2938  15.3060  15.3137  15.6590  15.6590
    15.6853  15.6853  15.7435  15.7435  15.8861  15.8861  16.1233  16.1233
    16.2370  16.2370  16.3309  16.3394  16.4302  16.4303  16.4555  16.4837
    16.5003  16.5100  16.6331  16.6331  16.7788  16.8961  17.0831  17.1067
    17.1519  17.3434  17.3611  17.3611  17.3754  17.3754  17.5819  17.5819
    17.6639  17.6639  17.7150  17.8195  17.8250  17.8387  17.8430  17.8958
    17.8978  17.9029  17.9160  17.9313  17.9766  18.0274  18.3117  18.3940
    18.3940  18.4225  18.5253  18.5977  18.5977  18.7241  18.7241  18.8385
    18.9242  18.9242  18.9849  18.9849  19.1545  19.1545  19.6767  19.6767
    19.9387  19.9387

          k = 0.0554 0.0554-0.4983 ( 12154 PWs)   bands (ev):

   -69.2887 -69.2884 -69.2351 -69.2351 -69.2349 -69.2348 -69.2259 -69.2259
   -69.2256 -69.2256 -69.2254 -69.2253 -69.2240 -69.2233 -69.1836 -69.1833
   -35.4636 -35.4634 -35.4633 -35.4630 -35.4618 -35.4617 -35.4617 -35.4617
   -35.4426 -35.4426 -35.4426 -35.4426 -35.4016 -35.4014 -35.3575 -35.3572
   -35.3471 -35.3469 -35.2739 -35.2737 -35.2672 -35.2668 -35.2496 -35.2496
   -35.2493 -35.2493 -35.2293 -35.2293 -35.2290 -35.2290 -35.1787 -35.1784
   -35.1501 -35.1499 -35.1484 -35.1482 -35.1455 -35.1455 -35.1455 -35.1454
   -35.1307 -35.1304 -35.1260 -35.1260 -35.1260 -35.1259 -35.1246 -35.1245
    11.4259  11.4260  13.9187  13.9187  13.9188  13.9188  14.1392  14.1392
    14.1392  14.1393  14.2661  14.2662  14.3324  14.3325  14.5491  14.5493
    14.5533  14.5535  15.2846  15.2848  15.2929  15.2931  15.8451  15.8451
    15.8451  15.8451  15.9112  15.9112  15.9112  15.9112  16.0649  16.0649
    16.0650  16.0650  16.2141  16.2141  16.2142  16.2142  16.4717  16.4718
    16.4916  16.4919  16.7038  16.7040  16.7095  16.7097  16.9180  16.9182
    17.1313  17.1314  17.4787  17.4787  17.4787  17.4788  17.5387  17.5387
    17.5388  17.5388  17.8700  17.8701  17.8706  17.8708  17.9094  17.9095
    17.9130  17.9132  17.9413  17.9414  18.0133  18.0135  18.1222  18.1225
    18.5960  18.5960  18.5960  18.5961  18.6962  18.6964  18.8138  18.8138
    18.8138  18.8138  19.0256  19.0256  19.0257  19.0257  19.8270  19.8270
    19.8271  19.8271

          k = 0.0554 0.1661 0.1661 ( 12134 PWs)   bands (ev):

   -69.3077 -69.2519 -69.2518 -69.2387 -69.2332 -69.2292 -69.2292 -69.2265
   -69.2257 -69.2255 -69.2232 -69.2230 -69.2214 -69.2146 -69.2145 -69.1684
   -35.5221 -35.5169 -35.5168 -35.5109 -35.5109 -35.5020 -35.4132 -35.3975
   -35.3891 -35.3856 -35.3855 -35.3806 -35.3795 -35.3732 -35.3543 -35.3193
   -35.3069 -35.3069 -35.2827 -35.2826 -35.2813 -35.2598 -35.2509 -35.2509
   -35.2478 -35.2454 -35.2454 -35.2368 -35.2368 -35.2321 -35.2309 -35.2258
   -35.2151 -35.2067 -35.2014 -35.2014 -35.1824 -35.1721 -35.1721 -35.1189
   -35.1088 -35.1019 -35.1019 -35.0961 -35.0960 -35.0953 -35.0877 -35.0871
    10.4418  13.2914  13.2914  13.7237  13.8500  13.8500  13.8773  13.9043
    13.9044  13.9055  13.9055  13.9126  14.2656  14.4447  14.4447  15.1566
    15.1902  15.1902  15.2588  15.3963  15.3964  15.4175  15.4297  15.4297
    15.4309  15.4629  15.5325  15.5426  15.7354  15.7731  15.7863  16.0740
    16.0740  16.4136  16.4725  16.4967  16.4967  16.5480  16.6671  16.6762
    16.9296  16.9296  16.9754  16.9755  16.9940  17.0440  17.1701  17.2847
    17.2847  17.2944  17.2944  17.5478  17.5478  17.6179  17.6533  17.6661
    17.6762  17.6762  17.6929  17.7458  17.7458  17.8013  17.8013  17.8722
    17.9174  17.9246  17.9248  17.9348  18.0170  18.2000  18.2424  18.2926
    18.2926  18.3086  18.3086  18.4096  18.4096  18.6117  18.6605  18.6606
    18.8146  18.8654  19.0298  19.1943  19.2181  19.5113  20.0898  20.0898
    20.2560  20.2560

          k = 0.0554 0.1661 0.2769 ( 12139 PWs)   bands (ev):

   -69.3028 -69.2643 -69.2501 -69.2376 -69.2370 -69.2309 -69.2285 -69.2262
   -69.2254 -69.2250 -69.2240 -69.2220 -69.2205 -69.2150 -69.2034 -69.1721
   -35.5129 -35.5041 -35.5037 -35.4992 -35.4938 -35.4797 -35.4178 -35.4158
   -35.4123 -35.4040 -35.4016 -35.4016 -35.3879 -35.3810 -35.3650 -35.3426
   -35.3107 -35.3090 -35.2796 -35.2785 -35.2774 -35.2730 -35.2610 -35.2554
   -35.2547 -35.2494 -35.2439 -35.2353 -35.2327 -35.2225 -35.2198 -35.2033
   -35.2032 -35.1904 -35.1846 -35.1763 -35.1623 -35.1487 -35.1484 -35.1417
   -35.1247 -35.1120 -35.1116 -35.1079 -35.1039 -35.1019 -35.0900 -35.0896
    10.6958  12.6935  13.4069  13.7052  13.8989  13.9588  13.9963  14.0079
    14.0208  14.0268  14.0295  14.0778  14.3174  14.4651  14.5071  14.8943
    15.0486  15.1280  15.2585  15.3489  15.3687  15.3955  15.4324  15.4613
    15.4865  15.5035  15.5393  15.6886  15.6896  15.9265  15.9620  16.0100
    16.2624  16.2774  16.3669  16.3702  16.4115  16.4596  16.4682  16.5842
    16.6933  16.7938  16.8384  16.9340  17.0533  17.1180  17.1536  17.1896
    17.2073  17.2689  17.2739  17.3061  17.3190  17.4701  17.5115  17.5319
    17.5709  17.6847  17.7287  17.7473  17.7750  17.7977  17.8039  17.9030
    17.9131  17.9244  17.9388  17.9445  18.0291  18.1593  18.1638  18.1740
    18.3076  18.3451  18.3588  18.3829  18.4003  18.5064  18.5482  18.6132
    18.7306  18.9937  18.9975  19.0158  19.2024  19.6903  19.8779  20.4330
    20.4988  20.8082

          k = 0.0554 0.1661 0.3876 ( 12128 PWs)   bands (ev):

   -69.2956 -69.2760 -69.2475 -69.2408 -69.2362 -69.2327 -69.2274 -69.2258
   -69.2253 -69.2250 -69.2243 -69.2226 -69.2186 -69.2158 -69.1933 -69.1775
   -35.4966 -35.4847 -35.4844 -35.4822 -35.4705 -35.4509 -35.4463 -35.4371
   -35.4321 -35.4320 -35.4196 -35.4122 -35.4119 -35.3804 -35.3734 -35.3467
   -35.3333 -35.3024 -35.2970 -35.2753 -35.2722 -35.2673 -35.2627 -35.2596
   -35.2532 -35.2531 -35.2381 -35.2345 -35.2334 -35.2145 -35.2061 -35.1942
   -35.1739 -35.1701 -35.1661 -35.1624 -35.1533 -35.1444 -35.1428 -35.1279
   -35.1271 -35.1258 -35.1252 -35.1252 -35.1165 -35.1119 -35.0975 -35.0974
    11.0663  12.0929  13.5325  13.6819  13.9619  14.0151  14.1111  14.1529
    14.1567  14.1847  14.2800  14.3100  14.3156  14.4124  14.4463  14.6220
    14.8583  14.8810  15.3065  15.3369  15.3453  15.3576  15.4527  15.5718
    15.6141  15.6267  15.6763  15.7260  15.8782  15.9757  16.1239  16.1706
    16.1959  16.1976  16.2261  16.2553  16.3378  16.3440  16.3970  16.4037
    16.4097  16.4451  16.5727  16.7372  16.8498  16.9237  16.9332  17.0445
    17.2741  17.3598  17.3683  17.3751  17.3885  17.3905  17.4745  17.4903
    17.6036  17.6595  17.7066  17.7719  17.7979  17.8133  17.8235  17.8809
    17.8890  17.9254  17.9515  17.9652  18.0037  18.0694  18.1059  18.1790
    18.2236  18.2962  18.3494  18.4058  18.4118  18.4927  18.6851  18.7077
    18.7776  18.7837  18.9488  19.1164  19.1857  19.6514  19.9171  20.3614
    20.6452  20.9221

          k = 0.0554 0.1661-0.4983 ( 12136 PWs)   bands (ev):

   -69.2867 -69.2864 -69.2445 -69.2443 -69.2347 -69.2344 -69.2263 -69.2262
   -69.2256 -69.2253 -69.2237 -69.2232 -69.2171 -69.2168 -69.1848 -69.1845
   -35.4738 -35.4738 -35.4611 -35.4609 -35.4606 -35.4604 -35.4598 -35.4598
   -35.4426 -35.4426 -35.4182 -35.4181 -35.4171 -35.4171 -35.3553 -35.3550
   -35.3257 -35.3256 -35.2821 -35.2818 -35.2696 -35.2694 -35.2632 -35.2629
   -35.2570 -35.2568 -35.2341 -35.2339 -35.2101 -35.2098 -35.2032 -35.2030
   -35.1678 -35.1677 -35.1477 -35.1475 -35.1442 -35.1440 -35.1423 -35.1423
   -35.1334 -35.1331 -35.1257 -35.1257 -35.1106 -35.1105 -35.1099 -35.1099
    11.5393  11.5394  13.6292  13.6292  14.0120  14.0120  14.2281  14.2282
    14.2966  14.2967  14.3128  14.3129  14.3830  14.3831  14.5765  14.5766
    14.5914  14.5915  15.3113  15.3115  15.3322  15.3323  15.7336  15.7337
    15.7357  15.7358  15.7623  15.7625  15.7934  15.7935  16.1363  16.1363
    16.1534  16.1534  16.2283  16.2283  16.3299  16.3299  16.3300  16.3301
    16.4279  16.4281  16.5334  16.5335  16.5375  16.5377  17.0936  17.0937
    17.2174  17.2174  17.4180  17.4181  17.5036  17.5036  17.5315  17.5315
    17.5652  17.5652  17.7673  17.7674  17.8521  17.8523  17.8538  17.8541
    17.8879  17.8881  17.9307  17.9308  18.0093  18.0094  18.0589  18.0591
    18.2595  18.2596  18.3732  18.3733  18.5586  18.5586  18.6202  18.6202
    18.8355  18.8356  18.9716  18.9717  19.4149  19.4149  20.1538  20.1539
    20.8349  20.8350

          k = 0.0554 0.2769 0.2769 ( 12115 PWs)   bands (ev):

   -69.2981 -69.2618 -69.2617 -69.2428 -69.2366 -69.2300 -69.2300 -69.2259
   -69.2251 -69.2248 -69.2246 -69.2222 -69.2160 -69.2046 -69.2046 -69.1754
   -35.5082 -35.4926 -35.4925 -35.4846 -35.4846 -35.4537 -35.4287 -35.4287
   -35.4271 -35.4251 -35.4176 -35.4146 -35.3976 -35.3789 -35.3453 -35.3115
   -35.3090 -35.3089 -35.3044 -35.3044 -35.2748 -35.2675 -35.2674 -35.2598
   -35.2598 -35.2489 -35.2488 -35.2425 -35.2425 -35.2376 -35.2092 -35.1846
   -35.1796 -35.1796 -35.1727 -35.1690 -35.1683 -35.1496 -35.1441 -35.1279
   -35.1279 -35.1176 -35.1176 -35.1121 -35.1112 -35.1112 -35.0875 -35.0870
    10.9433  12.8538  12.8538  13.5954  14.0687  14.0809  14.0809  14.0973
    14.1459  14.1489  14.1673  14.1673  14.4107  14.5318  14.5318  14.9920
    14.9937  14.9937  15.0562  15.3895  15.3963  15.4446  15.4447  15.4580
    15.4832  15.4832  15.5497  15.5920  15.8564  15.8804  15.9386  16.1470
    16.1470  16.2297  16.2298  16.2319  16.2781  16.2989  16.3654  16.4293
    16.7131  16.7131  16.8549  16.8549  16.9156  16.9157  16.9511  17.0896
    17.1598  17.1598  17.2646  17.3450  17.4561  17.4562  17.4832  17.5343
    17.7083  17.7208  17.7208  17.7306  17.7306  17.7530  17.7530  17.7870
    17.8400  17.8809  17.8972  17.9349  17.9687  18.0771  18.1258  18.1258
    18.1436  18.1437  18.2023  18.3542  18.4130  18.4130  18.4207  18.7260
    18.7260  18.7742  19.0611  19.2257  19.2413  19.9596  20.5121  20.5121
    21.1524  21.1524

          k = 0.0554 0.2769 0.3876 ( 12138 PWs)   bands (ev):

   -69.2914 -69.2729 -69.2582 -69.2485 -69.2352 -69.2318 -69.2289 -69.2263
   -69.2255 -69.2248 -69.2241 -69.2227 -69.2121 -69.2065 -69.1952 -69.1805
   -35.4965 -35.4764 -35.4763 -35.4719 -35.4654 -35.4553 -35.4405 -35.4362
   -35.4358 -35.4346 -35.4344 -35.4219 -35.4192 -35.3655 -35.3476 -35.3275
   -35.3236 -35.3029 -35.2977 -35.2787 -35.2751 -35.2739 -35.2730 -35.2699
   -35.2695 -35.2648 -35.2517 -35.2421 -35.2402 -35.2201 -35.2012 -35.1998
   -35.1848 -35.1665 -35.1632 -35.1583 -35.1550 -35.1525 -35.1369 -35.1269
   -35.1266 -35.1249 -35.1239 -35.1173 -35.1109 -35.1104 -35.0902 -35.0897
    11.3030  12.2882  13.0595  13.4546  14.1436  14.1615  14.2209  14.2747
    14.2805  14.3171  14.3321  14.3997  14.4504  14.4807  14.4891  14.7454
    14.8752  14.8893  15.2086  15.3576  15.3953  15.3969  15.4216  15.4294
    15.5387  15.5689  15.5696  15.6457  15.8623  15.9635  16.0201  16.0729
    16.0739  16.1521  16.1903  16.2091  16.2124  16.2312  16.3010  16.3465
    16.3941  16.4405  16.5200  16.5732  16.6144  16.6733  17.1265  17.1746
    17.2284  17.3731  17.3998  17.4093  17.4207  17.4493  17.4603  17.5210
    17.6469  17.6564  17.6658  17.6894  17.7536  17.7692  17.7711  17.7751
    17.8486  17.8661  17.8909  17.9508  17.9579  17.9802  18.0071  18.0285
    18.0904  18.1703  18.2001  18.2014  18.2190  18.3845  18.4413  18.5396
    18.8753  18.9263  19.0510  19.1844  19.5463  20.1971  20.2803  20.9140
    21.1755  21.7820

          k = 0.0554 0.2769-0.4983 ( 12140 PWs)   bands (ev):

   -69.2830 -69.2827 -69.2538 -69.2536 -69.2337 -69.2334 -69.2277 -69.2275
   -69.2252 -69.2249 -69.2236 -69.2232 -69.2091 -69.2088 -69.1873 -69.1870
   -35.4783 -35.4783 -35.4568 -35.4567 -35.4567 -35.4565 -35.4565 -35.4562
   -35.4428 -35.4427 -35.4373 -35.4372 -35.3860 -35.3860 -35.3481 -35.3479
   -35.2999 -35.2999 -35.2893 -35.2891 -35.2891 -35.2888 -35.2687 -35.2685
   -35.2616 -35.2614 -35.2416 -35.2415 -35.2368 -35.2367 -35.1923 -35.1923
   -35.1918 -35.1915 -35.1428 -35.1425 -35.1397 -35.1397 -35.1395 -35.1395
   -35.1381 -35.1381 -35.1258 -35.1258 -35.0979 -35.0979 -35.0978 -35.0978
    11.7593  11.7594  13.2716  13.2716  14.1844  14.1845  14.3605  14.3605
    14.3916  14.3916  14.3952  14.3952  14.5188  14.5189  14.6209  14.6210
    14.6575  14.6576  15.3597  15.3598  15.3798  15.3800  15.5112  15.5113
    15.5519  15.5520  15.5917  15.5918  15.7864  15.7865  16.1660  16.1660
    16.1681  16.1682  16.1906  16.1907  16.2755  16.2756  16.2903  16.2904
    16.3287  16.3287  16.3548  16.3549  16.3596  16.3596  17.3135  17.3136
    17.3465  17.3465  17.3947  17.3948  17.4640  17.4641  17.5438  17.5438
    17.5545  17.5545  17.5549  17.5549  17.8102  17.8103  17.8209  17.8211
    17.8412  17.8414  17.9039  17.9041  17.9727  17.9729  17.9766  17.9768
    18.0754  18.0755  18.2213  18.2214  18.2891  18.2891  18.4219  18.4219
    18.9867  18.9868  19.0827  19.0828  19.8718  19.8718  20.6102  20.6102
    21.8541  21.8542

          k = 0.0554 0.3876 0.3876 ( 12134 PWs)   bands (ev):

   -69.2852 -69.2683 -69.2683 -69.2558 -69.2339 -69.2306 -69.2306 -69.2277
   -69.2251 -69.2243 -69.2242 -69.2230 -69.2066 -69.1981 -69.1981 -69.1850
   -35.4892 -35.4652 -35.4652 -35.4585 -35.4585 -35.4579 -35.4578 -35.4463
   -35.4450 -35.4433 -35.4418 -35.4303 -35.3880 -35.3532 -35.3187 -35.3187
   -35.3116 -35.3115 -35.3012 -35.2987 -35.2936 -35.2791 -35.2790 -35.2778
   -35.2660 -35.2511 -35.2510 -35.2465 -35.2464 -35.2461 -35.2366 -35.1916
   -35.1866 -35.1656 -35.1655 -35.1495 -35.1445 -35.1428 -35.1347 -35.1312
   -35.1299 -35.1299 -35.1255 -35.1255 -35.0980 -35.0980 -35.0874 -35.0872
    11.6443  12.5566  12.5566  13.1775  14.3102  14.3160  14.3706  14.3877
    14.3877  14.4756  14.4756  14.5019  14.5038  14.5038  14.5777  14.8311
    14.8577  14.9624  14.9624  15.3516  15.3778  15.3881  15.4558  15.4558
    15.4590  15.4590  15.4742  15.5498  15.7131  15.9534  15.9736  15.9736
    16.0178  16.1001  16.1244  16.1627  16.2339  16.2339  16.2528  16.2528
    16.2680  16.2681  16.3009  16.3440  16.4829  16.8648  16.8648  17.3355
    17.3987  17.4049  17.4050  17.4566  17.4845  17.5032  17.5310  17.5311
    17.5354  17.6443  17.6964  17.6965  17.7065  17.7065  17.7317  17.7797
    17.7797  17.8014  17.8018  17.8264  17.8968  17.8968  17.9448  17.9830
    18.0571  18.0873  18.0874  18.1688  18.2506  18.2506  18.2962  18.3158
    19.0351  19.0351  19.1027  19.1940  19.9452  20.6918  20.7699  20.7699
    21.5142  21.5142

          k = 0.0554 0.3876-0.4983 ( 12146 PWs)   bands (ev):

   -69.2776 -69.2773 -69.2627 -69.2624 -69.2324 -69.2322 -69.2293 -69.2290
   -69.2247 -69.2244 -69.2238 -69.2234 -69.2020 -69.2017 -69.1910 -69.1907
   -35.4763 -35.4762 -35.4547 -35.4547 -35.4534 -35.4533 -35.4531 -35.4530
   -35.4514 -35.4513 -35.4439 -35.4438 -35.3506 -35.3505 -35.3374 -35.3371
   -35.3073 -35.3070 -35.2924 -35.2923 -35.2807 -35.2807 -35.2744 -35.2743
   -35.2726 -35.2725 -35.2598 -35.2596 -35.2496 -35.2496 -35.2185 -35.2184
   -35.1753 -35.1750 -35.1488 -35.1486 -35.1367 -35.1365 -35.1361 -35.1360
   -35.1350 -35.1349 -35.1275 -35.1275 -35.0901 -35.0900 -35.0900 -35.0900
    12.0716  12.0716  12.8663  12.8663  14.3993  14.3993  14.4042  14.4042
    14.4382  14.4382  14.5895  14.5895  14.6459  14.6460  14.7224  14.7225
    14.7269  14.7269  15.2400  15.2401  15.3854  15.3855  15.3939  15.3940
    15.4031  15.4033  15.4655  15.4656  15.8244  15.8244  16.0199  16.0200
    16.0627  16.0629  16.0995  16.0996  16.1013  16.1014  16.1207  16.1208
    16.3039  16.3040  16.3260  16.3261  16.5687  16.5688  17.1491  17.1491
    17.4370  17.4371  17.4649  17.4649  17.5518  17.5518  17.5579  17.5579
    17.5938  17.5938  17.6265  17.6266  17.7186  17.7188  17.7467  17.7468
    17.7704  17.7706  17.7863  17.7865  17.8270  17.8271  18.0237  18.0238
    18.0437  18.0437  18.1301  18.1301  18.1301  18.1302  18.2795  18.2796
    19.0963  19.0963  19.1438  19.1438  20.3575  20.3576  21.1132  21.1132
    21.3556  21.3556

          k = 0.0554-0.4983-0.4983 ( 12156 PWs)   bands (ev):

   -69.2708 -69.2706 -69.2706 -69.2702 -69.2310 -69.2308 -69.2308 -69.2305
   -69.2244 -69.2241 -69.2241 -69.2237 -69.1961 -69.1958 -69.1958 -69.1955
   -35.4680 -35.4680 -35.4679 -35.4679 -35.4521 -35.4519 -35.4519 -35.4518
   -35.4470 -35.4468 -35.4468 -35.4467 -35.3237 -35.3235 -35.3235 -35.3232
   -35.3127 -35.3127 -35.3126 -35.3126 -35.2895 -35.2895 -35.2894 -35.2894
   -35.2561 -35.2561 -35.2560 -35.2560 -35.2455 -35.2455 -35.2454 -35.2454
   -35.1609 -35.1607 -35.1607 -35.1604 -35.1345 -35.1344 -35.1344 -35.1343
   -35.1314 -35.1312 -35.1312 -35.1311 -35.0873 -35.0872 -35.0872 -35.0872
    12.4522  12.4522  12.4522  12.4522  14.4357  14.4357  14.4357  14.4358
    14.5804  14.5805  14.5805  14.5805  14.7284  14.7284  14.7284  14.7284
    14.9701  14.9701  14.9701  14.9703  15.3481  15.3481  15.3481  15.3482
    15.4022  15.4022  15.4022  15.4023  15.9039  15.9039  15.9039  15.9039
    16.0197  16.0199  16.0199  16.0200  16.0649  16.0650  16.0650  16.0652
    16.2946  16.2946  16.2946  16.2948  16.8458  16.8458  16.8458  16.8458
    17.5457  17.5457  17.5457  17.5458  17.5510  17.5511  17.5511  17.5514
    17.6689  17.6690  17.6690  17.6691  17.7033  17.7034  17.7034  17.7035
    17.7634  17.7636  17.7636  17.7638  17.7999  17.7999  17.8000  17.8000
    18.0709  18.0710  18.0710  18.0712  18.1896  18.1896  18.1896  18.1896
    19.1494  19.1494  19.1494  19.1494  20.8550  20.8551  20.8551  20.8551
    21.6289  21.6289

          k = 0.1661 0.1661 0.1661 ( 12149 PWs)   bands (ev):

   -69.3053 -69.2510 -69.2510 -69.2509 -69.2328 -69.2328 -69.2327 -69.2242
   -69.2229 -69.2229 -69.2228 -69.2212 -69.2148 -69.2148 -69.2147 -69.1701
   -35.5152 -35.5152 -35.5152 -35.4972 -35.4972 -35.4972 -35.4078 -35.4078
   -35.4051 -35.3990 -35.3990 -35.3989 -35.3649 -35.3570 -35.3570 -35.3247
   -35.3247 -35.3247 -35.2882 -35.2882 -35.2882 -35.2544 -35.2544 -35.2544
   -35.2441 -35.2441 -35.2321 -35.2320 -35.2320 -35.2293 -35.2293 -35.2293
   -35.2030 -35.2030 -35.2030 -35.1960 -35.1595 -35.1595 -35.1594 -35.1351
   -35.1117 -35.1117 -35.1117 -35.0942 -35.0942 -35.0942 -35.0915 -35.0915
    10.5695  13.3637  13.3637  13.3637  13.8211  13.8211  13.8211  13.9648
    13.9648  13.9919  13.9919  13.9919  14.4947  14.4947  14.4947  15.0783
    15.1789  15.1789  15.1789  15.3451  15.3451  15.4150  15.4151  15.4151
    15.5134  15.5134  15.5134  15.6916  15.6916  15.6965  15.9728  15.9728
    15.9728  16.4033  16.4033  16.4375  16.4375  16.4376  16.7783  16.8035
    16.8035  16.8035  16.9357  16.9357  16.9357  16.9899  16.9899  16.9899
    17.3554  17.3554  17.3554  17.5735  17.5736  17.5736  17.6465  17.6465
    17.6809  17.6809  17.6809  17.8371  17.8371  17.8371  17.8750  17.8750
    17.8750  17.8875  17.8875  17.8875  17.9122  17.9122  17.9378  17.9378
    18.3805  18.3868  18.3868  18.3868  18.4278  18.4278  18.4278  18.8631
    18.8631  18.8631  18.9165  18.9165  19.7330  19.7331  19.7331  20.3819
    20.3819  20.3819

          k = 0.1661 0.1661 0.2769 ( 12136 PWs)   bands (ev):

   -69.3004 -69.2630 -69.2492 -69.2492 -69.2365 -69.2364 -69.2318 -69.2256
   -69.2225 -69.2211 -69.2205 -69.2203 -69.2152 -69.2152 -69.2040 -69.1737
   -35.5063 -35.5063 -35.5017 -35.4876 -35.4765 -35.4764 -35.4226 -35.4208
   -35.4208 -35.4166 -35.4127 -35.3979 -35.3933 -35.3532 -35.3532 -35.3471
   -35.3393 -35.3156 -35.2916 -35.2890 -35.2890 -35.2660 -35.2634 -35.2634
   -35.2571 -35.2504 -35.2343 -35.2226 -35.2226 -35.2089 -35.2080 -35.2080
   -35.2053 -35.2053 -35.1766 -35.1755 -35.1591 -35.1425 -35.1425 -35.1388
   -35.1250 -35.1250 -35.1177 -35.1066 -35.1004 -35.0960 -35.0959 -35.0918
    10.8208  12.7831  13.4879  13.4879  13.8068  13.8068  14.0093  14.0673
    14.0773  14.1074  14.1074  14.1590  14.5389  14.5389  14.5658  14.9008
    15.0035  15.2171  15.2171  15.2192  15.3102  15.3875  15.4643  15.4835
    15.4835  15.5332  15.6409  15.6409  15.7833  15.8823  15.8823  15.8929
    16.1490  16.2780  16.2781  16.3364  16.3476  16.3840  16.5441  16.5442
    16.5754  16.5754  16.8111  16.9153  16.9821  17.0209  17.1104  17.1105
    17.1600  17.1600  17.1957  17.4007  17.4008  17.5566  17.5890  17.6107
    17.6107  17.6473  17.6997  17.7301  17.7732  17.7732  17.8003  17.8803
    17.8951  17.9070  17.9270  17.9631  17.9907  17.9907  18.0210  18.0210
    18.0984  18.1539  18.4952  18.4952  18.5131  18.5211  18.5211  18.5656
    18.7101  18.9308  18.9308  18.9539  19.4400  19.4400  20.3792  20.6010
    20.6010  21.2368

          k = 0.1661 0.1661 0.3876 ( 12131 PWs)   bands (ev):

   -69.2934 -69.2745 -69.2467 -69.2467 -69.2401 -69.2401 -69.2305 -69.2272
   -69.2220 -69.2212 -69.2186 -69.2185 -69.2160 -69.2159 -69.1942 -69.1790
   -35.4911 -35.4911 -35.4819 -35.4744 -35.4497 -35.4497 -35.4459 -35.4459
   -35.4405 -35.4266 -35.4221 -35.4209 -35.3857 -35.3857 -35.3829 -35.3411
   -35.3271 -35.3201 -35.2858 -35.2858 -35.2822 -35.2816 -35.2721 -35.2721
   -35.2573 -35.2508 -35.2409 -35.2165 -35.2165 -35.2081 -35.2081 -35.1885
   -35.1839 -35.1839 -35.1769 -35.1568 -35.1528 -35.1419 -35.1419 -35.1275
   -35.1257 -35.1257 -35.1252 -35.1214 -35.1137 -35.1019 -35.1018 -35.0968
    11.1868  12.1964  13.6246  13.6246  13.7855  13.7855  14.2177  14.2254
    14.2438  14.2438  14.2732  14.3869  14.4996  14.4996  14.5121  14.6414
    14.8688  14.9233  15.3062  15.3541  15.3855  15.3855  15.4071  15.4106
    15.5954  15.5954  15.7761  15.7761  15.8330  15.8330  16.0369  16.1283
    16.1576  16.1577  16.1775  16.1776  16.2561  16.2904  16.2911  16.3363
    16.3363  16.3560  16.6161  16.6161  16.6190  16.7622  17.0745  17.1295
    17.2143  17.3587  17.3587  17.4299  17.4387  17.4387  17.4472  17.5432
    17.5432  17.6807  17.6807  17.7737  17.7899  17.7942  17.8136  17.8593
    17.8711  17.8870  17.8969  17.9008  17.9839  18.0115  18.0744  18.0744
    18.1156  18.1156  18.2589  18.4441  18.6634  18.6634  18.6736  18.6736
    18.7234  18.9037  18.9037  18.9282  19.1698  19.1698  20.8632  20.8632
    21.0608  21.2656

          k = 0.1661 0.1661-0.4983 ( 12130 PWs)   bands (ev):

   -69.2849 -69.2846 -69.2437 -69.2437 -69.2435 -69.2434 -69.2290 -69.2288
   -69.2217 -69.2213 -69.2172 -69.2172 -69.2169 -69.2168 -69.1860 -69.1857
   -35.4703 -35.4702 -35.4702 -35.4702 -35.4583 -35.4581 -35.4566 -35.4564
   -35.4237 -35.4236 -35.4188 -35.4188 -35.4188 -35.4188 -35.3640 -35.3637
   -35.3051 -35.3050 -35.3009 -35.3006 -35.2799 -35.2799 -35.2797 -35.2797
   -35.2472 -35.2469 -35.2221 -35.2220 -35.2118 -35.2118 -35.2116 -35.2116
   -35.1618 -35.1618 -35.1618 -35.1618 -35.1488 -35.1486 -35.1405 -35.1404
   -35.1316 -35.1313 -35.1119 -35.1119 -35.1119 -35.1119 -35.1070 -35.1070
    11.6529  11.6529  13.7300  13.7300  13.7300  13.7300  14.3828  14.3829
    14.3849  14.3850  14.3850  14.3850  14.4111  14.4111  14.5893  14.5895
    14.6429  14.6431  15.3239  15.3241  15.3777  15.3779  15.6594  15.6594
    15.6595  15.6595  15.7317  15.7317  15.7317  15.7317  16.1284  16.1284
    16.1284  16.1284  16.2664  16.2664  16.2664  16.2664  16.2730  16.2731
    16.3171  16.3173  16.3698  16.3699  16.3800  16.3801  17.2528  17.2529
    17.2792  17.2792  17.4847  17.4847  17.4848  17.4848  17.4916  17.4918
    17.5397  17.5397  17.5397  17.5397  17.8418  17.8420  17.8489  17.8491
    17.8658  17.8660  17.8940  17.8941  18.1010  18.1010  18.1202  18.1202
    18.1203  18.1203  18.1511  18.1514  18.8101  18.8102  18.8102  18.8102
    18.8479  18.8480  18.9060  18.9060  18.9061  18.9061  21.1097  21.1097
    21.1097  21.1097

          k = 0.1661 0.2769 0.2769 ( 12118 PWs)   bands (ev):

   -69.2959 -69.2606 -69.2605 -69.2475 -69.2421 -69.2353 -69.2352 -69.2275
   -69.2206 -69.2203 -69.2200 -69.2161 -69.2156 -69.2051 -69.2051 -69.1770
   -35.5014 -35.4936 -35.4935 -35.4702 -35.4702 -35.4521 -35.4321 -35.4315
   -35.4315 -35.4313 -35.4219 -35.4007 -35.3951 -35.3724 -35.3481 -35.3266
   -35.3212 -35.3212 -35.3161 -35.3160 -35.2972 -35.2775 -35.2774 -35.2774
   -35.2388 -35.2323 -35.2323 -35.2265 -35.2265 -35.2104 -35.2082 -35.1958
   -35.1889 -35.1850 -35.1795 -35.1794 -35.1610 -35.1416 -35.1333 -35.1268
   -35.1268 -35.1249 -35.1248 -35.1074 -35.1074 -35.1060 -35.0936 -35.0916
    11.0662  12.9485  12.9485  13.6302  13.7031  14.0028  14.0028  14.1614
    14.1932  14.2314  14.2716  14.2716  14.6159  14.6159  14.6413  14.9744
    14.9744  14.9749  15.1743  15.1837  15.3532  15.4484  15.4484  15.5297
    15.5563  15.5613  15.5613  15.6737  15.7605  15.7855  15.8553  16.0228
    16.0228  16.2036  16.2041  16.2112  16.2113  16.2581  16.3335  16.4077
    16.4586  16.4586  16.7181  16.7182  16.7996  16.7996  16.8689  17.0818
    17.1879  17.1879  17.2467  17.4877  17.5470  17.5655  17.5890  17.5890
    17.6793  17.6800  17.6800  17.7405  17.7565  17.7565  17.7949  17.8433
    17.8734  17.8735  17.8735  17.9020  17.9252  17.9252  17.9296  17.9918
    18.0726  18.1549  18.1549  18.5120  18.6052  18.6156  18.6156  18.6830
    18.6830  18.7094  18.9465  19.0130  19.1136  20.0017  20.0017  20.8835
    21.7025  21.7026

          k = 0.1661 0.2769 0.3876 ( 12135 PWs)   bands (ev):

   -69.2893 -69.2714 -69.2571 -69.2476 -69.2451 -69.2388 -69.2337 -69.2296
   -69.2202 -69.2199 -69.2185 -69.2162 -69.2124 -69.2069 -69.1961 -69.1819
   -35.4902 -35.4805 -35.4750 -35.4617 -35.4532 -35.4479 -35.4464 -35.4419
   -35.4362 -35.4301 -35.4254 -35.4228 -35.3965 -35.3819 -35.3551 -35.3412
   -35.3354 -35.3111 -35.3043 -35.2992 -35.2959 -35.2905 -35.2879 -35.2868
   -35.2567 -35.2374 -35.2314 -35.2202 -35.2167 -35.2116 -35.2072 -35.2002
   -35.1845 -35.1704 -35.1701 -35.1611 -35.1560 -35.1482 -35.1386 -35.1308
   -35.1241 -35.1241 -35.1185 -35.1118 -35.1107 -35.1104 -35.0956 -35.0937
    11.4224  12.3941  13.1611  13.5650  13.7920  13.9842  14.2777  14.2891
    14.3547  14.3612  14.4079  14.4925  14.5661  14.5795  14.6543  14.7474
    14.9055  14.9391  15.1812  15.2781  15.3465  15.4058  15.4518  15.4757
    15.5406  15.6206  15.6311  15.6894  15.8174  15.8248  15.8937  15.9829
    15.9987  16.0993  16.1074  16.1445  16.1516  16.1828  16.1984  16.2320
    16.2888  16.3265  16.3956  16.4423  16.4547  16.5028  16.9205  17.2690
    17.2699  17.3715  17.3906  17.4807  17.4915  17.5109  17.5462  17.5476
    17.6325  17.6644  17.6691  17.6892  17.7343  17.7620  17.7717  17.8263
    17.8414  17.8744  17.8989  17.9023  17.9084  17.9486  17.9741  17.9933
    18.0569  18.0742  18.2879  18.3560  18.3676  18.5449  18.6343  18.8158
    18.8214  18.8253  18.9506  19.0014  19.0093  19.6559  20.6033  21.2180
    21.7941  21.8552

          k = 0.1661 0.2769-0.4983 ( 12118 PWs)   bands (ev):

   -69.2812 -69.2809 -69.2528 -69.2525 -69.2423 -69.2420 -69.2318 -69.2316
   -69.2202 -69.2198 -69.2174 -69.2170 -69.2094 -69.2091 -69.1884 -69.1881
   -35.4735 -35.4735 -35.4639 -35.4638 -35.4521 -35.4520 -35.4519 -35.4517
   -35.4353 -35.4352 -35.4224 -35.4224 -35.3898 -35.3898 -35.3635 -35.3632
   -35.3163 -35.3161 -35.3021 -35.3019 -35.2958 -35.2956 -35.2808 -35.2808
   -35.2512 -35.2512 -35.2354 -35.2352 -35.2155 -35.2154 -35.1915 -35.1912
   -35.1830 -35.1830 -35.1532 -35.1532 -35.1456 -35.1453 -35.1381 -35.1379
   -35.1356 -35.1353 -35.1161 -35.1161 -35.1016 -35.1016 -35.1000 -35.1000
    11.8733  11.8733  13.3796  13.3796  13.9197  13.9197  14.4371  14.4372
    14.4836  14.4836  14.5419  14.5420  14.5498  14.5498  14.6053  14.6055
    14.7290  14.7291  15.3670  15.3671  15.4204  15.4205  15.4811  15.4813
    15.5030  15.5032  15.6331  15.6332  15.7484  15.7485  16.0943  16.0943
    16.1055  16.1057  16.1333  16.1334  16.1393  16.1394  16.1589  16.1590
    16.2083  16.2083  16.2397  16.2398  16.2406  16.2407  17.1812  17.1813
    17.3785  17.3786  17.4780  17.4780  17.5117  17.5117  17.5374  17.5374
    17.5416  17.5416  17.5903  17.5904  17.8045  17.8047  17.8254  17.8256
    17.8396  17.8398  17.9037  17.9039  17.9375  17.9377  18.0452  18.0453
    18.0944  18.0947  18.1728  18.1728  18.5469  18.5469  18.5988  18.5988
    18.9078  18.9079  18.9393  18.9393  19.3233  19.3233  21.2230  21.2231
    21.5450  21.5450

          k = 0.1661 0.3876 0.3876 ( 12139 PWs)   bands (ev):

   -69.2834 -69.2669 -69.2668 -69.2547 -69.2428 -69.2369 -69.2369 -69.2322
   -69.2194 -69.2186 -69.2185 -69.2167 -69.2069 -69.1989 -69.1988 -69.1862
   -35.4829 -35.4658 -35.4658 -35.4540 -35.4540 -35.4496 -35.4458 -35.4458
   -35.4429 -35.4406 -35.4333 -35.4112 -35.3912 -35.3713 -35.3363 -35.3344
   -35.3344 -35.3209 -35.3209 -35.3091 -35.3074 -35.3067 -35.3067 -35.2802
   -35.2499 -35.2316 -35.2312 -35.2312 -35.2244 -35.2244 -35.2155 -35.1857
   -35.1826 -35.1630 -35.1630 -35.1568 -35.1561 -35.1418 -35.1367 -35.1367
   -35.1294 -35.1230 -35.1230 -35.1228 -35.1012 -35.1011 -35.0932 -35.0922
    11.7617  12.6658  12.6658  13.2911  13.9951  14.2585  14.2585  14.3820
    14.4571  14.5351  14.5617  14.5617  14.6243  14.6243  14.7941  14.8320
    14.9287  14.9657  14.9658  15.2185  15.3869  15.4134  15.4758  15.4758
    15.4868  15.4868  15.5477  15.5856  15.6884  15.7491  15.9302  15.9360
    15.9361  16.0156  16.0739  16.0845  16.0846  16.1185  16.1338  16.1338
    16.1475  16.1561  16.1561  16.2340  16.3192  16.6331  16.6331  17.1659
    17.4198  17.4198  17.4789  17.4825  17.5292  17.5347  17.6384  17.6398
    17.6936  17.6936  17.7176  17.7176  17.7179  17.7333  17.7333  17.7948
    17.8032  17.8628  17.8628  17.8785  17.9158  17.9554  17.9554  17.9914
    17.9915  18.0390  18.1185  18.1697  18.3988  18.3988  18.4556  18.5315
    18.9260  18.9260  18.9848  19.0413  19.3790  20.1799  20.1799  21.2780
    21.6333  22.4072

          k = 0.1661 0.3876-0.4983 ( 12138 PWs)   bands (ev):

   -69.2759 -69.2756 -69.2614 -69.2611 -69.2402 -69.2399 -69.2348 -69.2346
   -69.2190 -69.2187 -69.2177 -69.2173 -69.2026 -69.2023 -69.1920 -69.1917
   -35.4705 -35.4705 -35.4564 -35.4564 -35.4495 -35.4495 -35.4489 -35.4487
   -35.4442 -35.4440 -35.4282 -35.4281 -35.3564 -35.3564 -35.3549 -35.3547
   -35.3244 -35.3243 -35.3227 -35.3225 -35.3117 -35.3116 -35.2853 -35.2853
   -35.2556 -35.2556 -35.2282 -35.2281 -35.2194 -35.2193 -35.2064 -35.2063
   -35.1730 -35.1728 -35.1454 -35.1454 -35.1446 -35.1444 -35.1392 -35.1390
   -35.1377 -35.1376 -35.1225 -35.1225 -35.0953 -35.0952 -35.0948 -35.0947
    12.1859  12.1859  12.9788  12.9788  14.1685  14.1685  14.4823  14.4824
    14.5246  14.5247  14.5689  14.5690  14.7456  14.7457  14.7564  14.7565
    14.8352  14.8353  15.2435  15.2437  15.3481  15.3483  15.3923  15.3923
    15.4192  15.4193  15.5318  15.5319  15.7956  15.7956  15.8926  15.8928
    15.9840  15.9841  15.9910  15.9911  15.9944  15.9945  16.0349  16.0350
    16.1875  16.1876  16.1910  16.1911  16.3713  16.3713  16.8754  16.8755
    17.4860  17.4861  17.5534  17.5535  17.5897  17.5898  17.6037  17.6038
    17.6979  17.6979  17.7242  17.7242  17.7412  17.7413  17.7788  17.7790
    17.8215  17.8216  17.8220  17.8222  17.9329  17.9330  17.9360  17.9362
    18.0005  18.0006  18.2267  18.2267  18.2530  18.2530  18.4176  18.4176
    18.9811  18.9812  19.0092  19.0093  19.7741  19.7742  20.7220  20.7220
    22.0516  22.0516

          k = 0.1661-0.4983-0.4983 ( 12100 PWs)   bands (ev):

   -69.2693 -69.2690 -69.2690 -69.2687 -69.2377 -69.2375 -69.2375 -69.2372
   -69.2183 -69.2180 -69.2180 -69.2176 -69.1969 -69.1967 -69.1967 -69.1963
   -35.4620 -35.4619 -35.4619 -35.4619 -35.4503 -35.4502 -35.4502 -35.4500
   -35.4357 -35.4356 -35.4356 -35.4354 -35.3410 -35.3408 -35.3408 -35.3405
   -35.3226 -35.3225 -35.3225 -35.3225 -35.3209 -35.3209 -35.3209 -35.3209
   -35.2307 -35.2306 -35.2306 -35.2306 -35.2234 -35.2234 -35.2234 -35.2234
   -35.1573 -35.1571 -35.1571 -35.1568 -35.1401 -35.1399 -35.1399 -35.1399
   -35.1305 -35.1304 -35.1304 -35.1303 -35.0927 -35.0926 -35.0926 -35.0926
    12.5663  12.5663  12.5663  12.5663  14.4150  14.4150  14.4150  14.4150
    14.5180  14.5180  14.5180  14.5181  14.8907  14.8907  14.8907  14.8907
    14.9880  14.9881  14.9881  14.9882  15.2954  15.2954  15.2954  15.2955
    15.4614  15.4614  15.4614  15.4615  15.8670  15.8671  15.8671  15.8673
    15.8764  15.8764  15.8765  15.8765  15.9771  15.9772  15.9772  15.9773
    16.1681  16.1682  16.1682  16.1683  16.5988  16.5989  16.5989  16.5989
    17.5572  17.5573  17.5573  17.5574  17.6640  17.6642  17.6642  17.6643
    17.7551  17.7552  17.7552  17.7554  17.7600  17.7602  17.7602  17.7604
    17.7785  17.7786  17.7786  17.7787  17.9657  17.9658  17.9658  17.9660
    17.9840  17.9840  17.9841  17.9841  18.2963  18.2963  18.2963  18.2963
    19.0214  19.0214  19.0214  19.0214  20.2416  20.2417  20.2417  20.2417
    22.5738  22.5738

          k = 0.2769 0.2769 0.2769 ( 12124 PWs)   bands (ev):

   -69.2916 -69.2582 -69.2582 -69.2581 -69.2407 -69.2407 -69.2406 -69.2304
   -69.2189 -69.2162 -69.2162 -69.2161 -69.2062 -69.2062 -69.2061 -69.1801
   -35.4883 -35.4883 -35.4883 -35.4499 -35.4499 -35.4499 -35.4386 -35.4386
   -35.4385 -35.4366 -35.4114 -35.4114 -35.3834 -35.3834 -35.3423 -35.3422
   -35.3422 -35.3258 -35.3257 -35.3257 -35.3044 -35.2946 -35.2946 -35.2946
   -35.2123 -35.2123 -35.2123 -35.2112 -35.2111 -35.2111 -35.2110 -35.2047
   -35.2047 -35.1806 -35.1806 -35.1806 -35.1510 -35.1386 -35.1386 -35.1386
   -35.1195 -35.1195 -35.1195 -35.1059 -35.1058 -35.1058 -35.1012 -35.1012
    11.3071  13.1244  13.1244  13.1244  13.9119  13.9119  13.9119  14.2807
    14.2807  14.3936  14.3936  14.3936  14.7445  14.7445  14.7445  14.9671
    14.9671  14.9671  14.9867  15.3471  15.3471  15.3527  15.4936  15.4936
    15.4936  15.6697  15.6697  15.6697  15.6782  15.6782  15.8976  15.8977
    15.8977  16.1150  16.1150  16.1150  16.1469  16.1469  16.1469  16.2192
    16.2192  16.4779  16.4779  16.4779  16.5358  16.5358  16.5358  17.2685
    17.2839  17.2839  17.2839  17.4741  17.6231  17.6231  17.6515  17.6515
    17.6515  17.6858  17.6858  17.6858  17.7343  17.7344  17.7344  17.8486
    17.8486  17.8486  17.8695  17.8695  17.9656  17.9657  17.9657  17.9884
    17.9884  18.3124  18.3125  18.3125  18.6526  18.6526  18.6526  18.7245
    18.7246  18.7246  18.7415  18.7415  19.5937  19.5937  19.5937  21.8562
    21.9930  21.9930

          k = 0.2769 0.2769 0.3876 ( 12117 PWs)   bands (ev):

   -69.2854 -69.2684 -69.2549 -69.2548 -69.2458 -69.2458 -69.2385 -69.2332
   -69.2178 -69.2164 -69.2128 -69.2128 -69.2078 -69.2078 -69.1977 -69.1846
   -35.4781 -35.4781 -35.4691 -35.4503 -35.4503 -35.4465 -35.4400 -35.4393
   -35.4249 -35.4249 -35.4247 -35.4159 -35.3958 -35.3687 -35.3687 -35.3626
   -35.3522 -35.3274 -35.3274 -35.3163 -35.3099 -35.3099 -35.3094 -35.2811
   -35.2417 -35.2340 -35.2137 -35.2105 -35.2004 -35.2004 -35.1900 -35.1900
   -35.1846 -35.1846 -35.1733 -35.1557 -35.1533 -35.1533 -35.1435 -35.1371
   -35.1234 -35.1151 -35.1139 -35.1139 -35.1093 -35.1063 -35.1063 -35.0998
    11.6556  12.5966  13.3522  13.3522  13.7790  13.7790  14.2083  14.4078
    14.4367  14.5253  14.5254  14.6109  14.7184  14.7512  14.7512  14.7588
    14.9655  14.9738  15.1250  15.1251  15.3663  15.4485  15.5015  15.5450
    15.5756  15.5756  15.5791  15.7030  15.7030  15.7899  15.7899  15.8125
    15.9157  15.9157  16.0060  16.0259  16.0259  16.0592  16.0669  16.1259
    16.1640  16.1858  16.2364  16.2364  16.2471  16.2471  16.6272  17.1534
    17.3590  17.4182  17.4182  17.4818  17.5447  17.6487  17.6487  17.6670
    17.6670  17.7013  17.7013  17.7014  17.7578  17.7677  17.8333  17.8552
    17.8658  17.8659  17.8669  17.8669  17.9287  17.9483  17.9565  17.9565
    18.0014  18.0875  18.4548  18.4815  18.5935  18.5935  18.6748  18.6748
    18.7529  18.7530  18.7579  18.8110  19.2403  19.2403  20.1262  21.2555
    22.3334  22.3334

          k = 0.2769 0.2769-0.4983 ( 12124 PWs)   bands (ev):

   -69.2777 -69.2774 -69.2508 -69.2508 -69.2505 -69.2505 -69.2362 -69.2359
   -69.2171 -69.2168 -69.2102 -69.2101 -69.2099 -69.2098 -69.1906 -69.1903
   -35.4646 -35.4645 -35.4645 -35.4645 -35.4449 -35.4446 -35.4434 -35.4432
   -35.4347 -35.4346 -35.3972 -35.3972 -35.3972 -35.3971 -35.3759 -35.3756
   -35.3396 -35.3394 -35.3216 -35.3216 -35.3215 -35.3215 -35.2753 -35.2753
   -35.2575 -35.2574 -35.2136 -35.2134 -35.1912 -35.1912 -35.1910 -35.1910
   -35.1706 -35.1706 -35.1705 -35.1705 -35.1461 -35.1458 -35.1388 -35.1387
   -35.1336 -35.1334 -35.1093 -35.1093 -35.1092 -35.1092 -35.1026 -35.1025
    12.0943  12.0944  13.5862  13.5862  13.5862  13.5862  14.5694  14.5695
    14.5701  14.5702  14.5977  14.5977  14.6525  14.6526  14.6526  14.6526
    14.8369  14.8371  15.4028  15.4030  15.4143  15.4143  15.4144  15.4144
    15.4603  15.4605  15.6817  15.6818  15.6818  15.6818  15.8607  15.8608
    15.9443  15.9443  16.0438  16.0438  16.0438  16.0439  16.0506  16.0506
    16.0507  16.0507  16.0715  16.0715  16.0931  16.0933  16.8609  16.8610
    17.4522  17.4523  17.5542  17.5542  17.5543  17.5543  17.6727  17.6727
    17.6728  17.6728  17.7101  17.7101  17.7939  17.7941  17.7980  17.7982
    17.8612  17.8614  17.8719  17.8721  17.9148  17.9149  17.9150  17.9150
    18.2009  18.2012  18.2402  18.2402  18.7245  18.7246  18.7246  18.7246
    18.8141  18.8142  18.9097  18.9098  18.9098  18.9098  20.6820  20.6821
    22.6320  22.6321

          k = 0.2769 0.3876 0.3876 ( 12107 PWs)   bands (ev):

   -69.2797 -69.2641 -69.2640 -69.2525 -69.2517 -69.2434 -69.2433 -69.2368
   -69.2159 -69.2135 -69.2134 -69.2091 -69.2078 -69.2003 -69.2002 -69.1885
   -35.4704 -35.4607 -35.4607 -35.4491 -35.4477 -35.4476 -35.4364 -35.4290
   -35.4280 -35.4280 -35.4195 -35.3975 -35.3927 -35.3868 -35.3699 -35.3534
   -35.3534 -35.3392 -35.3376 -35.3376 -35.3325 -35.3325 -35.3296 -35.2720
   -35.2572 -35.2114 -35.2113 -35.2002 -35.2001 -35.1990 -35.1862 -35.1832
   -35.1731 -35.1706 -35.1625 -35.1600 -35.1600 -35.1465 -35.1464 -35.1412
   -35.1226 -35.1222 -35.1221 -35.1169 -35.1069 -35.1069 -35.1045 -35.1022
    11.9907  12.8752  12.8752  13.5114  13.6047  14.0806  14.0806  14.5166
    14.6001  14.6230  14.7272  14.7272  14.7466  14.7466  14.7898  14.9483
    14.9684  14.9685  15.0450  15.0788  15.4163  15.4471  15.5172  15.5189
    15.5189  15.5421  15.5443  15.5443  15.6436  15.6884  15.7292  15.8470
    15.8470  15.8706  15.8706  15.9045  15.9207  15.9501  15.9501  15.9936
    15.9936  16.0240  16.0519  16.0733  16.0868  16.3475  16.3476  16.8339
    17.4727  17.4727  17.5058  17.5789  17.6558  17.6911  17.6992  17.6992
    17.7099  17.7232  17.7914  17.7914  17.7968  17.7996  17.8055  17.8538
    17.8538  17.8577  17.8634  17.8634  17.9059  17.9059  17.9297  17.9704
    18.1415  18.2665  18.2665  18.3757  18.4968  18.4969  18.5610  18.7589
    18.7590  18.7782  18.8004  18.8912  18.9454  19.7076  19.7076  20.7118
    22.7481  23.3716

          k = 0.2769 0.3876-0.4983 ( 12140 PWs)   bands (ev):

   -69.2727 -69.2724 -69.2589 -69.2586 -69.2480 -69.2477 -69.2404 -69.2401
   -69.2147 -69.2143 -69.2112 -69.2109 -69.2038 -69.2035 -69.1939 -69.1936
   -35.4592 -35.4592 -35.4529 -35.4528 -35.4399 -35.4398 -35.4398 -35.4395
   -35.4321 -35.4319 -35.4075 -35.4074 -35.3761 -35.3758 -35.3678 -35.3678
   -35.3544 -35.3543 -35.3451 -35.3450 -35.3410 -35.3410 -35.3048 -35.3048
   -35.2339 -35.2338 -35.1991 -35.1989 -35.1913 -35.1912 -35.1900 -35.1900
   -35.1697 -35.1695 -35.1586 -35.1585 -35.1423 -35.1422 -35.1420 -35.1418
   -35.1392 -35.1389 -35.1201 -35.1201 -35.1053 -35.1053 -35.1035 -35.1035
    12.4074  12.4074  13.1957  13.1957  13.8687  13.8687  14.4397  14.4398
    14.6297  14.6297  14.6908  14.6908  14.7902  14.7903  14.8821  14.8821
    14.9716  14.9717  15.2471  15.2473  15.3082  15.3083  15.4156  15.4157
    15.4621  15.4622  15.6022  15.6023  15.6922  15.6923  15.7429  15.7430
    15.7786  15.7787  15.8525  15.8526  15.8966  15.8967  15.9384  15.9384
    15.9893  15.9894  16.0248  16.0249  16.1054  16.1055  16.5531  16.5531
    17.5367  17.5367  17.5829  17.5830  17.6071  17.6072  17.7466  17.7468
    17.7588  17.7590  17.8084  17.8085  17.8156  17.8158  17.8173  17.8173
    17.8604  17.8605  17.8960  17.8962  17.9079  17.9080  17.9828  17.9828
    18.1435  18.1437  18.2846  18.2847  18.5137  18.5137  18.5709  18.5710
    18.7902  18.7902  18.7918  18.7918  19.3180  19.3181  20.1997  20.1997
    23.1437  23.1437

          k = 0.2769-0.4983-0.4983 ( 12140 PWs)   bands (ev):

   -69.2664 -69.2662 -69.2662 -69.2658 -69.2445 -69.2443 -69.2443 -69.2440
   -69.2128 -69.2126 -69.2126 -69.2122 -69.1985 -69.1982 -69.1982 -69.1979
   -35.4500 -35.4500 -35.4500 -35.4500 -35.4427 -35.4425 -35.4425 -35.4424
   -35.4196 -35.4194 -35.4194 -35.4193 -35.3645 -35.3643 -35.3643 -35.3641
   -35.3546 -35.3546 -35.3546 -35.3546 -35.3364 -35.3364 -35.3364 -35.3364
   -35.2113 -35.2112 -35.2112 -35.2112 -35.1926 -35.1925 -35.1925 -35.1925
   -35.1520 -35.1518 -35.1518 -35.1515 -35.1488 -35.1487 -35.1487 -35.1487
   -35.1323 -35.1321 -35.1321 -35.1320 -35.1036 -35.1035 -35.1035 -35.1035
    12.7872  12.7872  12.7872  12.7872  14.1808  14.1809  14.1809  14.1809
    14.6748  14.6748  14.6748  14.6749  15.0221  15.0222  15.0222  15.0223
    15.0740  15.0740  15.0740  15.0740  15.2404  15.2405  15.2405  15.2406
    15.5281  15.5282  15.5282  15.5282  15.7059  15.7061  15.7061  15.7062
    15.7937  15.7937  15.7937  15.7938  15.8254  15.8254  15.8254  15.8254
    15.9850  15.9851  15.9851  15.9852  16.2887  16.2888  16.2888  16.2888
    17.5939  17.5939  17.5939  17.5940  17.6773  17.6774  17.6774  17.6776
    17.7521  17.7523  17.7523  17.7525  17.8771  17.8772  17.8772  17.8774
    17.9025  17.9026  17.9026  17.9027  17.9809  17.9811  17.9811  17.9812
    18.2677  18.2677  18.2677  18.2677  18.3603  18.3603  18.3603  18.3604
    18.8052  18.8052  18.8052  18.8052  19.7492  19.7493  19.7493  19.7494
    23.6666  23.6666

          k = 0.3876 0.3876 0.3876 ( 12136 PWs)   bands (ev):

   -69.2744 -69.2602 -69.2602 -69.2601 -69.2496 -69.2496 -69.2495 -69.2415
   -69.2132 -69.2091 -69.2091 -69.2090 -69.2025 -69.2025 -69.2024 -69.1920
   -35.4522 -35.4521 -35.4521 -35.4424 -35.4424 -35.4424 -35.4273 -35.4129
   -35.4129 -35.4064 -35.4064 -35.4064 -35.4012 -35.4012 -35.3671 -35.3671
   -35.3671 -35.3593 -35.3593 -35.3593 -35.3542 -35.3542 -35.3542 -35.2993
   -35.2341 -35.1918 -35.1918 -35.1918 -35.1798 -35.1798 -35.1798 -35.1694
   -35.1694 -35.1599 -35.1599 -35.1599 -35.1588 -35.1587 -35.1587 -35.1442
   -35.1217 -35.1216 -35.1216 -35.1169 -35.1169 -35.1141 -35.1141 -35.1140
    12.3178  13.1648  13.1648  13.1648  13.8224  13.8224  13.8224  14.5615
    14.6927  14.6927  14.8526  14.8526  14.8526  14.9393  14.9393  14.9393
    14.9805  14.9805  14.9805  15.1862  15.4631  15.4631  15.4813  15.4813
    15.5302  15.5302  15.5302  15.5848  15.5849  15.5849  15.6801  15.6801
    15.6801  15.7839  15.7840  15.7840  15.8169  15.8169  15.8169  15.8499
    15.8499  15.8500  15.9557  15.9557  16.0725  16.0725  16.0725  16.5131
    17.5514  17.5514  17.5514  17.6518  17.6518  17.6944  17.6944  17.6944
    17.8013  17.8013  17.8065  17.8065  17.8065  17.8310  17.8310  17.8310
    17.8839  17.8839  17.8840  17.9911  18.0094  18.0094  18.0094  18.1103
    18.1103  18.5231  18.5231  18.5397  18.5398  18.5398  18.5913  18.5913
    18.5913  18.6135  18.6135  18.6135  19.3055  19.3055  19.3055  20.2111
    23.9950  23.9950

          k = 0.3876 0.3876-0.4983 ( 12122 PWs)   bands (ev):

   -69.2680 -69.2677 -69.2554 -69.2554 -69.2551 -69.2550 -69.2459 -69.2456
   -69.2110 -69.2107 -69.2055 -69.2055 -69.2052 -69.2052 -69.1968 -69.1965
   -35.4440 -35.4440 -35.4440 -35.4439 -35.4300 -35.4299 -35.4290 -35.4287
   -35.4167 -35.4166 -35.3920 -35.3918 -35.3829 -35.3829 -35.3828 -35.3828
   -35.3786 -35.3784 -35.3676 -35.3676 -35.3675 -35.3675 -35.3292 -35.3292
   -35.2122 -35.2122 -35.1751 -35.1750 -35.1741 -35.1741 -35.1740 -35.1740
   -35.1660 -35.1660 -35.1658 -35.1658 -35.1500 -35.1499 -35.1432 -35.1429
   -35.1366 -35.1363 -35.1194 -35.1194 -35.1194 -35.1194 -35.1143 -35.1142
    12.7207  12.7207  13.4987  13.4987  13.4987  13.4987  14.1939  14.1939
    14.8080  14.8081  14.8707  14.8708  14.9228  14.9228  14.9228  14.9228
    15.1121  15.1122  15.2424  15.2424  15.2426  15.2426  15.4661  15.4662
    15.5102  15.5102  15.5220  15.5222  15.5964  15.5964  15.6758  15.6758
    15.6758  15.6759  15.7874  15.7875  15.7876  15.7876  15.8398  15.8398
    15.8398  15.8399  15.8699  15.8700  15.8739  15.8741  16.2412  16.2413
    17.6032  17.6033  17.6357  17.6357  17.6358  17.6358  17.7375  17.7377
    17.7455  17.7457  17.8052  17.8053  17.8067  17.8067  17.8069  17.8069
    17.9831  17.9831  17.9831  17.9832  18.0224  18.0225  18.2572  18.2574
    18.2796  18.2797  18.3023  18.3025  18.5544  18.5545  18.5545  18.5545
    18.6025  18.6026  18.9385  18.9386  18.9386  18.9386  19.7470  19.7471
    24.3173  24.3173

          k = 0.3876-0.4983-0.4983 ( 12124 PWs)   bands (ev):

   -69.2623 -69.2620 -69.2620 -69.2617 -69.2511 -69.2509 -69.2509 -69.2505
   -69.2080 -69.2078 -69.2078 -69.2074 -69.2008 -69.2006 -69.2006 -69.2002
   -35.4327 -35.4327 -35.4327 -35.4327 -35.4290 -35.4288 -35.4288 -35.4287
   -35.3998 -35.3997 -35.3997 -35.3996 -35.3882 -35.3880 -35.3880 -35.3878
   -35.3841 -35.3841 -35.3841 -35.3841 -35.3561 -35.3560 -35.3560 -35.3560
   -35.1922 -35.1921 -35.1921 -35.1920 -35.1646 -35.1645 -35.1645 -35.1645
   -35.1604 -35.1603 -35.1603 -35.1603 -35.1458 -35.1457 -35.1457 -35.1454
   -35.1356 -35.1355 -35.1355 -35.1353 -35.1194 -35.1193 -35.1193 -35.1193
    13.0984  13.0984  13.0984  13.0984  13.8525  13.8525  13.8525  13.8525
    14.8895  14.8895  14.8895  14.8896  15.0692  15.0692  15.0692  15.0693
    15.1829  15.1830  15.1830  15.1831  15.2269  15.2269  15.2269  15.2270
    15.6019  15.6019  15.6019  15.6019  15.6159  15.6160  15.6160  15.6161
    15.6366  15.6367  15.6367  15.6368  15.7572  15.7572  15.7573  15.7573
    15.8084  15.8085  15.8085  15.8086  15.9793  15.9794  15.9794  15.9795
    17.6511  17.6512  17.6512  17.6513  17.6985  17.6987  17.6987  17.6988
    17.7392  17.7394  17.7394  17.7396  17.7970  17.7971  17.7971  17.7973
    18.0782  18.0782  18.0782  18.0783  18.1690  18.1691  18.1691  18.1693
    18.3636  18.3637  18.3637  18.3638  18.5510  18.5510  18.5510  18.5510
    18.5983  18.5984  18.5984  18.5984  19.3316  19.3317  19.3317  19.3317
    24.8535  24.8536

          k =-0.4983-0.4983-0.4983 ( 12160 PWs)   bands (ev):

   -69.2572 -69.2569 -69.2569 -69.2569 -69.2567 -69.2567 -69.2567 -69.2562
   -69.2042 -69.2040 -69.2040 -69.2040 -69.2037 -69.2037 -69.2037 -69.2033
   -35.4108 -35.4108 -35.4108 -35.4107 -35.4107 -35.4107 -35.4107 -35.4107
   -35.4105 -35.4105 -35.4104 -35.4104 -35.4104 -35.4103 -35.4103 -35.4103
   -35.3781 -35.3780 -35.3780 -35.3780 -35.3779 -35.3779 -35.3779 -35.3779
   -35.1755 -35.1754 -35.1754 -35.1754 -35.1753 -35.1753 -35.1753 -35.1753
   -35.1399 -35.1399 -35.1399 -35.1399 -35.1399 -35.1399 -35.1398 -35.1398
   -35.1396 -35.1396 -35.1396 -35.1396 -35.1396 -35.1394 -35.1394 -35.1394
    13.4699  13.4699  13.4699  13.4699  13.4699  13.4699  13.4699  13.4699
    15.1242  15.1242  15.1242  15.1242  15.1242  15.1243  15.1243  15.1243
    15.1243  15.1243  15.1243  15.1244  15.1244  15.1244  15.1244  15.1244
    15.6803  15.6803  15.6803  15.6803  15.6803  15.6803  15.6803  15.6803
    15.6805  15.6805  15.6805  15.6805  15.6805  15.6806  15.6806  15.6806
    15.7088  15.7089  15.7089  15.7089  15.7090  15.7090  15.7090  15.7090
    17.7209  17.7209  17.7209  17.7209  17.7209  17.7210  17.7210  17.7210
    17.7210  17.7210  17.7210  17.7211  17.7211  17.7211  17.7213  17.7213
    18.2992  18.2992  18.2992  18.2992  18.2992  18.2992  18.2993  18.2993
    18.2994  18.2994  18.2995  18.2995  18.2995  18.2996  18.2996  18.2996
    18.9536  18.9537  18.9537  18.9537  18.9538  18.9538  18.9538  18.9538
    26.0019  26.0019

 ------ SPIN DOWN ----------


          k = 0.0554 0.0554 0.0554 ( 12113 PWs)   bands (ev):

   -66.8094 -66.7299 -66.7299 -66.7299 -66.7171 -66.7171 -66.7171 -66.7159
   -66.7159 -66.7159 -66.7157 -66.7157 -66.7156 -66.7105 -66.7099 -66.6487
   -33.1127 -33.1127 -33.1127 -33.1102 -33.1102 -33.1102 -32.9736 -32.9736
   -32.9684 -32.9060 -32.9038 -32.9038 -32.9038 -32.8851 -32.8851 -32.8735
   -32.8735 -32.8735 -32.8428 -32.8428 -32.8215 -32.8089 -32.8089 -32.8089
   -32.7990 -32.7990 -32.7990 -32.7880 -32.7880 -32.7880 -32.7852 -32.7852
   -32.7852 -32.7783 -32.7783 -32.7783 -32.7690 -32.7689 -32.7689 -32.6304
   -32.6276 -32.6276 -32.6276 -32.6252 -32.6252 -32.6252 -32.6247 -32.6247
    10.3252  14.2409  14.2410  14.2410  14.8794  14.8794  14.8794  14.9150
    14.9150  14.9150  14.9552  14.9552  14.9552  15.5988  15.5988  16.6385
    16.7130  16.7130  16.8104  16.8104  16.8252  16.9092  16.9092  16.9092
    16.9219  16.9219  16.9219  17.6567  17.6567  17.6567  18.0343  18.0343
    18.0343  18.2148  18.2148  18.2607  18.4762  18.4762  18.4762  18.6226
    18.6226  18.6226  18.6568  18.6568  18.6568  18.7618  18.7618  18.7618
    19.1522  19.1522  19.1522  19.1941  19.1941  19.1941  19.5308  19.5308
    19.5308  19.7732  19.7732  19.7732  20.2468  20.2468  20.2468  20.2711
    20.2711  20.2711  20.4398  20.4398  20.7128  20.7128  20.7128  20.7573
    20.7573  20.7581  20.7581  20.8503  20.8503  20.8503  20.9254  21.0062
    21.0062  21.2647  21.2647  21.2647  21.3654  21.3654  21.3654  21.4108
    21.4108  21.4108

          k = 0.0554 0.0554 0.1661 ( 12136 PWs)   bands (ev):

   -66.8064 -66.7440 -66.7293 -66.7293 -66.7187 -66.7187 -66.7169 -66.7157
   -66.7156 -66.7154 -66.7150 -66.7150 -66.7110 -66.7103 -66.7024 -66.6507
   -33.1062 -33.1062 -33.1050 -33.1030 -33.0989 -33.0989 -32.9765 -32.9679
   -32.9597 -32.9374 -32.9303 -32.9303 -32.9285 -32.9273 -32.9014 -32.9014
   -32.8716 -32.8482 -32.8395 -32.8387 -32.8290 -32.8085 -32.8085 -32.8014
   -32.7935 -32.7914 -32.7914 -32.7903 -32.7895 -32.7831 -32.7831 -32.7788
   -32.7788 -32.7746 -32.7746 -32.7483 -32.7454 -32.7454 -32.7397 -32.6422
   -32.6361 -32.6361 -32.6347 -32.6326 -32.6295 -32.6279 -32.6279 -32.6266
    10.4564  13.5402  14.3108  14.3109  14.8871  14.8871  14.9362  14.9362
    15.0113  15.0114  15.0114  15.0502  15.3890  15.6463  15.6648  16.5453
    16.6223  16.6647  16.7373  16.8850  16.8965  16.9339  16.9579  16.9579
    16.9613  16.9959  16.9959  17.2613  17.5594  17.5594  17.8546  17.8546
    18.1885  18.2082  18.2491  18.2747  18.2747  18.3214  18.3397  18.4442
    18.4442  18.6946  18.8050  18.8050  18.8673  18.8674  18.8737  18.8738
    18.8814  18.8908  18.9050  18.9194  18.9194  18.9814  19.2941  19.7486
    19.7486  19.9862  19.9862  20.0138  20.1683  20.1683  20.2362  20.2362
    20.2724  20.2934  20.3629  20.4708  20.7156  20.7184  20.7209  20.7448
    20.7537  20.7559  20.7775  20.7995  20.7995  20.8598  20.9996  21.0729
    21.0839  21.0839  21.2639  21.2639  21.2795  21.2795  21.4522  21.4522
    21.5856  21.5856

          k = 0.0554 0.0554 0.2769 ( 12128 PWs)   bands (ev):

   -66.8008 -66.7581 -66.7281 -66.7281 -66.7206 -66.7206 -66.7161 -66.7153
   -66.7153 -66.7147 -66.7146 -66.7146 -66.7117 -66.7109 -66.6899 -66.6548
   -33.0910 -33.0910 -33.0899 -33.0883 -33.0787 -33.0787 -32.9768 -32.9729
   -32.9676 -32.9663 -32.9662 -32.9570 -32.9476 -32.9467 -32.9393 -32.9393
   -32.8689 -32.8588 -32.8578 -32.8439 -32.8070 -32.8070 -32.8026 -32.8020
   -32.7985 -32.7949 -32.7949 -32.7816 -32.7816 -32.7786 -32.7786 -32.7618
   -32.7547 -32.7444 -32.7444 -32.7203 -32.7169 -32.7169 -32.7123 -32.6631
   -32.6488 -32.6488 -32.6478 -32.6467 -32.6387 -32.6359 -32.6359 -32.6344
    10.7157  12.8368  14.4349  14.4349  14.8583  14.8583  15.0277  15.0277
    15.0765  15.0765  15.1968  15.2325  15.7218  15.7294  15.7954  16.3699
    16.3902  16.6578  16.6839  16.8417  16.8511  16.8835  17.0664  17.0664
    17.1297  17.1297  17.1384  17.1690  17.4655  17.4655  17.7005  17.7005
    17.9985  17.9985  18.1498  18.1498  18.1692  18.1985  18.2415  18.2452
    18.3602  18.3602  18.4111  18.4273  18.4273  18.5054  18.5126  19.0183
    19.0700  19.1494  19.1593  19.1593  19.1742  19.1742  19.2558  20.0412
    20.0412  20.0432  20.0432  20.1373  20.1373  20.2114  20.2453  20.2712
    20.2712  20.3225  20.3396  20.4739  20.5287  20.5998  20.6500  20.6544
    20.7210  20.7445  20.7481  20.7513  20.9132  20.9132  20.9292  20.9313
    21.1262  21.1262  21.1752  21.1752  21.2594  21.2594  21.5749  21.5749
    21.6313  21.6313

          k = 0.0554 0.0554 0.3876 ( 12124 PWs)   bands (ev):

   -66.7928 -66.7711 -66.7266 -66.7266 -66.7227 -66.7227 -66.7152 -66.7150
   -66.7149 -66.7145 -66.7145 -66.7138 -66.7126 -66.7117 -66.6786 -66.6609
   -33.0677 -33.0675 -33.0675 -33.0670 -33.0507 -33.0507 -33.0079 -33.0055
   -33.0033 -33.0033 -32.9791 -32.9791 -32.9748 -32.9613 -32.9409 -32.9300
   -32.8961 -32.8847 -32.8444 -32.8339 -32.8151 -32.8096 -32.8047 -32.8047
   -32.7984 -32.7984 -32.7805 -32.7805 -32.7792 -32.7792 -32.7635 -32.7254
   -32.7217 -32.7150 -32.7150 -32.6945 -32.6913 -32.6902 -32.6902 -32.6873
   -32.6674 -32.6672 -32.6663 -32.6663 -32.6530 -32.6491 -32.6491 -32.6475
    11.0965  12.1756  14.5824  14.5825  14.8076  14.8076  15.1132  15.1132
    15.1325  15.1325  15.4557  15.4860  15.8234  15.8749  15.9877  16.0890
    16.0962  16.5388  16.6833  16.6934  16.7865  16.7938  17.2300  17.2300
    17.3169  17.3169  17.4045  17.4339  17.4641  17.4641  17.6244  17.6244
    17.7457  17.7457  17.8524  17.8524  17.9458  17.9458  18.0318  18.0318
    18.0995  18.1188  18.1586  18.1884  18.1902  18.2081  18.5321  18.8649
    19.3777  19.4159  19.4159  19.4579  19.4771  19.4771  19.5734  19.8694
[...]
   -32.6600 -32.6600 -32.6600 -32.6452 -32.6452 -32.6452 -32.6397 -32.6397
    11.4637  13.4191  13.4191  13.4191  14.6572  14.6572  14.6572  15.7282
    15.7282  15.7282  16.0291  16.0291  16.0291  16.0657  16.0707  16.0707
    16.3357  16.7754  16.7754  16.8234  16.8234  16.8234  17.0169  17.0169
    17.0364  17.0364  17.0364  17.2232  17.2232  17.2232  17.6204  17.6204
    17.6204  17.6562  17.6562  17.6562  17.6782  17.6782  17.6782  17.6867
    17.6867  17.6867  17.9035  17.9035  18.1297  18.1297  18.1297  19.0499
    19.1597  19.5877  19.5877  19.5877  19.6759  19.6759  19.6759  19.9433
    19.9433  19.9433  20.0156  20.0156  20.0156  20.2546  20.2546  20.2546
    20.3311  20.3311  20.5422  20.5422  20.6170  20.6170  20.6426  20.6426
    20.6426  20.6697  20.6697  20.6697  20.6779  20.6779  20.8245  20.8245
    20.8245  20.8826  20.8826  20.8826  21.3235  21.3235  21.3235  23.2914
    23.4148  23.4148

          k = 0.2769 0.2769 0.3876 ( 12117 PWs)   bands (ev):

   -66.7793 -66.7609 -66.7462 -66.7462 -66.7365 -66.7365 -66.7285 -66.7227
   -66.7061 -66.7046 -66.7007 -66.7007 -66.6953 -66.6953 -66.6845 -66.6702
   -33.0555 -33.0555 -33.0457 -33.0246 -33.0246 -33.0210 -33.0137 -33.0122
   -32.9974 -32.9974 -32.9954 -32.9870 -32.9632 -32.9354 -32.9354 -32.9280
   -32.9153 -32.8882 -32.8882 -32.8762 -32.8700 -32.8689 -32.8689 -32.8369
   -32.7952 -32.7854 -32.7633 -32.7604 -32.7484 -32.7484 -32.7371 -32.7371
   -32.7312 -32.7312 -32.7195 -32.6995 -32.6970 -32.6970 -32.6862 -32.6792
   -32.6645 -32.6550 -32.6539 -32.6539 -32.6488 -32.6457 -32.6457 -32.6383
    11.8215  12.8204  13.6900  13.6900  14.3450  14.3450  14.9572  15.7146
    15.9073  15.9073  15.9452  16.1012  16.1013  16.1826  16.2144  16.2201
    16.3170  16.6026  16.8263  16.8627  16.8627  16.9027  16.9268  16.9678
    17.0740  17.1363  17.1364  17.1685  17.2748  17.2748  17.3898  17.4451
    17.4451  17.4827  17.4827  17.5063  17.5599  17.5599  17.5767  17.5767
    17.6728  17.7031  17.7893  17.8461  17.8746  17.8747  18.2593  18.7952
    19.2738  19.6856  19.6856  19.7664  19.8084  19.8439  19.8439  19.8566
    19.8566  19.8591  20.1016  20.1823  20.1823  20.2020  20.3127  20.3127
    20.3309  20.3838  20.4139  20.4329  20.5245  20.5645  20.6266  20.6266
    20.6306  20.6425  20.6770  20.7245  20.7245  20.7253  20.7474  20.7702
    20.7960  20.7960  20.8634  20.8634  21.0268  21.0268  21.7835  22.7768
    23.7098  23.7098

          k = 0.2769 0.2769-0.4983 ( 12124 PWs)   bands (ev):

   -66.7708 -66.7707 -66.7418 -66.7417 -66.7416 -66.7416 -66.7258 -66.7257
   -66.7052 -66.7051 -66.6978 -66.6978 -66.6977 -66.6976 -66.6767 -66.6766
   -33.0404 -33.0404 -33.0403 -33.0403 -33.0189 -33.0187 -33.0175 -33.0174
   -33.0067 -33.0067 -32.9668 -32.9668 -32.9668 -32.9667 -32.9413 -32.9411
   -32.9022 -32.9022 -32.8818 -32.8818 -32.8817 -32.8817 -32.8323 -32.8322
   -32.8111 -32.8110 -32.7634 -32.7634 -32.7384 -32.7384 -32.7383 -32.7383
   -32.7159 -32.7158 -32.7158 -32.7158 -32.6895 -32.6893 -32.6810 -32.6809
   -32.6753 -32.6751 -32.6489 -32.6489 -32.6488 -32.6488 -32.6413 -32.6413
    12.2797  12.2797  14.0105  14.0105  14.0105  14.0105  15.3223  15.3224
    16.0505  16.0505  16.0506  16.0506  16.1695  16.1696  16.2547  16.2548
    16.3949  16.3950  16.8939  16.8941  16.9529  16.9530  17.0403  17.0404
    17.0404  17.0404  17.1210  17.1211  17.2754  17.2754  17.2754  17.2755
    17.3371  17.3371  17.5283  17.5283  17.5284  17.5284  17.6439  17.6439
    17.6440  17.6440  17.7088  17.7088  17.7780  17.7782  18.4826  18.4827
    19.5147  19.5147  19.7610  19.7610  19.7610  19.7610  20.0369  20.0369
    20.0369  20.0370  20.0407  20.0408  20.0824  20.0825  20.2637  20.2638
    20.4243  20.4244  20.5501  20.5501  20.5617  20.5617  20.5617  20.5617
    20.6215  20.6215  20.6390  20.6391  20.7882  20.7884  20.8024  20.8024
    20.8024  20.8024  20.8166  20.8166  20.8167  20.8167  22.2744  22.2745
    23.9425  23.9425

          k = 0.2769 0.3876 0.3876 ( 12107 PWs)   bands (ev):

   -66.7731 -66.7562 -66.7562 -66.7437 -66.7428 -66.7338 -66.7338 -66.7266
   -66.7040 -66.7014 -66.7014 -66.6968 -66.6953 -66.6872 -66.6872 -66.6745
   -33.0467 -33.0363 -33.0363 -33.0233 -33.0214 -33.0214 -33.0097 -33.0007
   -33.0007 -33.0003 -32.9908 -32.9672 -32.9599 -32.9553 -32.9359 -32.9167
   -32.9167 -32.9013 -32.9011 -32.9011 -32.8941 -32.8941 -32.8906 -32.8286
   -32.8108 -32.7605 -32.7605 -32.7485 -32.7485 -32.7476 -32.7332 -32.7296
   -32.7185 -32.7159 -32.7074 -32.7043 -32.7043 -32.6894 -32.6894 -32.6836
   -32.6632 -32.6631 -32.6631 -32.6572 -32.6462 -32.6462 -32.6437 -32.6409
    12.1681  13.1255  13.1255  13.9196  13.9697  14.6443  14.6443  15.3840
    16.1089  16.1212  16.1212  16.2497  16.2933  16.3038  16.3038  16.3466
    16.3966  16.6888  16.6888  16.8154  16.9040  16.9199  16.9343  17.0599
    17.0600  17.0919  17.0919  17.1495  17.1555  17.2175  17.3119  17.3119
    17.3276  17.3676  17.3676  17.4135  17.4992  17.4992  17.5021  17.5248
    17.6076  17.6076  17.6551  17.6743  17.7530  17.9525  17.9525  18.4329
    19.5239  19.8122  19.8433  19.8433  19.8442  19.9962  20.0002  20.0002
    20.0299  20.0299  20.0653  20.0653  20.2027  20.2294  20.2685  20.2685
    20.2854  20.3472  20.4148  20.4710  20.5305  20.5544  20.5758  20.6087
    20.6248  20.6248  20.6288  20.6288  20.6644  20.6926  20.6962  20.6962
    20.7434  20.7684  20.7684  20.8588  20.8647  21.4321  21.4321  22.3151
    24.0857  24.5734

          k = 0.2769 0.3876-0.4983 ( 12140 PWs)   bands (ev):

   -66.7655 -66.7653 -66.7506 -66.7504 -66.7387 -66.7386 -66.7305 -66.7303
   -66.7026 -66.7024 -66.6989 -66.6987 -66.6909 -66.6908 -66.6803 -66.6801
   -33.0343 -33.0342 -33.0275 -33.0274 -33.0131 -33.0129 -33.0125 -33.0125
   -33.0050 -33.0049 -32.9780 -32.9780 -32.9416 -32.9415 -32.9344 -32.9344
   -32.9186 -32.9185 -32.9077 -32.9076 -32.9035 -32.9034 -32.8649 -32.8648
   -32.7852 -32.7852 -32.7475 -32.7474 -32.7388 -32.7387 -32.7371 -32.7371
   -32.7148 -32.7147 -32.7026 -32.7026 -32.6849 -32.6848 -32.6847 -32.6847
   -32.6814 -32.6812 -32.6608 -32.6607 -32.6444 -32.6444 -32.6424 -32.6424
    12.6093  12.6093  13.5014  13.5014  14.3008  14.3008  15.0049  15.0050
    16.2535  16.2536  16.2559  16.2559  16.3263  16.3264  16.3524  16.3525
    16.5143  16.5144  16.9010  16.9011  16.9134  16.9135  16.9410  16.9410
    16.9788  16.9789  17.0907  17.0908  17.1857  17.1858  17.2483  17.2483
    17.3225  17.3227  17.3392  17.3392  17.4679  17.4680  17.5450  17.5451
    17.5694  17.5694  17.6752  17.6753  17.6940  17.6940  18.1371  18.1371
    19.7899  19.7900  19.8212  19.8213  19.9524  19.9524  20.0574  20.0576
    20.1340  20.1340  20.1394  20.1395  20.1439  20.1439  20.2064  20.2065
    20.3708  20.3708  20.3709  20.3709  20.5021  20.5021  20.5816  20.5816
    20.5855  20.5856  20.6165  20.6166  20.6242  20.6243  20.6641  20.6641
    20.7750  20.7751  20.8254  20.8254  21.1046  21.1046  21.8679  21.8680
    24.4214  24.4214

          k = 0.2769-0.4983-0.4983 ( 12140 PWs)   bands (ev):

   -66.7587 -66.7585 -66.7585 -66.7584 -66.7349 -66.7348 -66.7348 -66.7346
   -66.7005 -66.7004 -66.7004 -66.7003 -66.6852 -66.6850 -66.6850 -66.6849
   -33.0239 -33.0239 -33.0239 -33.0238 -33.0162 -33.0161 -33.0161 -33.0160
   -32.9913 -32.9912 -32.9912 -32.9911 -32.9289 -32.9288 -32.9288 -32.9286
   -32.9187 -32.9187 -32.9187 -32.9187 -32.8998 -32.8998 -32.8998 -32.8997
   -32.7604 -32.7603 -32.7603 -32.7603 -32.7403 -32.7403 -32.7403 -32.7403
   -32.6954 -32.6952 -32.6952 -32.6951 -32.6919 -32.6918 -32.6918 -32.6917
   -32.6741 -32.6740 -32.6740 -32.6739 -32.6425 -32.6425 -32.6425 -32.6424
    13.0242  13.0242  13.0242  13.0243  14.6465  14.6466  14.6466  14.6466
    16.3508  16.3509  16.3509  16.3510  16.3963  16.3963  16.3963  16.3964
    16.7109  16.7110  16.7110  16.7111  16.8475  16.8475  16.8475  16.8476
    17.0873  17.0873  17.0873  17.0874  17.1596  17.1598  17.1598  17.1599
    17.3229  17.3230  17.3230  17.3230  17.4367  17.4367  17.4367  17.4367
    17.5986  17.5988  17.5988  17.5989  17.8600  17.8600  17.8600  17.8600
    19.9350  19.9351  19.9351  19.9352  20.0803  20.0804  20.0804  20.0804
    20.1073  20.1073  20.1073  20.1074  20.1859  20.1860  20.1860  20.1861
    20.2640  20.2641  20.2641  20.2641  20.4978  20.4979  20.4979  20.4980
    20.5874  20.5874  20.5874  20.5875  20.6219  20.6220  20.6220  20.6221
    20.8108  20.8108  20.8108  20.8109  21.4772  21.4773  21.4773  21.4773
    24.8939  24.8939

          k = 0.3876 0.3876 0.3876 ( 12136 PWs)   bands (ev):

   -66.7674 -66.7521 -66.7520 -66.7520 -66.7405 -66.7405 -66.7405 -66.7317
   -66.7011 -66.6967 -66.6967 -66.6967 -66.6895 -66.6895 -66.6895 -66.6783
   -33.0266 -33.0266 -33.0266 -33.0156 -33.0156 -33.0156 -32.9997 -32.9825
   -32.9825 -32.9768 -32.9768 -32.9768 -32.9704 -32.9704 -32.9321 -32.9321
   -32.9321 -32.9249 -32.9249 -32.9249 -32.9181 -32.9181 -32.9181 -32.8588
   -32.7854 -32.7390 -32.7390 -32.7390 -32.7261 -32.7261 -32.7261 -32.7150
   -32.7150 -32.7043 -32.7043 -32.7043 -32.7028 -32.7028 -32.7028 -32.6868
   -32.6625 -32.6625 -32.6625 -32.6571 -32.6571 -32.6540 -32.6540 -32.6540
    12.5065  13.4323  13.4323  13.4323  14.2263  14.2263  14.2263  15.0037
    16.3301  16.3301  16.3301  16.4428  16.4428  16.4879  16.4879  16.4879
    16.5730  16.6869  16.6869  16.6869  16.9732  16.9732  16.9832  16.9832
    17.1086  17.1086  17.1086  17.1403  17.1403  17.1403  17.2302  17.2302
    17.2302  17.2991  17.2992  17.2992  17.4171  17.4172  17.4172  17.4195
    17.4195  17.4195  17.5993  17.5993  17.6441  17.6441  17.6441  18.0615
    19.7962  20.0010  20.0010  20.0011  20.0346  20.0346  20.0346  20.1192
    20.1192  20.1192  20.2916  20.2916  20.2916  20.3366  20.3366  20.3705
    20.3705  20.3705  20.4014  20.4014  20.4773  20.4773  20.5090  20.5090
    20.5616  20.5616  20.5616  20.6029  20.6029  20.6029  20.6530  20.6530
    20.6530  20.6651  20.6651  20.6651  21.0688  21.0688  21.0688  21.8834
    25.1721  25.1721

          k = 0.3876 0.3876-0.4983 ( 12122 PWs)   bands (ev):

   -66.7604 -66.7602 -66.7468 -66.7467 -66.7466 -66.7466 -66.7364 -66.7362
   -66.6986 -66.6985 -66.6928 -66.6927 -66.6926 -66.6926 -66.6834 -66.6833
   -33.0175 -33.0175 -33.0174 -33.0174 -33.0016 -33.0016 -33.0010 -33.0008
   -32.9881 -32.9880 -32.9595 -32.9593 -32.9509 -32.9509 -32.9508 -32.9508
   -32.9452 -32.9451 -32.9328 -32.9328 -32.9327 -32.9327 -32.8917 -32.8917
   -32.7614 -32.7613 -32.7211 -32.7211 -32.7196 -32.7195 -32.7195 -32.7195
   -32.7109 -32.7109 -32.7108 -32.7108 -32.6931 -32.6930 -32.6861 -32.6860
   -32.6786 -32.6784 -32.6600 -32.6600 -32.6599 -32.6599 -32.6542 -32.6542
    12.9351  12.9351  13.8094  13.8094  13.8094  13.8094  14.6000  14.6001
    16.4813  16.4813  16.4813  16.4813  16.5438  16.5438  16.5531  16.5532
    16.5593  16.5594  16.8619  16.8620  16.8620  16.8620  16.9955  16.9956
    17.0492  17.0492  17.0555  17.0556  17.1046  17.1047  17.2588  17.2589
    17.2589  17.2589  17.3432  17.3433  17.3434  17.3434  17.3922  17.3923
    17.3923  17.3923  17.4817  17.4818  17.5118  17.5120  17.7727  17.7727
    20.0476  20.0476  20.0477  20.0477  20.0856  20.0857  20.2190  20.2191
    20.2328  20.2328  20.2329  20.2329  20.2354  20.2355  20.2360  20.2361
    20.3978  20.3979  20.4594  20.4595  20.5067  20.5067  20.5396  20.5397
    20.5405  20.5405  20.5406  20.5406  20.5970  20.5971  20.6309  20.6309
    20.6309  20.6310  20.7363  20.7364  20.7364  20.7364  21.4705  21.4706
    25.4598  25.4599

          k = 0.3876-0.4983-0.4983 ( 12124 PWs)   bands (ev):

   -66.7541 -66.7540 -66.7540 -66.7538 -66.7420 -66.7419 -66.7419 -66.7417
   -66.6954 -66.6952 -66.6952 -66.6951 -66.6877 -66.6875 -66.6875 -66.6874
   -33.0048 -33.0047 -33.0047 -33.0047 -33.0009 -33.0008 -33.0008 -33.0006
   -32.9695 -32.9694 -32.9694 -32.9693 -32.9554 -32.9552 -32.9552 -32.9551
   -32.9512 -32.9512 -32.9512 -32.9512 -32.9214 -32.9213 -32.9213 -32.9213
   -32.7394 -32.7393 -32.7393 -32.7392 -32.7095 -32.7095 -32.7095 -32.7095
   -32.7045 -32.7045 -32.7045 -32.7044 -32.6888 -32.6886 -32.6886 -32.6885
   -32.6777 -32.6776 -32.6776 -32.6775 -32.6599 -32.6598 -32.6598 -32.6598
    13.3433  13.3434  13.3434  13.3434  14.1867  14.1868  14.1868  14.1868
    16.5664  16.5665  16.5665  16.5666  16.6935  16.6935  16.6935  16.6936
    16.7446  16.7447  16.7447  16.7448  16.8158  16.8158  16.8158  16.8159
    17.1501  17.1502  17.1502  17.1502  17.1722  17.1722  17.1722  17.1723
    17.1749  17.1750  17.1750  17.1751  17.3559  17.3559  17.3559  17.3559
    17.4136  17.4138  17.4138  17.4139  17.4873  17.4873  17.4873  17.4873
    20.1778  20.1778  20.1778  20.1779  20.2071  20.2072  20.2072  20.2072
    20.2870  20.2871  20.2871  20.2872  20.3387  20.3388  20.3388  20.3388
    20.4004  20.4004  20.4004  20.4005  20.4586  20.4587  20.4587  20.4588
    20.5004  20.5004  20.5004  20.5005  20.5236  20.5237  20.5237  20.5238
    20.5767  20.5767  20.5767  20.5768  21.0947  21.0948  21.0948  21.0949
    25.9696  25.9696

          k =-0.4983-0.4983-0.4983 ( 12160 PWs)   bands (ev):

   -66.7486 -66.7484 -66.7484 -66.7484 -66.7483 -66.7483 -66.7483 -66.7481
   -66.6913 -66.6911 -66.6911 -66.6911 -66.6910 -66.6910 -66.6910 -66.6908
   -32.9805 -32.9805 -32.9805 -32.9805 -32.9805 -32.9804 -32.9804 -32.9804
   -32.9803 -32.9803 -32.9803 -32.9803 -32.9803 -32.9802 -32.9802 -32.9802
   -32.9455 -32.9455 -32.9455 -32.9455 -32.9454 -32.9454 -32.9454 -32.9453
   -32.7210 -32.7210 -32.7210 -32.7210 -32.7208 -32.7208 -32.7208 -32.7208
   -32.6824 -32.6824 -32.6824 -32.6824 -32.6824 -32.6823 -32.6823 -32.6823
   -32.6822 -32.6822 -32.6822 -32.6822 -32.6822 -32.6821 -32.6821 -32.6821
    13.7400  13.7401  13.7401  13.7401  13.7401  13.7401  13.7401  13.7402
    16.7807  16.7807  16.7808  16.7808  16.7808  16.7808  16.7808  16.7808
    16.7809  16.7809  16.7809  16.7809  16.7809  16.7809  16.7810  16.7810
    17.1592  17.1592  17.1592  17.1592  17.1593  17.1593  17.1593  17.1593
    17.2645  17.2645  17.2645  17.2646  17.2646  17.2646  17.2647  17.2647
    17.2648  17.2648  17.2648  17.2648  17.2648  17.2649  17.2649  17.2649
    20.3669  20.3669  20.3669  20.3669  20.3669  20.3669  20.3670  20.3670
    20.3670  20.3670  20.3671  20.3671  20.3671  20.3671  20.3671  20.3671
    20.4051  20.4051  20.4052  20.4052  20.4052  20.4052  20.4052  20.4052
    20.4053  20.4053  20.4053  20.4053  20.4053  20.4053  20.4054  20.4054
    20.7405  20.7405  20.7405  20.7405  20.7406  20.7406  20.7406  20.7407
    27.0418  27.0418

     the Fermi energy is    18.7358 ev

!    total energy              =   -5268.19224799 Ry
     Harris-Foulkes estimate   =   -5268.19224674 Ry
     estimated scf accuracy    <       0.00000051 Ry

     total all-electron energy =    -40728.936777 Ry

     The total energy is the sum of the following terms:

     one-electron contribution =   -1722.23647920 Ry
     hartree contribution      =    1027.62017191 Ry
     xc contribution           =    -444.15543039 Ry
     ewald contribution        =   -2804.88038147 Ry
     one-center paw contrib.   =   -1324.66886673 Ry
     smearing contrib. (-TS)   =       0.12873789 Ry

     total magnetization       =    33.09 Bohr mag/cell
     absolute magnetization    =    34.90 Bohr mag/cell

     convergence has been achieved in  18 iterations

     negative rho (up, down):  0.000E+00 2.525E-03

     Forces acting on atoms (cartesian axes, Ry/au):

     atom    1 type  1   force =     0.00000000    0.00000000    0.00000000
     atom    2 type  2   force =     0.00000301    0.00000301    0.00000301
     atom    3 type  1   force =     0.00000000    0.00000000    0.00000000
     atom    4 type  2   force =     0.00000301    0.00000301   -0.00000301
     atom    5 type  1   force =     0.00000000    0.00000000    0.00000000
     atom    6 type  2   force =     0.00000301   -0.00000301    0.00000301
     atom    7 type  1   force =     0.00000000    0.00000000   -0.00000000
     atom    8 type  2   force =     0.00000301   -0.00000301   -0.00000301
     atom    9 type  1   force =     0.00000000    0.00000000    0.00000000
     atom   10 type  2   force =    -0.00000301    0.00000301    0.00000301
     atom   11 type  1   force =     0.00000000    0.00000000    0.00000000
     atom   12 type  2   force =    -0.00000301    0.00000301   -0.00000301
     atom   13 type  1   force =     0.00000000    0.00000000    0.00000000
     atom   14 type  2   force =    -0.00000301   -0.00000301    0.00000301
     atom   15 type  1   force =     0.00000000    0.00000000    0.00000000
     atom   16 type  2   force =    -0.00000301   -0.00000301   -0.00000301

     Total force =     0.000015     Total SCF correction =     0.002812
     SCF correction compared to forces is large: reduce conv_thr to get better values


     Computing stress (Cartesian axis) and pressure


     negative rho (up, down):  0.000E+00 2.525E-03
          total   stress  (Ry/bohr**3)                   (kbar)     P=  -23.90
  -0.00016246   0.00000000   0.00000000        -23.90      0.00      0.00
   0.00000000  -0.00016246   0.00000000          0.00    -23.90      0.00
   0.00000000   0.00000000  -0.00016246          0.00      0.00    -23.90


     Writing output data file vjHXoIFrCGOTovgV.save/
 
     init_run     :      6.27s CPU      6.62s WALL (       1 calls)
     electrons    :    409.05s CPU    421.97s WALL (       1 calls)
     forces       :      2.23s CPU      2.42s WALL (       1 calls)
     stress       :      5.89s CPU      5.96s WALL (       1 calls)

     Called by init_run:
     wfcinit      :      5.85s CPU      6.11s WALL (       1 calls)
     potinit      :      0.20s CPU      0.24s WALL (       1 calls)
     hinit0       :      0.11s CPU      0.14s WALL (       1 calls)

     Called by electrons:
     c_bands      :    367.09s CPU    377.46s WALL (      19 calls)
     sum_band     :     38.20s CPU     40.24s WALL (      19 calls)
     v_of_rho     :      0.29s CPU      0.29s WALL (      19 calls)
     newd         :      0.61s CPU      0.77s WALL (      19 calls)
     PAW_pot      :      2.84s CPU      3.08s WALL (      19 calls)
     mix_rho      :      0.11s CPU      0.12s WALL (      19 calls)

     Called by c_bands:
     init_us_2    :      1.99s CPU      2.02s WALL (    2870 calls)
     cegterg      :    357.17s CPU    367.43s WALL (    1330 calls)

     Called by sum_band:
     sum_band:bec :      0.53s CPU      0.54s WALL (    1330 calls)
     addusdens    :      1.12s CPU      1.26s WALL (      19 calls)

     Called by *egterg:
     h_psi        :    150.73s CPU    156.84s WALL (    4497 calls)
     s_psi        :      8.29s CPU      8.34s WALL (    4497 calls)
     g_psi        :      0.34s CPU      0.35s WALL (    3097 calls)
     cdiaghg      :    162.71s CPU    163.27s WALL (    4357 calls)

     Called by h_psi:
     h_psi:pot    :    149.79s CPU    155.89s WALL (    4497 calls)
     h_psi:calbec :     12.43s CPU     14.43s WALL (    4497 calls)
     vloc_psi     :    128.99s CPU    133.03s WALL (    4497 calls)
     add_vuspsi   :      8.33s CPU      8.40s WALL (    4497 calls)

     General routines
     calbec       :     19.05s CPU     22.18s WALL (    6177 calls)
     fft          :      0.34s CPU      0.36s WALL (     517 calls)
     ffts         :      0.04s CPU      0.17s WALL (      76 calls)
     fftw         :    149.80s CPU    154.46s WALL ( 1135264 calls)
     interpolate  :      0.06s CPU      0.13s WALL (      38 calls)
 
     Parallel routines
     fft_scatt_xy :     10.00s CPU     10.31s WALL ( 1135857 calls)
     fft_scatt_yz :    100.35s CPU    103.61s WALL ( 1135857 calls)
 
     PWSCF        :  7m 8.57s CPU     7m30.21s WALL

 
   This run was terminated on:  10:45:31   9Sep2020            

=------------------------------------------------------------------------------=
   JOB DONE.
=------------------------------------------------------------------------------=
