--------------------------------------------------------------------------
WARNING: No preset parameters were found for the device that Open MPI
detected:

  Local host:            bear-pg0206u39a
  Device name:           mlx5_0
  Device vendor ID:      0x02c9
  Device vendor part ID: 4123

Default device parameters will be used, which may result in lower
performance.  You can edit any of the files specified by the
btl_openib_device_param_files MCA parameter to set values for your
device.

NOTE: You can turn off this warning by setting the MCA parameter
      btl_openib_warn_no_device_params_found to 0.
--------------------------------------------------------------------------
--------------------------------------------------------------------------
WARNING: There was an error initializing an OpenFabrics device.

  Local host:   bear-pg0206u39a
  Local device: mlx5_0
--------------------------------------------------------------------------

     Program PWSCF v.6.3 starts on  9Sep2020 at 10: 7:39 

     This program is part of the open-source Quantum ESPRESSO suite
     for quantum simulation of materials; please cite
         "P. Giannozzi et al., J. Phys.:Condens. Matter 21 395502 (2009);
         "P. Giannozzi et al., J. Phys.:Condens. Matter 29 465901 (2017);
          URL http://www.quantum-espresso.org", 
     in publications or presentations arising from this work. More details at
     http://www.quantum-espresso.org/quote

     Parallel version (MPI & OpenMP), running on      40 processor cores
     Number of MPI processes:                40
     Threads/MPI process:                     1

     MPI processes distributed on     1 nodes
     R & G space division:  proc/nbgrp/npool/nimage =      40
     Reading input from wd/eos/eos_001.in
Warning: card &IONS ignored
Warning: card ION_DYNAMICS = 'BFGS', ignored
Warning: card / ignored
Warning: card &CELL ignored
Warning: card CELL_DYNAMICS = 'BFGS', ignored
Warning: card CELL_FACTOR = 2.0, ignored
Warning: card PRESS = 0.0, ignored
Warning: card / ignored

     Current dimensions of program PWSCF are:
     Max number of different atomic species (ntypx) = 10
     Max number of k-points (npk) =  40000
     Max angular momentum in pseudopotentials (lmaxx) =  3
               file Fe.pbe-spn-kjpaw_psl.1.0.0.UPF: wavefunction(s)  3P 3D renormalized
               file Fe.pbe-spn-kjpaw_psl.1.0.0.UPF: wavefunction(s)  3P 3D renormalized

     Subspace diagonalization in iterative solution of the eigenvalue problem:
     a serial algorithm will be used

     Found symmetry operation: I + (  0.0000  0.0000 -0.5000)
     This is a supercell, fractional translations are disabled
 
     Parallelization info
     --------------------
     sticks:   dense  smooth     PW     G-vecs:    dense   smooth      PW
     Min          95      62     17                 4411     2360     352
     Max          96      63     19                 4417     2365     356
     Sum        3801    2509    709               176573    94533   14147
 


     bravais-lattice index     =            0
     lattice parameter (alat)  =      10.5935  a.u.
     unit-cell volume          =    1171.0894 (a.u.)^3
     number of atoms/cell      =           16
     number of atomic types    =            2
     number of electrons       =       256.00
     number of Kohn-Sham states=          154
     kinetic-energy cutoff     =      71.0000  Ry
     charge density cutoff     =     430.0000  Ry
     convergence threshold     =      1.0E-06
     mixing beta               =       0.1000
     number of iterations used =           10  plain     mixing
     Exchange-correlation      = SLA PW PBX PBC ( 1  4  3  4 0 0)

     celldm(1)=  10.593520  celldm(2)=   0.000000  celldm(3)=   0.000000
     celldm(4)=   0.000000  celldm(5)=   0.000000  celldm(6)=   0.000000

     crystal axes: (cart. coord. in units of alat)
               a(1) = (   0.995000   0.000000   0.000000 )  
               a(2) = (   0.000000   0.995000   0.000000 )  
               a(3) = (   0.000000   0.000000   0.995000 )  

     reciprocal axes: (cart. coord. in units 2 pi/alat)
               b(1) = (  1.005025  0.000000  0.000000 )  
               b(2) = (  0.000000  1.005025  0.000000 )  
               b(3) = (  0.000000  0.000000  1.005025 )  


     PseudoPot. # 1 for Fe read from file:
     /rds/homes/b/bxp912/pp/Fe.pbe-spn-kjpaw_psl.1.0.0.UPF
     MD5 check sum: 42f43b795421b414b0dc916aa790dbcb
     Pseudo is Projector augmented-wave + core cor, Zval = 16.0
     Generated using "atomic" code by A. Dal Corso v.6.3
     Shape of augmentation charge: PSQ
     Using radial grid of 1191 points,  6 beta functions with: 
                l(1) =   0
                l(2) =   0
                l(3) =   1
                l(4) =   1
                l(5) =   2
                l(6) =   2
     Q(r) pseudized with 0 coefficients 


     PseudoPot. # 2 for Fe read from file:
     /rds/homes/b/bxp912/pp/Fe.pbe-spn-kjpaw_psl.1.0.0.UPF
     MD5 check sum: 42f43b795421b414b0dc916aa790dbcb
     Pseudo is Projector augmented-wave + core cor, Zval = 16.0
     Generated using "atomic" code by A. Dal Corso v.6.3
     Shape of augmentation charge: PSQ
     Using radial grid of 1191 points,  6 beta functions with: 
                l(1) =   0
                l(2) =   0
                l(3) =   1
                l(4) =   1
                l(5) =   2
                l(6) =   2
     Q(r) pseudized with 0 coefficients 


     atomic species   valence    mass     pseudopotential
        Fe1           16.00    55.84500     Fe( 1.00)
        Fe2           16.00    55.84500     Fe( 1.00)

     Starting magnetic structure 
     atomic species   magnetization
        Fe1          0.100
        Fe2          0.100

     48 Sym. Ops., with inversion, found



   Cartesian axes

     site n.     atom                  positions (alat units)
         1           Fe1 tau(   1) = (   0.0000000   0.0000000   0.0000000  )
         2           Fe2 tau(   2) = (   0.2487504   0.2487504   0.2487504  )
         3           Fe1 tau(   3) = (   0.0000000   0.0000000   0.4975000  )
         4           Fe2 tau(   4) = (   0.2487504   0.2487504   0.7462496  )
         5           Fe1 tau(   5) = (   0.0000000   0.4975000   0.0000000  )
         6           Fe2 tau(   6) = (   0.2487504   0.7462496   0.2487504  )
         7           Fe1 tau(   7) = (   0.0000000   0.4975000   0.4975000  )
         8           Fe2 tau(   8) = (   0.2487504   0.7462496   0.7462496  )
         9           Fe1 tau(   9) = (   0.4975000   0.0000000   0.0000000  )
        10           Fe2 tau(  10) = (   0.7462496   0.2487504   0.2487504  )
        11           Fe1 tau(  11) = (   0.4975000   0.0000000   0.4975000  )
        12           Fe2 tau(  12) = (   0.7462496   0.2487504   0.7462496  )
        13           Fe1 tau(  13) = (   0.4975000   0.4975000   0.0000000  )
        14           Fe2 tau(  14) = (   0.7462496   0.7462496   0.2487504  )
        15           Fe1 tau(  15) = (   0.4975000   0.4975000   0.4975000  )
        16           Fe2 tau(  16) = (   0.7462496   0.7462496   0.7462496  )

     number of k points=    35  Marzari-Vanderbilt smearing, width (Ry)=  0.0400
                       cart. coord. in units 2pi/alat
        k(    1) = (   0.0558347   0.0558347   0.0558347), wk =   0.0109739
        k(    2) = (   0.0558347   0.0558347   0.1675042), wk =   0.0329218
        k(    3) = (   0.0558347   0.0558347   0.2791736), wk =   0.0329218
        k(    4) = (   0.0558347   0.0558347   0.3908431), wk =   0.0329218
        k(    5) = (   0.0558347   0.0558347  -0.5025126), wk =   0.0164609
        k(    6) = (   0.0558347   0.1675042   0.1675042), wk =   0.0329218
        k(    7) = (   0.0558347   0.1675042   0.2791736), wk =   0.0658436
        k(    8) = (   0.0558347   0.1675042   0.3908431), wk =   0.0658436
        k(    9) = (   0.0558347   0.1675042  -0.5025126), wk =   0.0329218
        k(   10) = (   0.0558347   0.2791736   0.2791736), wk =   0.0329218
        k(   11) = (   0.0558347   0.2791736   0.3908431), wk =   0.0658436
        k(   12) = (   0.0558347   0.2791736  -0.5025126), wk =   0.0329218
        k(   13) = (   0.0558347   0.3908431   0.3908431), wk =   0.0329218
        k(   14) = (   0.0558347   0.3908431  -0.5025126), wk =   0.0329218
        k(   15) = (   0.0558347  -0.5025126  -0.5025126), wk =   0.0082305
        k(   16) = (   0.1675042   0.1675042   0.1675042), wk =   0.0109739
        k(   17) = (   0.1675042   0.1675042   0.2791736), wk =   0.0329218
        k(   18) = (   0.1675042   0.1675042   0.3908431), wk =   0.0329218
        k(   19) = (   0.1675042   0.1675042  -0.5025126), wk =   0.0164609
        k(   20) = (   0.1675042   0.2791736   0.2791736), wk =   0.0329218
        k(   21) = (   0.1675042   0.2791736   0.3908431), wk =   0.0658436
        k(   22) = (   0.1675042   0.2791736  -0.5025126), wk =   0.0329218
        k(   23) = (   0.1675042   0.3908431   0.3908431), wk =   0.0329218
        k(   24) = (   0.1675042   0.3908431  -0.5025126), wk =   0.0329218
        k(   25) = (   0.1675042  -0.5025126  -0.5025126), wk =   0.0082305
        k(   26) = (   0.2791736   0.2791736   0.2791736), wk =   0.0109739
        k(   27) = (   0.2791736   0.2791736   0.3908431), wk =   0.0329218
        k(   28) = (   0.2791736   0.2791736  -0.5025126), wk =   0.0164609
        k(   29) = (   0.2791736   0.3908431   0.3908431), wk =   0.0329218
        k(   30) = (   0.2791736   0.3908431  -0.5025126), wk =   0.0329218
        k(   31) = (   0.2791736  -0.5025126  -0.5025126), wk =   0.0082305
        k(   32) = (   0.3908431   0.3908431   0.3908431), wk =   0.0109739
        k(   33) = (   0.3908431   0.3908431  -0.5025126), wk =   0.0164609
        k(   34) = (   0.3908431  -0.5025126  -0.5025126), wk =   0.0082305
        k(   35) = (  -0.5025126  -0.5025126  -0.5025126), wk =   0.0013717

     Dense  grid:   176573 G-vectors     FFT dimensions: (  72,  72,  72)

     Smooth grid:    94533 G-vectors     FFT dimensions: (  60,  60,  60)

     Estimated max dynamical RAM per process >      87.44 MB

     Estimated total dynamical RAM >       3.42 GB
     Generating pointlists ...
     new r_m :   0.1777 (alat units)  1.8827 (a.u.) for type    1
     new r_m :   0.1777 (alat units)  1.8827 (a.u.) for type    2

     Check: negative/imaginary core charge=   -0.000006    0.000000

     Initial potential from superposition of free atoms

     starting charge  255.99300, renormalised to  256.00000
     Starting wfcs are  160 randomized atomic wfcs
     Checking if some PAW data can be deallocated... 

     total cpu time spent up to now is        8.5 secs

     Self-consistent Calculation

     iteration #  1     ecut=    71.00 Ry     beta= 0.10
     Davidson diagonalization with overlap
     ethr =  1.00E-02,  avg # of iterations =  3.3

     Threshold (ethr) on eigenvalues was too large:
     Diagonalizing with lowered threshold

     Davidson diagonalization with overlap
     ethr =  2.07E-04,  avg # of iterations =  3.4

     total cpu time spent up to now is       61.2 secs

     total energy              =   -5267.97670256 Ry
     Harris-Foulkes estimate   =   -5268.02956816 Ry
     estimated scf accuracy    <       0.61096832 Ry

     total magnetization       =    27.75 Bohr mag/cell
     absolute magnetization    =    27.84 Bohr mag/cell

     iteration #  2     ecut=    71.00 Ry     beta= 0.10
     Davidson diagonalization with overlap
     ethr =  2.39E-04,  avg # of iterations =  1.0

     total cpu time spent up to now is       77.0 secs

     total energy              =   -5267.95691518 Ry
     Harris-Foulkes estimate   =   -5267.98851464 Ry
     estimated scf accuracy    <       0.35086060 Ry

     total magnetization       =    28.39 Bohr mag/cell
     absolute magnetization    =    28.51 Bohr mag/cell

     iteration #  3     ecut=    71.00 Ry     beta= 0.10
     Davidson diagonalization with overlap
     ethr =  1.37E-04,  avg # of iterations =  3.2

     total cpu time spent up to now is      104.2 secs

     total energy              =   -5268.01991595 Ry
     Harris-Foulkes estimate   =   -5268.02333387 Ry
     estimated scf accuracy    <       0.33908240 Ry

     total magnetization       =    29.70 Bohr mag/cell
     absolute magnetization    =    30.00 Bohr mag/cell

     iteration #  4     ecut=    71.00 Ry     beta= 0.10
     Davidson diagonalization with overlap
     ethr =  1.32E-04,  avg # of iterations =  1.0

     total cpu time spent up to now is      120.5 secs

     total energy              =   -5268.03634037 Ry
     Harris-Foulkes estimate   =   -5268.02811798 Ry
     estimated scf accuracy    <       0.11173014 Ry

     total magnetization       =    29.91 Bohr mag/cell
     absolute magnetization    =    30.23 Bohr mag/cell

     iteration #  5     ecut=    71.00 Ry     beta= 0.10
     Davidson diagonalization with overlap
     ethr =  4.36E-05,  avg # of iterations =  1.5

     total cpu time spent up to now is      137.7 secs

     total energy              =   -5268.11645931 Ry
     Harris-Foulkes estimate   =   -5268.04064834 Ry
     estimated scf accuracy    <       0.09949583 Ry

     total magnetization       =    29.96 Bohr mag/cell
     absolute magnetization    =    30.33 Bohr mag/cell

     iteration #  6     ecut=    71.00 Ry     beta= 0.10
     Davidson diagonalization with overlap
     ethr =  3.89E-05,  avg # of iterations =  3.2

     negative rho (up, down):  0.000E+00 3.186E-03

     total cpu time spent up to now is      165.7 secs

     total energy              =   -5268.13524231 Ry
     Harris-Foulkes estimate   =   -5268.14939042 Ry
     estimated scf accuracy    <       0.20161436 Ry

     total magnetization       =    30.64 Bohr mag/cell
     absolute magnetization    =    31.32 Bohr mag/cell

     iteration #  7     ecut=    71.00 Ry     beta= 0.10
     Davidson diagonalization with overlap
     ethr =  3.89E-05,  avg # of iterations =  2.9

     negative rho (up, down):  0.000E+00 1.853E-03

     total cpu time spent up to now is      192.3 secs

     total energy              =   -5268.17348754 Ry
     Harris-Foulkes estimate   =   -5268.17948886 Ry
     estimated scf accuracy    <       0.01175125 Ry

     total magnetization       =    32.05 Bohr mag/cell
     absolute magnetization    =    33.52 Bohr mag/cell

     iteration #  8     ecut=    71.00 Ry     beta= 0.10
     Davidson diagonalization with overlap
     ethr =  4.59E-06,  avg # of iterations =  2.5

     negative rho (up, down):  0.000E+00 1.877E-03

     total cpu time spent up to now is      214.7 secs

     total energy              =   -5268.17657500 Ry
     Harris-Foulkes estimate   =   -5268.17524586 Ry
     estimated scf accuracy    <       0.00828980 Ry

     total magnetization       =    31.97 Bohr mag/cell
     absolute magnetization    =    33.27 Bohr mag/cell

     iteration #  9     ecut=    71.00 Ry     beta= 0.10
     Davidson diagonalization with overlap
     ethr =  3.24E-06,  avg # of iterations =  1.4

     negative rho (up, down):  0.000E+00 2.295E-03

     total cpu time spent up to now is      231.7 secs

     total energy              =   -5268.17969203 Ry
     Harris-Foulkes estimate   =   -5268.17680858 Ry
     estimated scf accuracy    <       0.00534635 Ry

     total magnetization       =    32.07 Bohr mag/cell
     absolute magnetization    =    33.41 Bohr mag/cell

     iteration # 10     ecut=    71.00 Ry     beta= 0.10
     Davidson diagonalization with overlap
     ethr =  2.09E-06,  avg # of iterations =  3.3

     negative rho (up, down):  0.000E+00 2.196E-03

     total cpu time spent up to now is      258.0 secs

     total energy              =   -5268.18111442 Ry
     Harris-Foulkes estimate   =   -5268.18103723 Ry
     estimated scf accuracy    <       0.00086912 Ry

     total magnetization       =    32.38 Bohr mag/cell
     absolute magnetization    =    33.94 Bohr mag/cell

     iteration # 11     ecut=    71.00 Ry     beta= 0.10
     Davidson diagonalization with overlap
     ethr =  3.40E-07,  avg # of iterations =  1.2

     negative rho (up, down):  0.000E+00 2.027E-03

     total cpu time spent up to now is      274.2 secs

     total energy              =   -5268.18143174 Ry
     Harris-Foulkes estimate   =   -5268.18113304 Ry
     estimated scf accuracy    <       0.00071969 Ry

     total magnetization       =    32.39 Bohr mag/cell
     absolute magnetization    =    33.95 Bohr mag/cell

     iteration # 12     ecut=    71.00 Ry     beta= 0.10
     Davidson diagonalization with overlap
     ethr =  2.81E-07,  avg # of iterations =  2.1

     negative rho (up, down):  0.000E+00 2.284E-03

     total cpu time spent up to now is      294.8 secs

     total energy              =   -5268.18157395 Ry
     Harris-Foulkes estimate   =   -5268.18153178 Ry
     estimated scf accuracy    <       0.00055713 Ry

     total magnetization       =    32.48 Bohr mag/cell
     absolute magnetization    =    34.08 Bohr mag/cell

     iteration # 13     ecut=    71.00 Ry     beta= 0.10
     Davidson diagonalization with overlap
     ethr =  2.18E-07,  avg # of iterations =  3.3

     negative rho (up, down):  0.000E+00 2.323E-03

     total cpu time spent up to now is      322.1 secs

     total energy              =   -5268.18175710 Ry
     Harris-Foulkes estimate   =   -5268.18175881 Ry
     estimated scf accuracy    <       0.00011099 Ry

     total magnetization       =    32.60 Bohr mag/cell
     absolute magnetization    =    34.29 Bohr mag/cell

     iteration # 14     ecut=    71.00 Ry     beta= 0.10
     Davidson diagonalization with overlap
     ethr =  4.34E-08,  avg # of iterations =  2.3

     negative rho (up, down):  0.000E+00 2.333E-03

     total cpu time spent up to now is      343.3 secs

     total energy              =   -5268.18176766 Ry
     Harris-Foulkes estimate   =   -5268.18177645 Ry
     estimated scf accuracy    <       0.00012897 Ry

     total magnetization       =    32.62 Bohr mag/cell
     absolute magnetization    =    34.31 Bohr mag/cell

     iteration # 15     ecut=    71.00 Ry     beta= 0.10
     Davidson diagonalization with overlap
     ethr =  4.34E-08,  avg # of iterations =  1.0

     negative rho (up, down):  0.000E+00 2.338E-03

     total cpu time spent up to now is      359.0 secs

     total energy              =   -5268.18179241 Ry
     Harris-Foulkes estimate   =   -5268.18177581 Ry
     estimated scf accuracy    <       0.00002225 Ry

     total magnetization       =    32.64 Bohr mag/cell
     absolute magnetization    =    34.33 Bohr mag/cell

     iteration # 16     ecut=    71.00 Ry     beta= 0.10
     Davidson diagonalization with overlap
     ethr =  8.69E-09,  avg # of iterations =  2.6

     negative rho (up, down):  0.000E+00 2.354E-03

     total cpu time spent up to now is      381.2 secs

     total energy              =   -5268.18179667 Ry
     Harris-Foulkes estimate   =   -5268.18179589 Ry
     estimated scf accuracy    <       0.00000731 Ry

     total magnetization       =    32.63 Bohr mag/cell
     absolute magnetization    =    34.32 Bohr mag/cell

     iteration # 17     ecut=    71.00 Ry     beta= 0.10
     Davidson diagonalization with overlap
     ethr =  2.85E-09,  avg # of iterations =  2.9

     negative rho (up, down):  0.000E+00 2.354E-03

     total cpu time spent up to now is      406.4 secs

     total energy              =   -5268.18180009 Ry
     Harris-Foulkes estimate   =   -5268.18179870 Ry
     estimated scf accuracy    <       0.00000266 Ry

     total magnetization       =    32.64 Bohr mag/cell
     absolute magnetization    =    34.33 Bohr mag/cell

     iteration # 18     ecut=    71.00 Ry     beta= 0.10
     Davidson diagonalization with overlap
     ethr =  1.04E-09,  avg # of iterations =  3.2

     negative rho (up, down):  0.000E+00 2.370E-03
 
     Magnetic moment per site:
     atom:    1    charge:   14.3543    magn:    2.0797    constr:    0.0000
     atom:    2    charge:   14.3542    magn:    2.0817    constr:    0.0000
     atom:    3    charge:   14.3543    magn:    2.0804    constr:    0.0000
     atom:    4    charge:   14.3542    magn:    2.0817    constr:    0.0000
     atom:    5    charge:   14.3543    magn:    2.0804    constr:    0.0000
     atom:    6    charge:   14.3542    magn:    2.0817    constr:    0.0000
     atom:    7    charge:   14.3543    magn:    2.0808    constr:    0.0000
     atom:    8    charge:   14.3542    magn:    2.0817    constr:    0.0000
     atom:    9    charge:   14.3543    magn:    2.0804    constr:    0.0000
     atom:   10    charge:   14.3542    magn:    2.0817    constr:    0.0000
     atom:   11    charge:   14.3543    magn:    2.0808    constr:    0.0000
     atom:   12    charge:   14.3542    magn:    2.0817    constr:    0.0000
     atom:   13    charge:   14.3543    magn:    2.0808    constr:    0.0000
     atom:   14    charge:   14.3542    magn:    2.0817    constr:    0.0000
     atom:   15    charge:   14.3542    magn:    2.0812    constr:    0.0000
     atom:   16    charge:   14.3542    magn:    2.0817    constr:    0.0000

     total cpu time spent up to now is      432.0 secs

     End of self-consistent calculation

 ------ SPIN UP ------------


          k = 0.0558 0.0558 0.0558 ( 11843 PWs)   bands (ev):

   -68.7493 -68.6682 -68.6682 -68.6682 -68.6553 -68.6553 -68.6553 -68.6539
   -68.6538 -68.6538 -68.6534 -68.6534 -68.6531 -68.6485 -68.6471 -68.5849
   -34.9836 -34.9836 -34.9836 -34.9812 -34.9812 -34.9811 -34.8469 -34.8469
   -34.8415 -34.7792 -34.7764 -34.7764 -34.7764 -34.7585 -34.7585 -34.7466
   -34.7466 -34.7466 -34.7163 -34.7163 -34.6955 -34.6841 -34.6840 -34.6840
   -34.6742 -34.6742 -34.6742 -34.6639 -34.6638 -34.6638 -34.6610 -34.6610
   -34.6610 -34.6537 -34.6537 -34.6537 -34.6446 -34.6446 -34.6445 -34.5061
   -34.5045 -34.5045 -34.5044 -34.5019 -34.5019 -34.5019 -34.5003 -34.5003
    10.6171  14.1857  14.1857  14.1857  14.2049  14.2049  14.2049  14.2287
    14.2287  14.2569  14.2569  14.2569  14.6648  14.6648  14.6648  15.8495
    15.8603  15.8603  15.8603  15.8735  15.8735  15.8735  15.9366  15.9366
    16.0117  16.0117  16.0117  16.0836  16.0836  16.1405  16.3595  16.3595
    16.3595  17.0253  17.0253  17.0680  17.3577  17.3577  17.3577  17.4389
    17.4389  17.4389  17.5343  17.5343  17.5343  17.6172  17.6172  17.6172
    18.2688  18.2688  18.2688  18.2770  18.2770  18.3188  18.3188  18.3188
    18.3673  18.3674  18.3674  18.3740  18.3740  18.3740  18.4933  18.4933
    18.4933  18.4960  18.4960  18.4960  18.5337  18.5337  18.5352  18.5352
    19.4174  19.4174  19.4174  19.4461  19.4461  19.4461  19.5797  19.6477
    19.6477  19.6506  19.6506  19.6506  19.9992  19.9992  19.9992  20.1866
    20.1866  20.1866

          k = 0.0558 0.0558 0.1675 ( 11823 PWs)   bands (ev):

   -68.7465 -68.6827 -68.6676 -68.6675 -68.6568 -68.6568 -68.6549 -68.6536
   -68.6536 -68.6530 -68.6527 -68.6527 -68.6490 -68.6475 -68.6400 -68.5871
   -34.9770 -34.9769 -34.9761 -34.9738 -34.9695 -34.9695 -34.8496 -34.8415
   -34.8330 -34.8104 -34.8029 -34.8029 -34.8010 -34.8004 -34.7741 -34.7741
   -34.7454 -34.7223 -34.7140 -34.7126 -34.7039 -34.6838 -34.6838 -34.6752
   -34.6688 -34.6667 -34.6667 -34.6653 -34.6640 -34.6589 -34.6589 -34.6540
   -34.6540 -34.6499 -34.6499 -34.6240 -34.6210 -34.6209 -34.6154 -34.5187
   -34.5119 -34.5119 -34.5110 -34.5086 -34.5053 -34.5043 -34.5043 -34.5024
    10.7501  13.7045  14.2056  14.2056  14.2642  14.2642  14.2805  14.2864
    14.2901  14.2984  14.3049  14.3049  14.7012  14.7012  14.8875  15.6693
    15.7408  15.8394  15.8471  15.8586  15.8626  15.9061  15.9061  15.9451
    15.9452  15.9693  15.9944  15.9945  16.2851  16.2861  16.3092  16.3092
    16.6936  17.0035  17.0224  17.1257  17.1602  17.1602  17.2186  17.3144
    17.3257  17.3258  17.5599  17.5599  17.6868  17.6868  17.7503  17.8419
    17.9263  17.9263  18.0467  18.1992  18.1993  18.2156  18.2604  18.3025
    18.3239  18.3239  18.3807  18.3832  18.4025  18.4026  18.4768  18.4768
    18.4957  18.5285  18.5310  18.5313  18.5343  18.6972  18.6973  18.7217
    18.8173  19.0392  19.0740  19.3756  19.3757  19.4290  19.4401  19.4401
    19.5288  19.6407  19.7582  19.7582  20.0601  20.0601  20.0623  20.0623
    20.5030  20.5030

          k = 0.0558 0.0558 0.2792 ( 11800 PWs)   bands (ev):

   -68.7409 -68.6969 -68.6664 -68.6664 -68.6587 -68.6586 -68.6541 -68.6533
   -68.6533 -68.6523 -68.6523 -68.6522 -68.6497 -68.6482 -68.6271 -68.5912
   -34.9615 -34.9615 -34.9611 -34.9592 -34.9496 -34.9496 -34.8498 -34.8456
   -34.8407 -34.8384 -34.8384 -34.8304 -34.8204 -34.8200 -34.8117 -34.8117
   -34.7428 -34.7327 -34.7324 -34.7179 -34.6822 -34.6822 -34.6778 -34.6754
   -34.6735 -34.6701 -34.6700 -34.6571 -34.6571 -34.6542 -34.6542 -34.6363
   -34.6295 -34.6198 -34.6198 -34.5960 -34.5927 -34.5927 -34.5881 -34.5394
   -34.5247 -34.5247 -34.5237 -34.5222 -34.5151 -34.5121 -34.5121 -34.5107
    11.0121  13.0813  14.2571  14.2571  14.3595  14.3595  14.3706  14.3706
    14.4007  14.4055  14.4625  14.4779  14.7316  14.7316  14.9379  15.3441
    15.5894  15.6386  15.7861  15.8237  15.8333  15.8376  16.0085  16.0085
    16.0282  16.0282  16.0727  16.0727  16.2966  16.2966  16.5359  16.5474
    16.8944  16.8944  16.9609  16.9911  17.0192  17.0444  17.0444  17.1158
    17.2114  17.2825  17.4486  17.4486  17.7043  17.7043  17.7507  17.7507
    17.8032  17.8032  17.8359  18.0061  18.0498  18.0949  18.1074  18.2185
    18.2559  18.2559  18.3417  18.3418  18.3520  18.4054  18.4219  18.5005
    18.5173  18.5202  18.5262  18.5337  18.7071  18.7459  18.7459  18.7984
    18.9388  18.9595  18.9595  19.2005  19.3127  19.3879  19.3879  19.4859
    19.4860  19.5763  19.7324  19.7325  19.9266  19.9266  20.1782  20.1783
    20.5988  20.5988

          k = 0.0558 0.0558 0.3908 ( 11812 PWs)   bands (ev):

   -68.7328 -68.7103 -68.6648 -68.6648 -68.6608 -68.6607 -68.6531 -68.6529
   -68.6529 -68.6523 -68.6523 -68.6513 -68.6507 -68.6491 -68.6156 -68.5974
   -34.9392 -34.9386 -34.9386 -34.9382 -34.9222 -34.9222 -34.8798 -34.8779
   -34.8753 -34.8753 -34.8510 -34.8510 -34.8477 -34.8343 -34.8142 -34.8033
   -34.7698 -34.7591 -34.7189 -34.7086 -34.6901 -34.6845 -34.6798 -34.6798
   -34.6736 -34.6736 -34.6558 -34.6558 -34.6545 -34.6545 -34.6376 -34.6001
   -34.5966 -34.5908 -34.5908 -34.5704 -34.5673 -34.5663 -34.5662 -34.5632
   -34.5428 -34.5425 -34.5425 -34.5424 -34.5295 -34.5253 -34.5252 -34.5239
    11.3947  12.4573  14.3256  14.3256  14.4064  14.4065  14.4799  14.4799
    14.5582  14.5685  14.7012  14.7012  14.7169  14.7279  14.8649  15.0466
    15.3304  15.3412  15.7679  15.7845  15.7966  15.8045  16.1625  16.1625
    16.1927  16.1927  16.2501  16.2501  16.4005  16.4005  16.6448  16.6448
    16.7621  16.7621  16.8597  16.8682  16.9664  16.9664  16.9908  17.0197
    17.0367  17.0469  17.1770  17.1770  17.3267  17.4514  17.6423  17.6607
    17.7060  17.9196  17.9330  17.9331  17.9480  17.9480  18.1660  18.1660
    18.2518  18.2518  18.2961  18.4047  18.4235  18.4369  18.4419  18.4975
    18.4993  18.5066  18.5205  18.5358  18.5808  18.6357  18.9167  19.0050
    19.0050  19.0319  19.1399  19.2158  19.2158  19.3456  19.3456  19.4658
    19.5569  19.5569  19.6179  19.6179  19.7851  19.7852  20.3262  20.3262
    20.5802  20.5802

          k = 0.0558 0.0558-0.5025 ( 11838 PWs)   bands (ev):

   -68.7225 -68.7223 -68.6630 -68.6630 -68.6628 -68.6627 -68.6527 -68.6527
   -68.6525 -68.6524 -68.6519 -68.6519 -68.6504 -68.6500 -68.6058 -68.6055
   -34.9115 -34.9113 -34.9112 -34.9110 -34.9095 -34.9095 -34.9095 -34.9095
   -34.8888 -34.8888 -34.8887 -34.8887 -34.8431 -34.8429 -34.7940 -34.7938
   -34.7830 -34.7829 -34.7043 -34.7041 -34.6969 -34.6966 -34.6770 -34.6769
   -34.6768 -34.6768 -34.6552 -34.6552 -34.6550 -34.6550 -34.6007 -34.6005
   -34.5689 -34.5688 -34.5673 -34.5671 -34.5648 -34.5648 -34.5648 -34.5648
   -34.5482 -34.5480 -34.5435 -34.5435 -34.5435 -34.5434 -34.5418 -34.5417
    11.8838  11.8838  14.3861  14.3861  14.3861  14.3861  14.6050  14.6050
    14.6050  14.6050  14.7228  14.7229  14.7857  14.7857  15.0204  15.0205
    15.0240  15.0242  15.7746  15.7748  15.7832  15.7833  16.3555  16.3555
    16.3555  16.3556  16.4256  16.4256  16.4256  16.4257  16.5862  16.5862
    16.5863  16.5863  16.7425  16.7425  16.7425  16.7426  17.0071  17.0072
    17.0279  17.0281  17.2446  17.2447  17.2502  17.2504  17.4712  17.4713
    17.6976  17.6976  18.0570  18.0570  18.0571  18.0571  18.1198  18.1198
    18.1198  18.1198  18.4699  18.4701  18.4709  18.4711  18.5133  18.5134
    18.5165  18.5166  18.5458  18.5459  18.6063  18.6065  18.7197  18.7199
    19.2150  19.2150  19.2151  19.2151  19.3179  19.3181  19.4405  19.4405
    19.4406  19.4406  19.6563  19.6564  19.6564  19.6564  20.4740  20.4740
    20.4740  20.4740

          k = 0.0558 0.1675 0.1675 ( 11798 PWs)   bands (ev):

   -68.7437 -68.6817 -68.6816 -68.6670 -68.6608 -68.6563 -68.6563 -68.6534
   -68.6524 -68.6523 -68.6496 -68.6495 -68.6477 -68.6402 -68.6402 -68.5891
   -34.9754 -34.9697 -34.9697 -34.9629 -34.9628 -34.9533 -34.8552 -34.8378
   -34.8305 -34.8262 -34.8261 -34.8194 -34.8192 -34.8131 -34.7924 -34.7540
   -34.7409 -34.7409 -34.7133 -34.7133 -34.7128 -34.6883 -34.6791 -34.6791
   -34.6750 -34.6723 -34.6723 -34.6627 -34.6627 -34.6588 -34.6572 -34.6516
   -34.6404 -34.6308 -34.6251 -34.6250 -34.6044 -34.5936 -34.5936 -34.5360
   -34.5245 -34.5172 -34.5172 -34.5108 -34.5108 -34.5095 -34.5015 -34.5002
    10.8816  13.7723  13.7723  14.1748  14.3019  14.3019  14.3428  14.3519
    14.3546  14.3569  14.3569  14.3606  14.7487  14.9239  14.9239  15.6439
    15.6756  15.6756  15.7494  15.8899  15.8899  15.9136  15.9244  15.9244
    15.9252  15.9588  16.0335  16.0418  16.2417  16.2842  16.2967  16.5938
    16.5939  16.9486  17.0095  17.0321  17.0321  17.0854  17.2089  17.2205
    17.4831  17.4831  17.5283  17.5283  17.5511  17.6017  17.7319  17.8524
    17.8524  17.8602  17.8603  18.1263  18.1263  18.2069  18.2421  18.2540
    18.2576  18.2577  18.2849  18.3397  18.3397  18.3973  18.3974  18.4743
    18.5209  18.5285  18.5293  18.5391  18.6132  18.8034  18.8238  18.8928
    18.8928  18.9144  18.9145  19.0324  19.0324  19.2292  19.2760  19.2760
    19.4404  19.5003  19.6650  19.8306  19.8594  20.1621  20.7345  20.7345
    20.9217  20.9217

          k = 0.0558 0.1675 0.2792 ( 11814 PWs)   bands (ev):

   -68.7382 -68.6955 -68.6796 -68.6658 -68.6650 -68.6582 -68.6554 -68.6530
   -68.6520 -68.6518 -68.6504 -68.6483 -68.6467 -68.6408 -68.6279 -68.5931
   -34.9651 -34.9554 -34.9551 -34.9501 -34.9444 -34.9287 -34.8600 -34.8591
   -34.8555 -34.8461 -34.8440 -34.8436 -34.8275 -34.8214 -34.8025 -34.7793
   -34.7448 -34.7418 -34.7101 -34.7096 -34.7079 -34.7041 -34.6898 -34.6833
   -34.6831 -34.6766 -34.6711 -34.6615 -34.6592 -34.6481 -34.6447 -34.6274
   -34.6270 -34.6136 -34.6067 -34.5978 -34.5828 -34.5680 -34.5676 -34.5610
   -34.5419 -34.5279 -34.5279 -34.5235 -34.5190 -34.5173 -34.5041 -34.5036
    11.1404  13.1689  13.8866  14.1610  14.3548  14.4408  14.4502  14.4520
    14.4708  14.4747  14.4867  14.5343  14.7993  14.9421  14.9805  15.3687
    15.5329  15.6155  15.7480  15.8424  15.8615  15.8889  15.9294  15.9580
    15.9834  16.0010  16.0382  16.1931  16.1946  16.4430  16.4787  16.5281
    16.7891  16.8051  16.8996  16.9008  16.9440  16.9952  17.0024  17.1257
    17.2354  17.3425  17.3892  17.4892  17.6114  17.6768  17.7171  17.7539
    17.7689  17.8357  17.8404  17.8690  17.8872  18.0436  18.0852  18.1166
    18.1553  18.2750  18.3223  18.3400  18.3695  18.3924  18.3997  18.5055
    18.5153  18.5289  18.5311  18.5490  18.6321  18.7585  18.7777  18.7786
    18.9165  18.9553  18.9658  18.9929  19.0217  19.1202  19.1638  19.2308
    19.3529  19.6290  19.6290  19.6504  19.8443  20.3430  20.5235  21.1002
    21.1497  21.4521

          k = 0.0558 0.1675 0.3908 ( 11826 PWs)   bands (ev):

   -68.7303 -68.7085 -68.6768 -68.6693 -68.6642 -68.6602 -68.6543 -68.6527
   -68.6521 -68.6516 -68.6509 -68.6490 -68.6445 -68.6416 -68.6167 -68.5991
   -34.9467 -34.9345 -34.9341 -34.9316 -34.9189 -34.8976 -34.8923 -34.8826
   -34.8771 -34.8770 -34.8623 -34.8550 -34.8549 -34.8206 -34.8117 -34.7826
   -34.7683 -34.7351 -34.7298 -34.7051 -34.7028 -34.6970 -34.6914 -34.6884
   -34.6814 -34.6811 -34.6656 -34.6606 -34.6601 -34.6389 -34.6299 -34.6174
   -34.5955 -34.5921 -34.5871 -34.5829 -34.5729 -34.5634 -34.5616 -34.5456
   -34.5445 -34.5434 -34.5428 -34.5423 -34.5329 -34.5280 -34.5126 -34.5124
    11.5177  12.5609  14.0085  14.1440  14.4240  14.4926  14.5723  14.6015
    14.6160  14.6348  14.7444  14.7795  14.7862  14.8838  14.9121  15.0865
    15.3379  15.3623  15.7975  15.8285  15.8383  15.8498  15.9518  16.0742
    16.1159  16.1290  16.1803  16.2333  16.3898  16.4917  16.6473  16.6970
    16.7208  16.7229  16.7519  16.7815  16.8685  16.8741  16.9294  16.9348
    16.9448  16.9798  17.1140  17.2848  17.3972  17.4724  17.4870  17.6059
    17.8405  17.9314  17.9409  17.9484  17.9615  17.9685  18.0462  18.0701
    18.1886  18.2473  18.2957  18.3555  18.3948  18.4096  18.4207  18.4813
    18.4893  18.5296  18.5556  18.5700  18.6109  18.6647  18.7124  18.7835
    18.8320  18.9076  18.9561  19.0202  19.0296  19.1089  19.3059  19.3309
    19.4027  19.4076  19.5805  19.7552  19.8231  20.2955  20.5721  21.0166
    21.3129  21.5790

          k = 0.0558 0.1675-0.5025 ( 11836 PWs)   bands (ev):

   -68.7204 -68.7202 -68.6734 -68.6732 -68.6624 -68.6622 -68.6530 -68.6529
   -68.6524 -68.6521 -68.6501 -68.6498 -68.6430 -68.6428 -68.6072 -68.6070
   -34.9222 -34.9222 -34.9088 -34.9086 -34.9081 -34.9079 -34.9073 -34.9073
   -34.8885 -34.8885 -34.8611 -34.8610 -34.8607 -34.8607 -34.7919 -34.7917
   -34.7602 -34.7602 -34.7134 -34.7132 -34.6989 -34.6987 -34.6929 -34.6927
   -34.6852 -34.6850 -34.6604 -34.6602 -34.6340 -34.6338 -34.6276 -34.6275
   -34.5889 -34.5889 -34.5667 -34.5665 -34.5635 -34.5633 -34.5611 -34.5611
   -34.5512 -34.5510 -34.5429 -34.5429 -34.5269 -34.5268 -34.5259 -34.5258
    11.9989  11.9989  14.0988  14.0988  14.4819  14.4819  14.6965  14.6966
    14.7616  14.7616  14.7699  14.7700  14.8393  14.8394  15.0493  15.0495
    15.0634  15.0635  15.8020  15.8021  15.8237  15.8238  16.2416  16.2417
    16.2426  16.2426  16.2737  16.2738  16.3023  16.3023  16.6574  16.6574
    16.6777  16.6777  16.7567  16.7567  16.8599  16.8600  16.8627  16.8628
    16.9617  16.9618  17.0695  17.0697  17.0738  17.0739  17.6533  17.6534
    17.7872  17.7872  17.9935  17.9935  18.0829  18.0829  18.1122  18.1123
    18.1472  18.1472  18.3506  18.3507  18.4510  18.4511  18.4522  18.4523
    18.4898  18.4900  18.5349  18.5350  18.6147  18.6147  18.6538  18.6540
    18.8716  18.8717  18.9881  18.9881  19.1752  19.1752  19.2412  19.2412
    19.4624  19.4625  19.6045  19.6046  20.0558  20.0558  20.8103  20.8104
    21.4997  21.4998

          k = 0.0558 0.2792 0.2792 ( 11834 PWs)   bands (ev):

   -68.7330 -68.6927 -68.6926 -68.6715 -68.6647 -68.6573 -68.6572 -68.6527
   -68.6517 -68.6515 -68.6514 -68.6486 -68.6418 -68.6292 -68.6292 -68.5969
   -34.9601 -34.9428 -34.9428 -34.9343 -34.9343 -34.9006 -34.8732 -34.8731
   -34.8706 -34.8695 -34.8612 -34.8582 -34.8394 -34.8176 -34.7813 -34.7459
   -34.7430 -34.7429 -34.7369 -34.7369 -34.7058 -34.6969 -34.6965 -34.6888
   -34.6888 -34.6771 -34.6770 -34.6697 -34.6697 -34.6642 -34.6335 -34.6073
   -34.6014 -34.6014 -34.5942 -34.5907 -34.5895 -34.5689 -34.5632 -34.5455
   -34.5455 -34.5346 -34.5346 -34.5276 -34.5274 -34.5274 -34.5013 -34.5004
    11.3924  13.3297  13.3297  14.0555  14.5420  14.5420  14.5430  14.5515
    14.5977  14.6023  14.6279  14.6279  14.8940  15.0036  15.0036  15.4737
    15.4737  15.4745  15.5416  15.8844  15.8900  15.9401  15.9401  15.9558
    15.9799  15.9799  16.0488  16.0932  16.3670  16.3961  16.4550  16.6694
    16.6695  16.7558  16.7558  16.7600  16.8074  16.8274  16.8958  16.9638
    17.2581  17.2581  17.4042  17.4042  17.4660  17.4661  17.5059  17.6475
    17.7247  17.7247  17.8327  17.9151  18.0290  18.0290  18.0629  18.1194
    18.3010  18.3120  18.3120  18.3146  18.3147  18.3457  18.3457  18.3779
    18.4404  18.4815  18.4977  18.5395  18.5735  18.6727  18.7376  18.7377
    18.7508  18.7509  18.8109  18.9666  19.0269  19.0269  19.0303  19.3487
    19.3487  19.3983  19.6975  19.8688  19.8811  20.6175  21.1732  21.1732
    21.8203  21.8203

          k = 0.0558 0.2792 0.3908 ( 11858 PWs)   bands (ev):

   -68.7255 -68.7050 -68.6886 -68.6778 -68.6631 -68.6593 -68.6560 -68.6530
   -68.6523 -68.6516 -68.6508 -68.6492 -68.6375 -68.6312 -68.6188 -68.6025
   -34.9470 -34.9252 -34.9252 -34.9204 -34.9133 -34.9020 -34.8861 -34.8813
   -34.8807 -34.8800 -34.8783 -34.8662 -34.8628 -34.8030 -34.7849 -34.7620
   -34.7580 -34.7363 -34.7295 -34.7089 -34.7057 -34.7043 -34.7037 -34.6999
   -34.6998 -34.6944 -34.6803 -34.6694 -34.6676 -34.6456 -34.6257 -34.6230
   -34.6069 -34.5879 -34.5840 -34.5781 -34.5756 -34.5718 -34.5548 -34.5446
   -34.5441 -34.5424 -34.5407 -34.5340 -34.5269 -34.5266 -34.5041 -34.5036
    11.7584  12.7581  13.5345  13.9204  14.6105  14.6420  14.6717  14.7348
    14.7465  14.7727  14.8002  14.8671  14.9307  14.9454  14.9571  15.2166
    15.3549  15.3717  15.6986  15.8510  15.8904  15.8905  15.9162  15.9254
    16.0377  16.0695  16.0699  16.1488  16.3768  16.4787  16.5405  16.5924
    16.5940  16.6749  16.7153  16.7352  16.7392  16.7571  16.8300  16.8787
    16.9269  16.9764  17.0574  17.1122  17.1533  17.2186  17.6878  17.7348
    17.7977  17.9474  17.9743  17.9820  17.9965  18.0248  18.0417  18.0971
    18.2337  18.2363  18.2537  18.2783  18.3486  18.3545  18.3625  18.3690
    18.4470  18.4643  18.4923  18.5554  18.5631  18.5773  18.6125  18.6345
    18.6971  18.7697  18.8094  18.8118  18.8304  18.9994  19.0573  19.1548
    19.5040  19.5571  19.6871  19.8258  20.1924  20.8554  20.9438  21.5840
    21.8526  22.4685

          k = 0.0558 0.2792-0.5025 ( 11838 PWs)   bands (ev):

   -68.7161 -68.7159 -68.6837 -68.6835 -68.6613 -68.6611 -68.6546 -68.6545
   -68.6520 -68.6517 -68.6501 -68.6498 -68.6341 -68.6339 -68.6100 -68.6098
   -34.9271 -34.9271 -34.9039 -34.9038 -34.9038 -34.9037 -34.9037 -34.9035
   -34.8885 -34.8885 -34.8821 -34.8820 -34.8267 -34.8267 -34.7844 -34.7842
   -34.7325 -34.7325 -34.7212 -34.7210 -34.7201 -34.7199 -34.6985 -34.6984
   -34.6910 -34.6909 -34.6689 -34.6688 -34.6638 -34.6638 -34.6155 -34.6155
   -34.6142 -34.6140 -34.5617 -34.5615 -34.5584 -34.5583 -34.5576 -34.5574
   -34.5566 -34.5565 -34.5432 -34.5432 -34.5125 -34.5125 -34.5124 -34.5124
    12.2221  12.2221  13.7431  13.7431  14.6587  14.6587  14.8176  14.8176
    14.8591  14.8591  14.8647  14.8647  14.9820  14.9821  15.0967  15.0968
    15.1320  15.1321  15.8523  15.8524  15.8735  15.8737  16.0129  16.0130
    16.0527  16.0528  16.0931  16.0932  16.2952  16.2952  16.6899  16.6900
    16.6928  16.6928  16.7170  16.7170  16.8045  16.8046  16.8192  16.8193
    16.8568  16.8568  16.8860  16.8861  16.8932  16.8932  17.8825  17.8826
    17.9216  17.9216  17.9685  17.9686  18.0354  18.0355  18.1255  18.1255
    18.1361  18.1361  18.1371  18.1372  18.4064  18.4065  18.4168  18.4169
    18.4411  18.4412  18.4930  18.4931  18.5775  18.5776  18.5818  18.5819
    18.6824  18.6825  18.8332  18.8333  18.8950  18.8950  19.0381  19.0381
    19.6199  19.6199  19.7201  19.7201  20.5248  20.5248  21.2784  21.2784
    22.5470  22.5470

          k = 0.0558 0.3908 0.3908 ( 11828 PWs)   bands (ev):

   -68.7186 -68.6998 -68.6998 -68.6859 -68.6616 -68.6579 -68.6579 -68.6546
   -68.6518 -68.6509 -68.6509 -68.6496 -68.6314 -68.6220 -68.6219 -68.6074
   -34.9392 -34.9131 -34.9131 -34.9060 -34.9060 -34.9045 -34.9044 -34.8915
   -34.8911 -34.8892 -34.8879 -34.8749 -34.8288 -34.7898 -34.7522 -34.7522
   -34.7455 -34.7455 -34.7344 -34.7310 -34.7252 -34.7100 -34.7099 -34.7083
   -34.6960 -34.6797 -34.6797 -34.6744 -34.6744 -34.6740 -34.6638 -34.6148
   -34.6084 -34.5858 -34.5857 -34.5693 -34.5638 -34.5613 -34.5521 -34.5492
   -34.5476 -34.5476 -34.5430 -34.5430 -34.5124 -34.5124 -34.5012 -34.5005
    12.1051  13.0282  13.0282  13.6473  14.7646  14.7980  14.8318  14.8609
    14.8609  14.9392  14.9392  14.9650  14.9763  14.9763  15.0602  15.3136
    15.3380  15.4432  15.4432  15.8440  15.8720  15.8830  15.9519  15.9519
    15.9556  15.9556  15.9710  16.0527  16.2188  16.4720  16.4898  16.4898
    16.5375  16.6220  16.6471  16.6866  16.7615  16.7615  16.7815  16.7815
    16.7965  16.7966  16.8278  16.8751  17.0213  17.4133  17.4133  17.9048
    17.9726  17.9824  17.9824  18.0278  18.0633  18.0866  18.1074  18.1074
    18.1151  18.2326  18.2860  18.2860  18.2959  18.2959  18.3261  18.3662
    18.3663  18.3973  18.3996  18.4220  18.4991  18.4991  18.5356  18.5884
    18.6637  18.6954  18.6954  18.7797  18.8619  18.8620  18.9024  18.9293
    19.6706  19.6706  19.7408  19.8357  20.6015  21.3646  21.4425  21.4425
    22.1989  22.1990

          k = 0.0558 0.3908-0.5025 ( 11846 PWs)   bands (ev):

   -68.7101 -68.7098 -68.6935 -68.6933 -68.6599 -68.6597 -68.6564 -68.6562
   -68.6514 -68.6512 -68.6503 -68.6500 -68.6262 -68.6260 -68.6141 -68.6139
   -34.9246 -34.9246 -34.9007 -34.9007 -34.9004 -34.9003 -34.8998 -34.8997
   -34.8981 -34.8980 -34.8898 -34.8898 -34.7882 -34.7881 -34.7727 -34.7725
   -34.7400 -34.7398 -34.7246 -34.7245 -34.7119 -34.7118 -34.7048 -34.7048
   -34.7028 -34.7028 -34.6892 -34.6891 -34.6780 -34.6780 -34.6437 -34.6437
   -34.5962 -34.5960 -34.5676 -34.5674 -34.5552 -34.5551 -34.5542 -34.5541
   -34.5534 -34.5534 -34.5449 -34.5449 -34.5040 -34.5040 -34.5038 -34.5038
    12.5381  12.5381  13.3381  13.3381  14.8630  14.8630  14.8785  14.8785
    14.9008  14.9009  15.0680  15.0680  15.1252  15.1253  15.1941  15.1942
    15.2052  15.2053  15.7315  15.7316  15.8799  15.8800  15.8881  15.8881
    15.8981  15.8981  15.9623  15.9623  16.3346  16.3346  16.5381  16.5381
    16.5849  16.5850  16.6223  16.6224  16.6240  16.6241  16.6433  16.6434
    16.8335  16.8336  16.8576  16.8576  17.1059  17.1059  17.7084  17.7084
    18.0114  18.0115  18.0460  18.0460  18.1357  18.1357  18.1360  18.1360
    18.1780  18.1781  18.2111  18.2111  18.3014  18.3015  18.3392  18.3393
    18.3631  18.3632  18.3834  18.3836  18.4260  18.4261  18.6302  18.6303
    18.6402  18.6402  18.7388  18.7388  18.7397  18.7398  18.8919  18.8919
    19.7342  19.7342  19.7835  19.7835  21.0229  21.0229  21.7934  21.7934
    22.0418  22.0418

          k = 0.0558-0.5025-0.5025 ( 11844 PWs)   bands (ev):

   -68.7025 -68.7023 -68.7023 -68.7021 -68.6582 -68.6581 -68.6581 -68.6579
   -68.6509 -68.6507 -68.6507 -68.6504 -68.6196 -68.6195 -68.6195 -68.6192
   -34.9155 -34.9154 -34.9154 -34.9154 -34.8986 -34.8985 -34.8985 -34.8984
   -34.8931 -34.8930 -34.8930 -34.8929 -34.7577 -34.7576 -34.7576 -34.7574
   -34.7469 -34.7468 -34.7468 -34.7468 -34.7214 -34.7214 -34.7213 -34.7213
   -34.6849 -34.6849 -34.6849 -34.6849 -34.6735 -34.6735 -34.6735 -34.6735
   -34.5807 -34.5805 -34.5805 -34.5803 -34.5525 -34.5524 -34.5524 -34.5523
   -34.5490 -34.5489 -34.5489 -34.5489 -34.5010 -34.5010 -34.5010 -34.5010
    12.9220  12.9220  12.9220  12.9221  14.8966  14.8966  14.8966  14.8967
    15.0621  15.0622  15.0622  15.0622  15.2095  15.2095  15.2095  15.2095
    15.4512  15.4512  15.4512  15.4513  15.8412  15.8412  15.8412  15.8412
    15.8968  15.8969  15.8969  15.8969  16.4171  16.4171  16.4172  16.4172
    16.5401  16.5402  16.5402  16.5403  16.5860  16.5861  16.5861  16.5862
    16.8243  16.8243  16.8243  16.8244  17.3933  17.3933  17.3934  17.3934
    18.1282  18.1283  18.1283  18.1285  18.1305  18.1305  18.1305  18.1305
    18.2572  18.2572  18.2572  18.2573  18.2919  18.2919  18.2919  18.2920
    18.3594  18.3595  18.3595  18.3597  18.3869  18.3869  18.3870  18.3870
    18.6791  18.6792  18.6792  18.6793  18.7999  18.7999  18.7999  18.7999
    19.7895  19.7895  19.7895  19.7895  21.5320  21.5320  21.5320  21.5320
    22.3197  22.3197

          k = 0.1675 0.1675 0.1675 ( 11794 PWs)   bands (ev):

   -68.7409 -68.6807 -68.6807 -68.6806 -68.6601 -68.6601 -68.6601 -68.6507
   -68.6494 -68.6494 -68.6493 -68.6473 -68.6405 -68.6405 -68.6404 -68.5910
   -34.9680 -34.9680 -34.9680 -34.9477 -34.9477 -34.9477 -34.8495 -34.8495
   -34.8479 -34.8407 -34.8407 -34.8407 -34.8029 -34.7951 -34.7951 -34.7603
   -34.7602 -34.7602 -34.7192 -34.7192 -34.7192 -34.6822 -34.6822 -34.6822
   -34.6724 -34.6724 -34.6582 -34.6582 -34.6582 -34.6543 -34.6543 -34.6543
   -34.6271 -34.6271 -34.6271 -34.6191 -34.5797 -34.5797 -34.5796 -34.5535
   -34.5280 -34.5280 -34.5280 -34.5080 -34.5080 -34.5080 -34.5054 -34.5054
    11.0117  13.8448  13.8449  13.8449  14.2754  14.2754  14.2754  14.4056
    14.4056  14.4450  14.4450  14.4450  14.9751  14.9752  14.9752  15.5633
    15.6640  15.6640  15.6640  15.8379  15.8379  15.9095  15.9095  15.9095
    16.0113  16.0113  16.0113  16.1987  16.1987  16.2074  16.4881  16.4881
    16.4881  16.9375  16.9375  16.9710  16.9710  16.9710  17.3269  17.3505
    17.3505  17.3505  17.4897  17.4897  17.4897  17.5464  17.5464  17.5464
    17.9235  17.9235  17.9235  18.1495  18.1495  18.1495  18.2363  18.2363
    18.2711  18.2711  18.2711  18.4260  18.4261  18.4261  18.4766  18.4766
    18.4766  18.4774  18.4775  18.4775  18.5156  18.5156  18.5417  18.5417
    18.9877  18.9969  18.9969  18.9969  19.0499  19.0499  19.0499  19.4889
    19.4889  19.4889  19.5464  19.5464  20.3772  20.3772  20.3772  21.0498
    21.0498  21.0498

          k = 0.1675 0.1675 0.2792 ( 11820 PWs)   bands (ev):

   -68.7357 -68.6941 -68.6787 -68.6786 -68.6643 -68.6643 -68.6591 -68.6522
   -68.6489 -68.6473 -68.6467 -68.6466 -68.6410 -68.6409 -68.6285 -68.5949
   -34.9581 -34.9581 -34.9532 -34.9376 -34.9252 -34.9252 -34.8662 -34.8647
   -34.8647 -34.8588 -34.8556 -34.8381 -34.8347 -34.7909 -34.7909 -34.7832
   -34.7758 -34.7489 -34.7243 -34.7204 -34.7204 -34.6956 -34.6921 -34.6921
   -34.6857 -34.6789 -34.6611 -34.6473 -34.6472 -34.6337 -34.6324 -34.6324
   -34.6295 -34.6295 -34.5983 -34.5974 -34.5800 -34.5611 -34.5611 -34.5574
   -34.5425 -34.5425 -34.5347 -34.5220 -34.5157 -34.5104 -34.5104 -34.5059
    11.2677  13.2593  13.9686  13.9686  14.2653  14.2653  14.4687  14.5120
    14.5233  14.5641  14.5641  14.6170  15.0185  15.0185  15.0413  15.3754
    15.4859  15.7045  15.7045  15.7105  15.8017  15.8805  15.9601  15.9805
    15.9805  16.0344  16.1435  16.1435  16.2970  16.3945  16.3945  16.4073
    16.6713  16.8058  16.8059  16.8677  16.8776  16.9163  17.0837  17.0837
    17.1135  17.1135  17.3595  17.4689  17.5355  17.5801  17.6691  17.6691
    17.7242  17.7242  17.7528  17.9717  17.9717  18.1420  18.1657  18.1969
    18.1969  18.2282  18.2920  18.3221  18.3665  18.3665  18.3958  18.4826
    18.4973  18.5105  18.5292  18.5674  18.5930  18.5931  18.6203  18.6203
    18.6948  18.7667  19.1159  19.1159  19.1290  19.1367  19.1368  19.1824
    19.3318  19.5613  19.5613  19.5860  20.0801  20.0801  21.0375  21.2717
    21.2717  21.8952

          k = 0.1675 0.1675 0.3908 ( 11840 PWs)   bands (ev):

   -68.7279 -68.7067 -68.6759 -68.6758 -68.6685 -68.6685 -68.6576 -68.6541
   -68.6484 -68.6475 -68.6446 -68.6445 -68.6418 -68.6417 -68.6177 -68.6008
   -34.9409 -34.9409 -34.9316 -34.9229 -34.8963 -34.8963 -34.8921 -34.8921
   -34.8861 -34.8713 -34.8650 -34.8643 -34.8266 -34.8265 -34.8220 -34.7768
   -34.7615 -34.7552 -34.7168 -34.7168 -34.7132 -34.7125 -34.7017 -34.7017
   -34.6862 -34.6797 -34.6682 -34.6414 -34.6414 -34.6325 -34.6325 -34.6120
   -34.6063 -34.6063 -34.5986 -34.5773 -34.5722 -34.5606 -34.5606 -34.5452
   -34.5430 -34.5430 -34.5417 -34.5380 -34.5304 -34.5172 -34.5172 -34.5116
    11.6403  12.6658  14.1025  14.1025  14.2502  14.2502  14.6675  14.6784
    14.7057  14.7057  14.7400  14.8520  14.9739  14.9739  14.9806  15.1064
    15.3475  15.4076  15.7968  15.8463  15.8815  15.8815  15.9025  15.9048
    16.0964  16.0964  16.2844  16.2844  16.3435  16.3435  16.5581  16.6508
    16.6819  16.6819  16.7037  16.7037  16.7830  16.8194  16.8197  16.8652
    16.8652  16.8867  17.1589  17.1589  17.1594  17.3062  17.6337  17.6948
    17.7763  17.9317  17.9317  18.0092  18.0131  18.0131  18.0205  18.1252
    18.1252  18.2688  18.2688  18.3696  18.3784  18.3846  18.4110  18.4462
    18.4716  18.4899  18.4968  18.5042  18.5903  18.6165  18.6809  18.6810
    18.7228  18.7228  18.8690  19.0546  19.2845  19.2845  19.2955  19.2955
    19.3460  19.5342  19.5342  19.5592  19.8036  19.8036  21.5364  21.5364
    21.7358  21.9334

          k = 0.1675 0.1675-0.5025 ( 11844 PWs)   bands (ev):

   -68.7182 -68.7180 -68.6726 -68.6725 -68.6724 -68.6723 -68.6560 -68.6558
   -68.6480 -68.6478 -68.6430 -68.6430 -68.6428 -68.6427 -68.6086 -68.6083
   -34.9183 -34.9183 -34.9183 -34.9182 -34.9054 -34.9052 -34.9043 -34.9041
   -34.8674 -34.8673 -34.8628 -34.8628 -34.8627 -34.8627 -34.8014 -34.8012
   -34.7380 -34.7380 -34.7339 -34.7337 -34.7102 -34.7102 -34.7100 -34.7100
   -34.6752 -34.6750 -34.6480 -34.6479 -34.6366 -34.6366 -34.6365 -34.6365
   -34.5820 -34.5820 -34.5820 -34.5820 -34.5676 -34.5674 -34.5596 -34.5595
   -34.5494 -34.5492 -34.5283 -34.5283 -34.5283 -34.5283 -34.5223 -34.5223
    12.1143  12.1143  14.2019  14.2019  14.2019  14.2019  14.8433  14.8434
    14.8528  14.8528  14.8528  14.8528  14.8676  14.8677  15.0649  15.0650
    15.1156  15.1157  15.8151  15.8152  15.8712  15.8713  16.1662  16.1662
    16.1663  16.1663  16.2379  16.2379  16.2379  16.2379  16.6502  16.6503
    16.6503  16.6503  16.7963  16.7963  16.7963  16.7963  16.8015  16.8015
    16.8462  16.8464  16.9017  16.9018  16.9113  16.9114  17.8189  17.8189
    17.8515  17.8516  18.0628  18.0628  18.0628  18.0628  18.0640  18.0641
    18.1209  18.1209  18.1209  18.1209  18.4408  18.4410  18.4462  18.4463
    18.4668  18.4669  18.4973  18.4974  18.7076  18.7076  18.7287  18.7287
    18.7288  18.7288  18.7496  18.7498  19.4375  19.4375  19.4375  19.4375
    19.4754  19.4755  19.5326  19.5326  19.5326  19.5326  21.7828  21.7828
    21.7829  21.7829

          k = 0.1675 0.2792 0.2792 ( 11834 PWs)   bands (ev):

   -68.7306 -68.6913 -68.6913 -68.6767 -68.6706 -68.6631 -68.6630 -68.6544
   -68.6467 -68.6465 -68.6463 -68.6418 -68.6414 -68.6298 -68.6297 -68.5986
   -34.9527 -34.9442 -34.9442 -34.9186 -34.9186 -34.8990 -34.8768 -34.8762
   -34.8762 -34.8761 -34.8648 -34.8429 -34.8353 -34.8117 -34.7856 -34.7606
   -34.7562 -34.7561 -34.7498 -34.7498 -34.7292 -34.7083 -34.7083 -34.7073
   -34.6662 -34.6588 -34.6587 -34.6522 -34.6522 -34.6344 -34.6326 -34.6193
   -34.6118 -34.6085 -34.6014 -34.6014 -34.5820 -34.5603 -34.5510 -34.5445
   -34.5445 -34.5421 -34.5421 -34.5230 -34.5230 -34.5219 -34.5077 -34.5059
    11.5176  13.4257  13.4257  14.1119  14.1659  14.4664  14.4664  14.6097
    14.6437  14.6907  14.7333  14.7333  15.0910  15.0910  15.1239  15.4532
    15.4532  15.4557  15.6647  15.6694  15.8465  15.9439  15.9440  16.0285
    16.0584  16.0608  16.0608  16.1850  16.2680  16.2937  16.3684  16.5402
    16.5403  16.7289  16.7312  16.7366  16.7367  16.7857  16.8637  16.9397
    16.9945  16.9945  17.2616  17.2616  17.3467  17.3467  17.4192  17.6414
    17.7545  17.7545  17.8153  18.0622  18.1294  18.1513  18.1666  18.1666
    18.2686  18.2686  18.2705  18.3326  18.3497  18.3497  18.3794  18.4437
    18.4653  18.4654  18.4744  18.5054  18.5283  18.5283  18.5305  18.5961
    18.6785  18.7651  18.7651  19.1287  19.2228  19.2357  19.2357  19.3043
    19.3043  19.3326  19.5784  19.6475  19.7463  20.6555  20.6555  21.5600
    22.3921  22.3921

          k = 0.1675 0.2792 0.3908 ( 11858 PWs)   bands (ev):

   -68.7233 -68.7032 -68.6874 -68.6767 -68.6741 -68.6670 -68.6613 -68.6568
   -68.6464 -68.6461 -68.6446 -68.6421 -68.6377 -68.6317 -68.6198 -68.6040
   -34.9402 -34.9296 -34.9241 -34.9094 -34.8997 -34.8944 -34.8926 -34.8879
   -34.8811 -34.8737 -34.8698 -34.8669 -34.8379 -34.8210 -34.7931 -34.7771
   -34.7714 -34.7442 -34.7367 -34.7318 -34.7284 -34.7219 -34.7193 -34.7184
   -34.6855 -34.6651 -34.6580 -34.6457 -34.6424 -34.6363 -34.6314 -34.6234
   -34.6068 -34.5919 -34.5913 -34.5814 -34.5759 -34.5678 -34.5572 -34.5490
   -34.5412 -34.5411 -34.5354 -34.5279 -34.5268 -34.5264 -34.5100 -34.5082
    11.8800  12.8657  13.6379  14.0337  14.2729  14.4539  14.7426  14.7485
    14.8117  14.8241  14.8747  14.9610  15.0340  15.0506  15.1340  15.2186
    15.3853  15.4260  15.6701  15.7691  15.8387  15.8998  15.9495  15.9723
    16.0394  16.1229  16.1340  16.1943  16.3297  16.3400  16.4063  16.5009
    16.5155  16.6201  16.6296  16.6683  16.6763  16.7072  16.7235  16.7573
    16.8171  16.8571  16.9304  16.9776  16.9882  17.0418  17.4714  17.8369
    17.8403  17.9464  17.9659  18.0529  18.0737  18.0903  18.1238  18.1259
    18.2178  18.2531  18.2576  18.2722  18.3284  18.3541  18.3663  18.4126
    18.4400  18.4758  18.4979  18.5053  18.5115  18.5529  18.5773  18.5985
    18.6624  18.6823  18.8950  18.9688  18.9752  19.1635  19.2557  19.4422
    19.4484  19.4493  19.5827  19.6316  19.6437  20.3029  21.2723  21.8996
    22.4764  22.5529

          k = 0.1675 0.2792-0.5025 ( 11844 PWs)   bands (ev):

   -68.7142 -68.7139 -68.6825 -68.6823 -68.6709 -68.6707 -68.6592 -68.6590
   -68.6462 -68.6460 -68.6432 -68.6430 -68.6344 -68.6342 -68.6112 -68.6110
   -34.9218 -34.9218 -34.9115 -34.9115 -34.8990 -34.8988 -34.8987 -34.8985
   -34.8799 -34.8799 -34.8667 -34.8666 -34.8309 -34.8309 -34.8012 -34.8010
   -34.7505 -34.7504 -34.7343 -34.7342 -34.7279 -34.7278 -34.7116 -34.7115
   -34.6798 -34.6798 -34.6627 -34.6625 -34.6406 -34.6405 -34.6144 -34.6142
   -34.6053 -34.6053 -34.5727 -34.5727 -34.5645 -34.5644 -34.5566 -34.5565
   -34.5538 -34.5536 -34.5328 -34.5327 -34.5168 -34.5168 -34.5149 -34.5149
    12.3379  12.3380  13.8536  13.8536  14.3960  14.3960  14.8971  14.8971
    14.9506  14.9506  15.0061  15.0061  15.0228  15.0229  15.0844  15.0846
    15.2047  15.2048  15.8595  15.8596  15.9159  15.9160  15.9818  15.9819
    16.0032  16.0033  16.1356  16.1357  16.2554  16.2554  16.6153  16.6153
    16.6299  16.6300  16.6556  16.6557  16.6642  16.6643  16.6833  16.6834
    16.7323  16.7323  16.7662  16.7663  16.7694  16.7694  17.7418  17.7419
    17.9552  17.9553  18.0528  18.0528  18.0898  18.0898  18.1198  18.1198
    18.1239  18.1240  18.1722  18.1722  18.4011  18.4013  18.4243  18.4244
    18.4353  18.4355  18.5069  18.5070  18.5412  18.5413  18.6523  18.6524
    18.6911  18.6912  18.7810  18.7810  19.1613  19.1613  19.2194  19.2194
    19.5378  19.5379  19.5712  19.5712  19.9621  19.9622  21.9071  21.9071
    22.2294  22.2295

          k = 0.1675 0.3908 0.3908 ( 11837 PWs)   bands (ev):

   -68.7166 -68.6983 -68.6982 -68.6847 -68.6715 -68.6650 -68.6649 -68.6596
   -68.6454 -68.6446 -68.6446 -68.6426 -68.6318 -68.6228 -68.6227 -68.6087
   -34.9322 -34.9137 -34.9137 -34.9004 -34.9004 -34.8960 -34.8920 -34.8920
   -34.8888 -34.8854 -34.8785 -34.8541 -34.8326 -34.8096 -34.7723 -34.7695
   -34.7694 -34.7558 -34.7557 -34.7425 -34.7404 -34.7399 -34.7399 -34.7107
   -34.6782 -34.6583 -34.6576 -34.6576 -34.6506 -34.6505 -34.6406 -34.6076
   -34.6049 -34.5836 -34.5836 -34.5765 -34.5760 -34.5603 -34.5552 -34.5552
   -34.5470 -34.5404 -34.5404 -34.5398 -34.5162 -34.5161 -34.5072 -34.5060
    12.2247  13.1394  13.1394  13.7636  14.4780  14.7349  14.7350  14.8392
    14.9215  14.9993  15.0284  15.0284  15.0977  15.0977  15.2785  15.3198
    15.4099  15.4467  15.4467  15.7062  15.8810  15.9099  15.9724  15.9724
    15.9849  15.9849  16.0506  16.0865  16.1935  16.2614  16.4463  16.4502
    16.4503  16.5348  16.5943  16.6065  16.6065  16.6402  16.6591  16.6591
    16.6690  16.6799  16.6799  16.7603  16.8512  17.1732  17.1733  17.7260
    17.9980  17.9980  18.0585  18.0585  18.1082  18.1183  18.2225  18.2269
    18.2838  18.2839  18.3010  18.3010  18.3118  18.3227  18.3227  18.3907
    18.4013  18.4616  18.4616  18.4757  18.5196  18.5599  18.5599  18.5874
    18.5874  18.6464  18.7254  18.7695  19.0132  19.0133  19.0719  19.1454
    19.5572  19.5573  19.6183  19.6768  20.0200  20.8411  20.8411  21.9655
    22.3234  23.1042

          k = 0.1675 0.3908-0.5025 ( 11850 PWs)   bands (ev):

   -68.7082 -68.7080 -68.6921 -68.6919 -68.6686 -68.6683 -68.6625 -68.6623
   -68.6450 -68.6447 -68.6435 -68.6433 -68.6269 -68.6266 -68.6152 -68.6149
   -34.9183 -34.9183 -34.9034 -34.9033 -34.8953 -34.8952 -34.8951 -34.8951
   -34.8901 -34.8900 -34.8728 -34.8728 -34.7948 -34.7948 -34.7918 -34.7917
   -34.7596 -34.7595 -34.7568 -34.7567 -34.7454 -34.7454 -34.7167 -34.7166
   -34.6843 -34.6842 -34.6548 -34.6547 -34.6452 -34.6451 -34.6305 -34.6305
   -34.5944 -34.5942 -34.5645 -34.5644 -34.5634 -34.5632 -34.5574 -34.5572
   -34.5561 -34.5560 -34.5397 -34.5397 -34.5096 -34.5096 -34.5089 -34.5089
    12.6545  12.6546  13.4530  13.4530  14.6500  14.6500  14.9441  14.9441
    14.9903  14.9904  15.0524  15.0525  15.2179  15.2180  15.2361  15.2361
    15.3148  15.3149  15.7352  15.7353  15.8420  15.8421  15.8873  15.8874
    15.9140  15.9141  16.0307  16.0307  16.3045  16.3045  16.4097  16.4098
    16.5028  16.5029  16.5078  16.5078  16.5127  16.5128  16.5538  16.5539
    16.7123  16.7124  16.7168  16.7169  16.9015  16.9015  17.4246  17.4246
    18.0679  18.0679  18.1379  18.1379  18.1748  18.1749  18.1842  18.1843
    18.2844  18.2844  18.3088  18.3088  18.3343  18.3344  18.3754  18.3755
    18.4150  18.4151  18.4208  18.4209  18.5272  18.5273  18.5372  18.5373
    18.6065  18.6066  18.8364  18.8365  18.8566  18.8566  19.0326  19.0327
    19.6143  19.6143  19.6438  19.6439  20.4256  20.4257  21.3970  21.3971
    22.7476  22.7476

          k = 0.1675-0.5025-0.5025 ( 11824 PWs)   bands (ev):

   -68.7009 -68.7007 -68.7007 -68.7004 -68.6658 -68.6656 -68.6656 -68.6653
   -68.6442 -68.6440 -68.6440 -68.6437 -68.6204 -68.6203 -68.6203 -68.6200
   -34.9087 -34.9086 -34.9086 -34.9086 -34.8971 -34.8970 -34.8970 -34.8968
   -34.8809 -34.8808 -34.8808 -34.8807 -34.7762 -34.7761 -34.7761 -34.7759
   -34.7575 -34.7575 -34.7575 -34.7575 -34.7560 -34.7560 -34.7559 -34.7559
   -34.6569 -34.6569 -34.6569 -34.6569 -34.6495 -34.6495 -34.6494 -34.6494
   -34.5774 -34.5772 -34.5772 -34.5770 -34.5589 -34.5588 -34.5588 -34.5588
   -34.5484 -34.5483 -34.5483 -34.5483 -34.5068 -34.5068 -34.5068 -34.5068
    13.0385  13.0385  13.0385  13.0385  14.8998  14.8998  14.8998  14.8998
    14.9819  14.9819  14.9819  14.9820  15.3737  15.3737  15.3737  15.3737
    15.4700  15.4700  15.4700  15.4701  15.7867  15.7868  15.7868  15.7868
    15.9578  15.9578  15.9578  15.9578  16.3819  16.3820  16.3820  16.3821
    16.3886  16.3886  16.3886  16.3886  16.4943  16.4944  16.4944  16.4945
    16.6924  16.6924  16.6924  16.6925  17.1379  17.1379  17.1379  17.1380
    18.1422  18.1422  18.1422  18.1423  18.2531  18.2532  18.2532  18.2533
    18.3402  18.3403  18.3403  18.3405  18.3558  18.3559  18.3559  18.3561
    18.3689  18.3690  18.3690  18.3690  18.5709  18.5710  18.5710  18.5711
    18.5777  18.5778  18.5778  18.5778  18.9079  18.9079  18.9079  18.9079
    19.6566  19.6566  19.6566  19.6566  20.9057  20.9057  20.9057  20.9057
    23.2792  23.2792

          k = 0.2792 0.2792 0.2792 ( 11839 PWs)   bands (ev):

   -68.7258 -68.6887 -68.6887 -68.6887 -68.6690 -68.6690 -68.6689 -68.6575
   -68.6449 -68.6421 -68.6421 -68.6420 -68.6309 -68.6309 -68.6309 -68.6019
   -34.9385 -34.9385 -34.9385 -34.8963 -34.8963 -34.8963 -34.8837 -34.8837
   -34.8836 -34.8821 -34.8531 -34.8531 -34.8237 -34.8237 -34.7793 -34.7793
   -34.7793 -34.7603 -34.7603 -34.7603 -34.7363 -34.7268 -34.7268 -34.7268
   -34.6369 -34.6369 -34.6369 -34.6362 -34.6356 -34.6356 -34.6356 -34.6288
   -34.6288 -34.6030 -34.6029 -34.6029 -34.5707 -34.5573 -34.5573 -34.5573
   -34.5367 -34.5367 -34.5367 -34.5209 -34.5209 -34.5209 -34.5164 -34.5164
    11.7628  13.6035  13.6035  13.6035  14.3800  14.3800  14.3800  14.7342
    14.7342  14.8579  14.8579  14.8579  15.2249  15.2249  15.2249  15.4448
    15.4448  15.4448  15.4681  15.8397  15.8397  15.8612  15.9909  15.9909
    15.9909  16.1733  16.1733  16.1733  16.1853  16.1853  16.4099  16.4099
    16.4099  16.6365  16.6365  16.6366  16.6716  16.6716  16.6716  16.7449
    16.7449  17.0127  17.0127  17.0127  17.0753  17.0753  17.0753  17.8359
    17.8549  17.8549  17.8549  18.0462  18.2118  18.2118  18.2377  18.2377
    18.2377  18.2674  18.2675  18.2675  18.3274  18.3274  18.3274  18.4494
    18.4494  18.4494  18.4707  18.4707  18.5674  18.5675  18.5675  18.5910
    18.5910  18.9212  18.9212  18.9212  19.2736  19.2736  19.2737  19.3486
    19.3487  19.3487  19.3650  19.3650  20.2395  20.2395  20.2395  22.5558
    22.6884  22.6884

          k = 0.2792 0.2792 0.3908 ( 11834 PWs)   bands (ev):

   -68.7189 -68.6999 -68.6849 -68.6849 -68.6748 -68.6748 -68.6667 -68.6608
   -68.6436 -68.6423 -68.6382 -68.6381 -68.6327 -68.6327 -68.6216 -68.6069
   -34.9270 -34.9269 -34.9176 -34.8965 -34.8965 -34.8930 -34.8860 -34.8846
   -34.8690 -34.8690 -34.8680 -34.8592 -34.8363 -34.8078 -34.8078 -34.8010
   -34.7891 -34.7624 -34.7624 -34.7505 -34.7433 -34.7431 -34.7431 -34.7117
   -34.6695 -34.6608 -34.6388 -34.6358 -34.6241 -34.6241 -34.6128 -34.6127
   -34.6070 -34.6070 -34.5950 -34.5756 -34.5728 -34.5728 -34.5623 -34.5557
   -34.5402 -34.5318 -34.5302 -34.5301 -34.5252 -34.5219 -34.5219 -34.5147
    12.1172  13.0710  13.8323  13.8324  14.2529  14.2529  14.6838  14.8656
    14.8968  14.9937  14.9937  15.0822  15.1935  15.2284  15.2285  15.2290
    15.4555  15.4597  15.6114  15.6114  15.8589  15.9441  16.0016  16.0445
    16.0758  16.0759  16.0851  16.2099  16.2099  16.2985  16.2985  16.3247
    16.4309  16.4309  16.5229  16.5448  16.5448  16.5805  16.5866  16.6482
    16.6869  16.7133  16.7658  16.7658  16.7731  16.7731  17.1670  17.7130
    17.9345  17.9957  17.9957  18.0571  18.1294  18.2336  18.2337  18.2565
    18.2565  18.2847  18.2848  18.2940  18.3522  18.3587  18.4320  18.4560
    18.4632  18.4668  18.4681  18.4682  18.5193  18.5482  18.5608  18.5608
    18.5995  18.6925  19.0702  19.0938  19.2096  19.2097  19.2971  19.2971
    19.3781  19.3781  19.3823  19.4372  19.8767  19.8767  20.7863  21.9432
    23.0334  23.0334

          k = 0.2792 0.2792-0.5025 ( 11836 PWs)   bands (ev):

   -68.7103 -68.7100 -68.6803 -68.6803 -68.6801 -68.6801 -68.6640 -68.6638
   -68.6429 -68.6427 -68.6352 -68.6352 -68.6350 -68.6349 -68.6137 -68.6134
   -34.9121 -34.9121 -34.9121 -34.9120 -34.8910 -34.8908 -34.8895 -34.8893
   -34.8790 -34.8789 -34.8389 -34.8388 -34.8388 -34.8388 -34.8150 -34.8148
   -34.7762 -34.7761 -34.7559 -34.7558 -34.7557 -34.7557 -34.7061 -34.7061
   -34.6863 -34.6862 -34.6388 -34.6386 -34.6141 -34.6141 -34.6140 -34.6140
   -34.5913 -34.5913 -34.5913 -34.5913 -34.5653 -34.5651 -34.5573 -34.5572
   -34.5517 -34.5515 -34.5251 -34.5251 -34.5251 -34.5251 -34.5177 -34.5177
    12.5625  12.5625  14.0647  14.0647  14.0648  14.0648  15.0328  15.0328
    15.0547  15.0548  15.0657  15.0658  15.1252  15.1252  15.1252  15.1252
    15.3154  15.3155  15.8967  15.8969  15.9123  15.9123  15.9123  15.9124
    15.9573  15.9574  16.1862  16.1862  16.1862  16.1862  16.3770  16.3771
    16.4614  16.4614  16.5625  16.5625  16.5625  16.5625  16.5718  16.5718
    16.5719  16.5719  16.5915  16.5916  16.6134  16.6136  17.4095  17.4095
    18.0324  18.0324  18.1381  18.1381  18.1382  18.1382  18.2569  18.2569
    18.2570  18.2570  18.2940  18.2940  18.3905  18.3907  18.3952  18.3953
    18.4620  18.4621  18.4676  18.4678  18.5179  18.5179  18.5180  18.5180
    18.8019  18.8021  18.8492  18.8492  19.3486  19.3487  19.3487  19.3487
    19.4405  19.4406  19.5361  19.5361  19.5361  19.5361  21.3565  21.3565
    23.3326  23.3326

          k = 0.2792 0.3908 0.3908 ( 11820 PWs)   bands (ev):

   -68.7126 -68.6952 -68.6951 -68.6823 -68.6814 -68.6721 -68.6720 -68.6648
   -68.6416 -68.6390 -68.6389 -68.6342 -68.6326 -68.6244 -68.6243 -68.6114
   -34.9184 -34.9081 -34.9080 -34.8953 -34.8935 -34.8935 -34.8819 -34.8733
   -34.8725 -34.8725 -34.8633 -34.8393 -34.8333 -34.8276 -34.8088 -34.7906
   -34.7905 -34.7754 -34.7738 -34.7738 -34.7680 -34.7680 -34.7642 -34.7026
   -34.6859 -34.6359 -34.6359 -34.6241 -34.6241 -34.6228 -34.6089 -34.6055
   -34.5943 -34.5913 -34.5834 -34.5804 -34.5804 -34.5656 -34.5656 -34.5598
   -34.5398 -34.5389 -34.5389 -34.5334 -34.5226 -34.5226 -34.5196 -34.5175
    12.4575  13.3526  13.3526  13.9890  14.0881  14.5618  14.5618  14.9788
    15.0661  15.0931  15.1996  15.1996  15.2222  15.2222  15.2865  15.4340
    15.4496  15.4496  15.5292  15.5616  15.9111  15.9454  16.0172  16.0172
    16.0184  16.0449  16.0449  16.0450  16.1466  16.1929  16.2382  16.3601
    16.3601  16.3823  16.3823  16.4189  16.4348  16.4687  16.4687  16.5107
    16.5108  16.5418  16.5708  16.5956  16.6070  16.8773  16.8773  17.3813
    18.0535  18.0536  18.0877  18.1653  18.2455  18.2833  18.2906  18.2906
    18.2961  18.3073  18.3820  18.3820  18.3873  18.3935  18.4036  18.4538
    18.4538  18.4583  18.4645  18.4646  18.4967  18.4967  18.5333  18.5699
    18.7474  18.8707  18.8707  18.9839  19.1135  19.1135  19.1798  19.3837
    19.3838  19.4030  19.4270  19.5169  19.5730  20.3578  20.3578  21.3884
    23.4559  24.0800

          k = 0.2792 0.3908-0.5025 ( 11844 PWs)   bands (ev):

   -68.7046 -68.7044 -68.6894 -68.6891 -68.6772 -68.6770 -68.6688 -68.6686
   -68.6402 -68.6399 -68.6364 -68.6361 -68.6281 -68.6279 -68.6173 -68.6171
   -34.9062 -34.9062 -34.8995 -34.8994 -34.8852 -34.8850 -34.8847 -34.8847
   -34.8771 -34.8770 -34.8501 -34.8500 -34.8151 -34.8150 -34.8069 -34.8069
   -34.7921 -34.7920 -34.7810 -34.7809 -34.7776 -34.7775 -34.7381 -34.7381
   -34.6607 -34.6606 -34.6231 -34.6230 -34.6143 -34.6143 -34.6125 -34.6125
   -34.5908 -34.5907 -34.5784 -34.5784 -34.5609 -34.5608 -34.5608 -34.5606
   -34.5577 -34.5575 -34.5370 -34.5369 -34.5207 -34.5207 -34.5186 -34.5185
    12.8799  12.8800  13.6746  13.6746  14.3530  14.3530  14.9294  14.9294
    15.0968  15.0969  15.1623  15.1623  15.2643  15.2644  15.3626  15.3626
    15.4544  15.4545  15.7389  15.7390  15.8017  15.8018  15.9119  15.9119
    15.9582  15.9583  16.1035  16.1036  16.2006  16.2007  16.2497  16.2497
    16.2893  16.2893  16.3658  16.3659  16.4101  16.4101  16.4527  16.4528
    16.5071  16.5072  16.5429  16.5430  16.6265  16.6266  17.0902  17.0903
    18.1211  18.1211  18.1690  18.1691  18.1939  18.1940  18.3406  18.3407
    18.3548  18.3549  18.3968  18.3969  18.4072  18.4072  18.4142  18.4143
    18.4609  18.4610  18.4984  18.4985  18.5038  18.5039  18.5765  18.5765
    18.7428  18.7430  18.8947  18.8948  19.1307  19.1307  19.1859  19.1859
    19.4158  19.4158  19.4179  19.4180  19.9573  19.9574  20.8634  20.8635
    23.8556  23.8556

          k = 0.2792-0.5025-0.5025 ( 11844 PWs)   bands (ev):

   -68.6976 -68.6975 -68.6975 -68.6972 -68.6733 -68.6732 -68.6732 -68.6729
   -68.6381 -68.6380 -68.6380 -68.6377 -68.6222 -68.6220 -68.6220 -68.6217
   -34.8958 -34.8958 -34.8957 -34.8957 -34.8885 -34.8884 -34.8884 -34.8882
   -34.8635 -34.8634 -34.8634 -34.8634 -34.8019 -34.8018 -34.8018 -34.8016
   -34.7923 -34.7922 -34.7922 -34.7922 -34.7726 -34.7725 -34.7725 -34.7725
   -34.6359 -34.6358 -34.6358 -34.6358 -34.6161 -34.6160 -34.6160 -34.6160
   -34.5714 -34.5713 -34.5713 -34.5711 -34.5684 -34.5684 -34.5684 -34.5683
   -34.5500 -34.5499 -34.5499 -34.5498 -34.5186 -34.5186 -34.5186 -34.5186
    13.2637  13.2638  13.2638  13.2638  14.6701  14.6701  14.6701  14.6701
    15.1445  15.1445  15.1445  15.1445  15.5053  15.5053  15.5053  15.5054
    15.5614  15.5614  15.5614  15.5614  15.7304  15.7304  15.7304  15.7305
    16.0264  16.0265  16.0265  16.0265  16.2138  16.2139  16.2139  16.2140
    16.3038  16.3039  16.3039  16.3039  16.3354  16.3354  16.3354  16.3354
    16.5019  16.5019  16.5019  16.5020  16.8165  16.8166  16.8166  16.8166
    18.1810  18.1810  18.1810  18.1810  18.2677  18.2678  18.2678  18.2679
    18.3478  18.3479  18.3479  18.3481  18.4787  18.4788  18.4788  18.4789
    18.4965  18.4966  18.4966  18.4967  18.5750  18.5751  18.5751  18.5752
    18.8720  18.8720  18.8720  18.8720  18.9723  18.9723  18.9723  18.9724
    19.4316  19.4316  19.4316  19.4316  20.4012  20.4012  20.4012  20.4013
    24.3877  24.3877

          k = 0.3908 0.3908 0.3908 ( 11839 PWs)   bands (ev):

   -68.7067 -68.6908 -68.6908 -68.6907 -68.6790 -68.6790 -68.6789 -68.6699
   -68.6385 -68.6341 -68.6341 -68.6340 -68.6268 -68.6268 -68.6267 -68.6153
   -34.8985 -34.8984 -34.8984 -34.8878 -34.8878 -34.8878 -34.8718 -34.8556
   -34.8556 -34.8491 -34.8491 -34.8491 -34.8429 -34.8429 -34.8058 -34.8058
   -34.8058 -34.7971 -34.7971 -34.7971 -34.7918 -34.7918 -34.7918 -34.7321
   -34.6612 -34.6147 -34.6146 -34.6146 -34.6021 -34.6021 -34.6021 -34.5904
   -34.5904 -34.5801 -34.5801 -34.5801 -34.5788 -34.5788 -34.5788 -34.5626
   -34.5384 -34.5383 -34.5383 -34.5336 -34.5336 -34.5303 -34.5303 -34.5302
    12.7899  13.6466  13.6466  13.6466  14.3073  14.3073  14.3073  15.0615
    15.1620  15.1620  15.3306  15.3306  15.3306  15.4173  15.4173  15.4173
    15.4640  15.4640  15.4640  15.6749  15.9594  15.9594  15.9814  15.9814
    16.0326  16.0326  16.0326  16.0856  16.0856  16.0856  16.1853  16.1853
    16.1853  16.2924  16.2924  16.2924  16.3287  16.3287  16.3287  16.3613
    16.3613  16.3613  16.4705  16.4705  16.5924  16.5924  16.5924  17.0488
    18.1362  18.1362  18.1362  18.2422  18.2422  18.2860  18.2861  18.2861
    18.3991  18.3991  18.4047  18.4047  18.4047  18.4304  18.4304  18.4304
    18.4767  18.4767  18.4767  18.5853  18.6046  18.6046  18.6046  18.7138
    18.7138  19.1374  19.1374  19.1570  19.1570  19.1570  19.2072  19.2073
    19.2073  19.2328  19.2328  19.2329  19.9443  19.9444  19.9444  20.8762
    24.7209  24.7209

          k = 0.3908 0.3908-0.5025 ( 11810 PWs)   bands (ev):

   -68.6994 -68.6992 -68.6854 -68.6854 -68.6852 -68.6851 -68.6748 -68.6746
   -68.6361 -68.6358 -68.6301 -68.6301 -68.6299 -68.6298 -68.6205 -68.6203
   -34.8896 -34.8896 -34.8896 -34.8896 -34.8740 -34.8740 -34.8729 -34.8727
   -34.8603 -34.8602 -34.8329 -34.8327 -34.8230 -34.8230 -34.8230 -34.8229
   -34.8184 -34.8183 -34.8064 -34.8064 -34.8063 -34.8063 -34.7646 -34.7645
   -34.6371 -34.6371 -34.5969 -34.5968 -34.5953 -34.5953 -34.5953 -34.5952
   -34.5868 -34.5867 -34.5867 -34.5867 -34.5693 -34.5692 -34.5621 -34.5619
   -34.5547 -34.5545 -34.5359 -34.5358 -34.5358 -34.5358 -34.5305 -34.5304
    13.1981  13.1981  13.9837  13.9837  13.9837  13.9837  14.6871  14.6872
    15.2814  15.2814  15.3482  15.3482  15.4023  15.4023  15.4023  15.4023
    15.5993  15.5994  15.7341  15.7341  15.7342  15.7342  15.9638  15.9639
    16.0118  16.0118  16.0202  16.0203  16.0987  16.0987  16.1800  16.1800
    16.1801  16.1801  16.2970  16.2970  16.2971  16.2971  16.3512  16.3512
    16.3512  16.3513  16.3817  16.3818  16.3858  16.3860  16.7672  16.7673
    18.1910  18.1910  18.2246  18.2246  18.2247  18.2247  18.3323  18.3324
    18.3401  18.3402  18.4033  18.4034  18.4051  18.4051  18.4052  18.4052
    18.5784  18.5784  18.5784  18.5785  18.6213  18.6214  18.8614  18.8616
    18.8845  18.8845  18.9118  18.9120  19.1718  19.1718  19.1718  19.1718
    19.2206  19.2207  19.5662  19.5662  19.5662  19.5663  20.3992  20.3993
    25.0444  25.0444

          k = 0.3908-0.5025-0.5025 ( 11808 PWs)   bands (ev):

   -68.6930 -68.6928 -68.6928 -68.6926 -68.6806 -68.6804 -68.6804 -68.6801
   -68.6328 -68.6326 -68.6326 -68.6323 -68.6248 -68.6247 -68.6247 -68.6244
   -34.8771 -34.8770 -34.8770 -34.8770 -34.8734 -34.8733 -34.8733 -34.8732
   -34.8416 -34.8416 -34.8416 -34.8415 -34.8287 -34.8286 -34.8286 -34.8285
   -34.8243 -34.8243 -34.8243 -34.8243 -34.7938 -34.7938 -34.7938 -34.7938
   -34.6150 -34.6149 -34.6149 -34.6149 -34.5852 -34.5852 -34.5852 -34.5852
   -34.5806 -34.5805 -34.5805 -34.5805 -34.5649 -34.5647 -34.5647 -34.5646
   -34.5534 -34.5533 -34.5533 -34.5532 -34.5360 -34.5360 -34.5360 -34.5360
    13.5806  13.5806  13.5806  13.5806  14.3432  14.3432  14.3432  14.3432
    15.3668  15.3668  15.3668  15.3669  15.5538  15.5538  15.5538  15.5539
    15.6711  15.6711  15.6711  15.6712  15.7185  15.7186  15.7186  15.7186
    16.1033  16.1033  16.1034  16.1034  16.1195  16.1196  16.1196  16.1197
    16.1400  16.1401  16.1401  16.1402  16.2645  16.2645  16.2645  16.2645
    16.3180  16.3180  16.3180  16.3181  16.4961  16.4962  16.4962  16.4962
    18.2409  18.2410  18.2410  18.2411  18.2909  18.2910  18.2910  18.2911
    18.3341  18.3342  18.3342  18.3344  18.3948  18.3949  18.3949  18.3950
    18.6780  18.6780  18.6780  18.6780  18.7706  18.7707  18.7707  18.7708
    18.9743  18.9744  18.9744  18.9745  19.1673  19.1673  19.1674  19.1674
    19.2145  19.2145  19.2145  19.2145  19.9717  19.9717  19.9717  19.9718
    25.5900  25.5901

          k =-0.5025-0.5025-0.5025 ( 11752 PWs)   bands (ev):

   -68.6872 -68.6870 -68.6870 -68.6870 -68.6869 -68.6869 -68.6869 -68.6865
   -68.6285 -68.6283 -68.6283 -68.6283 -68.6281 -68.6281 -68.6281 -68.6278
   -34.8532 -34.8532 -34.8532 -34.8531 -34.8531 -34.8531 -34.8531 -34.8531
   -34.8530 -34.8530 -34.8529 -34.8529 -34.8529 -34.8528 -34.8528 -34.8528
   -34.8174 -34.8173 -34.8173 -34.8173 -34.8172 -34.8172 -34.8172 -34.8172
   -34.5965 -34.5964 -34.5964 -34.5964 -34.5964 -34.5963 -34.5963 -34.5963
   -34.5582 -34.5582 -34.5582 -34.5582 -34.5582 -34.5582 -34.5581 -34.5581
   -34.5580 -34.5580 -34.5580 -34.5580 -34.5580 -34.5578 -34.5578 -34.5578
    13.9576  13.9577  13.9577  13.9577  13.9577  13.9577  13.9577  13.9577
    15.6106  15.6106  15.6107  15.6107  15.6107  15.6107  15.6107  15.6107
    15.6107  15.6107  15.6107  15.6108  15.6108  15.6108  15.6108  15.6108
    16.1849  16.1849  16.1849  16.1849  16.1849  16.1849  16.1850  16.1850
    16.1850  16.1850  16.1851  16.1851  16.1851  16.1852  16.1852  16.1852
    16.2165  16.2166  16.2166  16.2166  16.2166  16.2166  16.2166  16.2166
    18.3146  18.3146  18.3147  18.3147  18.3147  18.3147  18.3147  18.3147
    18.3147  18.3147  18.3147  18.3148  18.3148  18.3148  18.3149  18.3149
    18.9066  18.9066  18.9066  18.9066  18.9066  18.9066  18.9067  18.9067
    18.9067  18.9067  18.9068  18.9068  18.9068  18.9069  18.9069  18.9069
    19.5819  19.5820  19.5820  19.5820  19.5820  19.5821  19.5821  19.5821
    26.7544  26.7544

 ------ SPIN DOWN ----------


          k = 0.0558 0.0558 0.0558 ( 11843 PWs)   bands (ev):

   -66.2819 -66.1943 -66.1942 -66.1942 -66.1801 -66.1800 -66.1800 -66.1788
   -66.1787 -66.1787 -66.1785 -66.1785 -66.1784 -66.1723 -66.1717 -66.1043
   -32.6039 -32.6039 -32.6038 -32.6012 -32.6012 -32.6012 -32.4509 -32.4509
   -32.4449 -32.3788 -32.3765 -32.3765 -32.3765 -32.3560 -32.3560 -32.3439
   -32.3439 -32.3439 -32.3096 -32.3096 -32.2867 -32.2725 -32.2725 -32.2725
   -32.2619 -32.2619 -32.2619 -32.2498 -32.2498 -32.2498 -32.2470 -32.2470
   -32.2470 -32.2393 -32.2393 -32.2393 -32.2295 -32.2295 -32.2295 -32.0782
   -32.0769 -32.0768 -32.0768 -32.0741 -32.0741 -32.0741 -32.0719 -32.0719
    10.7694  14.7368  14.7368  14.7368  15.3490  15.3490  15.3490  15.3722
    15.3722  15.3722  15.3881  15.3881  15.3881  16.0093  16.0093  17.1106
    17.1885  17.1885  17.2924  17.2924  17.3107  17.3724  17.3724  17.3724
    17.3858  17.3858  17.3858  18.1266  18.1266  18.1267  18.5188  18.5188
    18.5188  18.7228  18.7228  18.7703  18.9934  18.9935  18.9935  19.1411
    19.1411  19.1411  19.1804  19.1804  19.1804  19.2879  19.2879  19.2880
    19.7331  19.7331  19.7331  19.7817  19.7817  19.7817  20.0810  20.0810
    20.0810  20.3315  20.3316  20.3316  20.8131  20.8131  20.8131  20.8385
    20.8385  20.8385  21.0065  21.0065  21.2896  21.2896  21.2897  21.3369
    21.3369  21.3378  21.3378  21.4364  21.4364  21.4364  21.5247  21.6082
    21.6082  21.8728  21.8728  21.8728  21.9808  21.9808  21.9808  22.0279
    22.0279  22.0280

          k = 0.0558 0.0558 0.1675 ( 11823 PWs)   bands (ev):

   -66.2788 -66.2100 -66.1935 -66.1935 -66.1818 -66.1817 -66.1795 -66.1784
   -66.1784 -66.1781 -66.1776 -66.1775 -66.1729 -66.1722 -66.1637 -66.1066
   -32.5965 -32.5965 -32.5956 -32.5932 -32.5884 -32.5884 -32.4540 -32.4449
   -32.4357 -32.4132 -32.4052 -32.4052 -32.4031 -32.4021 -32.3737 -32.3737
   -32.3415 -32.3161 -32.3066 -32.3052 -32.2944 -32.2722 -32.2722 -32.2645
   -32.2553 -32.2530 -32.2530 -32.2521 -32.2518 -32.2446 -32.2446 -32.2396
   -32.2396 -32.2356 -32.2356 -32.2069 -32.2040 -32.2040 -32.1977 -32.0922
   -32.0850 -32.0850 -32.0841 -32.0815 -32.0773 -32.0767 -32.0767 -32.0742
    10.9033  14.0333  14.8060  14.8060  15.3265  15.3265  15.4281  15.4281
    15.4473  15.4473  15.4480  15.4856  15.8724  16.0598  16.0769  17.0137
    17.0977  17.1345  17.2143  17.3486  17.3603  17.4231  17.4231  17.4250
    17.4519  17.4629  17.4629  17.7190  18.0303  18.0303  18.3388  18.3388
    18.6957  18.7157  18.7517  18.7849  18.7849  18.8322  18.8521  18.9603
    18.9603  19.2037  19.3677  19.3677  19.3906  19.3906  19.4127  19.4473
    19.4473  19.4483  19.4483  19.4616  19.4794  19.5157  19.8363  20.3068
    20.3068  20.5521  20.5521  20.5806  20.7323  20.7323  20.8023  20.8023
    20.8398  20.8618  20.9264  21.0380  21.2927  21.2967  21.2993  21.3328
    21.3356  21.3381  21.3592  21.3827  21.3827  21.4570  21.6014  21.6694
    21.6841  21.6841  21.8719  21.8719  21.8919  21.8919  22.0700  22.0700
    22.2106  22.2106

          k = 0.0558 0.0558 0.2792 ( 11800 PWs)   bands (ev):

   -66.2728 -66.2253 -66.1923 -66.1922 -66.1838 -66.1838 -66.1787 -66.1780
   -66.1780 -66.1773 -66.1771 -66.1771 -66.1737 -66.1729 -66.1499 -66.1110
   -32.5795 -32.5794 -32.5790 -32.5770 -32.5665 -32.5665 -32.4544 -32.4518
   -32.4465 -32.4440 -32.4440 -32.4327 -32.4240 -32.4214 -32.4149 -32.4149
   -32.3368 -32.3274 -32.3255 -32.3112 -32.2703 -32.2703 -32.2657 -32.2655
   -32.2610 -32.2568 -32.2568 -32.2427 -32.2427 -32.2398 -32.2398 -32.2216
   -32.2141 -32.2029 -32.2029 -32.1763 -32.1733 -32.1732 -32.1678 -32.1151
   -32.0990 -32.0990 -32.0979 -32.0963 -32.0880 -32.0852 -32.0852 -32.0833
    11.1677  13.3231  14.9275  14.9275  15.3070  15.3070  15.5163  15.5163
    15.5196  15.5196  15.6382  15.6726  16.1492  16.1912  16.2110  16.8368
    16.8608  17.1240  17.1530  17.3050  17.3147  17.3299  17.5354  17.5355
    17.6011  17.6011  17.6391  17.6699  17.9399  17.9399  18.1849  18.1849
    18.4991  18.4991  18.6557  18.6558  18.6750  18.7049  18.7493  18.7544
    18.9032  18.9032  18.9246  18.9787  18.9787  19.0632  19.0689  19.5331
    19.6050  19.6896  19.6935  19.6935  19.7057  19.7057  19.7998  20.6009
    20.6009  20.6118  20.6118  20.7001  20.7001  20.7690  20.8203  20.8475
    20.8475  20.8910  20.9088  21.0584  21.0982  21.1886  21.2267  21.2316
    21.2987  21.3239  21.3268  21.3303  21.5048  21.5049  21.5202  21.5288
    21.7313  21.7313  21.7828  21.7828  21.8670  21.8670  22.1960  22.1960
    22.2579  22.2579

          k = 0.0558 0.0558 0.3908 ( 11812 PWs)   bands (ev):

   -66.2640 -66.2398 -66.1905 -66.1905 -66.1861 -66.1861 -66.1778 -66.1777
   -66.1774 -66.1771 -66.1771 -66.1762 -66.1748 -66.1739 -66.1374 -66.1177
   -32.5549 -32.5543 -32.5542 -32.5539 -32.5363 -32.5363 -32.4896 -32.4874
   -32.4846 -32.4846 -32.4581 -32.4580 -32.4526 -32.4387 -32.4150 -32.4032
   -32.3663 -32.3548 -32.3119 -32.3006 -32.2794 -32.2734 -32.2677 -32.2677
   -32.2607 -32.2607 -32.2413 -32.2413 -32.2400 -32.2400 -32.2240 -32.1819
   -32.1780 -32.1712 -32.1712 -32.1484 -32.1461 -32.1443 -32.1443 -32.1406
   -32.1189 -32.1185 -32.1184 -32.1184 -32.1036 -32.0995 -32.0995 -32.0977
    11.5557  12.6531  15.0688  15.0688  15.2690  15.2690  15.5863  15.5863
    15.5935  15.5935  15.9037  15.9326  16.2523  16.3292  16.4086  16.5524
    16.5577  16.9751  17.1472  17.1585  17.2495  17.2572  17.7046  17.7046
    17.7947  17.7947  17.9172  17.9469  17.9477  17.9477  18.1129  18.1129
    18.2397  18.2398  18.3485  18.3485  18.4680  18.4680  18.5600  18.5601
    18.6411  18.6599  18.6638  18.6954  18.6962  18.7152  19.0495  19.3933
    19.9044  19.9567  19.9567  20.0085  20.0181  20.0181  20.1281  20.4232
[...]
   -32.1119 -32.1118 -32.1118 -32.0948 -32.0948 -32.0948 -32.0895 -32.0895
    11.9295  13.9098  13.9099  13.9099  15.1334  15.1334  15.1334  16.1766
    16.1766  16.1766  16.5021  16.5021  16.5028  16.5028  16.5028  16.5718
    16.7929  17.2429  17.2429  17.2776  17.2776  17.2777  17.5053  17.5053
    17.5053  17.5060  17.5060  17.6991  17.6991  17.6991  18.1058  18.1058
    18.1058  18.1678  18.1678  18.1678  18.1784  18.1785  18.1785  18.1931
    18.1932  18.1932  18.3996  18.3996  18.6360  18.6360  18.6360  19.5865
    19.7024  20.1381  20.1381  20.1381  20.2171  20.2171  20.2171  20.4993
    20.4993  20.4993  20.5847  20.5847  20.5848  20.8194  20.8194  20.8194
    20.8930  20.8930  21.1167  21.1167  21.1919  21.1919  21.2174  21.2174
    21.2175  21.2593  21.2593  21.2593  21.2696  21.2696  21.4083  21.4083
    21.4083  21.4767  21.4767  21.4767  21.9407  21.9407  21.9407  23.9718
    24.1010  24.1010

          k = 0.2792 0.2792 0.3908 ( 11834 PWs)   bands (ev):

   -66.2490 -66.2285 -66.2123 -66.2122 -66.2013 -66.2013 -66.1926 -66.1862
   -66.1676 -66.1662 -66.1618 -66.1618 -66.1560 -66.1559 -66.1440 -66.1281
   -32.5409 -32.5409 -32.5308 -32.5072 -32.5072 -32.5041 -32.4962 -32.4937
   -32.4778 -32.4778 -32.4748 -32.4665 -32.4398 -32.4105 -32.4105 -32.4022
   -32.3880 -32.3589 -32.3589 -32.3461 -32.3396 -32.3376 -32.3376 -32.3029
   -32.2583 -32.2474 -32.2235 -32.2208 -32.2071 -32.2071 -32.1948 -32.1948
   -32.1886 -32.1885 -32.1761 -32.1541 -32.1512 -32.1512 -32.1398 -32.1325
   -32.1159 -32.1063 -32.1047 -32.1047 -32.0992 -32.0958 -32.0957 -32.0877
    12.2933  13.3058  14.1819  14.1820  14.8306  14.8307  15.4406  16.2157
    16.3605  16.3605  16.3994  16.5717  16.5717  16.6224  16.6497  16.6828
    16.7760  17.0496  17.2927  17.3249  17.3250  17.3778  17.4066  17.4356
    17.5472  17.6081  17.6082  17.6641  17.7597  17.7597  17.8909  17.9263
    17.9263  17.9774  17.9774  18.0137  18.0613  18.0614  18.0663  18.0663
    18.1629  18.1922  18.2820  18.3398  18.3731  18.3731  18.7704  19.3259
    19.8182  20.2377  20.2377  20.3274  20.3678  20.3981  20.3981  20.4048
    20.4048  20.4055  20.6626  20.7434  20.7434  20.7595  20.8916  20.8916
    20.8973  20.9646  20.9849  20.9991  21.0962  21.1408  21.2019  21.2019
    21.2053  21.2173  21.2539  21.3111  21.3156  21.3156  21.3403  21.3646
    21.3799  21.3799  21.4578  21.4578  21.6328  21.6329  22.4166  23.4421
    24.4021  24.4021

          k = 0.2792 0.2792-0.5025 ( 11836 PWs)   bands (ev):

   -66.2396 -66.2395 -66.2073 -66.2072 -66.2071 -66.2071 -66.1896 -66.1894
   -66.1669 -66.1667 -66.1586 -66.1585 -66.1584 -66.1584 -66.1354 -66.1352
   -32.5245 -32.5244 -32.5244 -32.5244 -32.5015 -32.5014 -32.5001 -32.5000
   -32.4872 -32.4872 -32.4447 -32.4446 -32.4446 -32.4446 -32.4164 -32.4162
   -32.3747 -32.3746 -32.3517 -32.3517 -32.3515 -32.3515 -32.2986 -32.2986
   -32.2752 -32.2751 -32.2238 -32.2237 -32.1963 -32.1963 -32.1961 -32.1961
   -32.1714 -32.1714 -32.1714 -32.1714 -32.1434 -32.1432 -32.1343 -32.1342
   -32.1280 -32.1278 -32.0993 -32.0993 -32.0993 -32.0992 -32.0910 -32.0910
    12.7583  12.7584  14.5012  14.5013  14.5013  14.5013  15.8144  15.8144
    16.5114  16.5114  16.5114  16.5114  16.6284  16.6285  16.7055  16.7055
    16.8355  16.8356  17.3607  17.3608  17.4260  17.4262  17.5180  17.5181
    17.5181  17.5181  17.6087  17.6087  17.7516  17.7516  17.7517  17.7517
    17.8391  17.8391  18.0207  18.0208  18.0209  18.0209  18.1364  18.1364
    18.1364  18.1365  18.1992  18.1992  18.2697  18.2699  19.0026  19.0026
    20.0673  20.0673  20.3141  20.3141  20.3141  20.3141  20.5919  20.5919
    20.5920  20.5920  20.5927  20.5928  20.6520  20.6522  20.8299  20.8300
    20.9934  20.9936  21.1211  21.1212  21.1427  21.1427  21.1428  21.1428
    21.2014  21.2014  21.2136  21.2137  21.3829  21.3830  21.3956  21.3956
    21.3956  21.3956  21.4079  21.4079  21.4079  21.4079  22.9240  22.9241
    24.6377  24.6377

          k = 0.2792 0.3908 0.3908 ( 11820 PWs)   bands (ev):

   -66.2422 -66.2234 -66.2233 -66.2094 -66.2084 -66.1984 -66.1983 -66.1905
   -66.1654 -66.1626 -66.1626 -66.1575 -66.1557 -66.1469 -66.1469 -66.1329
   -32.5313 -32.5201 -32.5201 -32.5059 -32.5036 -32.5036 -32.4917 -32.4815
   -32.4815 -32.4808 -32.4709 -32.4452 -32.4366 -32.4321 -32.4108 -32.3897
   -32.3897 -32.3734 -32.3731 -32.3731 -32.3654 -32.3653 -32.3608 -32.2947
   -32.2748 -32.2201 -32.2201 -32.2074 -32.2074 -32.2065 -32.1909 -32.1868
   -32.1746 -32.1714 -32.1633 -32.1594 -32.1594 -32.1432 -32.1432 -32.1369
   -32.1151 -32.1145 -32.1145 -32.1083 -32.0964 -32.0964 -32.0933 -32.0907
    12.6453  13.6139  13.6140  14.4097  14.4644  15.1365  15.1365  15.8879
    16.5621  16.5803  16.5803  16.7246  16.7340  16.7643  16.7643  16.7924
    16.8581  17.1465  17.1465  17.2766  17.3731  17.3994  17.4056  17.5304
    17.5305  17.5693  17.5693  17.6407  17.6428  17.6919  17.8017  17.8017
    17.8055  17.8623  17.8624  17.8981  17.9825  17.9826  17.9882  18.0183
    18.0959  18.0959  18.1482  18.1627  18.2442  18.4540  18.4540  18.9522
    20.0770  20.3673  20.4006  20.4028  20.4028  20.5492  20.5529  20.5529
    20.5900  20.5901  20.6367  20.6367  20.7642  20.7884  20.8319  20.8319
    20.8622  20.9171  20.9804  21.0405  21.1070  21.1353  21.1476  21.1828
    21.1997  21.1997  21.2036  21.2036  21.2524  21.2827  21.2827  21.2874
    21.3365  21.3617  21.3618  21.4520  21.4601  22.0534  22.0534  22.9665
    24.7867  25.2797

          k = 0.2792 0.3908-0.5025 ( 11844 PWs)   bands (ev):

   -66.2336 -66.2334 -66.2171 -66.2169 -66.2039 -66.2037 -66.1948 -66.1946
   -66.1638 -66.1637 -66.1598 -66.1597 -66.1509 -66.1507 -66.1393 -66.1391
   -32.5177 -32.5176 -32.5106 -32.5105 -32.4950 -32.4948 -32.4936 -32.4936
   -32.4865 -32.4864 -32.4569 -32.4568 -32.4167 -32.4165 -32.4095 -32.4095
   -32.3922 -32.3921 -32.3793 -32.3792 -32.3758 -32.3757 -32.3338 -32.3337
   -32.2472 -32.2471 -32.2066 -32.2066 -32.1968 -32.1967 -32.1945 -32.1945
   -32.1708 -32.1707 -32.1572 -32.1571 -32.1384 -32.1383 -32.1381 -32.1380
   -32.1345 -32.1344 -32.1122 -32.1121 -32.0944 -32.0943 -32.0920 -32.0920
    13.0924  13.0924  13.9920  13.9920  14.7964  14.7964  15.5040  15.5041
    16.7087  16.7087  16.7236  16.7236  16.7899  16.7899  16.8016  16.8017
    16.9671  16.9672  17.3748  17.3749  17.3851  17.3852  17.4158  17.4158
    17.4481  17.4482  17.5697  17.5697  17.6599  17.6600  17.7410  17.7410
    17.8064  17.8066  17.8172  17.8172  17.9577  17.9578  18.0341  18.0343
    18.0546  18.0546  18.1647  18.1648  18.1872  18.1872  18.6462  18.6462
    20.3524  20.3524  20.3785  20.3785  20.5113  20.5113  20.6256  20.6257
    20.6918  20.6919  20.6959  20.6960  20.7022  20.7023  20.7722  20.7723
    20.9371  20.9372  20.9532  20.9532  21.0716  21.0717  21.1590  21.1591
    21.1619  21.1619  21.1908  21.1909  21.2007  21.2008  21.2506  21.2506
    21.3689  21.3690  21.4202  21.4202  21.7134  21.7134  22.5043  22.5044
    25.1284  25.1284

          k = 0.2792-0.5025-0.5025 ( 11844 PWs)   bands (ev):

   -66.2260 -66.2258 -66.2258 -66.2257 -66.1997 -66.1995 -66.1995 -66.1994
   -66.1617 -66.1615 -66.1615 -66.1614 -66.1445 -66.1443 -66.1443 -66.1442
   -32.5059 -32.5059 -32.5059 -32.5059 -32.4985 -32.4984 -32.4984 -32.4982
   -32.4716 -32.4715 -32.4715 -32.4714 -32.4023 -32.4021 -32.4021 -32.4020
   -32.3922 -32.3922 -32.3922 -32.3922 -32.3718 -32.3717 -32.3717 -32.3716
   -32.2201 -32.2200 -32.2200 -32.2199 -32.1989 -32.1989 -32.1989 -32.1988
   -32.1496 -32.1494 -32.1494 -32.1493 -32.1462 -32.1461 -32.1461 -32.1461
   -32.1265 -32.1264 -32.1264 -32.1262 -32.0921 -32.0921 -32.0921 -32.0920
    13.5117  13.5118  13.5118  13.5118  15.1458  15.1458  15.1458  15.1459
    16.8012  16.8013  16.8013  16.8014  16.8666  16.8667  16.8667  16.8667
    17.1761  17.1762  17.1762  17.1763  17.3173  17.3173  17.3173  17.3174
    17.5596  17.5596  17.5596  17.5596  17.6376  17.6378  17.6378  17.6379
    17.8117  17.8118  17.8118  17.8118  17.9177  17.9177  17.9177  17.9177
    18.0870  18.0872  18.0872  18.0873  18.3597  18.3597  18.3597  18.3597
    20.4979  20.4980  20.4980  20.4980  20.6532  20.6532  20.6532  20.6532
    20.6706  20.6706  20.6706  20.6707  20.7452  20.7453  20.7453  20.7454
    20.8263  20.8264  20.8264  20.8265  21.0670  21.0671  21.0671  21.0672
    21.1692  21.1692  21.1692  21.1692  21.1970  21.1972  21.1972  21.1973
    21.4056  21.4056  21.4056  21.4056  22.1001  22.1002  22.1002  22.1003
    25.6112  25.6112

          k = 0.3908 0.3908 0.3908 ( 11839 PWs)   bands (ev):

   -66.2357 -66.2186 -66.2186 -66.2186 -66.2059 -66.2058 -66.2058 -66.1960
   -66.1621 -66.1573 -66.1573 -66.1573 -66.1496 -66.1495 -66.1495 -66.1372
   -32.5094 -32.5094 -32.5093 -32.4974 -32.4974 -32.4974 -32.4806 -32.4614
   -32.4614 -32.4558 -32.4558 -32.4558 -32.4483 -32.4483 -32.4067 -32.4067
   -32.4067 -32.3986 -32.3986 -32.3986 -32.3915 -32.3915 -32.3915 -32.3271
   -32.2477 -32.1968 -32.1968 -32.1968 -32.1833 -32.1833 -32.1833 -32.1709
   -32.1709 -32.1593 -32.1593 -32.1592 -32.1576 -32.1576 -32.1576 -32.1399
   -32.1138 -32.1138 -32.1138 -32.1084 -32.1084 -32.1048 -32.1048 -32.1048
    12.9889  13.9247  13.9248  13.9248  14.7224  14.7224  14.7224  15.5099
    16.7903  16.7903  16.7903  16.8916  16.8916  16.9571  16.9571  16.9571
    17.0369  17.1437  17.1437  17.1437  17.4429  17.4429  17.4657  17.4657
    17.5951  17.5951  17.5951  17.6129  17.6129  17.6129  17.7087  17.7087
    17.7087  17.7823  17.7824  17.7824  17.8992  17.8993  17.8993  17.9005
    17.9005  17.9005  18.0852  18.0852  18.1367  18.1367  18.1368  18.5699
    20.3594  20.5649  20.5649  20.5650  20.5965  20.5965  20.5965  20.6759
    20.6759  20.6759  20.8553  20.8553  20.8553  20.8999  20.8999  20.9530
    20.9530  20.9530  20.9749  20.9749  21.0600  21.0600  21.0799  21.0799
    21.1334  21.1334  21.1334  21.1783  21.1783  21.1783  21.2411  21.2411
    21.2411  21.2516  21.2516  21.2517  21.6775  21.6775  21.6775  22.5210
    25.8969  25.8969

          k = 0.3908 0.3908-0.5025 ( 11810 PWs)   bands (ev):

   -66.2279 -66.2277 -66.2128 -66.2127 -66.2126 -66.2125 -66.2013 -66.2011
   -66.1594 -66.1592 -66.1531 -66.1530 -66.1529 -66.1529 -66.1428 -66.1426
   -32.4995 -32.4995 -32.4994 -32.4994 -32.4819 -32.4819 -32.4813 -32.4811
   -32.4680 -32.4679 -32.4364 -32.4362 -32.4272 -32.4272 -32.4271 -32.4271
   -32.4210 -32.4210 -32.4075 -32.4075 -32.4074 -32.4074 -32.3628 -32.3628
   -32.2214 -32.2213 -32.1778 -32.1778 -32.1756 -32.1756 -32.1755 -32.1755
   -32.1666 -32.1666 -32.1665 -32.1664 -32.1471 -32.1470 -32.1398 -32.1396
   -32.1315 -32.1313 -32.1110 -32.1110 -32.1110 -32.1109 -32.1050 -32.1050
    13.4229  13.4229  14.3051  14.3051  14.3051  14.3051  15.1023  15.1024
    16.9446  16.9447  16.9447  16.9447  17.0032  17.0032  17.0120  17.0120
    17.0198  17.0199  17.3343  17.3343  17.3344  17.3344  17.4701  17.4702
    17.5262  17.5264  17.5341  17.5342  17.5792  17.5793  17.7350  17.7351
    17.7351  17.7351  17.8243  17.8244  17.8245  17.8245  17.8774  17.8774
    17.8774  17.8774  17.9646  17.9646  17.9954  17.9956  18.2715  18.2715
    20.6118  20.6118  20.6118  20.6118  20.6593  20.6593  20.7918  20.7919
    20.7938  20.7938  20.7939  20.7939  20.7961  20.7963  20.8038  20.8039
    20.9650  20.9651  21.0275  21.0276  21.0858  21.0859  21.1111  21.1112
    21.1130  21.1130  21.1131  21.1131  21.1837  21.1838  21.2172  21.2172
    21.2172  21.2173  21.3324  21.3325  21.3325  21.3325  22.0936  22.0937
    26.1876  26.1876

          k = 0.3908-0.5025-0.5025 ( 11808 PWs)   bands (ev):

   -66.2210 -66.2208 -66.2208 -66.2206 -66.2075 -66.2073 -66.2073 -66.2071
   -66.1560 -66.1558 -66.1558 -66.1556 -66.1474 -66.1472 -66.1472 -66.1471
   -32.4854 -32.4854 -32.4854 -32.4853 -32.4817 -32.4816 -32.4816 -32.4814
   -32.4476 -32.4475 -32.4475 -32.4474 -32.4320 -32.4319 -32.4319 -32.4317
   -32.4275 -32.4275 -32.4275 -32.4274 -32.3951 -32.3950 -32.3950 -32.3949
   -32.1971 -32.1970 -32.1970 -32.1970 -32.1650 -32.1650 -32.1650 -32.1649
   -32.1595 -32.1594 -32.1594 -32.1593 -32.1426 -32.1424 -32.1424 -32.1423
   -32.1302 -32.1301 -32.1301 -32.1300 -32.1111 -32.1111 -32.1111 -32.1111
    13.8359  13.8359  13.8359  13.8359  14.6870  14.6870  14.6870  14.6871
    17.0246  17.0247  17.0247  17.0247  17.1664  17.1664  17.1664  17.1665
    17.2110  17.2111  17.2111  17.2112  17.2847  17.2848  17.2848  17.2848
    17.6306  17.6306  17.6306  17.6307  17.6466  17.6466  17.6467  17.6467
    17.6500  17.6501  17.6501  17.6502  17.8346  17.8346  17.8346  17.8347
    17.8951  17.8952  17.8952  17.8953  17.9772  17.9772  17.9772  17.9772
    20.7481  20.7481  20.7481  20.7482  20.7760  20.7760  20.7760  20.7761
    20.8493  20.8494  20.8494  20.8495  20.9035  20.9036  20.9036  20.9037
    20.9854  20.9855  20.9855  20.9855  21.0267  21.0268  21.0268  21.0269
    21.0803  21.0804  21.0804  21.0804  21.0948  21.0949  21.0949  21.0950
    21.1617  21.1618  21.1618  21.1618  21.7045  21.7046  21.7046  21.7047
    26.7074  26.7074

          k =-0.5025-0.5025-0.5025 ( 11752 PWs)   bands (ev):

   -66.2147 -66.2144 -66.2144 -66.2144 -66.2143 -66.2143 -66.2143 -66.2141
   -66.1514 -66.1511 -66.1511 -66.1511 -66.1510 -66.1510 -66.1510 -66.1508
   -32.4592 -32.4592 -32.4592 -32.4591 -32.4591 -32.4590 -32.4590 -32.4590
   -32.4589 -32.4589 -32.4589 -32.4589 -32.4589 -32.4589 -32.4589 -32.4589
   -32.4209 -32.4208 -32.4208 -32.4208 -32.4207 -32.4207 -32.4207 -32.4206
   -32.1769 -32.1768 -32.1768 -32.1768 -32.1767 -32.1767 -32.1767 -32.1767
   -32.1355 -32.1355 -32.1355 -32.1354 -32.1354 -32.1353 -32.1353 -32.1353
   -32.1352 -32.1352 -32.1352 -32.1352 -32.1352 -32.1351 -32.1351 -32.1351
    14.2375  14.2375  14.2375  14.2375  14.2376  14.2376  14.2376  14.2376
    17.2485  17.2485  17.2486  17.2486  17.2486  17.2487  17.2487  17.2487
    17.2487  17.2487  17.2487  17.2487  17.2487  17.2487  17.2488  17.2488
    17.6410  17.6410  17.6410  17.6410  17.6411  17.6411  17.6411  17.6411
    17.7412  17.7412  17.7412  17.7414  17.7414  17.7414  17.7414  17.7414
    17.7415  17.7415  17.7415  17.7415  17.7415  17.7416  17.7416  17.7416
    20.9430  20.9430  20.9430  20.9431  20.9431  20.9431  20.9432  20.9432
    20.9432  20.9432  20.9433  20.9433  20.9433  20.9433  20.9433  20.9433
    20.9717  20.9717  20.9719  20.9719  20.9719  20.9719  20.9719  20.9719
    20.9720  20.9720  20.9720  20.9720  20.9720  20.9720  20.9721  20.9721
    21.3380  21.3380  21.3380  21.3380  21.3381  21.3381  21.3381  21.3382
    27.7987  27.7987

     the Fermi energy is    19.3385 ev

!    total energy              =   -5268.18180201 Ry
     Harris-Foulkes estimate   =   -5268.18180073 Ry
     estimated scf accuracy    <       0.00000036 Ry

     total all-electron energy =    -40728.926331 Ry

     The total energy is the sum of the following terms:

     one-electron contribution =   -1685.09142293 Ry
     hartree contribution      =    1014.26534145 Ry
     xc contribution           =    -444.42665728 Ry
     ewald contribution        =   -2828.37184194 Ry
     one-center paw contrib.   =   -1324.67405477 Ry
     smearing contrib. (-TS)   =       0.11683346 Ry

     total magnetization       =    32.64 Bohr mag/cell
     absolute magnetization    =    34.33 Bohr mag/cell

     convergence has been achieved in  18 iterations

     negative rho (up, down):  0.000E+00 2.370E-03

     Forces acting on atoms (cartesian axes, Ry/au):

     atom    1 type  1   force =     0.00000000   -0.00000000    0.00000000
     atom    2 type  2   force =     0.00001256    0.00001256    0.00001256
     atom    3 type  1   force =     0.00000000    0.00000000    0.00000000
     atom    4 type  2   force =     0.00001256    0.00001256   -0.00001256
     atom    5 type  1   force =     0.00000000    0.00000000    0.00000000
     atom    6 type  2   force =     0.00001256   -0.00001256    0.00001256
     atom    7 type  1   force =     0.00000000    0.00000000   -0.00000000
     atom    8 type  2   force =     0.00001256   -0.00001256   -0.00001256
     atom    9 type  1   force =     0.00000000    0.00000000    0.00000000
     atom   10 type  2   force =    -0.00001256    0.00001256    0.00001256
     atom   11 type  1   force =     0.00000000    0.00000000    0.00000000
     atom   12 type  2   force =    -0.00001256    0.00001256   -0.00001256
     atom   13 type  1   force =     0.00000000    0.00000000    0.00000000
     atom   14 type  2   force =    -0.00001256   -0.00001256    0.00001256
     atom   15 type  1   force =     0.00000000   -0.00000000   -0.00000000
     atom   16 type  2   force =    -0.00001256   -0.00001256   -0.00001256

     Total force =     0.000062     Total SCF correction =     0.002013
     SCF correction compared to forces is large: reduce conv_thr to get better values


     Computing stress (Cartesian axis) and pressure


     negative rho (up, down):  0.000E+00 2.370E-03
          total   stress  (Ry/bohr**3)                   (kbar)     P=   34.23
   0.00023266   0.00000000   0.00000000         34.23      0.00      0.00
   0.00000000   0.00023266   0.00000000          0.00     34.23      0.00
   0.00000000   0.00000000   0.00023266          0.00      0.00     34.23


     Writing output data file FrGXODtzqToJvcpV.save/
 
     init_run     :      6.33s CPU      6.69s WALL (       1 calls)
     electrons    :    410.90s CPU    423.56s WALL (       1 calls)
     forces       :      2.15s CPU      2.36s WALL (       1 calls)
     stress       :      5.75s CPU      5.82s WALL (       1 calls)

     Called by init_run:
     wfcinit      :      5.91s CPU      6.18s WALL (       1 calls)
     potinit      :      0.18s CPU      0.21s WALL (       1 calls)
     hinit0       :      0.13s CPU      0.16s WALL (       1 calls)

     Called by electrons:
     c_bands      :    369.29s CPU    379.48s WALL (      19 calls)
     sum_band     :     37.88s CPU     39.92s WALL (      19 calls)
     v_of_rho     :      0.28s CPU      0.29s WALL (      19 calls)
     newd         :      0.59s CPU      0.76s WALL (      19 calls)
     PAW_pot      :      2.85s CPU      3.06s WALL (      19 calls)
     mix_rho      :      0.10s CPU      0.10s WALL (      19 calls)

     Called by c_bands:
     init_us_2    :      1.97s CPU      2.00s WALL (    2870 calls)
     cegterg      :    359.79s CPU    369.86s WALL (    1330 calls)

     Called by sum_band:
     sum_band:bec :      0.52s CPU      0.53s WALL (    1330 calls)
     addusdens    :      1.06s CPU      1.21s WALL (      19 calls)

     Called by *egterg:
     h_psi        :    151.34s CPU    157.43s WALL (    4579 calls)
     s_psi        :      8.10s CPU      8.15s WALL (    4579 calls)
     g_psi        :      0.34s CPU      0.34s WALL (    3179 calls)
     cdiaghg      :    165.92s CPU    166.39s WALL (    4439 calls)

     Called by h_psi:
     h_psi:pot    :    150.51s CPU    156.60s WALL (    4579 calls)
     h_psi:calbec :     12.22s CPU     14.26s WALL (    4579 calls)
     vloc_psi     :    130.06s CPU    134.06s WALL (    4579 calls)
     add_vuspsi   :      8.20s CPU      8.25s WALL (    4579 calls)

     General routines
     calbec       :     18.48s CPU     21.66s WALL (    6259 calls)
     fft          :      0.30s CPU      0.34s WALL (     517 calls)
     ffts         :      0.05s CPU      0.17s WALL (      76 calls)
     fftw         :    150.82s CPU    155.41s WALL ( 1134354 calls)
     interpolate  :      0.05s CPU      0.11s WALL (      38 calls)
 
     Parallel routines
     fft_scatt_xy :      9.94s CPU     10.24s WALL ( 1134947 calls)
     fft_scatt_yz :    101.83s CPU    105.07s WALL ( 1134947 calls)
 
     PWSCF        :  7m10.37s CPU     7m31.95s WALL

 
   This run was terminated on:  10:15:11   9Sep2020            

=------------------------------------------------------------------------------=
   JOB DONE.
=------------------------------------------------------------------------------=
