
     Program PWSCF v.6.7MaX starts on 11May2022 at 14:42:48 

     This program is part of the open-source Quantum ESPRESSO suite
     for quantum simulation of materials; please cite
         "P. Giannozzi et al., J. Phys.:Condens. Matter 21 395502 (2009);
         "P. Giannozzi et al., J. Phys.:Condens. Matter 29 465901 (2017);
          URL http://www.quantum-espresso.org", 
     in publications or presentations arising from this work. More details at
     http://www.quantum-espresso.org/quote

     Parallel version (MPI & OpenMP), running on      72 processor cores
     Number of MPI processes:                72
     Threads/MPI process:                     1

     MPI processes distributed on     1 nodes
     R & G space division:  proc/nbgrp/npool/nimage =      72
     Reading input from fepdslab4.in
Warning: card &CELL ignored
Warning: card CELL_DYNAMICS = 'BFGS', ignored
Warning: card CELL_FACTOR = 2.0, ignored
Warning: card PRESS = 0.0, ignored
Warning: card / ignored

     Current dimensions of program PWSCF are:
     Max number of different atomic species (ntypx) = 10
     Max number of k-points (npk) =  40000
     Max angular momentum in pseudopotentials (lmaxx) =  3
     file Fe.pbe-spn-kjpaw_psl.1.0.0.UPF: wavefunction(s)  3P 3D renormalized
     file Fe.pbe-spn-kjpaw_psl.1.0.0.UPF: wavefunction(s)  3P 3D renormalized
     file Pd.pbe-spn-kjpaw_psl.1.0.0.UPF: wavefunction(s)  4S 5S 4D renormalized

     gamma-point specific algorithms are used

     Subspace diagonalization in iterative solution of the eigenvalue problem:
     one sub-group per band group will be used
     ELPA distributed-memory algorithm (size of sub-group:  8*  8 procs)

 
     Parallelization info
     --------------------
     sticks:   dense  smooth     PW     G-vecs:    dense   smooth      PW
     Min         333     220     53                38016    20412    2546
     Max         336     222     56                38038    20426    2560
     Sum       24049   15899   3985              2738239  1469969  183817
 


     bravais-lattice index     =            0
     lattice parameter (alat)  =      25.8600  a.u.
     unit-cell volume          =   18186.5006 (a.u.)^3
     number of atoms/cell      =          129
     number of atomic types    =            3
     number of electrons       =      2066.00
     number of Kohn-Sham states=         1240
     kinetic-energy cutoff     =      71.0000  Ry
     charge density cutoff     =     430.0000  Ry
     scf convergence threshold =      1.0E-08
     mixing beta               =       0.3000
     number of iterations used =           10  local-TF  mixing
     energy convergence thresh.=      1.0E-04
     force convergence thresh. =      1.0E-03
     Exchange-correlation= SLA  PW   PBX  PBC
                           (   1   4   3   4   0   0   0)
     nstep                     =           40


     celldm(1)=  25.860000  celldm(2)=   0.000000  celldm(3)=   0.000000
     celldm(4)=   0.000000  celldm(5)=   0.000000  celldm(6)=   0.000000

     crystal axes: (cart. coord. in units of alat)
               a(1) = (   1.000000   0.000000   0.000000 )  
               a(2) = (   0.000000   1.051631   0.000000 )  
               a(3) = (   0.000000   0.000000   1.000000 )  

     reciprocal axes: (cart. coord. in units 2 pi/alat)
               b(1) = (  1.000000  0.000000  0.000000 )  
               b(2) = (  0.000000  0.950903  0.000000 )  
               b(3) = (  0.000000  0.000000  1.000000 )  


     PseudoPot. # 1 for Fe read from file:
     /rds/homes/b/bxp912/pp/Fe.pbe-spn-kjpaw_psl.1.0.0.UPF
     MD5 check sum: 42f43b795421b414b0dc916aa790dbcb
     Pseudo is Projector augmented-wave + core cor, Zval = 16.0
     Generated using &quot;atomic&quot; code by A. Dal Corso  v.6.3
     Shape of augmentation charge: PSQ
     Using radial grid of 1191 points,  6 beta functions with: 
                l(1) =   0
                l(2) =   0
                l(3) =   1
                l(4) =   1
                l(5) =   2
                l(6) =   2
     Q(r) pseudized with 0 coefficients 


     PseudoPot. # 2 for Fe read from file:
     /rds/homes/b/bxp912/pp/Fe.pbe-spn-kjpaw_psl.1.0.0.UPF
     MD5 check sum: 42f43b795421b414b0dc916aa790dbcb
     Pseudo is Projector augmented-wave + core cor, Zval = 16.0
     Generated using &quot;atomic&quot; code by A. Dal Corso  v.6.3
     Shape of augmentation charge: PSQ
     Using radial grid of 1191 points,  6 beta functions with: 
                l(1) =   0
                l(2) =   0
                l(3) =   1
                l(4) =   1
                l(5) =   2
                l(6) =   2
     Q(r) pseudized with 0 coefficients 


     PseudoPot. # 3 for Pd read from file:
     /rds/homes/b/bxp912/pp/Pd.pbe-spn-kjpaw_psl.1.0.0.UPF
     MD5 check sum: 790f2ebce206edfd9790dcb9844eca51
     Pseudo is Projector augmented-wave + core cor, Zval = 18.0
     Generated using &quot;atomic&quot; code by A. Dal Corso  v.6.3
     Shape of augmentation charge: PSQ
     Using radial grid of 1235 points,  6 beta functions with: 
                l(1) =   0
                l(2) =   0
                l(3) =   1
                l(4) =   1
                l(5) =   2
                l(6) =   2
     Q(r) pseudized with 0 coefficients 


     atomic species   valence    mass     pseudopotential
        Fe1           16.00    55.84500     Fe( 1.00)
        Fe2           16.00    55.84500     Fe( 1.00)
        Pd            18.00   106.42000     Pd( 1.00)

     Starting magnetic structure 
     atomic species   magnetization
        Fe1          0.100
        Fe2         -0.100
        Pd           0.001

     No symmetry found



   Cartesian axes

     site n.     atom                  positions (alat units)
         1           Pd  tau(   1) = (   0.1254674   0.1319455   0.1762858  )
         2           Fe1 tau(   2) = (   0.0531143   0.0558567   0.3013434  )
         3           Fe2 tau(   3) = (   0.1970332   0.2072063   0.3018720  )
         4           Fe1 tau(   4) = (   0.1866132   0.0666037   0.4290144  )
         5           Fe2 tau(   5) = (   0.0633337   0.1962483   0.4290144  )
         6           Fe1 tau(   6) = (   0.0620689   0.0652736   0.5483968  )
         7           Fe2 tau(   7) = (   0.1877252   0.1974177   0.5483386  )
         8           Fe1 tau(   8) = (   0.1872011   0.0659047   0.6716753  )
         9           Fe2 tau(   9) = (   0.0626690   0.1968666   0.6716753  )
        10           Fe1 tau(  10) = (   0.0637787   0.3239310   0.3032640  )
        11           Fe2 tau(  11) = (   0.1864647   0.4586484   0.3142099  )
        12           Fe1 tau(  12) = (   0.1873914   0.3283760   0.4345852  )
        13           Fe2 tau(  13) = (   0.0630030   0.4590782   0.4396770  )
        14           Fe1 tau(  14) = (   0.0629934   0.3271613   0.5516054  )
        15           Fe2 tau(  15) = (   0.1884816   0.4599864   0.5565333  )
        16           Fe1 tau(  16) = (   0.1887577   0.3288993   0.6758354  )
        17           Fe2 tau(  17) = (   0.0622428   0.4595224   0.6793038  )
        18           Fe1 tau(  18) = (   0.0625446   0.5905528   0.3180071  )
        19           Fe2 tau(  19) = (   0.1873053   0.7238767   0.3180569  )
        20           Fe1 tau(  20) = (   0.1876829   0.5913171   0.4426991  )
        21           Fe2 tau(  21) = (   0.0621703   0.7231043   0.4428156  )
        22           Fe1 tau(  22) = (   0.0625247   0.5908214   0.5586540  )
        23           Fe2 tau(  23) = (   0.1873494   0.7236371   0.5586320  )
        24           Fe1 tau(  24) = (   0.1884406   0.5920546   0.6829757  )
        25           Fe2 tau(  25) = (   0.0613770   0.7224976   0.6830049  )
        26           Fe1 tau(  26) = (   0.0634590   0.8557881   0.3142569  )
        27           Fe2 tau(  27) = (   0.1862865   0.9904428   0.3034498  )
        28           Fe1 tau(  28) = (   0.1869265   0.8553434   0.4395837  )
        29           Fe2 tau(  29) = (   0.0625483   0.9864692   0.4343046  )
        30           Fe1 tau(  30) = (   0.0613634   0.8546334   0.5565138  )
        31           Fe2 tau(  31) = (   0.1867715   0.9872144   0.5515551  )
        32           Fe1 tau(  32) = (   0.1876569   0.8548761   0.6793068  )
        33           Fe2 tau(  33) = (   0.0611891   0.9855783   0.6759126  )
        34           Fe1 tau(  34) = (   0.3080271   0.0670717   0.3032640  )
        35           Fe2 tau(  35) = (   0.4361303   0.1960921   0.3142099  )
        36           Fe1 tau(  36) = (   0.4365390   0.0662559   0.4396770  )
        37           Fe2 tau(  37) = (   0.3122538   0.1970667   0.4345852  )
        38           Fe1 tau(  38) = (   0.3110988   0.0662458   0.5516054  )
        39           Fe2 tau(  39) = (   0.4374026   0.1982132   0.5565333  )
        40           Fe1 tau(  40) = (   0.4369615   0.0654565   0.6793038  )
        41           Fe2 tau(  41) = (   0.3127515   0.1985036   0.6758354  )
        42           Fe1 tau(  42) = (   0.3162848   0.3326151   0.3138299  )
        43           Fe2 tau(  43) = (   0.4386788   0.4613284   0.3230744  )
        44           Fe1 tau(  44) = (   0.4379227   0.3285598   0.4423538  )
        45           Fe2 tau(  45) = (   0.3124287   0.4605333   0.4423538  )
        46           Fe1 tau(  46) = (   0.3129161   0.3290724   0.5546004  )
        47           Fe2 tau(  47) = (   0.4379685   0.4605815   0.5625073  )
        48           Fe1 tau(  48) = (   0.4395519   0.3302656   0.6838264  )
        49           Fe2 tau(  49) = (   0.3140507   0.4622466   0.6838264  )
        50           Fe1 tau(  50) = (   0.3112196   0.5914648   0.3209756  )
        51           Fe2 tau(  51) = (   0.4362847   0.7243630   0.3251323  )
        52           Fe1 tau(  52) = (   0.4370962   0.5920082   0.4487023  )
        53           Fe2 tau(  53) = (   0.3121229   0.7240318   0.4447286  )
        54           Fe1 tau(  54) = (   0.3129777   0.5923038   0.5617630  )
        55           Fe2 tau(  55) = (   0.4371899   0.7239201   0.5652257  )
        56           Fe1 tau(  56) = (   0.4387185   0.5925072   0.6918459  )
        57           Fe2 tau(  57) = (   0.3132292   0.7241570   0.6865729  )
        58           Fe1 tau(  58) = (   0.3096316   0.8569797   0.3175276  )
        59           Fe2 tau(  59) = (   0.4349564   0.9887766   0.3174718  )
        60           Fe1 tau(  60) = (   0.4361203   0.8558173   0.4450804  )
        61           Fe2 tau(  61) = (   0.3102973   0.9880938   0.4371002  )
        62           Fe1 tau(  62) = (   0.3122695   0.8551881   0.5582117  )
        63           Fe2 tau(  63) = (   0.4366943   0.9859859   0.5582463  )
        64           Fe1 tau(  64) = (   0.4382234   0.8535751   0.6879301  )
        65           Fe2 tau(  65) = (   0.3119371   0.9863500   0.6779634  )
        66           Fe1 tau(  66) = (   0.5615587   0.0657738   0.3180071  )
        67           Fe2 tau(  67) = (   0.6883368   0.1969762   0.3180569  )
        68           Fe1 tau(  68) = (   0.6876024   0.0653802   0.4428156  )
        69           Fe2 tau(  69) = (   0.5622854   0.1973733   0.4426991  )
        70           Fe1 tau(  70) = (   0.5618141   0.0657530   0.5586540  )
        71           Fe2 tau(  71) = (   0.6881090   0.1970225   0.5586320  )
        72           Fe1 tau(  72) = (   0.6870254   0.0645460   0.6830049  )
        73           Fe2 tau(  73) = (   0.5629867   0.1981701   0.6829757  )
        74           Fe1 tau(  74) = (   0.5624259   0.3272883   0.3209756  )
        75           Fe2 tau(  75) = (   0.6887993   0.4588107   0.3251323  )
        76           Fe1 tau(  76) = (   0.6884844   0.3282382   0.4447286  )
        77           Fe2 tau(  77) = (   0.5629427   0.4596641   0.4487023  )
        78           Fe1 tau(  78) = (   0.5632237   0.3291372   0.5617630  )
        79           Fe2 tau(  79) = (   0.6883781   0.4597627   0.5652257  )
        80           Fe1 tau(  80) = (   0.6886034   0.3294017   0.6865729  )
        81           Fe2 tau(  81) = (   0.5634172   0.4613702   0.6918459  )
        82           Fe1 tau(  82) = (   0.5630872   0.5921602   0.3287442  )
        83           Fe2 tau(  83) = (   0.6868881   0.7223531   0.3287931  )
        84           Fe1 tau(  84) = (   0.6883116   0.5906467   0.4511207  )
        85           Fe2 tau(  85) = (   0.5616480   0.7238501   0.4511207  )
        86           Fe1 tau(  86) = (   0.5627644   0.5918208   0.5677992  )
        87           Fe2 tau(  87) = (   0.6871026   0.7225787   0.5679097  )
        88           Fe1 tau(  88) = (   0.6870354   0.5918664   0.6967147  )
        89           Fe2 tau(  89) = (   0.5628078   0.7225081   0.6967147  )
        90           Fe1 tau(  90) = (   0.5610618   0.8556635   0.3252084  )
        91           Fe2 tau(  91) = (   0.6874929   0.9870713   0.3211378  )
        92           Fe1 tau(  92) = (   0.6870300   0.8547833   0.4488195  )
        93           Fe2 tau(  93) = (   0.5614177   0.9861465   0.4448950  )
        94           Fe1 tau(  94) = (   0.5614542   0.8546269   0.5653068  )
        95           Fe2 tau(  95) = (   0.6867290   0.9853416   0.5618298  )
        96           Fe1 tau(  96) = (   0.6864324   0.8529299   0.6920602  )
        97           Fe2 tau(  97) = (   0.5613243   0.9849468   0.6865802  )
        98           Fe1 tau(  98) = (   0.8137719   0.0667355   0.3142569  )
        99           Fe2 tau(  99) = (   0.9418155   0.1959048   0.3034498  )
       100           Fe1 tau( 100) = (   0.9380370   0.0657778   0.4343046  )
       101           Fe2 tau( 101) = (   0.8133490   0.1965778   0.4395837  )
       102           Fe1 tau( 102) = (   0.8126739   0.0645317   0.5565138  )
       103           Fe2 tau( 103) = (   0.9387456   0.1964148   0.5515551  )
       104           Fe1 tau( 104) = (   0.9371898   0.0643484   0.6759126  )
       105           Fe2 tau( 105) = (   0.8129046   0.1973459   0.6793068  )
       106           Fe1 tau( 106) = (   0.8149050   0.3256183   0.3175276  )
       107           Fe2 tau( 107) = (   0.9402311   0.4574138   0.3174718  )
       108           Fe1 tau( 108) = (   0.9395818   0.3263184   0.4371002  )
       109           Fe2 tau( 109) = (   0.8137996   0.4586379   0.4450804  )
       110           Fe1 tau( 110) = (   0.8132013   0.3283925   0.5582117  )
       111           Fe2 tau( 111) = (   0.9375774   0.4592414   0.5582463  )
       112           Fe1 tau( 112) = (   0.9379236   0.3280429   0.6779634  )
       113           Fe2 tau( 113) = (   0.8116675   0.4608495   0.6879301  )
       114           Fe1 tau( 114) = (   0.8136534   0.5900303   0.3252084  )
       115           Fe2 tau( 115) = (   0.9386095   0.7229891   0.3211378  )
       116           Fe1 tau( 116) = (   0.9377301   0.5904045   0.4448950  )
       117           Fe2 tau( 117) = (   0.8128163   0.7225024   0.4488195  )
       118           Fe1 tau( 118) = (   0.8126677   0.5904429   0.5653068  )
       119           Fe2 tau( 119) = (   0.9369648   0.7221858   0.5618298  )
       120           Fe1 tau( 120) = (   0.9365893   0.5903063   0.6865802  )
       121           Fe2 tau( 121) = (   0.8110540   0.7218740   0.6920602  )
       122           Fe1 tau( 122) = (   0.8114527   0.8533492   0.3231574  )
       123           Fe2 tau( 123) = (   0.9339732   0.9821956   0.3137442  )
       124           Fe1 tau( 124) = (   0.9374635   0.8540616   0.4423839  )
       125           Fe2 tau( 125) = (   0.8121301   0.9858661   0.4423839  )
       126           Fe1 tau( 126) = (   0.8119327   0.8538540   0.5626243  )
       127           Fe2 tau( 127) = (   0.9370099   0.9853891   0.5546744  )
       128           Fe1 tau( 128) = (   0.9357902   0.8521765   0.6840047  )
       129           Fe2 tau( 129) = (   0.8103376   0.9841064   0.6840047  )

     number of k points=     1  Marzari-Vanderbilt smearing, width (Ry)=  0.0400
                       cart. coord. in units 2pi/alat
        k(    1) = (   0.0000000   0.0000000   0.0000000), wk =   1.0000000

     Dense  grid:  1369120 G-vectors     FFT dimensions: ( 180, 180, 180)

     Smooth grid:   734985 G-vectors     FFT dimensions: ( 144, 150, 144)

     Estimated max dynamical RAM per process >     318.96 MB

     Estimated total dynamical RAM >      22.43 GB

     Check: negative core charge=   -0.000004
     Generating pointlists ...
     new r_m :   0.0674 (alat units)  1.7419 (a.u.) for type    1
     new r_m :   0.0672 (alat units)  1.7384 (a.u.) for type    2
     new r_m :   0.0672 (alat units)  1.7384 (a.u.) for type    3

     Initial potential from superposition of free atoms

     starting charge 2065.94361, renormalised to 2066.00000

     negative rho (up, down):  1.899E-04 1.899E-04
     Starting wfcs are 1290 randomized atomic wfcs
     Checking if some PAW data can be deallocated... 

     total cpu time spent up to now is       13.3 secs

     Self-consistent Calculation

     iteration #  1     ecut=    71.00 Ry     beta= 0.30
     Davidson diagonalization with overlap
     ethr =  1.00E-02,  avg # of iterations =  6.5

     negative rho (up, down):  1.178E+00 2.858E+00

     total cpu time spent up to now is       45.6 secs

     total energy              =  -42623.70638681 Ry
     estimated scf accuracy    <     784.15150030 Ry

     total magnetization       =    -3.06 Bohr mag/cell
     absolute magnetization    =   277.40 Bohr mag/cell

     iteration #  2     ecut=    71.00 Ry     beta= 0.30
     Davidson diagonalization with overlap
     ethr =  1.00E-02,  avg # of iterations =  3.5

     negative rho (up, down):  9.319E-01 2.224E+00

     total cpu time spent up to now is       68.0 secs

     total energy              =  -42634.87317079 Ry
     estimated scf accuracy    <     294.92222873 Ry

     total magnetization       =     2.35 Bohr mag/cell
     absolute magnetization    =   161.12 Bohr mag/cell

     iteration #  3     ecut=    71.00 Ry     beta= 0.30
     Davidson diagonalization with overlap
     ethr =  1.00E-02,  avg # of iterations =  1.5

     negative rho (up, down):  7.941E-01 1.899E+00

     total cpu time spent up to now is       87.7 secs

     total energy              =  -42650.00706932 Ry
     estimated scf accuracy    <     281.59845443 Ry

     total magnetization       =     0.27 Bohr mag/cell
     absolute magnetization    =   201.43 Bohr mag/cell

     iteration #  4     ecut=    71.00 Ry     beta= 0.30
     Davidson diagonalization with overlap
     ethr =  1.00E-02,  avg # of iterations =  1.0

     negative rho (up, down):  5.415E-01 1.299E+00

     total cpu time spent up to now is      105.5 secs

     total energy              =  -42651.20654547 Ry
     estimated scf accuracy    <      85.69191327 Ry

     total magnetization       =     0.16 Bohr mag/cell
     absolute magnetization    =   204.03 Bohr mag/cell

     iteration #  5     ecut=    71.00 Ry     beta= 0.30
     Davidson diagonalization with overlap
     ethr =  4.15E-03,  avg # of iterations =  1.0

     negative rho (up, down):  3.321E-01 7.942E-01

     total cpu time spent up to now is      123.2 secs

     total energy              =  -42651.63176788 Ry
     estimated scf accuracy    <      77.78424913 Ry

     total magnetization       =    -1.26 Bohr mag/cell
     absolute magnetization    =   208.54 Bohr mag/cell

     iteration #  6     ecut=    71.00 Ry     beta= 0.30
     Davidson diagonalization with overlap
     ethr =  3.76E-03,  avg # of iterations =  1.0

     negative rho (up, down):  7.131E-02 1.618E-01

     total cpu time spent up to now is      141.2 secs

     total energy              =  -42651.66755450 Ry
     estimated scf accuracy    <      49.21897056 Ry

     total magnetization       =    -1.48 Bohr mag/cell
     absolute magnetization    =   213.16 Bohr mag/cell

     iteration #  7     ecut=    71.00 Ry     beta= 0.30
     Davidson diagonalization with overlap
     ethr =  2.38E-03,  avg # of iterations =  1.0

     negative rho (up, down):  5.501E-03 7.969E-03

     total cpu time spent up to now is      159.0 secs

     total energy              =  -42651.67606133 Ry
     estimated scf accuracy    <      31.94923595 Ry

     total magnetization       =    -1.50 Bohr mag/cell
     absolute magnetization    =   219.18 Bohr mag/cell

     iteration #  8     ecut=    71.00 Ry     beta= 0.30
     Davidson diagonalization with overlap
     ethr =  1.55E-03,  avg # of iterations =  2.0

     negative rho (up, down):  7.604E-02 1.775E-01

     total cpu time spent up to now is      179.6 secs

     total energy              =  -42651.37873240 Ry
     estimated scf accuracy    <      11.20086686 Ry

     total magnetization       =    -1.56 Bohr mag/cell
     absolute magnetization    =   226.41 Bohr mag/cell

     iteration #  9     ecut=    71.00 Ry     beta= 0.30
     Davidson diagonalization with overlap
     ethr =  5.42E-04,  avg # of iterations =  2.0

     negative rho (up, down):  9.720E-02 2.305E-01

     total cpu time spent up to now is      200.2 secs

     total energy              =  -42651.36561709 Ry
     estimated scf accuracy    <       5.73308748 Ry

     total magnetization       =    -0.56 Bohr mag/cell
     absolute magnetization    =   230.06 Bohr mag/cell

     iteration # 10     ecut=    71.00 Ry     beta= 0.30
     Davidson diagonalization with overlap
     ethr =  2.77E-04,  avg # of iterations =  7.5

     negative rho (up, down):  2.135E-02 4.662E-02

     total cpu time spent up to now is      222.9 secs

     total energy              =  -42651.69725769 Ry
     estimated scf accuracy    <       3.40443681 Ry

     total magnetization       =    -0.68 Bohr mag/cell
     absolute magnetization    =   231.10 Bohr mag/cell

     iteration # 11     ecut=    71.00 Ry     beta= 0.30
     Davidson diagonalization with overlap
     ethr =  1.65E-04,  avg # of iterations =  7.5

     negative rho (up, down):  3.255E-03 5.916E-03

     total cpu time spent up to now is      245.6 secs

     total energy              =  -42651.79935725 Ry
     estimated scf accuracy    <       1.79876444 Ry

     total magnetization       =    -0.17 Bohr mag/cell
     absolute magnetization    =   228.72 Bohr mag/cell

     iteration # 12     ecut=    71.00 Ry     beta= 0.30
     Davidson diagonalization with overlap
     ethr =  8.71E-05,  avg # of iterations =  2.0

     negative rho (up, down):  1.137E-03 1.424E-03

     total cpu time spent up to now is      266.7 secs

     total energy              =  -42651.78375036 Ry
     estimated scf accuracy    <       1.13144498 Ry

     total magnetization       =     0.00 Bohr mag/cell
     absolute magnetization    =   227.55 Bohr mag/cell

     iteration # 13     ecut=    71.00 Ry     beta= 0.30
     Davidson diagonalization with overlap
     c_bands:  1 eigenvalues not converged
     ethr =  5.48E-05,  avg # of iterations = 11.0

     negative rho (up, down):  1.121E-03 1.357E-03

     total cpu time spent up to now is      290.1 secs

     total energy              =  -42651.70913195 Ry
     estimated scf accuracy    <       0.77115821 Ry

     total magnetization       =     0.23 Bohr mag/cell
     absolute magnetization    =   227.02 Bohr mag/cell

     iteration # 14     ecut=    71.00 Ry     beta= 0.30
     Davidson diagonalization with overlap
     c_bands:  3 eigenvalues not converged
     c_bands:  3 eigenvalues not converged
     ethr =  3.73E-05,  avg # of iterations = 20.0

     negative rho (up, down):  3.989E-03 4.528E-03

     total cpu time spent up to now is      316.6 secs

     total energy              =  -42651.64195318 Ry
     estimated scf accuracy    <       0.65411215 Ry

     total magnetization       =     0.31 Bohr mag/cell
     absolute magnetization    =   227.69 Bohr mag/cell

     iteration # 15     ecut=    71.00 Ry     beta= 0.30
     Davidson diagonalization with overlap
     c_bands:  1 eigenvalues not converged
     c_bands:  1 eigenvalues not converged
     ethr =  3.17E-05,  avg # of iterations = 20.0

     negative rho (up, down):  2.499E-03 2.565E-03

     total cpu time spent up to now is      343.2 secs

     total energy              =  -42651.61789869 Ry
     estimated scf accuracy    <       0.46937127 Ry

     total magnetization       =     0.51 Bohr mag/cell
     absolute magnetization    =   227.52 Bohr mag/cell

     iteration # 16     ecut=    71.00 Ry     beta= 0.30
     Davidson diagonalization with overlap
     ethr =  2.27E-05,  avg # of iterations = 15.0

     negative rho (up, down):  2.709E-03 2.714E-03

     total cpu time spent up to now is      367.8 secs

     total energy              =  -42651.60199197 Ry
     estimated scf accuracy    <       0.35927799 Ry

     total magnetization       =     0.60 Bohr mag/cell
     absolute magnetization    =   227.18 Bohr mag/cell

     iteration # 17     ecut=    71.00 Ry     beta= 0.30
     Davidson diagonalization with overlap
     ethr =  1.74E-05,  avg # of iterations =  1.5

     negative rho (up, down):  2.537E-03 2.443E-03

     total cpu time spent up to now is      387.2 secs

     total energy              =  -42651.57876243 Ry
     estimated scf accuracy    <       0.27598856 Ry

     total magnetization       =     0.41 Bohr mag/cell
     absolute magnetization    =   227.02 Bohr mag/cell

     iteration # 18     ecut=    71.00 Ry     beta= 0.30
     Davidson diagonalization with overlap
     ethr =  1.34E-05,  avg # of iterations =  2.0

     negative rho (up, down):  1.116E-02 1.052E-02

     total cpu time spent up to now is      408.5 secs

     total energy              =  -42651.55053073 Ry
     estimated scf accuracy    <       0.28348712 Ry

     total magnetization       =     0.25 Bohr mag/cell
     absolute magnetization    =   226.75 Bohr mag/cell

     iteration # 19     ecut=    71.00 Ry     beta= 0.30
     Davidson diagonalization with overlap
     ethr =  1.34E-05,  avg # of iterations =  2.0

     negative rho (up, down):  9.431E-03 9.007E-03

     total cpu time spent up to now is      428.9 secs

     total energy              =  -42651.55132315 Ry
     estimated scf accuracy    <       0.24774809 Ry

     total magnetization       =     0.22 Bohr mag/cell
     absolute magnetization    =   226.34 Bohr mag/cell

     iteration # 20     ecut=    71.00 Ry     beta= 0.30
     Davidson diagonalization with overlap
     ethr =  1.20E-05,  avg # of iterations =  2.0

     negative rho (up, down):  1.062E-01 1.047E-01

     total cpu time spent up to now is      449.6 secs

     total energy              =  -42651.54399099 Ry
     estimated scf accuracy    <       0.17990248 Ry

     total magnetization       =     0.27 Bohr mag/cell
     absolute magnetization    =   226.20 Bohr mag/cell

     iteration # 21     ecut=    71.00 Ry     beta= 0.30
     Davidson diagonalization with overlap
     c_bands:  1 eigenvalues not converged
     ethr =  8.71E-06,  avg # of iterations = 12.5

     negative rho (up, down):  7.510E-02 7.412E-02

     total cpu time spent up to now is      474.5 secs

     total energy              =  -42651.55538126 Ry
     estimated scf accuracy    <       0.07008916 Ry

     total magnetization       =     0.00 Bohr mag/cell
     absolute magnetization    =   226.00 Bohr mag/cell

     iteration # 22     ecut=    71.00 Ry     beta= 0.30
     Davidson diagonalization with overlap
     c_bands:  2 eigenvalues not converged
     ethr =  3.39E-06,  avg # of iterations = 15.5

     negative rho (up, down):  4.516E-02 4.473E-02

     total cpu time spent up to now is      499.1 secs

     total energy              =  -42651.56788952 Ry
     estimated scf accuracy    <       0.05286325 Ry

     total magnetization       =     0.01 Bohr mag/cell
     absolute magnetization    =   225.96 Bohr mag/cell

     iteration # 23     ecut=    71.00 Ry     beta= 0.30
     Davidson diagonalization with overlap
     ethr =  2.56E-06,  avg # of iterations =  2.0

     negative rho (up, down):  4.597E-02 4.556E-02

     total cpu time spent up to now is      520.2 secs

     total energy              =  -42651.57471372 Ry
     estimated scf accuracy    <       0.03546183 Ry

     total magnetization       =    -0.06 Bohr mag/cell
     absolute magnetization    =   225.93 Bohr mag/cell

     iteration # 24     ecut=    71.00 Ry     beta= 0.30
     Davidson diagonalization with overlap
     ethr =  1.72E-06,  avg # of iterations =  1.5

     negative rho (up, down):  2.671E-02 2.654E-02

     total cpu time spent up to now is      539.6 secs

     total energy              =  -42651.58705603 Ry
     estimated scf accuracy    <       0.02109077 Ry

     total magnetization       =    -0.12 Bohr mag/cell
     absolute magnetization    =   226.10 Bohr mag/cell

     iteration # 25     ecut=    71.00 Ry     beta= 0.30
     Davidson diagonalization with overlap
     ethr =  1.02E-06,  avg # of iterations =  2.0

     negative rho (up, down):  1.370E-02 1.363E-02

     total cpu time spent up to now is      560.2 secs

     total energy              =  -42651.59867850 Ry
     estimated scf accuracy    <       0.01008224 Ry

     total magnetization       =    -0.12 Bohr mag/cell
     absolute magnetization    =   226.23 Bohr mag/cell

     iteration # 26     ecut=    71.00 Ry     beta= 0.30
     Davidson diagonalization with overlap
     ethr =  4.88E-07,  avg # of iterations =  3.0

     negative rho (up, down):  1.216E-02 1.212E-02

     total cpu time spent up to now is      582.5 secs

     total energy              =  -42651.60459964 Ry
     estimated scf accuracy    <       0.00722230 Ry

     total magnetization       =    -0.11 Bohr mag/cell
     absolute magnetization    =   226.39 Bohr mag/cell

     iteration # 27     ecut=    71.00 Ry     beta= 0.30
     Davidson diagonalization with overlap
     ethr =  3.50E-07,  avg # of iterations =  4.0

     negative rho (up, down):  1.087E-02 1.083E-02

     total cpu time spent up to now is      604.8 secs

     total energy              =  -42651.60579007 Ry
     estimated scf accuracy    <       0.00249989 Ry

     total magnetization       =    -0.08 Bohr mag/cell
     absolute magnetization    =   226.57 Bohr mag/cell

     iteration # 28     ecut=    71.00 Ry     beta= 0.30
     Davidson diagonalization with overlap
     ethr =  1.21E-07,  avg # of iterations =  2.0

     negative rho (up, down):  1.116E-02 1.113E-02

     total cpu time spent up to now is      626.0 secs

     total energy              =  -42651.60657943 Ry
     estimated scf accuracy    <       0.00177952 Ry

     total magnetization       =    -0.07 Bohr mag/cell
     absolute magnetization    =   226.65 Bohr mag/cell

     iteration # 29     ecut=    71.00 Ry     beta= 0.30
     Davidson diagonalization with overlap
     ethr =  8.61E-08,  avg # of iterations =  2.0

     negative rho (up, down):  1.006E-02 1.003E-02

     total cpu time spent up to now is      646.7 secs

     total energy              =  -42651.60714915 Ry
     estimated scf accuracy    <       0.00112184 Ry

     total magnetization       =    -0.06 Bohr mag/cell
     absolute magnetization    =   226.71 Bohr mag/cell

     iteration # 30     ecut=    71.00 Ry     beta= 0.30
     Davidson diagonalization with overlap
     ethr =  5.43E-08,  avg # of iterations =  2.0

     negative rho (up, down):  8.762E-03 8.737E-03

     total cpu time spent up to now is      667.4 secs

     total energy              =  -42651.60772410 Ry
     estimated scf accuracy    <       0.00112993 Ry

     total magnetization       =    -0.05 Bohr mag/cell
     absolute magnetization    =   226.80 Bohr mag/cell

     iteration # 31     ecut=    71.00 Ry     beta= 0.30
     Davidson diagonalization with overlap
     ethr =  5.43E-08,  avg # of iterations =  2.0

     negative rho (up, down):  8.652E-03 8.629E-03

     total cpu time spent up to now is      688.5 secs

     total energy              =  -42651.60815573 Ry
     estimated scf accuracy    <       0.00073141 Ry

     total magnetization       =    -0.03 Bohr mag/cell
     absolute magnetization    =   226.90 Bohr mag/cell

     iteration # 32     ecut=    71.00 Ry     beta= 0.30
     Davidson diagonalization with overlap
     ethr =  3.54E-08,  avg # of iterations =  3.0

     negative rho (up, down):  7.684E-03 7.662E-03

     total cpu time spent up to now is      709.8 secs

     total energy              =  -42651.60822114 Ry
     estimated scf accuracy    <       0.00062423 Ry

     total magnetization       =    -0.02 Bohr mag/cell
     absolute magnetization    =   226.98 Bohr mag/cell

     iteration # 33     ecut=    71.00 Ry     beta= 0.30
     Davidson diagonalization with overlap
     ethr =  3.02E-08,  avg # of iterations =  2.0

     negative rho (up, down):  6.718E-03 6.698E-03

     total cpu time spent up to now is      730.5 secs

     total energy              =  -42651.60825145 Ry
     estimated scf accuracy    <       0.00051786 Ry

     total magnetization       =    -0.01 Bohr mag/cell
     absolute magnetization    =   227.05 Bohr mag/cell

     iteration # 34     ecut=    71.00 Ry     beta= 0.30
     Davidson diagonalization with overlap
     ethr =  2.51E-08,  avg # of iterations =  2.0

     negative rho (up, down):  4.712E-03 4.696E-03

     total cpu time spent up to now is      751.5 secs

     total energy              =  -42651.60817133 Ry
     estimated scf accuracy    <       0.00040897 Ry

     total magnetization       =    -0.01 Bohr mag/cell
     absolute magnetization    =   227.11 Bohr mag/cell

     iteration # 35     ecut=    71.00 Ry     beta= 0.30
     Davidson diagonalization with overlap
     ethr =  1.98E-08,  avg # of iterations =  2.0

     negative rho (up, down):  3.889E-03 3.874E-03

     total cpu time spent up to now is      772.3 secs

     total energy              =  -42651.60822881 Ry
     estimated scf accuracy    <       0.00033227 Ry

     total magnetization       =     0.00 Bohr mag/cell
     absolute magnetization    =   227.19 Bohr mag/cell

     iteration # 36     ecut=    71.00 Ry     beta= 0.30
     Davidson diagonalization with overlap
     ethr =  1.61E-08,  avg # of iterations =  3.0

     negative rho (up, down):  3.875E-03 3.860E-03

     total cpu time spent up to now is      793.3 secs

     total energy              =  -42651.60833705 Ry
     estimated scf accuracy    <       0.00023625 Ry

     total magnetization       =     0.01 Bohr mag/cell
     absolute magnetization    =   227.28 Bohr mag/cell

     iteration # 37     ecut=    71.00 Ry     beta= 0.30
     Davidson diagonalization with overlap
     ethr =  1.14E-08,  avg # of iterations =  4.0

     negative rho (up, down):  4.570E-03 4.555E-03

     total cpu time spent up to now is      817.8 secs

     total energy              =  -42651.60838156 Ry
     estimated scf accuracy    <       0.00015017 Ry

     total magnetization       =     0.02 Bohr mag/cell
     absolute magnetization    =   227.47 Bohr mag/cell

     iteration # 38     ecut=    71.00 Ry     beta= 0.30
     Davidson diagonalization with overlap
     ethr =  7.27E-09,  avg # of iterations =  3.0

     negative rho (up, down):  4.738E-03 4.722E-03

     total cpu time spent up to now is      839.3 secs

     total energy              =  -42651.60839073 Ry
     estimated scf accuracy    <       0.00007470 Ry

     total magnetization       =     0.02 Bohr mag/cell
     absolute magnetization    =   227.54 Bohr mag/cell

     iteration # 39     ecut=    71.00 Ry     beta= 0.30
     Davidson diagonalization with overlap
     ethr =  3.62E-09,  avg # of iterations =  2.0

     negative rho (up, down):  3.781E-03 3.764E-03

     total cpu time spent up to now is      860.7 secs

     total energy              =  -42651.60840336 Ry
     estimated scf accuracy    <       0.00005889 Ry

     total magnetization       =     0.02 Bohr mag/cell
     absolute magnetization    =   227.57 Bohr mag/cell

     iteration # 40     ecut=    71.00 Ry     beta= 0.30
     Davidson diagonalization with overlap
     ethr =  2.85E-09,  avg # of iterations =  2.0

     negative rho (up, down):  3.242E-03 3.225E-03

     total cpu time spent up to now is      881.7 secs

     total energy              =  -42651.60842670 Ry
     estimated scf accuracy    <       0.00003931 Ry

     total magnetization       =     0.02 Bohr mag/cell
     absolute magnetization    =   227.58 Bohr mag/cell

     iteration # 41     ecut=    71.00 Ry     beta= 0.30
     Davidson diagonalization with overlap
     ethr =  1.90E-09,  avg # of iterations =  2.0

     negative rho (up, down):  2.637E-03 2.618E-03

     total cpu time spent up to now is      902.8 secs

     total energy              =  -42651.60845542 Ry
     estimated scf accuracy    <       0.00002793 Ry

     total magnetization       =     0.02 Bohr mag/cell
     absolute magnetization    =   227.59 Bohr mag/cell

     iteration # 42     ecut=    71.00 Ry     beta= 0.30
     Davidson diagonalization with overlap
     ethr =  1.35E-09,  avg # of iterations =  4.0

     negative rho (up, down):  2.358E-03 2.340E-03

     total cpu time spent up to now is      924.7 secs

     total energy              =  -42651.60847146 Ry
     estimated scf accuracy    <       0.00001696 Ry

     total magnetization       =     0.02 Bohr mag/cell
     absolute magnetization    =   227.59 Bohr mag/cell

     iteration # 43     ecut=    71.00 Ry     beta= 0.30
     Davidson diagonalization with overlap
     ethr =  8.21E-10,  avg # of iterations =  3.0

     negative rho (up, down):  2.066E-03 2.046E-03

     total cpu time spent up to now is      945.7 secs

     total energy              =  -42651.60848509 Ry
     estimated scf accuracy    <       0.00001181 Ry

     total magnetization       =     0.02 Bohr mag/cell
     absolute magnetization    =   227.59 Bohr mag/cell

     iteration # 44     ecut=    71.00 Ry     beta= 0.30
     Davidson diagonalization with overlap
     ethr =  5.72E-10,  avg # of iterations =  4.0

     negative rho (up, down):  1.983E-03 1.964E-03

     total cpu time spent up to now is      967.9 secs

     total energy              =  -42651.60848950 Ry
     estimated scf accuracy    <       0.00000828 Ry

     total magnetization       =     0.02 Bohr mag/cell
     absolute magnetization    =   227.58 Bohr mag/cell

     iteration # 45     ecut=    71.00 Ry     beta= 0.30
     Davidson diagonalization with overlap
     ethr =  4.01E-10,  avg # of iterations =  2.0

     negative rho (up, down):  1.857E-03 1.838E-03

     total cpu time spent up to now is      988.8 secs

     total energy              =  -42651.60849738 Ry
     estimated scf accuracy    <       0.00000641 Ry

     total magnetization       =     0.02 Bohr mag/cell
     absolute magnetization    =   227.57 Bohr mag/cell

     iteration # 46     ecut=    71.00 Ry     beta= 0.30
     Davidson diagonalization with overlap
     ethr =  3.10E-10,  avg # of iterations =  4.0

     negative rho (up, down):  1.798E-03 1.778E-03

     total cpu time spent up to now is     1012.0 secs

     total energy              =  -42651.60849938 Ry
     estimated scf accuracy    <       0.00000528 Ry

     total magnetization       =     0.01 Bohr mag/cell
     absolute magnetization    =   227.55 Bohr mag/cell

     iteration # 47     ecut=    71.00 Ry     beta= 0.30
     Davidson diagonalization with overlap
     ethr =  2.55E-10,  avg # of iterations =  4.0

     negative rho (up, down):  1.793E-03 1.773E-03

     total cpu time spent up to now is     1033.5 secs

     total energy              =  -42651.60850096 Ry
     estimated scf accuracy    <       0.00000286 Ry

     total magnetization       =     0.01 Bohr mag/cell
     absolute magnetization    =   227.54 Bohr mag/cell

     iteration # 48     ecut=    71.00 Ry     beta= 0.30
     Davidson diagonalization with overlap
     ethr =  1.38E-10,  avg # of iterations =  2.0

     negative rho (up, down):  1.803E-03 1.783E-03

     total cpu time spent up to now is     1054.7 secs

     total energy              =  -42651.60850273 Ry
     estimated scf accuracy    <       0.00000246 Ry

     total magnetization       =     0.01 Bohr mag/cell
     absolute magnetization    =   227.53 Bohr mag/cell

     iteration # 49     ecut=    71.00 Ry     beta= 0.30
     Davidson diagonalization with overlap
     ethr =  1.19E-10,  avg # of iterations =  2.0

     negative rho (up, down):  1.856E-03 1.836E-03

     total cpu time spent up to now is     1075.5 secs

     total energy              =  -42651.60850763 Ry
     estimated scf accuracy    <       0.00000238 Ry

     total magnetization       =     0.01 Bohr mag/cell
     absolute magnetization    =   227.53 Bohr mag/cell

     iteration # 50     ecut=    71.00 Ry     beta= 0.30
     Davidson diagonalization with overlap
     ethr =  1.15E-10,  avg # of iterations =  4.0

     negative rho (up, down):  1.870E-03 1.850E-03

     total cpu time spent up to now is     1098.1 secs

     total energy              =  -42651.60850893 Ry
     estimated scf accuracy    <       0.00000154 Ry

     total magnetization       =     0.01 Bohr mag/cell
     absolute magnetization    =   227.51 Bohr mag/cell

     iteration # 51     ecut=    71.00 Ry     beta= 0.30
     Davidson diagonalization with overlap
     ethr =  7.44E-11,  avg # of iterations =  2.0

     negative rho (up, down):  1.895E-03 1.875E-03

     total cpu time spent up to now is     1119.2 secs

     total energy              =  -42651.60851023 Ry
     estimated scf accuracy    <       0.00000141 Ry

     total magnetization       =     0.01 Bohr mag/cell
     absolute magnetization    =   227.51 Bohr mag/cell

     iteration # 52     ecut=    71.00 Ry     beta= 0.30
     Davidson diagonalization with overlap
     ethr =  6.85E-11,  avg # of iterations =  3.0

     negative rho (up, down):  1.895E-03 1.875E-03

     total cpu time spent up to now is     1140.5 secs

     total energy              =  -42651.60851074 Ry
     estimated scf accuracy    <       0.00000129 Ry

     total magnetization       =     0.01 Bohr mag/cell
     absolute magnetization    =   227.51 Bohr mag/cell

     iteration # 53     ecut=    71.00 Ry     beta= 0.30
     Davidson diagonalization with overlap
     ethr =  6.22E-11,  avg # of iterations =  2.0

     negative rho (up, down):  1.910E-03 1.890E-03

     total cpu time spent up to now is     1161.2 secs

     total energy              =  -42651.60851110 Ry
     estimated scf accuracy    <       0.00000115 Ry

     total magnetization       =     0.01 Bohr mag/cell
     absolute magnetization    =   227.51 Bohr mag/cell

     iteration # 54     ecut=    71.00 Ry     beta= 0.30
     Davidson diagonalization with overlap
     ethr =  5.58E-11,  avg # of iterations =  3.0

     negative rho (up, down):  1.919E-03 1.899E-03

     total cpu time spent up to now is     1182.3 secs

     total energy              =  -42651.60851182 Ry
     estimated scf accuracy    <       0.00000106 Ry

     total magnetization       =     0.01 Bohr mag/cell
     absolute magnetization    =   227.51 Bohr mag/cell

     iteration # 55     ecut=    71.00 Ry     beta= 0.30
     Davidson diagonalization with overlap
     ethr =  5.15E-11,  avg # of iterations =  4.0

     negative rho (up, down):  1.921E-03 1.901E-03

     total cpu time spent up to now is     1204.8 secs

     total energy              =  -42651.60851203 Ry
     estimated scf accuracy    <       0.00000079 Ry

     total magnetization       =     0.01 Bohr mag/cell
     absolute magnetization    =   227.50 Bohr mag/cell

     iteration # 56     ecut=    71.00 Ry     beta= 0.30
     Davidson diagonalization with overlap
     ethr =  3.80E-11,  avg # of iterations =  3.0

     negative rho (up, down):  1.928E-03 1.909E-03

     total cpu time spent up to now is     1226.3 secs

     total energy              =  -42651.60851201 Ry
     estimated scf accuracy    <       0.00000068 Ry

     total magnetization       =     0.01 Bohr mag/cell
     absolute magnetization    =   227.50 Bohr mag/cell

     iteration # 57     ecut=    71.00 Ry     beta= 0.30
     Davidson diagonalization with overlap
     ethr =  3.27E-11,  avg # of iterations =  2.0

     negative rho (up, down):  1.937E-03 1.917E-03

     total cpu time spent up to now is     1247.6 secs

     total energy              =  -42651.60851196 Ry
     estimated scf accuracy    <       0.00000053 Ry

     total magnetization       =     0.01 Bohr mag/cell
     absolute magnetization    =   227.50 Bohr mag/cell

     iteration # 58     ecut=    71.00 Ry     beta= 0.30
     Davidson diagonalization with overlap
     ethr =  2.54E-11,  avg # of iterations =  4.0

     negative rho (up, down):  1.935E-03 1.915E-03

     total cpu time spent up to now is     1269.4 secs

     total energy              =  -42651.60851208 Ry
     estimated scf accuracy    <       0.00000046 Ry

     total magnetization       =     0.01 Bohr mag/cell
     absolute magnetization    =   227.50 Bohr mag/cell

     iteration # 59     ecut=    71.00 Ry     beta= 0.30
     Davidson diagonalization with overlap
     ethr =  2.22E-11,  avg # of iterations =  2.0

     negative rho (up, down):  1.938E-03 1.918E-03

     total cpu time spent up to now is     1290.3 secs

     total energy              =  -42651.60851211 Ry
     estimated scf accuracy    <       0.00000044 Ry

     total magnetization       =     0.01 Bohr mag/cell
     absolute magnetization    =   227.50 Bohr mag/cell

     iteration # 60     ecut=    71.00 Ry     beta= 0.30
     Davidson diagonalization with overlap
     ethr =  2.12E-11,  avg # of iterations =  2.0

     negative rho (up, down):  1.937E-03 1.918E-03

     total cpu time spent up to now is     1311.5 secs

     total energy              =  -42651.60851199 Ry
     estimated scf accuracy    <       0.00000036 Ry

     total magnetization       =     0.01 Bohr mag/cell
     absolute magnetization    =   227.50 Bohr mag/cell

     iteration # 61     ecut=    71.00 Ry     beta= 0.30
     Davidson diagonalization with overlap
     ethr =  1.72E-11,  avg # of iterations =  2.0

     negative rho (up, down):  1.943E-03 1.923E-03

     total cpu time spent up to now is     1331.7 secs

     total energy              =  -42651.60851222 Ry
     estimated scf accuracy    <       0.00000028 Ry

     total magnetization       =     0.01 Bohr mag/cell
     absolute magnetization    =   227.50 Bohr mag/cell

     iteration # 62     ecut=    71.00 Ry     beta= 0.30
     Davidson diagonalization with overlap
     ethr =  1.36E-11,  avg # of iterations =  3.0

     negative rho (up, down):  1.942E-03 1.922E-03

     total cpu time spent up to now is     1353.3 secs

     total energy              =  -42651.60851255 Ry
     estimated scf accuracy    <       0.00000021 Ry

     total magnetization       =     0.01 Bohr mag/cell
     absolute magnetization    =   227.51 Bohr mag/cell

     iteration # 63     ecut=    71.00 Ry     beta= 0.30
     Davidson diagonalization with overlap
     ethr =  1.01E-11,  avg # of iterations =  3.0

     negative rho (up, down):  1.959E-03 1.939E-03

     total cpu time spent up to now is     1374.8 secs

     total energy              =  -42651.60851315 Ry
     estimated scf accuracy    <       0.00000018 Ry

     total magnetization       =     0.01 Bohr mag/cell
     absolute magnetization    =   227.51 Bohr mag/cell

     iteration # 64     ecut=    71.00 Ry     beta= 0.30
     Davidson diagonalization with overlap
     ethr =  8.57E-12,  avg # of iterations =  4.0

     negative rho (up, down):  1.975E-03 1.955E-03

     total cpu time spent up to now is     1397.5 secs

     total energy              =  -42651.60851347 Ry
     estimated scf accuracy    <       0.00000015 Ry

     total magnetization       =     0.01 Bohr mag/cell
     absolute magnetization    =   227.50 Bohr mag/cell

     iteration # 65     ecut=    71.00 Ry     beta= 0.30
     Davidson diagonalization with overlap
     ethr =  7.03E-12,  avg # of iterations =  4.0

     negative rho (up, down):  1.980E-03 1.960E-03

     total cpu time spent up to now is     1421.2 secs

     total energy              =  -42651.60851359 Ry
     estimated scf accuracy    <       0.00000005 Ry

     total magnetization       =     0.01 Bohr mag/cell
     absolute magnetization    =   227.50 Bohr mag/cell

     iteration # 66     ecut=    71.00 Ry     beta= 0.30
     Davidson diagonalization with overlap
     ethr =  2.34E-12,  avg # of iterations =  4.0

     negative rho (up, down):  1.985E-03 1.964E-03

     total cpu time spent up to now is     1443.9 secs

     total energy              =  -42651.60851362 Ry
     estimated scf accuracy    <       0.00000004 Ry

     total magnetization       =     0.01 Bohr mag/cell
     absolute magnetization    =   227.50 Bohr mag/cell

     iteration # 67     ecut=    71.00 Ry     beta= 0.30
     Davidson diagonalization with overlap
     ethr =  2.10E-12,  avg # of iterations =  3.0

     negative rho (up, down):  1.985E-03 1.965E-03

     total cpu time spent up to now is     1465.5 secs

     total energy              =  -42651.60851363 Ry
     estimated scf accuracy    <       0.00000003 Ry

     total magnetization       =     0.01 Bohr mag/cell
     absolute magnetization    =   227.50 Bohr mag/cell

     iteration # 68     ecut=    71.00 Ry     beta= 0.30
     Davidson diagonalization with overlap
     ethr =  1.56E-12,  avg # of iterations =  2.0

     negative rho (up, down):  1.987E-03 1.967E-03

     total cpu time spent up to now is     1486.1 secs

     total energy              =  -42651.60851366 Ry
     estimated scf accuracy    <       0.00000003 Ry

     total magnetization       =     0.01 Bohr mag/cell
     absolute magnetization    =   227.50 Bohr mag/cell

     iteration # 69     ecut=    71.00 Ry     beta= 0.30
     Davidson diagonalization with overlap
     ethr =  1.35E-12,  avg # of iterations =  3.0

     negative rho (up, down):  1.986E-03 1.966E-03

     total cpu time spent up to now is     1507.3 secs

     total energy              =  -42651.60851368 Ry
     estimated scf accuracy    <       0.00000002 Ry

     total magnetization       =     0.01 Bohr mag/cell
     absolute magnetization    =   227.50 Bohr mag/cell

     iteration # 70     ecut=    71.00 Ry     beta= 0.30
     Davidson diagonalization with overlap
     ethr =  1.20E-12,  avg # of iterations =  3.0

     negative rho (up, down):  1.983E-03 1.963E-03

     total cpu time spent up to now is     1528.8 secs

     total energy              =  -42651.60851369 Ry
     estimated scf accuracy    <       0.00000002 Ry

     total magnetization       =     0.01 Bohr mag/cell
     absolute magnetization    =   227.50 Bohr mag/cell

     iteration # 71     ecut=    71.00 Ry     beta= 0.30
     Davidson diagonalization with overlap
     ethr =  8.67E-13,  avg # of iterations =  4.0

     negative rho (up, down):  1.982E-03 1.962E-03

     total cpu time spent up to now is     1551.4 secs

     total energy              =  -42651.60851369 Ry
     estimated scf accuracy    <       0.00000001 Ry

     total magnetization       =     0.01 Bohr mag/cell
     absolute magnetization    =   227.50 Bohr mag/cell

     iteration # 72     ecut=    71.00 Ry     beta= 0.30
     Davidson diagonalization with overlap
     ethr =  7.23E-13,  avg # of iterations =  2.0

     negative rho (up, down):  1.980E-03 1.960E-03

     total cpu time spent up to now is     1571.8 secs

     total energy              =  -42651.60851370 Ry
     estimated scf accuracy    <       0.00000001 Ry

     total magnetization       =     0.01 Bohr mag/cell
     absolute magnetization    =   227.50 Bohr mag/cell

     iteration # 73     ecut=    71.00 Ry     beta= 0.30
     Davidson diagonalization with overlap
     ethr =  6.09E-13,  avg # of iterations =  4.0

     negative rho (up, down):  1.979E-03 1.959E-03
 
     Magnetic moment per site:
     atom:    1    charge:   14.9789    magn:   -0.0024    constr:    0.0000
     atom:    2    charge:   13.8682    magn:    2.1831    constr:    0.0000
     atom:    3    charge:   13.8591    magn:   -2.1743    constr:    0.0000
     atom:    4    charge:   13.9360    magn:    1.1901    constr:    0.0000
     atom:    5    charge:   13.9243    magn:   -1.1895    constr:    0.0000
     atom:    6    charge:   13.9658    magn:    0.8662    constr:    0.0000
     atom:    7    charge:   13.9532    magn:   -0.8634    constr:    0.0000
     atom:    8    charge:   13.8441    magn:    2.2798    constr:    0.0000
     atom:    9    charge:   13.8336    magn:   -2.2783    constr:    0.0000
     atom:   10    charge:   13.8152    magn:    2.3646    constr:    0.0000
     atom:   11    charge:   13.8159    magn:   -2.3314    constr:    0.0000
     atom:   12    charge:   13.9576    magn:    0.8068    constr:    0.0000
     atom:   13    charge:   13.9441    magn:   -1.0840    constr:    0.0000
     atom:   14    charge:   13.9669    magn:    0.9306    constr:    0.0000
     atom:   15    charge:   13.9517    magn:   -0.8781    constr:    0.0000
     atom:   16    charge:   13.8363    magn:    2.3134    constr:    0.0000
     atom:   17    charge:   13.8237    magn:   -2.3193    constr:    0.0000
     atom:   18    charge:   13.8304    magn:    2.3164    constr:    0.0000
     atom:   19    charge:   13.8207    magn:   -2.3119    constr:    0.0000
     atom:   20    charge:   13.9592    magn:    1.0170    constr:    0.0000
     atom:   21    charge:   13.9472    magn:   -1.0197    constr:    0.0000
     atom:   22    charge:   13.9615    magn:    0.8812    constr:    0.0000
     atom:   23    charge:   13.9493    magn:   -0.8823    constr:    0.0000
     atom:   24    charge:   13.8304    magn:    2.3319    constr:    0.0000
     atom:   25    charge:   13.8200    magn:   -2.3297    constr:    0.0000
     atom:   26    charge:   13.8260    magn:    2.3351    constr:    0.0000
     atom:   27    charge:   13.8059    magn:   -2.3583    constr:    0.0000
     atom:   28    charge:   13.9563    magn:    1.0801    constr:    0.0000
     atom:   29    charge:   13.9460    magn:   -0.8102    constr:    0.0000
     atom:   30    charge:   13.9632    magn:    0.8835    constr:    0.0000
     atom:   31    charge:   13.9547    magn:   -0.9315    constr:    0.0000
     atom:   32    charge:   13.8342    magn:    2.3194    constr:    0.0000
     atom:   33    charge:   13.8262    magn:   -2.3097    constr:    0.0000
     atom:   34    charge:   13.8148    magn:    2.3749    constr:    0.0000
     atom:   35    charge:   13.8164    magn:   -2.3439    constr:    0.0000
     atom:   36    charge:   13.9581    magn:    0.8066    constr:    0.0000
     atom:   37    charge:   13.9465    magn:   -1.0163    constr:    0.0000
     atom:   38    charge:   13.9666    magn:    0.9064    constr:    0.0000
     atom:   39    charge:   13.9501    magn:   -0.9899    constr:    0.0000
     atom:   40    charge:   13.8334    magn:    2.3157    constr:    0.0000
     atom:   41    charge:   13.8260    magn:   -2.3091    constr:    0.0000
     atom:   42    charge:   13.8410    magn:    2.2435    constr:    0.0000
     atom:   43    charge:   13.8322    magn:   -2.2709    constr:    0.0000
     atom:   44    charge:   13.9655    magn:    0.9619    constr:    0.0000
     atom:   45    charge:   13.9530    magn:   -0.8806    constr:    0.0000
     atom:   46    charge:   13.9618    magn:    0.9549    constr:    0.0000
     atom:   47    charge:   13.9462    magn:   -0.9521    constr:    0.0000
     atom:   48    charge:   13.8302    magn:    2.3260    constr:    0.0000
     atom:   49    charge:   13.8202    magn:   -2.3221    constr:    0.0000
     atom:   50    charge:   13.8320    magn:    2.3303    constr:    0.0000
     atom:   51    charge:   13.8251    magn:   -2.3233    constr:    0.0000
     atom:   52    charge:   13.9646    magn:    0.9176    constr:    0.0000
     atom:   53    charge:   13.9517    magn:   -0.9671    constr:    0.0000
     atom:   54    charge:   13.9615    magn:    0.9036    constr:    0.0000
     atom:   55    charge:   13.9450    magn:   -0.9354    constr:    0.0000
     atom:   56    charge:   13.8228    magn:    2.3343    constr:    0.0000
     atom:   57    charge:   13.8185    magn:   -2.3247    constr:    0.0000
     atom:   58    charge:   13.8311    magn:    2.3141    constr:    0.0000
     atom:   59    charge:   13.8202    magn:   -2.3239    constr:    0.0000
     atom:   60    charge:   13.9652    magn:    0.9174    constr:    0.0000
     atom:   61    charge:   13.9439    magn:   -0.9775    constr:    0.0000
     atom:   62    charge:   13.9640    magn:    0.9081    constr:    0.0000
     atom:   63    charge:   13.9512    magn:   -0.9239    constr:    0.0000
     atom:   64    charge:   13.8293    magn:    2.3175    constr:    0.0000
     atom:   65    charge:   13.8274    magn:   -2.3007    constr:    0.0000
     atom:   66    charge:   13.8310    magn:    2.3257    constr:    0.0000
     atom:   67    charge:   13.8213    magn:   -2.3213    constr:    0.0000
     atom:   68    charge:   13.9606    magn:    0.8680    constr:    0.0000
     atom:   69    charge:   13.9487    magn:   -0.8677    constr:    0.0000
     atom:   70    charge:   13.9591    magn:    1.0142    constr:    0.0000
     atom:   71    charge:   13.9468    magn:   -1.0186    constr:    0.0000
     atom:   72    charge:   13.8293    magn:    2.3280    constr:    0.0000
     atom:   73    charge:   13.8191    magn:   -2.3264    constr:    0.0000
     atom:   74    charge:   13.8323    magn:    2.3281    constr:    0.0000
     atom:   75    charge:   13.8246    magn:   -2.3265    constr:    0.0000
     atom:   76    charge:   13.9646    magn:    0.8719    constr:    0.0000
     atom:   77    charge:   13.9529    magn:   -0.9234    constr:    0.0000
     atom:   78    charge:   13.9602    magn:    0.9706    constr:    0.0000
     atom:   79    charge:   13.9439    magn:   -0.9931    constr:    0.0000
     atom:   80    charge:   13.8276    magn:    2.3271    constr:    0.0000
     atom:   81    charge:   13.8121    magn:   -2.3347    constr:    0.0000
     atom:   82    charge:   13.8412    magn:    2.2963    constr:    0.0000
     atom:   83    charge:   13.8305    magn:   -2.2970    constr:    0.0000
     atom:   84    charge:   13.9651    magn:    0.9177    constr:    0.0000
     atom:   85    charge:   13.9530    magn:   -0.9166    constr:    0.0000
     atom:   86    charge:   13.9479    magn:    0.9940    constr:    0.0000
     atom:   87    charge:   13.9360    magn:   -0.9920    constr:    0.0000
     atom:   88    charge:   13.8158    magn:    2.3618    constr:    0.0000
     atom:   89    charge:   13.8056    magn:   -2.3602    constr:    0.0000
     atom:   90    charge:   13.8351    magn:    2.3270    constr:    0.0000
     atom:   91    charge:   13.8222    magn:   -2.3254    constr:    0.0000
     atom:   92    charge:   13.9648    magn:    0.9200    constr:    0.0000
     atom:   93    charge:   13.9525    magn:   -0.8742    constr:    0.0000
     atom:   94    charge:   13.9560    magn:    0.9907    constr:    0.0000
     atom:   95    charge:   13.9480    magn:   -0.9714    constr:    0.0000
     atom:   96    charge:   13.8220    magn:    2.3382    constr:    0.0000
     atom:   97    charge:   13.8173    magn:   -2.3260    constr:    0.0000
     atom:   98    charge:   13.8264    magn:    2.3479    constr:    0.0000
     atom:   99    charge:   13.8055    magn:   -2.3698    constr:    0.0000
     atom:  100    charge:   13.9588    magn:    1.0077    constr:    0.0000
     atom:  101    charge:   13.9464    magn:   -0.7996    constr:    0.0000
     atom:  102    charge:   13.9614    magn:    0.9909    constr:    0.0000
     atom:  103    charge:   13.9545    magn:   -0.9065    constr:    0.0000
     atom:  104    charge:   13.8367    magn:    2.3086    constr:    0.0000
     atom:  105    charge:   13.8232    magn:   -2.3121    constr:    0.0000
     atom:  106    charge:   13.8311    magn:    2.3230    constr:    0.0000
     atom:  107    charge:   13.8202    magn:   -2.3154    constr:    0.0000
     atom:  108    charge:   13.9558    magn:    0.9732    constr:    0.0000
     atom:  109    charge:   13.9532    magn:   -0.9147    constr:    0.0000
     atom:  110    charge:   13.9629    magn:    0.9292    constr:    0.0000
     atom:  111    charge:   13.9522    magn:   -0.9026    constr:    0.0000
     atom:  112    charge:   13.8378    magn:    2.3022    constr:    0.0000
     atom:  113    charge:   13.8190    magn:   -2.3158    constr:    0.0000
     atom:  114    charge:   13.8356    magn:    2.3239    constr:    0.0000
     atom:  115    charge:   13.8218    magn:   -2.3273    constr:    0.0000
     atom:  116    charge:   13.9637    magn:    0.9692    constr:    0.0000
     atom:  117    charge:   13.9524    magn:   -0.9207    constr:    0.0000
     atom:  118    charge:   13.9570    magn:    0.9385    constr:    0.0000
     atom:  119    charge:   13.9494    magn:   -0.9039    constr:    0.0000
     atom:  120    charge:   13.8287    magn:    2.3267    constr:    0.0000
     atom:  121    charge:   13.8122    magn:   -2.3342    constr:    0.0000
     atom:  122    charge:   13.8426    magn:    2.2744    constr:    0.0000
     atom:  123    charge:   13.8310    magn:   -2.2386    constr:    0.0000
     atom:  124    charge:   13.9649    magn:    0.8880    constr:    0.0000
     atom:  125    charge:   13.9534    magn:   -0.9569    constr:    0.0000
     atom:  126    charge:   13.9579    magn:    0.9563    constr:    0.0000
     atom:  127    charge:   13.9497    magn:   -0.9572    constr:    0.0000
     atom:  128    charge:   13.8301    magn:    2.3250    constr:    0.0000
     atom:  129    charge:   13.8193    magn:   -2.3253    constr:    0.0000

     total cpu time spent up to now is     1594.4 secs

     End of self-consistent calculation

 ------ SPIN UP ------------


          k = 0.0000 0.0000 0.0000 ( 91909 PWs)   bands (ev):

   -80.4159 -80.4135 -80.3895 -80.3762 -80.3722 -80.3663 -80.3662 -80.3649
   -80.3640 -80.3613 -80.3595 -80.3585 -80.3553 -80.3552 -80.3551 -80.3536
   -80.3520 -80.3506 -80.3504 -80.3498 -80.3467 -80.3452 -80.3435 -80.3411
   -80.3398 -80.3383 -80.3376 -80.3362 -80.3329 -80.3314 -80.3205 -80.3153
   -79.6483 -79.6007 -79.5588 -79.5586 -79.5505 -79.5457 -79.5450 -79.5424
   -79.5387 -79.5334 -79.5269 -79.5264 -79.5247 -79.5070 -79.5049 -79.5038
   -79.4988 -79.4975 -79.4896 -79.4881 -79.4876 -79.4753 -79.4722 -79.4648
   -79.4614 -79.4550 -79.4519 -79.4511 -79.4465 -79.4435 -79.4129 -79.4123
   -78.4885 -78.4791 -78.4587 -78.4544 -78.4489 -78.4432 -78.4424 -78.4397
   -78.4373 -78.4314 -78.4275 -78.4206 -78.4174 -78.4164 -78.4152 -78.4060
   -78.4040 -78.4010 -78.3969 -78.3859 -78.3853 -78.3754 -78.3733 -78.3703
   -78.3682 -78.3631 -78.3603 -78.3574 -78.3515 -78.3420 -78.3229 -78.2499
   -77.8195 -77.7232 -77.6604 -77.6568 -77.6559 -77.6490 -77.6475 -77.6441
   -77.6437 -77.6436 -77.6431 -77.6427 -77.6410 -77.6410 -77.6409 -77.6402
   -77.6400 -77.6398 -77.6396 -77.6367 -77.6367 -77.6351 -77.6344 -77.6340
   -77.6332 -77.6325 -77.6323 -77.6318 -77.6313 -77.6305 -77.6278 -77.6241
   -76.0046 -46.5745 -46.5619 -46.5606 -46.5377 -46.5266 -46.5158 -46.5138
   -46.5119 -46.5112 -46.5107 -46.5098 -46.5070 -46.5049 -46.5047 -46.5038
   -46.5013 -46.4997 -46.4992 -46.4989 -46.4959 -46.4951 -46.4920 -46.4895
   -46.4875 -46.4871 -46.4857 -46.4835 -46.4800 -46.4790 -46.4786 -46.4776
   -46.4702 -46.4670 -46.4526 -46.4452 -46.4332 -46.4268 -46.4225 -46.4192
   -46.4192 -46.4162 -46.4153 -46.4136 -46.4132 -46.4129 -46.4124 -46.4115
   -46.4111 -46.4110 -46.4100 -46.4099 -46.4081 -46.4078 -46.4072 -46.4069
   -46.4050 -46.4025 -46.3991 -46.3972 -46.3969 -46.3940 -46.3916 -46.3907
   -46.3809 -46.3720 -46.3652 -46.3482 -46.3457 -46.3404 -46.3387 -46.3351
   -46.3328 -46.3322 -46.3313 -46.3290 -46.3282 -46.3279 -46.3252 -46.3247
   -46.3236 -46.3233 -46.3203 -46.3195 -46.3186 -46.3181 -46.3152 -46.3140
   -46.3104 -46.3101 -46.3087 -46.3066 -46.3036 -46.3024 -46.3000 -46.2997
   -46.2891 -45.7884 -45.7665 -45.7561 -45.7504 -45.7454 -45.7426 -45.7416
   -45.7386 -45.7366 -45.7348 -45.7332 -45.7325 -45.7286 -45.7274 -45.7243
   -45.7236 -45.7206 -45.7196 -45.7136 -45.7117 -45.6925 -45.6864 -45.6860
   -45.6760 -45.6742 -45.6718 -45.6672 -45.6656 -45.6647 -45.6512 -45.6509
   -45.6450 -45.6427 -45.6323 -45.6249 -45.6203 -45.6173 -45.6105 -45.6092
   -45.6053 -45.6019 -45.5982 -45.5927 -45.5901 -45.5883 -45.5750 -45.5729
   -45.5696 -45.5634 -45.5587 -45.5562 -45.5517 -45.5507 -45.5417 -45.5319
   -45.5313 -45.5208 -45.5193 -45.5164 -45.5128 -45.5103 -45.5096 -45.5058
   -45.5028 -45.5020 -45.4997 -45.4987 -45.4831 -45.4817 -45.4809 -45.4773
   -45.4742 -45.4722 -45.4717 -45.4678 -45.4587 -45.4576 -45.4558 -45.4553
   -45.4499 -45.4467 -45.4463 -45.4449 -45.4409 -45.4396 -45.4326 -45.4283
   -45.4279 -45.4272 -45.4243 -45.4230 -45.4224 -45.4202 -45.4158 -45.4113
   -45.3943 -44.6755 -44.6545 -44.6509 -44.6481 -44.6464 -44.6389 -44.6296
   -44.6271 -44.6254 -44.6218 -44.6189 -44.6160 -44.6124 -44.6091 -44.6079
   -44.6019 -44.5984 -44.5980 -44.5938 -44.5909 -44.5871 -44.5831 -44.5804
   -44.5764 -44.5746 -44.5686 -44.5675 -44.5634 -44.5604 -44.5590 -44.5572
   -44.5554 -44.5545 -44.5529 -44.5506 -44.5462 -44.5413 -44.5393 -44.5345
   -44.5343 -44.5296 -44.5270 -44.5268 -44.5232 -44.5222 -44.5211 -44.5163
   -44.5140 -44.5136 -44.5105 -44.5070 -44.4997 -44.4953 -44.4880 -44.4852
   -44.4831 -44.4765 -44.4744 -44.4715 -44.4601 -44.4578 -44.4541 -44.4310
   -44.4086 -44.4048 -44.3976 -44.3937 -44.3874 -44.3860 -44.3839 -44.3817
   -44.3799 -44.3775 -44.3759 -44.3741 -44.3717 -44.3689 -44.3657 -44.3648
   -44.3626 -44.3612 -44.3600 -44.3585 -44.3573 -44.3546 -44.3538 -44.3533
   -44.3527 -44.3518 -44.3499 -44.3488 -44.3414 -44.3391 -44.3324 -44.3019
   -44.2682 -44.0415 -43.9165 -43.9022 -43.8242 -43.8205 -43.8197 -43.8173
   -43.8130 -43.8098 -43.8048 -43.8038 -43.8029 -43.8029 -43.8024 -43.8011
   -43.8003 -43.7998 -43.7996 -43.7991 -43.7985 -43.7978 -43.7971 -43.7952
   -43.7951 -43.7949 -43.7948 -43.7943 -43.7936 -43.7934 -43.7932 -43.7915
   -43.7898 -43.7893 -43.7880 -43.7862 -43.7564 -43.7553 -43.7522 -43.7496
   -43.7428 -43.7418 -43.7405 -43.7402 -43.7399 -43.7396 -43.7389 -43.7388
   -43.7381 -43.7374 -43.7366 -43.7365 -43.7345 -43.7339 -43.7330 -43.7322
   -43.7320 -43.7297 -43.7282 -43.7276 -43.7274 -43.7262 -43.7246 -43.7225
   -43.7213 -43.7197 -43.7151 -43.6954 -43.6947 -43.6899 -43.6899 -43.6864
   -43.6852 -43.6845 -43.6833 -43.6827 -43.6821 -43.6820 -43.6812 -43.6811
   -43.6810 -43.6800 -43.6781 -43.6770 -43.6756 -43.6745 -43.6733 -43.6732
   -43.6730 -43.6721 -43.6708 -43.6705 -43.6704 -43.6687 -43.6680 -43.6675
   -43.6618 -41.9210 -41.8121 -41.5283  -0.3195   0.4501   0.4545   0.5301
     0.5327   1.2107   1.2130   1.2155   1.2170   1.4787   2.1391   2.1582
     2.2297   2.2323   2.2732   2.4404   2.5669   2.5726   2.6524   2.6650
     2.6710   2.6729   2.8010   2.8058   2.8611   2.8656   2.9359   2.9395
     2.9433   2.9454   2.9828   3.0768   3.2155   3.2210   3.3427   3.3530
     3.3674   3.3772   3.3899   3.3991   3.4089   3.4213   3.4251   3.4391
     3.4447   3.5250   3.5446   3.5604   3.5642   3.5771   3.5901   3.6239
     3.6264   3.6310   3.6644   3.6742   3.6970   3.7075   3.7102   3.7159
     3.7201   3.7233   3.8027   3.8320   3.8405   3.8417   3.8466   3.8487
     3.8629   3.8736   3.8800   3.9017   3.9240   3.9259   3.9314   3.9338
     3.9524   3.9550   4.0012   4.0193   4.0281   4.0545   4.0609   4.0965
     4.1056   4.1193   4.1311   4.1490   4.1613   4.1700   4.1729   4.1782
     4.2025   4.2065   4.2162   4.2267   4.2340   4.2414   4.2443   4.2488
     4.2540   4.2652   4.2683   4.2738   4.2799   4.2820   4.2862   4.2947
     4.3027   4.3067   4.3136   4.3142   4.3171   4.3246   4.3298   4.3389
     4.3462   4.3572   4.3637   4.3722   4.3786   4.3984   4.4126   4.4205
     4.4405   4.4436   4.4525   4.4631   4.4686   4.4845   4.4887   4.4968
     4.4979   4.5006   4.5190   4.5451   4.5797   4.5823   4.6029   4.6079
     4.6184   4.6377   4.6415   4.6534   4.6613   4.6993   4.7202   4.7391
     4.7509   4.7560   4.7680   4.7729   4.7872   4.7900   4.7968   4.7996
     4.8025   4.8124   4.8170   4.8208   4.8249   4.8332   4.8376   4.8432
     4.8459   4.8552   4.8562   4.8615   4.8685   4.8731   4.8851   4.8896
     4.9012   4.9136   4.9223   4.9264   4.9376   4.9401   4.9424   4.9458
     4.9671   4.9733   4.9810   4.9838   4.9964   5.0087   5.0139   5.0168
     5.0246   5.0315   5.0363   5.0757   5.0878   5.0959   5.1365   5.1492
     5.1635   5.1646   5.1694   5.1733   5.1771   5.1790   5.1943   5.1995
     5.2098   5.2187   5.2580   5.2760   5.3185   5.3276   5.3437   5.3450
     5.3528   5.3603   5.3625   5.3751   5.3878   5.3975   5.3997   5.4160
     5.4340   5.4422   5.4532   5.4549   5.4640   5.4658   5.4728   5.4792
     5.4835   5.4856   5.4887   5.4926   5.4976   5.5028   5.5057   5.5084
     5.5148   5.5247   5.5329   5.5410   5.5529   5.5570   5.5572   5.5617
     5.5657   5.5682   5.5716   5.5810   5.5886   5.5909   5.5955   5.6018
     5.6032   5.6110   5.6149   5.6241   5.6390   5.6666   5.6858   5.7196
     5.7256   5.7346   5.7419   5.7525   5.7551   5.7601   5.7634   5.7714
     5.8032   5.8120   5.8177   5.8264   5.8417   5.8626   5.8758   5.8852
     5.8942   5.9034   5.9063   5.9225   5.9288   5.9368   5.9512   5.9797
     6.0160   6.0286   6.0752   6.0789   6.0835   6.0930   6.1004   6.1111
     6.1132   6.1251   6.1312   6.1334   6.1387   6.1494   6.1538   6.1579
     6.1603   6.1635   6.1691   6.1740   6.1801   6.1949   6.2054   6.2141
     6.2268   6.2344   6.2562   6.2677   6.2725   6.2832   6.2929   6.3018
     6.3054   6.3597   6.3645   6.3804   6.3984   6.4012   6.4039   6.4084
     6.4137   6.4221   6.4344   6.4449   6.4514   6.4570   6.4698   6.4744
     6.4858   6.4897   6.4991   6.5011   6.5059   6.5081   6.5132   6.5171
     6.5186   6.5303   6.5344   6.5409   6.5477   6.5588   6.5622   6.5667
     6.5693   6.5734   6.5774   6.5903   6.5942   6.5986   6.6012   6.6080
     6.6111   6.6181   6.6184   6.6261   6.6348   6.6416   6.6425   6.6446
     6.6477   6.6572   6.6580   6.6695   6.6813   6.6833   6.7001   6.7073
     6.7120   6.7230   6.7340   6.7382   6.7513   6.7550   6.7703   6.7770
     6.7802   6.7944   6.7989   6.8095   6.8175   6.8271   6.8280   6.8482
     6.8554   6.8743   6.8836   6.8901   6.8949   6.9024   6.9052   6.9112
     6.9194   6.9228   6.9294   6.9350   6.9373   6.9402   6.9507   6.9525
     6.9601   6.9660   6.9770   6.9803   6.9848   6.9956   7.0348   7.0440
     7.0447   7.0575   7.0597   7.0698   7.1099   7.1185   7.1270   7.1323
     7.1391   7.1508   7.1535   7.1925   7.2128   7.2145   7.2277   7.2355
     7.2452   7.2628   7.2753   7.2803   7.2831   7.2882   7.2909   7.3074
     7.3109   7.3346   7.3630   7.3802   7.3922   7.3986   7.4147   7.4226
     7.4228   7.4539   7.4660   7.4871   7.5081   7.5163   7.5250   7.5299
     7.5307   7.5355   7.5375   7.5461   7.5494   7.5553   7.5608   7.5617
     7.5801   7.6048   7.6310   7.6458   7.6570   7.6625   7.6651   7.7249
     7.7262   7.7302   7.7324   7.7477   7.7607   7.7770   7.7826   7.7924
     7.8027   7.8051   7.8084   7.8112   7.8188   7.8248   7.8309   7.8378
     7.8516   7.8583   7.8634   7.8679   7.8807   7.9010   7.9100   7.9120
     7.9170   7.9225   7.9281   7.9359   7.9497   7.9542   7.9607   7.9676
     7.9774   7.9823   8.0031   8.0311   8.0370   8.0587   8.0676   8.0730
     8.0757   8.0808   8.0859   8.0869   8.0998   8.1007   8.1593   8.1656
     8.1835   8.1857   8.1980   8.2177   8.2196   8.2282   8.2351   8.2404
     8.2511   8.2612   8.2647   8.2675   8.2752   8.3020   8.3472   8.3549
     8.3568   8.3634   8.3831   8.3882   8.3944   8.4080   8.4165   8.4268
     8.4314   8.4480   8.4784   8.4902   8.4943   8.5007   8.5148   8.5183
     8.5239   8.5334   8.5412   8.6241   8.6294   8.6483   8.6544   8.6587
     8.6593   8.6672   8.6894   8.6960   8.7045   8.7127   8.7151   8.7173
     8.7220   8.7233   8.7243   8.7366   8.7401   8.7421   8.7454   8.7499
     8.7505   8.7545   8.7587   8.7637   8.7676   8.7747   8.7763   8.7804
     8.7829   8.7955   8.8016   8.8153   8.8259   8.8386   8.8410   8.8478
     8.8481   8.8501   8.8512   8.8550   8.8609   8.8616   8.8654   8.8738
     8.8773   8.8822   8.8836   8.8862   8.8926   8.8995   8.9028   8.9250
     8.9307   8.9364   8.9404   8.9440   8.9462   8.9547   8.9555   8.9585
     8.9617   8.9646   8.9929   8.9960   9.0000   9.0032   9.0049   9.0080
     9.0097   9.0114   9.0242   9.0316   9.0452   9.0484   9.0548   9.0586
     9.0689   9.0728   9.0791   9.0799   9.0839   9.0925   9.0995   9.1099
     9.1167   9.1216   9.1260   9.1603   9.1646   9.1735   9.1750   9.1853
     9.1870   9.1919   9.1946   9.1991   9.1994   9.2023   9.2080   9.2174
     9.2227   9.2244   9.2338   9.2361   9.2407   9.2441   9.2452   9.2474
     9.2493   9.2551   9.2579   9.2632   9.2676   9.2686   9.2761   9.2949
     9.2991   9.3086   9.3197   9.3201   9.3454   9.3492   9.3536   9.3577
     9.3863   9.3909   9.4103   9.4137   9.4272   9.4335   9.4369   9.4432
     9.4485   9.4493   9.4530   9.4554   9.4569   9.4591   9.4663   9.5072
     9.5401   9.5606   9.5695   9.5751   9.5919   9.6207   9.6397   9.6445
     9.6575   9.6815   9.6960   9.8445   9.9174  10.0241  10.2036  10.3297
    10.3624  10.3821  10.4451  10.4953  10.5022  10.5097  10.5329  10.5406
    10.5536  10.6180  10.6373  10.6573  10.6711  10.6853  10.7113  10.7233

 ------ SPIN DOWN ----------


          k = 0.0000 0.0000 0.0000 ( 91909 PWs)   bands (ev):

   -80.4117 -80.4112 -80.3897 -80.3742 -80.3694 -80.3678 -80.3648 -80.3646
   -80.3620 -80.3610 -80.3588 -80.3574 -80.3569 -80.3559 -80.3550 -80.3546
   -80.3528 -80.3508 -80.3504 -80.3490 -80.3476 -80.3434 -80.3434 -80.3406
   -80.3394 -80.3384 -80.3372 -80.3355 -80.3335 -80.3329 -80.3207 -80.3142
   -79.6484 -79.6033 -79.5617 -79.5606 -79.5545 -79.5466 -79.5450 -79.5417
   -79.5409 -79.5325 -79.5286 -79.5256 -79.5251 -79.5063 -79.5035 -79.5021
   -79.4995 -79.4969 -79.4905 -79.4876 -79.4862 -79.4759 -79.4715 -79.4626
   -79.4623 -79.4558 -79.4530 -79.4513 -79.4439 -79.4414 -79.4148 -79.4092
   -78.4853 -78.4813 -78.4551 -78.4550 -78.4491 -78.4439 -78.4407 -78.4398
   -78.4386 -78.4309 -78.4275 -78.4213 -78.4167 -78.4152 -78.4148 -78.4049
   -78.4026 -78.4021 -78.3966 -78.3864 -78.3846 -78.3744 -78.3735 -78.3719
   -78.3683 -78.3646 -78.3601 -78.3601 -78.3534 -78.3462 -78.3252 -78.2500
   -77.8138 -77.7220 -77.6593 -77.6569 -77.6548 -77.6489 -77.6478 -77.6440
   -77.6438 -77.6435 -77.6433 -77.6423 -77.6413 -77.6410 -77.6407 -77.6403
   -77.6394 -77.6393 -77.6392 -77.6362 -77.6362 -77.6358 -77.6344 -77.6332
   -77.6329 -77.6327 -77.6324 -77.6323 -77.6310 -77.6304 -77.6276 -77.6244
   -76.0067 -46.5745 -46.5598 -46.5566 -46.5380 -46.5251 -46.5162 -46.5145
   -46.5116 -46.5100 -46.5095 -46.5083 -46.5064 -46.5060 -46.5048 -46.5045
   -46.5021 -46.5000 -46.4999 -46.4975 -46.4963 -46.4960 -46.4906 -46.4902
   -46.4894 -46.4878 -46.4847 -46.4803 -46.4796 -46.4793 -46.4768 -46.4766
   -46.4689 -46.4674 -46.4508 -46.4452 -46.4314 -46.4258 -46.4236 -46.4191
   -46.4178 -46.4159 -46.4152 -46.4144 -46.4133 -46.4123 -46.4120 -46.4118
   -46.4112 -46.4111 -46.4107 -46.4095 -46.4083 -46.4069 -46.4061 -46.4048
   -46.4038 -46.4009 -46.3991 -46.3989 -46.3951 -46.3944 -46.3931 -46.3883
   -46.3810 -46.3710 -46.3612 -46.3487 -46.3437 -46.3386 -46.3384 -46.3347
   -46.3333 -46.3322 -46.3317 -46.3295 -46.3278 -46.3264 -46.3246 -46.3243
   -46.3234 -46.3228 -46.3207 -46.3194 -46.3182 -46.3175 -46.3164 -46.3149
   -46.3102 -46.3094 -46.3081 -46.3064 -46.3041 -46.3035 -46.2996 -46.2984
   -46.2881 -45.7893 -45.7687 -45.7559 -45.7516 -45.7470 -45.7434 -45.7420
   -45.7387 -45.7370 -45.7350 -45.7339 -45.7323 -45.7291 -45.7276 -45.7246
   -45.7238 -45.7207 -45.7196 -45.7119 -45.7115 -45.6920 -45.6866 -45.6861
   -45.6769 -45.6758 -45.6718 -45.6679 -45.6676 -45.6653 -45.6525 -45.6514
   -45.6448 -45.6420 -45.6325 -45.6267 -45.6227 -45.6203 -45.6111 -45.6101
   -45.6072 -45.6020 -45.5974 -45.5942 -45.5911 -45.5877 -45.5743 -45.5729
   -45.5681 -45.5628 -45.5592 -45.5559 -45.5520 -45.5501 -45.5408 -45.5313
   -45.5305 -45.5205 -45.5197 -45.5168 -45.5120 -45.5107 -45.5085 -45.5053
   -45.5021 -45.5010 -45.4997 -45.4987 -45.4825 -45.4818 -45.4809 -45.4764
   -45.4730 -45.4722 -45.4709 -45.4683 -45.4604 -45.4584 -45.4558 -45.4549
   -45.4500 -45.4471 -45.4468 -45.4452 -45.4400 -45.4387 -45.4323 -45.4285
   -45.4270 -45.4259 -45.4247 -45.4238 -45.4236 -45.4208 -45.4135 -45.4130
   -45.3921 -44.6738 -44.6529 -44.6507 -44.6471 -44.6464 -44.6396 -44.6299
   -44.6272 -44.6250 -44.6226 -44.6199 -44.6168 -44.6144 -44.6096 -44.6076
   -44.6022 -44.5999 -44.5984 -44.5934 -44.5890 -44.5859 -44.5834 -44.5812
   -44.5766 -44.5723 -44.5688 -44.5667 -44.5634 -44.5593 -44.5590 -44.5571
   -44.5556 -44.5545 -44.5531 -44.5497 -44.5466 -44.5407 -44.5390 -44.5342
   -44.5321 -44.5295 -44.5271 -44.5264 -44.5235 -44.5227 -44.5215 -44.5161
   -44.5130 -44.5122 -44.5117 -44.5061 -44.4983 -44.4963 -44.4876 -44.4854
   -44.4843 -44.4778 -44.4746 -44.4713 -44.4632 -44.4598 -44.4587 -44.4332
   -44.4078 -44.4061 -44.3951 -44.3940 -44.3887 -44.3860 -44.3832 -44.3811
   -44.3788 -44.3780 -44.3764 -44.3742 -44.3724 -44.3687 -44.3661 -44.3655
   -44.3626 -44.3619 -44.3595 -44.3582 -44.3576 -44.3556 -44.3552 -44.3548
   -44.3536 -44.3526 -44.3501 -44.3497 -44.3427 -44.3415 -44.3330 -44.3022
   -44.2680 -44.0348 -43.9104 -43.9008 -43.8222 -43.8187 -43.8173 -43.8156
   -43.8123 -43.8110 -43.8045 -43.8036 -43.8028 -43.8015 -43.8012 -43.8010
   -43.8000 -43.7994 -43.7992 -43.7987 -43.7987 -43.7979 -43.7965 -43.7962
   -43.7953 -43.7951 -43.7949 -43.7944 -43.7938 -43.7936 -43.7933 -43.7916
   -43.7901 -43.7897 -43.7875 -43.7855 -43.7558 -43.7541 -43.7516 -43.7489
   -43.7437 -43.7421 -43.7404 -43.7399 -43.7395 -43.7392 -43.7387 -43.7384
   -43.7381 -43.7372 -43.7367 -43.7359 -43.7345 -43.7335 -43.7328 -43.7319
   -43.7317 -43.7294 -43.7282 -43.7279 -43.7270 -43.7262 -43.7238 -43.7228
   -43.7222 -43.7198 -43.7154 -43.6949 -43.6946 -43.6894 -43.6892 -43.6867
   -43.6850 -43.6847 -43.6835 -43.6828 -43.6819 -43.6818 -43.6813 -43.6813
   -43.6808 -43.6801 -43.6786 -43.6773 -43.6743 -43.6740 -43.6736 -43.6732
   -43.6726 -43.6719 -43.6709 -43.6708 -43.6706 -43.6686 -43.6676 -43.6665
   -43.6620 -41.9269 -41.8115 -41.5299  -0.3196   0.4501   0.4544   0.5300
     0.5326   1.2107   1.2130   1.2154   1.2169   1.4786   2.1391   2.1581
     2.2296   2.2323   2.2730   2.4406   2.5669   2.5725   2.6523   2.6649
     2.6709   2.6729   2.8010   2.8055   2.8611   2.8658   2.9357   2.9395
     2.9435   2.9451   2.9823   3.0766   3.2153   3.2209   3.3422   3.3527
     3.3668   3.3774   3.3892   3.3990   3.4090   3.4212   3.4249   3.4389
     3.4449   3.5250   3.5443   3.5604   3.5642   3.5769   3.5904   3.6240
     3.6261   3.6311   3.6643   3.6739   3.6965   3.7074   3.7103   3.7151
     3.7196   3.7232   3.8027   3.8316   3.8404   3.8417   3.8461   3.8483
     3.8626   3.8738   3.8799   3.9014   3.9241   3.9261   3.9311   3.9342
     3.9522   3.9553   4.0002   4.0196   4.0283   4.0539   4.0605   4.0963
     4.1055   4.1190   4.1314   4.1491   4.1612   4.1704   4.1726   4.1785
     4.2024   4.2066   4.2161   4.2268   4.2334   4.2414   4.2442   4.2480
     4.2543   4.2652   4.2677   4.2745   4.2796   4.2817   4.2855   4.2948
     4.3028   4.3064   4.3131   4.3143   4.3175   4.3245   4.3295   4.3386
     4.3459   4.3575   4.3637   4.3719   4.3784   4.3973   4.4126   4.4207
     4.4404   4.4436   4.4525   4.4632   4.4675   4.4841   4.4891   4.4966
[...]
     atom   32 type  1   force =    -0.00025115    0.00040883   -0.00013261
     atom   33 type  2   force =    -0.00007719   -0.00013177    0.00033805
     atom   34 type  1   force =    -0.00020556   -0.00154496   -0.00485756
     atom   35 type  2   force =    -0.00103120   -0.00265380   -0.00035937
     atom   36 type  1   force =     0.00106441    0.00099718   -0.00174339
     atom   37 type  2   force =    -0.00072036   -0.00062568   -0.00512445
     atom   38 type  1   force =     0.00012645   -0.00068333    0.00167521
     atom   39 type  2   force =     0.00083467    0.00012402   -0.00107158
     atom   40 type  1   force =     0.00287525   -0.00059731    0.00017918
     atom   41 type  2   force =    -0.00001578    0.00101803    0.00383817
     atom   42 type  1   force =    -0.00142939    0.00013711    0.00114881
     atom   43 type  2   force =    -0.00029000   -0.00078292   -0.00155460
     atom   44 type  1   force =    -0.00076526   -0.00198212   -0.00275459
     atom   45 type  2   force =    -0.00061813   -0.00174400    0.00150423
     atom   46 type  1   force =    -0.00273224    0.00128887   -0.00115901
     atom   47 type  2   force =    -0.00016238    0.00076723    0.00022680
     atom   48 type  1   force =     0.00050788    0.00124258    0.00331861
     atom   49 type  2   force =     0.00090266   -0.00119678    0.00117463
     atom   50 type  1   force =     0.00085023    0.00186055   -0.00183482
     atom   51 type  2   force =    -0.00004993    0.00125665   -0.00221998
     atom   52 type  1   force =     0.00170565   -0.00197982   -0.00031970
     atom   53 type  2   force =     0.00081055    0.00099665    0.00265247
     atom   54 type  1   force =    -0.00242453    0.00120044    0.00100950
     atom   55 type  2   force =    -0.00155173   -0.00056968    0.00211252
     atom   56 type  1   force =    -0.00049228    0.00004313   -0.00009758
     atom   57 type  2   force =     0.00014959    0.00001909   -0.00039323
     atom   58 type  1   force =     0.00090555    0.00235917   -0.00103757
     atom   59 type  2   force =    -0.00128657    0.00131987   -0.00044407
     atom   60 type  1   force =     0.00162211    0.00093498    0.00019870
     atom   61 type  2   force =    -0.00009874    0.00214723   -0.00318815
     atom   62 type  1   force =    -0.00243727   -0.00138106    0.00188802
     atom   63 type  2   force =    -0.00138767   -0.00213670    0.00028942
     atom   64 type  1   force =     0.00120353   -0.00015873    0.00025457
     atom   65 type  2   force =     0.00076678   -0.00084578    0.00012831
     atom   66 type  1   force =    -0.00062274    0.00009645    0.00079350
     atom   67 type  2   force =     0.00068697   -0.00003607    0.00097934
     atom   68 type  1   force =    -0.00315784   -0.00039123   -0.00145467
     atom   69 type  2   force =     0.00327134    0.00031172   -0.00126887
     atom   70 type  1   force =    -0.00023172   -0.00112679   -0.00119290
     atom   71 type  2   force =     0.00003757    0.00125475   -0.00072369
     atom   72 type  1   force =     0.00008175   -0.00044385    0.00088117
     atom   73 type  2   force =    -0.00057522    0.00045204    0.00101932
     atom   74 type  1   force =     0.00045078    0.00168958   -0.00004047
     atom   75 type  2   force =     0.00151685    0.00007862   -0.00005571
     atom   76 type  1   force =     0.00050597    0.00039020   -0.00194891
     atom   77 type  2   force =    -0.00129723    0.00023536   -0.00045586
     atom   78 type  1   force =     0.00206145    0.00077466   -0.00040823
     atom   79 type  2   force =    -0.00008207    0.00059599    0.00121403
     atom   80 type  1   force =    -0.00208433    0.00044810   -0.00093102
     atom   81 type  2   force =    -0.00092523   -0.00127889    0.00088933
     atom   82 type  1   force =    -0.00034480   -0.00054229   -0.00012667
     atom   83 type  2   force =     0.00031664    0.00061628   -0.00012073
     atom   84 type  1   force =    -0.00139350    0.00225463    0.00138656
     atom   85 type  2   force =     0.00125108   -0.00216125    0.00130637
     atom   86 type  1   force =     0.00010940    0.00082058    0.00285757
     atom   87 type  2   force =    -0.00028568   -0.00079514    0.00272390
     atom   88 type  1   force =     0.00080324   -0.00030784    0.00073918
     atom   89 type  2   force =    -0.00096146    0.00039464    0.00075706
     atom   90 type  1   force =    -0.00159024    0.00004033   -0.00010041
     atom   91 type  2   force =    -0.00038768   -0.00147932    0.00014864
     atom   92 type  1   force =     0.00118697   -0.00021369   -0.00043969
     atom   93 type  2   force =    -0.00054223   -0.00020651   -0.00221734
     atom   94 type  1   force =    -0.00014038   -0.00044265    0.00118206
     atom   95 type  2   force =    -0.00212947   -0.00087933   -0.00050671
     atom   96 type  1   force =     0.00069452    0.00147026    0.00080054
     atom   97 type  2   force =     0.00162686   -0.00044257   -0.00103039
     atom   98 type  1   force =     0.00135200    0.00270390   -0.00040152
     atom   99 type  2   force =    -0.00066082    0.00306381   -0.00163272
     atom  100 type  1   force =    -0.00070480    0.00094251   -0.00379817
     atom  101 type  2   force =    -0.00196674   -0.00084647   -0.00081491
     atom  102 type  1   force =    -0.00115780   -0.00012239   -0.00078960
     atom  103 type  2   force =    -0.00055342    0.00068600    0.00206967
     atom  104 type  1   force =     0.00001776   -0.00097194    0.00374778
     atom  105 type  2   force =    -0.00293477    0.00067690    0.00032243
     atom  106 type  1   force =     0.00108764   -0.00096808   -0.00040777
     atom  107 type  2   force =    -0.00120971   -0.00238474   -0.00076464
     atom  108 type  1   force =    -0.00027465   -0.00148169   -0.00248389
     atom  109 type  2   force =    -0.00184354   -0.00069782    0.00048196
     atom  110 type  1   force =     0.00094772    0.00227350    0.00080353
     atom  111 type  2   force =     0.00211455    0.00157273    0.00227861
     atom  112 type  1   force =    -0.00077919    0.00087998    0.00027250
     atom  113 type  2   force =    -0.00137102    0.00027076    0.00044893
     atom  114 type  1   force =     0.00001680   -0.00112801   -0.00215439
     atom  115 type  2   force =    -0.00087191   -0.00194074   -0.00178785
     atom  116 type  1   force =    -0.00087590   -0.00075072    0.00287317
     atom  117 type  2   force =    -0.00176601    0.00213646   -0.00046239
     atom  118 type  1   force =     0.00149427    0.00061923    0.00221992
     atom  119 type  2   force =     0.00238064   -0.00096628    0.00106910
     atom  120 type  1   force =    -0.00022753    0.00012575   -0.00036810
     atom  121 type  2   force =     0.00048675    0.00005974   -0.00004274
     atom  122 type  1   force =     0.00040054    0.00105212   -0.00156883
     atom  123 type  2   force =     0.00137727   -0.00035425    0.00096683
     atom  124 type  1   force =     0.00079603    0.00166669    0.00142320
     atom  125 type  2   force =     0.00051767    0.00198994   -0.00270648
     atom  126 type  1   force =     0.00012782   -0.00064852    0.00026236
     atom  127 type  2   force =     0.00270949   -0.00120401   -0.00102406
     atom  128 type  1   force =    -0.00077550    0.00133894    0.00110416
     atom  129 type  2   force =    -0.00052593   -0.00126470    0.00331507

     Total force =     0.031430     Total SCF correction =     0.000061


     Computing stress (Cartesian axis) and pressure


     negative rho (up, down):  1.474E-03 1.377E-03
          total   stress  (Ry/bohr**3)                   (kbar)     P=      -20.13
  -0.00015184   0.00000476  -0.00000444          -22.34        0.70       -0.65
   0.00000476  -0.00010231   0.00000396            0.70      -15.05        0.58
  -0.00000444   0.00000396  -0.00015636           -0.65        0.58      -23.00

     Energy error            =      5.8E-04
     Gradient error          =      1.1E-02

     number of scf cycles    =  40
     number of bfgs steps    =  39

     energy   old            =  -42651.9068022686 Ry
     energy   new            =  -42651.9073782382 Ry

     CASE: energy  _new < energy  _old

     new trust radius        =       0.1923583454 bohr

     The maximum number of steps has been reached.

     End of BFGS Geometry Optimization

ATOMIC_POSITIONS (crystal)
Pd            0.1425366154        0.1096145635        0.1753094519
Fe1           0.0587514911        0.0621777727        0.3211198308
Fe2           0.1884264687        0.1904386672        0.3214447710
Fe1           0.1868213138        0.0623456146        0.4421275665
Fe2           0.0624952400        0.1883386881        0.4424469437
Fe1           0.0623234448        0.0623096119        0.5697271267
Fe2           0.1876609724        0.1878931384        0.5698145157
Fe1           0.1882185320        0.0618120664        0.6879008522
Fe2           0.0616631883        0.1883065308        0.6879419889
Fe1           0.0653596669        0.3105424728        0.3172267349
Fe2           0.1877412822        0.4354272079        0.3175394236
Fe1           0.1881226859        0.3134645987        0.4412224809
Fe2           0.0633903249        0.4369568125        0.4385687833
Fe1           0.0628268233        0.3134274384        0.5678640336
Fe2           0.1885536579        0.4388510216        0.5682187237
Fe1           0.1887325739        0.3143367445        0.6874595528
Fe2           0.0603308409        0.4392010136        0.6862420965
Fe1           0.0648518892        0.5617087603        0.3145092804
Fe2           0.1847510329        0.6882740889        0.3145456056
Fe1           0.1863681423        0.5619817670        0.4371267276
Fe2           0.0633681903        0.6880856457        0.4371463988
Fe1           0.0615848803        0.5628336885        0.5662034336
Fe2           0.1882585958        0.6872082802        0.5660552067
Fe1           0.1887996898        0.5634533907        0.6861715781
Fe2           0.0613274038        0.6865501218        0.6862124839
Fe1           0.0618356790        0.8140622483        0.3172000136
Fe2           0.1829530456        0.9409213239        0.3139428284
Fe1           0.1862919475        0.8135689288        0.4379183368
Fe2           0.0618572177        0.9371479153        0.4406165384
Fe1           0.0613875875        0.8112783132        0.5679771676
Fe2           0.1869233225        0.9367688034        0.5677119740
Fe1           0.1896322301        0.8108966735        0.6860337324
Fe2           0.0612834218        0.9356743865        0.6875206827
Fe1           0.3076371236        0.0662183475        0.3122286091
Fe2           0.4357117354        0.1883362366        0.3171939086
Fe1           0.4341488445        0.0624943539        0.4341950933
Fe2           0.3121648400        0.1881550914        0.4418602548
Fe1           0.3124072828        0.0621417779        0.5666112153
Fe2           0.4385533288        0.1872257735        0.5660486225
Fe1           0.4380091206        0.0625159791        0.6859902438
Fe2           0.3146723717        0.1876393775        0.6859047540
Fe1           0.3112556731        0.3114910230        0.3170910354
Fe2           0.4354885632        0.4372229373        0.3147106133
Fe1           0.4374791461        0.3131364694        0.4369892942
Fe2           0.3125363891        0.4378297536        0.4366548833
Fe1           0.3141731531        0.3131779301        0.5679258657
Fe2           0.4390386332        0.4377997828        0.5632767417
Fe1           0.4403086405        0.3131278321        0.6845898267
Fe2           0.3159177157        0.4398134664        0.6855272571
Fe1           0.3083586926        0.5613277573        0.3147276980
Fe2           0.4339294665        0.6877967378        0.3130230733
Fe1           0.4358847300        0.5633274179        0.4322182863
Fe2           0.3104159428        0.6874003269        0.4334435597
Fe1           0.3142966438        0.5627713035        0.5641360724
Fe2           0.4385179585        0.6879038477        0.5598951195
Fe1           0.4419190690        0.5633094291        0.6824907722
Fe2           0.3162140834        0.6868807243        0.6842750724
Fe1           0.3074023930        0.8129173465        0.3147789528
Fe2           0.4344513829        0.9384114681        0.3150402728
Fe1           0.4356335414        0.8127466709        0.4315209439
Fe2           0.3101231111        0.9379372247        0.4363793971
Fe1           0.3137979860        0.8127091375        0.5632611403
Fe2           0.4377077308        0.9384685966        0.5623578472
Fe1           0.4393285798        0.8116227886        0.6828982229
Fe2           0.3147963472        0.9366343848        0.6859367879
Fe1           0.5616138244        0.0631718797        0.3146915636
Fe2           0.6884048524        0.1868357809        0.3148346330
Fe1           0.6885681123        0.0630599788        0.4352684145
Fe2           0.5611411116        0.1867802917        0.4352748078
Fe1           0.5619819928        0.0627071777        0.5635481930
Fe2           0.6874432200        0.1871633059        0.5641101575
Fe1           0.6855857757        0.0622839564        0.6850881128
Fe2           0.5638040132        0.1875341984        0.6852842084
Fe1           0.5607509072        0.3105022853        0.3139842659
Fe2           0.6872353947        0.4359975739        0.3123752197
Fe1           0.6875594055        0.3115443820        0.4335896035
Fe2           0.5625961360        0.4369895453        0.4321368263
Fe1           0.5632705289        0.3121508734        0.5635703318
Fe2           0.6879816681        0.4370423232        0.5599213538
Fe1           0.6882353356        0.3127115881        0.6849967321
Fe2           0.5651853465        0.4386032621        0.6822433482
Fe1           0.5612595307        0.5626092910        0.3122746394
Fe2           0.6887743471        0.6873919928        0.3123244286
Fe1           0.6883235734        0.5615080828        0.4294596980
Fe2           0.5615383365        0.6885974986        0.4293433951
Fe1           0.5630264145        0.5624719067        0.5576529214
Fe2           0.6867404770        0.6876478191        0.5577775044
Fe1           0.6857901963        0.5629420352        0.6805736751
Fe2           0.5637900794        0.6872523913        0.6805291088
Fe1           0.5626362093        0.8140727794        0.3121968774
Fe2           0.6891342637        0.9395323987        0.3141519373
Fe1           0.6872506938        0.8131249029        0.4321071032
Fe2           0.5618631187        0.9385363025        0.4333064698
Fe1           0.5617367799        0.8130272782        0.5596738828
Fe2           0.6864800830        0.9378271826        0.5634570248
Fe1           0.6844995126        0.8114424778        0.6820773302
Fe2           0.5612864124        0.9371798272        0.6846505345
Fe1           0.8145252311        0.0616906708        0.3171185529
Fe2           0.9402187905        0.1854832953        0.3164838546
Fe1           0.9374831917        0.0619972669        0.4423127231
Fe2           0.8144773065        0.1875769434        0.4355586937
Fe1           0.8110658334        0.0626085065        0.5663853731
Fe2           0.9371201456        0.1879987368        0.5670544355
Fe1           0.9352792391        0.0623076048        0.6857716425
Fe2           0.8116171019        0.1873261170        0.6862947701
Fe1           0.8150803563        0.3119264816        0.3151113394
Fe2           0.9421429279        0.4370734453        0.3151684271
Fe1           0.9387564045        0.3126016646        0.4373694776
Fe2           0.8139474677        0.4373515069        0.4319884495
Fe1           0.8116103623        0.3116587330        0.5631182566
Fe2           0.9358813796        0.4374564755        0.5637519418
Fe1           0.9349587268        0.3134197219        0.6860215021
Fe2           0.8102863517        0.4385281494        0.6833021088
Fe1           0.8159084250        0.5621612241        0.3130822736
Fe2           0.9412609680        0.6887015661        0.3148148436
Fe1           0.9393583672        0.5627061763        0.4337111263
Fe2           0.8139347195        0.6867468970        0.4324709430
Fe1           0.8112425725        0.5622093005        0.5601287897
Fe2           0.9356265112        0.6872313419        0.5643327643
Fe1           0.9336550724        0.5632283829        0.6844350168
Fe2           0.8078634944        0.6867924313        0.6825758979
Fe1           0.8143702881        0.8128848553        0.3146769367
Fe2           0.9388846574        0.9385928697        0.3171989169
Fe1           0.9373427469        0.8122085878        0.4366751854
Fe2           0.8125994445        0.9369337281        0.4370551583
Fe1           0.8108362106        0.8122429814        0.5632912826
Fe2           0.9358746286        0.9368145910        0.5680011921
Fe1           0.9341018901        0.8101751017        0.6853792008
Fe2           0.8094919150        0.9367724814        0.6846363174



     Writing output data file /scratch/bxp912/fepdslab4.save/
     NEW-OLD atomic charge density approx. for the potential

     Check: negative core charge=   -0.000004

     negative rho (up, down):  1.802E-03 1.865E-03
     Generating pointlists ...

     Writing output data file /scratch/bxp912/fepdslab4.save/
 
     init_run     :      8.83s CPU      9.40s WALL (       1 calls)
     electrons    :  41008.29s CPU  42016.60s WALL (      40 calls)
     update_pot   :     65.25s CPU     66.25s WALL (      40 calls)
     forces       :    209.37s CPU    216.28s WALL (      40 calls)
     stress       :   4529.79s CPU   4563.72s WALL (      40 calls)

     Called by init_run:
     wfcinit      :      5.84s CPU      6.17s WALL (       1 calls)
     potinit      :      1.05s CPU      1.11s WALL (       1 calls)
     hinit0       :      0.86s CPU      0.92s WALL (       1 calls)

     Called by electrons:
     c_bands      :  34717.46s CPU  35395.23s WALL (    1687 calls)
     sum_band     :   4360.41s CPU   4524.84s WALL (    1687 calls)
     v_of_rho     :    250.49s CPU    266.07s WALL (    1722 calls)
     newd         :    485.12s CPU    585.43s WALL (    1722 calls)
     PAW_pot      :   1060.16s CPU   1081.75s WALL (    1762 calls)
     mix_rho      :    154.04s CPU    162.15s WALL (    1687 calls)

     Called by c_bands:
     init_us_2    :    171.76s CPU    174.10s WALL (    6990 calls)
     regterg      :  34098.36s CPU  34698.05s WALL (    3374 calls)

     Called by *egterg:
     rdiaghg      :   3591.28s CPU   3632.66s WALL (   14928 calls)
     h_psi        :  13606.37s CPU  13771.81s WALL (   15020 calls)
     s_psi        :   2608.79s CPU   2656.47s WALL (   15020 calls)
     g_psi        :     54.60s CPU     55.19s WALL (   11644 calls)

     Called by h_psi:
     h_psi:calbec :   3350.16s CPU   3370.11s WALL (   15020 calls)
     vloc_psi     :   7381.31s CPU   7463.66s WALL (   15020 calls)
     add_vuspsi   :   2771.51s CPU   2833.82s WALL (   15020 calls)

     General routines
     calbec       :   4950.26s CPU   4980.22s WALL (   18874 calls)
     fft          :    235.26s CPU    238.37s WALL (   37291 calls)
     ffts         :     67.72s CPU     68.72s WALL (   34251 calls)
     fftw         :   7528.60s CPU   7609.77s WALL (12095676 calls)
     interpolate  :     31.25s CPU     31.83s WALL (    3444 calls)
     davcio       :      0.00s CPU      0.05s WALL (       2 calls)
 
     Parallel routines
     fft_scatt_xy :    995.69s CPU   1004.31s WALL (12167218 calls)
     fft_scatt_yz :   5097.73s CPU   5157.98s WALL (12167218 calls)
 
     PWSCF        :     12h45m CPU     13h 2m WALL

 
   This run was terminated on:   3:45:42  12May2022            

=------------------------------------------------------------------------------=
   JOB DONE.
=------------------------------------------------------------------------------=
