
     Program PWSCF v.6.7MaX starts on 22May2022 at  9:41:58 

     This program is part of the open-source Quantum ESPRESSO suite
     for quantum simulation of materials; please cite
         "P. Giannozzi et al., J. Phys.:Condens. Matter 21 395502 (2009);
         "P. Giannozzi et al., J. Phys.:Condens. Matter 29 465901 (2017);
          URL http://www.quantum-espresso.org", 
     in publications or presentations arising from this work. More details at
     http://www.quantum-espresso.org/quote

     Parallel version (MPI & OpenMP), running on      72 processor cores
     Number of MPI processes:                72
     Threads/MPI process:                     1

     MPI processes distributed on     1 nodes
     R & G space division:  proc/nbgrp/npool/nimage =      72
     Reading input from fepdslabrelax.in
Warning: card &CELL ignored
Warning: card CELL_DYNAMICS = 'BFGS', ignored
Warning: card CELL_FACTOR = 2.0, ignored
Warning: card PRESS = 0.0, ignored
Warning: card / ignored

     Current dimensions of program PWSCF are:
     Max number of different atomic species (ntypx) = 10
     Max number of k-points (npk) =  40000
     Max angular momentum in pseudopotentials (lmaxx) =  3
     file Fe.pbe-spn-kjpaw_psl.1.0.0.UPF: wavefunction(s)  3P 3D renormalized
     file Fe.pbe-spn-kjpaw_psl.1.0.0.UPF: wavefunction(s)  3P 3D renormalized
     file Pd.pbe-spn-kjpaw_psl.1.0.0.UPF: wavefunction(s)  4S 5S 4D renormalized

     gamma-point specific algorithms are used

     Subspace diagonalization in iterative solution of the eigenvalue problem:
     one sub-group per band group will be used
     ELPA distributed-memory algorithm (size of sub-group:  8*  8 procs)

 
     Parallelization info
     --------------------
     sticks:   dense  smooth     PW     G-vecs:    dense   smooth      PW
     Min         333     220     53                38016    20412    2546
     Max         336     222     56                38038    20426    2560
     Sum       24049   15899   3985              2738239  1469969  183817
 


     bravais-lattice index     =            0
     lattice parameter (alat)  =      25.8600  a.u.
     unit-cell volume          =   18186.5006 (a.u.)^3
     number of atoms/cell      =          129
     number of atomic types    =            3
     number of electrons       =      2066.00
     number of Kohn-Sham states=         1240
     kinetic-energy cutoff     =      71.0000  Ry
     charge density cutoff     =     430.0000  Ry
     scf convergence threshold =      1.0E-08
     mixing beta               =       0.3000
     number of iterations used =           10  local-TF  mixing
     energy convergence thresh.=      1.0E-05
     force convergence thresh. =      1.0E-04
     Exchange-correlation= SLA  PW   PBX  PBC
                           (   1   4   3   4   0   0   0)
     nstep                     =           40


     celldm(1)=  25.860000  celldm(2)=   0.000000  celldm(3)=   0.000000
     celldm(4)=   0.000000  celldm(5)=   0.000000  celldm(6)=   0.000000

     crystal axes: (cart. coord. in units of alat)
               a(1) = (   1.000000   0.000000   0.000000 )  
               a(2) = (   0.000000   1.051631   0.000000 )  
               a(3) = (   0.000000   0.000000   1.000000 )  

     reciprocal axes: (cart. coord. in units 2 pi/alat)
               b(1) = (  1.000000  0.000000  0.000000 )  
               b(2) = (  0.000000  0.950903  0.000000 )  
               b(3) = (  0.000000  0.000000  1.000000 )  


     PseudoPot. # 1 for Fe read from file:
     /rds/homes/b/bxp912/pp/Fe.pbe-spn-kjpaw_psl.1.0.0.UPF
     MD5 check sum: 42f43b795421b414b0dc916aa790dbcb
     Pseudo is Projector augmented-wave + core cor, Zval = 16.0
     Generated using &quot;atomic&quot; code by A. Dal Corso  v.6.3
     Shape of augmentation charge: PSQ
     Using radial grid of 1191 points,  6 beta functions with: 
                l(1) =   0
                l(2) =   0
                l(3) =   1
                l(4) =   1
                l(5) =   2
                l(6) =   2
     Q(r) pseudized with 0 coefficients 


     PseudoPot. # 2 for Fe read from file:
     /rds/homes/b/bxp912/pp/Fe.pbe-spn-kjpaw_psl.1.0.0.UPF
     MD5 check sum: 42f43b795421b414b0dc916aa790dbcb
     Pseudo is Projector augmented-wave + core cor, Zval = 16.0
     Generated using &quot;atomic&quot; code by A. Dal Corso  v.6.3
     Shape of augmentation charge: PSQ
     Using radial grid of 1191 points,  6 beta functions with: 
                l(1) =   0
                l(2) =   0
                l(3) =   1
                l(4) =   1
                l(5) =   2
                l(6) =   2
     Q(r) pseudized with 0 coefficients 


     PseudoPot. # 3 for Pd read from file:
     /rds/homes/b/bxp912/pp/Pd.pbe-spn-kjpaw_psl.1.0.0.UPF
     MD5 check sum: 790f2ebce206edfd9790dcb9844eca51
     Pseudo is Projector augmented-wave + core cor, Zval = 18.0
     Generated using &quot;atomic&quot; code by A. Dal Corso  v.6.3
     Shape of augmentation charge: PSQ
     Using radial grid of 1235 points,  6 beta functions with: 
                l(1) =   0
                l(2) =   0
                l(3) =   1
                l(4) =   1
                l(5) =   2
                l(6) =   2
     Q(r) pseudized with 0 coefficients 


     atomic species   valence    mass     pseudopotential
        Fe1           16.00    55.84500     Fe( 1.00)
        Fe2           16.00    55.84500     Fe( 1.00)
        Pd            18.00   106.42000     Pd( 1.00)

     Starting magnetic structure 
     atomic species   magnetization
        Fe1          0.100
        Fe2         -0.100
        Pd           0.001

     No symmetry found



   Cartesian axes

     site n.     atom                  positions (alat units)
         1           Pd  tau(   1) = (   0.5025366   0.5359267   0.7053095  )
         2           Fe1 tau(   2) = (   0.4187515   0.4860407   0.8511198  )
         3           Fe2 tau(   3) = (   0.5484265   0.6209239   0.8514448  )
         4           Fe1 tau(   4) = (   0.5468213   0.4862172   0.9721276  )
         5           Fe2 tau(   5) = (   0.4224952   0.6187155   0.9724469  )
         6           Fe1 tau(   6) = (   0.4223234   0.4861793   0.0997271  )
         7           Fe2 tau(   7) = (   0.5476610   0.6182469   0.0998145  )
         8           Fe1 tau(   8) = (   0.5482185   0.4856561   0.2179009  )
         9           Fe2 tau(   9) = (   0.4216632   0.6186817   0.2179420  )
        10           Fe1 tau(  10) = (   0.4253597   0.7472288   0.8472267  )
        11           Fe2 tau(  11) = (   0.5477413   0.8785616   0.8475394  )
        12           Fe1 tau(  12) = (   0.5481227   0.7503018   0.9712225  )
        13           Fe2 tau(  13) = (   0.4233903   0.8801701   0.9685688  )
        14           Fe1 tau(  14) = (   0.4228268   0.7502628   0.0978640  )
        15           Fe2 tau(  15) = (   0.5485537   0.8821621   0.0982187  )
        16           Fe1 tau(  16) = (   0.5487326   0.7512190   0.2174596  )
        17           Fe2 tau(  17) = (   0.4203308   0.8825302   0.2162421  )
        18           Fe1 tau(  18) = (   0.4248519   1.0113632   0.8445093  )
        19           Fe2 tau(  19) = (   0.5447510   0.0928318   0.8445456  )
        20           Fe1 tau(  20) = (   0.5463681   1.0116503   0.9671267  )
        21           Fe2 tau(  21) = (   0.4233682   0.0926336   0.9671464  )
        22           Fe1 tau(  22) = (   0.4215849   1.0125462   0.0962034  )
        23           Fe2 tau(  23) = (   0.5482586   0.0917110   0.0960552  )
        24           Fe1 tau(  24) = (   0.5487997   1.0131979   0.2161716  )
        25           Fe2 tau(  25) = (   0.4213274   0.0910188   0.2162125  )
        26           Fe1 tau(  26) = (   0.4218357   0.2251146   0.8472000  )
        27           Fe2 tau(  27) = (   0.5429530   0.3585236   0.8439428  )
        28           Fe1 tau(  28) = (   0.5462919   0.2245958   0.9679183  )
        29           Fe2 tau(  29) = (   0.4218572   0.3545554   0.9706165  )
        30           Fe1 tau(  30) = (   0.4213876   0.2221869   0.0979772  )
        31           Fe2 tau(  31) = (   0.5469233   0.3541567   0.0977120  )
        32           Fe1 tau(  32) = (   0.5496322   0.2217856   0.2160337  )
        33           Fe2 tau(  33) = (   0.4212834   0.3530058   0.2175207  )
        34           Fe1 tau(  34) = (   0.6676371   0.4902899   0.8422286  )
        35           Fe2 tau(  35) = (   0.7957117   0.6187129   0.8471939  )
        36           Fe1 tau(  36) = (   0.7941488   0.4863736   0.9641951  )
        37           Fe2 tau(  37) = (   0.6721648   0.6185224   0.9718603  )
        38           Fe1 tau(  38) = (   0.6724073   0.4860028   0.0966112  )
        39           Fe2 tau(  39) = (   0.7985533   0.6175451   0.0960486  )
        40           Fe1 tau(  40) = (   0.7980091   0.4863964   0.2159902  )
        41           Fe2 tau(  41) = (   0.6746724   0.6179801   0.2159048  )
        42           Fe1 tau(  42) = (   0.6712557   0.7482264   0.8470910  )
        43           Fe2 tau(  43) = (   0.7954886   0.8804500   0.8447106  )
        44           Fe1 tau(  44) = (   0.7974791   0.7499568   0.9669893  )
        45           Fe2 tau(  45) = (   0.6725364   0.8810881   0.9666549  )
        46           Fe1 tau(  46) = (   0.6741732   0.7500004   0.0979259  )
        47           Fe2 tau(  47) = (   0.7990386   0.8810566   0.0932767  )
        48           Fe1 tau(  48) = (   0.8003086   0.7499477   0.2145898  )
        49           Fe2 tau(  49) = (   0.6759177   0.8831743   0.2155273  )
        50           Fe1 tau(  50) = (   0.6683587   1.0109625   0.8447277  )
        51           Fe2 tau(  51) = (   0.7939295   0.0923298   0.8430231  )
        52           Fe1 tau(  52) = (   0.7958847   1.0130654   0.9622183  )
        53           Fe2 tau(  53) = (   0.6704159   0.0919129   0.9634436  )
        54           Fe1 tau(  54) = (   0.6742966   1.0124806   0.0941361  )
        55           Fe2 tau(  55) = (   0.7985180   0.0924425   0.0898951  )
        56           Fe1 tau(  56) = (   0.8019191   1.0130465   0.2124908  )
        57           Fe2 tau(  57) = (   0.6762141   0.0913665   0.2142751  )
        58           Fe1 tau(  58) = (   0.6674024   0.2239106   0.8447790  )
        59           Fe2 tau(  59) = (   0.7944514   0.3558842   0.8450403  )
        60           Fe1 tau(  60) = (   0.7956335   0.2237311   0.9615209  )
        61           Fe2 tau(  61) = (   0.6701231   0.3553854   0.9663794  )
        62           Fe1 tau(  62) = (   0.6737980   0.2236916   0.0932611  )
        63           Fe2 tau(  63) = (   0.7977077   0.3559442   0.0923578  )
        64           Fe1 tau(  64) = (   0.7993286   0.2225492   0.2128982  )
        65           Fe2 tau(  65) = (   0.6747963   0.3540153   0.2159368  )
        66           Fe1 tau(  66) = (   0.9216138   0.4870861   0.8446916  )
        67           Fe2 tau(  67) = (   0.0484049   0.6171350   0.8448346  )
        68           Fe1 tau(  68) = (   0.0485681   0.4869685   0.9652684  )
        69           Fe2 tau(  69) = (   0.9211411   0.6170766   0.9652748  )
        70           Fe1 tau(  70) = (   0.9219820   0.4865974   0.0935482  )
        71           Fe2 tau(  71) = (   0.0474432   0.6174794   0.0941102  )
        72           Fe1 tau(  72) = (   0.0455858   0.4861524   0.2150881  )
        73           Fe2 tau(  73) = (   0.9238040   0.6178695   0.2152842  )
        74           Fe1 tau(  74) = (   0.9207509   0.7471866   0.8439843  )
        75           Fe2 tau(  75) = (   0.0472354   0.8791614   0.8423752  )
        76           Fe1 tau(  76) = (   0.0475594   0.7482825   0.9635896  )
        77           Fe2 tau(  77) = (   0.9225961   0.8802046   0.9621368  )
        78           Fe1 tau(  78) = (   0.9232705   0.7489203   0.0935703  )
        79           Fe2 tau(  79) = (   0.0479817   0.8802601   0.0899214  )
        80           Fe1 tau(  80) = (   0.0482353   0.7495099   0.2149967  )
        81           Fe2 tau(  81) = (   0.9251853   0.8819016   0.2122433  )
        82           Fe1 tau(  82) = (   0.9212595   1.0123102   0.8422746  )
        83           Fe2 tau(  83) = (   0.0487743   0.0919042   0.8423244  )
        84           Fe1 tau(  84) = (   0.0483236   1.0111522   0.9594597  )
        85           Fe2 tau(  85) = (   0.9215383   0.0931719   0.9593434  )
        86           Fe1 tau(  86) = (   0.9230264   1.0121658   0.0876529  )
        87           Fe2 tau(  87) = (   0.0467405   0.0921732   0.0877775  )
        88           Fe1 tau(  88) = (   0.0457902   1.0126602   0.2105737  )
        89           Fe2 tau(  89) = (   0.9237901   0.0917574   0.2105291  )
        90           Fe1 tau(  90) = (   0.9226362   0.2251257   0.8421969  )
        91           Fe2 tau(  91) = (   0.0491343   0.3570630   0.8441519  )
        92           Fe1 tau(  92) = (   0.0472507   0.2241289   0.9621071  )
        93           Fe2 tau(  93) = (   0.9218631   0.3560154   0.9633065  )
        94           Fe1 tau(  94) = (   0.9217368   0.2240262   0.0896739  )
        95           Fe2 tau(  95) = (   0.0464801   0.3552697   0.0934570  )
        96           Fe1 tau(  96) = (   0.0444995   0.2223596   0.2120773  )
        97           Fe2 tau(  97) = (   0.9212864   0.3545889   0.2146505  )
        98           Fe1 tau(  98) = (   0.1745252   0.4855284   0.8471186  )
        99           Fe2 tau(  99) = (   0.3002188   0.6157127   0.8464839  )
       100           Fe1 tau( 100) = (   0.2974832   0.4858509   0.9723127  )
       101           Fe2 tau( 101) = (   0.1744773   0.6179144   0.9655587  )
       102           Fe1 tau( 102) = (   0.1710658   0.4864937   0.0963854  )
       103           Fe2 tau( 103) = (   0.2971201   0.6183580   0.0970544  )
       104           Fe1 tau( 104) = (   0.2952792   0.4861772   0.2157716  )
       105           Fe2 tau( 105) = (   0.1716171   0.6176506   0.2162948  )
       106           Fe1 tau( 106) = (   0.1750804   0.7486843   0.8451113  )
       107           Fe2 tau( 107) = (   0.3021429   0.8802928   0.8451684  )
       108           Fe1 tau( 108) = (   0.2987564   0.7493943   0.9673695  )
       109           Fe2 tau( 109) = (   0.1739475   0.8805852   0.9619884  )
       110           Fe1 tau( 110) = (   0.1716104   0.7484027   0.0931183  )
       111           Fe2 tau( 111) = (   0.2958814   0.8806956   0.0937519  )
       112           Fe1 tau( 112) = (   0.2949587   0.7502546   0.2160215  )
       113           Fe2 tau( 113) = (   0.1702864   0.8818226   0.2133021  )
       114           Fe1 tau( 114) = (   0.1759084   1.0118390   0.8430823  )
       115           Fe2 tau( 115) = (   0.3012610   0.0932814   0.8448148  )
       116           Fe1 tau( 116) = (   0.2993584   1.0124121   0.9637111  )
       117           Fe2 tau( 117) = (   0.1739347   0.0912258   0.9624709  )
       118           Fe1 tau( 118) = (   0.1712426   1.0118896   0.0901288  )
       119           Fe2 tau( 119) = (   0.2956265   0.0917352   0.0943328  )
       120           Fe1 tau( 120) = (   0.2936551   1.0129613   0.2144350  )
       121           Fe2 tau( 121) = (   0.1678635   0.0912737   0.2125759  )
       122           Fe1 tau( 122) = (   0.1743703   0.2238764   0.8446769  )
       123           Fe2 tau( 123) = (   0.2988847   0.3560749   0.8471989  )
       124           Fe1 tau( 124) = (   0.2973427   0.2231652   0.9666752  )
       125           Fe2 tau( 125) = (   0.1725994   0.3543301   0.9670552  )
       126           Fe1 tau( 126) = (   0.1708362   0.2232014   0.0932913  )
       127           Fe2 tau( 127) = (   0.2958746   0.3542048   0.0980012  )
       128           Fe1 tau( 128) = (   0.2941019   0.2210268   0.2153792  )
       129           Fe2 tau( 129) = (   0.1694919   0.3541605   0.2146363  )

     number of k points=     1  Marzari-Vanderbilt smearing, width (Ry)=  0.0400
                       cart. coord. in units 2pi/alat
        k(    1) = (   0.0000000   0.0000000   0.0000000), wk =   1.0000000

     Dense  grid:  1369120 G-vectors     FFT dimensions: ( 180, 180, 180)

     Smooth grid:   734985 G-vectors     FFT dimensions: ( 144, 150, 144)

     Estimated max dynamical RAM per process >     318.96 MB

     Estimated total dynamical RAM >      22.43 GB

     Check: negative core charge=   -0.000004
     Generating pointlists ...
     new r_m :   0.0707 (alat units)  1.8289 (a.u.) for type    1
     new r_m :   0.0709 (alat units)  1.8345 (a.u.) for type    2
     new r_m :   0.0723 (alat units)  1.8686 (a.u.) for type    3

     Initial potential from superposition of free atoms

     starting charge 2065.94361, renormalised to 2066.00000

     negative rho (up, down):  1.789E-04 1.786E-04
     Starting wfcs are 1290 randomized atomic wfcs
     Checking if some PAW data can be deallocated... 

     total cpu time spent up to now is       13.4 secs

     Self-consistent Calculation

     iteration #  1     ecut=    71.00 Ry     beta= 0.30
     Davidson diagonalization with overlap
     ethr =  1.00E-02,  avg # of iterations =  6.5

     negative rho (up, down):  1.138E+00 2.824E+00

     total cpu time spent up to now is       45.7 secs

     total energy              =  -42628.56596904 Ry
     estimated scf accuracy    <     715.94768827 Ry

     total magnetization       =    -2.90 Bohr mag/cell
     absolute magnetization    =   271.17 Bohr mag/cell

     iteration #  2     ecut=    71.00 Ry     beta= 0.30
     Davidson diagonalization with overlap
     ethr =  1.00E-02,  avg # of iterations =  3.5

     negative rho (up, down):  8.990E-01 2.171E+00

     total cpu time spent up to now is       67.7 secs

     total energy              =  -42639.12084567 Ry
     estimated scf accuracy    <     212.46538805 Ry

     total magnetization       =     1.78 Bohr mag/cell
     absolute magnetization    =   175.01 Bohr mag/cell

     iteration #  3     ecut=    71.00 Ry     beta= 0.30
     Davidson diagonalization with overlap
     ethr =  1.00E-02,  avg # of iterations =  1.5

     negative rho (up, down):  7.794E-01 1.889E+00

     total cpu time spent up to now is       87.4 secs

     total energy              =  -42650.51108916 Ry
     estimated scf accuracy    <     248.25061303 Ry

     total magnetization       =     0.58 Bohr mag/cell
     absolute magnetization    =   198.28 Bohr mag/cell

     iteration #  4     ecut=    71.00 Ry     beta= 0.30
     Davidson diagonalization with overlap
     ethr =  1.00E-02,  avg # of iterations =  1.0

     negative rho (up, down):  5.439E-01 1.321E+00

     total cpu time spent up to now is      105.3 secs

     total energy              =  -42651.58188731 Ry
     estimated scf accuracy    <      76.22951725 Ry

     total magnetization       =     0.15 Bohr mag/cell
     absolute magnetization    =   201.71 Bohr mag/cell

     iteration #  5     ecut=    71.00 Ry     beta= 0.30
     Davidson diagonalization with overlap
     ethr =  3.69E-03,  avg # of iterations =  1.0

     negative rho (up, down):  3.063E-01 7.330E-01

     total cpu time spent up to now is      123.5 secs

     total energy              =  -42651.94798118 Ry
     estimated scf accuracy    <      74.26765646 Ry

     total magnetization       =    -1.21 Bohr mag/cell
     absolute magnetization    =   206.50 Bohr mag/cell

     iteration #  6     ecut=    71.00 Ry     beta= 0.30
     Davidson diagonalization with overlap
     ethr =  3.59E-03,  avg # of iterations =  1.0

     negative rho (up, down):  5.956E-02 1.410E-01

     total cpu time spent up to now is      141.6 secs

     total energy              =  -42652.09512644 Ry
     estimated scf accuracy    <      43.41347508 Ry

     total magnetization       =    -1.47 Bohr mag/cell
     absolute magnetization    =   211.62 Bohr mag/cell

     iteration #  7     ecut=    71.00 Ry     beta= 0.30
     Davidson diagonalization with overlap
     ethr =  2.10E-03,  avg # of iterations =  1.5

     negative rho (up, down):  1.075E-02 2.116E-02

     total cpu time spent up to now is      161.7 secs

     total energy              =  -42651.95556582 Ry
     estimated scf accuracy    <      28.18138757 Ry

     total magnetization       =    -0.94 Bohr mag/cell
     absolute magnetization    =   218.00 Bohr mag/cell

     iteration #  8     ecut=    71.00 Ry     beta= 0.30
     Davidson diagonalization with overlap
     ethr =  1.36E-03,  avg # of iterations =  2.0

     negative rho (up, down):  6.943E-02 1.624E-01

     total cpu time spent up to now is      182.9 secs

     total energy              =  -42651.79352938 Ry
     estimated scf accuracy    <      10.69844198 Ry

     total magnetization       =    -1.27 Bohr mag/cell
     absolute magnetization    =   225.60 Bohr mag/cell

     iteration #  9     ecut=    71.00 Ry     beta= 0.30
     Davidson diagonalization with overlap
     ethr =  5.18E-04,  avg # of iterations =  5.0

     negative rho (up, down):  9.869E-02 2.375E-01

     total cpu time spent up to now is      205.1 secs

     total energy              =  -42651.70821435 Ry
     estimated scf accuracy    <       6.37311301 Ry

     total magnetization       =    -0.80 Bohr mag/cell
     absolute magnetization    =   229.30 Bohr mag/cell

     iteration # 10     ecut=    71.00 Ry     beta= 0.30
     Davidson diagonalization with overlap
     ethr =  3.08E-04,  avg # of iterations =  4.0

     negative rho (up, down):  4.477E-02 1.035E-01

     total cpu time spent up to now is      226.6 secs

     total energy              =  -42651.92977657 Ry
     estimated scf accuracy    <       3.53125929 Ry

     total magnetization       =    -0.44 Bohr mag/cell
     absolute magnetization    =   230.84 Bohr mag/cell

     iteration # 11     ecut=    71.00 Ry     beta= 0.30
     Davidson diagonalization with overlap
     ethr =  1.71E-04,  avg # of iterations = 13.0

     negative rho (up, down):  1.559E-03 2.425E-03

     total cpu time spent up to now is      251.3 secs

     total energy              =  -42652.06829453 Ry
     estimated scf accuracy    <       2.23970195 Ry

     total magnetization       =    -0.20 Bohr mag/cell
     absolute magnetization    =   230.11 Bohr mag/cell

     iteration # 12     ecut=    71.00 Ry     beta= 0.30
     Davidson diagonalization with overlap
     c_bands:  2 eigenvalues not converged
     ethr =  1.08E-04,  avg # of iterations = 11.0

     negative rho (up, down):  9.496E-04 9.092E-04

     total cpu time spent up to now is      275.4 secs

     total energy              =  -42652.09335298 Ry
     estimated scf accuracy    <       1.03176955 Ry

     total magnetization       =     0.07 Bohr mag/cell
     absolute magnetization    =   228.36 Bohr mag/cell

     iteration # 13     ecut=    71.00 Ry     beta= 0.30
     Davidson diagonalization with overlap
     c_bands:  3 eigenvalues not converged
     ethr =  4.99E-05,  avg # of iterations = 11.0

     negative rho (up, down):  9.265E-04 9.135E-04

     total cpu time spent up to now is      299.6 secs

     total energy              =  -42652.04559450 Ry
     estimated scf accuracy    <       0.79940002 Ry

     total magnetization       =     0.42 Bohr mag/cell
     absolute magnetization    =   228.24 Bohr mag/cell

     iteration # 14     ecut=    71.00 Ry     beta= 0.30
     Davidson diagonalization with overlap
     c_bands:  1 eigenvalues not converged
     ethr =  3.87E-05,  avg # of iterations = 11.0

     negative rho (up, down):  2.380E-03 2.801E-03

     total cpu time spent up to now is      323.2 secs

     total energy              =  -42651.93732764 Ry
     estimated scf accuracy    <       0.65912756 Ry

     total magnetization       =     0.36 Bohr mag/cell
     absolute magnetization    =   229.00 Bohr mag/cell

     iteration # 15     ecut=    71.00 Ry     beta= 0.30
     Davidson diagonalization with overlap
     c_bands:  3 eigenvalues not converged
     ethr =  3.19E-05,  avg # of iterations = 11.0

     negative rho (up, down):  4.984E-03 5.427E-03

     total cpu time spent up to now is      347.6 secs

     total energy              =  -42651.91451750 Ry
     estimated scf accuracy    <       0.49100973 Ry

     total magnetization       =     0.41 Bohr mag/cell
     absolute magnetization    =   229.43 Bohr mag/cell

     iteration # 16     ecut=    71.00 Ry     beta= 0.30
     Davidson diagonalization with overlap
     ethr =  2.38E-05,  avg # of iterations = 10.0

     negative rho (up, down):  2.089E-03 2.060E-03

     total cpu time spent up to now is      370.8 secs

     total energy              =  -42651.90007716 Ry
     estimated scf accuracy    <       0.38219768 Ry

     total magnetization       =     0.66 Bohr mag/cell
     absolute magnetization    =   229.41 Bohr mag/cell

     iteration # 17     ecut=    71.00 Ry     beta= 0.30
     Davidson diagonalization with overlap
     ethr =  1.85E-05,  avg # of iterations =  1.0

     negative rho (up, down):  2.845E-03 2.683E-03

     total cpu time spent up to now is      389.0 secs

     total energy              =  -42651.88352132 Ry
     estimated scf accuracy    <       0.27561238 Ry

     total magnetization       =     0.60 Bohr mag/cell
     absolute magnetization    =   229.19 Bohr mag/cell

     iteration # 18     ecut=    71.00 Ry     beta= 0.30
     Davidson diagonalization with overlap
     ethr =  1.33E-05,  avg # of iterations =  2.0

     negative rho (up, down):  6.863E-02 6.485E-02

     total cpu time spent up to now is      409.7 secs

     total energy              =  -42651.82967642 Ry
     estimated scf accuracy    <       0.25164469 Ry

     total magnetization       =     0.22 Bohr mag/cell
     absolute magnetization    =   228.92 Bohr mag/cell

     iteration # 19     ecut=    71.00 Ry     beta= 0.30
     Davidson diagonalization with overlap
     c_bands:  2 eigenvalues not converged
     ethr =  1.22E-05,  avg # of iterations = 11.0

     negative rho (up, down):  2.086E-02 1.928E-02

     total cpu time spent up to now is      433.6 secs

     total energy              =  -42651.82821379 Ry
     estimated scf accuracy    <       0.19720342 Ry

     total magnetization       =     0.05 Bohr mag/cell
     absolute magnetization    =   228.11 Bohr mag/cell

     iteration # 20     ecut=    71.00 Ry     beta= 0.30
     Davidson diagonalization with overlap
     ethr =  9.55E-06,  avg # of iterations =  7.5

     negative rho (up, down):  1.324E-01 1.289E-01

     total cpu time spent up to now is      456.5 secs

     total energy              =  -42651.84916380 Ry
     estimated scf accuracy    <       0.15729197 Ry

     total magnetization       =     0.41 Bohr mag/cell
     absolute magnetization    =   228.31 Bohr mag/cell

     iteration # 21     ecut=    71.00 Ry     beta= 0.30
     Davidson diagonalization with overlap
     ethr =  7.61E-06,  avg # of iterations = 13.5

     negative rho (up, down):  9.228E-02 8.942E-02

     total cpu time spent up to now is      482.9 secs

     total energy              =  -42651.85912077 Ry
     estimated scf accuracy    <       0.06824365 Ry

     total magnetization       =     0.12 Bohr mag/cell
     absolute magnetization    =   228.33 Bohr mag/cell

     iteration # 22     ecut=    71.00 Ry     beta= 0.30
     Davidson diagonalization with overlap
     ethr =  3.30E-06,  avg # of iterations =  2.0

     negative rho (up, down):  3.038E-02 2.888E-02

     total cpu time spent up to now is      503.9 secs

     total energy              =  -42651.86680359 Ry
     estimated scf accuracy    <       0.04296225 Ry

     total magnetization       =    -0.02 Bohr mag/cell
     absolute magnetization    =   228.20 Bohr mag/cell

     iteration # 23     ecut=    71.00 Ry     beta= 0.30
     Davidson diagonalization with overlap
     ethr =  2.08E-06,  avg # of iterations =  7.0

     negative rho (up, down):  3.064E-02 2.922E-02

     total cpu time spent up to now is      527.1 secs

     total energy              =  -42651.87724313 Ry
     estimated scf accuracy    <       0.03471390 Ry

     total magnetization       =    -0.02 Bohr mag/cell
     absolute magnetization    =   228.23 Bohr mag/cell

     iteration # 24     ecut=    71.00 Ry     beta= 0.30
     Davidson diagonalization with overlap
     ethr =  1.68E-06,  avg # of iterations =  2.0

     negative rho (up, down):  2.269E-02 2.170E-02

     total cpu time spent up to now is      548.2 secs

     total energy              =  -42651.88653119 Ry
     estimated scf accuracy    <       0.01725196 Ry

     total magnetization       =    -0.06 Bohr mag/cell
     absolute magnetization    =   228.35 Bohr mag/cell

     iteration # 25     ecut=    71.00 Ry     beta= 0.30
     Davidson diagonalization with overlap
     ethr =  8.35E-07,  avg # of iterations =  2.0

     negative rho (up, down):  1.282E-02 1.235E-02

     total cpu time spent up to now is      569.6 secs

     total energy              =  -42651.89908657 Ry
     estimated scf accuracy    <       0.01196770 Ry

     total magnetization       =    -0.11 Bohr mag/cell
     absolute magnetization    =   228.51 Bohr mag/cell

     iteration # 26     ecut=    71.00 Ry     beta= 0.30
     Davidson diagonalization with overlap
     ethr =  5.79E-07,  avg # of iterations =  3.0

     negative rho (up, down):  1.217E-02 1.173E-02

     total cpu time spent up to now is      591.5 secs

     total energy              =  -42651.90491904 Ry
     estimated scf accuracy    <       0.00899463 Ry

     total magnetization       =    -0.11 Bohr mag/cell
     absolute magnetization    =   228.64 Bohr mag/cell

     iteration # 27     ecut=    71.00 Ry     beta= 0.30
     Davidson diagonalization with overlap
     ethr =  4.35E-07,  avg # of iterations =  3.0

     negative rho (up, down):  1.127E-02 1.085E-02

     total cpu time spent up to now is      614.1 secs

     total energy              =  -42651.90575503 Ry
     estimated scf accuracy    <       0.00248841 Ry

     total magnetization       =    -0.05 Bohr mag/cell
     absolute magnetization    =   228.91 Bohr mag/cell

     iteration # 28     ecut=    71.00 Ry     beta= 0.30
     Davidson diagonalization with overlap
     ethr =  1.20E-07,  avg # of iterations =  2.0

     negative rho (up, down):  9.880E-03 9.491E-03

     total cpu time spent up to now is      635.4 secs

     total energy              =  -42651.90608174 Ry
     estimated scf accuracy    <       0.00165293 Ry

     total magnetization       =    -0.07 Bohr mag/cell
     absolute magnetization    =   228.95 Bohr mag/cell

     iteration # 29     ecut=    71.00 Ry     beta= 0.30
     Davidson diagonalization with overlap
     ethr =  8.00E-08,  avg # of iterations =  2.0

     negative rho (up, down):  9.715E-03 9.334E-03

     total cpu time spent up to now is      656.7 secs

     total energy              =  -42651.90666738 Ry
     estimated scf accuracy    <       0.00122552 Ry

     total magnetization       =    -0.08 Bohr mag/cell
     absolute magnetization    =   229.00 Bohr mag/cell

     iteration # 30     ecut=    71.00 Ry     beta= 0.30
     Davidson diagonalization with overlap
     ethr =  5.93E-08,  avg # of iterations =  2.0

     negative rho (up, down):  8.561E-03 8.224E-03

     total cpu time spent up to now is      677.5 secs

     total energy              =  -42651.90722196 Ry
     estimated scf accuracy    <       0.00108667 Ry

     total magnetization       =    -0.06 Bohr mag/cell
     absolute magnetization    =   229.06 Bohr mag/cell

     iteration # 31     ecut=    71.00 Ry     beta= 0.30
     Davidson diagonalization with overlap
     ethr =  5.26E-08,  avg # of iterations =  2.0

     negative rho (up, down):  8.543E-03 8.256E-03

     total cpu time spent up to now is      698.6 secs

     total energy              =  -42651.90787664 Ry
     estimated scf accuracy    <       0.00092025 Ry

     total magnetization       =    -0.06 Bohr mag/cell
     absolute magnetization    =   229.12 Bohr mag/cell

     iteration # 32     ecut=    71.00 Ry     beta= 0.30
     Davidson diagonalization with overlap
     ethr =  4.45E-08,  avg # of iterations =  3.0

     negative rho (up, down):  7.702E-03 7.442E-03

     total cpu time spent up to now is      720.4 secs

     total energy              =  -42651.90795708 Ry
     estimated scf accuracy    <       0.00056590 Ry

     total magnetization       =    -0.06 Bohr mag/cell
     absolute magnetization    =   229.22 Bohr mag/cell

     iteration # 33     ecut=    71.00 Ry     beta= 0.30
     Davidson diagonalization with overlap
     ethr =  2.74E-08,  avg # of iterations =  2.0

     negative rho (up, down):  6.440E-03 6.227E-03

     total cpu time spent up to now is      741.2 secs

     total energy              =  -42651.90795233 Ry
     estimated scf accuracy    <       0.00053208 Ry

     total magnetization       =    -0.05 Bohr mag/cell
     absolute magnetization    =   229.28 Bohr mag/cell

     iteration # 34     ecut=    71.00 Ry     beta= 0.30
     Davidson diagonalization with overlap
     ethr =  2.58E-08,  avg # of iterations =  3.0

     negative rho (up, down):  5.508E-03 5.341E-03

     total cpu time spent up to now is      763.0 secs

     total energy              =  -42651.90795877 Ry
     estimated scf accuracy    <       0.00040054 Ry

     total magnetization       =    -0.05 Bohr mag/cell
     absolute magnetization    =   229.35 Bohr mag/cell

     iteration # 35     ecut=    71.00 Ry     beta= 0.30
     Davidson diagonalization with overlap
     ethr =  1.94E-08,  avg # of iterations =  2.0

     negative rho (up, down):  4.043E-03 3.945E-03

     total cpu time spent up to now is      784.2 secs

     total energy              =  -42651.90794819 Ry
     estimated scf accuracy    <       0.00036949 Ry

     total magnetization       =    -0.06 Bohr mag/cell
     absolute magnetization    =   229.40 Bohr mag/cell

     iteration # 36     ecut=    71.00 Ry     beta= 0.30
     Davidson diagonalization with overlap
     ethr =  1.79E-08,  avg # of iterations =  3.0

     negative rho (up, down):  3.200E-03 3.127E-03

     total cpu time spent up to now is      806.4 secs

     total energy              =  -42651.90796571 Ry
     estimated scf accuracy    <       0.00026598 Ry

     total magnetization       =    -0.05 Bohr mag/cell
     absolute magnetization    =   229.46 Bohr mag/cell

     iteration # 37     ecut=    71.00 Ry     beta= 0.30
     Davidson diagonalization with overlap
     ethr =  1.29E-08,  avg # of iterations =  3.5

     negative rho (up, down):  2.515E-03 2.454E-03

     total cpu time spent up to now is      827.6 secs

     total energy              =  -42651.90799839 Ry
     estimated scf accuracy    <       0.00022937 Ry

     total magnetization       =    -0.04 Bohr mag/cell
     absolute magnetization    =   229.50 Bohr mag/cell

     iteration # 38     ecut=    71.00 Ry     beta= 0.30
     Davidson diagonalization with overlap
     ethr =  1.11E-08,  avg # of iterations =  2.5

     negative rho (up, down):  1.545E-03 1.490E-03

     total cpu time spent up to now is      848.9 secs

     total energy              =  -42651.90804924 Ry
     estimated scf accuracy    <       0.00016976 Ry

     total magnetization       =    -0.05 Bohr mag/cell
     absolute magnetization    =   229.52 Bohr mag/cell

     iteration # 39     ecut=    71.00 Ry     beta= 0.30
     Davidson diagonalization with overlap
     ethr =  8.22E-09,  avg # of iterations =  4.0

     negative rho (up, down):  1.342E-03 1.287E-03

     total cpu time spent up to now is      872.2 secs

     total energy              =  -42651.90805201 Ry
     estimated scf accuracy    <       0.00013986 Ry

     total magnetization       =    -0.05 Bohr mag/cell
     absolute magnetization    =   229.52 Bohr mag/cell

     iteration # 40     ecut=    71.00 Ry     beta= 0.30
     Davidson diagonalization with overlap
     ethr =  6.77E-09,  avg # of iterations =  3.0

     negative rho (up, down):  1.073E-03 1.018E-03

     total cpu time spent up to now is      893.7 secs

     total energy              =  -42651.90803219 Ry
     estimated scf accuracy    <       0.00010192 Ry

     total magnetization       =    -0.06 Bohr mag/cell
     absolute magnetization    =   229.55 Bohr mag/cell

     iteration # 41     ecut=    71.00 Ry     beta= 0.30
     Davidson diagonalization with overlap
     ethr =  4.93E-09,  avg # of iterations =  3.5

     negative rho (up, down):  9.578E-04 9.014E-04

     total cpu time spent up to now is      915.3 secs

     total energy              =  -42651.90801264 Ry
     estimated scf accuracy    <       0.00004365 Ry

     total magnetization       =    -0.06 Bohr mag/cell
     absolute magnetization    =   229.55 Bohr mag/cell

     iteration # 42     ecut=    71.00 Ry     beta= 0.30
     Davidson diagonalization with overlap
     ethr =  2.11E-09,  avg # of iterations =  3.0

     negative rho (up, down):  1.084E-03 1.027E-03

     total cpu time spent up to now is      937.3 secs

     total energy              =  -42651.90809114 Ry
     estimated scf accuracy    <       0.00003939 Ry

     total magnetization       =    -0.06 Bohr mag/cell
     absolute magnetization    =   229.54 Bohr mag/cell

     iteration # 43     ecut=    71.00 Ry     beta= 0.30
     Davidson diagonalization with overlap
     ethr =  1.91E-09,  avg # of iterations =  4.0

     negative rho (up, down):  1.047E-03 9.897E-04

     total cpu time spent up to now is      960.2 secs

     total energy              =  -42651.90809347 Ry
     estimated scf accuracy    <       0.00002783 Ry

     total magnetization       =    -0.06 Bohr mag/cell
     absolute magnetization    =   229.55 Bohr mag/cell

     iteration # 44     ecut=    71.00 Ry     beta= 0.30
     Davidson diagonalization with overlap
     ethr =  1.35E-09,  avg # of iterations =  2.0

     negative rho (up, down):  1.059E-03 1.002E-03

     total cpu time spent up to now is      981.0 secs

     total energy              =  -42651.90810503 Ry
     estimated scf accuracy    <       0.00002179 Ry

     total magnetization       =    -0.06 Bohr mag/cell
     absolute magnetization    =   229.54 Bohr mag/cell

     iteration # 45     ecut=    71.00 Ry     beta= 0.30
     Davidson diagonalization with overlap
     ethr =  1.05E-09,  avg # of iterations =  2.0

     negative rho (up, down):  1.106E-03 1.048E-03

     total cpu time spent up to now is     1001.9 secs

     total energy              =  -42651.90812191 Ry
     estimated scf accuracy    <       0.00001918 Ry

     total magnetization       =    -0.06 Bohr mag/cell
     absolute magnetization    =   229.54 Bohr mag/cell

     iteration # 46     ecut=    71.00 Ry     beta= 0.30
     Davidson diagonalization with overlap
     ethr =  9.28E-10,  avg # of iterations =  2.0

     negative rho (up, down):  1.269E-03 1.210E-03

     total cpu time spent up to now is     1023.0 secs

     total energy              =  -42651.90816110 Ry
     estimated scf accuracy    <       0.00001862 Ry

     total magnetization       =    -0.06 Bohr mag/cell
     absolute magnetization    =   229.54 Bohr mag/cell

     iteration # 47     ecut=    71.00 Ry     beta= 0.30
     Davidson diagonalization with overlap
     ethr =  9.01E-10,  avg # of iterations =  5.0

     negative rho (up, down):  1.382E-03 1.323E-03

     total cpu time spent up to now is     1047.3 secs

     total energy              =  -42651.90817103 Ry
     estimated scf accuracy    <       0.00001759 Ry

     total magnetization       =    -0.06 Bohr mag/cell
     absolute magnetization    =   229.53 Bohr mag/cell

     iteration # 48     ecut=    71.00 Ry     beta= 0.30
     Davidson diagonalization with overlap
     ethr =  8.51E-10,  avg # of iterations =  3.0

     negative rho (up, down):  1.501E-03 1.441E-03

     total cpu time spent up to now is     1068.3 secs

     total energy              =  -42651.90817815 Ry
     estimated scf accuracy    <       0.00001155 Ry

     total magnetization       =    -0.06 Bohr mag/cell
     absolute magnetization    =   229.54 Bohr mag/cell

     iteration # 49     ecut=    71.00 Ry     beta= 0.30
     Davidson diagonalization with overlap
     ethr =  5.59E-10,  avg # of iterations =  4.0

     negative rho (up, down):  1.589E-03 1.529E-03

     total cpu time spent up to now is     1090.7 secs

     total energy              =  -42651.90818089 Ry
     estimated scf accuracy    <       0.00001396 Ry

     total magnetization       =    -0.06 Bohr mag/cell
     absolute magnetization    =   229.53 Bohr mag/cell

     iteration # 50     ecut=    71.00 Ry     beta= 0.30
     Davidson diagonalization with overlap
     ethr =  5.59E-10,  avg # of iterations =  3.0

     negative rho (up, down):  1.600E-03 1.540E-03

     total cpu time spent up to now is     1112.7 secs

     total energy              =  -42651.90818183 Ry
     estimated scf accuracy    <       0.00000951 Ry

     total magnetization       =    -0.06 Bohr mag/cell
     absolute magnetization    =   229.53 Bohr mag/cell

     iteration # 51     ecut=    71.00 Ry     beta= 0.30
     Davidson diagonalization with overlap
     ethr =  4.61E-10,  avg # of iterations =  2.0

     negative rho (up, down):  1.601E-03 1.542E-03

     total cpu time spent up to now is     1133.8 secs

     total energy              =  -42651.90818257 Ry
     estimated scf accuracy    <       0.00000617 Ry

     total magnetization       =    -0.06 Bohr mag/cell
     absolute magnetization    =   229.52 Bohr mag/cell

     iteration # 52     ecut=    71.00 Ry     beta= 0.30
     Davidson diagonalization with overlap
     ethr =  2.99E-10,  avg # of iterations =  2.0

     negative rho (up, down):  1.576E-03 1.517E-03

     total cpu time spent up to now is     1154.6 secs

     total energy              =  -42651.90818373 Ry
     estimated scf accuracy    <       0.00000485 Ry

     total magnetization       =    -0.06 Bohr mag/cell
     absolute magnetization    =   229.52 Bohr mag/cell

     iteration # 53     ecut=    71.00 Ry     beta= 0.30
     Davidson diagonalization with overlap
     ethr =  2.35E-10,  avg # of iterations =  2.0

     negative rho (up, down):  1.514E-03 1.455E-03

     total cpu time spent up to now is     1176.0 secs

     total energy              =  -42651.90818288 Ry
     estimated scf accuracy    <       0.00000421 Ry

     total magnetization       =    -0.06 Bohr mag/cell
     absolute magnetization    =   229.51 Bohr mag/cell

     iteration # 54     ecut=    71.00 Ry     beta= 0.30
     Davidson diagonalization with overlap
     ethr =  2.04E-10,  avg # of iterations =  4.5

     negative rho (up, down):  1.514E-03 1.455E-03

     total cpu time spent up to now is     1199.3 secs

     total energy              =  -42651.90818356 Ry
     estimated scf accuracy    <       0.00000161 Ry

     total magnetization       =    -0.06 Bohr mag/cell
     absolute magnetization    =   229.50 Bohr mag/cell

     iteration # 55     ecut=    71.00 Ry     beta= 0.30
     Davidson diagonalization with overlap
     ethr =  7.78E-11,  avg # of iterations =  3.5

     negative rho (up, down):  1.499E-03 1.440E-03

     total cpu time spent up to now is     1221.3 secs

     total energy              =  -42651.90818404 Ry
     estimated scf accuracy    <       0.00000123 Ry

     total magnetization       =    -0.06 Bohr mag/cell
     absolute magnetization    =   229.50 Bohr mag/cell

     iteration # 56     ecut=    71.00 Ry     beta= 0.30
     Davidson diagonalization with overlap
     ethr =  5.97E-11,  avg # of iterations =  3.0

     negative rho (up, down):  1.507E-03 1.447E-03

     total cpu time spent up to now is     1243.8 secs

     total energy              =  -42651.90818432 Ry
     estimated scf accuracy    <       0.00000087 Ry

     total magnetization       =    -0.06 Bohr mag/cell
     absolute magnetization    =   229.50 Bohr mag/cell

     iteration # 57     ecut=    71.00 Ry     beta= 0.30
     Davidson diagonalization with overlap
     ethr =  4.22E-11,  avg # of iterations =  2.0

     negative rho (up, down):  1.517E-03 1.457E-03

     total cpu time spent up to now is     1265.4 secs

     total energy              =  -42651.90818459 Ry
     estimated scf accuracy    <       0.00000050 Ry

     total magnetization       =    -0.06 Bohr mag/cell
     absolute magnetization    =   229.50 Bohr mag/cell

     iteration # 58     ecut=    71.00 Ry     beta= 0.30
     Davidson diagonalization with overlap
     ethr =  2.42E-11,  avg # of iterations =  2.0

     negative rho (up, down):  1.485E-03 1.425E-03

     total cpu time spent up to now is     1286.6 secs

     total energy              =  -42651.90818438 Ry
     estimated scf accuracy    <       0.00000042 Ry

     total magnetization       =    -0.06 Bohr mag/cell
     absolute magnetization    =   229.50 Bohr mag/cell

     iteration # 59     ecut=    71.00 Ry     beta= 0.30
     Davidson diagonalization with overlap
     ethr =  2.02E-11,  avg # of iterations =  4.0

     negative rho (up, down):  1.492E-03 1.433E-03

     total cpu time spent up to now is     1309.0 secs

     total energy              =  -42651.90818458 Ry
     estimated scf accuracy    <       0.00000019 Ry

     total magnetization       =    -0.06 Bohr mag/cell
     absolute magnetization    =   229.50 Bohr mag/cell

     iteration # 60     ecut=    71.00 Ry     beta= 0.30
     Davidson diagonalization with overlap
     ethr =  9.18E-12,  avg # of iterations =  3.5

     negative rho (up, down):  1.482E-03 1.423E-03

     total cpu time spent up to now is     1331.3 secs

     total energy              =  -42651.90818449 Ry
     estimated scf accuracy    <       0.00000017 Ry

     total magnetization       =    -0.06 Bohr mag/cell
     absolute magnetization    =   229.50 Bohr mag/cell

     iteration # 61     ecut=    71.00 Ry     beta= 0.30
     Davidson diagonalization with overlap
     ethr =  8.39E-12,  avg # of iterations =  4.0

     negative rho (up, down):  1.484E-03 1.424E-03

     total cpu time spent up to now is     1354.1 secs

     total energy              =  -42651.90818456 Ry
     estimated scf accuracy    <       0.00000009 Ry

     total magnetization       =    -0.06 Bohr mag/cell
     absolute magnetization    =   229.51 Bohr mag/cell

     iteration # 62     ecut=    71.00 Ry     beta= 0.30
     Davidson diagonalization with overlap
     ethr =  4.41E-12,  avg # of iterations =  2.0

     negative rho (up, down):  1.503E-03 1.443E-03

     total cpu time spent up to now is     1375.4 secs

     total energy              =  -42651.90818489 Ry
     estimated scf accuracy    <       0.00000008 Ry

     total magnetization       =    -0.06 Bohr mag/cell
     absolute magnetization    =   229.51 Bohr mag/cell

     iteration # 63     ecut=    71.00 Ry     beta= 0.30
     Davidson diagonalization with overlap
     ethr =  4.05E-12,  avg # of iterations =  4.5

     negative rho (up, down):  1.516E-03 1.456E-03

     total cpu time spent up to now is     1399.0 secs

     total energy              =  -42651.90818506 Ry
     estimated scf accuracy    <       0.00000005 Ry

     total magnetization       =    -0.06 Bohr mag/cell
     absolute magnetization    =   229.51 Bohr mag/cell

     iteration # 64     ecut=    71.00 Ry     beta= 0.30
     Davidson diagonalization with overlap
     ethr =  2.59E-12,  avg # of iterations =  4.0

     negative rho (up, down):  1.532E-03 1.472E-03

     total cpu time spent up to now is     1422.9 secs

     total energy              =  -42651.90818518 Ry
     estimated scf accuracy    <       0.00000005 Ry

     total magnetization       =    -0.06 Bohr mag/cell
     absolute magnetization    =   229.51 Bohr mag/cell

     iteration # 65     ecut=    71.00 Ry     beta= 0.30
     Davidson diagonalization with overlap
     ethr =  2.24E-12,  avg # of iterations =  4.5

     negative rho (up, down):  1.539E-03 1.479E-03

     total cpu time spent up to now is     1447.3 secs

     total energy              =  -42651.90818523 Ry
     estimated scf accuracy    <       0.00000003 Ry

     total magnetization       =    -0.06 Bohr mag/cell
     absolute magnetization    =   229.51 Bohr mag/cell

     iteration # 66     ecut=    71.00 Ry     beta= 0.30
     Davidson diagonalization with overlap
     ethr =  1.32E-12,  avg # of iterations =  4.5

     negative rho (up, down):  1.547E-03 1.487E-03

     total cpu time spent up to now is     1470.7 secs

     total energy              =  -42651.90818526 Ry
     estimated scf accuracy    <       0.00000002 Ry

     total magnetization       =    -0.06 Bohr mag/cell
     absolute magnetization    =   229.51 Bohr mag/cell

     iteration # 67     ecut=    71.00 Ry     beta= 0.30
     Davidson diagonalization with overlap
     ethr =  9.87E-13,  avg # of iterations =  5.0

     negative rho (up, down):  1.549E-03 1.489E-03

     total cpu time spent up to now is     1498.1 secs

     total energy              =  -42651.90818528 Ry
     estimated scf accuracy    <       0.00000002 Ry

     total magnetization       =    -0.06 Bohr mag/cell
     absolute magnetization    =   229.51 Bohr mag/cell

     iteration # 68     ecut=    71.00 Ry     beta= 0.30
     Davidson diagonalization with overlap
     ethr =  9.20E-13,  avg # of iterations =  2.0

     negative rho (up, down):  1.547E-03 1.487E-03
 
     Magnetic moment per site:
     atom:    1    charge:   15.5099    magn:   -0.0077    constr:    0.0000
     atom:    2    charge:   14.1546    magn:    2.0055    constr:    0.0000
     atom:    3    charge:   14.1746    magn:   -2.0120    constr:    0.0000
     atom:    4    charge:   14.2056    magn:    1.4113    constr:    0.0000
     atom:    5    charge:   14.2335    magn:   -1.3375    constr:    0.0000
     atom:    6    charge:   14.2297    magn:    0.9377    constr:    0.0000
     atom:    7    charge:   14.2499    magn:   -0.9074    constr:    0.0000
     atom:    8    charge:   14.1001    magn:    2.3144    constr:    0.0000
     atom:    9    charge:   14.1158    magn:   -2.3192    constr:    0.0000
     atom:   10    charge:   14.1086    magn:    2.2287    constr:    0.0000
     atom:   11    charge:   14.1387    magn:   -2.1567    constr:    0.0000
     atom:   12    charge:   14.2262    magn:    1.1241    constr:    0.0000
     atom:   13    charge:   14.2381    magn:   -1.2294    constr:    0.0000
     atom:   14    charge:   14.2244    magn:    0.9683    constr:    0.0000
     atom:   15    charge:   14.2420    magn:   -0.9409    constr:    0.0000
     atom:   16    charge:   14.0986    magn:    2.3161    constr:    0.0000
     atom:   17    charge:   14.1158    magn:   -2.3016    constr:    0.0000
     atom:   18    charge:   14.1108    magn:    2.2173    constr:    0.0000
     atom:   19    charge:   14.1287    magn:   -2.2104    constr:    0.0000
     atom:   20    charge:   14.2179    magn:    1.2119    constr:    0.0000
     atom:   21    charge:   14.2370    magn:   -1.2051    constr:    0.0000
     atom:   22    charge:   14.2173    magn:    1.0386    constr:    0.0000
     atom:   23    charge:   14.2353    magn:   -1.0601    constr:    0.0000
     atom:   24    charge:   14.1026    magn:    2.2816    constr:    0.0000
     atom:   25    charge:   14.1188    magn:   -2.2872    constr:    0.0000
     atom:   26    charge:   14.1210    magn:    2.1514    constr:    0.0000
     atom:   27    charge:   14.1031    magn:   -2.2984    constr:    0.0000
     atom:   28    charge:   14.2150    magn:    1.2654    constr:    0.0000
     atom:   29    charge:   14.2377    magn:   -1.2306    constr:    0.0000
     atom:   30    charge:   14.2217    magn:    0.9465    constr:    0.0000
     atom:   31    charge:   14.2441    magn:   -0.9508    constr:    0.0000
     atom:   32    charge:   14.0996    magn:    2.2940    constr:    0.0000
     atom:   33    charge:   14.1146    magn:   -2.3233    constr:    0.0000
     atom:   34    charge:   14.0768    magn:    2.3541    constr:    0.0000
     atom:   35    charge:   14.1334    magn:   -2.2171    constr:    0.0000
     atom:   36    charge:   14.2189    magn:    0.8195    constr:    0.0000
     atom:   37    charge:   14.2377    magn:   -1.2404    constr:    0.0000
     atom:   38    charge:   14.2272    magn:    1.0743    constr:    0.0000
     atom:   39    charge:   14.2465    magn:   -1.1027    constr:    0.0000
     atom:   40    charge:   14.1093    magn:    2.2240    constr:    0.0000
     atom:   41    charge:   14.1282    magn:   -2.2598    constr:    0.0000
     atom:   42    charge:   14.1113    magn:    2.2300    constr:    0.0000
     atom:   43    charge:   14.1234    magn:   -2.2567    constr:    0.0000
     atom:   44    charge:   14.2213    magn:    1.1078    constr:    0.0000
     atom:   45    charge:   14.2406    magn:   -1.1635    constr:    0.0000
     atom:   46    charge:   14.2278    magn:    1.0032    constr:    0.0000
     atom:   47    charge:   14.2420    magn:   -1.0933    constr:    0.0000
     atom:   48    charge:   14.1130    magn:    2.2315    constr:    0.0000
     atom:   49    charge:   14.1242    magn:   -2.2680    constr:    0.0000
     atom:   50    charge:   14.1100    magn:    2.2403    constr:    0.0000
     atom:   51    charge:   14.1212    magn:   -2.2901    constr:    0.0000
     atom:   52    charge:   14.2246    magn:    0.9785    constr:    0.0000
     atom:   53    charge:   14.2409    magn:   -1.0399    constr:    0.0000
     atom:   54    charge:   14.2191    magn:    1.0759    constr:    0.0000
     atom:   55    charge:   14.2358    magn:   -1.1993    constr:    0.0000
     atom:   56    charge:   14.1146    magn:    2.1982    constr:    0.0000
     atom:   57    charge:   14.1235    magn:   -2.2488    constr:    0.0000
     atom:   58    charge:   14.1064    magn:    2.2585    constr:    0.0000
     atom:   59    charge:   14.1182    magn:   -2.2910    constr:    0.0000
     atom:   60    charge:   14.2220    magn:    0.9422    constr:    0.0000
     atom:   61    charge:   14.2282    magn:   -1.2221    constr:    0.0000
     atom:   62    charge:   14.2146    magn:    1.1930    constr:    0.0000
     atom:   63    charge:   14.2346    magn:   -1.2027    constr:    0.0000
     atom:   64    charge:   14.1124    magn:    2.1963    constr:    0.0000
     atom:   65    charge:   14.1190    magn:   -2.2727    constr:    0.0000
     atom:   66    charge:   14.1007    magn:    2.2996    constr:    0.0000
     atom:   67    charge:   14.1179    magn:   -2.2872    constr:    0.0000
     atom:   68    charge:   14.2197    magn:    1.0536    constr:    0.0000
     atom:   69    charge:   14.2376    magn:   -1.1043    constr:    0.0000
     atom:   70    charge:   14.2150    magn:    1.1936    constr:    0.0000
     atom:   71    charge:   14.2375    magn:   -1.1226    constr:    0.0000
     atom:   72    charge:   14.1138    magn:    2.2054    constr:    0.0000
     atom:   73    charge:   14.1292    magn:   -2.2208    constr:    0.0000
     atom:   74    charge:   14.1043    magn:    2.2691    constr:    0.0000
     atom:   75    charge:   14.1156    magn:   -2.3144    constr:    0.0000
     atom:   76    charge:   14.2172    magn:    1.0726    constr:    0.0000
     atom:   77    charge:   14.2409    magn:   -1.0559    constr:    0.0000
     atom:   78    charge:   14.2199    magn:    1.1524    constr:    0.0000
     atom:   79    charge:   14.2352    magn:   -1.2532    constr:    0.0000
     atom:   80    charge:   14.1070    magn:    2.2316    constr:    0.0000
     atom:   81    charge:   14.1324    magn:   -2.1931    constr:    0.0000
     atom:   82    charge:   14.1022    magn:    2.3039    constr:    0.0000
     atom:   83    charge:   14.1190    magn:   -2.3031    constr:    0.0000
     atom:   84    charge:   14.2270    magn:    0.9040    constr:    0.0000
     atom:   85    charge:   14.2454    magn:   -0.9179    constr:    0.0000
     atom:   86    charge:   14.2154    magn:    1.2947    constr:    0.0000
     atom:   87    charge:   14.2353    magn:   -1.2792    constr:    0.0000
     atom:   88    charge:   14.1208    magn:    2.1429    constr:    0.0000
     atom:   89    charge:   14.1376    magn:   -2.1466    constr:    0.0000
     atom:   90    charge:   14.0975    magn:    2.3203    constr:    0.0000
     atom:   91    charge:   14.1216    magn:   -2.2661    constr:    0.0000
     atom:   92    charge:   14.2217    magn:    1.0543    constr:    0.0000
     atom:   93    charge:   14.2355    magn:   -1.0791    constr:    0.0000
     atom:   94    charge:   14.2156    magn:    1.2578    constr:    0.0000
     atom:   95    charge:   14.2395    magn:   -1.1325    constr:    0.0000
     atom:   96    charge:   14.1158    magn:    2.1867    constr:    0.0000
     atom:   97    charge:   14.1232    magn:   -2.2336    constr:    0.0000
     atom:   98    charge:   14.1140    magn:    2.2307    constr:    0.0000
     atom:   99    charge:   14.1195    magn:   -2.2666    constr:    0.0000
     atom:  100    charge:   14.2248    magn:    1.2147    constr:    0.0000
     atom:  101    charge:   14.2400    magn:   -1.0226    constr:    0.0000
     atom:  102    charge:   14.2279    magn:    1.1354    constr:    0.0000
     atom:  103    charge:   14.2485    magn:   -1.0223    constr:    0.0000
     atom:  104    charge:   14.1118    magn:    2.2548    constr:    0.0000
     atom:  105    charge:   14.1248    magn:   -2.2414    constr:    0.0000
     atom:  106    charge:   14.1034    magn:    2.2763    constr:    0.0000
     atom:  107    charge:   14.1263    magn:   -2.2395    constr:    0.0000
     atom:  108    charge:   14.2188    magn:    1.1421    constr:    0.0000
     atom:  109    charge:   14.2415    magn:   -0.9682    constr:    0.0000
     atom:  110    charge:   14.2172    magn:    1.1943    constr:    0.0000
     atom:  111    charge:   14.2350    magn:   -1.1683    constr:    0.0000
     atom:  112    charge:   14.1031    magn:    2.2682    constr:    0.0000
     atom:  113    charge:   14.1284    magn:   -2.2098    constr:    0.0000
     atom:  114    charge:   14.1045    magn:    2.2892    constr:    0.0000
     atom:  115    charge:   14.1278    magn:   -2.2305    constr:    0.0000
     atom:  116    charge:   14.2213    magn:    1.0616    constr:    0.0000
     atom:  117    charge:   14.2430    magn:   -1.0093    constr:    0.0000
     atom:  118    charge:   14.2170    magn:    1.1953    constr:    0.0000
     atom:  119    charge:   14.2387    magn:   -1.0539    constr:    0.0000
     atom:  120    charge:   14.1067    magn:    2.2489    constr:    0.0000
     atom:  121    charge:   14.1308    magn:   -2.2062    constr:    0.0000
     atom:  122    charge:   14.1061    magn:    2.2583    constr:    0.0000
     atom:  123    charge:   14.1296    magn:   -2.2188    constr:    0.0000
     atom:  124    charge:   14.2214    magn:    1.1644    constr:    0.0000
     atom:  125    charge:   14.2398    magn:   -1.1190    constr:    0.0000
     atom:  126    charge:   14.2229    magn:    1.0942    constr:    0.0000
     atom:  127    charge:   14.2470    magn:   -0.9630    constr:    0.0000
     atom:  128    charge:   14.1077    magn:    2.2636    constr:    0.0000
     atom:  129    charge:   14.1288    magn:   -2.2434    constr:    0.0000

     total cpu time spent up to now is     1519.0 secs

     End of self-consistent calculation

 ------ SPIN UP ------------


          k = 0.0000 0.0000 0.0000 ( 91909 PWs)   bands (ev):

   -80.3677 -80.3024 -80.3001 -80.2978 -80.2943 -80.2936 -80.2828 -80.2817
   -80.2760 -80.2652 -80.2639 -80.2621 -80.2616 -80.2592 -80.2585 -80.2561
   -80.2544 -80.2517 -80.2493 -80.2432 -80.2389 -80.2340 -80.2320 -80.2306
   -80.2211 -80.2101 -80.2084 -80.2065 -80.2025 -80.1818 -80.1771 -80.1697
   -79.7699 -79.6935 -79.6695 -79.6648 -79.6362 -79.6324 -79.6253 -79.6235
   -79.6224 -79.6163 -79.6090 -79.5972 -79.5853 -79.5847 -79.5800 -79.5644
   -79.5554 -79.5448 -79.5418 -79.5360 -79.5331 -79.5266 -79.5205 -79.5093
   -79.4940 -79.4763 -79.4694 -79.4513 -79.4509 -79.4505 -79.4265 -79.3700
   -78.3876 -78.3824 -78.3694 -78.3646 -78.3619 -78.3586 -78.3431 -78.3414
   -78.3277 -78.3261 -78.3142 -78.3129 -78.3052 -78.3050 -78.3043 -78.2939
   -78.2903 -78.2887 -78.2751 -78.2686 -78.2632 -78.2587 -78.2436 -78.2414
   -78.2406 -78.2371 -78.2294 -78.2226 -78.2205 -78.2149 -78.2071 -78.1845
   -77.8618 -77.7079 -77.7067 -77.6984 -77.6881 -77.6854 -77.6825 -77.6781
   -77.6768 -77.6754 -77.6725 -77.6724 -77.6721 -77.6685 -77.6667 -77.6664
   -77.6653 -77.6652 -77.6650 -77.6587 -77.6573 -77.6559 -77.6554 -77.6510
   -77.6495 -77.6487 -77.6446 -77.6438 -77.6427 -77.6391 -77.6364 -77.6361
   -75.4981 -46.5154 -46.4602 -46.4576 -46.4545 -46.4501 -46.4443 -46.4415
   -46.4361 -46.4302 -46.4273 -46.4209 -46.4193 -46.4187 -46.4182 -46.4180
   -46.4169 -46.4134 -46.4130 -46.4078 -46.4040 -46.4022 -46.3978 -46.3953
   -46.3890 -46.3877 -46.3774 -46.3699 -46.3671 -46.3641 -46.3641 -46.3631
   -46.3606 -46.3598 -46.3559 -46.3545 -46.3500 -46.3495 -46.3464 -46.3423
   -46.3419 -46.3415 -46.3308 -46.3306 -46.3292 -46.3286 -46.3276 -46.3251
   -46.3229 -46.3211 -46.3187 -46.3152 -46.3146 -46.3077 -46.3069 -46.2964
   -46.2955 -46.2919 -46.2834 -46.2781 -46.2743 -46.2725 -46.2724 -46.2712
   -46.2692 -46.2673 -46.2672 -46.2671 -46.2563 -46.2528 -46.2464 -46.2458
   -46.2400 -46.2384 -46.2373 -46.2365 -46.2362 -46.2335 -46.2312 -46.2285
   -46.2254 -46.2249 -46.2239 -46.2206 -46.2158 -46.2156 -46.2135 -46.2097
   -46.2075 -46.2038 -46.1921 -46.1893 -46.1872 -46.1824 -46.1660 -46.1647
   -46.1560 -45.8621 -45.8489 -45.8059 -45.7826 -45.7794 -45.7655 -45.7617
   -45.7520 -45.7492 -45.7437 -45.7413 -45.7368 -45.7346 -45.7338 -45.7272
   -45.7263 -45.7249 -45.7240 -45.7208 -45.7179 -45.7163 -45.7043 -45.7027
   -45.7008 -45.6976 -45.6968 -45.6949 -45.6945 -45.6929 -45.6913 -45.6897
   -45.6867 -45.6854 -45.6821 -45.6812 -45.6738 -45.6727 -45.6705 -45.6634
   -45.6624 -45.6621 -45.6564 -45.6544 -45.6529 -45.6483 -45.6409 -45.6367
   -45.6264 -45.6188 -45.6076 -45.6064 -45.6051 -45.5969 -45.5937 -45.5873
   -45.5840 -45.5789 -45.5786 -45.5757 -45.5694 -45.5685 -45.5679 -45.5673
   -45.5601 -45.5520 -45.5518 -45.5488 -45.5439 -45.5319 -45.5306 -45.5295
   -45.5271 -45.5234 -45.5222 -45.5218 -45.5214 -45.5194 -45.5185 -45.5175
   -45.5072 -45.5058 -45.5051 -45.5027 -45.4996 -45.4967 -45.4882 -45.4763
   -45.4759 -45.4679 -45.4631 -45.4600 -45.4596 -45.4546 -45.4410 -45.4143
   -45.3934 -44.5100 -44.5060 -44.5056 -44.5044 -44.4961 -44.4924 -44.4899
   -44.4869 -44.4862 -44.4850 -44.4819 -44.4814 -44.4795 -44.4782 -44.4758
   -44.4719 -44.4706 -44.4685 -44.4653 -44.4631 -44.4601 -44.4584 -44.4575
   -44.4566 -44.4549 -44.4545 -44.4519 -44.4512 -44.4482 -44.4474 -44.4445
   -44.4441 -44.4428 -44.4402 -44.4394 -44.4339 -44.4276 -44.4267 -44.4249
   -44.4245 -44.4211 -44.4191 -44.4182 -44.4156 -44.4104 -44.4103 -44.4097
   -44.4024 -44.3986 -44.3911 -44.3884 -44.3858 -44.3788 -44.3664 -44.3536
   -44.3531 -44.3502 -44.3479 -44.3413 -44.3382 -44.3306 -44.3296 -44.3266
   -44.3258 -44.3253 -44.3246 -44.3236 -44.3215 -44.3158 -44.3110 -44.3090
   -44.3055 -44.3032 -44.3024 -44.3005 -44.2978 -44.2956 -44.2918 -44.2910
   -44.2886 -44.2877 -44.2865 -44.2835 -44.2808 -44.2802 -44.2793 -44.2777
   -44.2772 -44.2747 -44.2743 -44.2616 -44.2615 -44.2595 -44.2573 -44.2464
   -44.2435 -44.0395 -43.9255 -43.8866 -43.8855 -43.8720 -43.8694 -43.8623
   -43.8525 -43.8506 -43.8498 -43.8483 -43.8452 -43.8421 -43.8416 -43.8394
   -43.8387 -43.8350 -43.8332 -43.8324 -43.8320 -43.8311 -43.8243 -43.8215
   -43.8212 -43.8200 -43.8134 -43.8124 -43.8086 -43.8070 -43.8058 -43.8046
   -43.7972 -43.7970 -43.7943 -43.7943 -43.7914 -43.7864 -43.7851 -43.7748
   -43.7725 -43.7660 -43.7642 -43.7615 -43.7610 -43.7597 -43.7589 -43.7564
   -43.7555 -43.7535 -43.7533 -43.7523 -43.7494 -43.7470 -43.7454 -43.7445
   -43.7438 -43.7423 -43.7421 -43.7385 -43.7360 -43.7357 -43.7319 -43.7292
   -43.7269 -43.7247 -43.7162 -43.7155 -43.7150 -43.7044 -43.7011 -43.7007
   -43.7000 -43.6989 -43.6983 -43.6982 -43.6968 -43.6961 -43.6953 -43.6940
   -43.6931 -43.6913 -43.6908 -43.6898 -43.6885 -43.6864 -43.6847 -43.6843
   -43.6836 -43.6812 -43.6795 -43.6772 -43.6758 -43.6754 -43.6752 -43.6730
   -43.6726 -41.4293 -41.2346 -41.1000  -0.2065   0.5603   0.5673   0.6430
     0.6454   1.3210   1.3248   1.3283   1.3295   1.4586   2.1422   2.1665
     2.2263   2.2386   2.3736   2.5615   2.6800   2.6828   2.6965   2.7142
     2.7190   2.7231   2.9095   2.9125   2.9758   2.9775   3.0510   3.0512
     3.0539   3.0552   3.0841   3.0976   3.3298   3.3333   3.4314   3.4564
     3.4818   3.5065   3.5117   3.5189   3.5267   3.5301   3.5369   3.5731
     3.5787   3.6216   3.6658   3.6701   3.6753   3.6775   3.6881   3.6917
     3.7119   3.7224   3.7267   3.7383   3.7511   3.7584   3.7953   3.8028
     3.8104   3.8146   3.8502   3.8675   3.8723   3.8792   3.9018   3.9085
     3.9135   3.9823   3.9883   3.9938   3.9941   4.0002   4.0049   4.0066
     4.0090   4.0200   4.0364   4.0616   4.0677   4.0820   4.1089   4.1797
     4.2115   4.2159   4.2339   4.2512   4.2542   4.2598   4.2705   4.2722
     4.2731   4.2750   4.2796   4.2897   4.3233   4.3314   4.3393   4.3433
     4.3559   4.3571   4.3620   4.3685   4.3750   4.3807   4.3856   4.3886
     4.3892   4.3924   4.4044   4.4126   4.4170   4.4218   4.4234   4.4295
     4.4371   4.4393   4.4444   4.4507   4.4556   4.4586   4.4646   4.4664
     4.4703   4.4737   4.4776   4.4942   4.5071   4.5214   4.5226   4.5559
     4.5752   4.5793   4.5816   4.5844   4.5929   4.6137   4.6191   4.6229
     4.6250   4.6311   4.6688   4.6728   4.7031   4.7110   4.7218   4.7333
     4.7567   4.7624   4.7697   4.7723   4.7784   4.7832   4.7914   4.7939
     4.7995   4.8060   4.8108   4.8166   4.8259   4.8264   4.8386   4.8463
     4.8492   4.8581   4.8609   4.8719   4.8741   4.8855   4.8881   4.8950
     4.9022   4.9083   4.9088   4.9133   4.9201   4.9305   4.9340   4.9440
     4.9912   4.9941   4.9990   5.0054   5.0080   5.0109   5.0211   5.0329
     5.0443   5.0582   5.0615   5.1159   5.1336   5.1622   5.1659   5.1741
     5.1821   5.2082   5.2097   5.2138   5.2394   5.2504   5.2606   5.3041
     5.3241   5.3697   5.3842   5.3885   5.3972   5.4210   5.4265   5.4354
     5.4411   5.4496   5.4555   5.4573   5.4695   5.4771   5.4848   5.4989
     5.5060   5.5126   5.5387   5.5536   5.5560   5.5646   5.5759   5.5823
     5.5892   5.6082   5.6181   5.6204   5.6219   5.6326   5.6520   5.6582
     5.6689   5.6746   5.6812   5.6845   5.6861   5.6903   5.6945   5.7003
     5.7054   5.7099   5.7120   5.7141   5.7188   5.7206   5.7251   5.7283
     5.7343   5.7367   5.7387   5.7714   5.7757   5.7943   5.8321   5.8401
     5.8550   5.8560   5.8703   5.8739   5.8838   5.8906   5.8942   5.9050
     5.9071   5.9164   5.9171   5.9255   5.9420   5.9588   5.9608   5.9812
     5.9897   5.9941   6.0029   6.0212   6.0655   6.0712   6.0997   6.1053
     6.1110   6.1622   6.1924   6.2051   6.2103   6.2135   6.2302   6.2345
     6.2511   6.2546   6.2575   6.2619   6.2648   6.2746   6.2774   6.2797
     6.2868   6.2880   6.2929   6.2958   6.2990   6.3001   6.3013   6.3061
     6.3077   6.3089   6.3119   6.3173   6.3216   6.3278   6.3298   6.3323
     6.3687   6.3855   6.3956   6.4035   6.4144   6.4212   6.4433   6.4733
     6.5012   6.5083   6.5134   6.5166   6.5240   6.5267   6.5311   6.5363
     6.5400   6.5470   6.5476   6.5523   6.5590   6.5594   6.5634   6.5660
     6.5696   6.5741   6.5915   6.5959   6.5989   6.6029   6.6046   6.6069
     6.6096   6.6119   6.6139   6.6204   6.6236   6.6281   6.6308   6.6359
     6.6380   6.6472   6.6565   6.6596   6.6694   6.6756   6.6775   6.7018
     6.7138   6.7259   6.7269   6.7321   6.7418   6.7431   6.7502   6.7519
     6.7628   6.7729   6.7863   6.7959   6.8018   6.8074   6.8120   6.8170
     6.8230   6.8299   6.8393   6.8443   6.8535   6.8612   6.8741   6.8797
     6.8801   6.8838   6.8878   6.8959   6.8976   6.9046   6.9073   6.9129
     6.9241   6.9488   6.9624   6.9707   6.9758   6.9812   6.9868   6.9921
     6.9992   7.0014   7.0100   7.0252   7.0283   7.0423   7.0444   7.0503
     7.0629   7.0752   7.0792   7.0975   7.1067   7.1121   7.1387   7.1454
     7.1534   7.1673   7.1757   7.1852   7.1917   7.2044   7.2118   7.2144
     7.2205   7.2322   7.2397   7.2417   7.2515   7.2588   7.2641   7.2726
     7.2746   7.2873   7.2907   7.2988   7.3615   7.3713   7.3838   7.3940
     7.4329   7.4723   7.4815   7.5056   7.5084   7.5139   7.5173   7.5287
     7.5346   7.5368   7.5438   7.5527   7.5643   7.5672   7.5720   7.5770
     7.5796   7.5865   7.6020   7.6155   7.6355   7.6407   7.6425   7.6544
     7.6584   7.6727   7.7189   7.7235   7.7290   7.7392   7.7480   7.7570
     7.7735   7.7754   7.7840   7.7923   7.8019   7.8042   7.8116   7.8232
     7.8384   7.8438   7.8884   7.9005   7.9092   7.9151   7.9325   7.9405
     7.9440   7.9615   7.9654   7.9675   7.9775   7.9830   7.9855   7.9995
     8.0045   8.0136   8.0372   8.0483   8.0570   8.0616   8.0625   8.0736
     8.0801   8.0898   8.1123   8.1283   8.1352   8.1424   8.1452   8.1589
     8.1763   8.1797   8.1842   8.1884   8.2002   8.2036   8.2065   8.2106
     8.2258   8.2680   8.2835   8.2923   8.2938   8.2958   8.3092   8.3106
     8.3438   8.3463   8.3501   8.3786   8.3891   8.4248   8.4371   8.4395
     8.4505   8.4643   8.4689   8.4748   8.4801   8.4908   8.5084   8.5238
     8.5513   8.5916   8.5974   8.6121   8.6587   8.6739   8.6823   8.6863
     8.6936   8.7030   8.7054   8.7172   8.7618   8.7754   8.7782   8.7805
     8.7829   8.7844   8.7873   8.7878   8.7906   8.7949   8.7954   8.7985
     8.8046   8.8105   8.8129   8.8135   8.8171   8.8204   8.8215   8.8237
     8.8282   8.8294   8.8300   8.8322   8.8373   8.8392   8.8410   8.8451
     8.8493   8.8515   8.8521   8.8567   8.8623   8.8672   8.8680   8.8692
     8.8728   8.8746   8.8879   8.8972   8.9041   8.9095   8.9147   8.9188
     8.9281   8.9330   8.9348   8.9391   8.9581   8.9752   8.9763   8.9796
     8.9822   8.9843   8.9876   8.9944   9.0052   9.0145   9.0183   9.0190
     9.0242   9.0557   9.0571   9.0592   9.0638   9.0658   9.0703   9.0723
     9.0749   9.0758   9.0775   9.0789   9.0866   9.1235   9.1303   9.1509
     9.1590   9.1624   9.1755   9.1766   9.1786   9.1795   9.1816   9.1849
     9.1870   9.1944   9.1963   9.1999   9.2036   9.2170   9.2285   9.2352
     9.2509   9.2527   9.2577   9.2583   9.2639   9.2685   9.2700   9.2710
     9.2748   9.2812   9.2847   9.2868   9.2899   9.3043   9.3107   9.3250
     9.3314   9.3393   9.3574   9.3663   9.3715   9.3780   9.3890   9.3928
     9.4012   9.4038   9.4058   9.4076   9.4101   9.4148   9.4212   9.4242
     9.4265   9.4308   9.4444   9.4532   9.4580   9.4781   9.4898   9.5079
     9.5284   9.5425   9.5618   9.5835   9.5942   9.6042   9.6308   9.6350
     9.6426   9.7447   9.7618   9.8947   9.9878  10.0622  10.3077  10.3116
    10.4233  10.4468  10.4848  10.5182  10.5243  10.5473  10.5509  10.5630
    10.5781  10.6402  10.6424  10.6516  10.7160  10.7437  10.7512  10.7930

 ------ SPIN DOWN ----------


          k = 0.0000 0.0000 0.0000 ( 91909 PWs)   bands (ev):

   -80.3084 -80.3060 -80.3038 -80.2950 -80.2896 -80.2878 -80.2806 -80.2781
   -80.2765 -80.2759 -80.2755 -80.2668 -80.2637 -80.2624 -80.2577 -80.2483
   -80.2474 -80.2462 -80.2457 -80.2437 -80.2371 -80.2345 -80.2332 -80.2299
   -80.2254 -80.2157 -80.2151 -80.2142 -80.2060 -80.1815 -80.1789 -80.1717
   -79.7262 -79.6818 -79.6602 -79.6558 -79.6535 -79.6512 -79.6396 -79.6323
   -79.6235 -79.6211 -79.6073 -79.5997 -79.5870 -79.5788 -79.5682 -79.5673
   -79.5537 -79.5522 -79.5386 -79.5304 -79.5274 -79.5214 -79.5169 -79.5125
   -79.4995 -79.4949 -79.4682 -79.4667 -79.4542 -79.4478 -79.4354 -79.4292
   -78.4324 -78.3887 -78.3725 -78.3704 -78.3648 -78.3597 -78.3542 -78.3440
   -78.3254 -78.3197 -78.3138 -78.3078 -78.3074 -78.3047 -78.3031 -78.2936
   -78.2921 -78.2821 -78.2784 -78.2725 -78.2627 -78.2610 -78.2470 -78.2449
   -78.2433 -78.2411 -78.2352 -78.2286 -78.2131 -78.2057 -78.1996 -78.1416
   -77.8663 -77.7116 -77.7078 -77.6962 -77.6948 -77.6895 -77.6837 -77.6825
   -77.6757 -77.6753 -77.6734 -77.6728 -77.6679 -77.6671 -77.6670 -77.6658
   -77.6646 -77.6590 -77.6582 -77.6572 -77.6570 -77.6544 -77.6540 -77.6530
   -77.6510 -77.6483 -77.6472 -77.6451 -77.6449 -77.6362 -77.6360 -77.6338
   -75.5050 -46.4632 -46.4604 -46.4542 -46.4523 -46.4464 -46.4413 -46.4411
   -46.4383 -46.4380 -46.4319 -46.4269 -46.4231 -46.4213 -46.4194 -46.4131
   -46.4102 -46.4070 -46.4041 -46.4015 -46.4011 -46.3998 -46.3949 -46.3925
   -46.3911 -46.3880 -46.3857 -46.3727 -46.3716 -46.3700 -46.3667 -46.3649
   -46.3637 -46.3576 -46.3537 -46.3511 -46.3439 -46.3438 -46.3421 -46.3420
   -46.3397 -46.3393 -46.3324 -46.3323 -46.3270 -46.3260 -46.3237 -46.3237
   -46.3169 -46.3141 -46.3105 -46.3063 -46.3037 -46.3004 -46.2994 -46.2978
   -46.2977 -46.2860 -46.2837 -46.2813 -46.2776 -46.2772 -46.2749 -46.2709
   -46.2659 -46.2634 -46.2606 -46.2578 -46.2551 -46.2546 -46.2484 -46.2482
   -46.2460 -46.2419 -46.2416 -46.2407 -46.2397 -46.2391 -46.2387 -46.2306
   -46.2247 -46.2229 -46.2224 -46.2218 -46.2189 -46.2134 -46.2116 -46.2095
   -46.2056 -46.2027 -46.1979 -46.1970 -46.1945 -46.1861 -46.1684 -46.1660
   -46.1577 -45.8136 -45.8037 -45.7742 -45.7726 -45.7660 -45.7650 -45.7614
   -45.7580 -45.7526 -45.7505 -45.7397 -45.7346 -45.7307 -45.7301 -45.7256
   -45.7246 -45.7241 -45.7238 -45.7233 -45.7216 -45.7206 -45.7191 -45.7180
   -45.7154 -45.7131 -45.7063 -45.7018 -45.6993 -45.6971 -45.6945 -45.6912
   -45.6903 -45.6881 -45.6871 -45.6844 -45.6828 -45.6731 -45.6670 -45.6652
   -45.6635 -45.6610 -45.6552 -45.6527 -45.6510 -45.6454 -45.6441 -45.6322
   -45.6295 -45.6169 -45.6134 -45.6011 -45.5989 -45.5931 -45.5912 -45.5892
   -45.5803 -45.5800 -45.5758 -45.5745 -45.5727 -45.5686 -45.5666 -45.5606
   -45.5585 -45.5539 -45.5507 -45.5494 -45.5485 -45.5432 -45.5315 -45.5288
   -45.5279 -45.5272 -45.5237 -45.5234 -45.5232 -45.5206 -45.5203 -45.5174
   -45.5160 -45.5112 -45.5092 -45.5080 -45.5068 -45.5010 -45.4973 -45.4863
   -45.4858 -45.4848 -45.4767 -45.4747 -45.4736 -45.4613 -45.4586 -45.4476
   -45.4423 -44.5520 -44.5391 -44.5115 -44.5110 -44.5099 -44.4979 -44.4943
   -44.4934 -44.4918 -44.4883 -44.4873 -44.4869 -44.4863 -44.4808 -44.4752
   -44.4736 -44.4726 -44.4719 -44.4691 -44.4643 -44.4639 -44.4606 -44.4604
   -44.4592 -44.4581 -44.4570 -44.4551 -44.4497 -44.4472 -44.4458 -44.4410
   -44.4377 -44.4365 -44.4338 -44.4309 -44.4290 -44.4269 -44.4261 -44.4254
   -44.4245 -44.4240 -44.4222 -44.4181 -44.4165 -44.4130 -44.4110 -44.4094
   -44.4029 -44.3963 -44.3944 -44.3923 -44.3825 -44.3787 -44.3784 -44.3573
   -44.3545 -44.3543 -44.3520 -44.3467 -44.3454 -44.3390 -44.3308 -44.3283
   -44.3264 -44.3237 -44.3213 -44.3205 -44.3192 -44.3147 -44.3134 -44.3100
   -44.3097 -44.3077 -44.3072 -44.3031 -44.3000 -44.2930 -44.2927 -44.2924
   -44.2900 -44.2842 -44.2829 -44.2815 -44.2809 -44.2801 -44.2753 -44.2746
   -44.2735 -44.2716 -44.2679 -44.2603 -44.2558 -44.2489 -44.2453 -44.2177
   -44.2008 -44.0204 -43.9612 -43.8924 -43.8867 -43.8714 -43.8677 -43.8637
   -43.8604 -43.8552 -43.8543 -43.8457 -43.8453 -43.8452 -43.8402 -43.8376
   -43.8355 -43.8352 -43.8307 -43.8302 -43.8261 -43.8242 -43.8217 -43.8194
   -43.8192 -43.8150 -43.8141 -43.8115 -43.8107 -43.8084 -43.8077 -43.8063
   -43.7955 -43.7946 -43.7943 -43.7940 -43.7934 -43.7854 -43.7767 -43.7764
   -43.7735 -43.7733 -43.7682 -43.7626 -43.7596 -43.7572 -43.7569 -43.7567
   -43.7552 -43.7534 -43.7531 -43.7522 -43.7505 -43.7472 -43.7462 -43.7456
   -43.7445 -43.7428 -43.7416 -43.7381 -43.7367 -43.7365 -43.7351 -43.7268
   -43.7256 -43.7220 -43.7195 -43.7194 -43.7153 -43.7149 -43.7051 -43.7007
   -43.6991 -43.6984 -43.6956 -43.6949 -43.6947 -43.6939 -43.6915 -43.6902
   -43.6901 -43.6895 -43.6890 -43.6888 -43.6858 -43.6846 -43.6840 -43.6838
   -43.6837 -43.6820 -43.6817 -43.6787 -43.6766 -43.6756 -43.6735 -43.6728
   -43.6720 -41.4420 -41.2391 -41.1040  -0.2065   0.5604   0.5674   0.6433
     0.6449   1.3217   1.3242   1.3279   1.3298   1.4586   2.1426   2.1666
     2.2259   2.2384   2.3747   2.5603   2.6790   2.6825   2.6972   2.7140
     2.7190   2.7228   2.9100   2.9136   2.9750   2.9771   3.0505   3.0519
     3.0538   3.0544   3.0858   3.0977   3.3297   3.3329   3.4451   3.4580
     3.4817   3.5019   3.5074   3.5176   3.5259   3.5277   3.5357   3.5739
     3.5782   3.6365   3.6652   3.6738   3.6751   3.6779   3.6865   3.6907
     3.7036   3.7206   3.7223   3.7392   3.7523   3.7591   3.7967   3.8021
     3.8094   3.8159   3.8439   3.8628   3.8719   3.8785   3.9004   3.9108
     3.9130   3.9814   3.9869   3.9895   3.9961   4.0010   4.0021   4.0069
     4.0111   4.0230   4.0370   4.0611   4.0698   4.0769   4.1076   4.1746
     4.2047   4.2195   4.2341   4.2484   4.2547   4.2587   4.2619   4.2686
     4.2714   4.2767   4.2798   4.2865   4.3234   4.3288   4.3428   4.3470
     4.3557   4.3596   4.3618   4.3682   4.3725   4.3797   4.3822   4.3860
     4.3905   4.3922   4.4043   4.4113   4.4179   4.4201   4.4243   4.4310
     4.4377   4.4391   4.4487   4.4499   4.4524   4.4565   4.4647   4.4669
     4.4690   4.4741   4.4760   4.4982   4.5043   4.5153   4.5202   4.5556
     4.5762   4.5785   4.5809   4.5832   4.5878   4.6162   4.6220   4.6236
     4.6240   4.6302   4.6704   4.6759   4.7032   4.7119   4.7167   4.7294
     4.7557   4.7629   4.7655   4.7714   4.7837   4.7859   4.7897   4.7908
     4.8016   4.8049   4.8113   4.8189   4.8232   4.8261   4.8340   4.8433
     4.8522   4.8565   4.8583   4.8676   4.8793   4.8853   4.8885   4.8965
     4.9025   4.9051   4.9080   4.9128   4.9190   4.9334   4.9371   4.9452
     4.9913   4.9980   5.0010   5.0058   5.0074   5.0106   5.0250   5.0365
     5.0438   5.0590   5.0619   5.1196   5.1349   5.1532   5.1631   5.1744
     5.1792   5.2059   5.2099   5.2116   5.2369   5.2455   5.2601   5.3059
     5.3204   5.3538   5.3797   5.3902   5.3958   5.4153   5.4256   5.4346
     5.4392   5.4485   5.4542   5.4579   5.4629   5.4772   5.4901   5.4987
     5.5031   5.5146   5.5425   5.5507   5.5528   5.5627   5.5775   5.5857
     5.5956   5.6109   5.6195   5.6212   5.6265   5.6334   5.6515   5.6568
     5.6649   5.6700   5.6772   5.6834   5.6869   5.6915   5.6987   5.6991
     5.7036   5.7098   5.7135   5.7155   5.7195   5.7233   5.7238   5.7282
     5.7317   5.7361   5.7381   5.7715   5.7754   5.7916   5.8229   5.8540
     5.8551   5.8602   5.8669   5.8780   5.8848   5.8875   5.8991   5.9023
     5.9067   5.9168   5.9187   5.9249   5.9463   5.9618   5.9636   5.9860
     5.9883   5.9948   6.0052   6.0383   6.0609   6.0745   6.0817   6.0918
     6.1269   6.1674   6.1936   6.2036   6.2107   6.2239   6.2272   6.2327
     6.2495   6.2497   6.2572   6.2613   6.2707   6.2711   6.2769   6.2802
     6.2851   6.2886   6.2937   6.2957   6.2981   6.3008   6.3033   6.3051
     6.3071   6.3093   6.3121   6.3154   6.3172   6.3246   6.3276   6.3299
     6.3606   6.3854   6.3953   6.3994   6.4062   6.4141   6.4442   6.4529
     6.5007   6.5047   6.5122   6.5200   6.5241   6.5274   6.5291   6.5351
     6.5428   6.5477   6.5498   6.5534   6.5573   6.5602   6.5609   6.5656
     6.5669   6.5797   6.5889   6.5962   6.5982   6.6011   6.6050   6.6067
     6.6073   6.6114   6.6163   6.6171   6.6246   6.6290   6.6318   6.6352
     6.6386   6.6442   6.6533   6.6574   6.6669   6.6796   6.6848   6.6962
     6.7171   6.7256   6.7293   6.7360   6.7374   6.7506   6.7540   6.7592
     6.7669   6.7738   6.7884   6.7917   6.8016   6.8051   6.8123   6.8174
     6.8268   6.8329   6.8402   6.8429   6.8565   6.8656   6.8772   6.8803
     6.8821   6.8846   6.8878   6.8927   6.8993   6.9020   6.9049   6.9207
[...]
     atom   32 type  1   force =    -0.00005144   -0.00015071    0.00014554
     atom   33 type  2   force =     0.00000276   -0.00010024    0.00024894
     atom   34 type  1   force =    -0.00016125   -0.00005475    0.00022482
     atom   35 type  2   force =     0.00015589    0.00017279   -0.00023549
     atom   36 type  1   force =     0.00021052   -0.00013900    0.00042052
     atom   37 type  2   force =    -0.00033006    0.00043026    0.00002539
     atom   38 type  1   force =     0.00069521   -0.00016901   -0.00003459
     atom   39 type  2   force =     0.00012371   -0.00034471    0.00036639
     atom   40 type  1   force =    -0.00023195   -0.00012611   -0.00004947
     atom   41 type  2   force =    -0.00007586   -0.00009915   -0.00004622
     atom   42 type  1   force =     0.00033404    0.00011757    0.00035774
     atom   43 type  2   force =     0.00037658   -0.00022564    0.00012161
     atom   44 type  1   force =    -0.00058197    0.00031594    0.00042542
     atom   45 type  2   force =     0.00018722   -0.00018788   -0.00023110
     atom   46 type  1   force =     0.00030187    0.00018610   -0.00018317
     atom   47 type  2   force =     0.00029350    0.00032094    0.00010371
     atom   48 type  1   force =     0.00007663    0.00011775    0.00021627
     atom   49 type  2   force =    -0.00011434    0.00002546    0.00017472
     atom   50 type  1   force =     0.00011702   -0.00021339   -0.00010651
     atom   51 type  2   force =    -0.00003113    0.00016295   -0.00036022
     atom   52 type  1   force =     0.00020766   -0.00035571   -0.00011307
     atom   53 type  2   force =    -0.00032751   -0.00012732   -0.00018032
     atom   54 type  1   force =    -0.00029214   -0.00020430    0.00009463
     atom   55 type  2   force =    -0.00027387   -0.00023685    0.00028027
     atom   56 type  1   force =    -0.00031442    0.00034247    0.00008594
     atom   57 type  2   force =    -0.00028848   -0.00037005    0.00007977
     atom   58 type  1   force =     0.00006041   -0.00017573    0.00018242
     atom   59 type  2   force =     0.00023705    0.00002670    0.00052233
     atom   60 type  1   force =    -0.00035776    0.00033547    0.00045964
     atom   61 type  2   force =    -0.00015804   -0.00038464   -0.00043152
     atom   62 type  1   force =    -0.00007663    0.00018791   -0.00025358
     atom   63 type  2   force =    -0.00019089    0.00008686   -0.00000011
     atom   64 type  1   force =    -0.00031994   -0.00007217    0.00022685
     atom   65 type  2   force =    -0.00047359    0.00018182   -0.00001109
     atom   66 type  1   force =    -0.00002460    0.00029461   -0.00006660
     atom   67 type  2   force =     0.00009838   -0.00036324   -0.00017667
     atom   68 type  1   force =     0.00013027   -0.00012439   -0.00003313
     atom   69 type  2   force =     0.00015059   -0.00006997   -0.00004472
     atom   70 type  1   force =    -0.00007613   -0.00012040   -0.00007252
     atom   71 type  2   force =     0.00004672    0.00013915   -0.00021390
     atom   72 type  1   force =     0.00019055   -0.00019478    0.00039975
     atom   73 type  2   force =     0.00005745   -0.00006440    0.00047088
     atom   74 type  1   force =     0.00018188   -0.00028860   -0.00022342
     atom   75 type  2   force =    -0.00005849   -0.00031293    0.00007150
     atom   76 type  1   force =     0.00019415   -0.00017429    0.00036821
     atom   77 type  2   force =    -0.00028943    0.00037717    0.00054832
     atom   78 type  1   force =     0.00030174   -0.00007768    0.00046698
     atom   79 type  2   force =     0.00000356   -0.00021273    0.00031905
     atom   80 type  1   force =     0.00006762    0.00032798    0.00015581
     atom   81 type  2   force =     0.00031060    0.00040654    0.00022872
     atom   82 type  1   force =     0.00028950   -0.00005093   -0.00004889
     atom   83 type  2   force =    -0.00034071   -0.00021415    0.00003002
     atom   84 type  1   force =    -0.00035799    0.00008536    0.00009582
     atom   85 type  2   force =     0.00027628   -0.00029055    0.00010305
     atom   86 type  1   force =    -0.00002994    0.00022200    0.00014679
     atom   87 type  2   force =     0.00015506    0.00010625   -0.00019492
     atom   88 type  1   force =     0.00034400    0.00069314    0.00005050
     atom   89 type  2   force =    -0.00007172    0.00002508   -0.00003804
     atom   90 type  1   force =    -0.00008596    0.00019477   -0.00013906
     atom   91 type  2   force =     0.00000535    0.00011338   -0.00038311
     atom   92 type  1   force =     0.00014693   -0.00015237    0.00005050
     atom   93 type  2   force =    -0.00039405    0.00007949    0.00015277
     atom   94 type  1   force =    -0.00005310    0.00039102    0.00011845
     atom   95 type  2   force =    -0.00002036    0.00004011    0.00047019
     atom   96 type  1   force =     0.00011004   -0.00008880   -0.00008791
     atom   97 type  2   force =    -0.00012071   -0.00012779    0.00048835
     atom   98 type  1   force =     0.00000325   -0.00003579   -0.00030195
     atom   99 type  2   force =     0.00012441   -0.00009325   -0.00020750
     atom  100 type  1   force =     0.00056422   -0.00021209   -0.00034600
     atom  101 type  2   force =     0.00012483    0.00009979    0.00032713
     atom  102 type  1   force =     0.00011954    0.00021814    0.00029025
     atom  103 type  2   force =    -0.00042901    0.00028433   -0.00017216
     atom  104 type  1   force =     0.00038623    0.00014663   -0.00002025
     atom  105 type  2   force =    -0.00011590   -0.00004476   -0.00001811
     atom  106 type  1   force =    -0.00054738   -0.00010591    0.00030168
     atom  107 type  2   force =    -0.00049960    0.00045435   -0.00010924
     atom  108 type  1   force =     0.00004694    0.00013663   -0.00038698
     atom  109 type  2   force =    -0.00007613    0.00028556    0.00036717
     atom  110 type  1   force =    -0.00033692   -0.00004147    0.00004009
     atom  111 type  2   force =    -0.00027036   -0.00000438   -0.00015597
     atom  112 type  1   force =     0.00008248   -0.00009319    0.00030441
     atom  113 type  2   force =     0.00013594    0.00012322    0.00008659
     atom  114 type  1   force =    -0.00023679   -0.00022909    0.00005941
     atom  115 type  2   force =    -0.00014587   -0.00004019   -0.00015633
     atom  116 type  1   force =    -0.00001391    0.00005827    0.00008339
     atom  117 type  2   force =     0.00003114    0.00022339   -0.00044224
     atom  118 type  1   force =     0.00021620    0.00035655   -0.00004876
     atom  119 type  2   force =     0.00018153    0.00008131   -0.00017849
     atom  120 type  1   force =     0.00015207    0.00037628   -0.00014835
     atom  121 type  2   force =     0.00029744    0.00020674   -0.00036106
     atom  122 type  1   force =    -0.00026240   -0.00009348   -0.00005502
     atom  123 type  2   force =    -0.00029019   -0.00013577    0.00009710
     atom  124 type  1   force =     0.00005066    0.00002834   -0.00039932
     atom  125 type  2   force =     0.00058845   -0.00019867    0.00021881
     atom  126 type  1   force =     0.00002131   -0.00022772   -0.00025405
     atom  127 type  2   force =    -0.00010311   -0.00012438   -0.00034565
     atom  128 type  1   force =     0.00033988   -0.00002411    0.00005106
     atom  129 type  2   force =     0.00038347   -0.00009485   -0.00018297

     Total force =     0.004836     Total SCF correction =     0.000119


     Computing stress (Cartesian axis) and pressure


     negative rho (up, down):  2.841E-03 1.149E-03
          total   stress  (Ry/bohr**3)                   (kbar)     P=      -21.24
  -0.00015830   0.00000000   0.00000016          -23.29        0.00        0.02
   0.00000000  -0.00010633   0.00000090            0.00      -15.64        0.13
   0.00000016   0.00000090  -0.00016846            0.02        0.13      -24.78

     Energy error            =      4.6E-05
     Gradient error          =      8.9E-04

     number of scf cycles    =  40
     number of bfgs steps    =  39

     energy   old            =  -42651.9502963664 Ry
     energy   new            =  -42651.9503424526 Ry

     CASE: energy  _new < energy  _old

     new trust radius        =       0.0069769463 bohr

     The maximum number of steps has been reached.

     End of BFGS Geometry Optimization

ATOMIC_POSITIONS (crystal)
Pd            0.5453521722        0.4626003187        0.7093658495
Fe1           0.4180999038        0.4627259618        0.8421103856
Fe2           0.5457859921        0.5886781133        0.8407102262
Fe1           0.5467165964        0.4626982571        0.9674170190
Fe2           0.4224984796        0.5878427787        0.9668273979
Fe1           0.4225642889        0.4628402370        0.0959058095
Fe2           0.5473013469        0.5879099336        0.0955748660
Fe1           0.5480370427        0.4628502628        0.2159927387
Fe2           0.4220039193        0.5878463223        0.2159730678
Fe1           0.4216834299        0.7134558338        0.8454081639
Fe2           0.5459343335        0.8381315872        0.8455951086
Fe1           0.5466194416        0.7123105487        0.9656048761
Fe2           0.4221110112        0.8379002405        0.9670790363
Fe1           0.4224533736        0.7127755144        0.0956001424
Fe2           0.5474500551        0.8380815524        0.0955829967
Fe1           0.5480756816        0.7126375166        0.2156855481
Fe2           0.4225548895        0.8378048892        0.2160387052
Fe1           0.4219209028        0.9633748242        0.8460038484
Fe2           0.5457963939        0.0887190600        0.8462544363
Fe1           0.5466007091        0.9632561836        0.9668163947
Fe2           0.4219102888        0.0882788486        0.9676320576
Fe1           0.4221197837        0.9629915818        0.0965528637
Fe2           0.5473837242        0.0881051387        0.0960725692
Fe1           0.5483315868        0.9630251794        0.2160057594
Fe2           0.4221284578        0.0880440587        0.2164254575
Fe1           0.4212137832        0.2124259898        0.8461732160
Fe2           0.5458633590        0.3365591043        0.8411420244
Fe1           0.5467425091        0.2137932431        0.9664266926
Fe2           0.4223785478        0.3379358134        0.9673126369
Fe1           0.4220257258        0.2130207930        0.0963309774
Fe2           0.5473919259        0.3379367562        0.0960055081
Fe1           0.5480855398        0.2133397165        0.2160164620
Fe2           0.4218590587        0.3381684399        0.2161668744
Fe1           0.6744345817        0.4626448469        0.8407794942
Fe2           0.7963344439        0.5884805031        0.8447791503
Fe1           0.7957880661        0.4628425413        0.9642841810
Fe2           0.6710263499        0.5877426582        0.9652765845
Fe1           0.6718125217        0.4629299071        0.0944158710
Fe2           0.7966335669        0.5879876070        0.0928110877
Fe1           0.7980889323        0.4632133425        0.2143405270
Fe2           0.6733913205        0.5879293518        0.2152712015
Fe1           0.6707492219        0.7133688995        0.8443672863
Fe2           0.7956830182        0.8383915184        0.8444409697
Fe1           0.7965516956        0.7131228985        0.9638247794
Fe2           0.6713892062        0.8380009124        0.9653288981
Fe1           0.6720426466        0.7127619502        0.0939650732
Fe2           0.7968994814        0.8377468067        0.0934131806
Fe1           0.7973674175        0.7127422994        0.2142176755
Fe2           0.6731256699        0.8377762163        0.2152545356
Fe1           0.6704166206        0.9635669024        0.8450811194
Fe2           0.7963122452        0.0879615107        0.8450151108
Fe1           0.7965243814        0.9630793856        0.9647390327
Fe2           0.6716751217        0.0883583291        0.9658611939
Fe1           0.6725734048        0.9630358901        0.0947469562
Fe2           0.7974644215        0.0879661939        0.0939869820
Fe1           0.7978897276        0.9625382185        0.2148997153
Fe2           0.6734775581        0.0881833217        0.2155880529
Fe1           0.6712284185        0.2124153578        0.8451279588
Fe2           0.7965244062        0.3370608268        0.8448832171
Fe1           0.7969459371        0.2127385251        0.9646214431
Fe2           0.6713031268        0.3380220130        0.9657823782
Fe1           0.6724807351        0.2130068656        0.0946717523
Fe2           0.7971288589        0.3381005957        0.0934083510
Fe1           0.7980906887        0.2130752497        0.2147143035
Fe2           0.6738279732        0.3380813572        0.2154902621
Fe1           0.9214407737        0.4627130937        0.8441217634
Fe2           0.0479207725        0.5879888895        0.8444993919
Fe1           0.0472784785        0.4630812114        0.9639816228
Fe2           0.9217271594        0.5879985135        0.9638324024
Fe1           0.9220794172        0.4631698681        0.0927831617
Fe2           0.0466294591        0.5881370984        0.0937044585
Fe1           0.0457794321        0.4634737020        0.2144651101
Fe2           0.9214034215        0.5882994923        0.2141668910
Fe1           0.9220625619        0.7133837011        0.8439449614
Fe2           0.0482850415        0.8383391871        0.8447298453
Fe1           0.0473202926        0.7129709041        0.9643495214
Fe2           0.9219187801        0.8379204055        0.9638826668
Fe1           0.9216495861        0.7128325854        0.0927517011
Fe2           0.0465727334        0.8376875977        0.0936281324
Fe1           0.0458828146        0.7125583879        0.2143362258
Fe2           0.9215282787        0.8372366421        0.2144093660
Fe1           0.9220976268        0.9630436332        0.8445987769
Fe2           0.0483484764        0.0878260823        0.8450573273
Fe1           0.0474440297        0.9627947776        0.9649753210
Fe2           0.9221631534        0.0879693819        0.9646381657
Fe1           0.9218463315        0.9625785166        0.0934088946
Fe2           0.0466065902        0.0877736222        0.0944254192
Fe1           0.0456097847        0.9621264086        0.2149796777
Fe2           0.9219566738        0.0878180013        0.2150696528
Fe1           0.9224366864        0.2125904615        0.8444544343
Fe2           0.0480532145        0.3379660540        0.8449126590
Fe1           0.0473546218        0.2129520515        0.9650897732
Fe2           0.9219209759        0.3379835837        0.9642312222
Fe1           0.9221222337        0.2128881485        0.0936067535
Fe2           0.0466206873        0.3380710181        0.0939126029
Fe1           0.0458290559        0.2132067576        0.2151397048
Fe2           0.9217871229        0.3382489082        0.2145915097
Fe1           0.1739119446        0.4628502310        0.8451005327
Fe2           0.2975670517        0.5884958932        0.8459761028
Fe1           0.2979261777        0.4629252744        0.9668966763
Fe2           0.1725306835        0.5880430569        0.9654841429
Fe1           0.1713458945        0.4630168150        0.0944119354
Fe2           0.2972672400        0.5878193375        0.0952677901
Fe1           0.2958353934        0.4629444989        0.2154416466
Fe2           0.1711649170        0.5882287024        0.2151381996
Fe1           0.1734737927        0.7131903905        0.8447130226
Fe2           0.2981663270        0.8381736037        0.8457137728
Fe1           0.2974322433        0.7130267738        0.9665113085
Fe2           0.1726712497        0.8378739666        0.9657877661
Fe1           0.1717912205        0.7127902102        0.0945995448
Fe2           0.2970318933        0.8378725673        0.0959162355
Fe1           0.2965735722        0.7129122438        0.2153072153
Fe2           0.1707430036        0.8374089406        0.2152447943
Fe1           0.1735669741        0.9630357174        0.8454441662
Fe2           0.2976943338        0.0880052085        0.8462065981
Fe1           0.2974273380        0.9629525052        0.9671194273
Fe2           0.1723951844        0.0878880689        0.9665357964
Fe1           0.1715374737        0.9625833778        0.0952048867
Fe2           0.2965387673        0.0878748907        0.0965608525
Fe1           0.2961646721        0.9624733873        0.2161251914
Fe2           0.1704478976        0.0877042586        0.2159492954
Fe1           0.1732731055        0.2127725997        0.8453301030
Fe2           0.2974135488        0.3371968372        0.8462722624
Fe1           0.2970173710        0.2128352135        0.9672439165
Fe2           0.1723615881        0.3380522581        0.9658945917
Fe1           0.1714398460        0.2130326355        0.0954063829
Fe2           0.2968513095        0.3380983836        0.0957917850
Fe1           0.2960134544        0.2131099130        0.2159461611
Fe2           0.1705722429        0.3382461500        0.2155807383



     Writing output data file /scratch/bxp912/fepdslabrelax2.save/
     NEW-OLD atomic charge density approx. for the potential

     Check: negative core charge=   -0.000004

     negative rho (up, down):  2.917E-03 1.186E-03
     Generating pointlists ...

     Writing output data file /scratch/bxp912/fepdslabrelax2.save/
 
     init_run     :      9.17s CPU      9.67s WALL (       1 calls)
     electrons    :  34586.33s CPU  35435.10s WALL (      40 calls)
     update_pot   :     66.03s CPU     66.96s WALL (      40 calls)
     forces       :    209.94s CPU    216.88s WALL (      40 calls)
     stress       :   4569.06s CPU   4602.80s WALL (      40 calls)

     Called by init_run:
     wfcinit      :      5.97s CPU      6.25s WALL (       1 calls)
     potinit      :      1.05s CPU      1.12s WALL (       1 calls)
     hinit0       :      1.21s CPU      1.23s WALL (       1 calls)

     Called by electrons:
     c_bands      :  29501.03s CPU  30093.97s WALL (    1351 calls)
     sum_band     :   3536.49s CPU   3668.68s WALL (    1351 calls)
     v_of_rho     :    201.82s CPU    215.14s WALL (    1370 calls)
     newd         :    387.65s CPU    468.82s WALL (    1370 calls)
     PAW_pot      :    863.37s CPU    881.28s WALL (    1410 calls)
     mix_rho      :    122.55s CPU    128.72s WALL (    1351 calls)

     Called by c_bands:
     init_us_2    :    140.52s CPU    142.29s WALL (    5646 calls)
     regterg      :  28999.35s CPU  29505.19s WALL (    2702 calls)

     Called by *egterg:
     rdiaghg      :   3161.93s CPU   3200.06s WALL (   12675 calls)
     h_psi        :  11450.43s CPU  11588.00s WALL (   12799 calls)
     s_psi        :   2208.32s CPU   2248.77s WALL (   12799 calls)
     g_psi        :     45.83s CPU     46.32s WALL (   10095 calls)

     Called by h_psi:
     h_psi:calbec :   2818.22s CPU   2836.09s WALL (   12799 calls)
     vloc_psi     :   6211.13s CPU   6279.07s WALL (   12799 calls)
     add_vuspsi   :   2336.26s CPU   2387.33s WALL (   12799 calls)

     General routines
     calbec       :   4149.77s CPU   4176.85s WALL (   15981 calls)
     fft          :    185.48s CPU    188.09s WALL (   29931 calls)
     ffts         :     55.79s CPU     56.61s WALL (   27237 calls)
     fftw         :   6322.10s CPU   6389.89s WALL ( 9920622 calls)
     interpolate  :     26.55s CPU     27.11s WALL (    2740 calls)
     davcio       :      0.00s CPU      0.05s WALL (       2 calls)
 
     Parallel routines
     fft_scatt_xy :    837.15s CPU    843.99s WALL ( 9977790 calls)
     fft_scatt_yz :   4284.59s CPU   4335.42s WALL ( 9977790 calls)
 
     PWSCF        :     10h58m CPU     11h13m WALL

 
   This run was terminated on:  20:55:53  22May2022            

=------------------------------------------------------------------------------=
   JOB DONE.
=------------------------------------------------------------------------------=
