
     Program PWSCF v.6.7MaX starts on  2May2022 at  2:50: 3 

     This program is part of the open-source Quantum ESPRESSO suite
     for quantum simulation of materials; please cite
         "P. Giannozzi et al., J. Phys.:Condens. Matter 21 395502 (2009);
         "P. Giannozzi et al., J. Phys.:Condens. Matter 29 465901 (2017);
          URL http://www.quantum-espresso.org", 
     in publications or presentations arising from this work. More details at
     http://www.quantum-espresso.org/quote

     Parallel version (MPI & OpenMP), running on      72 processor cores
     Number of MPI processes:                72
     Threads/MPI process:                     1

     MPI processes distributed on     1 nodes
     R & G space division:  proc/nbgrp/npool/nimage =      72
     Reading input from fepdslab2.in
Warning: card &CELL ignored
Warning: card CELL_DYNAMICS = 'BFGS', ignored
Warning: card CELL_FACTOR = 2.0, ignored
Warning: card PRESS = 0.0, ignored
Warning: card / ignored

     Current dimensions of program PWSCF are:
     Max number of different atomic species (ntypx) = 10
     Max number of k-points (npk) =  40000
     Max angular momentum in pseudopotentials (lmaxx) =  3
     file Fe.pbe-spn-kjpaw_psl.1.0.0.UPF: wavefunction(s)  3P 3D renormalized
     file Fe.pbe-spn-kjpaw_psl.1.0.0.UPF: wavefunction(s)  3P 3D renormalized
     file Pd.pbe-spn-kjpaw_psl.1.0.0.UPF: wavefunction(s)  4S 5S 4D renormalized

     gamma-point specific algorithms are used

     Subspace diagonalization in iterative solution of the eigenvalue problem:
     one sub-group per band group will be used
     ELPA distributed-memory algorithm (size of sub-group:  8*  8 procs)

 
     Parallelization info
     --------------------
     sticks:   dense  smooth     PW     G-vecs:    dense   smooth      PW
     Min         333     220     53                38016    20412    2546
     Max         336     222     56                38038    20426    2560
     Sum       24049   15899   3985              2738239  1469969  183817
 


     bravais-lattice index     =            0
     lattice parameter (alat)  =      25.8600  a.u.
     unit-cell volume          =   18186.5006 (a.u.)^3
     number of atoms/cell      =          128
     number of atomic types    =            3
     number of electrons       =      2050.00
     number of Kohn-Sham states=         1230
     kinetic-energy cutoff     =      71.0000  Ry
     charge density cutoff     =     430.0000  Ry
     scf convergence threshold =      1.0E-08
     mixing beta               =       0.3000
     number of iterations used =           10  local-TF  mixing
     energy convergence thresh.=      1.0E-04
     force convergence thresh. =      1.0E-03
     Exchange-correlation= SLA  PW   PBX  PBC
                           (   1   4   3   4   0   0   0)
     nstep                     =           40


     celldm(1)=  25.860000  celldm(2)=   0.000000  celldm(3)=   0.000000
     celldm(4)=   0.000000  celldm(5)=   0.000000  celldm(6)=   0.000000

     crystal axes: (cart. coord. in units of alat)
               a(1) = (   1.000000   0.000000   0.000000 )  
               a(2) = (   0.000000   1.051631   0.000000 )  
               a(3) = (   0.000000   0.000000   1.000000 )  

     reciprocal axes: (cart. coord. in units 2 pi/alat)
               b(1) = (  1.000000  0.000000  0.000000 )  
               b(2) = (  0.000000  0.950903  0.000000 )  
               b(3) = (  0.000000  0.000000  1.000000 )  


     PseudoPot. # 1 for Fe read from file:
     /rds/homes/b/bxp912/pp/Fe.pbe-spn-kjpaw_psl.1.0.0.UPF
     MD5 check sum: 42f43b795421b414b0dc916aa790dbcb
     Pseudo is Projector augmented-wave + core cor, Zval = 16.0
     Generated using &quot;atomic&quot; code by A. Dal Corso  v.6.3
     Shape of augmentation charge: PSQ
     Using radial grid of 1191 points,  6 beta functions with: 
                l(1) =   0
                l(2) =   0
                l(3) =   1
                l(4) =   1
                l(5) =   2
                l(6) =   2
     Q(r) pseudized with 0 coefficients 


     PseudoPot. # 2 for Fe read from file:
     /rds/homes/b/bxp912/pp/Fe.pbe-spn-kjpaw_psl.1.0.0.UPF
     MD5 check sum: 42f43b795421b414b0dc916aa790dbcb
     Pseudo is Projector augmented-wave + core cor, Zval = 16.0
     Generated using &quot;atomic&quot; code by A. Dal Corso  v.6.3
     Shape of augmentation charge: PSQ
     Using radial grid of 1191 points,  6 beta functions with: 
                l(1) =   0
                l(2) =   0
                l(3) =   1
                l(4) =   1
                l(5) =   2
                l(6) =   2
     Q(r) pseudized with 0 coefficients 


     PseudoPot. # 3 for Pd read from file:
     /rds/homes/b/bxp912/pp/Pd.pbe-spn-kjpaw_psl.1.0.0.UPF
     MD5 check sum: 790f2ebce206edfd9790dcb9844eca51
     Pseudo is Projector augmented-wave + core cor, Zval = 18.0
     Generated using &quot;atomic&quot; code by A. Dal Corso  v.6.3
     Shape of augmentation charge: PSQ
     Using radial grid of 1235 points,  6 beta functions with: 
                l(1) =   0
                l(2) =   0
                l(3) =   1
                l(4) =   1
                l(5) =   2
                l(6) =   2
     Q(r) pseudized with 0 coefficients 


     atomic species   valence    mass     pseudopotential
        Fe1           16.00    55.84500     Fe( 1.00)
        Fe2           16.00    55.84500     Fe( 1.00)
        Pd            18.00   106.42000     Pd( 1.00)

     Starting magnetic structure 
     atomic species   magnetization
        Fe1          0.100
        Fe2         -0.100
        Pd           0.001

     No symmetry found



   Cartesian axes

     site n.     atom                  positions (alat units)
         1           Pd  tau(   1) = (   0.0624897   0.0657141   0.3147556  )
         2           Fe2 tau(   2) = (   0.1875103   0.1971938   0.3147557  )
         3           Fe1 tau(   3) = (   0.1875128   0.0657131   0.4353662  )
         4           Fe2 tau(   4) = (   0.0624871   0.1971948   0.4353663  )
         5           Fe1 tau(   5) = (   0.0624872   0.0657131   0.5646338  )
         6           Fe2 tau(   6) = (   0.1875128   0.1971948   0.5646337  )
         7           Fe1 tau(   7) = (   0.1875103   0.0657141   0.6852444  )
         8           Fe2 tau(   8) = (   0.0624897   0.1971939   0.6852443  )
         9           Fe1 tau(   9) = (   0.0624897   0.3286219   0.3147556  )
        10           Fe2 tau(  10) = (   0.1875103   0.4601017   0.3147556  )
        11           Fe1 tau(  11) = (   0.1875128   0.3286210   0.4353662  )
        12           Fe2 tau(  12) = (   0.0624872   0.4601026   0.4353662  )
        13           Fe1 tau(  13) = (   0.0624871   0.3286210   0.5646338  )
        14           Fe2 tau(  14) = (   0.1875128   0.4601026   0.5646338  )
        15           Fe1 tau(  15) = (   0.1875103   0.3286219   0.6852444  )
        16           Fe2 tau(  16) = (   0.0624897   0.4601017   0.6852444  )
        17           Fe1 tau(  17) = (   0.0624897   0.5915298   0.3147557  )
        18           Fe2 tau(  18) = (   0.1875103   0.7230095   0.3147557  )
        19           Fe1 tau(  19) = (   0.1875128   0.5915288   0.4353662  )
        20           Fe2 tau(  20) = (   0.0624871   0.7230105   0.4353662  )
        21           Fe1 tau(  21) = (   0.0624872   0.5915289   0.5646337  )
        22           Fe2 tau(  22) = (   0.1875128   0.7230105   0.5646337  )
        23           Fe1 tau(  23) = (   0.1875103   0.5915298   0.6852444  )
        24           Fe2 tau(  24) = (   0.0624898   0.7230096   0.6852444  )
        25           Fe1 tau(  25) = (   0.0624897   0.8544376   0.3147556  )
        26           Fe2 tau(  26) = (   0.1875103   0.9859174   0.3147556  )
        27           Fe1 tau(  27) = (   0.1875128   0.8544367   0.4353662  )
        28           Fe2 tau(  28) = (   0.0624872   0.9859184   0.4353662  )
        29           Fe1 tau(  29) = (   0.0624871   0.8544367   0.5646338  )
        30           Fe2 tau(  30) = (   0.1875128   0.9859184   0.5646338  )
        31           Fe1 tau(  31) = (   0.1875103   0.8544376   0.6852444  )
        32           Fe2 tau(  32) = (   0.0624897   0.9859174   0.6852444  )
        33           Fe1 tau(  33) = (   0.3124897   0.0657141   0.3147556  )
        34           Fe2 tau(  34) = (   0.4375103   0.1971938   0.3147557  )
        35           Fe1 tau(  35) = (   0.4375128   0.0657131   0.4353662  )
        36           Fe2 tau(  36) = (   0.3124872   0.1971948   0.4353662  )
        37           Fe1 tau(  37) = (   0.3124871   0.0657131   0.5646337  )
        38           Fe2 tau(  38) = (   0.4375129   0.1971948   0.5646337  )
        39           Fe1 tau(  39) = (   0.4375103   0.0657140   0.6852443  )
        40           Fe2 tau(  40) = (   0.3124897   0.1971938   0.6852443  )
        41           Fe1 tau(  41) = (   0.3124897   0.3286219   0.3147556  )
        42           Fe2 tau(  42) = (   0.4375103   0.4601017   0.3147556  )
        43           Fe1 tau(  43) = (   0.4375128   0.3286210   0.4353662  )
        44           Fe2 tau(  44) = (   0.3124871   0.4601026   0.4353662  )
        45           Fe1 tau(  45) = (   0.3124872   0.3286210   0.5646337  )
        46           Fe2 tau(  46) = (   0.4375129   0.4601026   0.5646338  )
        47           Fe1 tau(  47) = (   0.4375103   0.3286219   0.6852444  )
        48           Fe2 tau(  48) = (   0.3124897   0.4601017   0.6852444  )
        49           Fe1 tau(  49) = (   0.3124897   0.5915298   0.3147556  )
        50           Fe2 tau(  50) = (   0.4375102   0.7230096   0.3147557  )
        51           Fe1 tau(  51) = (   0.4375128   0.5915288   0.4353662  )
        52           Fe2 tau(  52) = (   0.3124872   0.7230105   0.4353663  )
        53           Fe1 tau(  53) = (   0.3124871   0.5915288   0.5646338  )
        54           Fe2 tau(  54) = (   0.4375129   0.7230105   0.5646338  )
        55           Fe1 tau(  55) = (   0.4375103   0.5915298   0.6852444  )
        56           Fe2 tau(  56) = (   0.3124897   0.7230096   0.6852443  )
        57           Fe1 tau(  57) = (   0.3124897   0.8544376   0.3147557  )
        58           Fe2 tau(  58) = (   0.4375103   0.9859174   0.3147556  )
        59           Fe1 tau(  59) = (   0.4375128   0.8544367   0.4353662  )
        60           Fe2 tau(  60) = (   0.3124871   0.9859184   0.4353662  )
        61           Fe1 tau(  61) = (   0.3124872   0.8544367   0.5646338  )
        62           Fe2 tau(  62) = (   0.4375128   0.9859184   0.5646338  )
        63           Fe1 tau(  63) = (   0.4375103   0.8544376   0.6852444  )
        64           Fe2 tau(  64) = (   0.3124897   0.9859174   0.6852444  )
        65           Fe1 tau(  65) = (   0.5624897   0.0657140   0.3147557  )
        66           Fe2 tau(  66) = (   0.6875103   0.1971938   0.3147557  )
        67           Fe1 tau(  67) = (   0.6875129   0.0657131   0.4353663  )
        68           Fe2 tau(  68) = (   0.5624871   0.1971948   0.4353663  )
        69           Fe1 tau(  69) = (   0.5624872   0.0657131   0.5646338  )
        70           Fe2 tau(  70) = (   0.6875128   0.1971948   0.5646338  )
        71           Fe1 tau(  71) = (   0.6875103   0.0657141   0.6852444  )
        72           Fe2 tau(  72) = (   0.5624897   0.1971938   0.6852443  )
        73           Fe1 tau(  73) = (   0.5624897   0.3286219   0.3147556  )
        74           Fe2 tau(  74) = (   0.6875103   0.4601017   0.3147556  )
        75           Fe1 tau(  75) = (   0.6875128   0.3286210   0.4353663  )
        76           Fe2 tau(  76) = (   0.5624871   0.4601026   0.4353662  )
        77           Fe1 tau(  77) = (   0.5624872   0.3286210   0.5646338  )
        78           Fe2 tau(  78) = (   0.6875129   0.4601026   0.5646338  )
        79           Fe1 tau(  79) = (   0.6875103   0.3286219   0.6852444  )
        80           Fe2 tau(  80) = (   0.5624897   0.4601017   0.6852444  )
        81           Fe1 tau(  81) = (   0.5624897   0.5915298   0.3147556  )
        82           Fe2 tau(  82) = (   0.6875103   0.7230096   0.3147557  )
        83           Fe1 tau(  83) = (   0.6875129   0.5915288   0.4353662  )
        84           Fe2 tau(  84) = (   0.5624871   0.7230105   0.4353662  )
        85           Fe1 tau(  85) = (   0.5624872   0.5915288   0.5646338  )
        86           Fe2 tau(  86) = (   0.6875128   0.7230105   0.5646337  )
        87           Fe1 tau(  87) = (   0.6875103   0.5915298   0.6852444  )
        88           Fe2 tau(  88) = (   0.5624898   0.7230096   0.6852443  )
        89           Fe1 tau(  89) = (   0.5624897   0.8544376   0.3147556  )
        90           Fe2 tau(  90) = (   0.6875103   0.9859174   0.3147556  )
        91           Fe1 tau(  91) = (   0.6875128   0.8544367   0.4353662  )
        92           Fe2 tau(  92) = (   0.5624872   0.9859184   0.4353662  )
        93           Fe1 tau(  93) = (   0.5624872   0.8544367   0.5646338  )
        94           Fe2 tau(  94) = (   0.6875129   0.9859184   0.5646338  )
        95           Fe1 tau(  95) = (   0.6875103   0.8544376   0.6852443  )
        96           Fe2 tau(  96) = (   0.5624897   0.9859174   0.6852444  )
        97           Fe1 tau(  97) = (   0.8124897   0.0657141   0.3147556  )
        98           Fe2 tau(  98) = (   0.9375103   0.1971939   0.3147557  )
        99           Fe1 tau(  99) = (   0.9375128   0.0657131   0.4353662  )
       100           Fe2 tau( 100) = (   0.8124872   0.1971948   0.4353663  )
       101           Fe1 tau( 101) = (   0.8124872   0.0657131   0.5646338  )
       102           Fe2 tau( 102) = (   0.9375129   0.1971948   0.5646337  )
       103           Fe1 tau( 103) = (   0.9375103   0.0657141   0.6852444  )
       104           Fe2 tau( 104) = (   0.8124897   0.1971938   0.6852443  )
       105           Fe1 tau( 105) = (   0.8124897   0.3286219   0.3147556  )
       106           Fe2 tau( 106) = (   0.9375103   0.4601017   0.3147556  )
       107           Fe1 tau( 107) = (   0.9375129   0.3286210   0.4353662  )
       108           Fe2 tau( 108) = (   0.8124872   0.4601026   0.4353662  )
       109           Fe1 tau( 109) = (   0.8124872   0.3286210   0.5646338  )
       110           Fe2 tau( 110) = (   0.9375128   0.4601026   0.5646338  )
       111           Fe1 tau( 111) = (   0.9375103   0.3286219   0.6852444  )
       112           Fe2 tau( 112) = (   0.8124897   0.4601017   0.6852444  )
       113           Fe1 tau( 113) = (   0.8124897   0.5915298   0.3147556  )
       114           Fe2 tau( 114) = (   0.9375102   0.7230096   0.3147556  )
       115           Fe1 tau( 115) = (   0.9375128   0.5915289   0.4353663  )
       116           Fe2 tau( 116) = (   0.8124872   0.7230105   0.4353663  )
       117           Fe1 tau( 117) = (   0.8124872   0.5915288   0.5646338  )
       118           Fe2 tau( 118) = (   0.9375129   0.7230105   0.5646338  )
       119           Fe1 tau( 119) = (   0.9375103   0.5915298   0.6852443  )
       120           Fe2 tau( 120) = (   0.8124897   0.7230095   0.6852443  )
       121           Fe1 tau( 121) = (   0.8124897   0.8544376   0.3147556  )
       122           Fe2 tau( 122) = (   0.9375103   0.9859174   0.3147556  )
       123           Fe1 tau( 123) = (   0.9375129   0.8544367   0.4353662  )
       124           Fe2 tau( 124) = (   0.8124872   0.9859184   0.4353662  )
       125           Fe1 tau( 125) = (   0.8124872   0.8544367   0.5646338  )
       126           Fe2 tau( 126) = (   0.9375128   0.9859184   0.5646338  )
       127           Fe1 tau( 127) = (   0.9375103   0.8544376   0.6852444  )
       128           Fe2 tau( 128) = (   0.8124897   0.9859174   0.6852444  )

     number of k points=     1  Marzari-Vanderbilt smearing, width (Ry)=  0.0400
                       cart. coord. in units 2pi/alat
        k(    1) = (   0.0000000   0.0000000   0.0000000), wk =   1.0000000

     Dense  grid:  1369120 G-vectors     FFT dimensions: ( 180, 180, 180)

     Smooth grid:   734985 G-vectors     FFT dimensions: ( 144, 150, 144)

     Estimated max dynamical RAM per process >     316.47 MB

     Estimated total dynamical RAM >      22.25 GB

     Check: negative core charge=   -0.000004
     Generating pointlists ...
     new r_m :   0.0716 (alat units)  1.8527 (a.u.) for type    1
     new r_m :   0.0716 (alat units)  1.8527 (a.u.) for type    2
     new r_m :   0.0716 (alat units)  1.8527 (a.u.) for type    3

     Initial potential from superposition of free atoms

     starting charge 2049.94405, renormalised to 2050.00000

     negative rho (up, down):  2.265E-04 2.259E-04
     Starting wfcs are 1280 randomized atomic wfcs
     Checking if some PAW data can be deallocated... 

     total cpu time spent up to now is       10.5 secs

     Self-consistent Calculation

     iteration #  1     ecut=    71.00 Ry     beta= 0.30
     Davidson diagonalization with overlap
     ethr =  1.00E-02,  avg # of iterations =  6.0

     negative rho (up, down):  2.496E-01 4.960E+00

     total cpu time spent up to now is       41.0 secs

     total energy              =  -42298.45483669 Ry
     estimated scf accuracy    <    1138.95788440 Ry

     total magnetization       =    -9.21 Bohr mag/cell
     absolute magnetization    =   284.42 Bohr mag/cell

     iteration #  2     ecut=    71.00 Ry     beta= 0.30
     Davidson diagonalization with overlap
     ethr =  1.00E-02,  avg # of iterations =  3.0

     negative rho (up, down):  1.985E-01 4.375E+00

     total cpu time spent up to now is       62.5 secs

     total energy              =  -42303.83424933 Ry
     estimated scf accuracy    <     210.18180104 Ry

     total magnetization       =    -8.95 Bohr mag/cell
     absolute magnetization    =   180.07 Bohr mag/cell

     iteration #  3     ecut=    71.00 Ry     beta= 0.30
     Davidson diagonalization with overlap
     ethr =  1.00E-02,  avg # of iterations =  1.5

     negative rho (up, down):  1.575E-01 4.091E+00

     total cpu time spent up to now is       81.2 secs

     total energy              =  -42316.72221415 Ry
     estimated scf accuracy    <     344.30468872 Ry

     total magnetization       =    -6.46 Bohr mag/cell
     absolute magnetization    =   200.18 Bohr mag/cell

     iteration #  4     ecut=    71.00 Ry     beta= 0.30
     Davidson diagonalization with overlap
     ethr =  1.00E-02,  avg # of iterations =  1.5

     negative rho (up, down):  1.122E-01 3.265E+00

     total cpu time spent up to now is      100.5 secs

     total energy              =  -42320.51517305 Ry
     estimated scf accuracy    <      91.10560818 Ry

     total magnetization       =    -6.58 Bohr mag/cell
     absolute magnetization    =   202.28 Bohr mag/cell

     iteration #  5     ecut=    71.00 Ry     beta= 0.30
     Davidson diagonalization with overlap
     ethr =  4.44E-03,  avg # of iterations =  2.5

     negative rho (up, down):  9.987E-02 2.929E+00

     total cpu time spent up to now is      119.7 secs

     total energy              =  -42321.62073491 Ry
     estimated scf accuracy    <      98.33506538 Ry

     total magnetization       =    -3.63 Bohr mag/cell
     absolute magnetization    =   202.57 Bohr mag/cell

     iteration #  6     ecut=    71.00 Ry     beta= 0.30
     Davidson diagonalization with overlap
     ethr =  4.44E-03,  avg # of iterations =  1.0

     negative rho (up, down):  3.403E-02 8.072E-01

     total cpu time spent up to now is      137.0 secs

     total energy              =  -42322.81351011 Ry
     estimated scf accuracy    <      81.87455660 Ry

     total magnetization       =    -3.83 Bohr mag/cell
     absolute magnetization    =   204.49 Bohr mag/cell

     iteration #  7     ecut=    71.00 Ry     beta= 0.30
     Davidson diagonalization with overlap
     ethr =  3.99E-03,  avg # of iterations =  2.0

     negative rho (up, down):  1.741E-03 1.616E+00

     total cpu time spent up to now is      157.5 secs

     total energy              =  -42320.17428492 Ry
     estimated scf accuracy    <      40.73767481 Ry

     total magnetization       =    -3.92 Bohr mag/cell
     absolute magnetization    =   213.21 Bohr mag/cell

     iteration #  8     ecut=    71.00 Ry     beta= 0.30
     Davidson diagonalization with overlap
     ethr =  1.99E-03,  avg # of iterations =  2.0

     negative rho (up, down):  2.059E-03 2.553E+00

     total cpu time spent up to now is      177.9 secs

     total energy              =  -42319.37968938 Ry
     estimated scf accuracy    <      29.00833402 Ry

     total magnetization       =    -1.01 Bohr mag/cell
     absolute magnetization    =   228.54 Bohr mag/cell

     iteration #  9     ecut=    71.00 Ry     beta= 0.30
     Davidson diagonalization with overlap
     ethr =  1.42E-03,  avg # of iterations =  4.0

     negative rho (up, down):  2.672E-03 3.141E+00

     total cpu time spent up to now is      199.1 secs

     total energy              =  -42319.50347701 Ry
     estimated scf accuracy    <      24.71068312 Ry

     total magnetization       =    -1.56 Bohr mag/cell
     absolute magnetization    =   244.55 Bohr mag/cell

     iteration # 10     ecut=    71.00 Ry     beta= 0.30
     Davidson diagonalization with overlap
     ethr =  1.21E-03,  avg # of iterations =  3.0

     negative rho (up, down):  2.640E-03 3.119E+00

     total cpu time spent up to now is      220.1 secs

     total energy              =  -42319.87108040 Ry
     estimated scf accuracy    <      55.78833165 Ry

     total magnetization       =    -2.03 Bohr mag/cell
     absolute magnetization    =   250.82 Bohr mag/cell

     iteration # 11     ecut=    71.00 Ry     beta= 0.30
     Davidson diagonalization with overlap
     ethr =  1.21E-03,  avg # of iterations =  1.0

     negative rho (up, down):  7.747E-03 4.232E+00

     total cpu time spent up to now is      237.8 secs

     total energy              =  -42318.88144266 Ry
     estimated scf accuracy    <      64.29195998 Ry

     total magnetization       =    -2.30 Bohr mag/cell
     absolute magnetization    =   251.72 Bohr mag/cell

     iteration # 12     ecut=    71.00 Ry     beta= 0.30
     Davidson diagonalization with overlap
     ethr =  1.21E-03,  avg # of iterations =  4.0

     negative rho (up, down):  5.304E-04 1.803E+00

     total cpu time spent up to now is      259.1 secs

     total energy              =  -42315.33617931 Ry
     estimated scf accuracy    <     442.79685958 Ry

     total magnetization       =    -4.08 Bohr mag/cell
     absolute magnetization    =   272.48 Bohr mag/cell

     iteration # 13     ecut=    71.00 Ry     beta= 0.30
     Davidson diagonalization with overlap
     ethr =  1.21E-03,  avg # of iterations =  5.5

     negative rho (up, down):  3.447E-04 5.190E-01

     total cpu time spent up to now is      280.9 secs

     total energy              =  -42322.50053888 Ry
     estimated scf accuracy    <      30.03813899 Ry

     total magnetization       =    -1.87 Bohr mag/cell
     absolute magnetization    =   232.93 Bohr mag/cell

     iteration # 14     ecut=    71.00 Ry     beta= 0.30
     Davidson diagonalization with overlap
     ethr =  1.21E-03,  avg # of iterations =  2.0

     negative rho (up, down):  5.612E-04 2.060E-01

     total cpu time spent up to now is      301.4 secs

     total energy              =  -42322.96920797 Ry
     estimated scf accuracy    <       7.91655038 Ry

     total magnetization       =    -2.35 Bohr mag/cell
     absolute magnetization    =   227.54 Bohr mag/cell

     iteration # 15     ecut=    71.00 Ry     beta= 0.30
     Davidson diagonalization with overlap
     ethr =  3.86E-04,  avg # of iterations =  2.0

     negative rho (up, down):  4.504E-04 1.079E-01

     total cpu time spent up to now is      322.1 secs

     total energy              =  -42322.90761301 Ry
     estimated scf accuracy    <       3.47827174 Ry

     total magnetization       =    -2.29 Bohr mag/cell
     absolute magnetization    =   226.27 Bohr mag/cell

     iteration # 16     ecut=    71.00 Ry     beta= 0.30
     Davidson diagonalization with overlap
     c_bands:  1 eigenvalues not converged
     ethr =  1.70E-04,  avg # of iterations = 17.0

     negative rho (up, down):  3.285E-04 6.357E-01

     total cpu time spent up to now is      347.9 secs

     total energy              =  -42322.58429452 Ry
     estimated scf accuracy    <       2.68979775 Ry

     total magnetization       =    -3.01 Bohr mag/cell
     absolute magnetization    =   225.87 Bohr mag/cell

     iteration # 17     ecut=    71.00 Ry     beta= 0.30
     Davidson diagonalization with overlap
     ethr =  1.31E-04,  avg # of iterations =  2.5

     negative rho (up, down):  2.540E-04 8.434E-01

     total cpu time spent up to now is      368.6 secs

     total energy              =  -42322.50630357 Ry
     estimated scf accuracy    <       9.16305114 Ry

     total magnetization       =    -2.90 Bohr mag/cell
     absolute magnetization    =   225.58 Bohr mag/cell

     iteration # 18     ecut=    71.00 Ry     beta= 0.30
     Davidson diagonalization with overlap
     ethr =  1.31E-04,  avg # of iterations =  2.0

     negative rho (up, down):  8.807E-04 4.475E+00

     total cpu time spent up to now is      389.2 secs

     total energy              =  -42319.00374788 Ry
     estimated scf accuracy    <      12.47072019 Ry

     total magnetization       =    -3.28 Bohr mag/cell
     absolute magnetization    =   224.90 Bohr mag/cell

     iteration # 19     ecut=    71.00 Ry     beta= 0.30
     Davidson diagonalization with overlap
     ethr =  1.31E-04,  avg # of iterations =  5.0

     negative rho (up, down):  9.660E-05 1.582E+00

     total cpu time spent up to now is      414.0 secs

     total energy              =  -42321.67910165 Ry
     estimated scf accuracy    <     120.36018278 Ry

     total magnetization       =    -4.86 Bohr mag/cell
     absolute magnetization    =   222.52 Bohr mag/cell

     iteration # 20     ecut=    71.00 Ry     beta= 0.30
     Davidson diagonalization with overlap
     ethr =  1.31E-04,  avg # of iterations =  4.5

     negative rho (up, down):  4.554E-05 1.275E+00

     total cpu time spent up to now is      436.4 secs

     total energy              =  -42322.27091966 Ry
     estimated scf accuracy    <      28.30163241 Ry

     total magnetization       =    -3.69 Bohr mag/cell
     absolute magnetization    =   223.16 Bohr mag/cell

     iteration # 21     ecut=    71.00 Ry     beta= 0.30
     Davidson diagonalization with overlap
     ethr =  1.31E-04,  avg # of iterations =  2.0

     negative rho (up, down):  5.767E-04 1.014E+00

     total cpu time spent up to now is      457.3 secs

     total energy              =  -42322.49797568 Ry
     estimated scf accuracy    <      21.31158899 Ry

     total magnetization       =    -3.60 Bohr mag/cell
     absolute magnetization    =   223.65 Bohr mag/cell

     iteration # 22     ecut=    71.00 Ry     beta= 0.30
     Davidson diagonalization with overlap
     ethr =  1.31E-04,  avg # of iterations =  3.0

     negative rho (up, down):  1.247E-03 1.436E+00

     total cpu time spent up to now is      479.1 secs

     total energy              =  -42322.53580877 Ry
     estimated scf accuracy    <      14.94500860 Ry

     total magnetization       =    -2.18 Bohr mag/cell
     absolute magnetization    =   228.74 Bohr mag/cell

     iteration # 23     ecut=    71.00 Ry     beta= 0.30
     Davidson diagonalization with overlap
     ethr =  1.31E-04,  avg # of iterations =  2.0

     negative rho (up, down):  2.502E-04 1.695E-02

     total cpu time spent up to now is      499.3 secs

     total energy              =  -42322.72363265 Ry
     estimated scf accuracy    <      23.08238214 Ry

     total magnetization       =    -2.36 Bohr mag/cell
     absolute magnetization    =   230.78 Bohr mag/cell

     iteration # 24     ecut=    71.00 Ry     beta= 0.30
     Davidson diagonalization with overlap
     ethr =  1.31E-04,  avg # of iterations =  3.5

     negative rho (up, down):  4.096E-04 9.820E-04

     total cpu time spent up to now is      520.9 secs

     total energy              =  -42322.82069336 Ry
     estimated scf accuracy    <       1.81897049 Ry

     total magnetization       =    -3.28 Bohr mag/cell
     absolute magnetization    =   228.19 Bohr mag/cell

     iteration # 25     ecut=    71.00 Ry     beta= 0.30
     Davidson diagonalization with overlap
     ethr =  8.87E-05,  avg # of iterations =  1.5

     negative rho (up, down):  3.567E-04 1.943E-06

     total cpu time spent up to now is      540.2 secs

     total energy              =  -42322.76999179 Ry
     estimated scf accuracy    <       1.02866144 Ry

     total magnetization       =    -2.85 Bohr mag/cell
     absolute magnetization    =   228.79 Bohr mag/cell

     iteration # 26     ecut=    71.00 Ry     beta= 0.30
     Davidson diagonalization with overlap
     ethr =  5.02E-05,  avg # of iterations =  2.0

     negative rho (up, down):  1.695E-04 0.000E+00

     total cpu time spent up to now is      560.5 secs

     total energy              =  -42322.75531770 Ry
     estimated scf accuracy    <       0.75393134 Ry

     total magnetization       =    -2.98 Bohr mag/cell
     absolute magnetization    =   229.26 Bohr mag/cell

     iteration # 27     ecut=    71.00 Ry     beta= 0.30
     Davidson diagonalization with overlap
     ethr =  3.68E-05,  avg # of iterations =  8.5

     total cpu time spent up to now is      582.0 secs

     total energy              =  -42322.68046976 Ry
     estimated scf accuracy    <       0.62150350 Ry

     total magnetization       =    -2.88 Bohr mag/cell
     absolute magnetization    =   229.18 Bohr mag/cell

     iteration # 28     ecut=    71.00 Ry     beta= 0.30
     Davidson diagonalization with overlap
     ethr =  3.03E-05,  avg # of iterations =  2.0

     total cpu time spent up to now is      602.7 secs

     total energy              =  -42322.67795868 Ry
     estimated scf accuracy    <       0.37521166 Ry

     total magnetization       =    -2.67 Bohr mag/cell
     absolute magnetization    =   228.61 Bohr mag/cell

     iteration # 29     ecut=    71.00 Ry     beta= 0.30
     Davidson diagonalization with overlap
     ethr =  1.83E-05,  avg # of iterations =  2.0

     negative rho (up, down):  3.984E-06 1.756E-05

     total cpu time spent up to now is      622.6 secs

     total energy              =  -42322.65696376 Ry
     estimated scf accuracy    <       0.24767618 Ry

     total magnetization       =    -2.92 Bohr mag/cell
     absolute magnetization    =   228.23 Bohr mag/cell

     iteration # 30     ecut=    71.00 Ry     beta= 0.30
     Davidson diagonalization with overlap
     ethr =  1.21E-05,  avg # of iterations =  3.0

     negative rho (up, down):  1.628E-06 1.243E-06

     total cpu time spent up to now is      643.8 secs

     total energy              =  -42322.65072998 Ry
     estimated scf accuracy    <       0.20662826 Ry

     total magnetization       =    -3.19 Bohr mag/cell
     absolute magnetization    =   227.38 Bohr mag/cell

     iteration # 31     ecut=    71.00 Ry     beta= 0.30
     Davidson diagonalization with overlap
     ethr =  1.01E-05,  avg # of iterations =  2.0

     negative rho (up, down):  1.098E-03 1.421E-03

     total cpu time spent up to now is      664.1 secs

     total energy              =  -42322.62661602 Ry
     estimated scf accuracy    <       0.15405533 Ry

     total magnetization       =    -2.95 Bohr mag/cell
     absolute magnetization    =   227.31 Bohr mag/cell

     iteration # 32     ecut=    71.00 Ry     beta= 0.30
     Davidson diagonalization with overlap
     ethr =  7.51E-06,  avg # of iterations = 12.5

     negative rho (up, down):  1.307E-03 2.206E-03

     total cpu time spent up to now is      688.4 secs

     total energy              =  -42322.62628316 Ry
     estimated scf accuracy    <       0.12880417 Ry

     total magnetization       =    -2.93 Bohr mag/cell
     absolute magnetization    =   226.28 Bohr mag/cell

     iteration # 33     ecut=    71.00 Ry     beta= 0.30
     Davidson diagonalization with overlap
     ethr =  6.28E-06,  avg # of iterations =  2.0

     negative rho (up, down):  6.772E-04 1.251E-03

     total cpu time spent up to now is      709.1 secs

     total energy              =  -42322.63537479 Ry
     estimated scf accuracy    <       0.07048468 Ry

     total magnetization       =    -3.04 Bohr mag/cell
     absolute magnetization    =   225.75 Bohr mag/cell

     iteration # 34     ecut=    71.00 Ry     beta= 0.30
     Davidson diagonalization with overlap
     c_bands:  3 eigenvalues not converged
     ethr =  3.44E-06,  avg # of iterations = 11.0

     negative rho (up, down):  3.673E-03 5.338E-03

     total cpu time spent up to now is      739.1 secs

     total energy              =  -42322.63041666 Ry
     estimated scf accuracy    <       0.07039813 Ry

     total magnetization       =    -2.90 Bohr mag/cell
     absolute magnetization    =   225.68 Bohr mag/cell

     iteration # 35     ecut=    71.00 Ry     beta= 0.30
     Davidson diagonalization with overlap
     ethr =  3.43E-06,  avg # of iterations =  2.0

     negative rho (up, down):  1.720E-03 2.212E-03

     total cpu time spent up to now is      759.8 secs

     total energy              =  -42322.65159056 Ry
     estimated scf accuracy    <       0.03483900 Ry

     total magnetization       =    -2.87 Bohr mag/cell
     absolute magnetization    =   225.49 Bohr mag/cell

     iteration # 36     ecut=    71.00 Ry     beta= 0.30
     Davidson diagonalization with overlap
     c_bands:  1 eigenvalues not converged
     ethr =  1.70E-06,  avg # of iterations = 11.0

     negative rho (up, down):  1.297E-03 1.578E-03

     total cpu time spent up to now is      789.4 secs

     total energy              =  -42322.65858108 Ry
     estimated scf accuracy    <       0.02953205 Ry

     total magnetization       =    -2.85 Bohr mag/cell
     absolute magnetization    =   226.31 Bohr mag/cell

     iteration # 37     ecut=    71.00 Ry     beta= 0.30
     Davidson diagonalization with overlap
     ethr =  1.44E-06,  avg # of iterations =  2.0

     negative rho (up, down):  1.677E-04 2.150E-04

     total cpu time spent up to now is      810.1 secs

     total energy              =  -42322.66422711 Ry
     estimated scf accuracy    <       0.00937870 Ry

     total magnetization       =    -2.80 Bohr mag/cell
     absolute magnetization    =   226.62 Bohr mag/cell

     iteration # 38     ecut=    71.00 Ry     beta= 0.30
     Davidson diagonalization with overlap
     ethr =  4.57E-07,  avg # of iterations =  6.0

     negative rho (up, down):  5.481E-05 7.242E-05

     total cpu time spent up to now is      832.1 secs

     total energy              =  -42322.66637240 Ry
     estimated scf accuracy    <       0.00598804 Ry

     total magnetization       =    -2.76 Bohr mag/cell
     absolute magnetization    =   227.15 Bohr mag/cell

     iteration # 39     ecut=    71.00 Ry     beta= 0.30
     Davidson diagonalization with overlap
     ethr =  2.92E-07,  avg # of iterations =  2.0

     negative rho (up, down):  1.436E-05 2.005E-05

     total cpu time spent up to now is      854.2 secs

     total energy              =  -42322.66790279 Ry
     estimated scf accuracy    <       0.00294660 Ry

     total magnetization       =    -2.77 Bohr mag/cell
     absolute magnetization    =   227.46 Bohr mag/cell

     iteration # 40     ecut=    71.00 Ry     beta= 0.30
     Davidson diagonalization with overlap
     ethr =  1.44E-07,  avg # of iterations =  2.0

     negative rho (up, down):  5.372E-06 7.939E-06

     total cpu time spent up to now is      875.2 secs

     total energy              =  -42322.66900854 Ry
     estimated scf accuracy    <       0.00226289 Ry

     total magnetization       =    -2.74 Bohr mag/cell
     absolute magnetization    =   227.73 Bohr mag/cell

     iteration # 41     ecut=    71.00 Ry     beta= 0.30
     Davidson diagonalization with overlap
     ethr =  1.10E-07,  avg # of iterations =  2.0

     negative rho (up, down):  3.134E-06 4.361E-06

     total cpu time spent up to now is      895.5 secs

     total energy              =  -42322.67013524 Ry
     estimated scf accuracy    <       0.00121752 Ry

     total magnetization       =    -2.76 Bohr mag/cell
     absolute magnetization    =   227.97 Bohr mag/cell

     iteration # 42     ecut=    71.00 Ry     beta= 0.30
     Davidson diagonalization with overlap
     ethr =  5.94E-08,  avg # of iterations =  2.0

     negative rho (up, down):  9.048E-06 1.097E-05

     total cpu time spent up to now is      916.1 secs

     total energy              =  -42322.67127463 Ry
     estimated scf accuracy    <       0.00073976 Ry

     total magnetization       =    -2.75 Bohr mag/cell
     absolute magnetization    =   228.23 Bohr mag/cell

     iteration # 43     ecut=    71.00 Ry     beta= 0.30
     Davidson diagonalization with overlap
     ethr =  3.61E-08,  avg # of iterations =  4.0

     negative rho (up, down):  1.286E-04 1.350E-04

     total cpu time spent up to now is      939.5 secs

     total energy              =  -42322.67188072 Ry
     estimated scf accuracy    <       0.00042287 Ry

     total magnetization       =    -2.74 Bohr mag/cell
     absolute magnetization    =   228.47 Bohr mag/cell

     iteration # 44     ecut=    71.00 Ry     beta= 0.30
     Davidson diagonalization with overlap
     ethr =  2.06E-08,  avg # of iterations =  5.0

     negative rho (up, down):  1.868E-04 1.953E-04

     total cpu time spent up to now is      962.4 secs

     total energy              =  -42322.67198021 Ry
     estimated scf accuracy    <       0.00010547 Ry

     total magnetization       =    -2.75 Bohr mag/cell
     absolute magnetization    =   228.63 Bohr mag/cell

     iteration # 45     ecut=    71.00 Ry     beta= 0.30
     Davidson diagonalization with overlap
     ethr =  5.14E-09,  avg # of iterations =  5.0

     negative rho (up, down):  2.570E-04 2.666E-04

     total cpu time spent up to now is      984.7 secs

     total energy              =  -42322.67205536 Ry
     estimated scf accuracy    <       0.00006395 Ry

     total magnetization       =    -2.76 Bohr mag/cell
     absolute magnetization    =   228.65 Bohr mag/cell

     iteration # 46     ecut=    71.00 Ry     beta= 0.30
     Davidson diagonalization with overlap
     ethr =  3.12E-09,  avg # of iterations =  4.0

     negative rho (up, down):  4.192E-04 4.323E-04

     total cpu time spent up to now is     1006.0 secs

     total energy              =  -42322.67211593 Ry
     estimated scf accuracy    <       0.00003862 Ry

     total magnetization       =    -2.76 Bohr mag/cell
     absolute magnetization    =   228.69 Bohr mag/cell

     iteration # 47     ecut=    71.00 Ry     beta= 0.30
     Davidson diagonalization with overlap
     ethr =  1.88E-09,  avg # of iterations =  4.5

     negative rho (up, down):  4.171E-04 4.295E-04

     total cpu time spent up to now is     1028.3 secs

     total energy              =  -42322.67213163 Ry
     estimated scf accuracy    <       0.00002986 Ry

     total magnetization       =    -2.76 Bohr mag/cell
     absolute magnetization    =   228.73 Bohr mag/cell

     iteration # 48     ecut=    71.00 Ry     beta= 0.30
     Davidson diagonalization with overlap
     ethr =  1.46E-09,  avg # of iterations =  2.0

     negative rho (up, down):  5.373E-04 5.512E-04

     total cpu time spent up to now is     1049.2 secs

     total energy              =  -42322.67216197 Ry
     estimated scf accuracy    <       0.00002318 Ry

     total magnetization       =    -2.76 Bohr mag/cell
     absolute magnetization    =   228.75 Bohr mag/cell

     iteration # 49     ecut=    71.00 Ry     beta= 0.30
     Davidson diagonalization with overlap
     ethr =  1.13E-09,  avg # of iterations =  3.5

     negative rho (up, down):  6.276E-04 6.421E-04

     total cpu time spent up to now is     1070.7 secs

     total energy              =  -42322.67218072 Ry
     estimated scf accuracy    <       0.00001876 Ry

     total magnetization       =    -2.77 Bohr mag/cell
     absolute magnetization    =   228.79 Bohr mag/cell

     iteration # 50     ecut=    71.00 Ry     beta= 0.30
     Davidson diagonalization with overlap
     ethr =  9.15E-10,  avg # of iterations =  5.0

     negative rho (up, down):  6.817E-04 6.964E-04

     total cpu time spent up to now is     1094.9 secs

     total energy              =  -42322.67219237 Ry
     estimated scf accuracy    <       0.00001300 Ry

     total magnetization       =    -2.77 Bohr mag/cell
     absolute magnetization    =   228.84 Bohr mag/cell

     iteration # 51     ecut=    71.00 Ry     beta= 0.30
     Davidson diagonalization with overlap
     ethr =  6.34E-10,  avg # of iterations =  3.5

     negative rho (up, down):  6.861E-04 7.005E-04

     total cpu time spent up to now is     1123.2 secs

     total energy              =  -42322.67219667 Ry
     estimated scf accuracy    <       0.00000922 Ry

     total magnetization       =    -2.78 Bohr mag/cell
     absolute magnetization    =   228.86 Bohr mag/cell

     iteration # 52     ecut=    71.00 Ry     beta= 0.30
     Davidson diagonalization with overlap
     ethr =  4.50E-10,  avg # of iterations =  3.5

     negative rho (up, down):  7.093E-04 7.236E-04

     total cpu time spent up to now is     1144.7 secs

     total energy              =  -42322.67220105 Ry
     estimated scf accuracy    <       0.00000724 Ry

     total magnetization       =    -2.78 Bohr mag/cell
     absolute magnetization    =   228.88 Bohr mag/cell

     iteration # 53     ecut=    71.00 Ry     beta= 0.30
     Davidson diagonalization with overlap
     ethr =  3.53E-10,  avg # of iterations =  2.0

     negative rho (up, down):  7.246E-04 7.384E-04

     total cpu time spent up to now is     1165.9 secs

     total energy              =  -42322.67220442 Ry
     estimated scf accuracy    <       0.00000716 Ry

     total magnetization       =    -2.78 Bohr mag/cell
     absolute magnetization    =   228.89 Bohr mag/cell

     iteration # 54     ecut=    71.00 Ry     beta= 0.30
     Davidson diagonalization with overlap
     ethr =  3.49E-10,  avg # of iterations =  5.0

     negative rho (up, down):  7.313E-04 7.443E-04

     total cpu time spent up to now is     1193.4 secs

     total energy              =  -42322.67220946 Ry
     estimated scf accuracy    <       0.00000625 Ry

     total magnetization       =    -2.79 Bohr mag/cell
     absolute magnetization    =   228.92 Bohr mag/cell

     iteration # 55     ecut=    71.00 Ry     beta= 0.30
     Davidson diagonalization with overlap
     ethr =  3.05E-10,  avg # of iterations =  5.0

     negative rho (up, down):  8.140E-04 8.268E-04

     total cpu time spent up to now is     1220.0 secs

     total energy              =  -42322.67221704 Ry
     estimated scf accuracy    <       0.00000358 Ry

     total magnetization       =    -2.80 Bohr mag/cell
     absolute magnetization    =   228.95 Bohr mag/cell

     iteration # 56     ecut=    71.00 Ry     beta= 0.30
     Davidson diagonalization with overlap
     ethr =  1.75E-10,  avg # of iterations =  7.0

     negative rho (up, down):  8.249E-04 8.372E-04

     total cpu time spent up to now is     1263.6 secs

     total energy              =  -42322.67222493 Ry
     estimated scf accuracy    <       0.00000313 Ry

     total magnetization       =    -2.81 Bohr mag/cell
     absolute magnetization    =   228.99 Bohr mag/cell

     iteration # 57     ecut=    71.00 Ry     beta= 0.30
     Davidson diagonalization with overlap
     ethr =  1.53E-10,  avg # of iterations =  4.5

     negative rho (up, down):  8.371E-04 8.494E-04

     total cpu time spent up to now is     1288.7 secs

     total energy              =  -42322.67222835 Ry
     estimated scf accuracy    <       0.00000205 Ry

     total magnetization       =    -2.81 Bohr mag/cell
     absolute magnetization    =   229.01 Bohr mag/cell

     iteration # 58     ecut=    71.00 Ry     beta= 0.30
     Davidson diagonalization with overlap
     ethr =  9.98E-11,  avg # of iterations =  5.0

     negative rho (up, down):  8.386E-04 8.510E-04

     total cpu time spent up to now is     1312.3 secs

     total energy              =  -42322.67222978 Ry
     estimated scf accuracy    <       0.00000166 Ry

     total magnetization       =    -2.82 Bohr mag/cell
     absolute magnetization    =   229.01 Bohr mag/cell

     iteration # 59     ecut=    71.00 Ry     beta= 0.30
     Davidson diagonalization with overlap
     ethr =  8.10E-11,  avg # of iterations =  5.0

     negative rho (up, down):  8.520E-04 8.646E-04

     total cpu time spent up to now is     1343.7 secs

     total energy              =  -42322.67223116 Ry
     estimated scf accuracy    <       0.00000139 Ry

     total magnetization       =    -2.82 Bohr mag/cell
     absolute magnetization    =   229.02 Bohr mag/cell

     iteration # 60     ecut=    71.00 Ry     beta= 0.30
     Davidson diagonalization with overlap
     ethr =  6.78E-11,  avg # of iterations =  5.0

     negative rho (up, down):  8.638E-04 8.767E-04

     total cpu time spent up to now is     1369.9 secs

     total energy              =  -42322.67223250 Ry
     estimated scf accuracy    <       0.00000119 Ry

     total magnetization       =    -2.82 Bohr mag/cell
     absolute magnetization    =   229.02 Bohr mag/cell

     iteration # 61     ecut=    71.00 Ry     beta= 0.30
     Davidson diagonalization with overlap
     ethr =  5.80E-11,  avg # of iterations =  4.5

     negative rho (up, down):  9.006E-04 9.140E-04

     total cpu time spent up to now is     1395.1 secs

     total energy              =  -42322.67223370 Ry
     estimated scf accuracy    <       0.00000089 Ry

     total magnetization       =    -2.82 Bohr mag/cell
     absolute magnetization    =   229.02 Bohr mag/cell

     iteration # 62     ecut=    71.00 Ry     beta= 0.30
     Davidson diagonalization with overlap
     ethr =  4.35E-11,  avg # of iterations =  5.0

     negative rho (up, down):  9.446E-04 9.584E-04

     total cpu time spent up to now is     1422.0 secs

     total energy              =  -42322.67223463 Ry
     estimated scf accuracy    <       0.00000092 Ry

     total magnetization       =    -2.83 Bohr mag/cell
     absolute magnetization    =   229.02 Bohr mag/cell

     iteration # 63     ecut=    71.00 Ry     beta= 0.30
     Davidson diagonalization with overlap
     ethr =  4.35E-11,  avg # of iterations =  4.5

     negative rho (up, down):  9.961E-04 1.010E-03

     total cpu time spent up to now is     1448.9 secs

     total energy              =  -42322.67223482 Ry
     estimated scf accuracy    <       0.00000064 Ry

     total magnetization       =    -2.83 Bohr mag/cell
     absolute magnetization    =   229.02 Bohr mag/cell

     iteration # 64     ecut=    71.00 Ry     beta= 0.30
     Davidson diagonalization with overlap
     ethr =  3.11E-11,  avg # of iterations =  6.5

     negative rho (up, down):  1.025E-03 1.040E-03

     total cpu time spent up to now is     1482.1 secs

     total energy              =  -42322.67223610 Ry
     estimated scf accuracy    <       0.00000062 Ry

     total magnetization       =    -2.84 Bohr mag/cell
     absolute magnetization    =   229.02 Bohr mag/cell

     iteration # 65     ecut=    71.00 Ry     beta= 0.30
     Davidson diagonalization with overlap
     ethr =  3.03E-11,  avg # of iterations =  5.5

     negative rho (up, down):  1.045E-03 1.060E-03

     total cpu time spent up to now is     1510.5 secs

     total energy              =  -42322.67223528 Ry
     estimated scf accuracy    <       0.00000046 Ry

     total magnetization       =    -2.84 Bohr mag/cell
     absolute magnetization    =   229.01 Bohr mag/cell

     iteration # 66     ecut=    71.00 Ry     beta= 0.30
     Davidson diagonalization with overlap
     ethr =  2.27E-11,  avg # of iterations =  6.0

     negative rho (up, down):  1.040E-03 1.055E-03

     total cpu time spent up to now is     1546.9 secs

     total energy              =  -42322.67223794 Ry
     estimated scf accuracy    <       0.00000036 Ry

     total magnetization       =    -2.85 Bohr mag/cell
     absolute magnetization    =   229.01 Bohr mag/cell

     iteration # 67     ecut=    71.00 Ry     beta= 0.30
     Davidson diagonalization with overlap
     ethr =  1.74E-11,  avg # of iterations =  5.0

     negative rho (up, down):  1.017E-03 1.031E-03

     total cpu time spent up to now is     1575.8 secs

     total energy              =  -42322.67223796 Ry
     estimated scf accuracy    <       0.00000025 Ry

     total magnetization       =    -2.85 Bohr mag/cell
     absolute magnetization    =   229.00 Bohr mag/cell

     iteration # 68     ecut=    71.00 Ry     beta= 0.30
     Davidson diagonalization with overlap
     ethr =  1.22E-11,  avg # of iterations =  6.0

     negative rho (up, down):  1.013E-03 1.027E-03

     total cpu time spent up to now is     1613.4 secs

     total energy              =  -42322.67223935 Ry
     estimated scf accuracy    <       0.00000019 Ry

     total magnetization       =    -2.85 Bohr mag/cell
     absolute magnetization    =   228.98 Bohr mag/cell

     iteration # 69     ecut=    71.00 Ry     beta= 0.30
     Davidson diagonalization with overlap
     ethr =  9.12E-12,  avg # of iterations =  5.0

     negative rho (up, down):  9.881E-04 1.002E-03

     total cpu time spent up to now is     1646.5 secs

     total energy              =  -42322.67223950 Ry
     estimated scf accuracy    <       0.00000014 Ry

     total magnetization       =    -2.86 Bohr mag/cell
     absolute magnetization    =   228.98 Bohr mag/cell

     iteration # 70     ecut=    71.00 Ry     beta= 0.30
     Davidson diagonalization with overlap
     ethr =  6.80E-12,  avg # of iterations =  6.5

     negative rho (up, down):  9.702E-04 9.844E-04

     total cpu time spent up to now is     1684.5 secs

     total energy              =  -42322.67224069 Ry
     estimated scf accuracy    <       0.00000010 Ry

     total magnetization       =    -2.86 Bohr mag/cell
     absolute magnetization    =   228.97 Bohr mag/cell

     iteration # 71     ecut=    71.00 Ry     beta= 0.30
     Davidson diagonalization with overlap
     ethr =  4.94E-12,  avg # of iterations =  4.0

     negative rho (up, down):  9.637E-04 9.779E-04

     total cpu time spent up to now is     1706.2 secs

     total energy              =  -42322.67224065 Ry
     estimated scf accuracy    <       0.00000008 Ry

     total magnetization       =    -2.86 Bohr mag/cell
     absolute magnetization    =   228.97 Bohr mag/cell

     iteration # 72     ecut=    71.00 Ry     beta= 0.30
     Davidson diagonalization with overlap
     ethr =  4.07E-12,  avg # of iterations =  5.0

     negative rho (up, down):  9.587E-04 9.727E-04

     total cpu time spent up to now is     1740.8 secs

     total energy              =  -42322.67224085 Ry
     estimated scf accuracy    <       0.00000006 Ry

     total magnetization       =    -2.86 Bohr mag/cell
     absolute magnetization    =   228.97 Bohr mag/cell

     iteration # 73     ecut=    71.00 Ry     beta= 0.30
     Davidson diagonalization with overlap
     ethr =  3.11E-12,  avg # of iterations =  4.5

     negative rho (up, down):  9.442E-04 9.580E-04

     total cpu time spent up to now is     1766.6 secs

     total energy              =  -42322.67224092 Ry
     estimated scf accuracy    <       0.00000006 Ry

     total magnetization       =    -2.86 Bohr mag/cell
     absolute magnetization    =   228.97 Bohr mag/cell

     iteration # 74     ecut=    71.00 Ry     beta= 0.30
     Davidson diagonalization with overlap
     ethr =  3.11E-12,  avg # of iterations =  5.0

     negative rho (up, down):  9.391E-04 9.528E-04

     total cpu time spent up to now is     1799.0 secs

     total energy              =  -42322.67224096 Ry
     estimated scf accuracy    <       0.00000005 Ry

     total magnetization       =    -2.86 Bohr mag/cell
     absolute magnetization    =   228.97 Bohr mag/cell

     iteration # 75     ecut=    71.00 Ry     beta= 0.30
     Davidson diagonalization with overlap
     ethr =  2.46E-12,  avg # of iterations =  5.0

     negative rho (up, down):  9.353E-04 9.489E-04

     total cpu time spent up to now is     1826.7 secs

     total energy              =  -42322.67224105 Ry
     estimated scf accuracy    <       0.00000004 Ry

     total magnetization       =    -2.86 Bohr mag/cell
     absolute magnetization    =   228.97 Bohr mag/cell

     iteration # 76     ecut=    71.00 Ry     beta= 0.30
     Davidson diagonalization with overlap
     ethr =  1.86E-12,  avg # of iterations =  4.0

     negative rho (up, down):  9.333E-04 9.469E-04

     total cpu time spent up to now is     1856.6 secs

     total energy              =  -42322.67224102 Ry
     estimated scf accuracy    <       0.00000003 Ry

     total magnetization       =    -2.86 Bohr mag/cell
     absolute magnetization    =   228.98 Bohr mag/cell

     iteration # 77     ecut=    71.00 Ry     beta= 0.30
     Davidson diagonalization with overlap
     ethr =  1.61E-12,  avg # of iterations =  5.0

     negative rho (up, down):  9.216E-04 9.350E-04

     total cpu time spent up to now is     1887.2 secs

     total energy              =  -42322.67224092 Ry
     estimated scf accuracy    <       0.00000004 Ry

     total magnetization       =    -2.86 Bohr mag/cell
     absolute magnetization    =   228.97 Bohr mag/cell

     iteration # 78     ecut=    71.00 Ry     beta= 0.30
     Davidson diagonalization with overlap
     ethr =  1.61E-12,  avg # of iterations =  6.0

     negative rho (up, down):  9.212E-04 9.346E-04

     total cpu time spent up to now is     1933.6 secs

     total energy              =  -42322.67224109 Ry
     estimated scf accuracy    <       0.00000003 Ry

     total magnetization       =    -2.86 Bohr mag/cell
     absolute magnetization    =   228.98 Bohr mag/cell

     iteration # 79     ecut=    71.00 Ry     beta= 0.30
     Davidson diagonalization with overlap
     ethr =  1.33E-12,  avg # of iterations =  5.0

     negative rho (up, down):  9.195E-04 9.329E-04

     total cpu time spent up to now is     1966.8 secs

     total energy              =  -42322.67224112 Ry
     estimated scf accuracy    <       0.00000002 Ry

     total magnetization       =    -2.86 Bohr mag/cell
     absolute magnetization    =   228.98 Bohr mag/cell

     iteration # 80     ecut=    71.00 Ry     beta= 0.30
     Davidson diagonalization with overlap
     ethr =  9.72E-13,  avg # of iterations =  5.0

     negative rho (up, down):  9.189E-04 9.323E-04

     total cpu time spent up to now is     1995.8 secs

     total energy              =  -42322.67224115 Ry
     estimated scf accuracy    <       0.00000002 Ry

     total magnetization       =    -2.86 Bohr mag/cell
     absolute magnetization    =   228.98 Bohr mag/cell

     iteration # 81     ecut=    71.00 Ry     beta= 0.30
     Davidson diagonalization with overlap
     ethr =  8.12E-13,  avg # of iterations =  3.0

     negative rho (up, down):  9.298E-04 9.434E-04
 
     Magnetic moment per site:
     atom:    1    charge:   15.4830    magn:   -0.1377    constr:    0.0000
     atom:    2    charge:   14.1848    magn:   -2.3267    constr:    0.0000
     atom:    3    charge:   14.3006    magn:    1.4485    constr:    0.0000
     atom:    4    charge:   14.3039    magn:   -1.4608    constr:    0.0000
     atom:    5    charge:   14.3060    magn:    0.7233    constr:    0.0000
     atom:    6    charge:   14.2973    magn:   -1.1320    constr:    0.0000
     atom:    7    charge:   14.1752    magn:    2.2788    constr:    0.0000
     atom:    8    charge:   14.1777    magn:   -2.2531    constr:    0.0000
     atom:    9    charge:   14.1816    magn:    2.2117    constr:    0.0000
     atom:   10    charge:   14.1765    magn:   -2.2630    constr:    0.0000
     atom:   11    charge:   14.2967    magn:    1.1451    constr:    0.0000
     atom:   12    charge:   14.2984    magn:   -1.0363    constr:    0.0000
     atom:   13    charge:   14.2981    magn:    1.1087    constr:    0.0000
     atom:   14    charge:   14.2968    magn:   -1.1452    constr:    0.0000
     atom:   15    charge:   14.1770    magn:    2.2589    constr:    0.0000
     atom:   16    charge:   14.1777    magn:   -2.2501    constr:    0.0000
     atom:   17    charge:   14.1774    magn:    2.2552    constr:    0.0000
     atom:   18    charge:   14.1765    magn:   -2.2630    constr:    0.0000
     atom:   19    charge:   14.2967    magn:    1.1466    constr:    0.0000
     atom:   20    charge:   14.2984    magn:   -1.0362    constr:    0.0000
     atom:   21    charge:   14.2974    magn:    1.1169    constr:    0.0000
     atom:   22    charge:   14.2968    magn:   -1.1453    constr:    0.0000
     atom:   23    charge:   14.1773    magn:    2.2530    constr:    0.0000
     atom:   24    charge:   14.1777    magn:   -2.2500    constr:    0.0000
     atom:   25    charge:   14.1816    magn:    2.2118    constr:    0.0000
     atom:   26    charge:   14.1848    magn:   -2.3268    constr:    0.0000
     atom:   27    charge:   14.2967    magn:    1.1441    constr:    0.0000
     atom:   28    charge:   14.3039    magn:   -1.4612    constr:    0.0000
     atom:   29    charge:   14.2980    magn:    1.1096    constr:    0.0000
     atom:   30    charge:   14.2973    magn:   -1.1319    constr:    0.0000
     atom:   31    charge:   14.1771    magn:    2.2588    constr:    0.0000
     atom:   32    charge:   14.1777    magn:   -2.2531    constr:    0.0000
     atom:   33    charge:   14.1812    magn:    2.2268    constr:    0.0000
     atom:   34    charge:   14.1765    magn:   -2.2659    constr:    0.0000
     atom:   35    charge:   14.2951    magn:    1.2251    constr:    0.0000
     atom:   36    charge:   14.2986    magn:   -1.0417    constr:    0.0000
     atom:   37    charge:   14.3004    magn:    0.9677    constr:    0.0000
     atom:   38    charge:   14.2968    magn:   -1.1331    constr:    0.0000
     atom:   39    charge:   14.1752    magn:    2.2754    constr:    0.0000
     atom:   40    charge:   14.1778    magn:   -2.2420    constr:    0.0000
     atom:   41    charge:   14.1777    magn:    2.2484    constr:    0.0000
     atom:   42    charge:   14.1768    magn:   -2.2631    constr:    0.0000
     atom:   43    charge:   14.2965    magn:    1.1546    constr:    0.0000
     atom:   44    charge:   14.2978    magn:   -1.0880    constr:    0.0000
     atom:   45    charge:   14.2977    magn:    1.1054    constr:    0.0000
     atom:   46    charge:   14.2968    magn:   -1.1397    constr:    0.0000
     atom:   47    charge:   14.1771    magn:    2.2574    constr:    0.0000
     atom:   48    charge:   14.1777    magn:   -2.2490    constr:    0.0000
     atom:   49    charge:   14.1776    magn:    2.2505    constr:    0.0000
     atom:   50    charge:   14.1768    magn:   -2.2631    constr:    0.0000
     atom:   51    charge:   14.2972    magn:    1.1205    constr:    0.0000
     atom:   52    charge:   14.2978    magn:   -1.0879    constr:    0.0000
     atom:   53    charge:   14.2973    magn:    1.1177    constr:    0.0000
     atom:   54    charge:   14.2968    magn:   -1.1396    constr:    0.0000
     atom:   55    charge:   14.1772    magn:    2.2547    constr:    0.0000
     atom:   56    charge:   14.1777    magn:   -2.2490    constr:    0.0000
     atom:   57    charge:   14.1777    magn:    2.2485    constr:    0.0000
     atom:   58    charge:   14.1765    magn:   -2.2659    constr:    0.0000
     atom:   59    charge:   14.2965    magn:    1.1537    constr:    0.0000
     atom:   60    charge:   14.2986    magn:   -1.0417    constr:    0.0000
     atom:   61    charge:   14.2976    magn:    1.1064    constr:    0.0000
     atom:   62    charge:   14.2968    magn:   -1.1329    constr:    0.0000
     atom:   63    charge:   14.1771    magn:    2.2573    constr:    0.0000
     atom:   64    charge:   14.1778    magn:   -2.2420    constr:    0.0000
     atom:   65    charge:   14.1788    magn:    2.2393    constr:    0.0000
     atom:   66    charge:   14.1765    magn:   -2.2659    constr:    0.0000
     atom:   67    charge:   14.2951    magn:    1.2250    constr:    0.0000
     atom:   68    charge:   14.2979    magn:   -1.1002    constr:    0.0000
     atom:   69    charge:   14.2987    magn:    1.0556    constr:    0.0000
     atom:   70    charge:   14.2968    magn:   -1.1329    constr:    0.0000
     atom:   71    charge:   14.1752    magn:    2.2753    constr:    0.0000
     atom:   72    charge:   14.1775    magn:   -2.2506    constr:    0.0000
     atom:   73    charge:   14.1780    magn:    2.2451    constr:    0.0000
     atom:   74    charge:   14.1768    magn:   -2.2631    constr:    0.0000
     atom:   75    charge:   14.2965    magn:    1.1543    constr:    0.0000
     atom:   76    charge:   14.2978    magn:   -1.0992    constr:    0.0000
     atom:   77    charge:   14.2978    magn:    1.0992    constr:    0.0000
     atom:   78    charge:   14.2968    magn:   -1.1395    constr:    0.0000
     atom:   79    charge:   14.1771    magn:    2.2574    constr:    0.0000
     atom:   80    charge:   14.1776    magn:   -2.2487    constr:    0.0000
     atom:   81    charge:   14.1775    magn:    2.2487    constr:    0.0000
     atom:   82    charge:   14.1768    magn:   -2.2631    constr:    0.0000
     atom:   83    charge:   14.2972    magn:    1.1203    constr:    0.0000
     atom:   84    charge:   14.2977    magn:   -1.0991    constr:    0.0000
     atom:   85    charge:   14.2973    magn:    1.1207    constr:    0.0000
     atom:   86    charge:   14.2968    magn:   -1.1397    constr:    0.0000
     atom:   87    charge:   14.1772    magn:    2.2547    constr:    0.0000
     atom:   88    charge:   14.1776    magn:   -2.2487    constr:    0.0000
     atom:   89    charge:   14.1780    magn:    2.2452    constr:    0.0000
     atom:   90    charge:   14.1765    magn:   -2.2659    constr:    0.0000
     atom:   91    charge:   14.2965    magn:    1.1536    constr:    0.0000
     atom:   92    charge:   14.2979    magn:   -1.1002    constr:    0.0000
     atom:   93    charge:   14.2977    magn:    1.1002    constr:    0.0000
     atom:   94    charge:   14.2968    magn:   -1.1330    constr:    0.0000
     atom:   95    charge:   14.1771    magn:    2.2573    constr:    0.0000
     atom:   96    charge:   14.1775    magn:   -2.2506    constr:    0.0000
     atom:   97    charge:   14.1812    magn:    2.2269    constr:    0.0000
     atom:   98    charge:   14.1848    magn:   -2.3268    constr:    0.0000
     atom:   99    charge:   14.3006    magn:    1.4490    constr:    0.0000
     atom:  100    charge:   14.2986    magn:   -1.0419    constr:    0.0000
     atom:  101    charge:   14.3004    magn:    0.9683    constr:    0.0000
     atom:  102    charge:   14.2973    magn:   -1.1314    constr:    0.0000
     atom:  103    charge:   14.1752    magn:    2.2788    constr:    0.0000
     atom:  104    charge:   14.1778    magn:   -2.2420    constr:    0.0000
     atom:  105    charge:   14.1777    magn:    2.2484    constr:    0.0000
     atom:  106    charge:   14.1765    magn:   -2.2630    constr:    0.0000
     atom:  107    charge:   14.2967    magn:    1.1449    constr:    0.0000
     atom:  108    charge:   14.2978    magn:   -1.0882    constr:    0.0000
     atom:  109    charge:   14.2977    magn:    1.1058    constr:    0.0000
     atom:  110    charge:   14.2968    magn:   -1.1452    constr:    0.0000
     atom:  111    charge:   14.1770    magn:    2.2589    constr:    0.0000
     atom:  112    charge:   14.1777    magn:   -2.2490    constr:    0.0000
     atom:  113    charge:   14.1776    magn:    2.2505    constr:    0.0000
     atom:  114    charge:   14.1765    magn:   -2.2630    constr:    0.0000
     atom:  115    charge:   14.2967    magn:    1.1466    constr:    0.0000
     atom:  116    charge:   14.2978    magn:   -1.0879    constr:    0.0000
     atom:  117    charge:   14.2973    magn:    1.1178    constr:    0.0000
     atom:  118    charge:   14.2968    magn:   -1.1453    constr:    0.0000
     atom:  119    charge:   14.1773    magn:    2.2530    constr:    0.0000
     atom:  120    charge:   14.1777    magn:   -2.2490    constr:    0.0000
     atom:  121    charge:   14.1777    magn:    2.2485    constr:    0.0000
     atom:  122    charge:   14.1848    magn:   -2.3270    constr:    0.0000
     atom:  123    charge:   14.2967    magn:    1.1442    constr:    0.0000
     atom:  124    charge:   14.2986    magn:   -1.0415    constr:    0.0000
     atom:  125    charge:   14.2976    magn:    1.1065    constr:    0.0000
     atom:  126    charge:   14.2973    magn:   -1.1316    constr:    0.0000
     atom:  127    charge:   14.1771    magn:    2.2588    constr:    0.0000
     atom:  128    charge:   14.1778    magn:   -2.2420    constr:    0.0000

     total cpu time spent up to now is     2019.2 secs

     End of self-consistent calculation

 ------ SPIN UP ------------


          k = 0.0000 0.0000 0.0000 ( 91909 PWs)   bands (ev):

   -80.3848 -80.3842 -80.3809 -80.3802 -80.3545 -80.3544 -80.3538 -80.3536
   -80.3523 -80.3521 -80.3516 -80.3514 -80.3498 -80.3491 -80.3486 -80.3479
   -80.3477 -80.3443 -80.3443 -80.3442 -80.3441 -80.3438 -80.3436 -80.3425
   -80.3377 -80.3376 -80.3270 -80.3147 -80.3146 -80.3037 -80.3036 -79.9458
   -79.9448 -79.7475 -79.7466 -79.7000 -79.6996 -79.6972 -79.6967 -79.6959
   -79.6955 -79.6950 -79.6919 -79.6914 -79.6912 -79.6831 -79.6751 -79.6682
   -79.6605 -79.6587 -79.6586 -79.6581 -79.6542 -79.6537 -79.6536 -79.6533
   -79.6530 -79.6495 -79.6489 -79.6228 -79.5647 -79.5643 -79.3886 -78.4312
   -78.4310 -78.4307 -78.4305 -78.4303 -78.4298 -78.4075 -78.4069 -78.4064
   -78.4058 -78.4005 -78.4000 -78.3980 -78.3977 -78.3794 -78.3793 -78.3762
   -78.3758 -78.3746 -78.3745 -78.3743 -78.3741 -78.3727 -78.3724 -78.3704
   -78.3702 -78.3697 -78.3695 -78.3673 -78.3670 -78.1930 -78.1927 -77.7707
   -77.7706 -77.7705 -77.7705 -77.7692 -77.7690 -77.7688 -77.7687 -77.7687
   -77.7685 -77.7684 -77.7682 -77.7679 -77.7678 -77.7675 -77.7673 -77.7670
   -77.7669 -77.7668 -77.7667 -77.7666 -77.7665 -77.7664 -77.7663 -77.7659
   -77.7657 -77.7608 -77.7606 -77.7237 -77.7236 -77.7235 -77.7230 -76.9357
   -46.5426 -46.5398 -46.5394 -46.5365 -46.5145 -46.5142 -46.5109 -46.5106
   -46.5100 -46.5095 -46.5091 -46.5064 -46.5061 -46.5059 -46.5057 -46.5052
   -46.5023 -46.5013 -46.5006 -46.5005 -46.5004 -46.4987 -46.4985 -46.4972
   -46.4941 -46.4939 -46.4900 -46.4882 -46.4828 -46.4644 -46.4642 -46.4368
   -46.4360 -46.4360 -46.4358 -46.4200 -46.4190 -46.4187 -46.4187 -46.4184
   -46.4177 -46.4174 -46.4174 -46.4151 -46.4144 -46.4135 -46.4129 -46.4112
   -46.4110 -46.4106 -46.4087 -46.4087 -46.4084 -46.4073 -46.4062 -46.4027
   -46.4022 -46.3956 -46.3784 -46.3768 -46.3766 -46.3747 -46.3695 -46.3637
   -46.3594 -46.3540 -46.3344 -46.3326 -46.3292 -46.3279 -46.3272 -46.3271
   -46.3268 -46.3267 -46.3253 -46.3243 -46.3235 -46.3231 -46.3227 -46.3224
   -46.3213 -46.3206 -46.3195 -46.3183 -46.3168 -46.3133 -46.3120 -46.3111
   -46.3042 -46.2908 -46.2894 -46.2733 -46.2730 -46.1037 -46.1009 -46.0192
   -46.0185 -45.9166 -45.9160 -45.8522 -45.8473 -45.8263 -45.8258 -45.8255
   -45.8251 -45.8248 -45.8233 -45.8199 -45.8196 -45.8186 -45.8170 -45.8150
   -45.8148 -45.8143 -45.8112 -45.8111 -45.8099 -45.8087 -45.8042 -45.8016
   -45.7900 -45.7896 -45.7874 -45.7859 -45.7847 -45.7831 -45.7748 -45.7746
   -45.7701 -45.7675 -45.7647 -45.7646 -45.7631 -45.7597 -45.7595 -45.7576
   -45.7564 -45.7547 -45.7520 -45.7465 -45.7375 -45.7367 -45.7236 -45.7225
   -45.7214 -45.7175 -45.7151 -45.7140 -45.7134 -45.7123 -45.7114 -45.7085
   -45.7076 -45.6974 -45.6940 -45.6925 -45.6800 -45.6772 -45.6770 -45.6757
   -45.6756 -45.6750 -45.6747 -45.6740 -45.6485 -45.6483 -45.6446 -45.6436
   -45.6407 -45.6406 -45.6398 -45.6396 -45.6378 -45.6356 -45.6353 -45.6313
   -45.6310 -45.6310 -45.6309 -45.6295 -45.6295 -45.6215 -45.6125 -45.6120
   -45.5855 -45.5851 -45.4890 -45.4389 -45.4230 -44.5747 -44.5740 -44.5707
   -44.5691 -44.5691 -44.5652 -44.5641 -44.5594 -44.5580 -44.5562 -44.5555
   -44.5555 -44.5542 -44.5536 -44.5506 -44.5497 -44.5494 -44.5475 -44.5472
   -44.5450 -44.5446 -44.5415 -44.5412 -44.5403 -44.5387 -44.5372 -44.5355
   -44.5316 -44.5313 -44.5264 -44.5254 -44.5244 -44.5218 -44.5184 -44.5181
   -44.5176 -44.5148 -44.5116 -44.5112 -44.5101 -44.5086 -44.5069 -44.4974
   -44.4973 -44.4933 -44.4926 -44.4917 -44.4915 -44.4896 -44.4895 -44.4890
   -44.4886 -44.4884 -44.4871 -44.4866 -44.4863 -44.4856 -44.4851 -44.4838
   -44.4828 -44.4813 -44.4811 -44.4238 -44.4215 -44.4196 -44.4178 -44.4174
   -44.4172 -44.4126 -44.4122 -44.4112 -44.4105 -44.4077 -44.4056 -44.4046
   -44.4041 -44.4026 -44.4009 -44.3997 -44.3979 -44.3970 -44.3948 -44.3935
   -44.3932 -44.3917 -44.3908 -44.3905 -44.3896 -44.3892 -44.3876 -44.3091
   -44.3070 -44.2798 -44.2772 -44.2762 -44.2747 -43.9399 -43.9388 -43.9382
   -43.9377 -43.9372 -43.9369 -43.9362 -43.9361 -43.9358 -43.9356 -43.9355
   -43.9354 -43.9352 -43.9349 -43.9349 -43.9345 -43.9344 -43.9344 -43.9339
   -43.9337 -43.9336 -43.9331 -43.9319 -43.9316 -43.9311 -43.9309 -43.9254
   -43.9246 -43.9004 -43.8963 -43.8911 -43.8902 -43.8615 -43.8611 -43.8611
   -43.8605 -43.8592 -43.8588 -43.8584 -43.8575 -43.8573 -43.8572 -43.8570
   -43.8570 -43.8565 -43.8560 -43.8559 -43.8558 -43.8553 -43.8548 -43.8545
   -43.8539 -43.8538 -43.8532 -43.8531 -43.8530 -43.8524 -43.8523 -43.8514
   -43.8511 -43.8162 -43.8152 -43.8083 -43.8081 -43.8007 -43.7996 -43.7995
   -43.7984 -43.7963 -43.7958 -43.7957 -43.7957 -43.7956 -43.7955 -43.7954
   -43.7953 -43.7953 -43.7951 -43.7935 -43.7929 -43.7920 -43.7914 -43.7914
   -43.7908 -43.7907 -43.7907 -43.7890 -43.7887 -43.7878 -43.7878 -43.7839
   -43.7836 -43.7712 -43.7705 -43.7655 -43.7653 -42.7109 -42.6759 -42.5738
    -0.3008   0.4677   0.4716   0.5482   0.5490   1.2260   1.2286   1.2288
     1.2334   1.3605   2.0582   2.0623   2.1337   2.1357   2.2714   2.4585
     2.5685   2.5827   2.5952   2.6121   2.6163   2.6174   2.7875   2.8022
     2.8335   2.8749   2.8815   2.9255   2.9420   2.9571   2.9628   3.0020
     3.1123   3.1864   3.2101   3.2892   3.2967   3.3640   3.3685   3.3859
     3.3875   3.4020   3.4238   3.4421   3.4637   3.4810   3.5172   3.5404
     3.5482   3.5570   3.5833   3.5903   3.6035   3.6051   3.6222   3.6258
     3.6320   3.6567   3.6599   3.6744   3.6962   3.7062   3.7186   3.7301
     3.7359   3.7738   3.7750   3.7906   3.8146   3.8198   3.8387   3.8492
     3.8493   3.8879   3.8894   3.9104   3.9117   3.9285   3.9356   3.9415
     3.9664   3.9764   3.9783   3.9996   4.0361   4.0729   4.0787   4.0922
     4.1449   4.1564   4.1579   4.1665   4.1755   4.1764   4.1821   4.1893
     4.1921   4.2085   4.2158   4.2171   4.2455   4.2521   4.2580   4.2643
     4.2725   4.2751   4.2785   4.2804   4.2888   4.2898   4.3039   4.3049
     4.3192   4.3199   4.3215   4.3254   4.3277   4.3327   4.3407   4.3523
     4.3541   4.3554   4.3675   4.3724   4.3747   4.3756   4.3798   4.3801
     4.3861   4.4090   4.4122   4.4472   4.4512   4.4518   4.4803   4.4822
     4.4877   4.4990   4.5107   4.5193   4.5262   4.5269   4.5528   4.5566
     4.5766   4.5989   4.6013   4.6091   4.6277   4.6444   4.6559   4.6573
     4.6749   4.6783   4.6791   4.6964   4.6969   4.7002   4.7064   4.7116
     4.7169   4.7262   4.7293   4.7323   4.7459   4.7622   4.7623   4.7632
     4.7645   4.7784   4.7824   4.7966   4.7973   4.8000   4.8032   4.8152
     4.8155   4.8235   4.8389   4.8445   4.8799   4.8919   4.8920   4.9015
     4.9066   4.9100   4.9204   4.9250   4.9455   4.9476   4.9671   5.0180
     5.0216   5.0510   5.0744   5.0748   5.0749   5.1022   5.1144   5.1267
     5.1488   5.1541   5.1808   5.2056   5.2383   5.2860   5.2905   5.2927
     5.3136   5.3138   5.3304   5.3331   5.3411   5.3467   5.3754   5.3868
     5.3881   5.3896   5.3913   5.4114   5.4228   5.4363   5.4409   5.4567
     5.4604   5.4729   5.4832   5.4833   5.5135   5.5181   5.5281   5.5471
     5.5591   5.5636   5.5638   5.5718   5.5818   5.5822   5.5876   5.5954
     5.5984   5.6047   5.6053   5.6110   5.6148   5.6161   5.6186   5.6221
     5.6237   5.6255   5.6289   5.6297   5.6319   5.6329   5.6708   5.6743
     5.7267   5.7526   5.7564   5.7706   5.7737   5.7809   5.7947   5.7970
     5.8003   5.8070   5.8106   5.8134   5.8249   5.8254   5.8314   5.8561
     5.8647   5.8678   5.8830   5.8951   5.9069   5.9629   5.9695   5.9701
     5.9804   6.0181   6.0976   6.1027   6.1083   6.1084   6.1192   6.1359
     6.1417   6.1512   6.1515   6.1527   6.1595   6.1760   6.1785   6.1808
     6.1820   6.1834   6.1855   6.1907   6.1910   6.1912   6.1922   6.1952
     6.1988   6.2006   6.2055   6.2069   6.2142   6.2198   6.2212   6.2319
     6.2400   6.2654   6.2808   6.2843   6.2898   6.3010   6.3017   6.3841
     6.3881   6.3931   6.4032   6.4203   6.4215   6.4327   6.4345   6.4385
     6.4397   6.4415   6.4417   6.4433   6.4454   6.4468   6.4515   6.4603
     6.4640   6.4649   6.4788   6.4898   6.4924   6.4963   6.4981   6.4988
     6.4999   6.5012   6.5021   6.5030   6.5061   6.5196   6.5234   6.5246
     6.5275   6.5497   6.5516   6.5530   6.5534   6.5700   6.5791   6.5809
     6.6135   6.6211   6.6241   6.6254   6.6516   6.6520   6.6534   6.6589
     6.6606   6.6995   6.7038   6.7041   6.7117   6.7123   6.7169   6.7219
     6.7275   6.7413   6.7424   6.7552   6.7555   6.7688   6.7752   6.7771
     6.7792   6.7809   6.7864   6.7884   6.7886   6.7907   6.7913   6.7995
     6.8531   6.8613   6.8629   6.8911   6.8917   6.8924   6.8947   6.8975
     6.9000   6.9076   6.9167   6.9182   6.9232   6.9280   6.9381   6.9581
     6.9675   6.9725   6.9828   6.9888   6.9907   7.0280   7.0309   7.0370
     7.0795   7.0818   7.0904   7.0989   7.1028   7.1059   7.1073   7.1076
     7.1080   7.1440   7.1444   7.1605   7.1637   7.1644   7.1678   7.1720
     7.1739   7.1758   7.1867   7.2402   7.2518   7.2794   7.2811   7.3640
     7.3719   7.4069   7.4126   7.4172   7.4227   7.4272   7.4280   7.4306
     7.4350   7.4431   7.4474   7.4498   7.4647   7.4660   7.4667   7.4722
     7.4737   7.5055   7.5122   7.5406   7.5453   7.5500   7.5565   7.5624
     7.5860   7.6089   7.6175   7.6462   7.6490   7.6505   7.6518   7.6605
     7.6707   7.6865   7.6868   7.7022   7.7061   7.7172   7.7413   7.7537
     7.7659   7.7874   7.7977   7.8234   7.8236   7.8291   7.8334   7.8531
     7.8581   7.8585   7.8675   7.8775   7.8851   7.8872   7.8934   7.8940
     7.9015   7.9433   7.9485   7.9506   7.9545   7.9562   7.9597   7.9656
     7.9865   8.0027   8.0344   8.0371   8.0400   8.0470   8.0586   8.0792
     8.0809   8.0836   8.0849   8.0925   8.0927   8.1133   8.1226   8.1340
     8.1522   8.1647   8.1881   8.1923   8.1960   8.1979   8.2029   8.2423
     8.2451   8.2555   8.2923   8.2943   8.3272   8.3388   8.3410   8.3536
     8.3632   8.3691   8.3795   8.3872   8.3923   8.4067   8.4119   8.4588
     8.5012   8.5086   8.5138   8.5678   8.5731   8.5754   8.5779   8.6022
     8.6071   8.6082   8.6276   8.6794   8.6801   8.6818   8.6825   8.6841
     8.6858   8.6877   8.6880   8.6913   8.6945   8.6983   8.7016   8.7019
     8.7036   8.7053   8.7218   8.7234   8.7235   8.7236   8.7253   8.7290
     8.7314   8.7324   8.7391   8.7401   8.7412   8.7436   8.7482   8.7497
     8.7501   8.7510   8.7521   8.7564   8.7599   8.7660   8.7693   8.7712
     8.7719   8.7748   8.7945   8.7960   8.8185   8.8221   8.8269   8.8274
     8.8332   8.8492   8.8622   8.8732   8.8746   8.8778   8.8815   8.8829
     8.8879   8.8966   8.9050   8.9088   8.9103   8.9165   8.9187   8.9266
     8.9554   8.9626   8.9656   8.9663   8.9708   8.9728   8.9733   8.9736
     8.9765   8.9827   8.9881   8.9913   9.0223   9.0319   9.0526   9.0596
     9.0621   9.0730   9.0778   9.0816   9.0820   9.0823   9.0882   9.0916
     9.0929   9.1001   9.1057   9.1131   9.1248   9.1352   9.1552   9.1557
     9.1592   9.1598   9.1616   9.1740   9.1761   9.1767   9.1791   9.1800
     9.1817   9.1870   9.1905   9.1952   9.2070   9.2134   9.2277   9.2373
     9.2487   9.2614   9.2691   9.2753   9.2761   9.2880   9.2997   9.3061
     9.3074   9.3102   9.3122   9.3161   9.3222   9.3251   9.3285   9.3292
     9.3305   9.3543   9.3555   9.3639   9.3912   9.3982   9.4245   9.4359
     9.4395   9.4610   9.4951   9.4981   9.5062   9.5296   9.5324   9.5470
     9.6598   9.6696   9.8913   9.8952  10.1381  10.2291  10.2307  10.3412
    10.3624  10.4135  10.4350  10.4503  10.4548  10.4615  10.4724  10.5264
    10.5318  10.5586  10.5882  10.6489  10.6553  10.6630

 ------ SPIN DOWN ----------


          k = 0.0000 0.0000 0.0000 ( 91909 PWs)   bands (ev):

   -80.3940 -80.3937 -80.3930 -80.3928 -80.3631 -80.3628 -80.3623 -80.3622
   -80.3597 -80.3595 -80.3590 -80.3588 -80.3580 -80.3577 -80.3572 -80.3571
   -80.3436 -80.3433 -80.3424 -80.3422 -80.3422 -80.3419 -80.3415 -80.3414
   -80.3413 -80.3412 -80.3411 -80.3409 -80.3371 -80.3370 -80.3369 -80.3368
   -79.8800 -79.8796 -79.6916 -79.6910 -79.6895 -79.6891 -79.6883 -79.6878
   -79.6862 -79.6856 -79.6846 -79.6844 -79.6819 -79.6815 -79.6772 -79.6770
   -79.6766 -79.6762 -79.6515 -79.6513 -79.6504 -79.6501 -79.6453 -79.6450
   -79.6444 -79.6441 -79.6189 -79.6188 -79.6186 -79.6185 -79.6129 -79.6126
   -78.5636 -78.4564 -78.4561 -78.4157 -78.4021 -78.4018 -78.4005 -78.3976
   -78.3973 -78.3965 -78.3962 -78.3953 -78.3937 -78.3894 -78.3890 -78.3848
   -78.3791 -78.3756 -78.3752 -78.3705 -78.3692 -78.3691 -78.3668 -78.3660
   -78.3658 -78.3625 -78.3623 -78.3622 -78.3393 -78.3379 -78.2887 -78.2885
   -77.7772 -77.7768 -77.7764 -77.7759 -77.7759 -77.7758 -77.7702 -77.7702
   -77.7702 -77.7701 -77.7696 -77.7691 -77.7685 -77.7684 -77.7684 -77.7684
   -77.7680 -77.7679 -77.7679 -77.7677 -77.7677 -77.7676 -77.7676 -77.7672
   -77.7672 -77.7672 -77.7671 -77.7667 -77.7666 -77.7653 -77.7631 -77.0603
   -46.5454 -46.5440 -46.5410 -46.5404 -46.5202 -46.5189 -46.5188 -46.5173
   -46.5164 -46.5156 -46.5152 -46.5143 -46.5142 -46.5131 -46.5105 -46.5099
   -46.5040 -46.5022 -46.5012 -46.5000 -46.4996 -46.4988 -46.4985 -46.4985
   -46.4974 -46.4974 -46.4951 -46.4946 -46.4940 -46.4929 -46.4917 -46.4911
   -46.4790 -46.4768 -46.4759 -46.4737 -46.4303 -46.4277 -46.4272 -46.4260
   -46.4246 -46.4235 -46.4235 -46.4231 -46.4218 -46.4213 -46.4213 -46.4187
   -46.4128 -46.4105 -46.4095 -46.4088 -46.4075 -46.4074 -46.4074 -46.4072
   -46.4065 -46.4052 -46.4048 -46.4035 -46.4026 -46.4018 -46.4002 -46.3985
   -46.3755 -46.3714 -46.3665 -46.3658 -46.3424 -46.3395 -46.3391 -46.3356
   -46.3345 -46.3340 -46.3335 -46.3330 -46.3324 -46.3324 -46.3284 -46.3276
   -46.3257 -46.3229 -46.3228 -46.3192 -46.3186 -46.3177 -46.3177 -46.3175
   -46.3167 -46.3164 -46.3141 -46.3132 -46.3130 -46.3107 -46.3102 -46.3075
   -45.9858 -45.9822 -45.9405 -45.9394 -45.9264 -45.9241 -45.8193 -45.8178
   -45.8176 -45.8167 -45.8165 -45.8144 -45.8137 -45.8130 -45.8126 -45.8102
   -45.8082 -45.8072 -45.8017 -45.7970 -45.7946 -45.7934 -45.7926 -45.7913
   -45.7817 -45.7802 -45.7783 -45.7776 -45.7774 -45.7745 -45.7667 -45.7647
   -45.7644 -45.7633 -45.7604 -45.7593 -45.7549 -45.7545 -45.7529 -45.7525
   -45.7518 -45.7502 -45.7484 -45.7478 -45.7472 -45.7462 -45.7436 -45.7408
   -45.7404 -45.7353 -45.7202 -45.7112 -45.7111 -45.7079 -45.7048 -45.7041
   -45.7037 -45.7035 -45.7032 -45.7019 -45.7019 -45.7012 -45.6875 -45.6842
   -45.6776 -45.6769 -45.6734 -45.6726 -45.6725 -45.6696 -45.6695 -45.6680
[...]
     atom   25 type  1   force =    -0.00001046    0.00029278    0.00005913
     atom   26 type  2   force =    -0.00005424   -0.00013020    0.00031639
     atom   27 type  1   force =    -0.00054698    0.00024931   -0.00032196
     atom   28 type  2   force =    -0.00000444   -0.00058281   -0.00066065
     atom   29 type  1   force =    -0.00001828    0.00014877   -0.00035801
     atom   30 type  2   force =     0.00020415    0.00004094   -0.00034833
     atom   31 type  1   force =     0.00006792   -0.00008174    0.00026735
     atom   32 type  2   force =     0.00001587   -0.00007920   -0.00043039
     atom   33 type  1   force =     0.00005434    0.00000490    0.00015102
     atom   34 type  2   force =     0.00042541    0.00026421   -0.00025502
     atom   35 type  1   force =    -0.00008429    0.00000735   -0.00006780
     atom   36 type  2   force =    -0.00005846   -0.00012821   -0.00008318
     atom   37 type  1   force =    -0.00037238    0.00000148   -0.00020584
     atom   38 type  2   force =    -0.00006404   -0.00001355   -0.00014097
     atom   39 type  1   force =     0.00003203    0.00001599    0.00046967
     atom   40 type  2   force =     0.00010977    0.00006604    0.00032023
     atom   41 type  1   force =     0.00000687    0.00023998   -0.00028852
     atom   42 type  2   force =     0.00022961   -0.00016132    0.00006456
     atom   43 type  1   force =     0.00006813    0.00008973    0.00016718
     atom   44 type  2   force =     0.00003349    0.00006782    0.00010915
     atom   45 type  1   force =    -0.00012365    0.00013899   -0.00010250
     atom   46 type  2   force =    -0.00006821   -0.00014223    0.00030250
     atom   47 type  1   force =    -0.00001546   -0.00043102   -0.00000671
     atom   48 type  2   force =    -0.00027863   -0.00020784    0.00006682
     atom   49 type  1   force =     0.00032532   -0.00002310    0.00021086
     atom   50 type  2   force =     0.00022371    0.00018352    0.00004374
     atom   51 type  1   force =     0.00016755   -0.00000734    0.00044865
     atom   52 type  2   force =     0.00004248   -0.00008615    0.00012632
     atom   53 type  1   force =    -0.00006846   -0.00000998    0.00022537
     atom   54 type  2   force =    -0.00005956    0.00013209    0.00031313
     atom   55 type  1   force =    -0.00040546   -0.00000806    0.00009031
     atom   56 type  2   force =    -0.00028808    0.00021499    0.00007611
     atom   57 type  1   force =     0.00002724   -0.00022950   -0.00030019
     atom   58 type  2   force =     0.00042588   -0.00023241   -0.00024215
     atom   59 type  1   force =     0.00008511   -0.00009896    0.00016175
     atom   60 type  2   force =    -0.00000731    0.00008698   -0.00006312
     atom   61 type  1   force =    -0.00011339   -0.00015592   -0.00009663
     atom   62 type  2   force =    -0.00004006    0.00002779   -0.00012849
     atom   63 type  1   force =    -0.00001718    0.00042325   -0.00002202
     atom   64 type  2   force =     0.00011987   -0.00004567    0.00029549
     atom   65 type  1   force =    -0.00001965    0.00001634   -0.00020453
     atom   66 type  2   force =    -0.00044911    0.00024772   -0.00024645
     atom   67 type  1   force =     0.00009799    0.00001858   -0.00008174
     atom   68 type  2   force =    -0.00001880   -0.00006938    0.00034915
     atom   69 type  1   force =     0.00001363    0.00000375    0.00009277
     atom   70 type  2   force =     0.00003743   -0.00000943   -0.00016168
     atom   71 type  1   force =     0.00001308    0.00000177    0.00047163
     atom   72 type  2   force =     0.00003191   -0.00044806   -0.00025330
     atom   73 type  1   force =    -0.00000954    0.00023176    0.00018480
     atom   74 type  2   force =    -0.00022826   -0.00017517    0.00005877
     atom   75 type  1   force =    -0.00009774    0.00009625    0.00015558
     atom   76 type  2   force =     0.00000117    0.00000488    0.00031512
     atom   77 type  1   force =     0.00000403    0.00009261    0.00015406
     atom   78 type  2   force =     0.00005888   -0.00014622    0.00031291
     atom   79 type  1   force =     0.00001720   -0.00045411    0.00002757
     atom   80 type  2   force =    -0.00000273   -0.00039097   -0.00003897
     atom   81 type  1   force =     0.00000832    0.00000977    0.00065548
     atom   82 type  2   force =    -0.00021397    0.00019912    0.00004378
     atom   83 type  1   force =    -0.00017185   -0.00000333    0.00045785
     atom   84 type  2   force =    -0.00000334   -0.00000356    0.00030419
     atom   85 type  1   force =    -0.00000724   -0.00001729    0.00047268
     atom   86 type  2   force =     0.00005256    0.00013126    0.00031260
     atom   87 type  1   force =     0.00040728   -0.00002247    0.00010334
     atom   88 type  2   force =    -0.00000630    0.00035622   -0.00003318
     atom   89 type  1   force =     0.00000111   -0.00023874    0.00019634
     atom   90 type  2   force =    -0.00044519   -0.00022439   -0.00023509
     atom   91 type  1   force =    -0.00007287   -0.00010103    0.00013922
     atom   92 type  2   force =    -0.00000213    0.00007858    0.00035606
     atom   93 type  1   force =     0.00002143   -0.00010423    0.00014846
     atom   94 type  2   force =     0.00001660    0.00000688   -0.00015878
     atom   95 type  1   force =     0.00000777    0.00040196    0.00000838
     atom   96 type  2   force =     0.00000991    0.00046766   -0.00021584
     atom   97 type  1   force =    -0.00010434    0.00000297    0.00009907
     atom   98 type  2   force =     0.00008421    0.00013957    0.00032676
     atom   99 type  1   force =    -0.00080521    0.00000008   -0.00047013
     atom  100 type  2   force =     0.00004701   -0.00007299   -0.00008639
     atom  101 type  1   force =     0.00030858   -0.00002196   -0.00016356
     atom  102 type  2   force =    -0.00016593    0.00000205   -0.00033501
     atom  103 type  1   force =    -0.00003549   -0.00000988   -0.00049234
     atom  104 type  2   force =    -0.00012993    0.00007331    0.00029673
     atom  105 type  1   force =     0.00001474    0.00021245   -0.00031018
     atom  106 type  2   force =    -0.00027784    0.00030755   -0.00013891
     atom  107 type  1   force =     0.00056162   -0.00019528   -0.00029415
     atom  108 type  2   force =    -0.00003892    0.00007467    0.00011320
     atom  109 type  1   force =     0.00010788    0.00013343   -0.00010148
     atom  110 type  2   force =    -0.00015247    0.00013756   -0.00005882
     atom  111 type  1   force =    -0.00008902    0.00009458    0.00030141
     atom  112 type  2   force =     0.00027485   -0.00022409    0.00005855
     atom  113 type  1   force =    -0.00033772   -0.00001044    0.00021788
     atom  114 type  2   force =    -0.00031010   -0.00031251   -0.00012933
     atom  115 type  1   force =    -0.00003903   -0.00000195    0.00005024
     atom  116 type  2   force =    -0.00003346   -0.00007447    0.00012454
     atom  117 type  1   force =     0.00007279   -0.00001175    0.00022619
     atom  118 type  2   force =    -0.00015277   -0.00016449   -0.00006661
     atom  119 type  1   force =     0.00025587   -0.00002169    0.00021938
     atom  120 type  2   force =     0.00027301    0.00018545    0.00005052
     atom  121 type  1   force =     0.00004255   -0.00017193   -0.00034938
     atom  122 type  2   force =     0.00013328   -0.00006288    0.00042283
     atom  123 type  1   force =     0.00056003    0.00023156   -0.00030473
     atom  124 type  2   force =    -0.00000129    0.00004681   -0.00008164
     atom  125 type  1   force =     0.00010016   -0.00015469   -0.00011785
     atom  126 type  2   force =    -0.00018517    0.00002243   -0.00037667
     atom  127 type  1   force =    -0.00011759   -0.00009024    0.00026734
     atom  128 type  2   force =    -0.00013353   -0.00005719    0.00027553

     Total force =     0.004370     Total SCF correction =     0.000027


     Computing stress (Cartesian axis) and pressure


     negative rho (up, down):  1.204E-03 1.299E-03
          total   stress  (Ry/bohr**3)                   (kbar)     P=      -20.90
  -0.00015002  -0.00000000   0.00000005          -22.07       -0.00        0.01
  -0.00000000  -0.00010607   0.00000028           -0.00      -15.60        0.04
   0.00000005   0.00000028  -0.00017007            0.01        0.04      -25.02

     Energy error            =      3.7E-05
     Gradient error          =      8.8E-04

     bfgs converged in  17 scf cycles and  16 bfgs steps
     (criteria: energy <  1.0E-04 Ry, force <  1.0E-03 Ry/Bohr)

     End of BFGS Geometry Optimization

     Final energy   =  -42322.7158314641 Ry

     File /scratch/bxp912/fepdslab2.bfgs deleted, as requested
Begin final coordinates

ATOMIC_POSITIONS (crystal)
Pd            0.0625059153        0.0625483889        0.2910259858
Fe2           0.1918897058        0.1915283134        0.3118918478
Fe1           0.1882328297        0.0624618855        0.4358378635
Fe2           0.0624775429        0.1873963873        0.4359470564
Fe1           0.0624548738        0.0624360198        0.5661003365
Fe2           0.1871429590        0.1868954499        0.5642272832
Fe1           0.1889127331        0.0624100779        0.6868723485
Fe2           0.0625044268        0.1858009444        0.6845946164
Fe1           0.0624492315        0.3128550457        0.3162930506
Fe2           0.1878214372        0.4366783757        0.3140372195
Fe1           0.1883842644        0.3131885294        0.4358220253
Fe2           0.0624759641        0.4370711592        0.4342727945
Fe1           0.0624919598        0.3121505871        0.5642399116
Fe2           0.1874818178        0.4374227545        0.5644807331
Fe1           0.1868969998        0.3120501992        0.6858747927
Fe2           0.0624936383        0.4379112266        0.6849403582
Fe1           0.0625024484        0.5625274680        0.3157342920
Fe2           0.1879141517        0.6883893082        0.3139751800
Fe1           0.1872819863        0.5625039837        0.4358293204
Fe2           0.0624834638        0.6879917339        0.4342323209
Fe1           0.0624907017        0.5624881475        0.5645538456
Fe2           0.1874918926        0.6876175313        0.5644792932
Fe1           0.1874063488        0.5624858900        0.6856542439
Fe2           0.0625142487        0.6871173339        0.6849283292
Fe1           0.0624543069        0.8120703329        0.3163316482
Fe2           0.1918142464        0.9334265054        0.3118943462
Fe1           0.1884013377        0.8117787354        0.4358344520
Fe2           0.0624648761        0.9376337677        0.4359181941
Fe1           0.0624984820        0.8128146044        0.5642263577
Fe2           0.1871331703        0.9380786076        0.5642305185
Fe1           0.1869002113        0.8129062626        0.6858783034
Fe2           0.0624557733        0.9391171854        0.6846415213
Fe1           0.3125283210        0.0624521724        0.3153241495
Fe2           0.4366043043        0.1874895648        0.3142071563
Fe1           0.4374422095        0.0624867840        0.4355768564
Fe2           0.3125894028        0.1878770701        0.4358271009
Fe1           0.3120224749        0.0624579257        0.5647659197
Fe2           0.4378242469        0.1872896848        0.5645464590
Fe1           0.4382669951        0.0624274120        0.6865253419
Fe2           0.3128280345        0.1871878767        0.6838987635
Fe1           0.3143565706        0.3138787290        0.3168880579
Fe2           0.4380141928        0.4381440966        0.3143143428
Fe1           0.4381801400        0.3126695448        0.4365575940
Fe2           0.3127565798        0.4378726591        0.4354135949
Fe1           0.3125128739        0.3126473387        0.5653540961
Fe2           0.4375258237        0.4375974564        0.5648720934
Fe1           0.4372526730        0.3125494042        0.6863402645
Fe2           0.3121638584        0.4377008037        0.6850825333
Fe1           0.3122460638        0.5624775747        0.3156420036
Fe2           0.4379748895        0.6869118080        0.3143453965
Fe1           0.4374234877        0.5624873297        0.4359554884
Fe2           0.3127686907        0.6871842094        0.4354241731
Fe1           0.3124200014        0.5624803531        0.5650305547
Fe2           0.4375285793        0.6874443152        0.5648767867
Fe1           0.4377002353        0.5624729891        0.6861049666
Fe2           0.3121736074        0.6873235181        0.6850813644
Fe1           0.3144102608        0.8112222437        0.3169355179
Fe2           0.4366715120        0.9375571919        0.3142090746
Fe1           0.4382062826        0.8123104797        0.4365852953
Fe2           0.3125895054        0.9371698497        0.4358131312
Fe1           0.3125264546        0.8123004416        0.5653610773
Fe2           0.4378324767        0.9377287632        0.5645420029
Fe1           0.4372699444        0.8124136031        0.6863681490
Fe2           0.3128303898        0.9377747907        0.6838849475
Fe1           0.5625142476        0.0625236439        0.3155196750
Fe2           0.6884274723        0.1875555315        0.3141685489
Fe1           0.6875813514        0.0624935353        0.4355946784
Fe2           0.5624869450        0.1874341015        0.4346218591
Fe1           0.5624665224        0.0624774337        0.5650369914
Fe2           0.6871792220        0.1873052112        0.5645671424
Fe1           0.6867499519        0.0624914761        0.6864988007
Fe2           0.5624489942        0.1877477055        0.6850770846
Fe1           0.5624716931        0.3122826604        0.3152410130
Fe2           0.6870448520        0.4381215902        0.3143349092
Fe1           0.6868480777        0.3126841193        0.4365527719
Fe2           0.5624858020        0.4376067797        0.4356303950
Fe1           0.5624696096        0.3125091755        0.5657892574
Fe2           0.6875184042        0.4375983682        0.5648813886
Fe1           0.6877527726        0.3125381560        0.6863519324
Fe2           0.5624903768        0.4375810787        0.6852253717
Fe1           0.5625020746        0.5625101919        0.3157218468
Fe2           0.6870476412        0.6869255211        0.3143658524
Fe1           0.6876221675        0.5624883851        0.4359579494
Fe2           0.5624841628        0.6874478545        0.4356372208
Fe1           0.5624853683        0.5624833221        0.5649610957
Fe2           0.6875119097        0.6874447948        0.5648756420
Fe1           0.6873471717        0.5624867925        0.6861004081
Fe2           0.5624894121        0.6874404080        0.6852332583
Fe1           0.5624839050        0.8127067977        0.3152447070
Fe2           0.6883906203        0.9375336476        0.3141764701
Fe1           0.6868256749        0.8123186866        0.4365795150
Fe2           0.5624906375        0.9376470706        0.4346384159
Fe1           0.5624785234        0.8124365319        0.5658205883
Fe2           0.6872127481        0.9377360783        0.5645640790
Fe1           0.6877738961        0.8123986273        0.6863827454
Fe2           0.5625026293        0.9372519664        0.6850466381
Fe1           0.8124175286        0.0624727713        0.3153522411
Fe2           0.9330675094        0.1914927099        0.3119114639
Fe1           0.9367576218        0.0624776852        0.4358349581
Fe2           0.8123431025        0.1878876685        0.4358514399
Fe1           0.8129413411        0.0624909633        0.5647536488
Fe2           0.9378744028        0.1869227287        0.5642377705
Fe1           0.9360333573        0.0624855001        0.6868729265
Fe2           0.8121471659        0.1872412050        0.6839031919
Fe1           0.8107128728        0.3139003795        0.3169260680
Fe2           0.9371900523        0.4367113170        0.3140453555
Fe1           0.9366242178        0.3131876501        0.4358642751
Fe2           0.8122144677        0.4378865512        0.4354370645
Fe1           0.8124338572        0.3126580439        0.5653806185
Fe2           0.9375603439        0.4374230037        0.5644968641
Fe1           0.9381633619        0.3120366602        0.6858955116
Fe2           0.8128228206        0.4376935731        0.6850925863
Fe1           0.8127453394        0.5625022173        0.3156492059
Fe2           0.9371598339        0.6883566773        0.3139998832
Fe1           0.9377645641        0.5625029634        0.4358419238
Fe2           0.8122153248        0.6871758175        0.4354428079
Fe1           0.8125579713        0.5624846135        0.5650413362
Fe2           0.9375704509        0.6876195912        0.5644911395
Fe1           0.9376433085        0.5624975982        0.6856562482
Fe2           0.8128215444        0.6873199357        0.6850820074
Fe1           0.8106770089        0.8111702625        0.3170120749
Fe2           0.9331250833        0.9334453315        0.3118906622
Fe1           0.9366253266        0.8117887660        0.4358875499
Fe2           0.8123693817        0.9371797245        0.4358402505
Fe1           0.8124209461        0.8122954705        0.5653886354
Fe2           0.9378693278        0.9380849485        0.5642632359
Fe1           0.9381364061        0.8128734431        0.6858883024
Fe2           0.8121442934        0.9377862592        0.6839158563
End final coordinates



     Writing output data file /scratch/bxp912/fepdslab2.save/
 
     init_run     :      9.00s CPU      9.44s WALL (       1 calls)
     electrons    :  22194.19s CPU  22880.96s WALL (      17 calls)
     update_pot   :     26.23s CPU     26.61s WALL (      16 calls)
     forces       :     87.40s CPU     90.32s WALL (      17 calls)
     stress       :   1913.16s CPU   1926.11s WALL (      17 calls)

     Called by init_run:
     wfcinit      :      5.74s CPU      5.99s WALL (       1 calls)
     potinit      :      1.08s CPU      1.13s WALL (       1 calls)
     hinit0       :      1.15s CPU      1.16s WALL (       1 calls)

     Called by electrons:
     c_bands      :  18964.78s CPU  19437.28s WALL (     856 calls)
     sum_band     :   2253.16s CPU   2334.63s WALL (     856 calls)
     v_of_rho     :    128.37s CPU    136.28s WALL (     865 calls)
     newd         :    242.89s CPU    293.64s WALL (     865 calls)
     PAW_pot      :    527.91s CPU    540.44s WALL (     881 calls)
     mix_rho      :     79.58s CPU     83.08s WALL (     856 calls)

     Called by c_bands:
     init_us_2    :     86.71s CPU     87.82s WALL (    3526 calls)
     regterg      :  18657.97s CPU  18995.77s WALL (    1712 calls)

     Called by *egterg:
     rdiaghg      :   2136.45s CPU   2162.63s WALL (    8943 calls)
     h_psi        :   7241.59s CPU   7340.67s WALL (    8993 calls)
     s_psi        :   1352.16s CPU   1386.77s WALL (    8993 calls)
     g_psi        :     29.87s CPU     30.18s WALL (    7279 calls)

     Called by h_psi:
     h_psi:calbec :   1793.42s CPU   1804.98s WALL (    8993 calls)
     vloc_psi     :   3978.54s CPU   4021.16s WALL (    8993 calls)
     add_vuspsi   :   1414.69s CPU   1459.17s WALL (    8993 calls)

     General routines
     calbec       :   2575.50s CPU   2592.16s WALL (   10907 calls)
     fft          :    134.23s CPU    135.79s WALL (   18656 calls)
     ffts         :     38.57s CPU     39.12s WALL (   17453 calls)
     fftw         :   3880.70s CPU   3921.01s WALL ( 6378588 calls)
     interpolate  :     15.99s CPU     16.32s WALL (    1730 calls)
 
     Parallel routines
     fft_scatt_xy :    524.74s CPU    528.96s WALL ( 6414697 calls)
     fft_scatt_yz :   2619.94s CPU   2649.55s WALL ( 6414697 calls)
 
     PWSCF        :      6h44m CPU      6h56m WALL

 
   This run was terminated on:   9:46:19   2May2022            

=------------------------------------------------------------------------------=
   JOB DONE.
=------------------------------------------------------------------------------=
