
     Program PWSCF v.6.7MaX starts on 22May2022 at  9:40:58 

     This program is part of the open-source Quantum ESPRESSO suite
     for quantum simulation of materials; please cite
         "P. Giannozzi et al., J. Phys.:Condens. Matter 21 395502 (2009);
         "P. Giannozzi et al., J. Phys.:Condens. Matter 29 465901 (2017);
          URL http://www.quantum-espresso.org", 
     in publications or presentations arising from this work. More details at
     http://www.quantum-espresso.org/quote

     Parallel version (MPI & OpenMP), running on      72 processor cores
     Number of MPI processes:                72
     Threads/MPI process:                     1

     MPI processes distributed on     1 nodes
     R & G space division:  proc/nbgrp/npool/nimage =      72
     Reading input from fepdslabrelax.in
Warning: card &CELL ignored
Warning: card CELL_DYNAMICS = 'BFGS', ignored
Warning: card CELL_FACTOR = 2.0, ignored
Warning: card PRESS = 0.0, ignored
Warning: card / ignored

     Current dimensions of program PWSCF are:
     Max number of different atomic species (ntypx) = 10
     Max number of k-points (npk) =  40000
     Max angular momentum in pseudopotentials (lmaxx) =  3
     file Fe.pbe-spn-kjpaw_psl.1.0.0.UPF: wavefunction(s)  3P 3D renormalized
     file Fe.pbe-spn-kjpaw_psl.1.0.0.UPF: wavefunction(s)  3P 3D renormalized
     file Pd.pbe-spn-kjpaw_psl.1.0.0.UPF: wavefunction(s)  4S 5S 4D renormalized

     gamma-point specific algorithms are used

     Subspace diagonalization in iterative solution of the eigenvalue problem:
     one sub-group per band group will be used
     ELPA distributed-memory algorithm (size of sub-group:  8*  8 procs)

 
     Parallelization info
     --------------------
     sticks:   dense  smooth     PW     G-vecs:    dense   smooth      PW
     Min         333     220     53                38016    20412    2546
     Max         336     222     56                38038    20426    2560
     Sum       24049   15899   3985              2738239  1469969  183817
 


     bravais-lattice index     =            0
     lattice parameter (alat)  =      25.8600  a.u.
     unit-cell volume          =   18186.5006 (a.u.)^3
     number of atoms/cell      =          129
     number of atomic types    =            3
     number of electrons       =      2066.00
     number of Kohn-Sham states=         1240
     kinetic-energy cutoff     =      71.0000  Ry
     charge density cutoff     =     430.0000  Ry
     scf convergence threshold =      1.0E-07
     mixing beta               =       0.3000
     number of iterations used =           10  local-TF  mixing
     energy convergence thresh.=      1.0E-05
     force convergence thresh. =      1.0E-04
     Exchange-correlation= SLA  PW   PBX  PBC
                           (   1   4   3   4   0   0   0)
     nstep                     =           40


     celldm(1)=  25.860000  celldm(2)=   0.000000  celldm(3)=   0.000000
     celldm(4)=   0.000000  celldm(5)=   0.000000  celldm(6)=   0.000000

     crystal axes: (cart. coord. in units of alat)
               a(1) = (   1.000000   0.000000   0.000000 )  
               a(2) = (   0.000000   1.051631   0.000000 )  
               a(3) = (   0.000000   0.000000   1.000000 )  

     reciprocal axes: (cart. coord. in units 2 pi/alat)
               b(1) = (  1.000000  0.000000  0.000000 )  
               b(2) = (  0.000000  0.950903  0.000000 )  
               b(3) = (  0.000000  0.000000  1.000000 )  


     PseudoPot. # 1 for Fe read from file:
     /rds/homes/b/bxp912/pp/Fe.pbe-spn-kjpaw_psl.1.0.0.UPF
     MD5 check sum: 42f43b795421b414b0dc916aa790dbcb
     Pseudo is Projector augmented-wave + core cor, Zval = 16.0
     Generated using &quot;atomic&quot; code by A. Dal Corso  v.6.3
     Shape of augmentation charge: PSQ
     Using radial grid of 1191 points,  6 beta functions with: 
                l(1) =   0
                l(2) =   0
                l(3) =   1
                l(4) =   1
                l(5) =   2
                l(6) =   2
     Q(r) pseudized with 0 coefficients 


     PseudoPot. # 2 for Fe read from file:
     /rds/homes/b/bxp912/pp/Fe.pbe-spn-kjpaw_psl.1.0.0.UPF
     MD5 check sum: 42f43b795421b414b0dc916aa790dbcb
     Pseudo is Projector augmented-wave + core cor, Zval = 16.0
     Generated using &quot;atomic&quot; code by A. Dal Corso  v.6.3
     Shape of augmentation charge: PSQ
     Using radial grid of 1191 points,  6 beta functions with: 
                l(1) =   0
                l(2) =   0
                l(3) =   1
                l(4) =   1
                l(5) =   2
                l(6) =   2
     Q(r) pseudized with 0 coefficients 


     PseudoPot. # 3 for Pd read from file:
     /rds/homes/b/bxp912/pp/Pd.pbe-spn-kjpaw_psl.1.0.0.UPF
     MD5 check sum: 790f2ebce206edfd9790dcb9844eca51
     Pseudo is Projector augmented-wave + core cor, Zval = 18.0
     Generated using &quot;atomic&quot; code by A. Dal Corso  v.6.3
     Shape of augmentation charge: PSQ
     Using radial grid of 1235 points,  6 beta functions with: 
                l(1) =   0
                l(2) =   0
                l(3) =   1
                l(4) =   1
                l(5) =   2
                l(6) =   2
     Q(r) pseudized with 0 coefficients 


     atomic species   valence    mass     pseudopotential
        Fe1           16.00    55.84500     Fe( 1.00)
        Fe2           16.00    55.84500     Fe( 1.00)
        Pd            18.00   106.42000     Pd( 1.00)

     Starting magnetic structure 
     atomic species   magnetization
        Fe1          0.100
        Fe2         -0.100
        Pd           0.001

     No symmetry found



   Cartesian axes

     site n.     atom                  positions (alat units)
         1           Pd  tau(   1) = (   0.1425366   0.1152741   0.1753095  )
         2           Fe1 tau(   2) = (   0.0587515   0.0653881   0.3211198  )
         3           Fe2 tau(   3) = (   0.1884265   0.2002713   0.3214448  )
         4           Fe1 tau(   4) = (   0.1868213   0.0655646   0.4421276  )
         5           Fe2 tau(   5) = (   0.0624952   0.1980629   0.4424469  )
         6           Fe1 tau(   6) = (   0.0623234   0.0655267   0.5697271  )
         7           Fe2 tau(   7) = (   0.1876610   0.1975943   0.5698145  )
         8           Fe1 tau(   8) = (   0.1882185   0.0650035   0.6879009  )
         9           Fe2 tau(   9) = (   0.0616632   0.1980291   0.6879420  )
        10           Fe1 tau(  10) = (   0.0653597   0.3265762   0.3172267  )
        11           Fe2 tau(  11) = (   0.1877413   0.4579090   0.3175394  )
        12           Fe1 tau(  12) = (   0.1881227   0.3296492   0.4412225  )
        13           Fe2 tau(  13) = (   0.0633903   0.4595175   0.4385688  )
        14           Fe1 tau(  14) = (   0.0628268   0.3296102   0.5678640  )
        15           Fe2 tau(  15) = (   0.1885537   0.4615096   0.5682187  )
        16           Fe1 tau(  16) = (   0.1887326   0.3305664   0.6874596  )
        17           Fe2 tau(  17) = (   0.0603308   0.4618776   0.6862421  )
        18           Fe1 tau(  18) = (   0.0648519   0.5907106   0.3145093  )
        19           Fe2 tau(  19) = (   0.1847510   0.7238107   0.3145456  )
        20           Fe1 tau(  20) = (   0.1863681   0.5909977   0.4371267  )
        21           Fe2 tau(  21) = (   0.0633682   0.7236125   0.4371464  )
        22           Fe1 tau(  22) = (   0.0615849   0.5918936   0.5662034  )
        23           Fe2 tau(  23) = (   0.1882586   0.7226899   0.5660552  )
        24           Fe1 tau(  24) = (   0.1887997   0.5925453   0.6861716  )
        25           Fe2 tau(  25) = (   0.0613274   0.7219977   0.6862125  )
        26           Fe1 tau(  26) = (   0.0618357   0.8560935   0.3172000  )
        27           Fe2 tau(  27) = (   0.1829530   0.9895025   0.3139428  )
        28           Fe1 tau(  28) = (   0.1862919   0.8555747   0.4379183  )
        29           Fe2 tau(  29) = (   0.0618572   0.9855343   0.4406165  )
        30           Fe1 tau(  30) = (   0.0613876   0.8531658   0.5679772  )
        31           Fe2 tau(  31) = (   0.1869233   0.9851356   0.5677120  )
        32           Fe1 tau(  32) = (   0.1896322   0.8527645   0.6860337  )
        33           Fe2 tau(  33) = (   0.0612834   0.9839846   0.6875207  )
        34           Fe1 tau(  34) = (   0.3076371   0.0696373   0.3122286  )
        35           Fe2 tau(  35) = (   0.4357117   0.1980603   0.3171939  )
        36           Fe1 tau(  36) = (   0.4341488   0.0657210   0.4341951  )
        37           Fe2 tau(  37) = (   0.3121648   0.1978698   0.4418603  )
        38           Fe1 tau(  38) = (   0.3124073   0.0653502   0.5666112  )
        39           Fe2 tau(  39) = (   0.4385533   0.1968925   0.5660486  )
        40           Fe1 tau(  40) = (   0.4380091   0.0657438   0.6859902  )
        41           Fe2 tau(  41) = (   0.3146724   0.1973275   0.6859048  )
        42           Fe1 tau(  42) = (   0.3112557   0.3275738   0.3170910  )
        43           Fe2 tau(  43) = (   0.4354886   0.4597974   0.3147106  )
        44           Fe1 tau(  44) = (   0.4374791   0.3293042   0.4369893  )
        45           Fe2 tau(  45) = (   0.3125364   0.4604356   0.4366549  )
        46           Fe1 tau(  46) = (   0.3141732   0.3293478   0.5679259  )
        47           Fe2 tau(  47) = (   0.4390386   0.4604040   0.5632767  )
        48           Fe1 tau(  48) = (   0.4403086   0.3292951   0.6845898  )
        49           Fe2 tau(  49) = (   0.3159177   0.4625217   0.6855273  )
        50           Fe1 tau(  50) = (   0.3083587   0.5903099   0.3147277  )
        51           Fe2 tau(  51) = (   0.4339295   0.7233087   0.3130231  )
        52           Fe1 tau(  52) = (   0.4358847   0.5924128   0.4322183  )
        53           Fe2 tau(  53) = (   0.3104159   0.7228918   0.4334436  )
        54           Fe1 tau(  54) = (   0.3142966   0.5918280   0.5641361  )
        55           Fe2 tau(  55) = (   0.4385180   0.7234213   0.5598951  )
        56           Fe1 tau(  56) = (   0.4419191   0.5923939   0.6824908  )
        57           Fe2 tau(  57) = (   0.3162141   0.7223454   0.6842751  )
        58           Fe1 tau(  58) = (   0.3074024   0.8548895   0.3147790  )
        59           Fe2 tau(  59) = (   0.4344514   0.9868630   0.3150403  )
        60           Fe1 tau(  60) = (   0.4356335   0.8547100   0.4315209  )
        61           Fe2 tau(  61) = (   0.3101231   0.9863643   0.4363794  )
        62           Fe1 tau(  62) = (   0.3137980   0.8546705   0.5632611  )
        63           Fe2 tau(  63) = (   0.4377077   0.9869231   0.5623578  )
        64           Fe1 tau(  64) = (   0.4393286   0.8535281   0.6828982  )
        65           Fe2 tau(  65) = (   0.3147963   0.9849942   0.6859368  )
        66           Fe1 tau(  66) = (   0.5616138   0.0664335   0.3146916  )
        67           Fe2 tau(  67) = (   0.6884049   0.1964824   0.3148346  )
        68           Fe1 tau(  68) = (   0.6885681   0.0663159   0.4352684  )
        69           Fe2 tau(  69) = (   0.5611411   0.1964240   0.4352748  )
        70           Fe1 tau(  70) = (   0.5619820   0.0659448   0.5635482  )
        71           Fe2 tau(  71) = (   0.6874432   0.1968268   0.5641102  )
        72           Fe1 tau(  72) = (   0.6855858   0.0654998   0.6850881  )
        73           Fe2 tau(  73) = (   0.5638040   0.1972169   0.6852842  )
        74           Fe1 tau(  74) = (   0.5607509   0.3265340   0.3139843  )
        75           Fe2 tau(  75) = (   0.6872354   0.4585088   0.3123752  )
        76           Fe1 tau(  76) = (   0.6875594   0.3276299   0.4335896  )
        77           Fe2 tau(  77) = (   0.5625961   0.4595520   0.4321368  )
        78           Fe1 tau(  78) = (   0.5632705   0.3282677   0.5635703  )
        79           Fe2 tau(  79) = (   0.6879817   0.4596075   0.5599214  )
        80           Fe1 tau(  80) = (   0.6882353   0.3288574   0.6849967  )
        81           Fe2 tau(  81) = (   0.5651853   0.4612490   0.6822433  )
        82           Fe1 tau(  82) = (   0.5612595   0.5916576   0.3122746  )
        83           Fe2 tau(  83) = (   0.6887743   0.7228831   0.3123244  )
        84           Fe1 tau(  84) = (   0.6883236   0.5904996   0.4294597  )
        85           Fe2 tau(  85) = (   0.5615383   0.7241508   0.4293434  )
        86           Fe1 tau(  86) = (   0.5630264   0.5915132   0.5576529  )
        87           Fe2 tau(  87) = (   0.6867405   0.7231521   0.5577775  )
        88           Fe1 tau(  88) = (   0.6857902   0.5920076   0.6805737  )
        89           Fe2 tau(  89) = (   0.5637901   0.7227363   0.6805291  )
        90           Fe1 tau(  90) = (   0.5626362   0.8561046   0.3121969  )
        91           Fe2 tau(  91) = (   0.6891343   0.9880418   0.3141519  )
        92           Fe1 tau(  92) = (   0.6872507   0.8551077   0.4321071  )
        93           Fe2 tau(  93) = (   0.5618631   0.9869943   0.4333065  )
        94           Fe1 tau(  94) = (   0.5617368   0.8550051   0.5596739  )
        95           Fe2 tau(  95) = (   0.6864801   0.9862486   0.5634570  )
        96           Fe1 tau(  96) = (   0.6844995   0.8533385   0.6820773  )
        97           Fe2 tau(  97) = (   0.5612864   0.9855678   0.6846505  )
        98           Fe1 tau(  98) = (   0.8145252   0.0648759   0.3171186  )
        99           Fe2 tau(  99) = (   0.9402188   0.1950601   0.3164839  )
       100           Fe1 tau( 100) = (   0.9374832   0.0651983   0.4423127  )
       101           Fe2 tau( 101) = (   0.8144773   0.1972618   0.4355587  )
       102           Fe1 tau( 102) = (   0.8110658   0.0658411   0.5663854  )
       103           Fe2 tau( 103) = (   0.9371201   0.1977054   0.5670544  )
       104           Fe1 tau( 104) = (   0.9352792   0.0655246   0.6857716  )
       105           Fe2 tau( 105) = (   0.8116171   0.1969980   0.6862948  )
       106           Fe1 tau( 106) = (   0.8150804   0.3280317   0.3151113  )
       107           Fe2 tau( 107) = (   0.9421429   0.4596402   0.3151684  )
       108           Fe1 tau( 108) = (   0.9387564   0.3287418   0.4373695  )
       109           Fe2 tau( 109) = (   0.8139475   0.4599326   0.4319884  )
       110           Fe1 tau( 110) = (   0.8116104   0.3277501   0.5631183  )
       111           Fe2 tau( 111) = (   0.9358814   0.4600430   0.5637519  )
       112           Fe1 tau( 112) = (   0.9349587   0.3296020   0.6860215  )
       113           Fe2 tau( 113) = (   0.8102864   0.4611700   0.6833021  )
       114           Fe1 tau( 114) = (   0.8159084   0.5911864   0.3130823  )
       115           Fe2 tau( 115) = (   0.9412610   0.7242602   0.3148148  )
       116           Fe1 tau( 116) = (   0.9393584   0.5917595   0.4337111  )
       117           Fe2 tau( 117) = (   0.8139347   0.7222047   0.4324709  )
       118           Fe1 tau( 118) = (   0.8112426   0.5912370   0.5601288  )
       119           Fe2 tau( 119) = (   0.9356265   0.7227141   0.5643328  )
       120           Fe1 tau( 120) = (   0.9336551   0.5923087   0.6844350  )
       121           Fe2 tau( 121) = (   0.8078635   0.7222525   0.6825759  )
       122           Fe1 tau( 122) = (   0.8143703   0.8548553   0.3146769  )
       123           Fe2 tau( 123) = (   0.9388847   0.9870538   0.3171989  )
       124           Fe1 tau( 124) = (   0.9373427   0.8541441   0.4366752  )
       125           Fe2 tau( 125) = (   0.8125994   0.9853090   0.4370552  )
       126           Fe1 tau( 126) = (   0.8108362   0.8541803   0.5632913  )
       127           Fe2 tau( 127) = (   0.9358746   0.9851837   0.5680012  )
       128           Fe1 tau( 128) = (   0.9341019   0.8520056   0.6853792  )
       129           Fe2 tau( 129) = (   0.8094919   0.9851394   0.6846363  )

     number of k points=     1  Marzari-Vanderbilt smearing, width (Ry)=  0.0400
                       cart. coord. in units 2pi/alat
        k(    1) = (   0.0000000   0.0000000   0.0000000), wk =   1.0000000

     Dense  grid:  1369120 G-vectors     FFT dimensions: ( 180, 180, 180)

     Smooth grid:   734985 G-vectors     FFT dimensions: ( 144, 150, 144)

     Estimated max dynamical RAM per process >     318.96 MB

     Estimated total dynamical RAM >      22.43 GB

     Check: negative core charge=   -0.000004
     Generating pointlists ...
     new r_m :   0.0707 (alat units)  1.8289 (a.u.) for type    1
     new r_m :   0.0709 (alat units)  1.8345 (a.u.) for type    2
     new r_m :   0.0723 (alat units)  1.8686 (a.u.) for type    3

     Initial potential from superposition of free atoms

     starting charge 2065.94361, renormalised to 2066.00000

     negative rho (up, down):  1.765E-04 1.765E-04
     Starting wfcs are 1290 randomized atomic wfcs
     Checking if some PAW data can be deallocated... 

     total cpu time spent up to now is       13.3 secs

     Self-consistent Calculation

     iteration #  1     ecut=    71.00 Ry     beta= 0.30
     Davidson diagonalization with overlap
     ethr =  1.00E-02,  avg # of iterations =  6.5

     negative rho (up, down):  1.137E+00 2.857E+00

     total cpu time spent up to now is       44.3 secs

     total energy              =  -42628.77029608 Ry
     estimated scf accuracy    <     716.57555619 Ry

     total magnetization       =    -2.92 Bohr mag/cell
     absolute magnetization    =   271.07 Bohr mag/cell

     iteration #  2     ecut=    71.00 Ry     beta= 0.30
     Davidson diagonalization with overlap
     ethr =  1.00E-02,  avg # of iterations =  3.5

     negative rho (up, down):  8.958E-01 2.201E+00

     total cpu time spent up to now is       66.6 secs

     total energy              =  -42639.14040293 Ry
     estimated scf accuracy    <     212.77174097 Ry

     total magnetization       =     1.81 Bohr mag/cell
     absolute magnetization    =   174.97 Bohr mag/cell

     iteration #  3     ecut=    71.00 Ry     beta= 0.30
     Davidson diagonalization with overlap
     ethr =  1.00E-02,  avg # of iterations =  1.5

     negative rho (up, down):  7.780E-01 1.917E+00

     total cpu time spent up to now is       86.1 secs

     total energy              =  -42650.37530157 Ry
     estimated scf accuracy    <     248.23962188 Ry

     total magnetization       =     0.82 Bohr mag/cell
     absolute magnetization    =   198.50 Bohr mag/cell

     iteration #  4     ecut=    71.00 Ry     beta= 0.30
     Davidson diagonalization with overlap
     ethr =  1.00E-02,  avg # of iterations =  1.0

     negative rho (up, down):  5.380E-01 1.336E+00

     total cpu time spent up to now is      103.6 secs

     total energy              =  -42651.39666189 Ry
     estimated scf accuracy    <      76.18000260 Ry

     total magnetization       =     0.34 Bohr mag/cell
     absolute magnetization    =   201.94 Bohr mag/cell

     iteration #  5     ecut=    71.00 Ry     beta= 0.30
     Davidson diagonalization with overlap
     ethr =  3.69E-03,  avg # of iterations =  1.0

     negative rho (up, down):  3.123E-01 7.667E-01

     total cpu time spent up to now is      121.7 secs

     total energy              =  -42651.83822345 Ry
     estimated scf accuracy    <      73.90494239 Ry

     total magnetization       =    -1.37 Bohr mag/cell
     absolute magnetization    =   206.78 Bohr mag/cell

     iteration #  6     ecut=    71.00 Ry     beta= 0.30
     Davidson diagonalization with overlap
     ethr =  3.58E-03,  avg # of iterations =  1.0

     negative rho (up, down):  5.716E-02 1.414E-01

     total cpu time spent up to now is      139.4 secs

     total energy              =  -42652.08867321 Ry
     estimated scf accuracy    <      43.48368682 Ry

     total magnetization       =    -1.43 Bohr mag/cell
     absolute magnetization    =   211.45 Bohr mag/cell

     iteration #  7     ecut=    71.00 Ry     beta= 0.30
     Davidson diagonalization with overlap
     ethr =  2.10E-03,  avg # of iterations =  1.5

     negative rho (up, down):  7.769E-03 1.502E-02

     total cpu time spent up to now is      158.8 secs

     total energy              =  -42652.04616352 Ry
     estimated scf accuracy    <      28.59710004 Ry

     total magnetization       =    -0.68 Bohr mag/cell
     absolute magnetization    =   218.29 Bohr mag/cell

     iteration #  8     ecut=    71.00 Ry     beta= 0.30
     Davidson diagonalization with overlap
     ethr =  1.38E-03,  avg # of iterations =  2.0

     negative rho (up, down):  7.865E-02 1.851E-01

     total cpu time spent up to now is      179.6 secs

     total energy              =  -42651.73134964 Ry
     estimated scf accuracy    <      11.05839310 Ry

     total magnetization       =    -1.10 Bohr mag/cell
     absolute magnetization    =   225.49 Bohr mag/cell

     iteration #  9     ecut=    71.00 Ry     beta= 0.30
     Davidson diagonalization with overlap
     ethr =  5.35E-04,  avg # of iterations =  2.5

     negative rho (up, down):  9.955E-02 2.395E-01

     total cpu time spent up to now is      200.5 secs

     total energy              =  -42651.75530639 Ry
     estimated scf accuracy    <       6.08371768 Ry

     total magnetization       =    -0.92 Bohr mag/cell
     absolute magnetization    =   229.49 Bohr mag/cell

     iteration # 10     ecut=    71.00 Ry     beta= 0.30
     Davidson diagonalization with overlap
     ethr =  2.94E-04,  avg # of iterations = 11.0

     negative rho (up, down):  3.432E-02 7.800E-02

     total cpu time spent up to now is      225.1 secs

     total energy              =  -42651.99525504 Ry
     estimated scf accuracy    <       3.55605442 Ry

     total magnetization       =    -0.34 Bohr mag/cell
     absolute magnetization    =   231.14 Bohr mag/cell

     iteration # 11     ecut=    71.00 Ry     beta= 0.30
     Davidson diagonalization with overlap
     c_bands:  1 eigenvalues not converged
     ethr =  1.72E-04,  avg # of iterations = 11.0

     negative rho (up, down):  3.451E-03 5.860E-03

     total cpu time spent up to now is      249.1 secs

     total energy              =  -42652.09216038 Ry
     estimated scf accuracy    <       2.04986673 Ry

     total magnetization       =     0.18 Bohr mag/cell
     absolute magnetization    =   229.83 Bohr mag/cell

     iteration # 12     ecut=    71.00 Ry     beta= 0.30
     Davidson diagonalization with overlap
     ethr =  9.92E-05,  avg # of iterations =  2.0

     negative rho (up, down):  1.326E-03 1.416E-03

     total cpu time spent up to now is      270.2 secs

     total energy              =  -42652.08745359 Ry
     estimated scf accuracy    <       1.10726959 Ry

     total magnetization       =     0.24 Bohr mag/cell
     absolute magnetization    =   228.61 Bohr mag/cell

     iteration # 13     ecut=    71.00 Ry     beta= 0.30
     Davidson diagonalization with overlap
     ethr =  5.36E-05,  avg # of iterations =  2.0

     negative rho (up, down):  1.293E-03 1.392E-03

     total cpu time spent up to now is      290.8 secs

     total energy              =  -42652.04560936 Ry
     estimated scf accuracy    <       0.82318881 Ry

     total magnetization       =     0.42 Bohr mag/cell
     absolute magnetization    =   228.37 Bohr mag/cell

     iteration # 14     ecut=    71.00 Ry     beta= 0.30
     Davidson diagonalization with overlap
     ethr =  3.98E-05,  avg # of iterations =  2.0

     negative rho (up, down):  2.946E-03 3.639E-03

     total cpu time spent up to now is      311.8 secs

     total energy              =  -42651.93899852 Ry
     estimated scf accuracy    <       0.67737034 Ry

     total magnetization       =     0.49 Bohr mag/cell
     absolute magnetization    =   229.04 Bohr mag/cell

     iteration # 15     ecut=    71.00 Ry     beta= 0.30
     Davidson diagonalization with overlap
     c_bands:  4 eigenvalues not converged
     c_bands:  5 eigenvalues not converged
     ethr =  3.28E-05,  avg # of iterations = 20.0

     negative rho (up, down):  5.161E-03 5.696E-03

     total cpu time spent up to now is      339.3 secs

     total energy              =  -42651.91821181 Ry
     estimated scf accuracy    <       0.49483439 Ry

     total magnetization       =     0.65 Bohr mag/cell
     absolute magnetization    =   229.60 Bohr mag/cell

     iteration # 16     ecut=    71.00 Ry     beta= 0.30
     Davidson diagonalization with overlap
     c_bands:  2 eigenvalues not converged
     ethr =  2.40E-05,  avg # of iterations = 13.5

     negative rho (up, down):  1.161E-03 1.245E-03

     total cpu time spent up to now is      363.9 secs

     total energy              =  -42651.90875812 Ry
     estimated scf accuracy    <       0.43434214 Ry

     total magnetization       =     0.67 Bohr mag/cell
     absolute magnetization    =   229.50 Bohr mag/cell

     iteration # 17     ecut=    71.00 Ry     beta= 0.30
     Davidson diagonalization with overlap
     ethr =  2.10E-05,  avg # of iterations =  5.5

     negative rho (up, down):  4.031E-03 3.723E-03

     total cpu time spent up to now is      384.4 secs

     total energy              =  -42651.88320425 Ry
     estimated scf accuracy    <       0.29280048 Ry

     total magnetization       =     0.54 Bohr mag/cell
     absolute magnetization    =   229.10 Bohr mag/cell

     iteration # 18     ecut=    71.00 Ry     beta= 0.30
     Davidson diagonalization with overlap
     ethr =  1.42E-05,  avg # of iterations =  2.0

     negative rho (up, down):  3.656E-02 3.399E-02

     total cpu time spent up to now is      404.8 secs

     total energy              =  -42651.82641305 Ry
     estimated scf accuracy    <       0.24661997 Ry

     total magnetization       =     0.41 Bohr mag/cell
     absolute magnetization    =   228.98 Bohr mag/cell

     iteration # 19     ecut=    71.00 Ry     beta= 0.30
     Davidson diagonalization with overlap
     ethr =  1.19E-05,  avg # of iterations =  2.0

     negative rho (up, down):  8.710E-03 7.916E-03

     total cpu time spent up to now is      425.8 secs

     total energy              =  -42651.84928369 Ry
     estimated scf accuracy    <       0.24362475 Ry

     total magnetization       =     0.22 Bohr mag/cell
     absolute magnetization    =   228.34 Bohr mag/cell

     iteration # 20     ecut=    71.00 Ry     beta= 0.30
     Davidson diagonalization with overlap
     ethr =  1.18E-05,  avg # of iterations =  1.0

     negative rho (up, down):  1.232E-01 1.209E-01

     total cpu time spent up to now is      443.6 secs

     total energy              =  -42651.84634394 Ry
     estimated scf accuracy    <       0.17093487 Ry

     total magnetization       =     0.28 Bohr mag/cell
     absolute magnetization    =   228.43 Bohr mag/cell

     iteration # 21     ecut=    71.00 Ry     beta= 0.30
     Davidson diagonalization with overlap
     ethr =  8.27E-06,  avg # of iterations = 15.0

     negative rho (up, down):  8.825E-02 8.665E-02

     total cpu time spent up to now is      469.6 secs

     total energy              =  -42651.85518437 Ry
     estimated scf accuracy    <       0.07307235 Ry

     total magnetization       =     0.10 Bohr mag/cell
     absolute magnetization    =   228.25 Bohr mag/cell

     iteration # 22     ecut=    71.00 Ry     beta= 0.30
     Davidson diagonalization with overlap
     ethr =  3.54E-06,  avg # of iterations =  2.0

     negative rho (up, down):  3.466E-02 3.378E-02

     total cpu time spent up to now is      490.4 secs

     total energy              =  -42651.86617162 Ry
     estimated scf accuracy    <       0.04762719 Ry

     total magnetization       =     0.06 Bohr mag/cell
     absolute magnetization    =   228.19 Bohr mag/cell

     iteration # 23     ecut=    71.00 Ry     beta= 0.30
     Davidson diagonalization with overlap
     ethr =  2.31E-06,  avg # of iterations =  6.5

     negative rho (up, down):  3.412E-02 3.326E-02

     total cpu time spent up to now is      513.0 secs

     total energy              =  -42651.87534842 Ry
     estimated scf accuracy    <       0.04160214 Ry

     total magnetization       =    -0.08 Bohr mag/cell
     absolute magnetization    =   228.15 Bohr mag/cell

     iteration # 24     ecut=    71.00 Ry     beta= 0.30
     Davidson diagonalization with overlap
     ethr =  2.01E-06,  avg # of iterations =  2.0

     negative rho (up, down):  2.513E-02 2.453E-02

     total cpu time spent up to now is      533.7 secs

     total energy              =  -42651.88616012 Ry
     estimated scf accuracy    <       0.02176623 Ry

     total magnetization       =    -0.10 Bohr mag/cell
     absolute magnetization    =   228.26 Bohr mag/cell

     iteration # 25     ecut=    71.00 Ry     beta= 0.30
     Davidson diagonalization with overlap
     ethr =  1.05E-06,  avg # of iterations =  2.0

     negative rho (up, down):  1.549E-02 1.522E-02

     total cpu time spent up to now is      554.4 secs

     total energy              =  -42651.89659885 Ry
     estimated scf accuracy    <       0.01234282 Ry

     total magnetization       =    -0.09 Bohr mag/cell
     absolute magnetization    =   228.43 Bohr mag/cell

     iteration # 26     ecut=    71.00 Ry     beta= 0.30
     Davidson diagonalization with overlap
     ethr =  5.97E-07,  avg # of iterations =  2.0

     negative rho (up, down):  1.344E-02 1.322E-02

     total cpu time spent up to now is      576.0 secs

     total energy              =  -42651.90378948 Ry
     estimated scf accuracy    <       0.00974625 Ry

     total magnetization       =    -0.11 Bohr mag/cell
     absolute magnetization    =   228.57 Bohr mag/cell

     iteration # 27     ecut=    71.00 Ry     beta= 0.30
     Davidson diagonalization with overlap
     ethr =  4.72E-07,  avg # of iterations =  4.0

     negative rho (up, down):  1.216E-02 1.196E-02

     total cpu time spent up to now is      599.1 secs

     total energy              =  -42651.90490496 Ry
     estimated scf accuracy    <       0.00311872 Ry

     total magnetization       =    -0.09 Bohr mag/cell
     absolute magnetization    =   228.85 Bohr mag/cell

     iteration # 28     ecut=    71.00 Ry     beta= 0.30
     Davidson diagonalization with overlap
     ethr =  1.51E-07,  avg # of iterations =  2.0

     negative rho (up, down):  1.060E-02 1.042E-02

     total cpu time spent up to now is      619.8 secs

     total energy              =  -42651.90538544 Ry
     estimated scf accuracy    <       0.00230884 Ry

     total magnetization       =    -0.09 Bohr mag/cell
     absolute magnetization    =   228.88 Bohr mag/cell

     iteration # 29     ecut=    71.00 Ry     beta= 0.30
     Davidson diagonalization with overlap
     ethr =  1.12E-07,  avg # of iterations =  2.0

     negative rho (up, down):  9.871E-03 9.708E-03

     total cpu time spent up to now is      640.5 secs

     total energy              =  -42651.90615183 Ry
     estimated scf accuracy    <       0.00162680 Ry

     total magnetization       =    -0.08 Bohr mag/cell
     absolute magnetization    =   228.91 Bohr mag/cell

     iteration # 30     ecut=    71.00 Ry     beta= 0.30
     Davidson diagonalization with overlap
     ethr =  7.87E-08,  avg # of iterations =  2.0

     negative rho (up, down):  8.753E-03 8.634E-03

     total cpu time spent up to now is      661.6 secs

     total energy              =  -42651.90707667 Ry
     estimated scf accuracy    <       0.00139165 Ry

     total magnetization       =    -0.08 Bohr mag/cell
     absolute magnetization    =   228.98 Bohr mag/cell

     iteration # 31     ecut=    71.00 Ry     beta= 0.30
     Davidson diagonalization with overlap
     ethr =  6.74E-08,  avg # of iterations =  2.0

     negative rho (up, down):  8.257E-03 8.167E-03

     total cpu time spent up to now is      682.6 secs

     total energy              =  -42651.90746473 Ry
     estimated scf accuracy    <       0.00086666 Ry

     total magnetization       =    -0.07 Bohr mag/cell
     absolute magnetization    =   229.08 Bohr mag/cell

     iteration # 32     ecut=    71.00 Ry     beta= 0.30
     Davidson diagonalization with overlap
     ethr =  4.19E-08,  avg # of iterations =  2.0

     negative rho (up, down):  8.461E-03 8.380E-03

     total cpu time spent up to now is      703.5 secs

     total energy              =  -42651.90767224 Ry
     estimated scf accuracy    <       0.00074386 Ry

     total magnetization       =    -0.07 Bohr mag/cell
     absolute magnetization    =   229.15 Bohr mag/cell

     iteration # 33     ecut=    71.00 Ry     beta= 0.30
     Davidson diagonalization with overlap
     ethr =  3.60E-08,  avg # of iterations =  2.0

     negative rho (up, down):  6.972E-03 6.928E-03

     total cpu time spent up to now is      724.6 secs

     total energy              =  -42651.90778384 Ry
     estimated scf accuracy    <       0.00057917 Ry

     total magnetization       =    -0.07 Bohr mag/cell
     absolute magnetization    =   229.18 Bohr mag/cell

     iteration # 34     ecut=    71.00 Ry     beta= 0.30
     Davidson diagonalization with overlap
     ethr =  2.80E-08,  avg # of iterations =  3.5

     negative rho (up, down):  4.145E-03 4.178E-03

     total cpu time spent up to now is      746.2 secs

     total energy              =  -42651.90768856 Ry
     estimated scf accuracy    <       0.00047492 Ry

     total magnetization       =    -0.06 Bohr mag/cell
     absolute magnetization    =   229.26 Bohr mag/cell

     iteration # 35     ecut=    71.00 Ry     beta= 0.30
     Davidson diagonalization with overlap
     ethr =  2.30E-08,  avg # of iterations =  2.0

     negative rho (up, down):  3.822E-03 3.923E-03

     total cpu time spent up to now is      766.9 secs

     total energy              =  -42651.90783423 Ry
     estimated scf accuracy    <       0.00043106 Ry

     total magnetization       =    -0.06 Bohr mag/cell
     absolute magnetization    =   229.34 Bohr mag/cell

     iteration # 36     ecut=    71.00 Ry     beta= 0.30
     Davidson diagonalization with overlap
     ethr =  2.09E-08,  avg # of iterations =  3.5

     negative rho (up, down):  3.491E-03 3.607E-03

     total cpu time spent up to now is      789.0 secs

     total energy              =  -42651.90786054 Ry
     estimated scf accuracy    <       0.00031118 Ry

     total magnetization       =    -0.05 Bohr mag/cell
     absolute magnetization    =   229.42 Bohr mag/cell

     iteration # 37     ecut=    71.00 Ry     beta= 0.30
     Davidson diagonalization with overlap
     ethr =  1.51E-08,  avg # of iterations =  2.0

     negative rho (up, down):  5.178E-03 5.314E-03

     total cpu time spent up to now is      810.0 secs

     total energy              =  -42651.90793993 Ry
     estimated scf accuracy    <       0.00027814 Ry

     total magnetization       =    -0.05 Bohr mag/cell
     absolute magnetization    =   229.45 Bohr mag/cell

     iteration # 38     ecut=    71.00 Ry     beta= 0.30
     Davidson diagonalization with overlap
     ethr =  1.35E-08,  avg # of iterations =  4.0

     negative rho (up, down):  5.787E-03 5.932E-03

     total cpu time spent up to now is      832.0 secs

     total energy              =  -42651.90798069 Ry
     estimated scf accuracy    <       0.00018915 Ry

     total magnetization       =    -0.05 Bohr mag/cell
     absolute magnetization    =   229.53 Bohr mag/cell

     iteration # 39     ecut=    71.00 Ry     beta= 0.30
     Davidson diagonalization with overlap
     ethr =  9.16E-09,  avg # of iterations =  2.0

     negative rho (up, down):  6.071E-03 6.220E-03

     total cpu time spent up to now is      853.3 secs

     total energy              =  -42651.90799429 Ry
     estimated scf accuracy    <       0.00019147 Ry

     total magnetization       =    -0.06 Bohr mag/cell
     absolute magnetization    =   229.55 Bohr mag/cell

     iteration # 40     ecut=    71.00 Ry     beta= 0.30
     Davidson diagonalization with overlap
     ethr =  9.16E-09,  avg # of iterations =  2.0

     negative rho (up, down):  3.960E-03 4.116E-03

     total cpu time spent up to now is      874.2 secs

     total energy              =  -42651.90801383 Ry
     estimated scf accuracy    <       0.00011142 Ry

     total magnetization       =    -0.06 Bohr mag/cell
     absolute magnetization    =   229.57 Bohr mag/cell

     iteration # 41     ecut=    71.00 Ry     beta= 0.30
     Davidson diagonalization with overlap
     ethr =  5.39E-09,  avg # of iterations =  3.0

     negative rho (up, down):  4.237E-03 4.393E-03

     total cpu time spent up to now is      896.1 secs

     total energy              =  -42651.90801084 Ry
     estimated scf accuracy    <       0.00006211 Ry

     total magnetization       =    -0.06 Bohr mag/cell
     absolute magnetization    =   229.58 Bohr mag/cell

     iteration # 42     ecut=    71.00 Ry     beta= 0.30
     Davidson diagonalization with overlap
     ethr =  3.01E-09,  avg # of iterations =  2.0

     negative rho (up, down):  3.541E-03 3.696E-03

     total cpu time spent up to now is      917.3 secs

     total energy              =  -42651.90803336 Ry
     estimated scf accuracy    <       0.00006277 Ry

     total magnetization       =    -0.06 Bohr mag/cell
     absolute magnetization    =   229.58 Bohr mag/cell

     iteration # 43     ecut=    71.00 Ry     beta= 0.30
     Davidson diagonalization with overlap
     ethr =  3.01E-09,  avg # of iterations =  2.0

     negative rho (up, down):  2.471E-03 2.625E-03

     total cpu time spent up to now is      938.4 secs

     total energy              =  -42651.90808135 Ry
     estimated scf accuracy    <       0.00003653 Ry

     total magnetization       =    -0.07 Bohr mag/cell
     absolute magnetization    =   229.59 Bohr mag/cell

     iteration # 44     ecut=    71.00 Ry     beta= 0.30
     Davidson diagonalization with overlap
     ethr =  1.77E-09,  avg # of iterations =  4.0

     negative rho (up, down):  1.760E-03 1.915E-03

     total cpu time spent up to now is      961.2 secs

     total energy              =  -42651.90810859 Ry
     estimated scf accuracy    <       0.00002154 Ry

     total magnetization       =    -0.06 Bohr mag/cell
     absolute magnetization    =   229.58 Bohr mag/cell

     iteration # 45     ecut=    71.00 Ry     beta= 0.30
     Davidson diagonalization with overlap
     ethr =  1.04E-09,  avg # of iterations =  5.0

     negative rho (up, down):  1.571E-03 1.727E-03

     total cpu time spent up to now is      985.5 secs

     total energy              =  -42651.90810832 Ry
     estimated scf accuracy    <       0.00001751 Ry

     total magnetization       =    -0.06 Bohr mag/cell
     absolute magnetization    =   229.55 Bohr mag/cell

     iteration # 46     ecut=    71.00 Ry     beta= 0.30
     Davidson diagonalization with overlap
     ethr =  8.48E-10,  avg # of iterations =  4.0

     negative rho (up, down):  1.540E-03 1.696E-03

     total cpu time spent up to now is     1007.0 secs

     total energy              =  -42651.90811261 Ry
     estimated scf accuracy    <       0.00000888 Ry

     total magnetization       =    -0.06 Bohr mag/cell
     absolute magnetization    =   229.55 Bohr mag/cell

     iteration # 47     ecut=    71.00 Ry     beta= 0.30
     Davidson diagonalization with overlap
     ethr =  4.30E-10,  avg # of iterations =  2.0

     negative rho (up, down):  1.474E-03 1.630E-03

     total cpu time spent up to now is     1028.1 secs

     total energy              =  -42651.90811248 Ry
     estimated scf accuracy    <       0.00000821 Ry

     total magnetization       =    -0.07 Bohr mag/cell
     absolute magnetization    =   229.54 Bohr mag/cell

     iteration # 48     ecut=    71.00 Ry     beta= 0.30
     Davidson diagonalization with overlap
     ethr =  3.97E-10,  avg # of iterations =  3.5

     negative rho (up, down):  1.474E-03 1.630E-03

     total cpu time spent up to now is     1049.9 secs

     total energy              =  -42651.90811628 Ry
     estimated scf accuracy    <       0.00000413 Ry

     total magnetization       =    -0.06 Bohr mag/cell
     absolute magnetization    =   229.53 Bohr mag/cell

     iteration # 49     ecut=    71.00 Ry     beta= 0.30
     Davidson diagonalization with overlap
     ethr =  2.00E-10,  avg # of iterations =  2.5

     negative rho (up, down):  1.525E-03 1.680E-03

     total cpu time spent up to now is     1070.9 secs

     total energy              =  -42651.90812180 Ry
     estimated scf accuracy    <       0.00000392 Ry

     total magnetization       =    -0.06 Bohr mag/cell
     absolute magnetization    =   229.53 Bohr mag/cell

     iteration # 50     ecut=    71.00 Ry     beta= 0.30
     Davidson diagonalization with overlap
     ethr =  1.90E-10,  avg # of iterations =  3.0

     negative rho (up, down):  1.580E-03 1.735E-03

     total cpu time spent up to now is     1092.6 secs

     total energy              =  -42651.90812584 Ry
     estimated scf accuracy    <       0.00000282 Ry

     total magnetization       =    -0.06 Bohr mag/cell
     absolute magnetization    =   229.53 Bohr mag/cell

     iteration # 51     ecut=    71.00 Ry     beta= 0.30
     Davidson diagonalization with overlap
     ethr =  1.37E-10,  avg # of iterations =  3.5

     negative rho (up, down):  1.677E-03 1.833E-03

     total cpu time spent up to now is     1114.4 secs

     total energy              =  -42651.90812939 Ry
     estimated scf accuracy    <       0.00000268 Ry

     total magnetization       =    -0.06 Bohr mag/cell
     absolute magnetization    =   229.53 Bohr mag/cell

     iteration # 52     ecut=    71.00 Ry     beta= 0.30
     Davidson diagonalization with overlap
     ethr =  1.30E-10,  avg # of iterations =  4.0

     negative rho (up, down):  1.727E-03 1.883E-03

     total cpu time spent up to now is     1137.3 secs

     total energy              =  -42651.90813042 Ry
     estimated scf accuracy    <       0.00000157 Ry

     total magnetization       =    -0.06 Bohr mag/cell
     absolute magnetization    =   229.53 Bohr mag/cell

     iteration # 53     ecut=    71.00 Ry     beta= 0.30
     Davidson diagonalization with overlap
     ethr =  7.60E-11,  avg # of iterations =  3.0

     negative rho (up, down):  1.765E-03 1.921E-03

     total cpu time spent up to now is     1158.4 secs

     total energy              =  -42651.90813147 Ry
     estimated scf accuracy    <       0.00000127 Ry

     total magnetization       =    -0.06 Bohr mag/cell
     absolute magnetization    =   229.53 Bohr mag/cell

     iteration # 54     ecut=    71.00 Ry     beta= 0.30
     Davidson diagonalization with overlap
     ethr =  6.14E-11,  avg # of iterations =  4.0

     negative rho (up, down):  1.784E-03 1.940E-03

     total cpu time spent up to now is     1180.3 secs

     total energy              =  -42651.90813188 Ry
     estimated scf accuracy    <       0.00000107 Ry

     total magnetization       =    -0.06 Bohr mag/cell
     absolute magnetization    =   229.53 Bohr mag/cell

     iteration # 55     ecut=    71.00 Ry     beta= 0.30
     Davidson diagonalization with overlap
     ethr =  5.18E-11,  avg # of iterations =  2.0

     negative rho (up, down):  1.761E-03 1.917E-03

     total cpu time spent up to now is     1201.3 secs

     total energy              =  -42651.90813298 Ry
     estimated scf accuracy    <       0.00000076 Ry

     total magnetization       =    -0.06 Bohr mag/cell
     absolute magnetization    =   229.53 Bohr mag/cell

     iteration # 56     ecut=    71.00 Ry     beta= 0.30
     Davidson diagonalization with overlap
     ethr =  3.66E-11,  avg # of iterations =  3.5

     negative rho (up, down):  1.746E-03 1.902E-03

     total cpu time spent up to now is     1223.4 secs

     total energy              =  -42651.90813349 Ry
     estimated scf accuracy    <       0.00000060 Ry

     total magnetization       =    -0.06 Bohr mag/cell
     absolute magnetization    =   229.52 Bohr mag/cell

     iteration # 57     ecut=    71.00 Ry     beta= 0.30
     Davidson diagonalization with overlap
     ethr =  2.89E-11,  avg # of iterations =  2.5

     negative rho (up, down):  1.772E-03 1.929E-03

     total cpu time spent up to now is     1244.3 secs

     total energy              =  -42651.90813384 Ry
     estimated scf accuracy    <       0.00000051 Ry

     total magnetization       =    -0.06 Bohr mag/cell
     absolute magnetization    =   229.52 Bohr mag/cell

     iteration # 58     ecut=    71.00 Ry     beta= 0.30
     Davidson diagonalization with overlap
     ethr =  2.46E-11,  avg # of iterations =  4.0

     negative rho (up, down):  1.733E-03 1.890E-03

     total cpu time spent up to now is     1268.5 secs

     total energy              =  -42651.90813435 Ry
     estimated scf accuracy    <       0.00000031 Ry

     total magnetization       =    -0.06 Bohr mag/cell
     absolute magnetization    =   229.52 Bohr mag/cell

     iteration # 59     ecut=    71.00 Ry     beta= 0.30
     Davidson diagonalization with overlap
     ethr =  1.49E-11,  avg # of iterations =  4.5

     negative rho (up, down):  1.772E-03 1.929E-03

     total cpu time spent up to now is     1291.6 secs

     total energy              =  -42651.90813430 Ry
     estimated scf accuracy    <       0.00000025 Ry

     total magnetization       =    -0.06 Bohr mag/cell
     absolute magnetization    =   229.51 Bohr mag/cell

     iteration # 60     ecut=    71.00 Ry     beta= 0.30
     Davidson diagonalization with overlap
     ethr =  1.23E-11,  avg # of iterations =  4.5

     negative rho (up, down):  1.777E-03 1.933E-03

     total cpu time spent up to now is     1315.3 secs

     total energy              =  -42651.90813433 Ry
     estimated scf accuracy    <       0.00000017 Ry

     total magnetization       =    -0.06 Bohr mag/cell
     absolute magnetization    =   229.51 Bohr mag/cell

     iteration # 61     ecut=    71.00 Ry     beta= 0.30
     Davidson diagonalization with overlap
     ethr =  8.09E-12,  avg # of iterations =  2.0

     negative rho (up, down):  1.714E-03 1.870E-03
 
     Magnetic moment per site:
     atom:    1    charge:   15.5100    magn:   -0.0077    constr:    0.0000
     atom:    2    charge:   14.1547    magn:    2.0055    constr:    0.0000
     atom:    3    charge:   14.1743    magn:   -2.0120    constr:    0.0000
     atom:    4    charge:   14.2060    magn:    1.4117    constr:    0.0000
     atom:    5    charge:   14.2342    magn:   -1.3375    constr:    0.0000
     atom:    6    charge:   14.2303    magn:    0.9375    constr:    0.0000
     atom:    7    charge:   14.2500    magn:   -0.9079    constr:    0.0000
     atom:    8    charge:   14.0998    magn:    2.3142    constr:    0.0000
     atom:    9    charge:   14.1157    magn:   -2.3190    constr:    0.0000
     atom:   10    charge:   14.1080    magn:    2.2284    constr:    0.0000
     atom:   11    charge:   14.1384    magn:   -2.1565    constr:    0.0000
     atom:   12    charge:   14.2262    magn:    1.1241    constr:    0.0000
     atom:   13    charge:   14.2379    magn:   -1.2292    constr:    0.0000
     atom:   14    charge:   14.2246    magn:    0.9682    constr:    0.0000
     atom:   15    charge:   14.2417    magn:   -0.9405    constr:    0.0000
     atom:   16    charge:   14.0986    magn:    2.3161    constr:    0.0000
     atom:   17    charge:   14.1159    magn:   -2.3017    constr:    0.0000
     atom:   18    charge:   14.1109    magn:    2.2174    constr:    0.0000
     atom:   19    charge:   14.1292    magn:   -2.2108    constr:    0.0000
     atom:   20    charge:   14.2182    magn:    1.2123    constr:    0.0000
     atom:   21    charge:   14.2375    magn:   -1.2051    constr:    0.0000
     atom:   22    charge:   14.2171    magn:    1.0382    constr:    0.0000
     atom:   23    charge:   14.2350    magn:   -1.0602    constr:    0.0000
     atom:   24    charge:   14.1025    magn:    2.2817    constr:    0.0000
     atom:   25    charge:   14.1185    magn:   -2.2872    constr:    0.0000
     atom:   26    charge:   14.1212    magn:    2.1512    constr:    0.0000
     atom:   27    charge:   14.1030    magn:   -2.2985    constr:    0.0000
     atom:   28    charge:   14.2149    magn:    1.2657    constr:    0.0000
     atom:   29    charge:   14.2378    magn:   -1.2304    constr:    0.0000
     atom:   30    charge:   14.2215    magn:    0.9456    constr:    0.0000
     atom:   31    charge:   14.2437    magn:   -0.9512    constr:    0.0000
     atom:   32    charge:   14.1000    magn:    2.2943    constr:    0.0000
     atom:   33    charge:   14.1146    magn:   -2.3231    constr:    0.0000
     atom:   34    charge:   14.0768    magn:    2.3540    constr:    0.0000
     atom:   35    charge:   14.1334    magn:   -2.2171    constr:    0.0000
     atom:   36    charge:   14.2187    magn:    0.8203    constr:    0.0000
     atom:   37    charge:   14.2382    magn:   -1.2404    constr:    0.0000
     atom:   38    charge:   14.2269    magn:    1.0738    constr:    0.0000
     atom:   39    charge:   14.2463    magn:   -1.1027    constr:    0.0000
     atom:   40    charge:   14.1094    magn:    2.2241    constr:    0.0000
     atom:   41    charge:   14.1284    magn:   -2.2599    constr:    0.0000
     atom:   42    charge:   14.1109    magn:    2.2298    constr:    0.0000
     atom:   43    charge:   14.1237    magn:   -2.2569    constr:    0.0000
     atom:   44    charge:   14.2216    magn:    1.1078    constr:    0.0000
     atom:   45    charge:   14.2412    magn:   -1.1637    constr:    0.0000
     atom:   46    charge:   14.2277    magn:    1.0030    constr:    0.0000
     atom:   47    charge:   14.2421    magn:   -1.0933    constr:    0.0000
     atom:   48    charge:   14.1131    magn:    2.2316    constr:    0.0000
     atom:   49    charge:   14.1241    magn:   -2.2681    constr:    0.0000
     atom:   50    charge:   14.1104    magn:    2.2404    constr:    0.0000
     atom:   51    charge:   14.1214    magn:   -2.2902    constr:    0.0000
     atom:   52    charge:   14.2247    magn:    0.9788    constr:    0.0000
     atom:   53    charge:   14.2404    magn:   -1.0393    constr:    0.0000
     atom:   54    charge:   14.2197    magn:    1.0757    constr:    0.0000
     atom:   55    charge:   14.2357    magn:   -1.1995    constr:    0.0000
     atom:   56    charge:   14.1145    magn:    2.1982    constr:    0.0000
     atom:   57    charge:   14.1232    magn:   -2.2487    constr:    0.0000
     atom:   58    charge:   14.1068    magn:    2.2586    constr:    0.0000
     atom:   59    charge:   14.1186    magn:   -2.2913    constr:    0.0000
     atom:   60    charge:   14.2224    magn:    0.9430    constr:    0.0000
     atom:   61    charge:   14.2283    magn:   -1.2218    constr:    0.0000
     atom:   62    charge:   14.2150    magn:    1.1927    constr:    0.0000
     atom:   63    charge:   14.2340    magn:   -1.2027    constr:    0.0000
     atom:   64    charge:   14.1121    magn:    2.1962    constr:    0.0000
     atom:   65    charge:   14.1194    magn:   -2.2728    constr:    0.0000
     atom:   66    charge:   14.1007    magn:    2.2997    constr:    0.0000
     atom:   67    charge:   14.1178    magn:   -2.2873    constr:    0.0000
     atom:   68    charge:   14.2196    magn:    1.0541    constr:    0.0000
     atom:   69    charge:   14.2374    magn:   -1.1039    constr:    0.0000
     atom:   70    charge:   14.2153    magn:    1.1933    constr:    0.0000
     atom:   71    charge:   14.2377    magn:   -1.1232    constr:    0.0000
     atom:   72    charge:   14.1141    magn:    2.2057    constr:    0.0000
     atom:   73    charge:   14.1294    magn:   -2.2209    constr:    0.0000
     atom:   74    charge:   14.1045    magn:    2.2692    constr:    0.0000
     atom:   75    charge:   14.1154    magn:   -2.3143    constr:    0.0000
     atom:   76    charge:   14.2165    magn:    1.0723    constr:    0.0000
     atom:   77    charge:   14.2410    magn:   -1.0560    constr:    0.0000
     atom:   78    charge:   14.2205    magn:    1.1525    constr:    0.0000
     atom:   79    charge:   14.2351    magn:   -1.2531    constr:    0.0000
     atom:   80    charge:   14.1067    magn:    2.2317    constr:    0.0000
     atom:   81    charge:   14.1321    magn:   -2.1930    constr:    0.0000
     atom:   82    charge:   14.1020    magn:    2.3038    constr:    0.0000
     atom:   83    charge:   14.1189    magn:   -2.3029    constr:    0.0000
     atom:   84    charge:   14.2268    magn:    0.9041    constr:    0.0000
     atom:   85    charge:   14.2453    magn:   -0.9176    constr:    0.0000
     atom:   86    charge:   14.2159    magn:    1.2947    constr:    0.0000
     atom:   87    charge:   14.2356    magn:   -1.2794    constr:    0.0000
     atom:   88    charge:   14.1212    magn:    2.1432    constr:    0.0000
     atom:   89    charge:   14.1381    magn:   -2.1468    constr:    0.0000
     atom:   90    charge:   14.0977    magn:    2.3202    constr:    0.0000
     atom:   91    charge:   14.1219    magn:   -2.2663    constr:    0.0000
     atom:   92    charge:   14.2217    magn:    1.0547    constr:    0.0000
     atom:   93    charge:   14.2350    magn:   -1.0785    constr:    0.0000
     atom:   94    charge:   14.2157    magn:    1.2575    constr:    0.0000
     atom:   95    charge:   14.2399    magn:   -1.1330    constr:    0.0000
     atom:   96    charge:   14.1158    magn:    2.1868    constr:    0.0000
     atom:   97    charge:   14.1230    magn:   -2.2336    constr:    0.0000
     atom:   98    charge:   14.1137    magn:    2.2304    constr:    0.0000
     atom:   99    charge:   14.1195    magn:   -2.2667    constr:    0.0000
     atom:  100    charge:   14.2249    magn:    1.2149    constr:    0.0000
     atom:  101    charge:   14.2403    magn:   -1.0221    constr:    0.0000
     atom:  102    charge:   14.2275    magn:    1.1348    constr:    0.0000
     atom:  103    charge:   14.2477    magn:   -1.0225    constr:    0.0000
     atom:  104    charge:   14.1124    magn:    2.2551    constr:    0.0000
     atom:  105    charge:   14.1249    magn:   -2.2415    constr:    0.0000
     atom:  106    charge:   14.1033    magn:    2.2763    constr:    0.0000
     atom:  107    charge:   14.1265    magn:   -2.2396    constr:    0.0000
     atom:  108    charge:   14.2188    magn:    1.1421    constr:    0.0000
     atom:  109    charge:   14.2417    magn:   -0.9681    constr:    0.0000
     atom:  110    charge:   14.2174    magn:    1.1942    constr:    0.0000
     atom:  111    charge:   14.2357    magn:   -1.1685    constr:    0.0000
     atom:  112    charge:   14.1033    magn:    2.2684    constr:    0.0000
     atom:  113    charge:   14.1277    magn:   -2.2095    constr:    0.0000
     atom:  114    charge:   14.1044    magn:    2.2891    constr:    0.0000
     atom:  115    charge:   14.1284    magn:   -2.2308    constr:    0.0000
     atom:  116    charge:   14.2210    magn:    1.0616    constr:    0.0000
     atom:  117    charge:   14.2429    magn:   -1.0090    constr:    0.0000
     atom:  118    charge:   14.2169    magn:    1.1951    constr:    0.0000
     atom:  119    charge:   14.2392    magn:   -1.0544    constr:    0.0000
     atom:  120    charge:   14.1066    magn:    2.2490    constr:    0.0000
     atom:  121    charge:   14.1307    magn:   -2.2061    constr:    0.0000
     atom:  122    charge:   14.1064    magn:    2.2584    constr:    0.0000
     atom:  123    charge:   14.1290    magn:   -2.2187    constr:    0.0000
     atom:  124    charge:   14.2216    magn:    1.1647    constr:    0.0000
     atom:  125    charge:   14.2400    magn:   -1.1187    constr:    0.0000
     atom:  126    charge:   14.2230    magn:    1.0936    constr:    0.0000
     atom:  127    charge:   14.2470    magn:   -0.9635    constr:    0.0000
     atom:  128    charge:   14.1079    magn:    2.2638    constr:    0.0000
     atom:  129    charge:   14.1286    magn:   -2.2432    constr:    0.0000

     total cpu time spent up to now is     1336.0 secs

     End of self-consistent calculation

 ------ SPIN UP ------------


          k = 0.0000 0.0000 0.0000 ( 91909 PWs)   bands (ev):

   -80.3675 -80.3022 -80.3000 -80.2977 -80.2941 -80.2935 -80.2828 -80.2815
   -80.2759 -80.2650 -80.2639 -80.2621 -80.2617 -80.2591 -80.2585 -80.2559
   -80.2541 -80.2515 -80.2493 -80.2431 -80.2387 -80.2340 -80.2319 -80.2306
   -80.2210 -80.2101 -80.2084 -80.2065 -80.2026 -80.1816 -80.1769 -80.1698
   -79.7701 -79.6932 -79.6696 -79.6644 -79.6363 -79.6324 -79.6251 -79.6231
   -79.6221 -79.6160 -79.6091 -79.5971 -79.5848 -79.5846 -79.5799 -79.5642
   -79.5548 -79.5443 -79.5415 -79.5359 -79.5329 -79.5268 -79.5207 -79.5090
   -79.4938 -79.4763 -79.4693 -79.4516 -79.4504 -79.4499 -79.4265 -79.3705
   -78.3871 -78.3825 -78.3695 -78.3642 -78.3615 -78.3585 -78.3430 -78.3414
   -78.3278 -78.3261 -78.3140 -78.3126 -78.3051 -78.3050 -78.3044 -78.2938
   -78.2903 -78.2886 -78.2748 -78.2683 -78.2629 -78.2585 -78.2435 -78.2412
   -78.2405 -78.2371 -78.2294 -78.2225 -78.2205 -78.2148 -78.2069 -78.1844
   -77.8617 -77.7078 -77.7066 -77.6983 -77.6880 -77.6854 -77.6824 -77.6781
   -77.6766 -77.6753 -77.6723 -77.6722 -77.6720 -77.6684 -77.6666 -77.6663
   -77.6652 -77.6651 -77.6648 -77.6585 -77.6572 -77.6557 -77.6553 -77.6509
   -77.6494 -77.6486 -77.6446 -77.6436 -77.6425 -77.6391 -77.6363 -77.6360
   -75.4979 -46.5154 -46.4602 -46.4577 -46.4546 -46.4502 -46.4440 -46.4415
   -46.4360 -46.4301 -46.4270 -46.4208 -46.4193 -46.4186 -46.4181 -46.4178
   -46.4168 -46.4131 -46.4129 -46.4075 -46.4038 -46.4020 -46.3977 -46.3951
   -46.3889 -46.3874 -46.3771 -46.3698 -46.3673 -46.3643 -46.3639 -46.3629
   -46.3604 -46.3601 -46.3557 -46.3542 -46.3500 -46.3491 -46.3463 -46.3421
   -46.3417 -46.3412 -46.3306 -46.3304 -46.3292 -46.3284 -46.3275 -46.3251
   -46.3230 -46.3212 -46.3185 -46.3152 -46.3144 -46.3075 -46.3068 -46.2963
   -46.2955 -46.2919 -46.2832 -46.2780 -46.2743 -46.2724 -46.2722 -46.2711
   -46.2690 -46.2672 -46.2672 -46.2671 -46.2562 -46.2528 -46.2463 -46.2458
   -46.2401 -46.2384 -46.2373 -46.2365 -46.2362 -46.2333 -46.2311 -46.2285
   -46.2251 -46.2246 -46.2239 -46.2205 -46.2158 -46.2155 -46.2133 -46.2098
   -46.2075 -46.2037 -46.1920 -46.1893 -46.1871 -46.1823 -46.1659 -46.1645
   -46.1559 -45.8623 -45.8490 -45.8059 -45.7824 -45.7793 -45.7653 -45.7614
   -45.7520 -45.7490 -45.7437 -45.7414 -45.7367 -45.7342 -45.7336 -45.7270
   -45.7261 -45.7247 -45.7238 -45.7206 -45.7176 -45.7161 -45.7042 -45.7028
   -45.7008 -45.6975 -45.6964 -45.6949 -45.6943 -45.6926 -45.6910 -45.6895
   -45.6866 -45.6853 -45.6817 -45.6810 -45.6739 -45.6725 -45.6702 -45.6632
   -45.6622 -45.6619 -45.6562 -45.6543 -45.6526 -45.6481 -45.6406 -45.6366
   -45.6262 -45.6182 -45.6071 -45.6062 -45.6049 -45.5967 -45.5936 -45.5875
   -45.5838 -45.5788 -45.5787 -45.5756 -45.5691 -45.5683 -45.5676 -45.5671
   -45.5599 -45.5519 -45.5517 -45.5486 -45.5437 -45.5318 -45.5305 -45.5294
   -45.5268 -45.5233 -45.5220 -45.5217 -45.5209 -45.5196 -45.5183 -45.5175
   -45.5071 -45.5061 -45.5044 -45.5027 -45.4991 -45.4965 -45.4881 -45.4762
   -45.4758 -45.4679 -45.4632 -45.4597 -45.4592 -45.4548 -45.4409 -45.4148
   -45.3938 -44.5096 -44.5057 -44.5055 -44.5044 -44.4958 -44.4925 -44.4896
   -44.4868 -44.4863 -44.4849 -44.4817 -44.4811 -44.4792 -44.4779 -44.4757
   -44.4719 -44.4705 -44.4685 -44.4651 -44.4631 -44.4600 -44.4583 -44.4573
   -44.4565 -44.4548 -44.4543 -44.4518 -44.4511 -44.4482 -44.4474 -44.4443
   -44.4441 -44.4429 -44.4401 -44.4393 -44.4337 -44.4273 -44.4266 -44.4248
   -44.4244 -44.4210 -44.4190 -44.4181 -44.4156 -44.4104 -44.4101 -44.4097
   -44.4024 -44.3986 -44.3910 -44.3882 -44.3855 -44.3785 -44.3662 -44.3534
   -44.3530 -44.3501 -44.3479 -44.3412 -44.3381 -44.3306 -44.3295 -44.3265
   -44.3257 -44.3252 -44.3245 -44.3235 -44.3214 -44.3156 -44.3108 -44.3088
   -44.3054 -44.3031 -44.3023 -44.3004 -44.2977 -44.2954 -44.2916 -44.2909
   -44.2884 -44.2876 -44.2864 -44.2833 -44.2807 -44.2801 -44.2792 -44.2776
   -44.2770 -44.2746 -44.2742 -44.2614 -44.2613 -44.2594 -44.2572 -44.2463
   -44.2434 -44.0393 -43.9253 -43.8864 -43.8854 -43.8720 -43.8693 -43.8623
   -43.8524 -43.8503 -43.8498 -43.8482 -43.8451 -43.8419 -43.8414 -43.8393
   -43.8386 -43.8349 -43.8331 -43.8322 -43.8319 -43.8309 -43.8242 -43.8213
   -43.8210 -43.8199 -43.8132 -43.8123 -43.8085 -43.8069 -43.8057 -43.8045
   -43.7971 -43.7969 -43.7942 -43.7941 -43.7912 -43.7864 -43.7851 -43.7747
   -43.7724 -43.7660 -43.7641 -43.7613 -43.7609 -43.7595 -43.7588 -43.7562
   -43.7553 -43.7533 -43.7531 -43.7522 -43.7492 -43.7469 -43.7452 -43.7443
   -43.7437 -43.7421 -43.7419 -43.7384 -43.7359 -43.7355 -43.7317 -43.7292
   -43.7267 -43.7245 -43.7161 -43.7153 -43.7150 -43.7042 -43.7009 -43.7005
   -43.7000 -43.6987 -43.6981 -43.6981 -43.6968 -43.6960 -43.6952 -43.6938
   -43.6929 -43.6912 -43.6907 -43.6897 -43.6884 -43.6862 -43.6845 -43.6841
   -43.6835 -43.6810 -43.6794 -43.6771 -43.6757 -43.6752 -43.6750 -43.6729
   -43.6724 -41.4292 -41.2344 -41.0998  -0.2063   0.5605   0.5674   0.6431
     0.6455   1.3211   1.3249   1.3285   1.3295   1.4588   2.1423   2.1667
     2.2264   2.2388   2.3738   2.5616   2.6801   2.6829   2.6967   2.7143
     2.7192   2.7232   2.9097   2.9127   2.9759   2.9776   3.0511   3.0513
     3.0540   3.0553   3.0842   3.0977   3.3299   3.3335   3.4315   3.4565
     3.4819   3.5066   3.5118   3.5190   3.5268   3.5302   3.5370   3.5733
     3.5788   3.6217   3.6659   3.6702   3.6754   3.6776   3.6882   3.6918
     3.7120   3.7225   3.7268   3.7384   3.7513   3.7585   3.7954   3.8029
     3.8106   3.8147   3.8503   3.8676   3.8724   3.8793   3.9020   3.9086
     3.9136   3.9824   3.9884   3.9940   3.9943   4.0003   4.0051   4.0067
     4.0091   4.0202   4.0365   4.0617   4.0679   4.0821   4.1090   4.1799
     4.2115   4.2160   4.2340   4.2513   4.2543   4.2600   4.2706   4.2723
     4.2732   4.2751   4.2797   4.2898   4.3234   4.3316   4.3394   4.3434
     4.3561   4.3572   4.3622   4.3687   4.3752   4.3809   4.3857   4.3887
     4.3893   4.3925   4.4046   4.4127   4.4172   4.4219   4.4235   4.4296
     4.4372   4.4394   4.4445   4.4508   4.4557   4.4588   4.4647   4.4666
     4.4704   4.4738   4.4777   4.4944   4.5072   4.5215   4.5227   4.5560
     4.5754   4.5794   4.5817   4.5845   4.5930   4.6139   4.6192   4.6231
     4.6251   4.6312   4.6689   4.6729   4.7032   4.7111   4.7220   4.7334
     4.7568   4.7625   4.7698   4.7724   4.7786   4.7834   4.7915   4.7941
     4.7996   4.8062   4.8109   4.8168   4.8260   4.8265   4.8388   4.8464
     4.8494   4.8582   4.8610   4.8720   4.8742   4.8856   4.8882   4.8950
     4.9023   4.9084   4.9089   4.9134   4.9202   4.9307   4.9341   4.9441
     4.9913   4.9943   4.9991   5.0055   5.0081   5.0110   5.0212   5.0330
     5.0444   5.0583   5.0617   5.1160   5.1337   5.1623   5.1661   5.1742
     5.1823   5.2083   5.2099   5.2140   5.2395   5.2505   5.2607   5.3042
     5.3242   5.3698   5.3843   5.3886   5.3973   5.4211   5.4266   5.4355
     5.4412   5.4497   5.4556   5.4574   5.4696   5.4772   5.4849   5.4990
     5.5061   5.5127   5.5388   5.5537   5.5561   5.5647   5.5760   5.5825
     5.5893   5.6083   5.6182   5.6205   5.6220   5.6327   5.6521   5.6583
     5.6690   5.6746   5.6813   5.6846   5.6863   5.6904   5.6946   5.7004
     5.7055   5.7100   5.7121   5.7142   5.7190   5.7207   5.7252   5.7284
     5.7344   5.7368   5.7388   5.7715   5.7759   5.7944   5.8323   5.8402
     5.8551   5.8561   5.8704   5.8740   5.8840   5.8906   5.8943   5.9051
     5.9072   5.9165   5.9172   5.9257   5.9421   5.9589   5.9609   5.9814
     5.9897   5.9942   6.0030   6.0213   6.0656   6.0713   6.0998   6.1054
     6.1111   6.1623   6.1925   6.2052   6.2104   6.2136   6.2304   6.2346
     6.2513   6.2547   6.2576   6.2620   6.2649   6.2747   6.2775   6.2799
     6.2869   6.2881   6.2930   6.2959   6.2991   6.3003   6.3014   6.3062
     6.3079   6.3090   6.3120   6.3175   6.3217   6.3278   6.3299   6.3324
     6.3688   6.3856   6.3957   6.4036   6.4145   6.4213   6.4434   6.4734
     6.5013   6.5084   6.5135   6.5167   6.5241   6.5268   6.5312   6.5364
     6.5401   6.5472   6.5477   6.5524   6.5591   6.5595   6.5635   6.5661
     6.5697   6.5743   6.5916   6.5960   6.5990   6.6031   6.6047   6.6070
     6.6097   6.6120   6.6140   6.6206   6.6237   6.6283   6.6310   6.6360
     6.6381   6.6474   6.6567   6.6598   6.6695   6.6757   6.6776   6.7019
     6.7139   6.7260   6.7270   6.7322   6.7419   6.7432   6.7503   6.7520
     6.7629   6.7731   6.7864   6.7960   6.8019   6.8075   6.8121   6.8171
     6.8231   6.8300   6.8394   6.8445   6.8536   6.8613   6.8742   6.8798
     6.8802   6.8839   6.8880   6.8961   6.8978   6.9047   6.9074   6.9130
     6.9242   6.9489   6.9626   6.9708   6.9760   6.9813   6.9869   6.9923
     6.9993   7.0016   7.0101   7.0253   7.0285   7.0424   7.0445   7.0504
     7.0630   7.0753   7.0793   7.0976   7.1068   7.1122   7.1389   7.1455
     7.1535   7.1674   7.1758   7.1854   7.1919   7.2045   7.2119   7.2145
     7.2207   7.2323   7.2398   7.2418   7.2516   7.2589   7.2643   7.2728
     7.2747   7.2875   7.2908   7.2989   7.3616   7.3714   7.3839   7.3941
     7.4330   7.4724   7.4816   7.5057   7.5085   7.5140   7.5174   7.5288
     7.5347   7.5370   7.5439   7.5528   7.5645   7.5673   7.5722   7.5771
     7.5797   7.5866   7.6022   7.6156   7.6356   7.6408   7.6426   7.6546
     7.6586   7.6728   7.7191   7.7236   7.7291   7.7393   7.7481   7.7571
     7.7736   7.7756   7.7842   7.7924   7.8021   7.8044   7.8117   7.8233
     7.8385   7.8439   7.8885   7.9006   7.9094   7.9152   7.9327   7.9406
     7.9441   7.9617   7.9655   7.9676   7.9776   7.9831   7.9856   7.9997
     8.0047   8.0138   8.0374   8.0485   8.0571   8.0617   8.0626   8.0737
     8.0802   8.0900   8.1124   8.1284   8.1354   8.1425   8.1454   8.1591
     8.1764   8.1798   8.1843   8.1885   8.2003   8.2037   8.2067   8.2108
     8.2259   8.2681   8.2836   8.2925   8.2939   8.2959   8.3093   8.3108
     8.3439   8.3464   8.3501   8.3787   8.3892   8.4249   8.4372   8.4396
     8.4507   8.4644   8.4690   8.4748   8.4803   8.4909   8.5085   8.5239
     8.5514   8.5917   8.5975   8.6122   8.6588   8.6740   8.6825   8.6864
     8.6937   8.7031   8.7055   8.7173   8.7619   8.7755   8.7783   8.7806
     8.7831   8.7846   8.7874   8.7879   8.7908   8.7950   8.7955   8.7986
     8.8047   8.8106   8.8131   8.8136   8.8172   8.8205   8.8216   8.8238
     8.8283   8.8295   8.8301   8.8324   8.8374   8.8393   8.8411   8.8452
     8.8494   8.8516   8.8523   8.8568   8.8624   8.8673   8.8681   8.8693
     8.8729   8.8747   8.8880   8.8973   8.9043   8.9096   8.9148   8.9189
     8.9282   8.9331   8.9349   8.9391   8.9582   8.9753   8.9764   8.9797
     8.9823   8.9844   8.9878   8.9945   9.0053   9.0146   9.0184   9.0191
     9.0243   9.0558   9.0572   9.0594   9.0640   9.0659   9.0704   9.0725
     9.0750   9.0759   9.0777   9.0790   9.0867   9.1237   9.1305   9.1510
     9.1592   9.1625   9.1756   9.1768   9.1787   9.1796   9.1818   9.1851
     9.1872   9.1946   9.1964   9.2001   9.2037   9.2172   9.2286   9.2353
     9.2510   9.2528   9.2578   9.2584   9.2640   9.2686   9.2702   9.2712
     9.2750   9.2813   9.2848   9.2869   9.2900   9.3044   9.3109   9.3251
     9.3316   9.3395   9.3575   9.3664   9.3716   9.3781   9.3891   9.3929
     9.4013   9.4039   9.4059   9.4077   9.4103   9.4149   9.4214   9.4244
     9.4267   9.4309   9.4446   9.4533   9.4581   9.4782   9.4899   9.5080
     9.5285   9.5427   9.5619   9.5836   9.5943   9.6043   9.6310   9.6352
     9.6427   9.7448   9.7619   9.8948   9.9879  10.0623  10.3078  10.3118
    10.4234  10.4469  10.4849  10.5184  10.5244  10.5474  10.5510  10.5631
    10.5782  10.6403  10.6426  10.6518  10.7169  10.7447  10.7524  10.7932

 ------ SPIN DOWN ----------


          k = 0.0000 0.0000 0.0000 ( 91909 PWs)   bands (ev):

   -80.3083 -80.3057 -80.3036 -80.2949 -80.2896 -80.2877 -80.2806 -80.2778
   -80.2765 -80.2758 -80.2755 -80.2666 -80.2636 -80.2622 -80.2577 -80.2481
   -80.2472 -80.2462 -80.2455 -80.2435 -80.2370 -80.2346 -80.2329 -80.2298
   -80.2252 -80.2155 -80.2149 -80.2142 -80.2058 -80.1813 -80.1788 -80.1716
   -79.7259 -79.6818 -79.6600 -79.6555 -79.6532 -79.6510 -79.6394 -79.6320
   -79.6235 -79.6210 -79.6073 -79.5997 -79.5870 -79.5788 -79.5680 -79.5674
   -79.5536 -79.5520 -79.5381 -79.5302 -79.5275 -79.5213 -79.5168 -79.5122
   -79.4993 -79.4946 -79.4679 -79.4669 -79.4543 -79.4475 -79.4350 -79.4295
   -78.4319 -78.3885 -78.3725 -78.3699 -78.3652 -78.3596 -78.3540 -78.3440
   -78.3255 -78.3194 -78.3136 -78.3079 -78.3074 -78.3047 -78.3031 -78.2936
   -78.2920 -78.2820 -78.2786 -78.2723 -78.2624 -78.2608 -78.2470 -78.2449
   -78.2433 -78.2410 -78.2349 -78.2285 -78.2132 -78.2054 -78.1995 -78.1414
   -77.8662 -77.7116 -77.7076 -77.6962 -77.6948 -77.6894 -77.6836 -77.6825
   -77.6757 -77.6751 -77.6733 -77.6726 -77.6678 -77.6669 -77.6669 -77.6656
   -77.6645 -77.6589 -77.6581 -77.6571 -77.6568 -77.6542 -77.6538 -77.6528
   -77.6508 -77.6482 -77.6470 -77.6449 -77.6448 -77.6361 -77.6359 -77.6337
   -75.5049 -46.4631 -46.4604 -46.4541 -46.4523 -46.4466 -46.4413 -46.4411
   -46.4382 -46.4379 -46.4316 -46.4267 -46.4228 -46.4210 -46.4191 -46.4130
   -46.4100 -46.4066 -46.4039 -46.4012 -46.4011 -46.3996 -46.3947 -46.3923
   -46.3912 -46.3877 -46.3854 -46.3727 -46.3715 -46.3699 -46.3664 -46.3645
   -46.3637 -46.3574 -46.3536 -46.3509 -46.3439 -46.3435 -46.3421 -46.3419
   -46.3396 -46.3392 -46.3323 -46.3321 -46.3269 -46.3258 -46.3236 -46.3235
   -46.3168 -46.3139 -46.3104 -46.3061 -46.3035 -46.3004 -46.2993 -46.2977
   -46.2976 -46.2858 -46.2835 -46.2811 -46.2773 -46.2772 -46.2746 -46.2707
   -46.2659 -46.2634 -46.2606 -46.2578 -46.2550 -46.2545 -46.2482 -46.2481
   -46.2458 -46.2418 -46.2415 -46.2406 -46.2396 -46.2390 -46.2387 -46.2306
   -46.2245 -46.2226 -46.2223 -46.2217 -46.2190 -46.2134 -46.2115 -46.2093
   -46.2054 -46.2026 -46.1977 -46.1969 -46.1943 -46.1860 -46.1684 -46.1660
   -46.1576 -45.8134 -45.8034 -45.7741 -45.7724 -45.7658 -45.7648 -45.7612
   -45.7579 -45.7527 -45.7502 -45.7394 -45.7344 -45.7306 -45.7300 -45.7254
   -45.7245 -45.7240 -45.7236 -45.7231 -45.7214 -45.7204 -45.7189 -45.7178
   -45.7153 -45.7128 -45.7063 -45.7017 -45.6991 -45.6969 -45.6945 -45.6911
   -45.6902 -45.6879 -45.6870 -45.6842 -45.6827 -45.6731 -45.6668 -45.6651
   -45.6632 -45.6608 -45.6551 -45.6526 -45.6510 -45.6453 -45.6442 -45.6321
   -45.6293 -45.6168 -45.6132 -45.6009 -45.5985 -45.5931 -45.5912 -45.5892
   -45.5802 -45.5799 -45.5757 -45.5743 -45.5726 -45.5683 -45.5664 -45.5605
   -45.5584 -45.5536 -45.5504 -45.5492 -45.5485 -45.5430 -45.5313 -45.5286
   -45.5277 -45.5272 -45.5235 -45.5232 -45.5230 -45.5207 -45.5204 -45.5171
   -45.5159 -45.5114 -45.5089 -45.5082 -45.5067 -45.5006 -45.4971 -45.4859
   -45.4857 -45.4846 -45.4770 -45.4745 -45.4737 -45.4615 -45.4584 -45.4473
   -45.4424 -44.5515 -44.5387 -44.5113 -44.5106 -44.5098 -44.4978 -44.4939
   -44.4933 -44.4917 -44.4881 -44.4872 -44.4869 -44.4860 -44.4812 -44.4751
   -44.4734 -44.4724 -44.4718 -44.4691 -44.4642 -44.4637 -44.4605 -44.4603
   -44.4591 -44.4579 -44.4569 -44.4550 -44.4496 -44.4471 -44.4457 -44.4409
   -44.4376 -44.4365 -44.4338 -44.4308 -44.4287 -44.4268 -44.4261 -44.4255
   -44.4244 -44.4240 -44.4221 -44.4180 -44.4165 -44.4130 -44.4109 -44.4095
   -44.4029 -44.3962 -44.3946 -44.3922 -44.3824 -44.3785 -44.3782 -44.3573
   -44.3546 -44.3542 -44.3520 -44.3464 -44.3454 -44.3388 -44.3307 -44.3282
   -44.3263 -44.3237 -44.3212 -44.3204 -44.3191 -44.3145 -44.3133 -44.3099
   -44.3096 -44.3076 -44.3071 -44.3031 -44.2999 -44.2929 -44.2925 -44.2923
   -44.2899 -44.2841 -44.2828 -44.2815 -44.2808 -44.2800 -44.2752 -44.2744
   -44.2734 -44.2714 -44.2678 -44.2602 -44.2557 -44.2486 -44.2451 -44.2175
   -44.2006 -44.0203 -43.9611 -43.8924 -43.8865 -43.8713 -43.8677 -43.8636
   -43.8603 -43.8552 -43.8542 -43.8456 -43.8451 -43.8451 -43.8402 -43.8375
   -43.8353 -43.8351 -43.8306 -43.8300 -43.8259 -43.8241 -43.8215 -43.8193
   -43.8190 -43.8149 -43.8140 -43.8114 -43.8106 -43.8083 -43.8075 -43.8062
   -43.7954 -43.7945 -43.7942 -43.7939 -43.7933 -43.7853 -43.7766 -43.7763
   -43.7734 -43.7732 -43.7682 -43.7624 -43.7595 -43.7571 -43.7568 -43.7565
   -43.7551 -43.7533 -43.7529 -43.7520 -43.7503 -43.7470 -43.7460 -43.7455
   -43.7444 -43.7426 -43.7414 -43.7379 -43.7366 -43.7364 -43.7350 -43.7266
   -43.7255 -43.7219 -43.7194 -43.7194 -43.7153 -43.7147 -43.7050 -43.7005
   -43.6991 -43.6983 -43.6954 -43.6948 -43.6946 -43.6938 -43.6913 -43.6901
   -43.6900 -43.6894 -43.6889 -43.6887 -43.6856 -43.6844 -43.6838 -43.6836
   -43.6835 -43.6818 -43.6815 -43.6785 -43.6765 -43.6754 -43.6734 -43.6727
   -43.6719 -41.4419 -41.2390 -41.1039  -0.2063   0.5605   0.5675   0.6434
     0.6450   1.3219   1.3243   1.3280   1.3299   1.4587   2.1427   2.1668
     2.2261   2.2386   2.3748   2.5604   2.6792   2.6827   2.6974   2.7141
     2.7191   2.7230   2.9101   2.9137   2.9751   2.9772   3.0506   3.0520
     3.0539   3.0545   3.0859   3.0978   3.3299   3.3330   3.4452   3.4582
     3.4818   3.5021   3.5076   3.5177   3.5260   3.5278   3.5358   3.5741
     3.5783   3.6367   3.6653   3.6739   3.6753   3.6780   3.6866   3.6908
     3.7038   3.7207   3.7224   3.7393   3.7525   3.7592   3.7968   3.8022
     3.8095   3.8160   3.8440   3.8629   3.8720   3.8786   3.9005   3.9110
     3.9132   3.9815   3.9870   3.9896   3.9963   4.0011   4.0022   4.0070
     4.0112   4.0231   4.0371   4.0612   4.0699   4.0770   4.1077   4.1746
     4.2049   4.2196   4.2343   4.2485   4.2549   4.2589   4.2620   4.2687
     4.2715   4.2768   4.2799   4.2866   4.3235   4.3289   4.3430   4.3472
     4.3558   4.3597   4.3619   4.3683   4.3727   4.3798   4.3823   4.3861
     4.3906   4.3924   4.4044   4.4114   4.4180   4.4203   4.4244   4.4312
     4.4378   4.4392   4.4488   4.4501   4.4526   4.4566   4.4649   4.4670
     4.4691   4.4742   4.4761   4.4983   4.5044   4.5155   4.5204   4.5557
     4.5763   4.5787   4.5810   4.5833   4.5879   4.6163   4.6222   4.6237
     4.6241   4.6303   4.6705   4.6761   4.7033   4.7120   4.7169   4.7295
     4.7558   4.7631   4.7657   4.7715   4.7839   4.7860   4.7898   4.7909
     4.8017   4.8051   4.8114   4.8191   4.8233   4.8262   4.8341   4.8434
     4.8523   4.8566   4.8584   4.8677   4.8794   4.8854   4.8886   4.8966
     4.9026   4.9052   4.9081   4.9129   4.9191   4.9335   4.9372   4.9453
     4.9914   4.9981   5.0011   5.0060   5.0075   5.0107   5.0252   5.0366
     5.0439   5.0591   5.0619   5.1197   5.1350   5.1533   5.1632   5.1745
     5.1793   5.2060   5.2100   5.2118   5.2370   5.2456   5.2602   5.3060
     5.3205   5.3539   5.3798   5.3903   5.3960   5.4155   5.4257   5.4348
     5.4394   5.4486   5.4544   5.4580   5.4630   5.4773   5.4903   5.4989
     5.5033   5.5148   5.5426   5.5508   5.5529   5.5629   5.5776   5.5858
     5.5957   5.6110   5.6196   5.6213   5.6266   5.6335   5.6516   5.6569
     5.6650   5.6702   5.6773   5.6835   5.6870   5.6916   5.6989   5.6992
     5.7038   5.7099   5.7136   5.7156   5.7196   5.7234   5.7239   5.7283
     5.7318   5.7362   5.7382   5.7717   5.7755   5.7918   5.8230   5.8541
     5.8552   5.8602   5.8670   5.8781   5.8850   5.8876   5.8992   5.9024
     5.9068   5.9169   5.9188   5.9250   5.9464   5.9619   5.9637   5.9861
     5.9884   5.9949   6.0054   6.0384   6.0610   6.0746   6.0818   6.0919
     6.1271   6.1675   6.1937   6.2037   6.2108   6.2240   6.2273   6.2328
     6.2496   6.2498   6.2573   6.2614   6.2708   6.2713   6.2770   6.2803
     6.2852   6.2887   6.2938   6.2958   6.2983   6.3010   6.3035   6.3052
     6.3072   6.3094   6.3122   6.3155   6.3174   6.3247   6.3277   6.3300
     6.3608   6.3855   6.3955   6.3995   6.4063   6.4142   6.4443   6.4531
     6.5009   6.5049   6.5123   6.5201   6.5243   6.5275   6.5292   6.5352
     6.5429   6.5479   6.5499   6.5535   6.5575   6.5603   6.5610   6.5657
     6.5670   6.5798   6.5890   6.5964   6.5983   6.6012   6.6052   6.6068
     6.6074   6.6116   6.6165   6.6172   6.6247   6.6291   6.6320   6.6353
     6.6387   6.6443   6.6534   6.6575   6.6670   6.6797   6.6850   6.6963
     6.7172   6.7258   6.7294   6.7361   6.7375   6.7507   6.7541   6.7594
     6.7670   6.7739   6.7886   6.7918   6.8017   6.8052   6.8124   6.8175
     6.8269   6.8330   6.8403   6.8430   6.8566   6.8657   6.8773   6.8804
     6.8822   6.8847   6.8879   6.8928   6.8994   6.9021   6.9050   6.9209
     6.9248   6.9442   6.9643   6.9680   6.9772   6.9824   6.9852   6.9929
     6.9946   7.0052   7.0162   7.0215   7.0323   7.0388   7.0452   7.0500
     7.0667   7.0791   7.0802   7.0940   7.1066   7.1155   7.1334   7.1397
     7.1481   7.1678   7.1741   7.1855   7.1911   7.2035   7.2117   7.2166
     7.2186   7.2286   7.2291   7.2463   7.2484   7.2574   7.2635   7.2721
     7.2775   7.2835   7.2885   7.2952   7.3594   7.3815   7.3836   7.4025
     7.4410   7.4643   7.4826   7.5073   7.5094   7.5140   7.5178   7.5264
     7.5314   7.5394   7.5527   7.5550   7.5640   7.5671   7.5706   7.5762
     7.5826   7.5875   7.6024   7.6119   7.6301   7.6368   7.6491   7.6593
     7.6605   7.6967   7.7212   7.7281   7.7344   7.7439   7.7515   7.7598
     7.7723   7.7793   7.7839   7.7911   7.7964   7.8020   7.8127   7.8229
     7.8388   7.8474   7.8892   7.9006   7.9101   7.9152   7.9351   7.9408
     7.9440   7.9589   7.9679   7.9716   7.9769   7.9807   7.9949   8.0003
     8.0038   8.0053   8.0391   8.0525   8.0539   8.0583   8.0674   8.0724
     8.0817   8.0860   8.0990   8.1291   8.1371   8.1431   8.1451   8.1515
     8.1715   8.1742   8.1863   8.1866   8.1960   8.2026   8.2065   8.2152
     8.2280   8.2612   8.2740   8.2857   8.2964   8.2984   8.3044   8.3100
     8.3232   8.3418   8.3477   8.3804   8.3869   8.4290   8.4348   8.4432
     8.4500   8.4608   8.4628   8.4648   8.4805   8.4884   8.5110   8.5200
     8.5533   8.5812   8.5989   8.6102   8.6600   8.6726   8.6841   8.6860
     8.6928   8.7030   8.7077   8.7184   8.7613   8.7740   8.7787   8.7829
     8.7841   8.7853   8.7878   8.7884   8.7903   8.7935   8.7964   8.7969
     8.8026   8.8084   8.8119   8.8139   8.8158   8.8192   8.8216   8.8255
     8.8291   8.8295   8.8308   8.8320   8.8353   8.8387   8.8419   8.8456
     8.8469   8.8493   8.8520   8.8561   8.8596   8.8650   8.8683   8.8688
     8.8711   8.8737   8.8853   8.9015   8.9037   8.9091   8.9121   8.9190
     8.9274   8.9325   8.9345   8.9404   8.9563   8.9738   8.9762   8.9769
     8.9802   8.9849   8.9854   8.9941   9.0097   9.0116   9.0159   9.0187
     9.0218   9.0523   9.0566   9.0605   9.0632   9.0674   9.0684   9.0715
     9.0748   9.0755   9.0761   9.0777   9.0869   9.1231   9.1300   9.1517
     9.1573   9.1623   9.1736   9.1755   9.1775   9.1794   9.1811   9.1851
     9.1877   9.1882   9.1966   9.1995   9.2029   9.2160   9.2251   9.2328
     9.2463   9.2550   9.2571   9.2581   9.2629   9.2674   9.2697   9.2711
     9.2748   9.2818   9.2828   9.2865   9.2884   9.3044   9.3096   9.3252
     9.3288   9.3389   9.3556   9.3655   9.3718   9.3766   9.3843   9.3945
     9.3986   9.4023   9.4054   9.4073   9.4107   9.4150   9.4210   9.4218
     9.4248   9.4305   9.4457   9.4581   9.4593   9.4768   9.4918   9.5078
     9.5252   9.5403   9.5628   9.5859   9.5896   9.6085   9.6315   9.6348
     9.6419   9.7473   9.7560   9.8892   9.9913  10.0774  10.3082  10.3143
    10.4292  10.4470  10.4801  10.5170  10.5210  10.5344  10.5559  10.5573
    10.5904  10.6290  10.6431  10.6608  10.7050  10.7425  10.7517  10.7578

     the Fermi energy is     8.1866 ev

!    total energy              =  -42651.90813494 Ry

     total all-electron energy =   -335917.891045 Ry
     estimated scf accuracy    <       0.00000009 Ry
     smearing contrib. (-TS)   =       0.00968772 Ry
     internal energy E=F+TS    =  -42651.91782266 Ry

     The total energy is F=E-TS. E is the sum of the following terms:
[...]
     atom   32 type  1   force =     0.00002520   -0.00009032    0.00005187
     atom   33 type  2   force =     0.00002874    0.00002623    0.00010546
     atom   34 type  1   force =    -0.00010975   -0.00003866    0.00012089
     atom   35 type  2   force =     0.00003058    0.00009205   -0.00013176
     atom   36 type  1   force =     0.00009779   -0.00005402    0.00008700
     atom   37 type  2   force =    -0.00017801    0.00017432   -0.00006884
     atom   38 type  1   force =     0.00022577   -0.00011959   -0.00001327
     atom   39 type  2   force =     0.00012202   -0.00014800    0.00006705
     atom   40 type  1   force =    -0.00006973    0.00002378   -0.00010020
     atom   41 type  2   force =    -0.00001865   -0.00003785   -0.00005707
     atom   42 type  1   force =     0.00013002    0.00002190    0.00010321
     atom   43 type  2   force =     0.00015600   -0.00006714    0.00003132
     atom   44 type  1   force =    -0.00021852    0.00009897    0.00005756
     atom   45 type  2   force =     0.00007900   -0.00003577   -0.00007359
     atom   46 type  1   force =     0.00012423    0.00011860   -0.00010760
     atom   47 type  2   force =     0.00011299    0.00013292    0.00000994
     atom   48 type  1   force =     0.00000997    0.00003158    0.00003454
     atom   49 type  2   force =    -0.00004238   -0.00001152    0.00005651
     atom   50 type  1   force =     0.00007772   -0.00007748   -0.00005845
     atom   51 type  2   force =    -0.00004177    0.00012178   -0.00013220
     atom   52 type  1   force =     0.00014330   -0.00012948   -0.00009822
     atom   53 type  2   force =    -0.00009627   -0.00007885   -0.00002015
     atom   54 type  1   force =    -0.00010093   -0.00004837    0.00001359
     atom   55 type  2   force =    -0.00009978   -0.00008441    0.00010716
     atom   56 type  1   force =    -0.00014879    0.00012782    0.00001745
     atom   57 type  2   force =    -0.00009192   -0.00020740    0.00001699
     atom   58 type  1   force =     0.00005137   -0.00006133    0.00003691
     atom   59 type  2   force =    -0.00001498   -0.00000925    0.00020165
     atom   60 type  1   force =    -0.00009655    0.00013536    0.00013718
     atom   61 type  2   force =    -0.00005024   -0.00014898   -0.00025518
     atom   62 type  1   force =     0.00000244    0.00003918   -0.00006956
     atom   63 type  2   force =    -0.00005539    0.00002203   -0.00007263
     atom   64 type  1   force =    -0.00014579   -0.00006351    0.00006457
     atom   65 type  2   force =    -0.00012272    0.00013162   -0.00002228
     atom   66 type  1   force =     0.00001259    0.00009701    0.00002892
     atom   67 type  2   force =     0.00006063   -0.00013790   -0.00009229
     atom   68 type  1   force =    -0.00001265   -0.00006045   -0.00003916
     atom   69 type  2   force =     0.00009100   -0.00006353   -0.00008154
     atom   70 type  1   force =    -0.00001179   -0.00007633   -0.00009881
     atom   71 type  2   force =    -0.00001585    0.00003005   -0.00005442
     atom   72 type  1   force =    -0.00003346   -0.00010796    0.00013867
     atom   73 type  2   force =     0.00004122   -0.00001211    0.00011953
     atom   74 type  1   force =     0.00009795   -0.00009503   -0.00018220
     atom   75 type  2   force =     0.00002571   -0.00010571    0.00009541
     atom   76 type  1   force =     0.00007189   -0.00006152    0.00006509
     atom   77 type  2   force =    -0.00011370    0.00020545    0.00012861
     atom   78 type  1   force =     0.00014500   -0.00003734    0.00021187
     atom   79 type  2   force =    -0.00002287   -0.00007081    0.00011115
     atom   80 type  1   force =    -0.00001617    0.00019635    0.00005625
     atom   81 type  2   force =     0.00006081    0.00018250    0.00007307
     atom   82 type  1   force =     0.00015809   -0.00006563   -0.00005573
     atom   83 type  2   force =    -0.00002666   -0.00006415    0.00001574
     atom   84 type  1   force =    -0.00021168    0.00007898    0.00007122
     atom   85 type  2   force =     0.00014873   -0.00013884    0.00000966
     atom   86 type  1   force =    -0.00001524    0.00013252    0.00006340
     atom   87 type  2   force =    -0.00001261    0.00002050    0.00005862
     atom   88 type  1   force =     0.00012170    0.00023237    0.00007007
     atom   89 type  2   force =    -0.00005975    0.00000632    0.00019270
     atom   90 type  1   force =     0.00000338    0.00015827   -0.00013560
     atom   91 type  2   force =     0.00011051    0.00001065   -0.00009366
     atom   92 type  1   force =     0.00006074   -0.00008851    0.00004573
     atom   93 type  2   force =    -0.00010101    0.00003692   -0.00003658
     atom   94 type  1   force =    -0.00008676    0.00017635    0.00002918
     atom   95 type  2   force =    -0.00012515    0.00004301    0.00020167
     atom   96 type  1   force =     0.00000230   -0.00001501    0.00005662
     atom   97 type  2   force =    -0.00009972   -0.00013241    0.00020852
     atom   98 type  1   force =     0.00001754   -0.00004663   -0.00007606
     atom   99 type  2   force =     0.00004803   -0.00004902   -0.00004763
     atom  100 type  1   force =     0.00025662   -0.00007991   -0.00018417
     atom  101 type  2   force =     0.00014825    0.00001640    0.00005037
     atom  102 type  1   force =    -0.00001131    0.00012977    0.00014230
     atom  103 type  2   force =    -0.00012520    0.00014715   -0.00007290
     atom  104 type  1   force =     0.00015431    0.00009458    0.00002651
     atom  105 type  2   force =    -0.00008195   -0.00007692   -0.00000217
     atom  106 type  1   force =    -0.00018417   -0.00001385    0.00006721
     atom  107 type  2   force =    -0.00023624    0.00021568   -0.00004924
     atom  108 type  1   force =     0.00008329    0.00001126   -0.00016218
     atom  109 type  2   force =    -0.00004401    0.00012315    0.00021747
     atom  110 type  1   force =    -0.00011788   -0.00001370    0.00005521
     atom  111 type  2   force =    -0.00007612    0.00000119    0.00001079
     atom  112 type  1   force =    -0.00001133   -0.00011026    0.00011921
     atom  113 type  2   force =     0.00005674    0.00003214   -0.00000124
     atom  114 type  1   force =    -0.00008424   -0.00007064    0.00006112
     atom  115 type  2   force =    -0.00010174   -0.00003578    0.00001918
     atom  116 type  1   force =    -0.00001039    0.00010074    0.00011945
     atom  117 type  2   force =    -0.00008803    0.00011148   -0.00002036
     atom  118 type  1   force =     0.00009172    0.00011243    0.00005342
     atom  119 type  2   force =     0.00013780    0.00002487   -0.00002118
     atom  120 type  1   force =     0.00000531    0.00013038   -0.00006949
     atom  121 type  2   force =     0.00015684    0.00008194   -0.00011698
     atom  122 type  1   force =    -0.00008316   -0.00008866    0.00003699
     atom  123 type  2   force =    -0.00007801   -0.00005303    0.00014658
     atom  124 type  1   force =     0.00002867    0.00002420   -0.00004066
     atom  125 type  2   force =     0.00018908   -0.00009763    0.00014609
     atom  126 type  1   force =    -0.00003614   -0.00005663   -0.00003110
     atom  127 type  2   force =    -0.00002518   -0.00009363   -0.00002177
     atom  128 type  1   force =     0.00014652    0.00002478    0.00000615
     atom  129 type  2   force =     0.00013329   -0.00002891    0.00001543

     Total force =     0.001989     Total SCF correction =     0.000118


     Computing stress (Cartesian axis) and pressure


     negative rho (up, down):  1.916E-03 9.543E-04
          total   stress  (Ry/bohr**3)                   (kbar)     P=      -21.44
  -0.00015978  -0.00000001  -0.00000008          -23.50       -0.00       -0.01
  -0.00000001  -0.00010678   0.00000033           -0.00      -15.71        0.05
  -0.00000008   0.00000033  -0.00017059           -0.01        0.05      -25.10

     Energy error            =      8.0E-06
     Gradient error          =      3.5E-04

     number of scf cycles    =  40
     number of bfgs steps    =  39

     energy   old            =  -42651.9500022251 Ry
     energy   new            =  -42651.9500102413 Ry

     CASE: energy  _new < energy  _old

     new trust radius        =       0.0019314933 bohr

     The maximum number of steps has been reached.

     End of BFGS Geometry Optimization

ATOMIC_POSITIONS (crystal)
Pd            0.1849169796        0.0631115980        0.1799859343
Fe1           0.0580269363        0.0629739822        0.3130382636
Fe2           0.1854575748        0.1886549000        0.3118308376
Fe1           0.1865412374        0.0628501611        0.4387050774
Fe2           0.0625520066        0.1878639980        0.4384450553
Fe1           0.0624550848        0.0628716568        0.5673654870
Fe2           0.1875846692        0.1879826268        0.5670847443
Fe1           0.1885427150        0.0627755410        0.6868556800
Fe2           0.0616740339        0.1879153443        0.6869870829
Fe1           0.0617869922        0.3131689973        0.3164065651
Fe2           0.1853050655        0.4376293416        0.3162748561
Fe1           0.1865813851        0.3122138701        0.4369985641
Fe2           0.0621274881        0.4377899554        0.4384036081
Fe1           0.0622634982        0.3128594458        0.5671230910
Fe2           0.1876393707        0.4380630696        0.5667616580
Fe1           0.1885872302        0.3127774553        0.6866012909
Fe2           0.0621164964        0.4379928500        0.6868360497
Fe1           0.0622328444        0.5629972024        0.3164640225
Fe2           0.1851868707        0.6885210415        0.3164523811
Fe1           0.1864993779        0.5630353982        0.4376512248
Fe2           0.0619902773        0.6881960336        0.4384775832
Fe1           0.0619825244        0.5629631102        0.5674618416
Fe2           0.1875756240        0.6880346050        0.5668035459
Fe1           0.1886612984        0.5630486109        0.6864999867
Fe2           0.0619011998        0.6880387229        0.6868714796
Fe1           0.0615647583        0.8126573311        0.3165330636
Fe2           0.1853697969        0.9371512106        0.3117638810
Fe1           0.1865457710        0.8137688286        0.4370986526
Fe2           0.0624335830        0.9380521237        0.4384541471
Fe1           0.0620204112        0.8129782603        0.5671848343
Fe2           0.1875418415        0.9378823910        0.5670614946
Fe1           0.1885354224        0.8131350007        0.6865132740
Fe2           0.0615634069        0.9379580579        0.6869592225
Fe1           0.3137067230        0.0628326851        0.3114561266
Fe2           0.4355668124        0.1885688055        0.3146548428
Fe1           0.4357097089        0.0628835471        0.4341011669
Fe2           0.3108104166        0.1878208226        0.4359252585
Fe1           0.3121231969        0.0628911215        0.5649950777
Fe2           0.4371089129        0.1879296182        0.5626085554
Fe1           0.4389845992        0.0628911636        0.6840498045
Fe2           0.3146287575        0.1879084328        0.6858183938
Fe1           0.3099300153        0.3132780280        0.3147897110
Fe2           0.4350677735        0.4380885838        0.3140349659
Fe1           0.4363494237        0.3131069054        0.4336031810
Fe2           0.3111323245        0.4378549847        0.4355866654
Fe1           0.3124264793        0.3128710410        0.5646388304
Fe2           0.4373160409        0.4379343985        0.5628391300
Fe1           0.4385201294        0.3129716089        0.6840650622
Fe2           0.3143075951        0.4379740190        0.6855939268
Fe1           0.3093022520        0.5631274326        0.3148924839
Fe2           0.4352923174        0.6879153399        0.3141650791
Fe1           0.4361904362        0.5629702972        0.4337654651
Fe2           0.3112016430        0.6882302261        0.4356437559
Fe1           0.3127367086        0.5630144946        0.5649120588
Fe2           0.4375079366        0.6879624238        0.5628979815
Fe1           0.4388161003        0.5628722707        0.6843348043
Fe2           0.3144317257        0.6880910730        0.6856068739
Fe1           0.3100315541        0.8125880095        0.3149199949
Fe2           0.4356871373        0.9372104069        0.3145946337
Fe1           0.4365068101        0.8127433278        0.4336788499
Fe2           0.3108812659        0.9380362154        0.4359689619
Fe1           0.3125777978        0.8129699626        0.5646970785
Fe2           0.4373157419        0.9379968973        0.5626700639
Fe1           0.4388421179        0.8129174807        0.6840574911
Fe2           0.3147411072        0.9378636253        0.6857177433
Fe1           0.5610693072        0.0629136787        0.3135849051
Fe2           0.6884853029        0.1878467942        0.3140557309
Fe1           0.6875299420        0.0629892799        0.4330260800
Fe2           0.5617681894        0.1879766812        0.4330254295
Fe1           0.5622857612        0.0629903511        0.5618484021
Fe2           0.6865485153        0.1880647546        0.5629174714
Fe1           0.6854174767        0.0631158041        0.6841430297
Fe2           0.5617410175        0.1881177738        0.6837582402
Fe1           0.5618536961        0.3130949222        0.3134910294
Fe2           0.6886016356        0.4381082933        0.3139940280
Fe1           0.6875240770        0.3129038592        0.4335738124
Fe2           0.5618384708        0.4379380566        0.4328948753
Fe1           0.5618527495        0.3128671273        0.5618917683
Fe2           0.6865161515        0.4378558629        0.5626363295
Fe1           0.6852996251        0.3127693115        0.6840064243
Fe2           0.5619595748        0.4377217190        0.6837269297
Fe1           0.5617999263        0.5629186706        0.3137124725
Fe2           0.6886542350        0.6877877586        0.3140487610
Fe1           0.6876180895        0.5628275088        0.4335919699
Fe2           0.5619465974        0.6879660232        0.4330122773
Fe1           0.5619069391        0.5627962871        0.5618590248
Fe2           0.6865783219        0.6878943647        0.5627430782
Fe1           0.6851773827        0.5627107319        0.6841012804
Fe2           0.5621359975        0.6879437604        0.6837714924
Fe1           0.5620318388        0.8127232016        0.3134956604
Fe2           0.6885091753        0.9382085721        0.3140348768
Fe1           0.6875930396        0.8129627752        0.4335916689
Fe2           0.5618615997        0.9379965849        0.4330189233
Fe1           0.5620943592        0.8129077828        0.5619892029
Fe2           0.6866020078        0.9379445998        0.5628096959
Fe1           0.6853187603        0.8130309680        0.6841735541
Fe2           0.5620169138        0.9379456818        0.6837557063
Fe1           0.8151540343        0.0630110779        0.3149394148
Fe2           0.9383738635        0.1886587156        0.3167702398
Fe1           0.9381630212        0.0629485366        0.4378227651
Fe2           0.8127285178        0.1879958467        0.4355121513
Fe1           0.8110627811        0.0629574350        0.5643961466
Fe2           0.9368561249        0.1879154461        0.5663451509
Fe1           0.9350008026        0.0628834272        0.6860365450
Fe2           0.8099934940        0.1881989708        0.6853804292
Fe1           0.8143975433        0.3130735705        0.3147470757
Fe2           0.9389534693        0.4379446582        0.3161806952
Fe1           0.9375915399        0.3130327155        0.4374724641
Fe2           0.8128047179        0.4378899799        0.4354640233
Fe1           0.8113707546        0.3128990332        0.5646777090
Fe2           0.9366175280        0.4379796383        0.5666683543
Fe1           0.9355796641        0.3130555362        0.6860126219
Fe2           0.8096146433        0.4377914253        0.6853435329
Fe1           0.8145770760        0.5628846679        0.3149494668
Fe2           0.9387990343        0.6879220827        0.3162155883
Fe1           0.9376953053        0.5628745417        0.4375449355
Fe2           0.8127498934        0.6879023843        0.4355891186
Fe1           0.8113018304        0.5628020610        0.5646951858
Fe2           0.9364013945        0.6878996327        0.5667733650
Fe1           0.9353071727        0.5628080179        0.6863851198
Fe2           0.8095135103        0.6878707158        0.6855078471
Fe1           0.8143478434        0.8128440659        0.3147231148
Fe2           0.9383335395        0.9373141643        0.3166568589
Fe1           0.9374060874        0.8128153274        0.4375011865
Fe2           0.8127093982        0.9380177965        0.4354324297
Fe1           0.8112492831        0.8129444431        0.5647769764
Fe2           0.9366721254        0.9380054333        0.5663716996
Fe1           0.9352848311        0.8129120137        0.6861453053
Fe2           0.8097371659        0.9378791261        0.6854398519



     Writing output data file /scratch/bxp912/fepdslabrelax.save/
     NEW-OLD atomic charge density approx. for the potential

     Check: negative core charge=   -0.000004

     negative rho (up, down):  1.911E-03 9.549E-04
     Generating pointlists ...

     Writing output data file /scratch/bxp912/fepdslabrelax.save/
 
     init_run     :      9.15s CPU      9.54s WALL (       1 calls)
     electrons    :  24748.24s CPU  25285.73s WALL (      40 calls)
     update_pot   :     66.00s CPU     67.05s WALL (      40 calls)
     forces       :    207.04s CPU    214.12s WALL (      40 calls)
     stress       :   4556.56s CPU   4588.55s WALL (      40 calls)

     Called by init_run:
     wfcinit      :      5.93s CPU      6.17s WALL (       1 calls)
     potinit      :      1.05s CPU      1.10s WALL (       1 calls)
     hinit0       :      1.32s CPU      1.33s WALL (       1 calls)

     Called by electrons:
     c_bands      :  21052.98s CPU  21404.97s WALL (     987 calls)
     sum_band     :   2588.44s CPU   2684.46s WALL (     987 calls)
     v_of_rho     :    146.34s CPU    155.54s WALL (    1005 calls)
     newd         :    284.57s CPU    342.51s WALL (    1005 calls)
     PAW_pot      :    626.66s CPU    640.13s WALL (    1045 calls)
     mix_rho      :     85.84s CPU     90.06s WALL (     987 calls)

     Called by c_bands:
     init_us_2    :    101.99s CPU    103.29s WALL (    4190 calls)
     regterg      :  20689.50s CPU  21036.19s WALL (    1974 calls)

     Called by *egterg:
     rdiaghg      :   2186.00s CPU   2212.96s WALL (    8884 calls)
     h_psi        :   8232.87s CPU   8323.20s WALL (    9010 calls)
     s_psi        :   1573.60s CPU   1593.55s WALL (    9010 calls)
     g_psi        :     33.07s CPU     33.43s WALL (    7034 calls)

     Called by h_psi:
     h_psi:calbec :   2018.64s CPU   2031.41s WALL (    9010 calls)
     vloc_psi     :   4495.67s CPU   4547.74s WALL (    9010 calls)
     add_vuspsi   :   1656.55s CPU   1681.50s WALL (    9010 calls)

     General routines
     calbec       :   3037.99s CPU   3058.15s WALL (   11464 calls)
     fft          :    146.01s CPU    147.85s WALL (   22268 calls)
     ffts         :     39.23s CPU     39.80s WALL (   19700 calls)
     fftw         :   4440.94s CPU   4490.87s WALL ( 7215442 calls)
     interpolate  :     18.82s CPU     19.17s WALL (    2010 calls)
     davcio       :      0.00s CPU      0.05s WALL (       2 calls)
 
     Parallel routines
     fft_scatt_xy :    598.72s CPU    604.02s WALL ( 7257410 calls)
     fft_scatt_yz :   2992.62s CPU   3029.67s WALL ( 7257410 calls)
 
     PWSCF        :      8h14m CPU      8h24m WALL

 
   This run was terminated on:  18: 5:25  22May2022            

=------------------------------------------------------------------------------=
   JOB DONE.
=------------------------------------------------------------------------------=
