
     Program PWSCF v.6.7MaX starts on 22May2022 at  3: 8:20 

     This program is part of the open-source Quantum ESPRESSO suite
     for quantum simulation of materials; please cite
         "P. Giannozzi et al., J. Phys.:Condens. Matter 21 395502 (2009);
         "P. Giannozzi et al., J. Phys.:Condens. Matter 29 465901 (2017);
          URL http://www.quantum-espresso.org", 
     in publications or presentations arising from this work. More details at
     http://www.quantum-espresso.org/quote

     Parallel version (MPI & OpenMP), running on      72 processor cores
     Number of MPI processes:                72
     Threads/MPI process:                     1

     MPI processes distributed on     1 nodes
     R & G space division:  proc/nbgrp/npool/nimage =      72
     Reading input from fepdslab05.in
Warning: card &CELL ignored
Warning: card CELL_DYNAMICS = 'BFGS', ignored
Warning: card CELL_FACTOR = 2.0, ignored
Warning: card PRESS = 0.0, ignored
Warning: card / ignored

     Current dimensions of program PWSCF are:
     Max number of different atomic species (ntypx) = 10
     Max number of k-points (npk) =  40000
     Max angular momentum in pseudopotentials (lmaxx) =  3
     file Fe.pbe-spn-kjpaw_psl.1.0.0.UPF: wavefunction(s)  3P 3D renormalized
     file Fe.pbe-spn-kjpaw_psl.1.0.0.UPF: wavefunction(s)  3P 3D renormalized
     file Pd.pbe-spn-kjpaw_psl.1.0.0.UPF: wavefunction(s)  4S 5S 4D renormalized

     gamma-point specific algorithms are used

     Subspace diagonalization in iterative solution of the eigenvalue problem:
     one sub-group per band group will be used
     ELPA distributed-memory algorithm (size of sub-group:  8*  8 procs)

 
     Parallelization info
     --------------------
     sticks:   dense  smooth     PW     G-vecs:    dense   smooth      PW
     Min         333     220     53                38016    20412    2546
     Max         336     222     56                38038    20426    2560
     Sum       24049   15899   3985              2738239  1469969  183817
 


     bravais-lattice index     =            0
     lattice parameter (alat)  =      25.8600  a.u.
     unit-cell volume          =   18186.5006 (a.u.)^3
     number of atoms/cell      =          129
     number of atomic types    =            3
     number of electrons       =      2066.00
     number of Kohn-Sham states=         1240
     kinetic-energy cutoff     =      71.0000  Ry
     charge density cutoff     =     430.0000  Ry
     scf convergence threshold =      1.0E-08
     mixing beta               =       0.3000
     number of iterations used =           10  local-TF  mixing
     Exchange-correlation= SLA  PW   PBX  PBC
                           (   1   4   3   4   0   0   0)

     celldm(1)=  25.860000  celldm(2)=   0.000000  celldm(3)=   0.000000
     celldm(4)=   0.000000  celldm(5)=   0.000000  celldm(6)=   0.000000

     crystal axes: (cart. coord. in units of alat)
               a(1) = (   1.000000   0.000000   0.000000 )  
               a(2) = (   0.000000   1.051631   0.000000 )  
               a(3) = (   0.000000   0.000000   1.000000 )  

     reciprocal axes: (cart. coord. in units 2 pi/alat)
               b(1) = (  1.000000  0.000000  0.000000 )  
               b(2) = (  0.000000  0.950903  0.000000 )  
               b(3) = (  0.000000  0.000000  1.000000 )  


     PseudoPot. # 1 for Fe read from file:
     /rds/homes/b/bxp912/pp/Fe.pbe-spn-kjpaw_psl.1.0.0.UPF
     MD5 check sum: 42f43b795421b414b0dc916aa790dbcb
     Pseudo is Projector augmented-wave + core cor, Zval = 16.0
     Generated using &quot;atomic&quot; code by A. Dal Corso  v.6.3
     Shape of augmentation charge: PSQ
     Using radial grid of 1191 points,  6 beta functions with: 
                l(1) =   0
                l(2) =   0
                l(3) =   1
                l(4) =   1
                l(5) =   2
                l(6) =   2
     Q(r) pseudized with 0 coefficients 


     PseudoPot. # 2 for Fe read from file:
     /rds/homes/b/bxp912/pp/Fe.pbe-spn-kjpaw_psl.1.0.0.UPF
     MD5 check sum: 42f43b795421b414b0dc916aa790dbcb
     Pseudo is Projector augmented-wave + core cor, Zval = 16.0
     Generated using &quot;atomic&quot; code by A. Dal Corso  v.6.3
     Shape of augmentation charge: PSQ
     Using radial grid of 1191 points,  6 beta functions with: 
                l(1) =   0
                l(2) =   0
                l(3) =   1
                l(4) =   1
                l(5) =   2
                l(6) =   2
     Q(r) pseudized with 0 coefficients 


     PseudoPot. # 3 for Pd read from file:
     /rds/homes/b/bxp912/pp/Pd.pbe-spn-kjpaw_psl.1.0.0.UPF
     MD5 check sum: 790f2ebce206edfd9790dcb9844eca51
     Pseudo is Projector augmented-wave + core cor, Zval = 18.0
     Generated using &quot;atomic&quot; code by A. Dal Corso  v.6.3
     Shape of augmentation charge: PSQ
     Using radial grid of 1235 points,  6 beta functions with: 
                l(1) =   0
                l(2) =   0
                l(3) =   1
                l(4) =   1
                l(5) =   2
                l(6) =   2
     Q(r) pseudized with 0 coefficients 


     atomic species   valence    mass     pseudopotential
        Fe1           16.00    55.84500     Fe( 1.00)
        Fe2           16.00    55.84500     Fe( 1.00)
        Pd            18.00   106.42000     Pd( 1.00)

     Starting magnetic structure 
     atomic species   magnetization
        Fe1          0.100
        Fe2         -0.100
        Pd           0.001

     No symmetry found



   Cartesian axes

     site n.     atom                  positions (alat units)
         1           Pd  tau(   1) = (   0.1425366   0.1152741   0.1753095  )
         2           Fe1 tau(   2) = (   0.0587515   0.0653881   0.3211198  )
         3           Fe2 tau(   3) = (   0.1884265   0.2002713   0.3214448  )
         4           Fe1 tau(   4) = (   0.1868213   0.0655646   0.4421276  )
         5           Fe2 tau(   5) = (   0.0624952   0.1980629   0.4424469  )
         6           Fe1 tau(   6) = (   0.0623234   0.0655267   0.5697271  )
         7           Fe2 tau(   7) = (   0.1876610   0.1975943   0.5698145  )
         8           Fe1 tau(   8) = (   0.1882185   0.0650035   0.6879009  )
         9           Fe2 tau(   9) = (   0.0616632   0.1980291   0.6879420  )
        10           Fe1 tau(  10) = (   0.0653597   0.3265762   0.3172267  )
        11           Fe2 tau(  11) = (   0.1877413   0.4579090   0.3175394  )
        12           Fe1 tau(  12) = (   0.1881227   0.3296492   0.4412225  )
        13           Fe2 tau(  13) = (   0.0633903   0.4595175   0.4385688  )
        14           Fe1 tau(  14) = (   0.0628268   0.3296102   0.5678640  )
        15           Fe2 tau(  15) = (   0.1885537   0.4615096   0.5682187  )
        16           Fe1 tau(  16) = (   0.1887326   0.3305664   0.6874596  )
        17           Fe2 tau(  17) = (   0.0603308   0.4618776   0.6862421  )
        18           Fe1 tau(  18) = (   0.0648519   0.5907106   0.3145093  )
        19           Fe2 tau(  19) = (   0.1847510   0.7238107   0.3145456  )
        20           Fe1 tau(  20) = (   0.1863681   0.5909977   0.4371267  )
        21           Fe2 tau(  21) = (   0.0633682   0.7236125   0.4371464  )
        22           Fe1 tau(  22) = (   0.0615849   0.5918936   0.5662034  )
        23           Fe2 tau(  23) = (   0.1882586   0.7226899   0.5660552  )
        24           Fe1 tau(  24) = (   0.1887997   0.5925453   0.6861716  )
        25           Fe2 tau(  25) = (   0.0613274   0.7219977   0.6862125  )
        26           Fe1 tau(  26) = (   0.0618357   0.8560935   0.3172000  )
        27           Fe2 tau(  27) = (   0.1829530   0.9895025   0.3139428  )
        28           Fe1 tau(  28) = (   0.1862919   0.8555747   0.4379183  )
        29           Fe2 tau(  29) = (   0.0618572   0.9855343   0.4406165  )
        30           Fe1 tau(  30) = (   0.0613876   0.8531658   0.5679772  )
        31           Fe2 tau(  31) = (   0.1869233   0.9851356   0.5677120  )
        32           Fe1 tau(  32) = (   0.1896322   0.8527645   0.6860337  )
        33           Fe2 tau(  33) = (   0.0612834   0.9839846   0.6875207  )
        34           Fe1 tau(  34) = (   0.3076371   0.0696373   0.3122286  )
        35           Fe2 tau(  35) = (   0.4357117   0.1980603   0.3171939  )
        36           Fe1 tau(  36) = (   0.4341488   0.0657210   0.4341951  )
        37           Fe2 tau(  37) = (   0.3121648   0.1978698   0.4418603  )
        38           Fe1 tau(  38) = (   0.3124073   0.0653502   0.5666112  )
        39           Fe2 tau(  39) = (   0.4385533   0.1968925   0.5660486  )
        40           Fe1 tau(  40) = (   0.4380091   0.0657438   0.6859902  )
        41           Fe2 tau(  41) = (   0.3146724   0.1973275   0.6859048  )
        42           Fe1 tau(  42) = (   0.3112557   0.3275738   0.3170910  )
        43           Fe2 tau(  43) = (   0.4354886   0.4597974   0.3147106  )
        44           Fe1 tau(  44) = (   0.4374791   0.3293042   0.4369893  )
        45           Fe2 tau(  45) = (   0.3125364   0.4604356   0.4366549  )
        46           Fe1 tau(  46) = (   0.3141732   0.3293478   0.5679259  )
        47           Fe2 tau(  47) = (   0.4390386   0.4604040   0.5632767  )
        48           Fe1 tau(  48) = (   0.4403086   0.3292951   0.6845898  )
        49           Fe2 tau(  49) = (   0.3159177   0.4625217   0.6855273  )
        50           Fe1 tau(  50) = (   0.3083587   0.5903099   0.3147277  )
        51           Fe2 tau(  51) = (   0.4339295   0.7233087   0.3130231  )
        52           Fe1 tau(  52) = (   0.4358847   0.5924128   0.4322183  )
        53           Fe2 tau(  53) = (   0.3104159   0.7228918   0.4334436  )
        54           Fe1 tau(  54) = (   0.3142966   0.5918280   0.5641361  )
        55           Fe2 tau(  55) = (   0.4385180   0.7234213   0.5598951  )
        56           Fe1 tau(  56) = (   0.4419191   0.5923939   0.6824908  )
        57           Fe2 tau(  57) = (   0.3162141   0.7223454   0.6842751  )
        58           Fe1 tau(  58) = (   0.3074024   0.8548895   0.3147790  )
        59           Fe2 tau(  59) = (   0.4344514   0.9868630   0.3150403  )
        60           Fe1 tau(  60) = (   0.4356335   0.8547100   0.4315209  )
        61           Fe2 tau(  61) = (   0.3101231   0.9863643   0.4363794  )
        62           Fe1 tau(  62) = (   0.3137980   0.8546705   0.5632611  )
        63           Fe2 tau(  63) = (   0.4377077   0.9869231   0.5623578  )
        64           Fe1 tau(  64) = (   0.4393286   0.8535281   0.6828982  )
        65           Fe2 tau(  65) = (   0.3147963   0.9849942   0.6859368  )
        66           Fe1 tau(  66) = (   0.5616138   0.0664335   0.3146916  )
        67           Fe2 tau(  67) = (   0.6884049   0.1964824   0.3148346  )
        68           Fe1 tau(  68) = (   0.6885681   0.0663159   0.4352684  )
        69           Fe2 tau(  69) = (   0.5611411   0.1964240   0.4352748  )
        70           Fe1 tau(  70) = (   0.5619820   0.0659448   0.5635482  )
        71           Fe2 tau(  71) = (   0.6874432   0.1968268   0.5641102  )
        72           Fe1 tau(  72) = (   0.6855858   0.0654998   0.6850881  )
        73           Fe2 tau(  73) = (   0.5638040   0.1972169   0.6852842  )
        74           Fe1 tau(  74) = (   0.5607509   0.3265340   0.3139843  )
        75           Fe2 tau(  75) = (   0.6872354   0.4585088   0.3123752  )
        76           Fe1 tau(  76) = (   0.6875594   0.3276299   0.4335896  )
        77           Fe2 tau(  77) = (   0.5625961   0.4595520   0.4321368  )
        78           Fe1 tau(  78) = (   0.5632705   0.3282677   0.5635703  )
        79           Fe2 tau(  79) = (   0.6879817   0.4596075   0.5599214  )
        80           Fe1 tau(  80) = (   0.6882353   0.3288574   0.6849967  )
        81           Fe2 tau(  81) = (   0.5651853   0.4612490   0.6822433  )
        82           Fe1 tau(  82) = (   0.5612595   0.5916576   0.3122746  )
        83           Fe2 tau(  83) = (   0.6887743   0.7228831   0.3123244  )
        84           Fe1 tau(  84) = (   0.6883236   0.5904996   0.4294597  )
        85           Fe2 tau(  85) = (   0.5615383   0.7241508   0.4293434  )
        86           Fe1 tau(  86) = (   0.5630264   0.5915132   0.5576529  )
        87           Fe2 tau(  87) = (   0.6867405   0.7231521   0.5577775  )
        88           Fe1 tau(  88) = (   0.6857902   0.5920076   0.6805737  )
        89           Fe2 tau(  89) = (   0.5637901   0.7227363   0.6805291  )
        90           Fe1 tau(  90) = (   0.5626362   0.8561046   0.3121969  )
        91           Fe2 tau(  91) = (   0.6891343   0.9880418   0.3141519  )
        92           Fe1 tau(  92) = (   0.6872507   0.8551077   0.4321071  )
        93           Fe2 tau(  93) = (   0.5618631   0.9869943   0.4333065  )
        94           Fe1 tau(  94) = (   0.5617368   0.8550051   0.5596739  )
        95           Fe2 tau(  95) = (   0.6864801   0.9862486   0.5634570  )
        96           Fe1 tau(  96) = (   0.6844995   0.8533385   0.6820773  )
        97           Fe2 tau(  97) = (   0.5612864   0.9855678   0.6846505  )
        98           Fe1 tau(  98) = (   0.8145252   0.0648759   0.3171186  )
        99           Fe2 tau(  99) = (   0.9402188   0.1950601   0.3164839  )
       100           Fe1 tau( 100) = (   0.9374832   0.0651983   0.4423127  )
       101           Fe2 tau( 101) = (   0.8144773   0.1972618   0.4355587  )
       102           Fe1 tau( 102) = (   0.8110658   0.0658411   0.5663854  )
       103           Fe2 tau( 103) = (   0.9371201   0.1977054   0.5670544  )
       104           Fe1 tau( 104) = (   0.9352792   0.0655246   0.6857716  )
       105           Fe2 tau( 105) = (   0.8116171   0.1969980   0.6862948  )
       106           Fe1 tau( 106) = (   0.8150804   0.3280317   0.3151113  )
       107           Fe2 tau( 107) = (   0.9421429   0.4596402   0.3151684  )
       108           Fe1 tau( 108) = (   0.9387564   0.3287418   0.4373695  )
       109           Fe2 tau( 109) = (   0.8139475   0.4599326   0.4319884  )
       110           Fe1 tau( 110) = (   0.8116104   0.3277501   0.5631183  )
       111           Fe2 tau( 111) = (   0.9358814   0.4600430   0.5637519  )
       112           Fe1 tau( 112) = (   0.9349587   0.3296020   0.6860215  )
       113           Fe2 tau( 113) = (   0.8102864   0.4611700   0.6833021  )
       114           Fe1 tau( 114) = (   0.8159084   0.5911864   0.3130823  )
       115           Fe2 tau( 115) = (   0.9412610   0.7242602   0.3148148  )
       116           Fe1 tau( 116) = (   0.9393584   0.5917595   0.4337111  )
       117           Fe2 tau( 117) = (   0.8139347   0.7222047   0.4324709  )
       118           Fe1 tau( 118) = (   0.8112426   0.5912370   0.5601288  )
       119           Fe2 tau( 119) = (   0.9356265   0.7227141   0.5643328  )
       120           Fe1 tau( 120) = (   0.9336551   0.5923087   0.6844350  )
       121           Fe2 tau( 121) = (   0.8078635   0.7222525   0.6825759  )
       122           Fe1 tau( 122) = (   0.8143703   0.8548553   0.3146769  )
       123           Fe2 tau( 123) = (   0.9388847   0.9870538   0.3171989  )
       124           Fe1 tau( 124) = (   0.9373427   0.8541441   0.4366752  )
       125           Fe2 tau( 125) = (   0.8125994   0.9853090   0.4370552  )
       126           Fe1 tau( 126) = (   0.8108362   0.8541803   0.5632913  )
       127           Fe2 tau( 127) = (   0.9358746   0.9851837   0.5680012  )
       128           Fe1 tau( 128) = (   0.9341019   0.8520056   0.6853792  )
       129           Fe2 tau( 129) = (   0.8094919   0.9851394   0.6846363  )

     number of k points=     1  Marzari-Vanderbilt smearing, width (Ry)=  0.0400
                       cart. coord. in units 2pi/alat
        k(    1) = (   0.0000000   0.0000000   0.0000000), wk =   1.0000000

     Dense  grid:  1369120 G-vectors     FFT dimensions: ( 180, 180, 180)

     Smooth grid:   734985 G-vectors     FFT dimensions: ( 144, 150, 144)

     Estimated max dynamical RAM per process >     318.96 MB

     Estimated total dynamical RAM >      22.43 GB

     Check: negative core charge=   -0.000004
     Generating pointlists ...
     new r_m :   0.0707 (alat units)  1.8289 (a.u.) for type    1
     new r_m :   0.0709 (alat units)  1.8345 (a.u.) for type    2
     new r_m :   0.0723 (alat units)  1.8686 (a.u.) for type    3

     Initial potential from superposition of free atoms

     starting charge 2065.94361, renormalised to 2066.00000

     negative rho (up, down):  1.765E-04 1.765E-04
     Starting wfcs are 1290 randomized atomic wfcs
     Checking if some PAW data can be deallocated... 

     total cpu time spent up to now is       13.2 secs

     Self-consistent Calculation

     iteration #  1     ecut=    71.00 Ry     beta= 0.30
     Davidson diagonalization with overlap
     ethr =  1.00E-02,  avg # of iterations =  6.5

     negative rho (up, down):  1.137E+00 2.857E+00

     total cpu time spent up to now is       45.1 secs

     total energy              =  -42628.77029608 Ry
     estimated scf accuracy    <     716.57555619 Ry

     total magnetization       =    -2.92 Bohr mag/cell
     absolute magnetization    =   271.07 Bohr mag/cell

     iteration #  2     ecut=    71.00 Ry     beta= 0.30
     Davidson diagonalization with overlap
     ethr =  1.00E-02,  avg # of iterations =  3.5

     negative rho (up, down):  8.958E-01 2.201E+00

     total cpu time spent up to now is       67.1 secs

     total energy              =  -42639.14040293 Ry
     estimated scf accuracy    <     212.77174097 Ry

     total magnetization       =     1.81 Bohr mag/cell
     absolute magnetization    =   174.97 Bohr mag/cell

     iteration #  3     ecut=    71.00 Ry     beta= 0.30
     Davidson diagonalization with overlap
     ethr =  1.00E-02,  avg # of iterations =  1.5

     negative rho (up, down):  7.780E-01 1.917E+00

     total cpu time spent up to now is       86.9 secs

     total energy              =  -42650.37530157 Ry
     estimated scf accuracy    <     248.23962188 Ry

     total magnetization       =     0.82 Bohr mag/cell
     absolute magnetization    =   198.50 Bohr mag/cell

     iteration #  4     ecut=    71.00 Ry     beta= 0.30
     Davidson diagonalization with overlap
     ethr =  1.00E-02,  avg # of iterations =  1.0

     negative rho (up, down):  5.380E-01 1.336E+00

     total cpu time spent up to now is      104.9 secs

     total energy              =  -42651.39666189 Ry
     estimated scf accuracy    <      76.18000260 Ry

     total magnetization       =     0.34 Bohr mag/cell
     absolute magnetization    =   201.94 Bohr mag/cell

     iteration #  5     ecut=    71.00 Ry     beta= 0.30
     Davidson diagonalization with overlap
     ethr =  3.69E-03,  avg # of iterations =  1.0

     negative rho (up, down):  3.123E-01 7.667E-01

     total cpu time spent up to now is      122.9 secs

     total energy              =  -42651.83822345 Ry
     estimated scf accuracy    <      73.90494239 Ry

     total magnetization       =    -1.37 Bohr mag/cell
     absolute magnetization    =   206.78 Bohr mag/cell

     iteration #  6     ecut=    71.00 Ry     beta= 0.30
     Davidson diagonalization with overlap
     ethr =  3.58E-03,  avg # of iterations =  1.0

     negative rho (up, down):  5.716E-02 1.414E-01

     total cpu time spent up to now is      140.7 secs

     total energy              =  -42652.08867321 Ry
     estimated scf accuracy    <      43.48368682 Ry

     total magnetization       =    -1.43 Bohr mag/cell
     absolute magnetization    =   211.45 Bohr mag/cell

     iteration #  7     ecut=    71.00 Ry     beta= 0.30
     Davidson diagonalization with overlap
     ethr =  2.10E-03,  avg # of iterations =  1.5

     negative rho (up, down):  7.769E-03 1.502E-02

     total cpu time spent up to now is      167.0 secs

     total energy              =  -42652.04616352 Ry
     estimated scf accuracy    <      28.59710004 Ry

     total magnetization       =    -0.68 Bohr mag/cell
     absolute magnetization    =   218.29 Bohr mag/cell

     iteration #  8     ecut=    71.00 Ry     beta= 0.30
     Davidson diagonalization with overlap
     ethr =  1.38E-03,  avg # of iterations =  2.0

     negative rho (up, down):  7.865E-02 1.851E-01

     total cpu time spent up to now is      188.0 secs

     total energy              =  -42651.73134964 Ry
     estimated scf accuracy    <      11.05839310 Ry

     total magnetization       =    -1.10 Bohr mag/cell
     absolute magnetization    =   225.49 Bohr mag/cell

     iteration #  9     ecut=    71.00 Ry     beta= 0.30
     Davidson diagonalization with overlap
     ethr =  5.35E-04,  avg # of iterations =  2.5

     negative rho (up, down):  9.955E-02 2.395E-01

     total cpu time spent up to now is      209.4 secs

     total energy              =  -42651.75530639 Ry
     estimated scf accuracy    <       6.08371768 Ry

     total magnetization       =    -0.92 Bohr mag/cell
     absolute magnetization    =   229.49 Bohr mag/cell

     iteration # 10     ecut=    71.00 Ry     beta= 0.30
     Davidson diagonalization with overlap
     ethr =  2.94E-04,  avg # of iterations = 11.0

     negative rho (up, down):  3.432E-02 7.800E-02

     total cpu time spent up to now is      238.0 secs

     total energy              =  -42651.99525504 Ry
     estimated scf accuracy    <       3.55605442 Ry

     total magnetization       =    -0.34 Bohr mag/cell
     absolute magnetization    =   231.14 Bohr mag/cell

     iteration # 11     ecut=    71.00 Ry     beta= 0.30
     Davidson diagonalization with overlap
     c_bands:  1 eigenvalues not converged
     ethr =  1.72E-04,  avg # of iterations = 11.0

     negative rho (up, down):  3.451E-03 5.860E-03

     total cpu time spent up to now is      261.6 secs

     total energy              =  -42652.09216038 Ry
     estimated scf accuracy    <       2.04986673 Ry

     total magnetization       =     0.18 Bohr mag/cell
     absolute magnetization    =   229.83 Bohr mag/cell

     iteration # 12     ecut=    71.00 Ry     beta= 0.30
     Davidson diagonalization with overlap
     ethr =  9.92E-05,  avg # of iterations =  2.0

     negative rho (up, down):  1.326E-03 1.416E-03

     total cpu time spent up to now is      283.0 secs

     total energy              =  -42652.08745359 Ry
     estimated scf accuracy    <       1.10726959 Ry

     total magnetization       =     0.24 Bohr mag/cell
     absolute magnetization    =   228.61 Bohr mag/cell

     iteration # 13     ecut=    71.00 Ry     beta= 0.30
     Davidson diagonalization with overlap
     ethr =  5.36E-05,  avg # of iterations =  2.0

     negative rho (up, down):  1.293E-03 1.392E-03

     total cpu time spent up to now is      307.4 secs

     total energy              =  -42652.04560936 Ry
     estimated scf accuracy    <       0.82318881 Ry

     total magnetization       =     0.42 Bohr mag/cell
     absolute magnetization    =   228.37 Bohr mag/cell

     iteration # 14     ecut=    71.00 Ry     beta= 0.30
     Davidson diagonalization with overlap
     ethr =  3.98E-05,  avg # of iterations =  2.0

     negative rho (up, down):  2.946E-03 3.639E-03

     total cpu time spent up to now is      328.8 secs

     total energy              =  -42651.93899852 Ry
     estimated scf accuracy    <       0.67737034 Ry

     total magnetization       =     0.49 Bohr mag/cell
     absolute magnetization    =   229.04 Bohr mag/cell

     iteration # 15     ecut=    71.00 Ry     beta= 0.30
     Davidson diagonalization with overlap
     c_bands:  4 eigenvalues not converged
     c_bands:  5 eigenvalues not converged
     ethr =  3.28E-05,  avg # of iterations = 20.0

     negative rho (up, down):  5.161E-03 5.696E-03

     total cpu time spent up to now is      356.8 secs

     total energy              =  -42651.91821181 Ry
     estimated scf accuracy    <       0.49483439 Ry

     total magnetization       =     0.65 Bohr mag/cell
     absolute magnetization    =   229.60 Bohr mag/cell

     iteration # 16     ecut=    71.00 Ry     beta= 0.30
     Davidson diagonalization with overlap
     c_bands:  2 eigenvalues not converged
     ethr =  2.40E-05,  avg # of iterations = 13.5

     negative rho (up, down):  1.161E-03 1.245E-03

     total cpu time spent up to now is      380.9 secs

     total energy              =  -42651.90875812 Ry
     estimated scf accuracy    <       0.43434214 Ry

     total magnetization       =     0.67 Bohr mag/cell
     absolute magnetization    =   229.50 Bohr mag/cell

     iteration # 17     ecut=    71.00 Ry     beta= 0.30
     Davidson diagonalization with overlap
     ethr =  2.10E-05,  avg # of iterations =  5.5

     negative rho (up, down):  4.031E-03 3.723E-03

     total cpu time spent up to now is      401.8 secs

     total energy              =  -42651.88320425 Ry
     estimated scf accuracy    <       0.29280048 Ry

     total magnetization       =     0.54 Bohr mag/cell
     absolute magnetization    =   229.10 Bohr mag/cell

     iteration # 18     ecut=    71.00 Ry     beta= 0.30
     Davidson diagonalization with overlap
     ethr =  1.42E-05,  avg # of iterations =  2.0

     negative rho (up, down):  3.656E-02 3.399E-02

     total cpu time spent up to now is      423.0 secs

     total energy              =  -42651.82641305 Ry
     estimated scf accuracy    <       0.24661997 Ry

     total magnetization       =     0.41 Bohr mag/cell
     absolute magnetization    =   228.98 Bohr mag/cell

     iteration # 19     ecut=    71.00 Ry     beta= 0.30
     Davidson diagonalization with overlap
     ethr =  1.19E-05,  avg # of iterations =  2.0

     negative rho (up, down):  8.710E-03 7.916E-03

     total cpu time spent up to now is      443.9 secs

     total energy              =  -42651.84928369 Ry
     estimated scf accuracy    <       0.24362475 Ry

     total magnetization       =     0.22 Bohr mag/cell
     absolute magnetization    =   228.34 Bohr mag/cell

     iteration # 20     ecut=    71.00 Ry     beta= 0.30
     Davidson diagonalization with overlap
     ethr =  1.18E-05,  avg # of iterations =  1.0

     negative rho (up, down):  1.232E-01 1.209E-01

     total cpu time spent up to now is      461.8 secs

     total energy              =  -42651.84634394 Ry
     estimated scf accuracy    <       0.17093487 Ry

     total magnetization       =     0.28 Bohr mag/cell
     absolute magnetization    =   228.43 Bohr mag/cell

     iteration # 21     ecut=    71.00 Ry     beta= 0.30
     Davidson diagonalization with overlap
     ethr =  8.27E-06,  avg # of iterations = 15.0

     negative rho (up, down):  8.825E-02 8.665E-02

     total cpu time spent up to now is      488.8 secs

     total energy              =  -42651.85518437 Ry
     estimated scf accuracy    <       0.07307235 Ry

     total magnetization       =     0.10 Bohr mag/cell
     absolute magnetization    =   228.25 Bohr mag/cell

     iteration # 22     ecut=    71.00 Ry     beta= 0.30
     Davidson diagonalization with overlap
     ethr =  3.54E-06,  avg # of iterations =  2.0

     negative rho (up, down):  3.466E-02 3.378E-02

     total cpu time spent up to now is      510.2 secs

     total energy              =  -42651.86617162 Ry
     estimated scf accuracy    <       0.04762719 Ry

     total magnetization       =     0.06 Bohr mag/cell
     absolute magnetization    =   228.19 Bohr mag/cell

     iteration # 23     ecut=    71.00 Ry     beta= 0.30
     Davidson diagonalization with overlap
     ethr =  2.31E-06,  avg # of iterations =  6.5

     negative rho (up, down):  3.412E-02 3.326E-02

     total cpu time spent up to now is      532.4 secs

     total energy              =  -42651.87534842 Ry
     estimated scf accuracy    <       0.04160214 Ry

     total magnetization       =    -0.08 Bohr mag/cell
     absolute magnetization    =   228.15 Bohr mag/cell

     iteration # 24     ecut=    71.00 Ry     beta= 0.30
     Davidson diagonalization with overlap
     ethr =  2.01E-06,  avg # of iterations =  2.0

     negative rho (up, down):  2.513E-02 2.453E-02

     total cpu time spent up to now is      553.7 secs

     total energy              =  -42651.88616012 Ry
     estimated scf accuracy    <       0.02176623 Ry

     total magnetization       =    -0.10 Bohr mag/cell
     absolute magnetization    =   228.26 Bohr mag/cell

     iteration # 25     ecut=    71.00 Ry     beta= 0.30
     Davidson diagonalization with overlap
     ethr =  1.05E-06,  avg # of iterations =  2.0

     negative rho (up, down):  1.549E-02 1.522E-02

     total cpu time spent up to now is      575.0 secs

     total energy              =  -42651.89659885 Ry
     estimated scf accuracy    <       0.01234282 Ry

     total magnetization       =    -0.09 Bohr mag/cell
     absolute magnetization    =   228.43 Bohr mag/cell

     iteration # 26     ecut=    71.00 Ry     beta= 0.30
     Davidson diagonalization with overlap
     ethr =  5.97E-07,  avg # of iterations =  2.0

     negative rho (up, down):  1.344E-02 1.322E-02

     total cpu time spent up to now is      596.8 secs

     total energy              =  -42651.90378948 Ry
     estimated scf accuracy    <       0.00974625 Ry

     total magnetization       =    -0.11 Bohr mag/cell
     absolute magnetization    =   228.57 Bohr mag/cell

     iteration # 27     ecut=    71.00 Ry     beta= 0.30
     Davidson diagonalization with overlap
     ethr =  4.72E-07,  avg # of iterations =  4.0

     negative rho (up, down):  1.216E-02 1.196E-02

     total cpu time spent up to now is      621.8 secs

     total energy              =  -42651.90490496 Ry
     estimated scf accuracy    <       0.00311872 Ry

     total magnetization       =    -0.09 Bohr mag/cell
     absolute magnetization    =   228.85 Bohr mag/cell

     iteration # 28     ecut=    71.00 Ry     beta= 0.30
     Davidson diagonalization with overlap
     ethr =  1.51E-07,  avg # of iterations =  2.0

     negative rho (up, down):  1.060E-02 1.042E-02

     total cpu time spent up to now is      644.0 secs

     total energy              =  -42651.90538544 Ry
     estimated scf accuracy    <       0.00230884 Ry

     total magnetization       =    -0.09 Bohr mag/cell
     absolute magnetization    =   228.88 Bohr mag/cell

     iteration # 29     ecut=    71.00 Ry     beta= 0.30
     Davidson diagonalization with overlap
     ethr =  1.12E-07,  avg # of iterations =  2.0

     negative rho (up, down):  9.871E-03 9.708E-03

     total cpu time spent up to now is      674.2 secs

     total energy              =  -42651.90615183 Ry
     estimated scf accuracy    <       0.00162680 Ry

     total magnetization       =    -0.08 Bohr mag/cell
     absolute magnetization    =   228.91 Bohr mag/cell

     iteration # 30     ecut=    71.00 Ry     beta= 0.30
     Davidson diagonalization with overlap
     ethr =  7.87E-08,  avg # of iterations =  2.0

     negative rho (up, down):  8.753E-03 8.634E-03

     total cpu time spent up to now is      695.7 secs

     total energy              =  -42651.90707667 Ry
     estimated scf accuracy    <       0.00139165 Ry

     total magnetization       =    -0.08 Bohr mag/cell
     absolute magnetization    =   228.98 Bohr mag/cell

     iteration # 31     ecut=    71.00 Ry     beta= 0.30
     Davidson diagonalization with overlap
     ethr =  6.74E-08,  avg # of iterations =  2.0

     negative rho (up, down):  8.257E-03 8.167E-03

     total cpu time spent up to now is      717.3 secs

     total energy              =  -42651.90746473 Ry
     estimated scf accuracy    <       0.00086666 Ry

     total magnetization       =    -0.07 Bohr mag/cell
     absolute magnetization    =   229.08 Bohr mag/cell

     iteration # 32     ecut=    71.00 Ry     beta= 0.30
     Davidson diagonalization with overlap
     ethr =  4.19E-08,  avg # of iterations =  2.0

     negative rho (up, down):  8.461E-03 8.380E-03

     total cpu time spent up to now is      738.0 secs

     total energy              =  -42651.90767224 Ry
     estimated scf accuracy    <       0.00074386 Ry

     total magnetization       =    -0.07 Bohr mag/cell
     absolute magnetization    =   229.15 Bohr mag/cell

     iteration # 33     ecut=    71.00 Ry     beta= 0.30
     Davidson diagonalization with overlap
     ethr =  3.60E-08,  avg # of iterations =  2.0

     negative rho (up, down):  6.972E-03 6.928E-03

     total cpu time spent up to now is      759.3 secs

     total energy              =  -42651.90778384 Ry
     estimated scf accuracy    <       0.00057917 Ry

     total magnetization       =    -0.07 Bohr mag/cell
     absolute magnetization    =   229.18 Bohr mag/cell

     iteration # 34     ecut=    71.00 Ry     beta= 0.30
     Davidson diagonalization with overlap
     ethr =  2.80E-08,  avg # of iterations =  3.5

     negative rho (up, down):  4.145E-03 4.178E-03

     total cpu time spent up to now is      781.0 secs

     total energy              =  -42651.90768856 Ry
     estimated scf accuracy    <       0.00047492 Ry

     total magnetization       =    -0.06 Bohr mag/cell
     absolute magnetization    =   229.26 Bohr mag/cell

     iteration # 35     ecut=    71.00 Ry     beta= 0.30
     Davidson diagonalization with overlap
     ethr =  2.30E-08,  avg # of iterations =  2.0

     negative rho (up, down):  3.822E-03 3.923E-03

     total cpu time spent up to now is      802.1 secs

     total energy              =  -42651.90783423 Ry
     estimated scf accuracy    <       0.00043106 Ry

     total magnetization       =    -0.06 Bohr mag/cell
     absolute magnetization    =   229.34 Bohr mag/cell

     iteration # 36     ecut=    71.00 Ry     beta= 0.30
     Davidson diagonalization with overlap
     ethr =  2.09E-08,  avg # of iterations =  3.5

     negative rho (up, down):  3.491E-03 3.607E-03

     total cpu time spent up to now is      824.9 secs

     total energy              =  -42651.90786054 Ry
     estimated scf accuracy    <       0.00031118 Ry

     total magnetization       =    -0.05 Bohr mag/cell
     absolute magnetization    =   229.42 Bohr mag/cell

     iteration # 37     ecut=    71.00 Ry     beta= 0.30
     Davidson diagonalization with overlap
     ethr =  1.51E-08,  avg # of iterations =  2.0

     negative rho (up, down):  5.178E-03 5.314E-03

     total cpu time spent up to now is      846.2 secs

     total energy              =  -42651.90793993 Ry
     estimated scf accuracy    <       0.00027814 Ry

     total magnetization       =    -0.05 Bohr mag/cell
     absolute magnetization    =   229.45 Bohr mag/cell

     iteration # 38     ecut=    71.00 Ry     beta= 0.30
     Davidson diagonalization with overlap
     ethr =  1.35E-08,  avg # of iterations =  4.0

     negative rho (up, down):  5.787E-03 5.932E-03

     total cpu time spent up to now is      869.6 secs

     total energy              =  -42651.90798069 Ry
     estimated scf accuracy    <       0.00018915 Ry

     total magnetization       =    -0.05 Bohr mag/cell
     absolute magnetization    =   229.53 Bohr mag/cell

     iteration # 39     ecut=    71.00 Ry     beta= 0.30
     Davidson diagonalization with overlap
     ethr =  9.16E-09,  avg # of iterations =  2.0

     negative rho (up, down):  6.071E-03 6.220E-03

     total cpu time spent up to now is      890.6 secs

     total energy              =  -42651.90799429 Ry
     estimated scf accuracy    <       0.00019147 Ry

     total magnetization       =    -0.06 Bohr mag/cell
     absolute magnetization    =   229.55 Bohr mag/cell

     iteration # 40     ecut=    71.00 Ry     beta= 0.30
     Davidson diagonalization with overlap
     ethr =  9.16E-09,  avg # of iterations =  2.0

     negative rho (up, down):  3.960E-03 4.116E-03

     total cpu time spent up to now is      911.9 secs

     total energy              =  -42651.90801383 Ry
     estimated scf accuracy    <       0.00011142 Ry

     total magnetization       =    -0.06 Bohr mag/cell
     absolute magnetization    =   229.57 Bohr mag/cell

     iteration # 41     ecut=    71.00 Ry     beta= 0.30
     Davidson diagonalization with overlap
     ethr =  5.39E-09,  avg # of iterations =  3.0

     negative rho (up, down):  4.237E-03 4.393E-03

     total cpu time spent up to now is      934.0 secs

     total energy              =  -42651.90801084 Ry
     estimated scf accuracy    <       0.00006211 Ry

     total magnetization       =    -0.06 Bohr mag/cell
     absolute magnetization    =   229.58 Bohr mag/cell

     iteration # 42     ecut=    71.00 Ry     beta= 0.30
     Davidson diagonalization with overlap
     ethr =  3.01E-09,  avg # of iterations =  2.0

     negative rho (up, down):  3.541E-03 3.696E-03

     total cpu time spent up to now is      955.6 secs

     total energy              =  -42651.90803336 Ry
     estimated scf accuracy    <       0.00006277 Ry

     total magnetization       =    -0.06 Bohr mag/cell
     absolute magnetization    =   229.58 Bohr mag/cell

     iteration # 43     ecut=    71.00 Ry     beta= 0.30
     Davidson diagonalization with overlap
     ethr =  3.01E-09,  avg # of iterations =  2.0

     negative rho (up, down):  2.471E-03 2.625E-03

     total cpu time spent up to now is      976.5 secs

     total energy              =  -42651.90808135 Ry
     estimated scf accuracy    <       0.00003653 Ry

     total magnetization       =    -0.07 Bohr mag/cell
     absolute magnetization    =   229.59 Bohr mag/cell

     iteration # 44     ecut=    71.00 Ry     beta= 0.30
     Davidson diagonalization with overlap
     ethr =  1.77E-09,  avg # of iterations =  4.0

     negative rho (up, down):  1.760E-03 1.915E-03

     total cpu time spent up to now is     1000.6 secs

     total energy              =  -42651.90810859 Ry
     estimated scf accuracy    <       0.00002154 Ry

     total magnetization       =    -0.06 Bohr mag/cell
     absolute magnetization    =   229.58 Bohr mag/cell

     iteration # 45     ecut=    71.00 Ry     beta= 0.30
     Davidson diagonalization with overlap
     ethr =  1.04E-09,  avg # of iterations =  5.0

     negative rho (up, down):  1.571E-03 1.727E-03

     total cpu time spent up to now is     1027.0 secs

     total energy              =  -42651.90810832 Ry
     estimated scf accuracy    <       0.00001751 Ry

     total magnetization       =    -0.06 Bohr mag/cell
     absolute magnetization    =   229.55 Bohr mag/cell

     iteration # 46     ecut=    71.00 Ry     beta= 0.30
     Davidson diagonalization with overlap
     ethr =  8.48E-10,  avg # of iterations =  4.0

     negative rho (up, down):  1.540E-03 1.696E-03

     total cpu time spent up to now is     1050.2 secs

     total energy              =  -42651.90811261 Ry
     estimated scf accuracy    <       0.00000888 Ry

     total magnetization       =    -0.06 Bohr mag/cell
     absolute magnetization    =   229.55 Bohr mag/cell

     iteration # 47     ecut=    71.00 Ry     beta= 0.30
     Davidson diagonalization with overlap
     ethr =  4.30E-10,  avg # of iterations =  2.0

     negative rho (up, down):  1.474E-03 1.630E-03

     total cpu time spent up to now is     1071.2 secs

     total energy              =  -42651.90811248 Ry
     estimated scf accuracy    <       0.00000821 Ry

     total magnetization       =    -0.07 Bohr mag/cell
     absolute magnetization    =   229.54 Bohr mag/cell

     iteration # 48     ecut=    71.00 Ry     beta= 0.30
     Davidson diagonalization with overlap
     ethr =  3.97E-10,  avg # of iterations =  3.5

     negative rho (up, down):  1.474E-03 1.630E-03

     total cpu time spent up to now is     1093.1 secs

     total energy              =  -42651.90811628 Ry
     estimated scf accuracy    <       0.00000413 Ry

     total magnetization       =    -0.06 Bohr mag/cell
     absolute magnetization    =   229.53 Bohr mag/cell

     iteration # 49     ecut=    71.00 Ry     beta= 0.30
     Davidson diagonalization with overlap
     ethr =  2.00E-10,  avg # of iterations =  2.5

     negative rho (up, down):  1.525E-03 1.680E-03

     total cpu time spent up to now is     1114.8 secs

     total energy              =  -42651.90812180 Ry
     estimated scf accuracy    <       0.00000392 Ry

     total magnetization       =    -0.06 Bohr mag/cell
     absolute magnetization    =   229.53 Bohr mag/cell

     iteration # 50     ecut=    71.00 Ry     beta= 0.30
     Davidson diagonalization with overlap
     ethr =  1.90E-10,  avg # of iterations =  3.0

     negative rho (up, down):  1.580E-03 1.735E-03

     total cpu time spent up to now is     1137.0 secs

     total energy              =  -42651.90812584 Ry
     estimated scf accuracy    <       0.00000282 Ry

     total magnetization       =    -0.06 Bohr mag/cell
     absolute magnetization    =   229.53 Bohr mag/cell

     iteration # 51     ecut=    71.00 Ry     beta= 0.30
     Davidson diagonalization with overlap
     ethr =  1.37E-10,  avg # of iterations =  3.5

     negative rho (up, down):  1.677E-03 1.833E-03

     total cpu time spent up to now is     1158.6 secs

     total energy              =  -42651.90812939 Ry
     estimated scf accuracy    <       0.00000268 Ry

     total magnetization       =    -0.06 Bohr mag/cell
     absolute magnetization    =   229.53 Bohr mag/cell

     iteration # 52     ecut=    71.00 Ry     beta= 0.30
     Davidson diagonalization with overlap
     ethr =  1.30E-10,  avg # of iterations =  4.0

     negative rho (up, down):  1.727E-03 1.883E-03

     total cpu time spent up to now is     1181.7 secs

     total energy              =  -42651.90813042 Ry
     estimated scf accuracy    <       0.00000157 Ry

     total magnetization       =    -0.06 Bohr mag/cell
     absolute magnetization    =   229.53 Bohr mag/cell

     iteration # 53     ecut=    71.00 Ry     beta= 0.30
     Davidson diagonalization with overlap
     ethr =  7.60E-11,  avg # of iterations =  3.0

     negative rho (up, down):  1.765E-03 1.921E-03

     total cpu time spent up to now is     1204.0 secs

     total energy              =  -42651.90813147 Ry
     estimated scf accuracy    <       0.00000127 Ry

     total magnetization       =    -0.06 Bohr mag/cell
     absolute magnetization    =   229.53 Bohr mag/cell

     iteration # 54     ecut=    71.00 Ry     beta= 0.30
     Davidson diagonalization with overlap
     ethr =  6.14E-11,  avg # of iterations =  4.0

     negative rho (up, down):  1.784E-03 1.940E-03

     total cpu time spent up to now is     1226.3 secs

     total energy              =  -42651.90813188 Ry
     estimated scf accuracy    <       0.00000107 Ry

     total magnetization       =    -0.06 Bohr mag/cell
     absolute magnetization    =   229.53 Bohr mag/cell

     iteration # 55     ecut=    71.00 Ry     beta= 0.30
     Davidson diagonalization with overlap
     ethr =  5.18E-11,  avg # of iterations =  2.0

     negative rho (up, down):  1.761E-03 1.917E-03

     total cpu time spent up to now is     1247.0 secs

     total energy              =  -42651.90813298 Ry
     estimated scf accuracy    <       0.00000076 Ry

     total magnetization       =    -0.06 Bohr mag/cell
     absolute magnetization    =   229.53 Bohr mag/cell

     iteration # 56     ecut=    71.00 Ry     beta= 0.30
     Davidson diagonalization with overlap
     ethr =  3.66E-11,  avg # of iterations =  3.5

     negative rho (up, down):  1.746E-03 1.902E-03

     total cpu time spent up to now is     1269.6 secs

     total energy              =  -42651.90813349 Ry
     estimated scf accuracy    <       0.00000060 Ry

     total magnetization       =    -0.06 Bohr mag/cell
     absolute magnetization    =   229.52 Bohr mag/cell

     iteration # 57     ecut=    71.00 Ry     beta= 0.30
     Davidson diagonalization with overlap
     ethr =  2.89E-11,  avg # of iterations =  2.5

     negative rho (up, down):  1.772E-03 1.929E-03

     total cpu time spent up to now is     1291.0 secs

     total energy              =  -42651.90813384 Ry
     estimated scf accuracy    <       0.00000051 Ry

     total magnetization       =    -0.06 Bohr mag/cell
     absolute magnetization    =   229.52 Bohr mag/cell

     iteration # 58     ecut=    71.00 Ry     beta= 0.30
     Davidson diagonalization with overlap
     ethr =  2.46E-11,  avg # of iterations =  4.0

     negative rho (up, down):  1.733E-03 1.890E-03

     total cpu time spent up to now is     1314.3 secs

     total energy              =  -42651.90813435 Ry
     estimated scf accuracy    <       0.00000031 Ry

     total magnetization       =    -0.06 Bohr mag/cell
     absolute magnetization    =   229.52 Bohr mag/cell

     iteration # 59     ecut=    71.00 Ry     beta= 0.30
     Davidson diagonalization with overlap
     ethr =  1.49E-11,  avg # of iterations =  4.5

     negative rho (up, down):  1.772E-03 1.929E-03

     total cpu time spent up to now is     1337.3 secs

     total energy              =  -42651.90813430 Ry
     estimated scf accuracy    <       0.00000025 Ry

     total magnetization       =    -0.06 Bohr mag/cell
     absolute magnetization    =   229.51 Bohr mag/cell

     iteration # 60     ecut=    71.00 Ry     beta= 0.30
     Davidson diagonalization with overlap
     ethr =  1.23E-11,  avg # of iterations =  4.5

     negative rho (up, down):  1.777E-03 1.933E-03

     total cpu time spent up to now is     1361.6 secs

     total energy              =  -42651.90813433 Ry
     estimated scf accuracy    <       0.00000017 Ry

     total magnetization       =    -0.06 Bohr mag/cell
     absolute magnetization    =   229.51 Bohr mag/cell

     iteration # 61     ecut=    71.00 Ry     beta= 0.30
     Davidson diagonalization with overlap
     ethr =  8.09E-12,  avg # of iterations =  2.0

     negative rho (up, down):  1.756E-03 1.913E-03

     total cpu time spent up to now is     1382.8 secs

     total energy              =  -42651.90813465 Ry
     estimated scf accuracy    <       0.00000009 Ry

     total magnetization       =    -0.06 Bohr mag/cell
     absolute magnetization    =   229.51 Bohr mag/cell

     iteration # 62     ecut=    71.00 Ry     beta= 0.30
     Davidson diagonalization with overlap
     ethr =  4.20E-12,  avg # of iterations =  4.5

     negative rho (up, down):  1.735E-03 1.891E-03

     total cpu time spent up to now is     1406.5 secs

     total energy              =  -42651.90813485 Ry
     estimated scf accuracy    <       0.00000007 Ry

     total magnetization       =    -0.06 Bohr mag/cell
     absolute magnetization    =   229.51 Bohr mag/cell

     iteration # 63     ecut=    71.00 Ry     beta= 0.30
     Davidson diagonalization with overlap
     ethr =  3.49E-12,  avg # of iterations =  4.0

     negative rho (up, down):  1.725E-03 1.880E-03

     total cpu time spent up to now is     1429.6 secs

     total energy              =  -42651.90813492 Ry
     estimated scf accuracy    <       0.00000004 Ry

     total magnetization       =    -0.06 Bohr mag/cell
     absolute magnetization    =   229.51 Bohr mag/cell

     iteration # 64     ecut=    71.00 Ry     beta= 0.30
     Davidson diagonalization with overlap
     ethr =  2.14E-12,  avg # of iterations =  4.0

     negative rho (up, down):  1.717E-03 1.873E-03

     total cpu time spent up to now is     1454.5 secs

     total energy              =  -42651.90813495 Ry
     estimated scf accuracy    <       0.00000004 Ry

     total magnetization       =    -0.06 Bohr mag/cell
     absolute magnetization    =   229.51 Bohr mag/cell

     iteration # 65     ecut=    71.00 Ry     beta= 0.30
     Davidson diagonalization with overlap
     ethr =  1.80E-12,  avg # of iterations =  3.0

     negative rho (up, down):  1.716E-03 1.872E-03

     total cpu time spent up to now is     1476.5 secs

     total energy              =  -42651.90813497 Ry
     estimated scf accuracy    <       0.00000003 Ry

     total magnetization       =    -0.06 Bohr mag/cell
     absolute magnetization    =   229.51 Bohr mag/cell

     iteration # 66     ecut=    71.00 Ry     beta= 0.30
     Davidson diagonalization with overlap
     ethr =  1.28E-12,  avg # of iterations =  5.0

     negative rho (up, down):  1.720E-03 1.876E-03

     total cpu time spent up to now is     1500.5 secs

     total energy              =  -42651.90813499 Ry
     estimated scf accuracy    <       0.00000003 Ry

     total magnetization       =    -0.06 Bohr mag/cell
     absolute magnetization    =   229.51 Bohr mag/cell

     iteration # 67     ecut=    71.00 Ry     beta= 0.30
     Davidson diagonalization with overlap
     ethr =  1.28E-12,  avg # of iterations =  5.0

     negative rho (up, down):  1.718E-03 1.874E-03

     total cpu time spent up to now is     1525.0 secs

     total energy              =  -42651.90813501 Ry
     estimated scf accuracy    <       0.00000001 Ry

     total magnetization       =    -0.06 Bohr mag/cell
     absolute magnetization    =   229.51 Bohr mag/cell

     iteration # 68     ecut=    71.00 Ry     beta= 0.30
     Davidson diagonalization with overlap
     ethr =  6.58E-13,  avg # of iterations =  5.0

     negative rho (up, down):  1.723E-03 1.879E-03

     total cpu time spent up to now is     1549.7 secs

     total energy              =  -42651.90813501 Ry
     estimated scf accuracy    <       0.00000001 Ry

     total magnetization       =    -0.06 Bohr mag/cell
     absolute magnetization    =   229.51 Bohr mag/cell

     iteration # 69     ecut=    71.00 Ry     beta= 0.30
     Davidson diagonalization with overlap
     ethr =  6.32E-13,  avg # of iterations =  5.0

     negative rho (up, down):  1.712E-03 1.868E-03
 
     Magnetic moment per site:
     atom:    1    charge:   15.5100    magn:   -0.0077    constr:    0.0000
     atom:    2    charge:   14.1547    magn:    2.0055    constr:    0.0000
     atom:    3    charge:   14.1743    magn:   -2.0118    constr:    0.0000
     atom:    4    charge:   14.2060    magn:    1.4114    constr:    0.0000
     atom:    5    charge:   14.2342    magn:   -1.3378    constr:    0.0000
     atom:    6    charge:   14.2303    magn:    0.9380    constr:    0.0000
     atom:    7    charge:   14.2500    magn:   -0.9074    constr:    0.0000
     atom:    8    charge:   14.0998    magn:    2.3142    constr:    0.0000
     atom:    9    charge:   14.1157    magn:   -2.3191    constr:    0.0000
     atom:   10    charge:   14.1080    magn:    2.2284    constr:    0.0000
     atom:   11    charge:   14.1385    magn:   -2.1565    constr:    0.0000
     atom:   12    charge:   14.2262    magn:    1.1240    constr:    0.0000
     atom:   13    charge:   14.2379    magn:   -1.2294    constr:    0.0000
     atom:   14    charge:   14.2246    magn:    0.9684    constr:    0.0000
     atom:   15    charge:   14.2417    magn:   -0.9406    constr:    0.0000
     atom:   16    charge:   14.0986    magn:    2.3161    constr:    0.0000
     atom:   17    charge:   14.1159    magn:   -2.3017    constr:    0.0000
     atom:   18    charge:   14.1109    magn:    2.2174    constr:    0.0000
     atom:   19    charge:   14.1292    magn:   -2.2107    constr:    0.0000
     atom:   20    charge:   14.2182    magn:    1.2120    constr:    0.0000
     atom:   21    charge:   14.2375    magn:   -1.2053    constr:    0.0000
     atom:   22    charge:   14.2171    magn:    1.0385    constr:    0.0000
     atom:   23    charge:   14.2350    magn:   -1.0600    constr:    0.0000
     atom:   24    charge:   14.1025    magn:    2.2817    constr:    0.0000
     atom:   25    charge:   14.1185    magn:   -2.2873    constr:    0.0000
     atom:   26    charge:   14.1212    magn:    2.1513    constr:    0.0000
     atom:   27    charge:   14.1030    magn:   -2.2984    constr:    0.0000
     atom:   28    charge:   14.2149    magn:    1.2654    constr:    0.0000
     atom:   29    charge:   14.2378    magn:   -1.2307    constr:    0.0000
     atom:   30    charge:   14.2214    magn:    0.9463    constr:    0.0000
     atom:   31    charge:   14.2438    magn:   -0.9507    constr:    0.0000
     atom:   32    charge:   14.1000    magn:    2.2942    constr:    0.0000
     atom:   33    charge:   14.1146    magn:   -2.3232    constr:    0.0000
     atom:   34    charge:   14.0768    magn:    2.3541    constr:    0.0000
     atom:   35    charge:   14.1334    magn:   -2.2170    constr:    0.0000
     atom:   36    charge:   14.2187    magn:    0.8194    constr:    0.0000
     atom:   37    charge:   14.2382    magn:   -1.2407    constr:    0.0000
     atom:   38    charge:   14.2269    magn:    1.0743    constr:    0.0000
     atom:   39    charge:   14.2463    magn:   -1.1024    constr:    0.0000
     atom:   40    charge:   14.1094    magn:    2.2240    constr:    0.0000
     atom:   41    charge:   14.1284    magn:   -2.2599    constr:    0.0000
     atom:   42    charge:   14.1109    magn:    2.2298    constr:    0.0000
     atom:   43    charge:   14.1237    magn:   -2.2569    constr:    0.0000
     atom:   44    charge:   14.2216    magn:    1.1077    constr:    0.0000
     atom:   45    charge:   14.2412    magn:   -1.1638    constr:    0.0000
     atom:   46    charge:   14.2276    magn:    1.0032    constr:    0.0000
     atom:   47    charge:   14.2421    magn:   -1.0932    constr:    0.0000
     atom:   48    charge:   14.1131    magn:    2.2315    constr:    0.0000
     atom:   49    charge:   14.1241    magn:   -2.2681    constr:    0.0000
     atom:   50    charge:   14.1104    magn:    2.2404    constr:    0.0000
     atom:   51    charge:   14.1214    magn:   -2.2901    constr:    0.0000
     atom:   52    charge:   14.2247    magn:    0.9785    constr:    0.0000
     atom:   53    charge:   14.2404    magn:   -1.0397    constr:    0.0000
     atom:   54    charge:   14.2196    magn:    1.0761    constr:    0.0000
     atom:   55    charge:   14.2357    magn:   -1.1993    constr:    0.0000
     atom:   56    charge:   14.1145    magn:    2.1981    constr:    0.0000
     atom:   57    charge:   14.1232    magn:   -2.2487    constr:    0.0000
     atom:   58    charge:   14.1068    magn:    2.2587    constr:    0.0000
     atom:   59    charge:   14.1186    magn:   -2.2912    constr:    0.0000
     atom:   60    charge:   14.2224    magn:    0.9424    constr:    0.0000
     atom:   61    charge:   14.2283    magn:   -1.2222    constr:    0.0000
     atom:   62    charge:   14.2150    magn:    1.1931    constr:    0.0000
     atom:   63    charge:   14.2340    magn:   -1.2024    constr:    0.0000
     atom:   64    charge:   14.1121    magn:    2.1961    constr:    0.0000
     atom:   65    charge:   14.1194    magn:   -2.2729    constr:    0.0000
     atom:   66    charge:   14.1007    magn:    2.2998    constr:    0.0000
     atom:   67    charge:   14.1178    magn:   -2.2873    constr:    0.0000
     atom:   68    charge:   14.2196    magn:    1.0537    constr:    0.0000
     atom:   69    charge:   14.2374    magn:   -1.1044    constr:    0.0000
     atom:   70    charge:   14.2153    magn:    1.1939    constr:    0.0000
     atom:   71    charge:   14.2378    magn:   -1.1226    constr:    0.0000
     atom:   72    charge:   14.1141    magn:    2.2056    constr:    0.0000
     atom:   73    charge:   14.1294    magn:   -2.2209    constr:    0.0000
     atom:   74    charge:   14.1045    magn:    2.2692    constr:    0.0000
     atom:   75    charge:   14.1154    magn:   -2.3143    constr:    0.0000
     atom:   76    charge:   14.2165    magn:    1.0722    constr:    0.0000
     atom:   77    charge:   14.2410    magn:   -1.0561    constr:    0.0000
     atom:   78    charge:   14.2205    magn:    1.1527    constr:    0.0000
     atom:   79    charge:   14.2351    magn:   -1.2530    constr:    0.0000
     atom:   80    charge:   14.1067    magn:    2.2316    constr:    0.0000
     atom:   81    charge:   14.1321    magn:   -2.1930    constr:    0.0000
     atom:   82    charge:   14.1020    magn:    2.3038    constr:    0.0000
     atom:   83    charge:   14.1189    magn:   -2.3029    constr:    0.0000
     atom:   84    charge:   14.2269    magn:    0.9038    constr:    0.0000
     atom:   85    charge:   14.2453    magn:   -0.9180    constr:    0.0000
     atom:   86    charge:   14.2158    magn:    1.2949    constr:    0.0000
     atom:   87    charge:   14.2356    magn:   -1.2793    constr:    0.0000
     atom:   88    charge:   14.1212    magn:    2.1431    constr:    0.0000
     atom:   89    charge:   14.1381    magn:   -2.1468    constr:    0.0000
     atom:   90    charge:   14.0977    magn:    2.3203    constr:    0.0000
     atom:   91    charge:   14.1219    magn:   -2.2662    constr:    0.0000
     atom:   92    charge:   14.2217    magn:    1.0543    constr:    0.0000
     atom:   93    charge:   14.2350    magn:   -1.0789    constr:    0.0000
     atom:   94    charge:   14.2157    magn:    1.2579    constr:    0.0000
     atom:   95    charge:   14.2400    magn:   -1.1326    constr:    0.0000
     atom:   96    charge:   14.1158    magn:    2.1867    constr:    0.0000
     atom:   97    charge:   14.1230    magn:   -2.2336    constr:    0.0000
     atom:   98    charge:   14.1137    magn:    2.2305    constr:    0.0000
     atom:   99    charge:   14.1195    magn:   -2.2666    constr:    0.0000
     atom:  100    charge:   14.2249    magn:    1.2147    constr:    0.0000
     atom:  101    charge:   14.2403    magn:   -1.0228    constr:    0.0000
     atom:  102    charge:   14.2275    magn:    1.1352    constr:    0.0000
     atom:  103    charge:   14.2477    magn:   -1.0220    constr:    0.0000
     atom:  104    charge:   14.1124    magn:    2.2550    constr:    0.0000
     atom:  105    charge:   14.1248    magn:   -2.2416    constr:    0.0000
     atom:  106    charge:   14.1033    magn:    2.2764    constr:    0.0000
     atom:  107    charge:   14.1265    magn:   -2.2396    constr:    0.0000
     atom:  108    charge:   14.2188    magn:    1.1420    constr:    0.0000
     atom:  109    charge:   14.2416    magn:   -0.9683    constr:    0.0000
     atom:  110    charge:   14.2174    magn:    1.1944    constr:    0.0000
     atom:  111    charge:   14.2357    magn:   -1.1685    constr:    0.0000
     atom:  112    charge:   14.1033    magn:    2.2684    constr:    0.0000
     atom:  113    charge:   14.1277    magn:   -2.2095    constr:    0.0000
     atom:  114    charge:   14.1044    magn:    2.2892    constr:    0.0000
     atom:  115    charge:   14.1284    magn:   -2.2307    constr:    0.0000
     atom:  116    charge:   14.2210    magn:    1.0614    constr:    0.0000
     atom:  117    charge:   14.2429    magn:   -1.0093    constr:    0.0000
     atom:  118    charge:   14.2168    magn:    1.1953    constr:    0.0000
     atom:  119    charge:   14.2392    magn:   -1.0542    constr:    0.0000
     atom:  120    charge:   14.1066    magn:    2.2489    constr:    0.0000
     atom:  121    charge:   14.1307    magn:   -2.2061    constr:    0.0000
     atom:  122    charge:   14.1064    magn:    2.2585    constr:    0.0000
     atom:  123    charge:   14.1290    magn:   -2.2185    constr:    0.0000
     atom:  124    charge:   14.2216    magn:    1.1644    constr:    0.0000
     atom:  125    charge:   14.2400    magn:   -1.1192    constr:    0.0000
     atom:  126    charge:   14.2229    magn:    1.0942    constr:    0.0000
     atom:  127    charge:   14.2470    magn:   -0.9630    constr:    0.0000
     atom:  128    charge:   14.1079    magn:    2.2637    constr:    0.0000
     atom:  129    charge:   14.1285    magn:   -2.2433    constr:    0.0000

     total cpu time spent up to now is     1575.7 secs

     End of self-consistent calculation

 ------ SPIN UP ------------


          k = 0.0000 0.0000 0.0000 ( 91909 PWs)   bands (ev):

   -80.3677 -80.3024 -80.3000 -80.2977 -80.2943 -80.2936 -80.2827 -80.2817
   -80.2759 -80.2652 -80.2639 -80.2621 -80.2616 -80.2591 -80.2584 -80.2560
   -80.2543 -80.2516 -80.2492 -80.2431 -80.2389 -80.2340 -80.2319 -80.2305
   -80.2211 -80.2100 -80.2083 -80.2064 -80.2025 -80.1817 -80.1770 -80.1697
   -79.7698 -79.6935 -79.6694 -79.6648 -79.6361 -79.6323 -79.6253 -79.6236
   -79.6223 -79.6163 -79.6090 -79.5973 -79.5851 -79.5846 -79.5799 -79.5643
   -79.5553 -79.5447 -79.5419 -79.5358 -79.5329 -79.5266 -79.5205 -79.5092
   -79.4940 -79.4762 -79.4694 -79.4513 -79.4508 -79.4504 -79.4264 -79.3699
   -78.3875 -78.3823 -78.3695 -78.3645 -78.3619 -78.3585 -78.3431 -78.3413
   -78.3277 -78.3261 -78.3140 -78.3127 -78.3052 -78.3050 -78.3043 -78.2938
   -78.2902 -78.2887 -78.2750 -78.2685 -78.2630 -78.2586 -78.2436 -78.2413
   -78.2405 -78.2370 -78.2294 -78.2224 -78.2204 -78.2149 -78.2070 -78.1843
   -77.8618 -77.7078 -77.7067 -77.6984 -77.6881 -77.6854 -77.6825 -77.6781
   -77.6767 -77.6753 -77.6723 -77.6723 -77.6721 -77.6685 -77.6666 -77.6664
   -77.6653 -77.6652 -77.6648 -77.6586 -77.6572 -77.6558 -77.6553 -77.6509
   -77.6494 -77.6487 -77.6446 -77.6437 -77.6425 -77.6391 -77.6364 -77.6360
   -75.4980 -46.5156 -46.4603 -46.4577 -46.4546 -46.4502 -46.4442 -46.4416
   -46.4359 -46.4300 -46.4270 -46.4207 -46.4193 -46.4186 -46.4181 -46.4179
   -46.4168 -46.4132 -46.4129 -46.4077 -46.4038 -46.4021 -46.3977 -46.3953
   -46.3888 -46.3874 -46.3772 -46.3697 -46.3672 -46.3642 -46.3641 -46.3629
   -46.3604 -46.3600 -46.3559 -46.3544 -46.3499 -46.3493 -46.3464 -46.3422
   -46.3418 -46.3414 -46.3307 -46.3305 -46.3292 -46.3285 -46.3276 -46.3250
   -46.3229 -46.3211 -46.3187 -46.3152 -46.3146 -46.3077 -46.3069 -46.2963
   -46.2956 -46.2918 -46.2833 -46.2779 -46.2742 -46.2724 -46.2723 -46.2712
   -46.2691 -46.2673 -46.2672 -46.2671 -46.2564 -46.2527 -46.2464 -46.2458
   -46.2400 -46.2383 -46.2373 -46.2365 -46.2361 -46.2334 -46.2312 -46.2285
   -46.2253 -46.2248 -46.2239 -46.2206 -46.2159 -46.2155 -46.2134 -46.2097
   -46.2075 -46.2038 -46.1920 -46.1892 -46.1871 -46.1822 -46.1659 -46.1646
   -46.1558 -45.8621 -45.8489 -45.8058 -45.7826 -45.7793 -45.7655 -45.7616
   -45.7520 -45.7491 -45.7437 -45.7412 -45.7368 -45.7346 -45.7337 -45.7272
   -45.7263 -45.7249 -45.7240 -45.7207 -45.7178 -45.7162 -45.7042 -45.7027
   -45.7008 -45.6976 -45.6968 -45.6949 -45.6944 -45.6929 -45.6913 -45.6896
   -45.6867 -45.6854 -45.6821 -45.6811 -45.6738 -45.6726 -45.6705 -45.6633
   -45.6623 -45.6620 -45.6564 -45.6544 -45.6528 -45.6482 -45.6409 -45.6366
   -45.6263 -45.6187 -45.6075 -45.6065 -45.6051 -45.5967 -45.5936 -45.5872
   -45.5839 -45.5789 -45.5785 -45.5756 -45.5693 -45.5684 -45.5679 -45.5673
   -45.5600 -45.5520 -45.5518 -45.5488 -45.5438 -45.5319 -45.5305 -45.5294
   -45.5271 -45.5234 -45.5221 -45.5217 -45.5213 -45.5194 -45.5184 -45.5174
   -45.5071 -45.5058 -45.5050 -45.5026 -45.4996 -45.4967 -45.4882 -45.4761
   -45.4758 -45.4680 -45.4631 -45.4600 -45.4595 -45.4545 -45.4409 -45.4142
   -45.3934 -44.5099 -44.5059 -44.5055 -44.5043 -44.4960 -44.4925 -44.4899
   -44.4868 -44.4863 -44.4850 -44.4818 -44.4814 -44.4794 -44.4782 -44.4757
   -44.4720 -44.4705 -44.4684 -44.4652 -44.4631 -44.4600 -44.4583 -44.4574
   -44.4566 -44.4548 -44.4545 -44.4518 -44.4512 -44.4482 -44.4474 -44.4444
   -44.4441 -44.4428 -44.4401 -44.4394 -44.4338 -44.4274 -44.4266 -44.4249
   -44.4244 -44.4210 -44.4191 -44.4181 -44.4156 -44.4103 -44.4102 -44.4097
   -44.4023 -44.3985 -44.3911 -44.3884 -44.3857 -44.3785 -44.3662 -44.3534
   -44.3531 -44.3503 -44.3478 -44.3412 -44.3381 -44.3305 -44.3295 -44.3266
   -44.3258 -44.3252 -44.3245 -44.3236 -44.3214 -44.3157 -44.3109 -44.3089
   -44.3054 -44.3031 -44.3023 -44.3004 -44.2978 -44.2954 -44.2917 -44.2909
   -44.2884 -44.2876 -44.2864 -44.2834 -44.2807 -44.2801 -44.2792 -44.2776
   -44.2770 -44.2746 -44.2742 -44.2615 -44.2614 -44.2595 -44.2572 -44.2463
   -44.2434 -44.0394 -43.9254 -43.8865 -43.8855 -43.8721 -43.8693 -43.8623
   -43.8524 -43.8504 -43.8498 -43.8483 -43.8452 -43.8419 -43.8415 -43.8394
   -43.8386 -43.8349 -43.8331 -43.8323 -43.8319 -43.8310 -43.8242 -43.8214
   -43.8210 -43.8199 -43.8133 -43.8123 -43.8085 -43.8069 -43.8057 -43.8045
   -43.7972 -43.7969 -43.7943 -43.7942 -43.7913 -43.7865 -43.7851 -43.7747
   -43.7725 -43.7660 -43.7642 -43.7614 -43.7609 -43.7596 -43.7589 -43.7563
   -43.7554 -43.7534 -43.7532 -43.7522 -43.7492 -43.7469 -43.7453 -43.7444
   -43.7437 -43.7421 -43.7420 -43.7385 -43.7359 -43.7356 -43.7318 -43.7292
   -43.7268 -43.7246 -43.7161 -43.7154 -43.7150 -43.7043 -43.7010 -43.7006
   -43.7000 -43.6988 -43.6982 -43.6981 -43.6969 -43.6961 -43.6953 -43.6938
   -43.6930 -43.6913 -43.6908 -43.6898 -43.6884 -43.6863 -43.6846 -43.6842
   -43.6835 -43.6811 -43.6794 -43.6772 -43.6757 -43.6753 -43.6751 -43.6729
   -43.6724 -41.4293 -41.2345 -41.0999  -0.2064   0.5604   0.5673   0.6430
     0.6454   1.3211   1.3248   1.3284   1.3295   1.4587   2.1423   2.1667
     2.2264   2.2387   2.3737   2.5616   2.6800   2.6828   2.6966   2.7143
     2.7191   2.7232   2.9096   2.9126   2.9759   2.9775   3.0511   3.0513
     3.0539   3.0553   3.0842   3.0976   3.3298   3.3334   3.4314   3.4565
     3.4819   3.5066   3.5118   3.5189   3.5267   3.5302   3.5369   3.5732
     3.5787   3.6217   3.6659   3.6702   3.6753   3.6775   3.6882   3.6917
     3.7119   3.7225   3.7268   3.7384   3.7512   3.7585   3.7953   3.8028
     3.8105   3.8147   3.8503   3.8676   3.8724   3.8793   3.9019   3.9086
     3.9136   3.9823   3.9883   3.9939   3.9942   4.0002   4.0050   4.0067
     4.0090   4.0201   4.0364   4.0617   4.0678   4.0820   4.1090   4.1798
     4.2115   4.2159   4.2340   4.2512   4.2542   4.2599   4.2705   4.2723
     4.2732   4.2750   4.2797   4.2897   4.3234   4.3315   4.3393   4.3434
     4.3560   4.3571   4.3621   4.3686   4.3751   4.3808   4.3856   4.3887
     4.3892   4.3924   4.4045   4.4126   4.4171   4.4219   4.4235   4.4296
     4.4371   4.4394   4.4444   4.4508   4.4556   4.4587   4.4646   4.4665
     4.4703   4.4738   4.4777   4.4943   4.5071   4.5214   4.5226   4.5559
     4.5753   4.5793   4.5816   4.5845   4.5929   4.6138   4.6191   4.6230
     4.6251   4.6312   4.6688   4.6729   4.7032   4.7110   4.7219   4.7334
     4.7567   4.7625   4.7697   4.7724   4.7785   4.7833   4.7914   4.7940
     4.7995   4.8061   4.8109   4.8167   4.8260   4.8264   4.8387   4.8464
     4.8493   4.8582   4.8610   4.8720   4.8741   4.8856   4.8881   4.8950
     4.9022   4.9083   4.9089   4.9133   4.9202   4.9306   4.9340   4.9440
     4.9912   4.9942   4.9991   5.0054   5.0081   5.0109   5.0211   5.0330
     5.0443   5.0583   5.0615   5.1160   5.1337   5.1623   5.1660   5.1741
     5.1822   5.2082   5.2098   5.2139   5.2394   5.2504   5.2607   5.3042
     5.3241   5.3697   5.3842   5.3886   5.3972   5.4211   5.4265   5.4355
     5.4411   5.4497   5.4555   5.4573   5.4695   5.4771   5.4848   5.4989
     5.5061   5.5127   5.5388   5.5536   5.5560   5.5646   5.5759   5.5824
     5.5892   5.6083   5.6182   5.6204   5.6220   5.6327   5.6520   5.6582
     5.6690   5.6746   5.6813   5.6845   5.6862   5.6903   5.6946   5.7004
     5.7055   5.7100   5.7120   5.7141   5.7189   5.7206   5.7252   5.7283
     5.7343   5.7368   5.7388   5.7714   5.7758   5.7944   5.8322   5.8402
     5.8551   5.8561   5.8704   5.8740   5.8839   5.8906   5.8942   5.9051
     5.9072   5.9164   5.9172   5.9256   5.9420   5.9588   5.9609   5.9813
     5.9897   5.9942   6.0030   6.0213   6.0656   6.0713   6.0998   6.1053
     6.1111   6.1623   6.1924   6.2052   6.2103   6.2136   6.2303   6.2345
     6.2512   6.2547   6.2575   6.2619   6.2649   6.2747   6.2775   6.2798
     6.2868   6.2880   6.2929   6.2958   6.2990   6.3002   6.3013   6.3061
     6.3078   6.3089   6.3120   6.3174   6.3217   6.3278   6.3299   6.3324
     6.3688   6.3855   6.3956   6.4036   6.4144   6.4213   6.4433   6.4733
     6.5012   6.5083   6.5135   6.5167   6.5240   6.5268   6.5312   6.5364
     6.5400   6.5471   6.5476   6.5524   6.5590   6.5594   6.5634   6.5660
     6.5697   6.5742   6.5915   6.5959   6.5989   6.6030   6.6047   6.6069
     6.6096   6.6119   6.6139   6.6205   6.6237   6.6282   6.6309   6.6360
     6.6381   6.6473   6.6566   6.6597   6.6694   6.6756   6.6775   6.7019
     6.7139   6.7260   6.7270   6.7322   6.7418   6.7432   6.7503   6.7519
     6.7628   6.7730   6.7864   6.7959   6.8019   6.8075   6.8121   6.8171
     6.8230   6.8300   6.8393   6.8444   6.8536   6.8613   6.8742   6.8797
     6.8802   6.8839   6.8879   6.8960   6.8977   6.9047   6.9073   6.9130
     6.9242   6.9488   6.9625   6.9708   6.9759   6.9813   6.9869   6.9922
     6.9993   7.0015   7.0101   7.0253   7.0284   7.0424   7.0445   7.0503
     7.0629   7.0752   7.0793   7.0975   7.1067   7.1122   7.1388   7.1454
     7.1534   7.1673   7.1758   7.1853   7.1918   7.2045   7.2119   7.2145
     7.2206   7.2322   7.2397   7.2417   7.2516   7.2588   7.2642   7.2727
     7.2747   7.2874   7.2907   7.2988   7.3615   7.3714   7.3838   7.3941
     7.4330   7.4724   7.4816   7.5057   7.5085   7.5140   7.5174   7.5287
     7.5346   7.5369   7.5439   7.5528   7.5644   7.5673   7.5721   7.5771
     7.5796   7.5865   7.6021   7.6155   7.6355   7.6408   7.6426   7.6545
     7.6585   7.6728   7.7190   7.7235   7.7290   7.7392   7.7480   7.7571
     7.7736   7.7755   7.7841   7.7923   7.8020   7.8043   7.8116   7.8232
     7.8384   7.8439   7.8884   7.9006   7.9093   7.9151   7.9326   7.9406
     7.9441   7.9616   7.9654   7.9676   7.9776   7.9831   7.9856   7.9996
     8.0046   8.0137   8.0373   8.0484   8.0570   8.0617   8.0626   8.0737
     8.0801   8.0899   8.1124   8.1284   8.1353   8.1424   8.1453   8.1590
     8.1764   8.1798   8.1843   8.1884   8.2002   8.2037   8.2066   8.2107
     8.2258   8.2681   8.2835   8.2924   8.2938   8.2959   8.3093   8.3107
     8.3438   8.3464   8.3501   8.3786   8.3891   8.4248   8.4371   8.4396
     8.4506   8.4644   8.4690   8.4748   8.4801   8.4910   8.5085   8.5239
     8.5514   8.5917   8.5974   8.6122   8.6588   8.6739   8.6824   8.6864
     8.6937   8.7030   8.7054   8.7173   8.7619   8.7755   8.7782   8.7805
     8.7830   8.7845   8.7873   8.7879   8.7907   8.7950   8.7954   8.7985
     8.8046   8.8106   8.8130   8.8136   8.8172   8.8204   8.8215   8.8238
     8.8283   8.8295   8.8301   8.8323   8.8374   8.8393   8.8411   8.8452
     8.8493   8.8515   8.8522   8.8567   8.8624   8.8672   8.8680   8.8692
     8.8729   8.8746   8.8880   8.8972   8.9042   8.9095   8.9148   8.9189
     8.9282   8.9331   8.9349   8.9391   8.9582   8.9753   8.9764   8.9796
     8.9823   8.9844   8.9877   8.9944   9.0053   9.0145   9.0183   9.0191
     9.0243   9.0558   9.0572   9.0593   9.0639   9.0659   9.0704   9.0724
     9.0749   9.0758   9.0776   9.0790   9.0866   9.1236   9.1304   9.1509
     9.1591   9.1624   9.1755   9.1767   9.1787   9.1796   9.1817   9.1850
     9.1871   9.1945   9.1964   9.2000   9.2036   9.2171   9.2285   9.2352
     9.2510   9.2527   9.2578   9.2584   9.2640   9.2686   9.2701   9.2711
     9.2749   9.2812   9.2848   9.2869   9.2899   9.3044   9.3108   9.3251
     9.3315   9.3394   9.3574   9.3663   9.3715   9.3781   9.3890   9.3929
     9.4012   9.4038   9.4058   9.4076   9.4102   9.4148   9.4213   9.4243
     9.4266   9.4309   9.4445   9.4532   9.4581   9.4782   9.4898   9.5080
     9.5284   9.5426   9.5619   9.5836   9.5943   9.6043   9.6309   9.6351
     9.6427   9.7448   9.7618   9.8948   9.9879  10.0623  10.3078  10.3116
    10.4233  10.4469  10.4849  10.5182  10.5244  10.5474  10.5509  10.5631
    10.5781  10.6402  10.6425  10.6517  10.7167  10.7443  10.7519  10.7929

 ------ SPIN DOWN ----------


          k = 0.0000 0.0000 0.0000 ( 91909 PWs)   bands (ev):

   -80.3082 -80.3060 -80.3038 -80.2949 -80.2895 -80.2878 -80.2806 -80.2780
   -80.2765 -80.2758 -80.2755 -80.2668 -80.2637 -80.2624 -80.2576 -80.2482
   -80.2473 -80.2461 -80.2457 -80.2437 -80.2370 -80.2345 -80.2331 -80.2298
   -80.2254 -80.2156 -80.2150 -80.2142 -80.2059 -80.1813 -80.1787 -80.1717
   -79.7262 -79.6817 -79.6600 -79.6558 -79.6535 -79.6511 -79.6395 -79.6322
   -79.6235 -79.6210 -79.6074 -79.5997 -79.5870 -79.5787 -79.5682 -79.5672
   -79.5536 -79.5521 -79.5385 -79.5302 -79.5275 -79.5214 -79.5168 -79.5124
   -79.4995 -79.4948 -79.4682 -79.4666 -79.4540 -79.4476 -79.4353 -79.4292
   -78.4324 -78.3887 -78.3723 -78.3702 -78.3649 -78.3596 -78.3541 -78.3440
   -78.3254 -78.3196 -78.3137 -78.3077 -78.3074 -78.3048 -78.3029 -78.2935
   -78.2921 -78.2821 -78.2784 -78.2724 -78.2626 -78.2608 -78.2468 -78.2448
   -78.2433 -78.2410 -78.2350 -78.2286 -78.2130 -78.2056 -78.1994 -78.1416
   -77.8662 -77.7116 -77.7077 -77.6962 -77.6949 -77.6895 -77.6837 -77.6826
   -77.6757 -77.6752 -77.6733 -77.6727 -77.6679 -77.6670 -77.6669 -77.6657
   -77.6645 -77.6589 -77.6582 -77.6572 -77.6569 -77.6543 -77.6539 -77.6528
   -77.6509 -77.6482 -77.6471 -77.6449 -77.6449 -77.6362 -77.6359 -77.6338
   -75.5049 -46.4633 -46.4606 -46.4541 -46.4523 -46.4465 -46.4412 -46.4411
   -46.4381 -46.4379 -46.4317 -46.4267 -46.4228 -46.4211 -46.4192 -46.4130
   -46.4100 -46.4068 -46.4040 -46.4013 -46.4010 -46.3996 -46.3947 -46.3923
   -46.3911 -46.3878 -46.3856 -46.3727 -46.3716 -46.3699 -46.3666 -46.3648
   -46.3637 -46.3574 -46.3537 -46.3509 -46.3439 -46.3437 -46.3420 -46.3420
   -46.3395 -46.3392 -46.3323 -46.3323 -46.3269 -46.3260 -46.3236 -46.3236
   -46.3167 -46.3140 -46.3105 -46.3062 -46.3037 -46.3004 -46.2993 -46.2978
   -46.2977 -46.2860 -46.2836 -46.2812 -46.2775 -46.2772 -46.2748 -46.2708
   -46.2659 -46.2634 -46.2606 -46.2579 -46.2550 -46.2545 -46.2483 -46.2481
   -46.2458 -46.2419 -46.2414 -46.2407 -46.2396 -46.2391 -46.2388 -46.2305
   -46.2247 -46.2227 -46.2224 -46.2218 -46.2189 -46.2133 -46.2115 -46.2095
   -46.2055 -46.2025 -46.1977 -46.1969 -46.1944 -46.1861 -46.1684 -46.1659
   -46.1576 -45.8136 -45.8037 -45.7741 -45.7726 -45.7659 -45.7649 -45.7614
   -45.7579 -45.7526 -45.7505 -45.7396 -45.7345 -45.7306 -45.7300 -45.7256
   -45.7246 -45.7240 -45.7237 -45.7233 -45.7216 -45.7205 -45.7191 -45.7179
   -45.7154 -45.7131 -45.7063 -45.7018 -45.6992 -45.6971 -45.6944 -45.6912
   -45.6902 -45.6880 -45.6870 -45.6843 -45.6827 -45.6732 -45.6669 -45.6652
   -45.6634 -45.6609 -45.6552 -45.6527 -45.6510 -45.6453 -45.6441 -45.6321
   -45.6295 -45.6168 -45.6133 -45.6011 -45.5988 -45.5930 -45.5912 -45.5892
   -45.5804 -45.5799 -45.5758 -45.5744 -45.5727 -45.5685 -45.5665 -45.5605
   -45.5585 -45.5539 -45.5507 -45.5493 -45.5484 -45.5431 -45.5314 -45.5287
   -45.5279 -45.5271 -45.5236 -45.5234 -45.5232 -45.5205 -45.5202 -45.5173
   -45.5159 -45.5112 -45.5092 -45.5079 -45.5068 -45.5007 -45.4972 -45.4863
   -45.4858 -45.4847 -45.4767 -45.4747 -45.4735 -45.4613 -45.4585 -45.4476
   -45.4422 -44.5520 -44.5391 -44.5115 -44.5109 -44.5099 -44.4978 -44.4941
   -44.4932 -44.4915 -44.4882 -44.4872 -44.4868 -44.4861 -44.4809 -44.4751
   -44.4735 -44.4726 -44.4719 -44.4691 -44.4642 -44.4638 -44.4605 -44.4603
   -44.4591 -44.4580 -44.4569 -44.4551 -44.4497 -44.4472 -44.4457 -44.4409
   -44.4376 -44.4365 -44.4337 -44.4308 -44.4289 -44.4269 -44.4261 -44.4254
   -44.4245 -44.4240 -44.4222 -44.4181 -44.4163 -44.4131 -44.4110 -44.4093
   -44.4029 -44.3962 -44.3944 -44.3923 -44.3825 -44.3786 -44.3782 -44.3571
   -44.3545 -44.3541 -44.3519 -44.3465 -44.3454 -44.3389 -44.3308 -44.3282
   -44.3264 -44.3235 -44.3213 -44.3204 -44.3190 -44.3147 -44.3134 -44.3099
   -44.3097 -44.3075 -44.3071 -44.3031 -44.2999 -44.2929 -44.2925 -44.2923
   -44.2899 -44.2842 -44.2828 -44.2815 -44.2808 -44.2800 -44.2753 -44.2745
   -44.2734 -44.2715 -44.2679 -44.2601 -44.2556 -44.2488 -44.2452 -44.2176
   -44.2007 -44.0204 -43.9611 -43.8924 -43.8866 -43.8714 -43.8677 -43.8637
   -43.8604 -43.8552 -43.8543 -43.8456 -43.8452 -43.8451 -43.8402 -43.8375
   -43.8354 -43.8351 -43.8306 -43.8301 -43.8260 -43.8241 -43.8216 -43.8193
   -43.8191 -43.8149 -43.8140 -43.8114 -43.8106 -43.8083 -43.8076 -43.8063
   -43.7954 -43.7945 -43.7943 -43.7939 -43.7934 -43.7854 -43.7767 -43.7764
   -43.7735 -43.7733 -43.7682 -43.7625 -43.7595 -43.7572 -43.7569 -43.7566
   -43.7551 -43.7534 -43.7530 -43.7521 -43.7504 -43.7470 -43.7461 -43.7456
   -43.7444 -43.7427 -43.7415 -43.7380 -43.7366 -43.7364 -43.7350 -43.7267
   -43.7255 -43.7220 -43.7195 -43.7194 -43.7154 -43.7148 -43.7051 -43.7006
   -43.6991 -43.6983 -43.6955 -43.6948 -43.6947 -43.6939 -43.6914 -43.6902
   -43.6901 -43.6895 -43.6889 -43.6887 -43.6857 -43.6845 -43.6839 -43.6837
   -43.6836 -43.6819 -43.6816 -43.6786 -43.6766 -43.6754 -43.6734 -43.6727
   -43.6720 -41.4420 -41.2391 -41.1040  -0.2064   0.5605   0.5675   0.6434
     0.6450   1.3218   1.3243   1.3279   1.3298   1.4587   2.1426   2.1667
     2.2260   2.2385   2.3748   2.5604   2.6791   2.6826   2.6973   2.7140
     2.7191   2.7229   2.9101   2.9137   2.9750   2.9772   3.0506   3.0520
     3.0539   3.0544   3.0858   3.0978   3.3298   3.3329   3.4451   3.4581
     3.4817   3.5020   3.5075   3.5177   3.5260   3.5277   3.5357   3.5740
     3.5782   3.6366   3.6652   3.6738   3.6752   3.6779   3.6865   3.6908
     3.7037   3.7206   3.7224   3.7393   3.7524   3.7591   3.7968   3.8021
     3.8095   3.8160   3.8440   3.8629   3.8719   3.8786   3.9004   3.9109
     3.9131   3.9814   3.9869   3.9896   3.9962   4.0010   4.0022   4.0070
     4.0112   4.0231   4.0370   4.0611   4.0698   4.0770   4.1076   4.1746
     4.2048   4.2195   4.2342   4.2485   4.2548   4.2588   4.2620   4.2687
     4.2714   4.2767   4.2798   4.2866   4.3235   4.3288   4.3429   4.3471
     4.3557   4.3597   4.3619   4.3683   4.3726   4.3798   4.3822   4.3861
     4.3905   4.3923   4.4043   4.4113   4.4180   4.4202   4.4243   4.4311
     4.4378   4.4391   4.4487   4.4500   4.4525   4.4565   4.4648   4.4670
     4.4691   4.4741   4.4761   4.4983   4.5044   4.5154   4.5203   4.5557
     4.5762   4.5786   4.5810   4.5832   4.5879   4.6163   4.6221   4.6236
     4.6240   4.6302   4.6704   4.6760   4.7033   4.7119   4.7168   4.7294
     4.7557   4.7630   4.7656   4.7715   4.7838   4.7860   4.7897   4.7908
     4.8016   4.8050   4.8113   4.8190   4.8232   4.8262   4.8341   4.8434
     4.8523   4.8565   4.8584   4.8677   4.8793   4.8854   4.8886   4.8965
     4.9026   4.9051   4.9081   4.9129   4.9191   4.9335   4.9371   4.9452
     4.9913   4.9980   5.0010   5.0059   5.0074   5.0106   5.0251   5.0365
     5.0438   5.0590   5.0619   5.1197   5.1349   5.1533   5.1631   5.1744
     5.1792   5.2059   5.2099   5.2117   5.2370   5.2456   5.2601   5.3060
     5.3205   5.3539   5.3798   5.3903   5.3959   5.4153   5.4256   5.4347
     5.4393   5.4485   5.4543   5.4580   5.4630   5.4772   5.4902   5.4988
     5.5032   5.5147   5.5425   5.5508   5.5528   5.5628   5.5776   5.5858
     5.5957   5.6109   5.6195   5.6212   5.6265   5.6335   5.6515   5.6569
     5.6650   5.6701   5.6773   5.6835   5.6869   5.6916   5.6988   5.6992
     5.7037   5.7098   5.7136   5.7156   5.7195   5.7234   5.7239   5.7282
     5.7318   5.7362   5.7381   5.7716   5.7755   5.7917   5.8229   5.8540
     5.8551   5.8602   5.8669   5.8781   5.8848   5.8875   5.8992   5.9023
     5.9067   5.9169   5.9188   5.9249   5.9463   5.9619   5.9637   5.9861
     5.9883   5.9948   6.0053   6.0383   6.0610   6.0746   6.0817   6.0918
     6.1270   6.1674   6.1937   6.2036   6.2108   6.2240   6.2272   6.2327
     6.2495   6.2498   6.2572   6.2613   6.2708   6.2712   6.2769   6.2802
     6.2851   6.2886   6.2937   6.2957   6.2982   6.3009   6.3034   6.3051
     6.3071   6.3094   6.3122   6.3154   6.3173   6.3246   6.3277   6.3300
     6.3607   6.3855   6.3954   6.3994   6.4063   6.4141   6.4443   6.4530
     6.5008   6.5048   6.5122   6.5200   6.5242   6.5274   6.5292   6.5352
     6.5428   6.5478   6.5498   6.5534   6.5574   6.5603   6.5609   6.5657
     6.5670   6.5797   6.5890   6.5963   6.5982   6.6012   6.6051   6.6068
     6.6074   6.6115   6.6164   6.6172   6.6247   6.6290   6.6319   6.6353
     6.6386   6.6443   6.6534   6.6575   6.6669   6.6797   6.6849   6.6962
     6.7172   6.7257   6.7293   6.7361   6.7374   6.7507   6.7541   6.7593
     6.7670   6.7739   6.7885   6.7918   6.8017   6.8051   6.8123   6.8175
     6.8268   6.8329   6.8403   6.8429   6.8566   6.8656   6.8773   6.8803
     6.8822   6.8847   6.8879   6.8928   6.8994   6.9021   6.9050   6.9208
     6.9247   6.9442   6.9642   6.9679   6.9772   6.9824   6.9852   6.9929
     6.9945   7.0052   7.0161   7.0214   7.0322   7.0388   7.0452   7.0499
     7.0667   7.0791   7.0801   7.0939   7.1065   7.1154   7.1334   7.1396
     7.1481   7.1677   7.1741   7.1855   7.1910   7.2034   7.2117   7.2166
     7.2185   7.2285   7.2291   7.2462   7.2484   7.2573   7.2634   7.2721
     7.2774   7.2835   7.2884   7.2951   7.3593   7.3815   7.3836   7.4025
     7.4410   7.4642   7.4826   7.5073   7.5093   7.5140   7.5177   7.5263
     7.5313   7.5393   7.5527   7.5549   7.5640   7.5671   7.5706   7.5761
     7.5825   7.5875   7.6023   7.6118   7.6301   7.6367   7.6491   7.6593
     7.6605   7.6966   7.7211   7.7280   7.7343   7.7438   7.7514   7.7597
     7.7722   7.7793   7.7839   7.7911   7.7963   7.8020   7.8126   7.8228
     7.8388   7.8474   7.8892   7.9006   7.9101   7.9151   7.9351   7.9408
     7.9440   7.9589   7.9678   7.9716   7.9769   7.9807   7.9948   8.0003
     8.0038   8.0053   8.0390   8.0525   8.0539   8.0583   8.0674   8.0724
     8.0816   8.0860   8.0990   8.1290   8.1370   8.1431   8.1451   8.1514
     8.1714   8.1741   8.1863   8.1866   8.1959   8.2026   8.2065   8.2151
     8.2280   8.2611   8.2740   8.2856   8.2964   8.2984   8.3044   8.3099
     8.3231   8.3418   8.3476   8.3804   8.3869   8.4289   8.4347   8.4433
     8.4499   8.4608   8.4627   8.4647   8.4805   8.4884   8.5109   8.5200
     8.5532   8.5811   8.5988   8.6101   8.6599   8.6725   8.6841   8.6859
     8.6928   8.7029   8.7076   8.7184   8.7612   8.7740   8.7787   8.7828
     8.7840   8.7853   8.7877   8.7883   8.7902   8.7935   8.7963   8.7969
     8.8026   8.8083   8.8119   8.8138   8.8158   8.8191   8.8216   8.8254
     8.8290   8.8295   8.8307   8.8320   8.8352   8.8387   8.8419   8.8455
     8.8468   8.8492   8.8519   8.8560   8.8596   8.8650   8.8683   8.8687
     8.8711   8.8737   8.8853   8.9014   8.9036   8.9091   8.9121   8.9190
     8.9273   8.9324   8.9344   8.9404   8.9563   8.9737   8.9762   8.9769
     8.9802   8.9848   8.9853   8.9940   9.0096   9.0116   9.0159   9.0187
     9.0217   9.0522   9.0566   9.0605   9.0632   9.0674   9.0684   9.0714
     9.0748   9.0755   9.0761   9.0776   9.0868   9.1230   9.1299   9.1517
     9.1572   9.1623   9.1735   9.1754   9.1775   9.1794   9.1810   9.1851
     9.1876   9.1882   9.1966   9.1995   9.2028   9.2160   9.2251   9.2327
     9.2463   9.2549   9.2570   9.2580   9.2629   9.2673   9.2696   9.2711
     9.2747   9.2817   9.2828   9.2864   9.2884   9.3044   9.3096   9.3252
     9.3288   9.3389   9.3556   9.3654   9.3717   9.3766   9.3842   9.3944
     9.3986   9.4022   9.4054   9.4072   9.4107   9.4149   9.4209   9.4217
     9.4247   9.4304   9.4456   9.4581   9.4593   9.4767   9.4918   9.5078
     9.5252   9.5402   9.5627   9.5858   9.5895   9.6085   9.6314   9.6348
     9.6419   9.7473   9.7560   9.8891   9.9913  10.0773  10.3081  10.3142
    10.4291  10.4469  10.4800  10.5170  10.5210  10.5344  10.5558  10.5572
    10.5904  10.6289  10.6430  10.6607  10.7050  10.7424  10.7517  10.7577

     the Fermi energy is     8.1865 ev

!    total energy              =  -42651.90813504 Ry

     total all-electron energy =   -335917.891045 Ry
     estimated scf accuracy    <          6.9E-09 Ry
     smearing contrib. (-TS)   =       0.00968741 Ry
     internal energy E=F+TS    =  -42651.91782245 Ry

     The total energy is F=E-TS. E is the sum of the following terms:
     one-electron contribution =  -98081.71575239 Ry
     hartree contribution      =   49555.45382476 Ry
     xc contribution           =   -3575.64020778 Ry
     ewald contribution        =   20302.79484555 Ry
     one-center paw contrib.   =  -10852.81053258 Ry

     total magnetization       =    -0.06 Bohr mag/cell
     absolute magnetization    =   229.51 Bohr mag/cell

     convergence has been achieved in  69 iterations

     negative rho (up, down):  1.712E-03 1.868E-03

     Forces acting on atoms (cartesian axes, Ry/au):

     atom    1 type  3   force =     0.01435512   -0.01511704    0.00730034
     atom    2 type  1   force =     0.00043829    0.00013674   -0.00063291
     atom    3 type  2   force =    -0.00182527    0.00182527    0.00056780
     atom    4 type  1   force =     0.00002166    0.00333981   -0.00208110
     atom    5 type  2   force =    -0.00031322   -0.00254282   -0.00123418
     atom    6 type  1   force =     0.00130924   -0.00115413    0.00005723
     atom    7 type  2   force =    -0.00122137    0.00111705   -0.00013180
     atom    8 type  1   force =     0.00205429   -0.00021336    0.00114553
     atom    9 type  2   force =    -0.00195953    0.00036320    0.00112836
     atom   10 type  1   force =    -0.00366156    0.00219726   -0.00278632
     atom   11 type  2   force =    -0.00380293    0.00091599   -0.00212876
     atom   12 type  1   force =     0.00000677   -0.00240484   -0.00165047
     atom   13 type  2   force =     0.00036040   -0.00037458   -0.00136329
     atom   14 type  1   force =    -0.00237673    0.00105461    0.00381946
     atom   15 type  2   force =    -0.00225783    0.00015102   -0.00044508
     atom   16 type  1   force =     0.00011133    0.00020702    0.00061652
     atom   17 type  2   force =     0.00062721   -0.00066178   -0.00033945
     atom   18 type  1   force =    -0.00013793   -0.00005995    0.00007155
     atom   19 type  2   force =     0.00005772    0.00000914   -0.00000994
     atom   20 type  1   force =     0.00264078    0.00186891    0.00272298
     atom   21 type  2   force =    -0.00265738   -0.00186387    0.00278999
     atom   22 type  1   force =     0.00119390   -0.00008957    0.00117463
     atom   23 type  2   force =    -0.00105369    0.00042510    0.00093149
     atom   24 type  1   force =    -0.00008927   -0.00079712   -0.00204502
     atom   25 type  2   force =    -0.00000958    0.00110668   -0.00207508
     atom   26 type  1   force =     0.00362160   -0.00095457   -0.00208268
     atom   27 type  2   force =     0.00255833   -0.00003968   -0.00673520
     atom   28 type  1   force =    -0.00100931    0.00083125   -0.00177125
     atom   29 type  2   force =     0.00024404    0.00203759   -0.00185413
     atom   30 type  1   force =     0.00243767    0.00029632   -0.00086099
     atom   31 type  2   force =     0.00233316   -0.00084344    0.00337236
     atom   32 type  1   force =    -0.00064499    0.00082154   -0.00034659
     atom   33 type  2   force =    -0.00009404   -0.00017457    0.00041037
     atom   34 type  1   force =    -0.00012391   -0.00248336   -0.00671483
     atom   35 type  2   force =    -0.00164738   -0.00387393   -0.00036576
     atom   36 type  1   force =     0.00168295    0.00154633   -0.00208829
     atom   37 type  2   force =    -0.00067889   -0.00094889   -0.00686483
     atom   38 type  1   force =     0.00010591   -0.00080666    0.00246065
     atom   39 type  2   force =     0.00111893    0.00041669   -0.00166115
     atom   40 type  1   force =     0.00424144   -0.00081549    0.00022284
     atom   41 type  2   force =     0.00003243    0.00154186    0.00582640
     atom   42 type  1   force =    -0.00171972    0.00047141    0.00177202
     atom   43 type  2   force =    -0.00034897   -0.00104107   -0.00225077
     atom   44 type  1   force =    -0.00092712   -0.00293423   -0.00383975
     atom   45 type  2   force =    -0.00088257   -0.00240193    0.00218675
     atom   46 type  1   force =    -0.00396563    0.00196294   -0.00177985
     atom   47 type  2   force =    -0.00035181    0.00119343    0.00029388
     atom   48 type  1   force =     0.00072958    0.00191208    0.00492680
     atom   49 type  2   force =     0.00118354   -0.00184225    0.00169563
     atom   50 type  1   force =     0.00104048    0.00265374   -0.00259777
     atom   51 type  2   force =     0.00017955    0.00183447   -0.00333293
     atom   52 type  1   force =     0.00247042   -0.00278287   -0.00045462
     atom   53 type  2   force =     0.00140647    0.00151797    0.00379355
     atom   54 type  1   force =    -0.00353901    0.00172391    0.00118424
     atom   55 type  2   force =    -0.00240501   -0.00092202    0.00290328
     atom   56 type  1   force =    -0.00074981    0.00000984   -0.00014872
     atom   57 type  2   force =    -0.00008194    0.00015454   -0.00072531
     atom   58 type  1   force =     0.00135820    0.00359663   -0.00150881
     atom   59 type  2   force =    -0.00178250    0.00190246   -0.00064795
     atom   60 type  1   force =     0.00225166    0.00148892    0.00029510
     atom   61 type  2   force =    -0.00015651    0.00332383   -0.00458770
     atom   62 type  1   force =    -0.00365511   -0.00216226    0.00266875
     atom   63 type  2   force =    -0.00219469   -0.00326625    0.00057852
     atom   64 type  1   force =     0.00139103   -0.00016971    0.00049683
     atom   65 type  2   force =     0.00105352   -0.00112068    0.00012834
     atom   66 type  1   force =    -0.00098171    0.00004334    0.00118971
     atom   67 type  2   force =     0.00107274    0.00003151    0.00144674
     atom   68 type  1   force =    -0.00461964   -0.00061183   -0.00185451
     atom   69 type  2   force =     0.00477595    0.00052836   -0.00155396
     atom   70 type  1   force =    -0.00044252   -0.00171017   -0.00175188
     atom   71 type  2   force =     0.00017098    0.00187033   -0.00110349
     atom   72 type  1   force =     0.00014756   -0.00071814    0.00120796
     atom   73 type  2   force =    -0.00084581    0.00071258    0.00140352
     atom   74 type  1   force =     0.00074626    0.00252380    0.00021568
     atom   75 type  2   force =     0.00221414    0.00010641   -0.00003681
     atom   76 type  1   force =     0.00080201    0.00054560   -0.00235379
     atom   77 type  2   force =    -0.00169334    0.00024261   -0.00034764
     atom   78 type  1   force =     0.00288053    0.00132640   -0.00072854
     atom   79 type  2   force =    -0.00012368    0.00102974    0.00185090
     atom   80 type  1   force =    -0.00300013    0.00067646   -0.00131603
     atom   81 type  2   force =    -0.00139594   -0.00203410    0.00160416
     atom   82 type  1   force =    -0.00033781   -0.00079276   -0.00013161
     atom   83 type  2   force =     0.00025718    0.00089256   -0.00010933
     atom   84 type  1   force =    -0.00175793    0.00310864    0.00164240
     atom   85 type  2   force =     0.00154432   -0.00297475    0.00151931
     atom   86 type  1   force =     0.00017575    0.00119994    0.00374979
     atom   87 type  2   force =    -0.00044777   -0.00118026    0.00354808
     atom   88 type  1   force =     0.00113663   -0.00057307    0.00096079
     atom   89 type  2   force =    -0.00134019    0.00067084    0.00096264
     atom   90 type  1   force =    -0.00230242    0.00008146   -0.00009031
     atom   91 type  2   force =    -0.00065868   -0.00220456    0.00043042
     atom   92 type  1   force =     0.00153359   -0.00022233   -0.00034353
     atom   93 type  2   force =    -0.00083741   -0.00030715   -0.00265631
     atom   94 type  1   force =    -0.00021742   -0.00075786    0.00176569
     atom   95 type  2   force =    -0.00297820   -0.00150346   -0.00085977
     atom   96 type  1   force =     0.00112933    0.00228595    0.00151243
     atom   97 type  2   force =     0.00235009   -0.00066639   -0.00149124
     atom   98 type  1   force =     0.00211760    0.00396024   -0.00033684
     atom   99 type  2   force =    -0.00075137    0.00439414   -0.00236828
     atom  100 type  1   force =    -0.00122565    0.00133342   -0.00507500
     atom  101 type  2   force =    -0.00295539   -0.00132464   -0.00090462
     atom  102 type  1   force =    -0.00161565   -0.00040805   -0.00123187
     atom  103 type  2   force =    -0.00073226    0.00077992    0.00304756
     atom  104 type  1   force =    -0.00001933   -0.00146860    0.00572425
     atom  105 type  2   force =    -0.00433722    0.00093018    0.00048059
     atom  106 type  1   force =     0.00155332   -0.00141840   -0.00056458
     atom  107 type  2   force =    -0.00180613   -0.00363298   -0.00111510
     atom  108 type  1   force =    -0.00034654   -0.00240164   -0.00371180
     atom  109 type  2   force =    -0.00254277   -0.00112809    0.00073914
     atom  110 type  1   force =     0.00159620    0.00345183    0.00128441
     atom  111 type  2   force =     0.00318617    0.00248615    0.00324727
     atom  112 type  1   force =    -0.00106380    0.00116182    0.00033548
     atom  113 type  2   force =    -0.00170025    0.00030207    0.00072024
     atom  114 type  1   force =    -0.00017258   -0.00164639   -0.00325311
     atom  115 type  2   force =    -0.00114569   -0.00279642   -0.00250580
     atom  116 type  1   force =    -0.00153703   -0.00115948    0.00411640
     atom  117 type  2   force =    -0.00255928    0.00302645   -0.00065063
     atom  118 type  1   force =     0.00231372    0.00098426    0.00310714
     atom  119 type  2   force =     0.00346387   -0.00139684    0.00126797
     atom  120 type  1   force =    -0.00000874    0.00007238   -0.00068219
     atom  121 type  2   force =     0.00071738    0.00013997   -0.00010122
     atom  122 type  1   force =     0.00051560    0.00142969   -0.00224974
     atom  123 type  2   force =     0.00163568   -0.00081697    0.00149181
     atom  124 type  1   force =     0.00115570    0.00230000    0.00207161
     atom  125 type  2   force =     0.00056793    0.00293248   -0.00379791
     atom  126 type  1   force =     0.00029830   -0.00102724    0.00035555
     atom  127 type  2   force =     0.00392449   -0.00187526   -0.00162445
     atom  128 type  1   force =    -0.00099711    0.00205594    0.00160968
     atom  129 type  2   force =    -0.00077803   -0.00195233    0.00489366

     Total force =     0.044661     Total SCF correction =     0.000254


     Computing stress (Cartesian axis) and pressure


     negative rho (up, down):  1.712E-03 1.868E-03
          total   stress  (Ry/bohr**3)                   (kbar)     P=      -19.51
  -0.00014747   0.00000420  -0.00000606          -21.69        0.62       -0.89
   0.00000420  -0.00009897   0.00000536            0.62      -14.56        0.79
  -0.00000606   0.00000536  -0.00015153           -0.89        0.79      -22.29


     Writing output data file /scratch/bxp912/fepdslab05.save/
 
     init_run     :      9.12s CPU      9.64s WALL (       1 calls)
     electrons    :   1493.52s CPU   1562.66s WALL (       1 calls)
     forces       :      5.19s CPU      5.39s WALL (       1 calls)
     stress       :    114.86s CPU    115.61s WALL (       1 calls)

     Called by init_run:
     wfcinit      :      5.89s CPU      6.16s WALL (       1 calls)
     potinit      :      1.14s CPU      1.21s WALL (       1 calls)
     hinit0       :      1.17s CPU      1.19s WALL (       1 calls)

     Called by electrons:
     c_bands      :   1231.48s CPU   1273.26s WALL (      69 calls)
     sum_band     :    181.59s CPU    188.45s WALL (      69 calls)
     v_of_rho     :     10.28s CPU     11.02s WALL (      70 calls)
     newd         :     19.75s CPU     23.86s WALL (      70 calls)
     PAW_pot      :     42.60s CPU     43.50s WALL (      70 calls)
     mix_rho      :      6.73s CPU      7.23s WALL (      69 calls)

     Called by c_bands:
     init_us_2    :      7.17s CPU      7.32s WALL (     282 calls)
     regterg      :   1205.98s CPU   1228.86s WALL (     138 calls)

     Called by *egterg:
     rdiaghg      :    118.92s CPU    120.18s WALL (     660 calls)
     h_psi        :    496.15s CPU    503.06s WALL (     662 calls)
     s_psi        :     96.79s CPU     98.91s WALL (     662 calls)
     g_psi        :      1.74s CPU      1.77s WALL (     522 calls)

     Called by h_psi:
     h_psi:calbec :    124.01s CPU    124.94s WALL (     662 calls)
     vloc_psi     :    266.18s CPU    269.43s WALL (     662 calls)
     add_vuspsi   :    102.25s CPU    104.94s WALL (     662 calls)

     General routines
     calbec       :    185.52s CPU    186.92s WALL (     810 calls)
     fft          :      9.45s CPU      9.65s WALL (    1497 calls)
     ffts         :      2.99s CPU      3.05s WALL (    1446 calls)
     fftw         :    273.85s CPU    277.14s WALL (  443966 calls)
     interpolate  :      1.27s CPU      1.30s WALL (     140 calls)
 
     Parallel routines
     fft_scatt_xy :     37.74s CPU     38.15s WALL (  446909 calls)
     fft_scatt_yz :    182.35s CPU    184.76s WALL (  446909 calls)
 
     PWSCF        :  27m 8.25s CPU  28m20.92s WALL

 
   This run was terminated on:   3:36:41  22May2022            

=------------------------------------------------------------------------------=
   JOB DONE.
=------------------------------------------------------------------------------=
