
     Program PWSCF v.6.7MaX starts on 22May2022 at  3:11:13 

     This program is part of the open-source Quantum ESPRESSO suite
     for quantum simulation of materials; please cite
         "P. Giannozzi et al., J. Phys.:Condens. Matter 21 395502 (2009);
         "P. Giannozzi et al., J. Phys.:Condens. Matter 29 465901 (2017);
          URL http://www.quantum-espresso.org", 
     in publications or presentations arising from this work. More details at
     http://www.quantum-espresso.org/quote

     Parallel version (MPI & OpenMP), running on      72 processor cores
     Number of MPI processes:                72
     Threads/MPI process:                     1

     MPI processes distributed on     1 nodes
     R & G space division:  proc/nbgrp/npool/nimage =      72
     Reading input from fepdslab07.in
Warning: card &CELL ignored
Warning: card CELL_DYNAMICS = 'BFGS', ignored
Warning: card CELL_FACTOR = 2.0, ignored
Warning: card PRESS = 0.0, ignored
Warning: card / ignored

     Current dimensions of program PWSCF are:
     Max number of different atomic species (ntypx) = 10
     Max number of k-points (npk) =  40000
     Max angular momentum in pseudopotentials (lmaxx) =  3
     file Fe.pbe-spn-kjpaw_psl.1.0.0.UPF: wavefunction(s)  3P 3D renormalized
     file Fe.pbe-spn-kjpaw_psl.1.0.0.UPF: wavefunction(s)  3P 3D renormalized
     file Pd.pbe-spn-kjpaw_psl.1.0.0.UPF: wavefunction(s)  4S 5S 4D renormalized

     gamma-point specific algorithms are used

     Subspace diagonalization in iterative solution of the eigenvalue problem:
     one sub-group per band group will be used
     ELPA distributed-memory algorithm (size of sub-group:  8*  8 procs)

 
     Parallelization info
     --------------------
     sticks:   dense  smooth     PW     G-vecs:    dense   smooth      PW
     Min         333     220     53                38016    20412    2546
     Max         336     222     56                38038    20426    2560
     Sum       24049   15899   3985              2738239  1469969  183817
 


     bravais-lattice index     =            0
     lattice parameter (alat)  =      25.8600  a.u.
     unit-cell volume          =   18186.5006 (a.u.)^3
     number of atoms/cell      =          129
     number of atomic types    =            3
     number of electrons       =      2066.00
     number of Kohn-Sham states=         1240
     kinetic-energy cutoff     =      71.0000  Ry
     charge density cutoff     =     430.0000  Ry
     scf convergence threshold =      1.0E-08
     mixing beta               =       0.3000
     number of iterations used =           10  local-TF  mixing
     Exchange-correlation= SLA  PW   PBX  PBC
                           (   1   4   3   4   0   0   0)

     celldm(1)=  25.860000  celldm(2)=   0.000000  celldm(3)=   0.000000
     celldm(4)=   0.000000  celldm(5)=   0.000000  celldm(6)=   0.000000

     crystal axes: (cart. coord. in units of alat)
               a(1) = (   1.000000   0.000000   0.000000 )  
               a(2) = (   0.000000   1.051631   0.000000 )  
               a(3) = (   0.000000   0.000000   1.000000 )  

     reciprocal axes: (cart. coord. in units 2 pi/alat)
               b(1) = (  1.000000  0.000000  0.000000 )  
               b(2) = (  0.000000  0.950903  0.000000 )  
               b(3) = (  0.000000  0.000000  1.000000 )  


     PseudoPot. # 1 for Fe read from file:
     /rds/homes/b/bxp912/pp/Fe.pbe-spn-kjpaw_psl.1.0.0.UPF
     MD5 check sum: 42f43b795421b414b0dc916aa790dbcb
     Pseudo is Projector augmented-wave + core cor, Zval = 16.0
     Generated using &quot;atomic&quot; code by A. Dal Corso  v.6.3
     Shape of augmentation charge: PSQ
     Using radial grid of 1191 points,  6 beta functions with: 
                l(1) =   0
                l(2) =   0
                l(3) =   1
                l(4) =   1
                l(5) =   2
                l(6) =   2
     Q(r) pseudized with 0 coefficients 


     PseudoPot. # 2 for Fe read from file:
     /rds/homes/b/bxp912/pp/Fe.pbe-spn-kjpaw_psl.1.0.0.UPF
     MD5 check sum: 42f43b795421b414b0dc916aa790dbcb
     Pseudo is Projector augmented-wave + core cor, Zval = 16.0
     Generated using &quot;atomic&quot; code by A. Dal Corso  v.6.3
     Shape of augmentation charge: PSQ
     Using radial grid of 1191 points,  6 beta functions with: 
                l(1) =   0
                l(2) =   0
                l(3) =   1
                l(4) =   1
                l(5) =   2
                l(6) =   2
     Q(r) pseudized with 0 coefficients 


     PseudoPot. # 3 for Pd read from file:
     /rds/homes/b/bxp912/pp/Pd.pbe-spn-kjpaw_psl.1.0.0.UPF
     MD5 check sum: 790f2ebce206edfd9790dcb9844eca51
     Pseudo is Projector augmented-wave + core cor, Zval = 18.0
     Generated using &quot;atomic&quot; code by A. Dal Corso  v.6.3
     Shape of augmentation charge: PSQ
     Using radial grid of 1235 points,  6 beta functions with: 
                l(1) =   0
                l(2) =   0
                l(3) =   1
                l(4) =   1
                l(5) =   2
                l(6) =   2
     Q(r) pseudized with 0 coefficients 


     atomic species   valence    mass     pseudopotential
        Fe1           16.00    55.84500     Fe( 1.00)
        Fe2           16.00    55.84500     Fe( 1.00)
        Pd            18.00   106.42000     Pd( 1.00)

     Starting magnetic structure 
     atomic species   magnetization
        Fe1          0.100
        Fe2         -0.100
        Pd           0.001

     No symmetry found



   Cartesian axes

     site n.     atom                  positions (alat units)
         1           Pd  tau(   1) = (   0.1422206   0.1153140   0.1748980  )
         2           Fe1 tau(   2) = (   0.0587515   0.0653881   0.3211198  )
         3           Fe2 tau(   3) = (   0.1884265   0.2002713   0.3214448  )
         4           Fe1 tau(   4) = (   0.1868213   0.0655646   0.4421276  )
         5           Fe2 tau(   5) = (   0.0624952   0.1980629   0.4424469  )
         6           Fe1 tau(   6) = (   0.0623234   0.0655267   0.5697271  )
         7           Fe2 tau(   7) = (   0.1876610   0.1975943   0.5698145  )
         8           Fe1 tau(   8) = (   0.1882185   0.0650035   0.6879009  )
         9           Fe2 tau(   9) = (   0.0616632   0.1980291   0.6879420  )
        10           Fe1 tau(  10) = (   0.0653597   0.3265762   0.3172267  )
        11           Fe2 tau(  11) = (   0.1877413   0.4579090   0.3175394  )
        12           Fe1 tau(  12) = (   0.1881227   0.3296492   0.4412225  )
        13           Fe2 tau(  13) = (   0.0633903   0.4595175   0.4385688  )
        14           Fe1 tau(  14) = (   0.0628268   0.3296102   0.5678640  )
        15           Fe2 tau(  15) = (   0.1885537   0.4615096   0.5682187  )
        16           Fe1 tau(  16) = (   0.1887326   0.3305664   0.6874596  )
        17           Fe2 tau(  17) = (   0.0603308   0.4618776   0.6862421  )
        18           Fe1 tau(  18) = (   0.0648519   0.5907106   0.3145093  )
        19           Fe2 tau(  19) = (   0.1847510   0.7238107   0.3145456  )
        20           Fe1 tau(  20) = (   0.1863681   0.5909977   0.4371267  )
        21           Fe2 tau(  21) = (   0.0633682   0.7236125   0.4371464  )
        22           Fe1 tau(  22) = (   0.0615849   0.5918936   0.5662034  )
        23           Fe2 tau(  23) = (   0.1882586   0.7226899   0.5660552  )
        24           Fe1 tau(  24) = (   0.1887997   0.5925453   0.6861716  )
        25           Fe2 tau(  25) = (   0.0613274   0.7219977   0.6862125  )
        26           Fe1 tau(  26) = (   0.0618357   0.8560935   0.3172000  )
        27           Fe2 tau(  27) = (   0.1829530   0.9895025   0.3139428  )
        28           Fe1 tau(  28) = (   0.1862919   0.8555747   0.4379183  )
        29           Fe2 tau(  29) = (   0.0618572   0.9855343   0.4406165  )
        30           Fe1 tau(  30) = (   0.0613876   0.8531658   0.5679772  )
        31           Fe2 tau(  31) = (   0.1869233   0.9851356   0.5677120  )
        32           Fe1 tau(  32) = (   0.1896322   0.8527645   0.6860337  )
        33           Fe2 tau(  33) = (   0.0612834   0.9839846   0.6875207  )
        34           Fe1 tau(  34) = (   0.3076371   0.0696373   0.3122286  )
        35           Fe2 tau(  35) = (   0.4357117   0.1980603   0.3171939  )
        36           Fe1 tau(  36) = (   0.4341488   0.0657210   0.4341951  )
        37           Fe2 tau(  37) = (   0.3121648   0.1978698   0.4418603  )
        38           Fe1 tau(  38) = (   0.3124073   0.0653502   0.5666112  )
        39           Fe2 tau(  39) = (   0.4385533   0.1968925   0.5660486  )
        40           Fe1 tau(  40) = (   0.4380091   0.0657438   0.6859902  )
        41           Fe2 tau(  41) = (   0.3146724   0.1973275   0.6859048  )
        42           Fe1 tau(  42) = (   0.3112557   0.3275738   0.3170910  )
        43           Fe2 tau(  43) = (   0.4354886   0.4597974   0.3147106  )
        44           Fe1 tau(  44) = (   0.4374791   0.3293042   0.4369893  )
        45           Fe2 tau(  45) = (   0.3125364   0.4604356   0.4366549  )
        46           Fe1 tau(  46) = (   0.3141732   0.3293478   0.5679259  )
        47           Fe2 tau(  47) = (   0.4390386   0.4604040   0.5632767  )
        48           Fe1 tau(  48) = (   0.4403086   0.3292951   0.6845898  )
        49           Fe2 tau(  49) = (   0.3159177   0.4625217   0.6855273  )
        50           Fe1 tau(  50) = (   0.3083587   0.5903099   0.3147277  )
        51           Fe2 tau(  51) = (   0.4339295   0.7233087   0.3130231  )
        52           Fe1 tau(  52) = (   0.4358847   0.5924128   0.4322183  )
        53           Fe2 tau(  53) = (   0.3104159   0.7228918   0.4334436  )
        54           Fe1 tau(  54) = (   0.3142966   0.5918280   0.5641361  )
        55           Fe2 tau(  55) = (   0.4385180   0.7234213   0.5598951  )
        56           Fe1 tau(  56) = (   0.4419191   0.5923939   0.6824908  )
        57           Fe2 tau(  57) = (   0.3162141   0.7223454   0.6842751  )
        58           Fe1 tau(  58) = (   0.3074024   0.8548895   0.3147790  )
        59           Fe2 tau(  59) = (   0.4344514   0.9868630   0.3150403  )
        60           Fe1 tau(  60) = (   0.4356335   0.8547100   0.4315209  )
        61           Fe2 tau(  61) = (   0.3101231   0.9863643   0.4363794  )
        62           Fe1 tau(  62) = (   0.3137980   0.8546705   0.5632611  )
        63           Fe2 tau(  63) = (   0.4377077   0.9869231   0.5623578  )
        64           Fe1 tau(  64) = (   0.4393286   0.8535281   0.6828982  )
        65           Fe2 tau(  65) = (   0.3147963   0.9849942   0.6859368  )
        66           Fe1 tau(  66) = (   0.5616138   0.0664335   0.3146916  )
        67           Fe2 tau(  67) = (   0.6884049   0.1964824   0.3148346  )
        68           Fe1 tau(  68) = (   0.6885681   0.0663159   0.4352684  )
        69           Fe2 tau(  69) = (   0.5611411   0.1964240   0.4352748  )
        70           Fe1 tau(  70) = (   0.5619820   0.0659448   0.5635482  )
        71           Fe2 tau(  71) = (   0.6874432   0.1968268   0.5641102  )
        72           Fe1 tau(  72) = (   0.6855858   0.0654998   0.6850881  )
        73           Fe2 tau(  73) = (   0.5638040   0.1972169   0.6852842  )
        74           Fe1 tau(  74) = (   0.5607509   0.3265340   0.3139843  )
        75           Fe2 tau(  75) = (   0.6872354   0.4585088   0.3123752  )
        76           Fe1 tau(  76) = (   0.6875594   0.3276299   0.4335896  )
        77           Fe2 tau(  77) = (   0.5625961   0.4595520   0.4321368  )
        78           Fe1 tau(  78) = (   0.5632705   0.3282677   0.5635703  )
        79           Fe2 tau(  79) = (   0.6879817   0.4596075   0.5599214  )
        80           Fe1 tau(  80) = (   0.6882353   0.3288574   0.6849967  )
        81           Fe2 tau(  81) = (   0.5651853   0.4612490   0.6822433  )
        82           Fe1 tau(  82) = (   0.5612595   0.5916576   0.3122746  )
        83           Fe2 tau(  83) = (   0.6887743   0.7228831   0.3123244  )
        84           Fe1 tau(  84) = (   0.6883236   0.5904996   0.4294597  )
        85           Fe2 tau(  85) = (   0.5615383   0.7241508   0.4293434  )
        86           Fe1 tau(  86) = (   0.5630264   0.5915132   0.5576529  )
        87           Fe2 tau(  87) = (   0.6867405   0.7231521   0.5577775  )
        88           Fe1 tau(  88) = (   0.6857902   0.5920076   0.6805737  )
        89           Fe2 tau(  89) = (   0.5637901   0.7227363   0.6805291  )
        90           Fe1 tau(  90) = (   0.5626362   0.8561046   0.3121969  )
        91           Fe2 tau(  91) = (   0.6891343   0.9880418   0.3141519  )
        92           Fe1 tau(  92) = (   0.6872507   0.8551077   0.4321071  )
        93           Fe2 tau(  93) = (   0.5618631   0.9869943   0.4333065  )
        94           Fe1 tau(  94) = (   0.5617368   0.8550051   0.5596739  )
        95           Fe2 tau(  95) = (   0.6864801   0.9862486   0.5634570  )
        96           Fe1 tau(  96) = (   0.6844995   0.8533385   0.6820773  )
        97           Fe2 tau(  97) = (   0.5612864   0.9855678   0.6846505  )
        98           Fe1 tau(  98) = (   0.8145252   0.0648759   0.3171186  )
        99           Fe2 tau(  99) = (   0.9402188   0.1950601   0.3164839  )
       100           Fe1 tau( 100) = (   0.9374832   0.0651983   0.4423127  )
       101           Fe2 tau( 101) = (   0.8144773   0.1972618   0.4355587  )
       102           Fe1 tau( 102) = (   0.8110658   0.0658411   0.5663854  )
       103           Fe2 tau( 103) = (   0.9371201   0.1977054   0.5670544  )
       104           Fe1 tau( 104) = (   0.9352792   0.0655246   0.6857716  )
       105           Fe2 tau( 105) = (   0.8116171   0.1969980   0.6862948  )
       106           Fe1 tau( 106) = (   0.8150804   0.3280317   0.3151113  )
       107           Fe2 tau( 107) = (   0.9421429   0.4596402   0.3151684  )
       108           Fe1 tau( 108) = (   0.9387564   0.3287418   0.4373695  )
       109           Fe2 tau( 109) = (   0.8139475   0.4599326   0.4319884  )
       110           Fe1 tau( 110) = (   0.8116104   0.3277501   0.5631183  )
       111           Fe2 tau( 111) = (   0.9358814   0.4600430   0.5637519  )
       112           Fe1 tau( 112) = (   0.9349587   0.3296020   0.6860215  )
       113           Fe2 tau( 113) = (   0.8102864   0.4611700   0.6833021  )
       114           Fe1 tau( 114) = (   0.8159084   0.5911864   0.3130823  )
       115           Fe2 tau( 115) = (   0.9412610   0.7242602   0.3148148  )
       116           Fe1 tau( 116) = (   0.9393584   0.5917595   0.4337111  )
       117           Fe2 tau( 117) = (   0.8139347   0.7222047   0.4324709  )
       118           Fe1 tau( 118) = (   0.8112426   0.5912370   0.5601288  )
       119           Fe2 tau( 119) = (   0.9356265   0.7227141   0.5643328  )
       120           Fe1 tau( 120) = (   0.9336551   0.5923087   0.6844350  )
       121           Fe2 tau( 121) = (   0.8078635   0.7222525   0.6825759  )
       122           Fe1 tau( 122) = (   0.8143703   0.8548553   0.3146769  )
       123           Fe2 tau( 123) = (   0.9388847   0.9870538   0.3171989  )
       124           Fe1 tau( 124) = (   0.9373427   0.8541441   0.4366752  )
       125           Fe2 tau( 125) = (   0.8125994   0.9853090   0.4370552  )
       126           Fe1 tau( 126) = (   0.8108362   0.8541803   0.5632913  )
       127           Fe2 tau( 127) = (   0.9358746   0.9851837   0.5680012  )
       128           Fe1 tau( 128) = (   0.9341019   0.8520056   0.6853792  )
       129           Fe2 tau( 129) = (   0.8094919   0.9851394   0.6846363  )

     number of k points=     1  Marzari-Vanderbilt smearing, width (Ry)=  0.0400
                       cart. coord. in units 2pi/alat
        k(    1) = (   0.0000000   0.0000000   0.0000000), wk =   1.0000000

     Dense  grid:  1369120 G-vectors     FFT dimensions: ( 180, 180, 180)

     Smooth grid:   734985 G-vectors     FFT dimensions: ( 144, 150, 144)

     Estimated max dynamical RAM per process >     318.96 MB

     Estimated total dynamical RAM >      22.43 GB

     Check: negative core charge=   -0.000004
     Generating pointlists ...
     new r_m :   0.0707 (alat units)  1.8289 (a.u.) for type    1
     new r_m :   0.0709 (alat units)  1.8345 (a.u.) for type    2
     new r_m :   0.0724 (alat units)  1.8730 (a.u.) for type    3

     Initial potential from superposition of free atoms

     starting charge 2065.94361, renormalised to 2066.00000

     negative rho (up, down):  1.764E-04 1.764E-04
     Starting wfcs are 1290 randomized atomic wfcs
     Checking if some PAW data can be deallocated... 

     total cpu time spent up to now is       13.2 secs

     Self-consistent Calculation

     iteration #  1     ecut=    71.00 Ry     beta= 0.30
     Davidson diagonalization with overlap
     ethr =  1.00E-02,  avg # of iterations =  6.5

     negative rho (up, down):  1.140E+00 2.883E+00

     total cpu time spent up to now is       44.6 secs

     total energy              =  -42628.57187918 Ry
     estimated scf accuracy    <     720.85572122 Ry

     total magnetization       =    -3.11 Bohr mag/cell
     absolute magnetization    =   271.38 Bohr mag/cell

     iteration #  2     ecut=    71.00 Ry     beta= 0.30
     Davidson diagonalization with overlap
     ethr =  1.00E-02,  avg # of iterations =  3.5

     negative rho (up, down):  8.969E-01 2.218E+00

     total cpu time spent up to now is       73.2 secs

     total energy              =  -42639.14892042 Ry
     estimated scf accuracy    <     213.15491357 Ry

     total magnetization       =     1.66 Bohr mag/cell
     absolute magnetization    =   174.90 Bohr mag/cell

     iteration #  3     ecut=    71.00 Ry     beta= 0.30
     Davidson diagonalization with overlap
     ethr =  1.00E-02,  avg # of iterations =  1.5

     negative rho (up, down):  7.792E-01 1.932E+00

     total cpu time spent up to now is       92.6 secs

     total energy              =  -42650.38389577 Ry
     estimated scf accuracy    <     248.61292968 Ry

     total magnetization       =     0.68 Bohr mag/cell
     absolute magnetization    =   198.55 Bohr mag/cell

     iteration #  4     ecut=    71.00 Ry     beta= 0.30
     Davidson diagonalization with overlap
     ethr =  1.00E-02,  avg # of iterations =  1.0

     negative rho (up, down):  5.404E-01 1.350E+00

     total cpu time spent up to now is      110.4 secs

     total energy              =  -42651.39481777 Ry
     estimated scf accuracy    <      76.36204514 Ry

     total magnetization       =     0.22 Bohr mag/cell
     absolute magnetization    =   202.00 Bohr mag/cell

     iteration #  5     ecut=    71.00 Ry     beta= 0.30
     Davidson diagonalization with overlap
     ethr =  3.70E-03,  avg # of iterations =  1.0

     negative rho (up, down):  3.121E-01 7.706E-01

     total cpu time spent up to now is      134.3 secs

     total energy              =  -42651.83894072 Ry
     estimated scf accuracy    <      74.01304840 Ry

     total magnetization       =    -1.41 Bohr mag/cell
     absolute magnetization    =   206.83 Bohr mag/cell

     iteration #  6     ecut=    71.00 Ry     beta= 0.30
     Davidson diagonalization with overlap
     ethr =  3.58E-03,  avg # of iterations =  1.0

     negative rho (up, down):  5.657E-02 1.403E-01

     total cpu time spent up to now is      152.2 secs

     total energy              =  -42652.09079128 Ry
     estimated scf accuracy    <      43.37896429 Ry

     total magnetization       =    -1.47 Bohr mag/cell
     absolute magnetization    =   211.53 Bohr mag/cell

     iteration #  7     ecut=    71.00 Ry     beta= 0.30
     Davidson diagonalization with overlap
     ethr =  2.10E-03,  avg # of iterations =  1.5

     negative rho (up, down):  7.617E-03 1.473E-02

     total cpu time spent up to now is      171.1 secs

     total energy              =  -42652.05836529 Ry
     estimated scf accuracy    <      28.55814900 Ry

     total magnetization       =    -0.73 Bohr mag/cell
     absolute magnetization    =   218.43 Bohr mag/cell

     iteration #  8     ecut=    71.00 Ry     beta= 0.30
     Davidson diagonalization with overlap
     ethr =  1.38E-03,  avg # of iterations =  2.0

     negative rho (up, down):  7.874E-02 1.889E-01

     total cpu time spent up to now is      192.3 secs

     total energy              =  -42651.72947254 Ry
     estimated scf accuracy    <      11.10919337 Ry

     total magnetization       =    -1.11 Bohr mag/cell
     absolute magnetization    =   225.56 Bohr mag/cell

     iteration #  9     ecut=    71.00 Ry     beta= 0.30
     Davidson diagonalization with overlap
     ethr =  5.38E-04,  avg # of iterations =  2.5

     negative rho (up, down):  9.893E-02 2.419E-01

     total cpu time spent up to now is      213.3 secs

     total energy              =  -42651.75997432 Ry
     estimated scf accuracy    <       6.07351228 Ry

     total magnetization       =    -0.91 Bohr mag/cell
     absolute magnetization    =   229.58 Bohr mag/cell

     iteration # 10     ecut=    71.00 Ry     beta= 0.30
     Davidson diagonalization with overlap
     ethr =  2.94E-04,  avg # of iterations = 13.0

     negative rho (up, down):  3.389E-02 7.825E-02

     total cpu time spent up to now is      238.1 secs

     total energy              =  -42651.99488099 Ry
     estimated scf accuracy    <       3.57430860 Ry

     total magnetization       =    -0.36 Bohr mag/cell
     absolute magnetization    =   231.22 Bohr mag/cell

     iteration # 11     ecut=    71.00 Ry     beta= 0.30
     Davidson diagonalization with overlap
     ethr =  1.73E-04,  avg # of iterations =  5.5

     negative rho (up, down):  3.375E-03 5.673E-03

     total cpu time spent up to now is      259.8 secs

     total energy              =  -42652.09011309 Ry
     estimated scf accuracy    <       2.05473005 Ry

     total magnetization       =     0.17 Bohr mag/cell
     absolute magnetization    =   229.85 Bohr mag/cell

     iteration # 12     ecut=    71.00 Ry     beta= 0.30
     Davidson diagonalization with overlap
     c_bands:  1 eigenvalues not converged
     ethr =  9.95E-05,  avg # of iterations = 11.0

     negative rho (up, down):  1.333E-03 1.386E-03

     total cpu time spent up to now is      283.2 secs

     total energy              =  -42652.08794498 Ry
     estimated scf accuracy    <       1.10900583 Ry

     total magnetization       =     0.27 Bohr mag/cell
     absolute magnetization    =   228.64 Bohr mag/cell

     iteration # 13     ecut=    71.00 Ry     beta= 0.30
     Davidson diagonalization with overlap
     ethr =  5.37E-05,  avg # of iterations = 20.5

     negative rho (up, down):  1.291E-03 1.365E-03

     total cpu time spent up to now is      318.1 secs

     total energy              =  -42652.04573623 Ry
     estimated scf accuracy    <       0.81534624 Ry

     total magnetization       =     0.42 Bohr mag/cell
     absolute magnetization    =   228.40 Bohr mag/cell

     iteration # 14     ecut=    71.00 Ry     beta= 0.30
     Davidson diagonalization with overlap
     ethr =  3.95E-05,  avg # of iterations =  2.0

     negative rho (up, down):  2.860E-03 3.269E-03

     total cpu time spent up to now is      339.2 secs

     total energy              =  -42651.93997903 Ry
     estimated scf accuracy    <       0.67414756 Ry

     total magnetization       =     0.47 Bohr mag/cell
     absolute magnetization    =   229.08 Bohr mag/cell

     iteration # 15     ecut=    71.00 Ry     beta= 0.30
     Davidson diagonalization with overlap
     c_bands:  4 eigenvalues not converged
     ethr =  3.26E-05,  avg # of iterations = 11.0

     negative rho (up, down):  5.793E-03 5.925E-03

     total cpu time spent up to now is      363.3 secs

     total energy              =  -42651.91499445 Ry
     estimated scf accuracy    <       0.48715303 Ry

     total magnetization       =     0.63 Bohr mag/cell
     absolute magnetization    =   229.53 Bohr mag/cell

     iteration # 16     ecut=    71.00 Ry     beta= 0.30
     Davidson diagonalization with overlap
     c_bands:  1 eigenvalues not converged
     ethr =  2.36E-05,  avg # of iterations = 11.0

     negative rho (up, down):  1.641E-03 1.635E-03

     total cpu time spent up to now is      388.8 secs

     total energy              =  -42651.90374514 Ry
     estimated scf accuracy    <       0.40900175 Ry

     total magnetization       =     0.69 Bohr mag/cell
     absolute magnetization    =   229.46 Bohr mag/cell

     iteration # 17     ecut=    71.00 Ry     beta= 0.30
     Davidson diagonalization with overlap
     ethr =  1.98E-05,  avg # of iterations =  2.0

     negative rho (up, down):  4.843E-03 4.477E-03

     total cpu time spent up to now is      411.5 secs

     total energy              =  -42651.87915770 Ry
     estimated scf accuracy    <       0.28471994 Ry

     total magnetization       =     0.55 Bohr mag/cell
     absolute magnetization    =   229.14 Bohr mag/cell

     iteration # 18     ecut=    71.00 Ry     beta= 0.30
     Davidson diagonalization with overlap
     ethr =  1.38E-05,  avg # of iterations =  1.5

     negative rho (up, down):  3.486E-02 3.429E-02

     total cpu time spent up to now is      431.2 secs

     total energy              =  -42651.82838760 Ry
     estimated scf accuracy    <       0.24616851 Ry

     total magnetization       =     0.39 Bohr mag/cell
     absolute magnetization    =   228.95 Bohr mag/cell

     iteration # 19     ecut=    71.00 Ry     beta= 0.30
     Davidson diagonalization with overlap
     c_bands:  1 eigenvalues not converged
     ethr =  1.19E-05,  avg # of iterations = 11.0

     negative rho (up, down):  9.208E-03 8.743E-03

     total cpu time spent up to now is      455.6 secs

     total energy              =  -42651.84657446 Ry
     estimated scf accuracy    <       0.23834071 Ry

     total magnetization       =     0.17 Bohr mag/cell
     absolute magnetization    =   228.13 Bohr mag/cell

     iteration # 20     ecut=    71.00 Ry     beta= 0.30
     Davidson diagonalization with overlap
     ethr =  1.15E-05,  avg # of iterations =  1.5

     negative rho (up, down):  1.210E-01 1.212E-01

     total cpu time spent up to now is      484.5 secs

     total energy              =  -42651.84625916 Ry
     estimated scf accuracy    <       0.16869644 Ry

     total magnetization       =     0.28 Bohr mag/cell
     absolute magnetization    =   228.32 Bohr mag/cell

     iteration # 21     ecut=    71.00 Ry     beta= 0.30
     Davidson diagonalization with overlap
     c_bands:  3 eigenvalues not converged
     ethr =  8.17E-06,  avg # of iterations = 14.0

     negative rho (up, down):  9.734E-02 9.792E-02

     total cpu time spent up to now is      510.7 secs

     total energy              =  -42651.85720276 Ry
     estimated scf accuracy    <       0.07354128 Ry

     total magnetization       =     0.12 Bohr mag/cell
     absolute magnetization    =   228.23 Bohr mag/cell

     iteration # 22     ecut=    71.00 Ry     beta= 0.30
     Davidson diagonalization with overlap
     c_bands:  1 eigenvalues not converged
     ethr =  3.56E-06,  avg # of iterations = 11.0

     negative rho (up, down):  3.745E-02 3.786E-02

     total cpu time spent up to now is      534.5 secs

     total energy              =  -42651.86456674 Ry
     estimated scf accuracy    <       0.04442093 Ry

     total magnetization       =     0.03 Bohr mag/cell
     absolute magnetization    =   228.13 Bohr mag/cell

     iteration # 23     ecut=    71.00 Ry     beta= 0.30
     Davidson diagonalization with overlap
     ethr =  2.15E-06,  avg # of iterations = 10.0

     negative rho (up, down):  3.155E-02 3.182E-02

     total cpu time spent up to now is      557.8 secs

     total energy              =  -42651.87506917 Ry
     estimated scf accuracy    <       0.03909695 Ry

     total magnetization       =    -0.03 Bohr mag/cell
     absolute magnetization    =   228.16 Bohr mag/cell

     iteration # 24     ecut=    71.00 Ry     beta= 0.30
     Davidson diagonalization with overlap
     ethr =  1.89E-06,  avg # of iterations =  2.0

     negative rho (up, down):  2.543E-02 2.552E-02

     total cpu time spent up to now is      578.6 secs

     total energy              =  -42651.88494269 Ry
     estimated scf accuracy    <       0.01870599 Ry

     total magnetization       =    -0.09 Bohr mag/cell
     absolute magnetization    =   228.27 Bohr mag/cell

     iteration # 25     ecut=    71.00 Ry     beta= 0.30
     Davidson diagonalization with overlap
     ethr =  9.05E-07,  avg # of iterations =  2.0

     negative rho (up, down):  1.261E-02 1.258E-02

     total cpu time spent up to now is      599.7 secs

     total energy              =  -42651.89786953 Ry
     estimated scf accuracy    <       0.01264013 Ry

     total magnetization       =    -0.12 Bohr mag/cell
     absolute magnetization    =   228.45 Bohr mag/cell

     iteration # 26     ecut=    71.00 Ry     beta= 0.30
     Davidson diagonalization with overlap
     ethr =  6.12E-07,  avg # of iterations =  3.0

     negative rho (up, down):  1.231E-02 1.218E-02

     total cpu time spent up to now is      621.5 secs

     total energy              =  -42651.90411448 Ry
     estimated scf accuracy    <       0.01158721 Ry

     total magnetization       =    -0.11 Bohr mag/cell
     absolute magnetization    =   228.59 Bohr mag/cell

     iteration # 27     ecut=    71.00 Ry     beta= 0.30
     Davidson diagonalization with overlap
     ethr =  5.61E-07,  avg # of iterations =  3.0

     negative rho (up, down):  1.166E-02 1.152E-02

     total cpu time spent up to now is      644.3 secs

     total energy              =  -42651.90512582 Ry
     estimated scf accuracy    <       0.00333443 Ry

     total magnetization       =    -0.08 Bohr mag/cell
     absolute magnetization    =   228.88 Bohr mag/cell

     iteration # 28     ecut=    71.00 Ry     beta= 0.30
     Davidson diagonalization with overlap
     ethr =  1.61E-07,  avg # of iterations =  3.0

     negative rho (up, down):  1.037E-02 1.024E-02

     total cpu time spent up to now is      665.9 secs

     total energy              =  -42651.90560323 Ry
     estimated scf accuracy    <       0.00177474 Ry

     total magnetization       =    -0.10 Bohr mag/cell
     absolute magnetization    =   228.92 Bohr mag/cell

     iteration # 29     ecut=    71.00 Ry     beta= 0.30
     Davidson diagonalization with overlap
     ethr =  8.59E-08,  avg # of iterations =  2.0

     negative rho (up, down):  1.016E-02 1.003E-02

     total cpu time spent up to now is      687.5 secs

     total energy              =  -42651.90612704 Ry
     estimated scf accuracy    <       0.00140316 Ry

     total magnetization       =    -0.10 Bohr mag/cell
     absolute magnetization    =   228.97 Bohr mag/cell

     iteration # 30     ecut=    71.00 Ry     beta= 0.30
     Davidson diagonalization with overlap
     ethr =  6.79E-08,  avg # of iterations =  2.0

     negative rho (up, down):  8.738E-03 8.631E-03

     total cpu time spent up to now is      707.9 secs

     total energy              =  -42651.90687788 Ry
     estimated scf accuracy    <       0.00124808 Ry

     total magnetization       =    -0.09 Bohr mag/cell
     absolute magnetization    =   229.02 Bohr mag/cell

     iteration # 31     ecut=    71.00 Ry     beta= 0.30
     Davidson diagonalization with overlap
     ethr =  6.04E-08,  avg # of iterations =  2.0

     negative rho (up, down):  8.399E-03 8.318E-03

     total cpu time spent up to now is      730.1 secs

     total energy              =  -42651.90739649 Ry
     estimated scf accuracy    <       0.00088518 Ry

     total magnetization       =    -0.09 Bohr mag/cell
     absolute magnetization    =   229.10 Bohr mag/cell

     iteration # 32     ecut=    71.00 Ry     beta= 0.30
     Davidson diagonalization with overlap
     ethr =  4.28E-08,  avg # of iterations =  2.5

     negative rho (up, down):  8.325E-03 8.257E-03

     total cpu time spent up to now is      751.5 secs

     total energy              =  -42651.90760274 Ry
     estimated scf accuracy    <       0.00064743 Ry

     total magnetization       =    -0.09 Bohr mag/cell
     absolute magnetization    =   229.18 Bohr mag/cell

     iteration # 33     ecut=    71.00 Ry     beta= 0.30
     Davidson diagonalization with overlap
     ethr =  3.13E-08,  avg # of iterations =  2.0

     negative rho (up, down):  6.362E-03 6.331E-03

     total cpu time spent up to now is      773.8 secs

     total energy              =  -42651.90758366 Ry
     estimated scf accuracy    <       0.00053692 Ry

     total magnetization       =    -0.08 Bohr mag/cell
     absolute magnetization    =   229.22 Bohr mag/cell

     iteration # 34     ecut=    71.00 Ry     beta= 0.30
     Davidson diagonalization with overlap
     ethr =  2.60E-08,  avg # of iterations =  3.5

     negative rho (up, down):  4.421E-03 4.448E-03

     total cpu time spent up to now is      795.1 secs

     total energy              =  -42651.90752742 Ry
     estimated scf accuracy    <       0.00041904 Ry

     total magnetization       =    -0.07 Bohr mag/cell
     absolute magnetization    =   229.29 Bohr mag/cell

     iteration # 35     ecut=    71.00 Ry     beta= 0.30
     Davidson diagonalization with overlap
     ethr =  2.03E-08,  avg # of iterations =  2.0

     negative rho (up, down):  3.119E-03 3.236E-03

     total cpu time spent up to now is      818.2 secs

     total energy              =  -42651.90759482 Ry
     estimated scf accuracy    <       0.00038933 Ry

     total magnetization       =    -0.07 Bohr mag/cell
     absolute magnetization    =   229.35 Bohr mag/cell

     iteration # 36     ecut=    71.00 Ry     beta= 0.30
     Davidson diagonalization with overlap
     ethr =  1.88E-08,  avg # of iterations =  3.5

     negative rho (up, down):  2.729E-03 2.863E-03

     total cpu time spent up to now is      840.5 secs

     total energy              =  -42651.90762796 Ry
     estimated scf accuracy    <       0.00028570 Ry

     total magnetization       =    -0.06 Bohr mag/cell
     absolute magnetization    =   229.43 Bohr mag/cell

     iteration # 37     ecut=    71.00 Ry     beta= 0.30
     Davidson diagonalization with overlap
     ethr =  1.38E-08,  avg # of iterations =  2.0

     negative rho (up, down):  2.408E-03 2.564E-03

     total cpu time spent up to now is      861.0 secs

     total energy              =  -42651.90773312 Ry
     estimated scf accuracy    <       0.00025598 Ry

     total magnetization       =    -0.05 Bohr mag/cell
     absolute magnetization    =   229.45 Bohr mag/cell

     iteration # 38     ecut=    71.00 Ry     beta= 0.30
     Davidson diagonalization with overlap
     ethr =  1.24E-08,  avg # of iterations =  4.0

     negative rho (up, down):  2.419E-03 2.580E-03

     total cpu time spent up to now is      883.5 secs

     total energy              =  -42651.90782288 Ry
     estimated scf accuracy    <       0.00017164 Ry

     total magnetization       =    -0.05 Bohr mag/cell
     absolute magnetization    =   229.52 Bohr mag/cell

     iteration # 39     ecut=    71.00 Ry     beta= 0.30
     Davidson diagonalization with overlap
     ethr =  8.31E-09,  avg # of iterations =  3.0

     negative rho (up, down):  2.513E-03 2.673E-03

     total cpu time spent up to now is      906.4 secs

     total energy              =  -42651.90784691 Ry
     estimated scf accuracy    <       0.00012365 Ry

     total magnetization       =    -0.07 Bohr mag/cell
     absolute magnetization    =   229.56 Bohr mag/cell

     iteration # 40     ecut=    71.00 Ry     beta= 0.30
     Davidson diagonalization with overlap
     ethr =  5.99E-09,  avg # of iterations =  2.0

     negative rho (up, down):  2.017E-03 2.176E-03

     total cpu time spent up to now is      927.6 secs

     total energy              =  -42651.90787195 Ry
     estimated scf accuracy    <       0.00004389 Ry

     total magnetization       =    -0.06 Bohr mag/cell
     absolute magnetization    =   229.58 Bohr mag/cell

     iteration # 41     ecut=    71.00 Ry     beta= 0.30
     Davidson diagonalization with overlap
     ethr =  2.12E-09,  avg # of iterations =  2.5

     negative rho (up, down):  2.205E-03 2.363E-03

     total cpu time spent up to now is      948.7 secs

     total energy              =  -42651.90786953 Ry
     estimated scf accuracy    <       0.00003934 Ry

     total magnetization       =    -0.06 Bohr mag/cell
     absolute magnetization    =   229.56 Bohr mag/cell

     iteration # 42     ecut=    71.00 Ry     beta= 0.30
     Davidson diagonalization with overlap
     ethr =  1.90E-09,  avg # of iterations =  2.0

     negative rho (up, down):  1.611E-03 1.769E-03

     total cpu time spent up to now is      969.9 secs

     total energy              =  -42651.90788106 Ry
     estimated scf accuracy    <       0.00002970 Ry

     total magnetization       =    -0.06 Bohr mag/cell
     absolute magnetization    =   229.57 Bohr mag/cell

     iteration # 43     ecut=    71.00 Ry     beta= 0.30
     Davidson diagonalization with overlap
     ethr =  1.44E-09,  avg # of iterations =  4.5

     negative rho (up, down):  1.523E-03 1.680E-03

     total cpu time spent up to now is      993.3 secs

     total energy              =  -42651.90788403 Ry
     estimated scf accuracy    <       0.00002424 Ry

     total magnetization       =    -0.06 Bohr mag/cell
     absolute magnetization    =   229.56 Bohr mag/cell

     iteration # 44     ecut=    71.00 Ry     beta= 0.30
     Davidson diagonalization with overlap
     ethr =  1.17E-09,  avg # of iterations =  2.0

     negative rho (up, down):  1.354E-03 1.512E-03

     total cpu time spent up to now is     1015.4 secs

     total energy              =  -42651.90787153 Ry
     estimated scf accuracy    <       0.00001895 Ry

     total magnetization       =    -0.06 Bohr mag/cell
     absolute magnetization    =   229.56 Bohr mag/cell

     iteration # 45     ecut=    71.00 Ry     beta= 0.30
     Davidson diagonalization with overlap
     ethr =  9.17E-10,  avg # of iterations =  4.0

     negative rho (up, down):  1.212E-03 1.369E-03

     total cpu time spent up to now is     1038.9 secs

     total energy              =  -42651.90784361 Ry
     estimated scf accuracy    <       0.00001412 Ry

     total magnetization       =    -0.06 Bohr mag/cell
     absolute magnetization    =   229.55 Bohr mag/cell

     iteration # 46     ecut=    71.00 Ry     beta= 0.30
     Davidson diagonalization with overlap
     ethr =  6.84E-10,  avg # of iterations =  4.0

     negative rho (up, down):  1.199E-03 1.356E-03

     total cpu time spent up to now is     1061.7 secs

     total energy              =  -42651.90784288 Ry
     estimated scf accuracy    <       0.00000867 Ry

     total magnetization       =    -0.06 Bohr mag/cell
     absolute magnetization    =   229.53 Bohr mag/cell

     iteration # 47     ecut=    71.00 Ry     beta= 0.30
     Davidson diagonalization with overlap
     ethr =  4.20E-10,  avg # of iterations =  2.0

     negative rho (up, down):  1.208E-03 1.365E-03

     total cpu time spent up to now is     1082.8 secs

     total energy              =  -42651.90784841 Ry
     estimated scf accuracy    <       0.00000830 Ry

     total magnetization       =    -0.06 Bohr mag/cell
     absolute magnetization    =   229.52 Bohr mag/cell

     iteration # 48     ecut=    71.00 Ry     beta= 0.30
     Davidson diagonalization with overlap
     ethr =  4.02E-10,  avg # of iterations =  2.0

     negative rho (up, down):  1.249E-03 1.406E-03

     total cpu time spent up to now is     1103.8 secs

     total energy              =  -42651.90786270 Ry
     estimated scf accuracy    <       0.00000577 Ry

     total magnetization       =    -0.06 Bohr mag/cell
     absolute magnetization    =   229.52 Bohr mag/cell

     iteration # 49     ecut=    71.00 Ry     beta= 0.30
     Davidson diagonalization with overlap
     ethr =  2.79E-10,  avg # of iterations =  4.0

     negative rho (up, down):  1.376E-03 1.531E-03

     total cpu time spent up to now is     1125.2 secs

     total energy              =  -42651.90788778 Ry
     estimated scf accuracy    <       0.00000515 Ry

     total magnetization       =    -0.06 Bohr mag/cell
     absolute magnetization    =   229.51 Bohr mag/cell

     iteration # 50     ecut=    71.00 Ry     beta= 0.30
     Davidson diagonalization with overlap
     ethr =  2.49E-10,  avg # of iterations =  5.0

     negative rho (up, down):  1.432E-03 1.588E-03

     total cpu time spent up to now is     1149.5 secs

     total energy              =  -42651.90789544 Ry
     estimated scf accuracy    <       0.00000280 Ry

     total magnetization       =    -0.06 Bohr mag/cell
     absolute magnetization    =   229.50 Bohr mag/cell

     iteration # 51     ecut=    71.00 Ry     beta= 0.30
     Davidson diagonalization with overlap
     ethr =  1.35E-10,  avg # of iterations =  4.0

     negative rho (up, down):  1.488E-03 1.643E-03

     total cpu time spent up to now is     1171.6 secs

     total energy              =  -42651.90790124 Ry
     estimated scf accuracy    <       0.00000217 Ry

     total magnetization       =    -0.06 Bohr mag/cell
     absolute magnetization    =   229.50 Bohr mag/cell

     iteration # 52     ecut=    71.00 Ry     beta= 0.30
     Davidson diagonalization with overlap
     ethr =  1.05E-10,  avg # of iterations =  4.0

     negative rho (up, down):  1.578E-03 1.734E-03

     total cpu time spent up to now is     1195.9 secs

     total energy              =  -42651.90790686 Ry
     estimated scf accuracy    <       0.00000182 Ry

     total magnetization       =    -0.06 Bohr mag/cell
     absolute magnetization    =   229.50 Bohr mag/cell

     iteration # 53     ecut=    71.00 Ry     beta= 0.30
     Davidson diagonalization with overlap
     ethr =  8.80E-11,  avg # of iterations =  4.0

     negative rho (up, down):  1.603E-03 1.759E-03

     total cpu time spent up to now is     1218.7 secs

     total energy              =  -42651.90790894 Ry
     estimated scf accuracy    <       0.00000149 Ry

     total magnetization       =    -0.06 Bohr mag/cell
     absolute magnetization    =   229.50 Bohr mag/cell

     iteration # 54     ecut=    71.00 Ry     beta= 0.30
     Davidson diagonalization with overlap
     ethr =  7.20E-11,  avg # of iterations =  3.0

     negative rho (up, down):  1.678E-03 1.834E-03

     total cpu time spent up to now is     1240.3 secs

     total energy              =  -42651.90791128 Ry
     estimated scf accuracy    <       0.00000103 Ry

     total magnetization       =    -0.06 Bohr mag/cell
     absolute magnetization    =   229.50 Bohr mag/cell

     iteration # 55     ecut=    71.00 Ry     beta= 0.30
     Davidson diagonalization with overlap
     ethr =  4.99E-11,  avg # of iterations =  5.0

     negative rho (up, down):  1.683E-03 1.839E-03

     total cpu time spent up to now is     1265.1 secs

     total energy              =  -42651.90791190 Ry
     estimated scf accuracy    <       0.00000072 Ry

     total magnetization       =    -0.06 Bohr mag/cell
     absolute magnetization    =   229.51 Bohr mag/cell

     iteration # 56     ecut=    71.00 Ry     beta= 0.30
     Davidson diagonalization with overlap
     ethr =  3.46E-11,  avg # of iterations =  3.0

     negative rho (up, down):  1.724E-03 1.881E-03

     total cpu time spent up to now is     1286.8 secs

     total energy              =  -42651.90791282 Ry
     estimated scf accuracy    <       0.00000083 Ry

     total magnetization       =    -0.06 Bohr mag/cell
     absolute magnetization    =   229.51 Bohr mag/cell

     iteration # 57     ecut=    71.00 Ry     beta= 0.30
     Davidson diagonalization with overlap
     ethr =  3.46E-11,  avg # of iterations =  5.0

     negative rho (up, down):  1.712E-03 1.869E-03

     total cpu time spent up to now is     1310.7 secs

     total energy              =  -42651.90791305 Ry
     estimated scf accuracy    <       0.00000017 Ry

     total magnetization       =    -0.06 Bohr mag/cell
     absolute magnetization    =   229.51 Bohr mag/cell

     iteration # 58     ecut=    71.00 Ry     beta= 0.30
     Davidson diagonalization with overlap
     ethr =  8.37E-12,  avg # of iterations =  3.0

     negative rho (up, down):  1.712E-03 1.869E-03

     total cpu time spent up to now is     1333.0 secs

     total energy              =  -42651.90791313 Ry
     estimated scf accuracy    <       0.00000012 Ry

     total magnetization       =    -0.06 Bohr mag/cell
     absolute magnetization    =   229.51 Bohr mag/cell

     iteration # 59     ecut=    71.00 Ry     beta= 0.30
     Davidson diagonalization with overlap
     ethr =  5.74E-12,  avg # of iterations =  3.5

     negative rho (up, down):  1.712E-03 1.869E-03

     total cpu time spent up to now is     1354.9 secs

     total energy              =  -42651.90791319 Ry
     estimated scf accuracy    <       0.00000010 Ry

     total magnetization       =    -0.06 Bohr mag/cell
     absolute magnetization    =   229.51 Bohr mag/cell

     iteration # 60     ecut=    71.00 Ry     beta= 0.30
     Davidson diagonalization with overlap
     ethr =  5.06E-12,  avg # of iterations =  2.0

     negative rho (up, down):  1.707E-03 1.864E-03

     total cpu time spent up to now is     1376.1 secs

     total energy              =  -42651.90791324 Ry
     estimated scf accuracy    <       0.00000006 Ry

     total magnetization       =    -0.06 Bohr mag/cell
     absolute magnetization    =   229.51 Bohr mag/cell

     iteration # 61     ecut=    71.00 Ry     beta= 0.30
     Davidson diagonalization with overlap
     ethr =  3.02E-12,  avg # of iterations =  2.0

     negative rho (up, down):  1.704E-03 1.861E-03

     total cpu time spent up to now is     1397.1 secs

     total energy              =  -42651.90791325 Ry
     estimated scf accuracy    <       0.00000005 Ry

     total magnetization       =    -0.06 Bohr mag/cell
     absolute magnetization    =   229.51 Bohr mag/cell

     iteration # 62     ecut=    71.00 Ry     beta= 0.30
     Davidson diagonalization with overlap
     ethr =  2.41E-12,  avg # of iterations =  2.0

     negative rho (up, down):  1.703E-03 1.859E-03

     total cpu time spent up to now is     1418.0 secs

     total energy              =  -42651.90791330 Ry
     estimated scf accuracy    <       0.00000004 Ry

     total magnetization       =    -0.06 Bohr mag/cell
     absolute magnetization    =   229.51 Bohr mag/cell

     iteration # 63     ecut=    71.00 Ry     beta= 0.30
     Davidson diagonalization with overlap
     ethr =  1.96E-12,  avg # of iterations =  5.0

     negative rho (up, down):  1.692E-03 1.848E-03

     total cpu time spent up to now is     1441.4 secs

     total energy              =  -42651.90791331 Ry
     estimated scf accuracy    <       0.00000003 Ry

     total magnetization       =    -0.06 Bohr mag/cell
     absolute magnetization    =   229.51 Bohr mag/cell

     iteration # 64     ecut=    71.00 Ry     beta= 0.30
     Davidson diagonalization with overlap
     ethr =  1.67E-12,  avg # of iterations =  4.5

     negative rho (up, down):  1.689E-03 1.845E-03

     total cpu time spent up to now is     1465.5 secs

     total energy              =  -42651.90791333 Ry
     estimated scf accuracy    <       0.00000002 Ry

     total magnetization       =    -0.06 Bohr mag/cell
     absolute magnetization    =   229.51 Bohr mag/cell

     iteration # 65     ecut=    71.00 Ry     beta= 0.30
     Davidson diagonalization with overlap
     ethr =  7.35E-13,  avg # of iterations =  4.0

     negative rho (up, down):  1.688E-03 1.844E-03

     total cpu time spent up to now is     1488.3 secs

     total energy              =  -42651.90791334 Ry
     estimated scf accuracy    <       0.00000001 Ry

     total magnetization       =    -0.06 Bohr mag/cell
     absolute magnetization    =   229.51 Bohr mag/cell

     iteration # 66     ecut=    71.00 Ry     beta= 0.30
     Davidson diagonalization with overlap
     ethr =  6.50E-13,  avg # of iterations =  3.0

     negative rho (up, down):  1.710E-03 1.866E-03
 
     Magnetic moment per site:
     atom:    1    charge:   15.5260    magn:   -0.0063    constr:    0.0000
     atom:    2    charge:   14.1541    magn:    2.0065    constr:    0.0000
     atom:    3    charge:   14.1732    magn:   -2.0134    constr:    0.0000
     atom:    4    charge:   14.2060    magn:    1.4107    constr:    0.0000
     atom:    5    charge:   14.2342    magn:   -1.3375    constr:    0.0000
     atom:    6    charge:   14.2303    magn:    0.9380    constr:    0.0000
     atom:    7    charge:   14.2500    magn:   -0.9076    constr:    0.0000
     atom:    8    charge:   14.0998    magn:    2.3142    constr:    0.0000
     atom:    9    charge:   14.1157    magn:   -2.3191    constr:    0.0000
     atom:   10    charge:   14.1080    magn:    2.2285    constr:    0.0000
     atom:   11    charge:   14.1384    magn:   -2.1566    constr:    0.0000
     atom:   12    charge:   14.2262    magn:    1.1245    constr:    0.0000
     atom:   13    charge:   14.2379    magn:   -1.2294    constr:    0.0000
     atom:   14    charge:   14.2246    magn:    0.9682    constr:    0.0000
     atom:   15    charge:   14.2417    magn:   -0.9403    constr:    0.0000
     atom:   16    charge:   14.0986    magn:    2.3161    constr:    0.0000
     atom:   17    charge:   14.1159    magn:   -2.3017    constr:    0.0000
     atom:   18    charge:   14.1109    magn:    2.2174    constr:    0.0000
     atom:   19    charge:   14.1292    magn:   -2.2107    constr:    0.0000
     atom:   20    charge:   14.2182    magn:    1.2120    constr:    0.0000
     atom:   21    charge:   14.2375    magn:   -1.2053    constr:    0.0000
     atom:   22    charge:   14.2171    magn:    1.0386    constr:    0.0000
     atom:   23    charge:   14.2350    magn:   -1.0598    constr:    0.0000
     atom:   24    charge:   14.1025    magn:    2.2817    constr:    0.0000
     atom:   25    charge:   14.1185    magn:   -2.2873    constr:    0.0000
     atom:   26    charge:   14.1212    magn:    2.1513    constr:    0.0000
     atom:   27    charge:   14.1029    magn:   -2.2985    constr:    0.0000
     atom:   28    charge:   14.2149    magn:    1.2654    constr:    0.0000
     atom:   29    charge:   14.2378    magn:   -1.2309    constr:    0.0000
     atom:   30    charge:   14.2214    magn:    0.9463    constr:    0.0000
     atom:   31    charge:   14.2438    magn:   -0.9506    constr:    0.0000
     atom:   32    charge:   14.1000    magn:    2.2942    constr:    0.0000
     atom:   33    charge:   14.1146    magn:   -2.3233    constr:    0.0000
     atom:   34    charge:   14.0767    magn:    2.3546    constr:    0.0000
     atom:   35    charge:   14.1334    magn:   -2.2169    constr:    0.0000
     atom:   36    charge:   14.2187    magn:    0.8198    constr:    0.0000
     atom:   37    charge:   14.2382    magn:   -1.2405    constr:    0.0000
     atom:   38    charge:   14.2269    magn:    1.0743    constr:    0.0000
     atom:   39    charge:   14.2463    magn:   -1.1024    constr:    0.0000
     atom:   40    charge:   14.1094    magn:    2.2240    constr:    0.0000
     atom:   41    charge:   14.1284    magn:   -2.2599    constr:    0.0000
     atom:   42    charge:   14.1109    magn:    2.2296    constr:    0.0000
     atom:   43    charge:   14.1237    magn:   -2.2570    constr:    0.0000
     atom:   44    charge:   14.2216    magn:    1.1078    constr:    0.0000
     atom:   45    charge:   14.2412    magn:   -1.1638    constr:    0.0000
     atom:   46    charge:   14.2277    magn:    1.0031    constr:    0.0000
     atom:   47    charge:   14.2421    magn:   -1.0931    constr:    0.0000
     atom:   48    charge:   14.1131    magn:    2.2315    constr:    0.0000
     atom:   49    charge:   14.1241    magn:   -2.2681    constr:    0.0000
     atom:   50    charge:   14.1104    magn:    2.2404    constr:    0.0000
     atom:   51    charge:   14.1214    magn:   -2.2901    constr:    0.0000
     atom:   52    charge:   14.2247    magn:    0.9784    constr:    0.0000
     atom:   53    charge:   14.2404    magn:   -1.0397    constr:    0.0000
     atom:   54    charge:   14.2196    magn:    1.0762    constr:    0.0000
     atom:   55    charge:   14.2357    magn:   -1.1992    constr:    0.0000
     atom:   56    charge:   14.1145    magn:    2.1981    constr:    0.0000
     atom:   57    charge:   14.1232    magn:   -2.2488    constr:    0.0000
     atom:   58    charge:   14.1068    magn:    2.2587    constr:    0.0000
     atom:   59    charge:   14.1186    magn:   -2.2911    constr:    0.0000
     atom:   60    charge:   14.2224    magn:    0.9424    constr:    0.0000
     atom:   61    charge:   14.2283    magn:   -1.2221    constr:    0.0000
     atom:   62    charge:   14.2150    magn:    1.1931    constr:    0.0000
     atom:   63    charge:   14.2340    magn:   -1.2024    constr:    0.0000
     atom:   64    charge:   14.1121    magn:    2.1961    constr:    0.0000
     atom:   65    charge:   14.1194    magn:   -2.2729    constr:    0.0000
     atom:   66    charge:   14.1007    magn:    2.2997    constr:    0.0000
     atom:   67    charge:   14.1178    magn:   -2.2873    constr:    0.0000
     atom:   68    charge:   14.2196    magn:    1.0538    constr:    0.0000
     atom:   69    charge:   14.2374    magn:   -1.1043    constr:    0.0000
     atom:   70    charge:   14.2153    magn:    1.1936    constr:    0.0000
     atom:   71    charge:   14.2378    magn:   -1.1227    constr:    0.0000
     atom:   72    charge:   14.1141    magn:    2.2056    constr:    0.0000
     atom:   73    charge:   14.1294    magn:   -2.2209    constr:    0.0000
     atom:   74    charge:   14.1045    magn:    2.2692    constr:    0.0000
     atom:   75    charge:   14.1154    magn:   -2.3143    constr:    0.0000
     atom:   76    charge:   14.2165    magn:    1.0721    constr:    0.0000
     atom:   77    charge:   14.2410    magn:   -1.0561    constr:    0.0000
     atom:   78    charge:   14.2205    magn:    1.1526    constr:    0.0000
     atom:   79    charge:   14.2351    magn:   -1.2530    constr:    0.0000
     atom:   80    charge:   14.1067    magn:    2.2316    constr:    0.0000
     atom:   81    charge:   14.1321    magn:   -2.1930    constr:    0.0000
     atom:   82    charge:   14.1020    magn:    2.3038    constr:    0.0000
     atom:   83    charge:   14.1189    magn:   -2.3028    constr:    0.0000
     atom:   84    charge:   14.2269    magn:    0.9038    constr:    0.0000
     atom:   85    charge:   14.2453    magn:   -0.9180    constr:    0.0000
     atom:   86    charge:   14.2158    magn:    1.2949    constr:    0.0000
     atom:   87    charge:   14.2356    magn:   -1.2792    constr:    0.0000
     atom:   88    charge:   14.1212    magn:    2.1431    constr:    0.0000
     atom:   89    charge:   14.1381    magn:   -2.1468    constr:    0.0000
     atom:   90    charge:   14.0977    magn:    2.3203    constr:    0.0000
     atom:   91    charge:   14.1219    magn:   -2.2662    constr:    0.0000
     atom:   92    charge:   14.2217    magn:    1.0542    constr:    0.0000
     atom:   93    charge:   14.2350    magn:   -1.0790    constr:    0.0000
     atom:   94    charge:   14.2157    magn:    1.2579    constr:    0.0000
     atom:   95    charge:   14.2400    magn:   -1.1325    constr:    0.0000
     atom:   96    charge:   14.1158    magn:    2.1867    constr:    0.0000
     atom:   97    charge:   14.1230    magn:   -2.2336    constr:    0.0000
     atom:   98    charge:   14.1137    magn:    2.2306    constr:    0.0000
     atom:   99    charge:   14.1195    magn:   -2.2665    constr:    0.0000
     atom:  100    charge:   14.2249    magn:    1.2146    constr:    0.0000
     atom:  101    charge:   14.2403    magn:   -1.0222    constr:    0.0000
     atom:  102    charge:   14.2275    magn:    1.1349    constr:    0.0000
     atom:  103    charge:   14.2477    magn:   -1.0222    constr:    0.0000
     atom:  104    charge:   14.1124    magn:    2.2550    constr:    0.0000
     atom:  105    charge:   14.1248    magn:   -2.2415    constr:    0.0000
     atom:  106    charge:   14.1033    magn:    2.2764    constr:    0.0000
     atom:  107    charge:   14.1265    magn:   -2.2396    constr:    0.0000
     atom:  108    charge:   14.2188    magn:    1.1421    constr:    0.0000
     atom:  109    charge:   14.2417    magn:   -0.9683    constr:    0.0000
     atom:  110    charge:   14.2174    magn:    1.1943    constr:    0.0000
     atom:  111    charge:   14.2357    magn:   -1.1684    constr:    0.0000
     atom:  112    charge:   14.1033    magn:    2.2684    constr:    0.0000
     atom:  113    charge:   14.1277    magn:   -2.2095    constr:    0.0000
     atom:  114    charge:   14.1044    magn:    2.2892    constr:    0.0000
     atom:  115    charge:   14.1284    magn:   -2.2307    constr:    0.0000
     atom:  116    charge:   14.2210    magn:    1.0613    constr:    0.0000
     atom:  117    charge:   14.2429    magn:   -1.0092    constr:    0.0000
     atom:  118    charge:   14.2168    magn:    1.1953    constr:    0.0000
     atom:  119    charge:   14.2392    magn:   -1.0541    constr:    0.0000
     atom:  120    charge:   14.1066    magn:    2.2489    constr:    0.0000
     atom:  121    charge:   14.1307    magn:   -2.2061    constr:    0.0000
     atom:  122    charge:   14.1064    magn:    2.2585    constr:    0.0000
     atom:  123    charge:   14.1290    magn:   -2.2185    constr:    0.0000
     atom:  124    charge:   14.2216    magn:    1.1643    constr:    0.0000
     atom:  125    charge:   14.2400    magn:   -1.1192    constr:    0.0000
     atom:  126    charge:   14.2230    magn:    1.0942    constr:    0.0000
     atom:  127    charge:   14.2470    magn:   -0.9629    constr:    0.0000
     atom:  128    charge:   14.1079    magn:    2.2637    constr:    0.0000
     atom:  129    charge:   14.1285    magn:   -2.2433    constr:    0.0000

     total cpu time spent up to now is     1510.3 secs

     End of self-consistent calculation

 ------ SPIN UP ------------


          k = 0.0000 0.0000 0.0000 ( 91909 PWs)   bands (ev):

   -80.3681 -80.3026 -80.3002 -80.2979 -80.2944 -80.2938 -80.2829 -80.2819
   -80.2760 -80.2654 -80.2641 -80.2623 -80.2618 -80.2591 -80.2586 -80.2562
   -80.2545 -80.2518 -80.2494 -80.2433 -80.2391 -80.2342 -80.2320 -80.2306
   -80.2213 -80.2102 -80.2086 -80.2066 -80.2027 -80.1819 -80.1776 -80.1699
   -79.7695 -79.6937 -79.6696 -79.6649 -79.6363 -79.6325 -79.6255 -79.6236
   -79.6225 -79.6165 -79.6091 -79.5974 -79.5851 -79.5849 -79.5805 -79.5645
   -79.5555 -79.5449 -79.5421 -79.5360 -79.5331 -79.5268 -79.5206 -79.5094
   -79.4941 -79.4763 -79.4695 -79.4514 -79.4510 -79.4506 -79.4266 -79.3704
   -78.3876 -78.3825 -78.3698 -78.3647 -78.3621 -78.3587 -78.3434 -78.3415
   -78.3279 -78.3264 -78.3142 -78.3129 -78.3054 -78.3052 -78.3045 -78.2940
   -78.2904 -78.2889 -78.2752 -78.2687 -78.2631 -78.2588 -78.2438 -78.2415
   -78.2407 -78.2371 -78.2296 -78.2227 -78.2206 -78.2151 -78.2072 -78.1847
   -77.8603 -77.7080 -77.7069 -77.6986 -77.6883 -77.6855 -77.6826 -77.6783
   -77.6769 -77.6755 -77.6725 -77.6725 -77.6724 -77.6687 -77.6668 -77.6666
   -77.6655 -77.6653 -77.6649 -77.6587 -77.6574 -77.6559 -77.6555 -77.6511
   -77.6496 -77.6489 -77.6448 -77.6438 -77.6427 -77.6393 -77.6365 -77.6362
   -75.4848 -46.5162 -46.4605 -46.4579 -46.4548 -46.4504 -46.4443 -46.4418
   -46.4361 -46.4302 -46.4273 -46.4209 -46.4195 -46.4188 -46.4183 -46.4180
   -46.4170 -46.4134 -46.4130 -46.4082 -46.4040 -46.4023 -46.3979 -46.3955
   -46.3890 -46.3876 -46.3774 -46.3700 -46.3673 -46.3644 -46.3643 -46.3631
   -46.3606 -46.3602 -46.3560 -46.3546 -46.3501 -46.3495 -46.3466 -46.3420
   -46.3419 -46.3415 -46.3308 -46.3306 -46.3294 -46.3287 -46.3278 -46.3252
   -46.3231 -46.3213 -46.3189 -46.3154 -46.3147 -46.3079 -46.3071 -46.2965
   -46.2958 -46.2920 -46.2835 -46.2781 -46.2744 -46.2726 -46.2725 -46.2714
   -46.2693 -46.2675 -46.2674 -46.2673 -46.2566 -46.2529 -46.2466 -46.2460
   -46.2402 -46.2385 -46.2374 -46.2367 -46.2363 -46.2341 -46.2315 -46.2286
   -46.2255 -46.2250 -46.2241 -46.2207 -46.2160 -46.2157 -46.2136 -46.2099
   -46.2077 -46.2040 -46.1921 -46.1894 -46.1873 -46.1824 -46.1666 -46.1648
   -46.1560 -45.8617 -45.8486 -45.8056 -45.7828 -45.7794 -45.7657 -45.7618
   -45.7521 -45.7493 -45.7439 -45.7414 -45.7370 -45.7348 -45.7339 -45.7273
   -45.7264 -45.7250 -45.7241 -45.7208 -45.7180 -45.7164 -45.7044 -45.7029
   -45.7009 -45.6978 -45.6969 -45.6953 -45.6946 -45.6930 -45.6914 -45.6898
   -45.6868 -45.6855 -45.6823 -45.6813 -45.6739 -45.6728 -45.6705 -45.6635
   -45.6625 -45.6622 -45.6565 -45.6545 -45.6530 -45.6484 -45.6411 -45.6373
   -45.6265 -45.6189 -45.6077 -45.6067 -45.6053 -45.5969 -45.5937 -45.5875
   -45.5841 -45.5790 -45.5787 -45.5758 -45.5695 -45.5686 -45.5680 -45.5674
   -45.5602 -45.5521 -45.5519 -45.5489 -45.5440 -45.5320 -45.5306 -45.5296
   -45.5273 -45.5235 -45.5223 -45.5219 -45.5215 -45.5196 -45.5186 -45.5176
   -45.5073 -45.5060 -45.5052 -45.5028 -45.4998 -45.4968 -45.4883 -45.4763
   -45.4760 -45.4681 -45.4632 -45.4601 -45.4597 -45.4548 -45.4410 -45.4146
   -45.3939 -44.5100 -44.5060 -44.5057 -44.5045 -44.4962 -44.4928 -44.4901
   -44.4871 -44.4866 -44.4852 -44.4820 -44.4816 -44.4796 -44.4783 -44.4759
   -44.4722 -44.4708 -44.4687 -44.4654 -44.4633 -44.4602 -44.4585 -44.4576
   -44.4568 -44.4550 -44.4547 -44.4520 -44.4514 -44.4484 -44.4476 -44.4446
   -44.4444 -44.4431 -44.4404 -44.4396 -44.4340 -44.4276 -44.4268 -44.4251
   -44.4246 -44.4213 -44.4193 -44.4183 -44.4158 -44.4105 -44.4104 -44.4099
   -44.4025 -44.3987 -44.3913 -44.3885 -44.3859 -44.3787 -44.3664 -44.3536
   -44.3533 -44.3505 -44.3479 -44.3414 -44.3384 -44.3308 -44.3297 -44.3268
   -44.3260 -44.3254 -44.3247 -44.3238 -44.3216 -44.3159 -44.3111 -44.3091
   -44.3056 -44.3033 -44.3025 -44.3005 -44.2980 -44.2956 -44.2919 -44.2912
   -44.2887 -44.2878 -44.2866 -44.2836 -44.2809 -44.2803 -44.2793 -44.2778
   -44.2772 -44.2748 -44.2744 -44.2617 -44.2616 -44.2597 -44.2574 -44.2466
   -44.2436 -44.0374 -43.9242 -43.8867 -43.8856 -43.8722 -43.8679 -43.8625
   -43.8526 -43.8506 -43.8500 -43.8485 -43.8453 -43.8421 -43.8416 -43.8395
   -43.8388 -43.8352 -43.8333 -43.8324 -43.8321 -43.8312 -43.8244 -43.8216
   -43.8212 -43.8201 -43.8134 -43.8125 -43.8087 -43.8071 -43.8059 -43.8047
   -43.7974 -43.7971 -43.7945 -43.7943 -43.7914 -43.7866 -43.7853 -43.7749
   -43.7727 -43.7663 -43.7644 -43.7616 -43.7611 -43.7598 -43.7590 -43.7565
   -43.7556 -43.7536 -43.7534 -43.7524 -43.7494 -43.7471 -43.7455 -43.7446
   -43.7439 -43.7422 -43.7421 -43.7386 -43.7361 -43.7358 -43.7319 -43.7294
   -43.7269 -43.7248 -43.7163 -43.7156 -43.7152 -43.7045 -43.7012 -43.7008
   -43.7002 -43.6989 -43.6985 -43.6983 -43.6971 -43.6963 -43.6955 -43.6940
   -43.6932 -43.6915 -43.6909 -43.6899 -43.6886 -43.6865 -43.6848 -43.6844
   -43.6837 -43.6813 -43.6796 -43.6774 -43.6759 -43.6755 -43.6753 -43.6730
   -43.6726 -41.4166 -41.2207 -41.0874  -0.2065   0.5603   0.5671   0.6429
     0.6453   1.3210   1.3247   1.3282   1.3293   1.4586   2.1425   2.1665
     2.2263   2.2386   2.3736   2.5614   2.6801   2.6827   2.6967   2.7142
     2.7190   2.7230   2.9095   2.9125   2.9757   2.9774   3.0509   3.0511
     3.0538   3.0551   3.0842   3.0975   3.3297   3.3332   3.4319   3.4563
     3.4818   3.5064   3.5117   3.5189   3.5265   3.5300   3.5368   3.5731
     3.5786   3.6226   3.6659   3.6702   3.6752   3.6774   3.6880   3.6916
     3.7118   3.7223   3.7267   3.7383   3.7511   3.7583   3.7954   3.8027
     3.8104   3.8145   3.8504   3.8675   3.8722   3.8792   3.9019   3.9085
     3.9134   3.9824   3.9884   3.9939   3.9940   4.0002   4.0048   4.0065
     4.0089   4.0200   4.0363   4.0617   4.0677   4.0819   4.1088   4.1802
     4.2115   4.2162   4.2340   4.2512   4.2541   4.2598   4.2704   4.2721
     4.2731   4.2749   4.2795   4.2896   4.3236   4.3314   4.3394   4.3434
     4.3558   4.3571   4.3620   4.3685   4.3750   4.3807   4.3854   4.3885
     4.3891   4.3923   4.4044   4.4125   4.4170   4.4219   4.4234   4.4297
     4.4370   4.4394   4.4444   4.4506   4.4555   4.4585   4.4645   4.4664
     4.4702   4.4736   4.4775   4.4944   4.5070   4.5213   4.5225   4.5559
     4.5752   4.5793   4.5816   4.5843   4.5931   4.6138   4.6190   4.6229
     4.6249   4.6311   4.6689   4.6728   4.7035   4.7109   4.7218   4.7332
     4.7569   4.7627   4.7698   4.7722   4.7786   4.7832   4.7913   4.7940
     4.7995   4.8060   4.8107   4.8166   4.8258   4.8263   4.8386   4.8464
     4.8494   4.8583   4.8608   4.8721   4.8740   4.8854   4.8880   4.8949
     4.9021   4.9082   4.9087   4.9132   4.9200   4.9307   4.9340   4.9439
     4.9915   4.9942   4.9990   5.0054   5.0079   5.0108   5.0212   5.0328
     5.0442   5.0582   5.0614   5.1160   5.1336   5.1626   5.1660   5.1742
     5.1820   5.2084   5.2097   5.2138   5.2399   5.2508   5.2609   5.3043
     5.3247   5.3703   5.3847   5.3885   5.3975   5.4215   5.4272   5.4354
     5.4411   5.4496   5.4555   5.4573   5.4705   5.4770   5.4854   5.4992
     5.5068   5.5134   5.5392   5.5536   5.5559   5.5648   5.5762   5.5829
     5.5892   5.6092   5.6180   5.6203   5.6225   5.6328   5.6519   5.6582
     5.6689   5.6746   5.6814   5.6847   5.6861   5.6902   5.6948   5.7003
     5.7054   5.7099   5.7120   5.7140   5.7188   5.7206   5.7250   5.7282
     5.7342   5.7366   5.7391   5.7715   5.7756   5.7949   5.8333   5.8413
     5.8552   5.8560   5.8706   5.8741   5.8842   5.8905   5.8944   5.9051
     5.9073   5.9167   5.9172   5.9255   5.9425   5.9600   5.9609   5.9814
     5.9898   5.9949   6.0034   6.0220   6.0655   6.0715   6.1000   6.1068
     6.1122   6.1654   6.1935   6.2053   6.2110   6.2140   6.2311   6.2349
     6.2511   6.2550   6.2575   6.2619   6.2648   6.2749   6.2777   6.2796
     6.2867   6.2881   6.2928   6.2957   6.2989   6.3001   6.3012   6.3060
     6.3077   6.3092   6.3122   6.3177   6.3217   6.3277   6.3300   6.3326
     6.3690   6.3856   6.3957   6.4035   6.4143   6.4216   6.4439   6.4750
     6.5011   6.5082   6.5134   6.5166   6.5239   6.5266   6.5312   6.5363
     6.5399   6.5470   6.5475   6.5522   6.5589   6.5592   6.5633   6.5659
     6.5695   6.5745   6.5914   6.5959   6.5987   6.6028   6.6046   6.6069
     6.6096   6.6118   6.6138   6.6205   6.6236   6.6281   6.6308   6.6360
     6.6380   6.6472   6.6565   6.6596   6.6694   6.6758   6.6774   6.7022
     6.7139   6.7258   6.7269   6.7321   6.7418   6.7433   6.7502   6.7518
     6.7630   6.7729   6.7862   6.7958   6.8018   6.8073   6.8119   6.8169
     6.8230   6.8300   6.8392   6.8442   6.8534   6.8613   6.8740   6.8797
     6.8800   6.8837   6.8877   6.8958   6.8976   6.9045   6.9072   6.9130
     6.9244   6.9487   6.9624   6.9706   6.9757   6.9812   6.9867   6.9920
     6.9992   7.0014   7.0100   7.0251   7.0282   7.0423   7.0443   7.0502
     7.0629   7.0751   7.0791   7.0974   7.1068   7.1121   7.1387   7.1452
     7.1533   7.1672   7.1756   7.1852   7.1917   7.2044   7.2117   7.2143
     7.2204   7.2320   7.2397   7.2416   7.2514   7.2586   7.2640   7.2725
     7.2746   7.2873   7.2906   7.2987   7.3613   7.3716   7.3837   7.3940
     7.4330   7.4721   7.4814   7.5055   7.5083   7.5138   7.5172   7.5286
     7.5345   7.5368   7.5438   7.5526   7.5642   7.5671   7.5719   7.5769
     7.5795   7.5863   7.6020   7.6154   7.6353   7.6406   7.6424   7.6544
     7.6583   7.6728   7.7190   7.7233   7.7289   7.7391   7.7479   7.7569
     7.7734   7.7753   7.7839   7.7921   7.8018   7.8041   7.8114   7.8230
     7.8382   7.8437   7.8883   7.9005   7.9091   7.9149   7.9324   7.9404
     7.9439   7.9615   7.9653   7.9674   7.9774   7.9829   7.9854   7.9994
     8.0043   8.0135   8.0372   8.0482   8.0569   8.0615   8.0624   8.0735
     8.0799   8.0897   8.1120   8.1282   8.1351   8.1422   8.1451   8.1588
     8.1762   8.1795   8.1841   8.1882   8.2000   8.2034   8.2064   8.2105
     8.2256   8.2679   8.2833   8.2922   8.2936   8.2957   8.3091   8.3106
     8.3436   8.3461   8.3496   8.3785   8.3889   8.4247   8.4369   8.4394
     8.4504   8.4642   8.4687   8.4745   8.4799   8.4908   8.5083   8.5236
     8.5512   8.5914   8.5973   8.6119   8.6587   8.6737   8.6822   8.6862
     8.6935   8.7028   8.7053   8.7172   8.7617   8.7753   8.7781   8.7804
     8.7828   8.7843   8.7871   8.7877   8.7905   8.7948   8.7953   8.7983
     8.8044   8.8104   8.8128   8.8134   8.8170   8.8203   8.8213   8.8236
     8.8281   8.8293   8.8299   8.8321   8.8372   8.8391   8.8409   8.8450
     8.8491   8.8514   8.8520   8.8565   8.8622   8.8670   8.8678   8.8691
     8.8727   8.8744   8.8877   8.8970   8.9040   8.9094   8.9146   8.9187
     8.9280   8.9329   8.9347   8.9389   8.9580   8.9751   8.9762   8.9794
     8.9821   8.9842   8.9876   8.9942   9.0051   9.0144   9.0181   9.0189
     9.0241   9.0556   9.0570   9.0591   9.0637   9.0657   9.0702   9.0722
     9.0747   9.0756   9.0774   9.0788   9.0864   9.1234   9.1302   9.1508
     9.1589   9.1623   9.1754   9.1765   9.1785   9.1794   9.1815   9.1848
     9.1869   9.1943   9.1962   9.1998   9.2034   9.2169   9.2283   9.2351
     9.2508   9.2525   9.2576   9.2582   9.2638   9.2684   9.2699   9.2709
     9.2747   9.2811   9.2846   9.2867   9.2897   9.3042   9.3106   9.3249
     9.3313   9.3392   9.3572   9.3662   9.3714   9.3779   9.3888   9.3927
     9.4011   9.4037   9.4057   9.4075   9.4100   9.4146   9.4212   9.4241
     9.4264   9.4307   9.4443   9.4531   9.4579   9.4780   9.4897   9.5078
     9.5283   9.5424   9.5617   9.5834   9.5941   9.6040   9.6307   9.6349
     9.6425   9.7446   9.7616   9.8942   9.9878  10.0619  10.3077  10.3114
    10.4232  10.4467  10.4847  10.5181  10.5242  10.5472  10.5508  10.5629
    10.5781  10.6399  10.6422  10.6515  10.7158  10.7435  10.7491  10.7573

 ------ SPIN DOWN ----------


          k = 0.0000 0.0000 0.0000 ( 91909 PWs)   bands (ev):

   -80.3085 -80.3062 -80.3040 -80.2950 -80.2897 -80.2880 -80.2808 -80.2782
   -80.2767 -80.2760 -80.2755 -80.2670 -80.2639 -80.2626 -80.2578 -80.2484
   -80.2475 -80.2462 -80.2458 -80.2439 -80.2372 -80.2347 -80.2333 -80.2299
   -80.2255 -80.2158 -80.2152 -80.2143 -80.2061 -80.1815 -80.1790 -80.1719
   -79.7262 -79.6819 -79.6602 -79.6560 -79.6536 -79.6514 -79.6396 -79.6324
   -79.6236 -79.6211 -79.6076 -79.5998 -79.5871 -79.5789 -79.5684 -79.5674
   -79.5537 -79.5523 -79.5387 -79.5304 -79.5276 -79.5216 -79.5169 -79.5125
   -79.4995 -79.4950 -79.4683 -79.4668 -79.4542 -79.4476 -79.4355 -79.4295
   -78.4324 -78.3889 -78.3724 -78.3704 -78.3651 -78.3598 -78.3544 -78.3442
   -78.3256 -78.3198 -78.3139 -78.3079 -78.3077 -78.3050 -78.3031 -78.2937
   -78.2923 -78.2822 -78.2788 -78.2726 -78.2628 -78.2610 -78.2471 -78.2450
   -78.2435 -78.2412 -78.2352 -78.2289 -78.2132 -78.2058 -78.1996 -78.1420
   -77.8656 -77.7118 -77.7079 -77.6964 -77.6950 -77.6896 -77.6839 -77.6828
   -77.6759 -77.6754 -77.6735 -77.6729 -77.6681 -77.6672 -77.6671 -77.6658
   -77.6647 -77.6591 -77.6583 -77.6571 -77.6571 -77.6545 -77.6540 -77.6530
   -77.6511 -77.6484 -77.6472 -77.6451 -77.6451 -77.6363 -77.6361 -77.6340
   -75.4905 -46.4635 -46.4608 -46.4544 -46.4525 -46.4467 -46.4414 -46.4413
   -46.4382 -46.4381 -46.4319 -46.4269 -46.4230 -46.4213 -46.4194 -46.4132
   -46.4102 -46.4069 -46.4042 -46.4015 -46.4012 -46.3998 -46.3949 -46.3925
   -46.3912 -46.3880 -46.3857 -46.3729 -46.3718 -46.3700 -46.3668 -46.3650
   -46.3639 -46.3576 -46.3539 -46.3511 -46.3440 -46.3439 -46.3422 -46.3422
   -46.3395 -46.3384 -46.3325 -46.3325 -46.3271 -46.3262 -46.3238 -46.3238
   -46.3168 -46.3142 -46.3108 -46.3064 -46.3039 -46.3006 -46.2994 -46.2979
   -46.2979 -46.2862 -46.2838 -46.2814 -46.2777 -46.2774 -46.2750 -46.2710
   -46.2660 -46.2635 -46.2608 -46.2581 -46.2552 -46.2548 -46.2486 -46.2484
   -46.2461 -46.2422 -46.2421 -46.2409 -46.2398 -46.2392 -46.2390 -46.2307
   -46.2249 -46.2230 -46.2226 -46.2220 -46.2189 -46.2135 -46.2117 -46.2097
   -46.2057 -46.2026 -46.1979 -46.1971 -46.1945 -46.1863 -46.1686 -46.1664
   -46.1578 -45.8136 -45.8036 -45.7743 -45.7726 -45.7661 -45.7651 -45.7615
   -45.7581 -45.7528 -45.7507 -45.7398 -45.7347 -45.7308 -45.7302 -45.7257
   -45.7247 -45.7242 -45.7239 -45.7235 -45.7218 -45.7207 -45.7193 -45.7181
   -45.7155 -45.7132 -45.7065 -45.7019 -45.6994 -45.6973 -45.6945 -45.6913
   -45.6904 -45.6881 -45.6872 -45.6845 -45.6829 -45.6734 -45.6670 -45.6653
   -45.6636 -45.6611 -45.6553 -45.6528 -45.6511 -45.6455 -45.6443 -45.6323
   -45.6297 -45.6170 -45.6134 -45.6012 -45.5990 -45.5932 -45.5914 -45.5893
   -45.5806 -45.5801 -45.5759 -45.5746 -45.5728 -45.5687 -45.5666 -45.5606
   -45.5586 -45.5539 -45.5508 -45.5495 -45.5486 -45.5433 -45.5316 -45.5289
   -45.5280 -45.5273 -45.5238 -45.5236 -45.5233 -45.5207 -45.5204 -45.5173
   -45.5160 -45.5114 -45.5093 -45.5080 -45.5069 -45.5007 -45.4974 -45.4865
   -45.4858 -45.4849 -45.4770 -45.4749 -45.4737 -45.4614 -45.4585 -45.4478
   -45.4424 -44.5520 -44.5391 -44.5117 -44.5110 -44.5101 -44.4980 -44.4944
   -44.4934 -44.4916 -44.4884 -44.4874 -44.4870 -44.4863 -44.4811 -44.4753
   -44.4737 -44.4728 -44.4721 -44.4693 -44.4644 -44.4639 -44.4608 -44.4606
   -44.4593 -44.4582 -44.4571 -44.4553 -44.4499 -44.4474 -44.4460 -44.4411
   -44.4378 -44.4367 -44.4339 -44.4310 -44.4291 -44.4271 -44.4263 -44.4256
   -44.4247 -44.4242 -44.4224 -44.4183 -44.4165 -44.4133 -44.4112 -44.4095
   -44.4031 -44.3964 -44.3948 -44.3924 -44.3826 -44.3789 -44.3784 -44.3574
   -44.3547 -44.3543 -44.3521 -44.3467 -44.3455 -44.3392 -44.3310 -44.3284
   -44.3266 -44.3237 -44.3215 -44.3207 -44.3193 -44.3149 -44.3135 -44.3101
   -44.3098 -44.3078 -44.3073 -44.3033 -44.3001 -44.2931 -44.2927 -44.2925
   -44.2901 -44.2844 -44.2830 -44.2817 -44.2810 -44.2802 -44.2755 -44.2747
   -44.2736 -44.2717 -44.2681 -44.2603 -44.2558 -44.2493 -44.2454 -44.2180
   -44.2011 -44.0198 -43.9598 -43.8926 -43.8868 -43.8716 -43.8679 -43.8639
   -43.8601 -43.8554 -43.8544 -43.8458 -43.8454 -43.8453 -43.8404 -43.8377
   -43.8356 -43.8353 -43.8308 -43.8302 -43.8261 -43.8243 -43.8218 -43.8195
   -43.8193 -43.8151 -43.8142 -43.8114 -43.8108 -43.8085 -43.8078 -43.8065
   -43.7956 -43.7947 -43.7945 -43.7941 -43.7936 -43.7855 -43.7768 -43.7766
   -43.7737 -43.7735 -43.7684 -43.7626 -43.7597 -43.7573 -43.7569 -43.7567
   -43.7552 -43.7535 -43.7532 -43.7522 -43.7506 -43.7472 -43.7463 -43.7457
   -43.7446 -43.7429 -43.7417 -43.7382 -43.7368 -43.7366 -43.7352 -43.7269
   -43.7257 -43.7222 -43.7197 -43.7196 -43.7155 -43.7150 -43.7053 -43.7008
   -43.6993 -43.6985 -43.6957 -43.6950 -43.6949 -43.6940 -43.6916 -43.6903
   -43.6903 -43.6896 -43.6891 -43.6888 -43.6858 -43.6847 -43.6841 -43.6839
   -43.6837 -43.6820 -43.6818 -43.6788 -43.6768 -43.6756 -43.6736 -43.6729
   -43.6722 -41.4272 -41.2245 -41.0904  -0.2065   0.5604   0.5673   0.6432
     0.6448   1.3217   1.3241   1.3277   1.3297   1.4586   2.1428   2.1666
     2.2260   2.2384   2.3746   2.5603   2.6792   2.6824   2.6973   2.7139
     2.7190   2.7227   2.9099   2.9135   2.9749   2.9770   3.0505   3.0518
     3.0537   3.0543   3.0858   3.0977   3.3297   3.3328   3.4451   3.4580
     3.4816   3.5020   3.5076   3.5176   3.5259   3.5276   3.5356   3.5739
     3.5781   3.6374   3.6653   3.6737   3.6751   3.6778   3.6864   3.6908
     3.7038   3.7206   3.7222   3.7391   3.7524   3.7590   3.7967   3.8019
     3.8094   3.8158   3.8442   3.8630   3.8718   3.8784   3.9005   3.9108
     3.9130   3.9816   3.9868   3.9897   3.9961   4.0010   4.0020   4.0068
     4.0110   4.0230   4.0369   4.0611   4.0697   4.0769   4.1076   4.1755
     4.2047   4.2198   4.2346   4.2486   4.2547   4.2587   4.2621   4.2686
     4.2713   4.2767   4.2797   4.2864   4.3240   4.3287   4.3430   4.3470
     4.3556   4.3597   4.3617   4.3682   4.3725   4.3797   4.3821   4.3859
     4.3904   4.3921   4.4043   4.4112   4.4180   4.4201   4.4241   4.4311
     4.4379   4.4391   4.4486   4.4499   4.4526   4.4564   4.4647   4.4669
     4.4689   4.4740   4.4759   4.4982   4.5043   4.5154   4.5201   4.5557
     4.5762   4.5786   4.5809   4.5832   4.5880   4.6162   4.6220   4.6235
     4.6239   4.6301   4.6705   4.6759   4.7036   4.7120   4.7169   4.7295
     4.7560   4.7632   4.7659   4.7714   4.7837   4.7859   4.7897   4.7907
     4.8015   4.8049   4.8112   4.8189   4.8232   4.8261   4.8340   4.8435
     4.8525   4.8567   4.8583   4.8676   4.8794   4.8852   4.8884   4.8965
     4.9026   4.9050   4.9079   4.9127   4.9189   4.9334   4.9371   4.9451
     4.9915   4.9979   5.0009   5.0058   5.0073   5.0105   5.0251   5.0365
     5.0437   5.0589   5.0618   5.1197   5.1348   5.1537   5.1634   5.1746
     5.1792   5.2063   5.2099   5.2117   5.2384   5.2462   5.2605   5.3061
     5.3219   5.3559   5.3798   5.3905   5.3960   5.4156   5.4268   5.4346
     5.4393   5.4485   5.4543   5.4581   5.4635   5.4770   5.4903   5.4993
     5.5033   5.5155   5.5429   5.5507   5.5528   5.5627   5.5774   5.5861
     5.5956   5.6112   5.6195   5.6213   5.6275   5.6336   5.6517   5.6569
     5.6651   5.6700   5.6777   5.6834   5.6868   5.6917   5.6988   5.6991
     5.7037   5.7097   5.7135   5.7154   5.7195   5.7233   5.7237   5.7280
     5.7317   5.7361   5.7380   5.7721   5.7753   5.7924   5.8248   5.8540
     5.8553   5.8602   5.8669   5.8782   5.8847   5.8875   5.8995   5.9026
     5.9069   5.9170   5.9189   5.9248   5.9463   5.9619   5.9643   5.9861
     5.9882   5.9953   6.0061   6.0388   6.0614   6.0750   6.0829   6.0925
     6.1280   6.1705   6.1950   6.2035   6.2114   6.2241   6.2277   6.2328
     6.2496   6.2498   6.2572   6.2612   6.2709   6.2713   6.2770   6.2802
     6.2851   6.2885   6.2936   6.2956   6.2981   6.3008   6.3033   6.3054
     6.3069   6.3093   6.3122   6.3154   6.3172   6.3249   6.3276   6.3299
     6.3621   6.3863   6.3963   6.3997   6.4063   6.4142   6.4452   6.4538
     6.5007   6.5047   6.5121   6.5199   6.5240   6.5274   6.5292   6.5352
     6.5427   6.5477   6.5497   6.5533   6.5574   6.5601   6.5608   6.5655
     6.5668   6.5798   6.5889   6.5962   6.5981   6.6011   6.6050   6.6067
     6.6074   6.6114   6.6162   6.6171   6.6246   6.6289   6.6318   6.6353
     6.6385   6.6443   6.6532   6.6574   6.6668   6.6796   6.6851   6.6963
     6.7171   6.7256   6.7292   6.7360   6.7373   6.7505   6.7539   6.7592
     6.7670   6.7739   6.7884   6.7916   6.8015   6.8050   6.8122   6.8173
     6.8267   6.8328   6.8402   6.8428   6.8564   6.8655   6.8771   6.8802
     6.8821   6.8845   6.8877   6.8926   6.8992   6.9019   6.9048   6.9208
     6.9246   6.9441   6.9641   6.9678   6.9771   6.9823   6.9850   6.9927
     6.9944   7.0050   7.0160   7.0213   7.0322   7.0387   7.0450   7.0497
     7.0665   7.0789   7.0799   7.0938   7.1065   7.1153   7.1334   7.1396
     7.1478   7.1675   7.1739   7.1853   7.1909   7.2035   7.2115   7.2165
     7.2183   7.2284   7.2288   7.2460   7.2482   7.2571   7.2632   7.2719
     7.2772   7.2835   7.2882   7.2949   7.3591   7.3813   7.3835   7.4023
     7.4411   7.4641   7.4823   7.5071   7.5091   7.5138   7.5175   7.5262
     7.5311   7.5391   7.5525   7.5548   7.5638   7.5669   7.5705   7.5759
     7.5823   7.5872   7.6022   7.6117   7.6299   7.6365   7.6487   7.6591
     7.6603   7.6965   7.7210   7.7278   7.7341   7.7437   7.7512   7.7595
     7.7720   7.7791   7.7837   7.7909   7.7961   7.8018   7.8124   7.8226
     7.8386   7.8473   7.8890   7.9006   7.9099   7.9149   7.9351   7.9405
     7.9438   7.9588   7.9677   7.9715   7.9767   7.9805   7.9947   8.0001
     8.0036   8.0051   8.0388   8.0523   8.0538   8.0581   8.0673   8.0723
     8.0815   8.0857   8.0988   8.1288   8.1368   8.1429   8.1449   8.1513
     8.1713   8.1740   8.1861   8.1864   8.1958   8.2024   8.2063   8.2148
     8.2277   8.2612   8.2738   8.2854   8.2963   8.2983   8.3042   8.3098
     8.3229   8.3416   8.3474   8.3802   8.3866   8.4287   8.4345   8.4431
     8.4498   8.4606   8.4626   8.4645   8.4803   8.4882   8.5108   8.5198
     8.5531   8.5809   8.5986   8.6100   8.6597   8.6723   8.6839   8.6858
     8.6926   8.7027   8.7074   8.7182   8.7613   8.7738   8.7785   8.7827
     8.7838   8.7851   8.7875   8.7882   8.7900   8.7933   8.7961   8.7967
     8.8025   8.8081   8.8117   8.8136   8.8156   8.8189   8.8214   8.8253
     8.8288   8.8293   8.8305   8.8318   8.8350   8.8385   8.8417   8.8453
     8.8466   8.8491   8.8517   8.8559   8.8594   8.8648   8.8681   8.8685
     8.8709   8.8735   8.8851   8.9013   8.9034   8.9089   8.9119   8.9188
     8.9271   8.9323   8.9342   8.9402   8.9560   8.9736   8.9760   8.9767
     8.9800   8.9847   8.9852   8.9939   9.0094   9.0114   9.0157   9.0185
     9.0215   9.0520   9.0564   9.0603   9.0630   9.0672   9.0682   9.0713
     9.0746   9.0753   9.0759   9.0774   9.0867   9.1229   9.1297   9.1515
     9.1570   9.1621   9.1734   9.1753   9.1773   9.1792   9.1808   9.1849
     9.1875   9.1880   9.1964   9.1993   9.2027   9.2158   9.2249   9.2326
     9.2462   9.2547   9.2568   9.2578   9.2627   9.2671   9.2694   9.2709
     9.2745   9.2816   9.2826   9.2862   9.2882   9.3042   9.3094   9.3250
     9.3286   9.3387   9.3554   9.3652   9.3715   9.3764   9.3841   9.3942
     9.3984   9.4021   9.4052   9.4071   9.4105   9.4147   9.4207   9.4215
     9.4246   9.4303   9.4454   9.4579   9.4590   9.4766   9.4916   9.5076
     9.5251   9.5401   9.5625   9.5857   9.5894   9.6083   9.6313   9.6346
     9.6417   9.7471   9.7558   9.8887   9.9910  10.0767  10.3080  10.3140
    10.4290  10.4468  10.4797  10.5169  10.5208  10.5343  10.5557  10.5571
    10.5903  10.6289  10.6428  10.6606  10.7051  10.7440  10.7517  10.7847

     the Fermi energy is     8.1864 ev

!    total energy              =  -42651.90791345 Ry

     total all-electron energy =   -335917.890823 Ry
     estimated scf accuracy    <          8.5E-09 Ry
     smearing contrib. (-TS)   =       0.00976060 Ry
     internal energy E=F+TS    =  -42651.91767404 Ry

     The total energy is F=E-TS. E is the sum of the following terms:
     one-electron contribution =  -98076.93849151 Ry
     hartree contribution      =   49553.07074115 Ry
     xc contribution           =   -3575.63824289 Ry
     ewald contribution        =   20300.39870188 Ry
     one-center paw contrib.   =  -10852.81038268 Ry

     total magnetization       =    -0.06 Bohr mag/cell
     absolute magnetization    =   229.51 Bohr mag/cell

     convergence has been achieved in  66 iterations

     negative rho (up, down):  1.710E-03 1.866E-03

     Forces acting on atoms (cartesian axes, Ry/au):

     atom    1 type  3   force =     0.01426224   -0.01460420    0.00946776
     atom    2 type  1   force =     0.00092144    0.00040879   -0.00135630
     atom    3 type  2   force =    -0.00219160    0.00109722   -0.00060297
     atom    4 type  1   force =     0.00002147    0.00334136   -0.00213222
     atom    5 type  2   force =    -0.00029583   -0.00256959   -0.00126897
     atom    6 type  1   force =     0.00131050   -0.00115485    0.00005550
     atom    7 type  2   force =    -0.00122203    0.00111480   -0.00013417
     atom    8 type  1   force =     0.00205404   -0.00021386    0.00114966
     atom    9 type  2   force =    -0.00195978    0.00036435    0.00113139
     atom   10 type  1   force =    -0.00366358    0.00219514   -0.00281413
     atom   11 type  2   force =    -0.00379873    0.00092657   -0.00213585
     atom   12 type  1   force =     0.00000299   -0.00242996   -0.00167035
     atom   13 type  2   force =     0.00036064   -0.00037859   -0.00136633
     atom   14 type  1   force =    -0.00237678    0.00106096    0.00382905
     atom   15 type  2   force =    -0.00225644    0.00014872   -0.00044445
     atom   16 type  1   force =     0.00011077    0.00021052    0.00061648
     atom   17 type  2   force =     0.00062647   -0.00066359   -0.00033918
     atom   18 type  1   force =    -0.00013707   -0.00005971    0.00007066
     atom   19 type  2   force =     0.00005857    0.00000644   -0.00001200
     atom   20 type  1   force =     0.00264126    0.00186747    0.00272395
     atom   21 type  2   force =    -0.00265806   -0.00186488    0.00278856
     atom   22 type  1   force =     0.00119510   -0.00008884    0.00117496
     atom   23 type  2   force =    -0.00105272    0.00042563    0.00093077
     atom   24 type  1   force =    -0.00008973   -0.00079817   -0.00204314
     atom   25 type  2   force =    -0.00000982    0.00110730   -0.00207347
     atom   26 type  1   force =     0.00362083   -0.00095276   -0.00208485
     atom   27 type  2   force =     0.00254469   -0.00003613   -0.00674661
     atom   28 type  1   force =    -0.00100907    0.00082467   -0.00176827
     atom   29 type  2   force =     0.00024784    0.00204400   -0.00185085
     atom   30 type  1   force =     0.00243688    0.00029366   -0.00085642
     atom   31 type  2   force =     0.00233520   -0.00084228    0.00337230
     atom   32 type  1   force =    -0.00064509    0.00082115   -0.00034732
     atom   33 type  2   force =    -0.00009407   -0.00017423    0.00041294
     atom   34 type  1   force =    -0.00017035   -0.00248225   -0.00671663
     atom   35 type  2   force =    -0.00165513   -0.00386878   -0.00036506
     atom   36 type  1   force =     0.00168691    0.00154650   -0.00209614
     atom   37 type  2   force =    -0.00068972   -0.00096198   -0.00689628
     atom   38 type  1   force =     0.00011050   -0.00080865    0.00246041
     atom   39 type  2   force =     0.00112022    0.00041801   -0.00165812
     atom   40 type  1   force =     0.00424056   -0.00081600    0.00022220
     atom   41 type  2   force =     0.00003195    0.00154195    0.00582860
     atom   42 type  1   force =    -0.00169788    0.00048885    0.00176969
     atom   43 type  2   force =    -0.00035267   -0.00104306   -0.00225505
     atom   44 type  1   force =    -0.00092906   -0.00293716   -0.00383808
     atom   45 type  2   force =    -0.00088039   -0.00240005    0.00218600
     atom   46 type  1   force =    -0.00396456    0.00196457   -0.00177362
     atom   47 type  2   force =    -0.00035126    0.00119393    0.00029503
     atom   48 type  1   force =     0.00072983    0.00191305    0.00492706
     atom   49 type  2   force =     0.00118221   -0.00184325    0.00169441
     atom   50 type  1   force =     0.00103936    0.00265471   -0.00259632
     atom   51 type  2   force =     0.00017827    0.00183501   -0.00333459
     atom   52 type  1   force =     0.00246943   -0.00278210   -0.00045607
     atom   53 type  2   force =     0.00140865    0.00151602    0.00379179
     atom   54 type  1   force =    -0.00354075    0.00172261    0.00118443
     atom   55 type  2   force =    -0.00240447   -0.00092182    0.00290390
     atom   56 type  1   force =    -0.00074940    0.00000997   -0.00014832
     atom   57 type  2   force =    -0.00008136    0.00015506   -0.00072451
     atom   58 type  1   force =     0.00135988    0.00360381   -0.00150968
     atom   59 type  2   force =    -0.00178031    0.00189326   -0.00065139
     atom   60 type  1   force =     0.00225189    0.00148954    0.00029373
     atom   61 type  2   force =    -0.00016260    0.00332966   -0.00459837
     atom   62 type  1   force =    -0.00365484   -0.00215961    0.00266921
     atom   63 type  2   force =    -0.00219312   -0.00326636    0.00058022
     atom   64 type  1   force =     0.00139121   -0.00016951    0.00049812
     atom   65 type  2   force =     0.00105390   -0.00111953    0.00013015
     atom   66 type  1   force =    -0.00098470    0.00004119    0.00119235
     atom   67 type  2   force =     0.00107115    0.00003209    0.00144240
     atom   68 type  1   force =    -0.00461924   -0.00061100   -0.00185575
     atom   69 type  2   force =     0.00478032    0.00052963   -0.00155251
     atom   70 type  1   force =    -0.00044589   -0.00171010   -0.00175025
     atom   71 type  2   force =     0.00016459    0.00186778   -0.00110192
     atom   72 type  1   force =     0.00014829   -0.00071920    0.00121017
     atom   73 type  2   force =    -0.00084630    0.00071107    0.00140197
     atom   74 type  1   force =     0.00074928    0.00252227    0.00021619
     atom   75 type  2   force =     0.00221530    0.00010585   -0.00003845
     atom   76 type  1   force =     0.00080365    0.00054541   -0.00235754
     atom   77 type  2   force =    -0.00169334    0.00024363   -0.00034722
     atom   78 type  1   force =     0.00287966    0.00132635   -0.00072796
     atom   79 type  2   force =    -0.00012393    0.00102951    0.00185187
     atom   80 type  1   force =    -0.00299984    0.00067678   -0.00131447
     atom   81 type  2   force =    -0.00139601   -0.00203425    0.00160449
     atom   82 type  1   force =    -0.00033708   -0.00079207   -0.00013257
     atom   83 type  2   force =     0.00025801    0.00089370   -0.00011077
     atom   84 type  1   force =    -0.00175749    0.00310988    0.00164033
     atom   85 type  2   force =     0.00154498   -0.00297513    0.00151939
     atom   86 type  1   force =     0.00017562    0.00120026    0.00374994
     atom   87 type  2   force =    -0.00044838   -0.00117995    0.00354834
     atom   88 type  1   force =     0.00113685   -0.00057330    0.00096112
     atom   89 type  2   force =    -0.00134017    0.00067093    0.00096328
     atom   90 type  1   force =    -0.00230896    0.00007919   -0.00008909
     atom   91 type  2   force =    -0.00065876   -0.00220488    0.00042902
     atom   92 type  1   force =     0.00153300   -0.00022241   -0.00034678
     atom   93 type  2   force =    -0.00083297   -0.00030735   -0.00265528
     atom   94 type  1   force =    -0.00021741   -0.00075790    0.00176536
     atom   95 type  2   force =    -0.00298000   -0.00150232   -0.00085834
     atom   96 type  1   force =     0.00112839    0.00228658    0.00151262
     atom   97 type  2   force =     0.00234948   -0.00066506   -0.00149236
     atom   98 type  1   force =     0.00210768    0.00395746   -0.00033149
     atom   99 type  2   force =    -0.00072371    0.00438313   -0.00243335
     atom  100 type  1   force =    -0.00121570    0.00133294   -0.00507682
     atom  101 type  2   force =    -0.00294338   -0.00132414   -0.00092003
     atom  102 type  1   force =    -0.00161328   -0.00040659   -0.00123324
     atom  103 type  2   force =    -0.00073513    0.00078040    0.00305305
     atom  104 type  1   force =    -0.00001898   -0.00146973    0.00572715
     atom  105 type  2   force =    -0.00433490    0.00092868    0.00047941
     atom  106 type  1   force =     0.00154813   -0.00141517   -0.00056121
     atom  107 type  2   force =    -0.00181217   -0.00362613   -0.00111745
     atom  108 type  1   force =    -0.00034321   -0.00240912   -0.00370936
     atom  109 type  2   force =    -0.00254330   -0.00112735    0.00073642
     atom  110 type  1   force =     0.00159705    0.00345114    0.00128394
     atom  111 type  2   force =     0.00318568    0.00248732    0.00325017
     atom  112 type  1   force =    -0.00106328    0.00116292    0.00033609
     atom  113 type  2   force =    -0.00169980    0.00030163    0.00072006
     atom  114 type  1   force =    -0.00017285   -0.00164660   -0.00325507
     atom  115 type  2   force =    -0.00114816   -0.00279683   -0.00250763
     atom  116 type  1   force =    -0.00153727   -0.00116023    0.00411311
     atom  117 type  2   force =    -0.00256022    0.00302597   -0.00065214
     atom  118 type  1   force =     0.00231378    0.00098427    0.00310807
     atom  119 type  2   force =     0.00346389   -0.00139707    0.00126853
     atom  120 type  1   force =    -0.00000872    0.00007285   -0.00068142
     atom  121 type  2   force =     0.00071751    0.00013992   -0.00010037
     atom  122 type  1   force =     0.00051618    0.00143068   -0.00225054
     atom  123 type  2   force =     0.00161911   -0.00083741    0.00147685
     atom  124 type  1   force =     0.00115508    0.00230220    0.00206931
     atom  125 type  2   force =     0.00056937    0.00293327   -0.00380113
     atom  126 type  1   force =     0.00029780   -0.00102797    0.00035640
     atom  127 type  2   force =     0.00392279   -0.00187628   -0.00162228
     atom  128 type  1   force =    -0.00099706    0.00205577    0.00161122
     atom  129 type  2   force =    -0.00077847   -0.00195064    0.00489325

     Total force =     0.044904     Total SCF correction =     0.000394


     Computing stress (Cartesian axis) and pressure


     negative rho (up, down):  1.710E-03 1.866E-03
          total   stress  (Ry/bohr**3)                   (kbar)     P=      -19.48
  -0.00014715   0.00000414  -0.00000605          -21.65        0.61       -0.89
   0.00000414  -0.00009866   0.00000526            0.61      -14.51        0.77
  -0.00000605   0.00000526  -0.00015156           -0.89        0.77      -22.30


     Writing output data file /scratch/bxp912/fepdslab07.save/
 
     init_run     :      9.07s CPU      9.59s WALL (       1 calls)
     electrons    :   1426.54s CPU   1497.22s WALL (       1 calls)
     forces       :      5.14s CPU      5.33s WALL (       1 calls)
     stress       :    114.23s CPU    114.91s WALL (       1 calls)

     Called by init_run:
     wfcinit      :      5.74s CPU      6.01s WALL (       1 calls)
     potinit      :      1.26s CPU      1.33s WALL (       1 calls)
     hinit0       :      1.16s CPU      1.21s WALL (       1 calls)

     Called by electrons:
     c_bands      :   1178.63s CPU   1232.58s WALL (      66 calls)
     sum_band     :    172.80s CPU    179.52s WALL (      66 calls)
     v_of_rho     :      9.64s CPU     10.36s WALL (      67 calls)
     newd         :     18.54s CPU     22.71s WALL (      67 calls)
     PAW_pot      :     39.99s CPU     41.00s WALL (      67 calls)
     mix_rho      :      6.12s CPU      6.62s WALL (      66 calls)

     Called by c_bands:
     init_us_2    :      6.98s CPU      7.09s WALL (     270 calls)
     regterg      :   1154.60s CPU   1176.27s WALL (     133 calls)

     Called by *egterg:
     rdiaghg      :    116.63s CPU    117.77s WALL (     689 calls)
     h_psi        :    473.99s CPU    480.46s WALL (     691 calls)
     s_psi        :     90.63s CPU     92.84s WALL (     691 calls)
     g_psi        :      1.69s CPU      1.71s WALL (     556 calls)

     Called by h_psi:
     h_psi:calbec :    118.17s CPU    119.06s WALL (     691 calls)
     vloc_psi     :    255.99s CPU    258.92s WALL (     691 calls)
     add_vuspsi   :     96.31s CPU     98.92s WALL (     691 calls)

     General routines
     calbec       :    177.52s CPU    178.89s WALL (     833 calls)
     fft          :      8.93s CPU      9.10s WALL (    1434 calls)
     ffts         :      2.64s CPU      2.72s WALL (    1381 calls)
     fftw         :    267.03s CPU    270.01s WALL (  426060 calls)
     interpolate  :      1.16s CPU      1.19s WALL (     134 calls)
 
     Parallel routines
     fft_scatt_xy :     35.41s CPU     35.74s WALL (  428875 calls)
     fft_scatt_yz :    180.71s CPU    182.98s WALL (  428875 calls)
 
     PWSCF        :  26m 1.10s CPU  27m14.77s WALL

 
   This run was terminated on:   3:38:27  22May2022            

=------------------------------------------------------------------------------=
   JOB DONE.
=------------------------------------------------------------------------------=
