
     Program PWSCF v.6.7MaX starts on 22May2022 at  3:38:32 

     This program is part of the open-source Quantum ESPRESSO suite
     for quantum simulation of materials; please cite
         "P. Giannozzi et al., J. Phys.:Condens. Matter 21 395502 (2009);
         "P. Giannozzi et al., J. Phys.:Condens. Matter 29 465901 (2017);
          URL http://www.quantum-espresso.org", 
     in publications or presentations arising from this work. More details at
     http://www.quantum-espresso.org/quote

     Parallel version (MPI & OpenMP), running on      72 processor cores
     Number of MPI processes:                72
     Threads/MPI process:                     1

     MPI processes distributed on     1 nodes
     R & G space division:  proc/nbgrp/npool/nimage =      72
     Reading input from fepdslab08.in
Warning: card &CELL ignored
Warning: card CELL_DYNAMICS = 'BFGS', ignored
Warning: card CELL_FACTOR = 2.0, ignored
Warning: card PRESS = 0.0, ignored
Warning: card / ignored

     Current dimensions of program PWSCF are:
     Max number of different atomic species (ntypx) = 10
     Max number of k-points (npk) =  40000
     Max angular momentum in pseudopotentials (lmaxx) =  3
     file Fe.pbe-spn-kjpaw_psl.1.0.0.UPF: wavefunction(s)  3P 3D renormalized
     file Fe.pbe-spn-kjpaw_psl.1.0.0.UPF: wavefunction(s)  3P 3D renormalized
     file Pd.pbe-spn-kjpaw_psl.1.0.0.UPF: wavefunction(s)  4S 5S 4D renormalized

     gamma-point specific algorithms are used

     Subspace diagonalization in iterative solution of the eigenvalue problem:
     one sub-group per band group will be used
     ELPA distributed-memory algorithm (size of sub-group:  8*  8 procs)

 
     Parallelization info
     --------------------
     sticks:   dense  smooth     PW     G-vecs:    dense   smooth      PW
     Min         333     220     53                38016    20412    2546
     Max         336     222     56                38038    20426    2560
     Sum       24049   15899   3985              2738239  1469969  183817
 


     bravais-lattice index     =            0
     lattice parameter (alat)  =      25.8600  a.u.
     unit-cell volume          =   18186.5006 (a.u.)^3
     number of atoms/cell      =          129
     number of atomic types    =            3
     number of electrons       =      2066.00
     number of Kohn-Sham states=         1240
     kinetic-energy cutoff     =      71.0000  Ry
     charge density cutoff     =     430.0000  Ry
     scf convergence threshold =      1.0E-08
     mixing beta               =       0.3000
     number of iterations used =           10  local-TF  mixing
     Exchange-correlation= SLA  PW   PBX  PBC
                           (   1   4   3   4   0   0   0)

     celldm(1)=  25.860000  celldm(2)=   0.000000  celldm(3)=   0.000000
     celldm(4)=   0.000000  celldm(5)=   0.000000  celldm(6)=   0.000000

     crystal axes: (cart. coord. in units of alat)
               a(1) = (   1.000000   0.000000   0.000000 )  
               a(2) = (   0.000000   1.051631   0.000000 )  
               a(3) = (   0.000000   0.000000   1.000000 )  

     reciprocal axes: (cart. coord. in units 2 pi/alat)
               b(1) = (  1.000000  0.000000  0.000000 )  
               b(2) = (  0.000000  0.950903  0.000000 )  
               b(3) = (  0.000000  0.000000  1.000000 )  


     PseudoPot. # 1 for Fe read from file:
     /rds/homes/b/bxp912/pp/Fe.pbe-spn-kjpaw_psl.1.0.0.UPF
     MD5 check sum: 42f43b795421b414b0dc916aa790dbcb
     Pseudo is Projector augmented-wave + core cor, Zval = 16.0
     Generated using &quot;atomic&quot; code by A. Dal Corso  v.6.3
     Shape of augmentation charge: PSQ
     Using radial grid of 1191 points,  6 beta functions with: 
                l(1) =   0
                l(2) =   0
                l(3) =   1
                l(4) =   1
                l(5) =   2
                l(6) =   2
     Q(r) pseudized with 0 coefficients 


     PseudoPot. # 2 for Fe read from file:
     /rds/homes/b/bxp912/pp/Fe.pbe-spn-kjpaw_psl.1.0.0.UPF
     MD5 check sum: 42f43b795421b414b0dc916aa790dbcb
     Pseudo is Projector augmented-wave + core cor, Zval = 16.0
     Generated using &quot;atomic&quot; code by A. Dal Corso  v.6.3
     Shape of augmentation charge: PSQ
     Using radial grid of 1191 points,  6 beta functions with: 
                l(1) =   0
                l(2) =   0
                l(3) =   1
                l(4) =   1
                l(5) =   2
                l(6) =   2
     Q(r) pseudized with 0 coefficients 


     PseudoPot. # 3 for Pd read from file:
     /rds/homes/b/bxp912/pp/Pd.pbe-spn-kjpaw_psl.1.0.0.UPF
     MD5 check sum: 790f2ebce206edfd9790dcb9844eca51
     Pseudo is Projector augmented-wave + core cor, Zval = 18.0
     Generated using &quot;atomic&quot; code by A. Dal Corso  v.6.3
     Shape of augmentation charge: PSQ
     Using radial grid of 1235 points,  6 beta functions with: 
                l(1) =   0
                l(2) =   0
                l(3) =   1
                l(4) =   1
                l(5) =   2
                l(6) =   2
     Q(r) pseudized with 0 coefficients 


     atomic species   valence    mass     pseudopotential
        Fe1           16.00    55.84500     Fe( 1.00)
        Fe2           16.00    55.84500     Fe( 1.00)
        Pd            18.00   106.42000     Pd( 1.00)

     Starting magnetic structure 
     atomic species   magnetization
        Fe1          0.100
        Fe2         -0.100
        Pd           0.001

     No symmetry found



   Cartesian axes

     site n.     atom                  positions (alat units)
         1           Pd  tau(   1) = (   0.1472617   0.1095808   0.1729704  )
         2           Fe1 tau(   2) = (   0.0587515   0.0653881   0.3211198  )
         3           Fe2 tau(   3) = (   0.1884265   0.2002713   0.3214448  )
         4           Fe1 tau(   4) = (   0.1868213   0.0655646   0.4421276  )
         5           Fe2 tau(   5) = (   0.0624952   0.1980629   0.4424469  )
         6           Fe1 tau(   6) = (   0.0623234   0.0655267   0.5697271  )
         7           Fe2 tau(   7) = (   0.1876610   0.1975943   0.5698145  )
         8           Fe1 tau(   8) = (   0.1882185   0.0650035   0.6879009  )
         9           Fe2 tau(   9) = (   0.0616632   0.1980291   0.6879420  )
        10           Fe1 tau(  10) = (   0.0653597   0.3265762   0.3172267  )
        11           Fe2 tau(  11) = (   0.1877413   0.4579090   0.3175394  )
        12           Fe1 tau(  12) = (   0.1881227   0.3296492   0.4412225  )
        13           Fe2 tau(  13) = (   0.0633903   0.4595175   0.4385688  )
        14           Fe1 tau(  14) = (   0.0628268   0.3296102   0.5678640  )
        15           Fe2 tau(  15) = (   0.1885537   0.4615096   0.5682187  )
        16           Fe1 tau(  16) = (   0.1887326   0.3305664   0.6874596  )
        17           Fe2 tau(  17) = (   0.0603308   0.4618776   0.6862421  )
        18           Fe1 tau(  18) = (   0.0648519   0.5907106   0.3145093  )
        19           Fe2 tau(  19) = (   0.1847510   0.7238107   0.3145456  )
        20           Fe1 tau(  20) = (   0.1863681   0.5909977   0.4371267  )
        21           Fe2 tau(  21) = (   0.0633682   0.7236125   0.4371464  )
        22           Fe1 tau(  22) = (   0.0615849   0.5918936   0.5662034  )
        23           Fe2 tau(  23) = (   0.1882586   0.7226899   0.5660552  )
        24           Fe1 tau(  24) = (   0.1887997   0.5925453   0.6861716  )
        25           Fe2 tau(  25) = (   0.0613274   0.7219977   0.6862125  )
        26           Fe1 tau(  26) = (   0.0618357   0.8560935   0.3172000  )
        27           Fe2 tau(  27) = (   0.1829530   0.9895025   0.3139428  )
        28           Fe1 tau(  28) = (   0.1862919   0.8555747   0.4379183  )
        29           Fe2 tau(  29) = (   0.0618572   0.9855343   0.4406165  )
        30           Fe1 tau(  30) = (   0.0613876   0.8531658   0.5679772  )
        31           Fe2 tau(  31) = (   0.1869233   0.9851356   0.5677120  )
        32           Fe1 tau(  32) = (   0.1896322   0.8527645   0.6860337  )
        33           Fe2 tau(  33) = (   0.0612834   0.9839846   0.6875207  )
        34           Fe1 tau(  34) = (   0.3076371   0.0696373   0.3122286  )
        35           Fe2 tau(  35) = (   0.4357117   0.1980603   0.3171939  )
        36           Fe1 tau(  36) = (   0.4341488   0.0657210   0.4341951  )
        37           Fe2 tau(  37) = (   0.3121648   0.1978698   0.4418603  )
        38           Fe1 tau(  38) = (   0.3124073   0.0653502   0.5666112  )
        39           Fe2 tau(  39) = (   0.4385533   0.1968925   0.5660486  )
        40           Fe1 tau(  40) = (   0.4380091   0.0657438   0.6859902  )
        41           Fe2 tau(  41) = (   0.3146724   0.1973275   0.6859048  )
        42           Fe1 tau(  42) = (   0.3112557   0.3275738   0.3170910  )
        43           Fe2 tau(  43) = (   0.4354886   0.4597974   0.3147106  )
        44           Fe1 tau(  44) = (   0.4374791   0.3293042   0.4369893  )
        45           Fe2 tau(  45) = (   0.3125364   0.4604356   0.4366549  )
        46           Fe1 tau(  46) = (   0.3141732   0.3293478   0.5679259  )
        47           Fe2 tau(  47) = (   0.4390386   0.4604040   0.5632767  )
        48           Fe1 tau(  48) = (   0.4403086   0.3292951   0.6845898  )
        49           Fe2 tau(  49) = (   0.3159177   0.4625217   0.6855273  )
        50           Fe1 tau(  50) = (   0.3083587   0.5903099   0.3147277  )
        51           Fe2 tau(  51) = (   0.4339295   0.7233087   0.3130231  )
        52           Fe1 tau(  52) = (   0.4358847   0.5924128   0.4322183  )
        53           Fe2 tau(  53) = (   0.3104159   0.7228918   0.4334436  )
        54           Fe1 tau(  54) = (   0.3142966   0.5918280   0.5641361  )
        55           Fe2 tau(  55) = (   0.4385180   0.7234213   0.5598951  )
        56           Fe1 tau(  56) = (   0.4419191   0.5923939   0.6824908  )
        57           Fe2 tau(  57) = (   0.3162141   0.7223454   0.6842751  )
        58           Fe1 tau(  58) = (   0.3074024   0.8548895   0.3147790  )
        59           Fe2 tau(  59) = (   0.4344514   0.9868630   0.3150403  )
        60           Fe1 tau(  60) = (   0.4356335   0.8547100   0.4315209  )
        61           Fe2 tau(  61) = (   0.3101231   0.9863643   0.4363794  )
        62           Fe1 tau(  62) = (   0.3137980   0.8546705   0.5632611  )
        63           Fe2 tau(  63) = (   0.4377077   0.9869231   0.5623578  )
        64           Fe1 tau(  64) = (   0.4393286   0.8535281   0.6828982  )
        65           Fe2 tau(  65) = (   0.3147963   0.9849942   0.6859368  )
        66           Fe1 tau(  66) = (   0.5616138   0.0664335   0.3146916  )
        67           Fe2 tau(  67) = (   0.6884049   0.1964824   0.3148346  )
        68           Fe1 tau(  68) = (   0.6885681   0.0663159   0.4352684  )
        69           Fe2 tau(  69) = (   0.5611411   0.1964240   0.4352748  )
        70           Fe1 tau(  70) = (   0.5619820   0.0659448   0.5635482  )
        71           Fe2 tau(  71) = (   0.6874432   0.1968268   0.5641102  )
        72           Fe1 tau(  72) = (   0.6855858   0.0654998   0.6850881  )
        73           Fe2 tau(  73) = (   0.5638040   0.1972169   0.6852842  )
        74           Fe1 tau(  74) = (   0.5607509   0.3265340   0.3139843  )
        75           Fe2 tau(  75) = (   0.6872354   0.4585088   0.3123752  )
        76           Fe1 tau(  76) = (   0.6875594   0.3276299   0.4335896  )
        77           Fe2 tau(  77) = (   0.5625961   0.4595520   0.4321368  )
        78           Fe1 tau(  78) = (   0.5632705   0.3282677   0.5635703  )
        79           Fe2 tau(  79) = (   0.6879817   0.4596075   0.5599214  )
        80           Fe1 tau(  80) = (   0.6882353   0.3288574   0.6849967  )
        81           Fe2 tau(  81) = (   0.5651853   0.4612490   0.6822433  )
        82           Fe1 tau(  82) = (   0.5612595   0.5916576   0.3122746  )
        83           Fe2 tau(  83) = (   0.6887743   0.7228831   0.3123244  )
        84           Fe1 tau(  84) = (   0.6883236   0.5904996   0.4294597  )
        85           Fe2 tau(  85) = (   0.5615383   0.7241508   0.4293434  )
        86           Fe1 tau(  86) = (   0.5630264   0.5915132   0.5576529  )
        87           Fe2 tau(  87) = (   0.6867405   0.7231521   0.5577775  )
        88           Fe1 tau(  88) = (   0.6857902   0.5920076   0.6805737  )
        89           Fe2 tau(  89) = (   0.5637901   0.7227363   0.6805291  )
        90           Fe1 tau(  90) = (   0.5626362   0.8561046   0.3121969  )
        91           Fe2 tau(  91) = (   0.6891343   0.9880418   0.3141519  )
        92           Fe1 tau(  92) = (   0.6872507   0.8551077   0.4321071  )
        93           Fe2 tau(  93) = (   0.5618631   0.9869943   0.4333065  )
        94           Fe1 tau(  94) = (   0.5617368   0.8550051   0.5596739  )
        95           Fe2 tau(  95) = (   0.6864801   0.9862486   0.5634570  )
        96           Fe1 tau(  96) = (   0.6844995   0.8533385   0.6820773  )
        97           Fe2 tau(  97) = (   0.5612864   0.9855678   0.6846505  )
        98           Fe1 tau(  98) = (   0.8145252   0.0648759   0.3171186  )
        99           Fe2 tau(  99) = (   0.9402188   0.1950601   0.3164839  )
       100           Fe1 tau( 100) = (   0.9374832   0.0651983   0.4423127  )
       101           Fe2 tau( 101) = (   0.8144773   0.1972618   0.4355587  )
       102           Fe1 tau( 102) = (   0.8110658   0.0658411   0.5663854  )
       103           Fe2 tau( 103) = (   0.9371201   0.1977054   0.5670544  )
       104           Fe1 tau( 104) = (   0.9352792   0.0655246   0.6857716  )
       105           Fe2 tau( 105) = (   0.8116171   0.1969980   0.6862948  )
       106           Fe1 tau( 106) = (   0.8150804   0.3280317   0.3151113  )
       107           Fe2 tau( 107) = (   0.9421429   0.4596402   0.3151684  )
       108           Fe1 tau( 108) = (   0.9387564   0.3287418   0.4373695  )
       109           Fe2 tau( 109) = (   0.8139475   0.4599326   0.4319884  )
       110           Fe1 tau( 110) = (   0.8116104   0.3277501   0.5631183  )
       111           Fe2 tau( 111) = (   0.9358814   0.4600430   0.5637519  )
       112           Fe1 tau( 112) = (   0.9349587   0.3296020   0.6860215  )
       113           Fe2 tau( 113) = (   0.8102864   0.4611700   0.6833021  )
       114           Fe1 tau( 114) = (   0.8159084   0.5911864   0.3130823  )
       115           Fe2 tau( 115) = (   0.9412610   0.7242602   0.3148148  )
       116           Fe1 tau( 116) = (   0.9393584   0.5917595   0.4337111  )
       117           Fe2 tau( 117) = (   0.8139347   0.7222047   0.4324709  )
       118           Fe1 tau( 118) = (   0.8112426   0.5912370   0.5601288  )
       119           Fe2 tau( 119) = (   0.9356265   0.7227141   0.5643328  )
       120           Fe1 tau( 120) = (   0.9336551   0.5923087   0.6844350  )
       121           Fe2 tau( 121) = (   0.8078635   0.7222525   0.6825759  )
       122           Fe1 tau( 122) = (   0.8143703   0.8548553   0.3146769  )
       123           Fe2 tau( 123) = (   0.9388847   0.9870538   0.3171989  )
       124           Fe1 tau( 124) = (   0.9373427   0.8541441   0.4366752  )
       125           Fe2 tau( 125) = (   0.8125994   0.9853090   0.4370552  )
       126           Fe1 tau( 126) = (   0.8108362   0.8541803   0.5632913  )
       127           Fe2 tau( 127) = (   0.9358746   0.9851837   0.5680012  )
       128           Fe1 tau( 128) = (   0.9341019   0.8520056   0.6853792  )
       129           Fe2 tau( 129) = (   0.8094919   0.9851394   0.6846363  )

     number of k points=     1  Marzari-Vanderbilt smearing, width (Ry)=  0.0400
                       cart. coord. in units 2pi/alat
        k(    1) = (   0.0000000   0.0000000   0.0000000), wk =   1.0000000

     Dense  grid:  1369120 G-vectors     FFT dimensions: ( 180, 180, 180)

     Smooth grid:   734985 G-vectors     FFT dimensions: ( 144, 150, 144)

     Estimated max dynamical RAM per process >     318.96 MB

     Estimated total dynamical RAM >      22.43 GB

     Check: negative core charge=   -0.000004
     Generating pointlists ...
     new r_m :   0.0707 (alat units)  1.8289 (a.u.) for type    1
     new r_m :   0.0709 (alat units)  1.8345 (a.u.) for type    2
     new r_m :   0.0735 (alat units)  1.9003 (a.u.) for type    3

     Initial potential from superposition of free atoms

     starting charge 2065.94361, renormalised to 2066.00000

     negative rho (up, down):  1.759E-04 1.759E-04
     Starting wfcs are 1290 randomized atomic wfcs
     Checking if some PAW data can be deallocated... 

     total cpu time spent up to now is       10.5 secs

     Self-consistent Calculation

     iteration #  1     ecut=    71.00 Ry     beta= 0.30
     Davidson diagonalization with overlap
     ethr =  1.00E-02,  avg # of iterations =  6.5

     negative rho (up, down):  1.137E+00 2.859E+00

     total cpu time spent up to now is       42.6 secs

     total energy              =  -42628.72026131 Ry
     estimated scf accuracy    <     718.08706370 Ry

     total magnetization       =    -3.08 Bohr mag/cell
     absolute magnetization    =   271.07 Bohr mag/cell

     iteration #  2     ecut=    71.00 Ry     beta= 0.30
     Davidson diagonalization with overlap
     ethr =  1.00E-02,  avg # of iterations =  3.5

     negative rho (up, down):  8.960E-01 2.201E+00

     total cpu time spent up to now is       64.9 secs

     total energy              =  -42639.15539070 Ry
     estimated scf accuracy    <     212.92021501 Ry

     total magnetization       =     1.61 Bohr mag/cell
     absolute magnetization    =   174.92 Bohr mag/cell

     iteration #  3     ecut=    71.00 Ry     beta= 0.30
     Davidson diagonalization with overlap
     ethr =  1.00E-02,  avg # of iterations =  1.5

     negative rho (up, down):  7.783E-01 1.917E+00

     total cpu time spent up to now is       83.9 secs

     total energy              =  -42650.40025863 Ry
     estimated scf accuracy    <     248.15121845 Ry

     total magnetization       =     0.70 Bohr mag/cell
     absolute magnetization    =   198.72 Bohr mag/cell

     iteration #  4     ecut=    71.00 Ry     beta= 0.30
     Davidson diagonalization with overlap
     ethr =  1.00E-02,  avg # of iterations =  1.0

     negative rho (up, down):  5.390E-01 1.338E+00

     total cpu time spent up to now is      102.2 secs

     total energy              =  -42651.40579239 Ry
     estimated scf accuracy    <      76.37670340 Ry

     total magnetization       =     0.25 Bohr mag/cell
     absolute magnetization    =   202.03 Bohr mag/cell

     iteration #  5     ecut=    71.00 Ry     beta= 0.30
     Davidson diagonalization with overlap
     ethr =  3.70E-03,  avg # of iterations =  1.0

     negative rho (up, down):  3.128E-01 7.675E-01

     total cpu time spent up to now is      119.9 secs

     total energy              =  -42651.84168257 Ry
     estimated scf accuracy    <      73.93671781 Ry

     total magnetization       =    -1.37 Bohr mag/cell
     absolute magnetization    =   206.83 Bohr mag/cell

     iteration #  6     ecut=    71.00 Ry     beta= 0.30
     Davidson diagonalization with overlap
     ethr =  3.58E-03,  avg # of iterations =  1.0

     negative rho (up, down):  5.822E-02 1.441E-01

     total cpu time spent up to now is      137.8 secs

     total energy              =  -42652.09986311 Ry
     estimated scf accuracy    <      43.46166178 Ry

     total magnetization       =    -1.37 Bohr mag/cell
     absolute magnetization    =   211.50 Bohr mag/cell

     iteration #  7     ecut=    71.00 Ry     beta= 0.30
     Davidson diagonalization with overlap
     ethr =  2.10E-03,  avg # of iterations =  1.5

     negative rho (up, down):  7.593E-03 1.470E-02

     total cpu time spent up to now is      157.3 secs

     total energy              =  -42652.05324739 Ry
     estimated scf accuracy    <      28.58751848 Ry

     total magnetization       =    -0.67 Bohr mag/cell
     absolute magnetization    =   218.28 Bohr mag/cell

     iteration #  8     ecut=    71.00 Ry     beta= 0.30
     Davidson diagonalization with overlap
     ethr =  1.38E-03,  avg # of iterations =  2.0

     negative rho (up, down):  7.894E-02 1.874E-01

     total cpu time spent up to now is      177.8 secs

     total energy              =  -42651.73573441 Ry
     estimated scf accuracy    <      11.11972034 Ry

     total magnetization       =    -1.02 Bohr mag/cell
     absolute magnetization    =   225.50 Bohr mag/cell

     iteration #  9     ecut=    71.00 Ry     beta= 0.30
     Davidson diagonalization with overlap
     ethr =  5.38E-04,  avg # of iterations =  2.5

     negative rho (up, down):  1.001E-01 2.425E-01

     total cpu time spent up to now is      198.9 secs

     total energy              =  -42651.75271655 Ry
     estimated scf accuracy    <       6.12552192 Ry

     total magnetization       =    -0.80 Bohr mag/cell
     absolute magnetization    =   229.53 Bohr mag/cell

     iteration # 10     ecut=    71.00 Ry     beta= 0.30
     Davidson diagonalization with overlap
     ethr =  2.96E-04,  avg # of iterations = 10.0

     negative rho (up, down):  3.492E-02 8.040E-02

     total cpu time spent up to now is      222.7 secs

     total energy              =  -42651.99644822 Ry
     estimated scf accuracy    <       3.59728663 Ry

     total magnetization       =    -0.28 Bohr mag/cell
     absolute magnetization    =   231.19 Bohr mag/cell

     iteration # 11     ecut=    71.00 Ry     beta= 0.30
     Davidson diagonalization with overlap
     ethr =  1.74E-04,  avg # of iterations = 10.5

     negative rho (up, down):  3.177E-03 5.071E-03

     total cpu time spent up to now is      246.3 secs

     total energy              =  -42652.09229846 Ry
     estimated scf accuracy    <       2.07598474 Ry

     total magnetization       =     0.19 Bohr mag/cell
     absolute magnetization    =   229.86 Bohr mag/cell

     iteration # 12     ecut=    71.00 Ry     beta= 0.30
     Davidson diagonalization with overlap
     c_bands:  3 eigenvalues not converged
     ethr =  1.00E-04,  avg # of iterations = 11.0

     negative rho (up, down):  1.323E-03 1.383E-03

     total cpu time spent up to now is      269.5 secs

     total energy              =  -42652.09270285 Ry
     estimated scf accuracy    <       1.09805285 Ry

     total magnetization       =     0.29 Bohr mag/cell
     absolute magnetization    =   228.59 Bohr mag/cell

     iteration # 13     ecut=    71.00 Ry     beta= 0.30
     Davidson diagonalization with overlap
     c_bands:  4 eigenvalues not converged
     ethr =  5.31E-05,  avg # of iterations = 11.0

     negative rho (up, down):  1.285E-03 1.361E-03

     total cpu time spent up to now is      293.5 secs

     total energy              =  -42652.04972136 Ry
     estimated scf accuracy    <       0.81916413 Ry

     total magnetization       =     0.45 Bohr mag/cell
     absolute magnetization    =   228.39 Bohr mag/cell

     iteration # 14     ecut=    71.00 Ry     beta= 0.30
     Davidson diagonalization with overlap
     ethr =  3.96E-05,  avg # of iterations =  6.0

     negative rho (up, down):  3.023E-03 3.520E-03

     total cpu time spent up to now is      315.5 secs

     total energy              =  -42651.94187195 Ry
     estimated scf accuracy    <       0.67540090 Ry

     total magnetization       =     0.48 Bohr mag/cell
     absolute magnetization    =   229.06 Bohr mag/cell

     iteration # 15     ecut=    71.00 Ry     beta= 0.30
     Davidson diagonalization with overlap
     ethr =  3.27E-05,  avg # of iterations =  3.5

     negative rho (up, down):  6.250E-03 6.489E-03

     total cpu time spent up to now is      337.0 secs

     total energy              =  -42651.91647123 Ry
     estimated scf accuracy    <       0.49055062 Ry

     total magnetization       =     0.63 Bohr mag/cell
     absolute magnetization    =   229.53 Bohr mag/cell

     iteration # 16     ecut=    71.00 Ry     beta= 0.30
     Davidson diagonalization with overlap
     c_bands:  3 eigenvalues not converged
     ethr =  2.37E-05,  avg # of iterations = 11.0

     negative rho (up, down):  1.454E-03 1.478E-03

     total cpu time spent up to now is      360.7 secs

     total energy              =  -42651.90742203 Ry
     estimated scf accuracy    <       0.41692287 Ry

     total magnetization       =     0.69 Bohr mag/cell
     absolute magnetization    =   229.50 Bohr mag/cell

     iteration # 17     ecut=    71.00 Ry     beta= 0.30
     Davidson diagonalization with overlap
     ethr =  2.02E-05,  avg # of iterations =  9.5

     negative rho (up, down):  4.245E-03 3.932E-03

     total cpu time spent up to now is      382.6 secs

     total energy              =  -42651.88421459 Ry
     estimated scf accuracy    <       0.28541357 Ry

     total magnetization       =     0.58 Bohr mag/cell
     absolute magnetization    =   229.14 Bohr mag/cell

     iteration # 18     ecut=    71.00 Ry     beta= 0.30
     Davidson diagonalization with overlap
     c_bands:  3 eigenvalues not converged
     ethr =  1.38E-05,  avg # of iterations = 10.5

     negative rho (up, down):  2.903E-02 2.795E-02

     total cpu time spent up to now is      405.5 secs

     total energy              =  -42651.83380455 Ry
     estimated scf accuracy    <       0.24569158 Ry

     total magnetization       =     0.40 Bohr mag/cell
     absolute magnetization    =   228.95 Bohr mag/cell

     iteration # 19     ecut=    71.00 Ry     beta= 0.30
     Davidson diagonalization with overlap
     ethr =  1.19E-05,  avg # of iterations =  7.0

     negative rho (up, down):  8.409E-03 7.846E-03

     total cpu time spent up to now is      428.2 secs

     total energy              =  -42651.85171846 Ry
     estimated scf accuracy    <       0.25083846 Ry

     total magnetization       =     0.17 Bohr mag/cell
     absolute magnetization    =   228.11 Bohr mag/cell

     iteration # 20     ecut=    71.00 Ry     beta= 0.30
     Davidson diagonalization with overlap
     ethr =  1.19E-05,  avg # of iterations =  1.0

     negative rho (up, down):  1.211E-01 1.204E-01

     total cpu time spent up to now is      445.8 secs

     total energy              =  -42651.84885849 Ry
     estimated scf accuracy    <       0.17044156 Ry

     total magnetization       =     0.32 Bohr mag/cell
     absolute magnetization    =   228.36 Bohr mag/cell

     iteration # 21     ecut=    71.00 Ry     beta= 0.30
     Davidson diagonalization with overlap
     ethr =  8.25E-06,  avg # of iterations = 14.0

     negative rho (up, down):  9.862E-02 9.817E-02

     total cpu time spent up to now is      472.3 secs

     total energy              =  -42651.85990561 Ry
     estimated scf accuracy    <       0.07649450 Ry

     total magnetization       =     0.15 Bohr mag/cell
     absolute magnetization    =   228.30 Bohr mag/cell

     iteration # 22     ecut=    71.00 Ry     beta= 0.30
     Davidson diagonalization with overlap
     ethr =  3.70E-06,  avg # of iterations =  2.0

     negative rho (up, down):  4.420E-02 4.378E-02

     total cpu time spent up to now is      493.2 secs

     total energy              =  -42651.86599701 Ry
     estimated scf accuracy    <       0.04523374 Ry

     total magnetization       =     0.05 Bohr mag/cell
     absolute magnetization    =   228.20 Bohr mag/cell

     iteration # 23     ecut=    71.00 Ry     beta= 0.30
     Davidson diagonalization with overlap
     c_bands:  2 eigenvalues not converged
     ethr =  2.19E-06,  avg # of iterations = 16.5

     negative rho (up, down):  3.542E-02 3.493E-02

     total cpu time spent up to now is      518.7 secs

     total energy              =  -42651.87617932 Ry
     estimated scf accuracy    <       0.03973565 Ry

     total magnetization       =    -0.01 Bohr mag/cell
     absolute magnetization    =   228.20 Bohr mag/cell

     iteration # 24     ecut=    71.00 Ry     beta= 0.30
     Davidson diagonalization with overlap
     ethr =  1.92E-06,  avg # of iterations =  9.5

     negative rho (up, down):  2.637E-02 2.593E-02

     total cpu time spent up to now is      541.6 secs

     total energy              =  -42651.88711660 Ry
     estimated scf accuracy    <       0.02116928 Ry

     total magnetization       =    -0.06 Bohr mag/cell
     absolute magnetization    =   228.29 Bohr mag/cell

     iteration # 25     ecut=    71.00 Ry     beta= 0.30
     Davidson diagonalization with overlap
     ethr =  1.02E-06,  avg # of iterations =  2.0

     negative rho (up, down):  1.266E-02 1.244E-02

     total cpu time spent up to now is      562.6 secs

     total energy              =  -42651.90054834 Ry
     estimated scf accuracy    <       0.01385722 Ry

     total magnetization       =    -0.09 Bohr mag/cell
     absolute magnetization    =   228.48 Bohr mag/cell

     iteration # 26     ecut=    71.00 Ry     beta= 0.30
     Davidson diagonalization with overlap
     ethr =  6.71E-07,  avg # of iterations =  2.5

     negative rho (up, down):  1.292E-02 1.267E-02

     total cpu time spent up to now is      584.5 secs

     total energy              =  -42651.90733726 Ry
     estimated scf accuracy    <       0.01271230 Ry

     total magnetization       =    -0.10 Bohr mag/cell
     absolute magnetization    =   228.63 Bohr mag/cell

     iteration # 27     ecut=    71.00 Ry     beta= 0.30
     Davidson diagonalization with overlap
     c_bands:  2 eigenvalues not converged
     ethr =  6.15E-07,  avg # of iterations = 11.5

     negative rho (up, down):  1.217E-02 1.192E-02

     total cpu time spent up to now is      609.4 secs

     total energy              =  -42651.90830500 Ry
     estimated scf accuracy    <       0.00352115 Ry

     total magnetization       =    -0.07 Bohr mag/cell
     absolute magnetization    =   228.92 Bohr mag/cell

     iteration # 28     ecut=    71.00 Ry     beta= 0.30
     Davidson diagonalization with overlap
     c_bands:  1 eigenvalues not converged
     ethr =  1.70E-07,  avg # of iterations = 11.0

     negative rho (up, down):  1.070E-02 1.048E-02

     total cpu time spent up to now is      632.9 secs

     total energy              =  -42651.90878197 Ry
     estimated scf accuracy    <       0.00189480 Ry

     total magnetization       =    -0.09 Bohr mag/cell
     absolute magnetization    =   228.95 Bohr mag/cell

     iteration # 29     ecut=    71.00 Ry     beta= 0.30
     Davidson diagonalization with overlap
     ethr =  9.17E-08,  avg # of iterations =  2.0

     negative rho (up, down):  1.059E-02 1.037E-02

     total cpu time spent up to now is      654.1 secs

     total energy              =  -42651.90930816 Ry
     estimated scf accuracy    <       0.00149621 Ry

     total magnetization       =    -0.08 Bohr mag/cell
     absolute magnetization    =   229.00 Bohr mag/cell

     iteration # 30     ecut=    71.00 Ry     beta= 0.30
     Davidson diagonalization with overlap
     ethr =  7.24E-08,  avg # of iterations =  2.0

     negative rho (up, down):  9.110E-03 8.935E-03

     total cpu time spent up to now is      675.0 secs

     total energy              =  -42651.91003325 Ry
     estimated scf accuracy    <       0.00129348 Ry

     total magnetization       =    -0.07 Bohr mag/cell
     absolute magnetization    =   229.04 Bohr mag/cell

     iteration # 31     ecut=    71.00 Ry     beta= 0.30
     Davidson diagonalization with overlap
     ethr =  6.26E-08,  avg # of iterations =  2.0

     negative rho (up, down):  8.632E-03 8.496E-03

     total cpu time spent up to now is      696.7 secs

     total energy              =  -42651.91058927 Ry
     estimated scf accuracy    <       0.00093289 Ry

     total magnetization       =    -0.07 Bohr mag/cell
     absolute magnetization    =   229.12 Bohr mag/cell

     iteration # 32     ecut=    71.00 Ry     beta= 0.30
     Davidson diagonalization with overlap
     ethr =  4.52E-08,  avg # of iterations =  2.5

     negative rho (up, down):  8.554E-03 8.436E-03

     total cpu time spent up to now is      717.9 secs

     total energy              =  -42651.91082595 Ry
     estimated scf accuracy    <       0.00069927 Ry

     total magnetization       =    -0.07 Bohr mag/cell
     absolute magnetization    =   229.20 Bohr mag/cell

     iteration # 33     ecut=    71.00 Ry     beta= 0.30
     Davidson diagonalization with overlap
     ethr =  3.38E-08,  avg # of iterations =  2.0

     negative rho (up, down):  6.615E-03 6.539E-03

     total cpu time spent up to now is      738.8 secs

     total energy              =  -42651.91082143 Ry
     estimated scf accuracy    <       0.00055940 Ry

     total magnetization       =    -0.06 Bohr mag/cell
     absolute magnetization    =   229.25 Bohr mag/cell

     iteration # 34     ecut=    71.00 Ry     beta= 0.30
     Davidson diagonalization with overlap
     ethr =  2.71E-08,  avg # of iterations =  3.0

     negative rho (up, down):  4.540E-03 4.532E-03

     total cpu time spent up to now is      760.1 secs

     total energy              =  -42651.91075952 Ry
     estimated scf accuracy    <       0.00044504 Ry

     total magnetization       =    -0.05 Bohr mag/cell
     absolute magnetization    =   229.31 Bohr mag/cell

     iteration # 35     ecut=    71.00 Ry     beta= 0.30
     Davidson diagonalization with overlap
     ethr =  2.15E-08,  avg # of iterations =  2.0

     negative rho (up, down):  3.278E-03 3.378E-03

     total cpu time spent up to now is      783.1 secs

     total energy              =  -42651.91083336 Ry
     estimated scf accuracy    <       0.00040904 Ry

     total magnetization       =    -0.05 Bohr mag/cell
     absolute magnetization    =   229.37 Bohr mag/cell

     iteration # 36     ecut=    71.00 Ry     beta= 0.30
     Davidson diagonalization with overlap
     ethr =  1.98E-08,  avg # of iterations =  3.5

     negative rho (up, down):  2.953E-03 3.075E-03

     total cpu time spent up to now is      806.6 secs

     total energy              =  -42651.91087517 Ry
     estimated scf accuracy    <       0.00030212 Ry

     total magnetization       =    -0.05 Bohr mag/cell
     absolute magnetization    =   229.45 Bohr mag/cell

     iteration # 37     ecut=    71.00 Ry     beta= 0.30
     Davidson diagonalization with overlap
     ethr =  1.46E-08,  avg # of iterations =  2.0

     negative rho (up, down):  3.015E-03 3.164E-03

     total cpu time spent up to now is      827.6 secs

     total energy              =  -42651.91097222 Ry
     estimated scf accuracy    <       0.00026784 Ry

     total magnetization       =    -0.04 Bohr mag/cell
     absolute magnetization    =   229.47 Bohr mag/cell

     iteration # 38     ecut=    71.00 Ry     beta= 0.30
     Davidson diagonalization with overlap
     ethr =  1.30E-08,  avg # of iterations =  4.0

     negative rho (up, down):  3.769E-03 3.929E-03

     total cpu time spent up to now is      849.8 secs

     total energy              =  -42651.91103188 Ry
     estimated scf accuracy    <       0.00021608 Ry

     total magnetization       =    -0.05 Bohr mag/cell
     absolute magnetization    =   229.53 Bohr mag/cell

     iteration # 39     ecut=    71.00 Ry     beta= 0.30
     Davidson diagonalization with overlap
     ethr =  1.05E-08,  avg # of iterations =  3.0

     negative rho (up, down):  4.208E-03 4.367E-03

     total cpu time spent up to now is      872.1 secs

     total energy              =  -42651.91104711 Ry
     estimated scf accuracy    <       0.00012831 Ry

     total magnetization       =    -0.06 Bohr mag/cell
     absolute magnetization    =   229.58 Bohr mag/cell

     iteration # 40     ecut=    71.00 Ry     beta= 0.30
     Davidson diagonalization with overlap
     ethr =  6.21E-09,  avg # of iterations =  2.0

     negative rho (up, down):  3.463E-03 3.620E-03

     total cpu time spent up to now is      893.4 secs

     total energy              =  -42651.91107050 Ry
     estimated scf accuracy    <       0.00004679 Ry

     total magnetization       =    -0.05 Bohr mag/cell
     absolute magnetization    =   229.60 Bohr mag/cell

     iteration # 41     ecut=    71.00 Ry     beta= 0.30
     Davidson diagonalization with overlap
     ethr =  2.26E-09,  avg # of iterations =  2.0

     negative rho (up, down):  3.184E-03 3.339E-03

     total cpu time spent up to now is      914.5 secs

     total energy              =  -42651.91108088 Ry
     estimated scf accuracy    <       0.00003591 Ry

     total magnetization       =    -0.05 Bohr mag/cell
     absolute magnetization    =   229.60 Bohr mag/cell

     iteration # 42     ecut=    71.00 Ry     beta= 0.30
     Davidson diagonalization with overlap
     ethr =  1.74E-09,  avg # of iterations =  2.0

     negative rho (up, down):  1.695E-03 1.849E-03

     total cpu time spent up to now is      935.4 secs

     total energy              =  -42651.91113149 Ry
     estimated scf accuracy    <       0.00003368 Ry

     total magnetization       =    -0.06 Bohr mag/cell
     absolute magnetization    =   229.59 Bohr mag/cell

     iteration # 43     ecut=    71.00 Ry     beta= 0.30
     Davidson diagonalization with overlap
     ethr =  1.63E-09,  avg # of iterations =  5.0

     negative rho (up, down):  1.596E-03 1.749E-03

     total cpu time spent up to now is      960.7 secs

     total energy              =  -42651.91113770 Ry
     estimated scf accuracy    <       0.00002046 Ry

     total magnetization       =    -0.06 Bohr mag/cell
     absolute magnetization    =   229.58 Bohr mag/cell

     iteration # 44     ecut=    71.00 Ry     beta= 0.30
     Davidson diagonalization with overlap
     ethr =  9.90E-10,  avg # of iterations =  2.0

     negative rho (up, down):  1.436E-03 1.590E-03

     total cpu time spent up to now is      981.5 secs

     total energy              =  -42651.91113120 Ry
     estimated scf accuracy    <       0.00001080 Ry

     total magnetization       =    -0.06 Bohr mag/cell
     absolute magnetization    =   229.58 Bohr mag/cell

     iteration # 45     ecut=    71.00 Ry     beta= 0.30
     Davidson diagonalization with overlap
     ethr =  5.23E-10,  avg # of iterations =  5.0

     negative rho (up, down):  1.338E-03 1.492E-03

     total cpu time spent up to now is     1004.7 secs

     total energy              =  -42651.91112134 Ry
     estimated scf accuracy    <       0.00000905 Ry

     total magnetization       =    -0.05 Bohr mag/cell
     absolute magnetization    =   229.57 Bohr mag/cell

     iteration # 46     ecut=    71.00 Ry     beta= 0.30
     Davidson diagonalization with overlap
     ethr =  4.38E-10,  avg # of iterations =  4.0

     negative rho (up, down):  1.322E-03 1.476E-03

     total cpu time spent up to now is     1026.9 secs

     total energy              =  -42651.91112239 Ry
     estimated scf accuracy    <       0.00000593 Ry

     total magnetization       =    -0.05 Bohr mag/cell
     absolute magnetization    =   229.56 Bohr mag/cell

     iteration # 47     ecut=    71.00 Ry     beta= 0.30
     Davidson diagonalization with overlap
     ethr =  2.87E-10,  avg # of iterations =  2.0

     negative rho (up, down):  1.312E-03 1.466E-03

     total cpu time spent up to now is     1047.3 secs

     total energy              =  -42651.91112400 Ry
     estimated scf accuracy    <       0.00000552 Ry

     total magnetization       =    -0.06 Bohr mag/cell
     absolute magnetization    =   229.56 Bohr mag/cell

     iteration # 48     ecut=    71.00 Ry     beta= 0.30
     Davidson diagonalization with overlap
     ethr =  2.67E-10,  avg # of iterations =  2.0

     negative rho (up, down):  1.334E-03 1.488E-03

     total cpu time spent up to now is     1068.4 secs

     total energy              =  -42651.91113249 Ry
     estimated scf accuracy    <       0.00000447 Ry

     total magnetization       =    -0.05 Bohr mag/cell
     absolute magnetization    =   229.55 Bohr mag/cell

     iteration # 49     ecut=    71.00 Ry     beta= 0.30
     Davidson diagonalization with overlap
     ethr =  2.16E-10,  avg # of iterations =  4.0

     negative rho (up, down):  1.451E-03 1.604E-03

     total cpu time spent up to now is     1090.8 secs

     total energy              =  -42651.91115055 Ry
     estimated scf accuracy    <       0.00000361 Ry

     total magnetization       =    -0.05 Bohr mag/cell
     absolute magnetization    =   229.54 Bohr mag/cell

     iteration # 50     ecut=    71.00 Ry     beta= 0.30
     Davidson diagonalization with overlap
     ethr =  1.75E-10,  avg # of iterations =  5.0

     negative rho (up, down):  1.491E-03 1.645E-03

     total cpu time spent up to now is     1115.3 secs

     total energy              =  -42651.91115490 Ry
     estimated scf accuracy    <       0.00000197 Ry

     total magnetization       =    -0.05 Bohr mag/cell
     absolute magnetization    =   229.53 Bohr mag/cell

     iteration # 51     ecut=    71.00 Ry     beta= 0.30
     Davidson diagonalization with overlap
     ethr =  9.55E-11,  avg # of iterations =  4.0

     negative rho (up, down):  1.575E-03 1.728E-03

     total cpu time spent up to now is     1137.2 secs

     total energy              =  -42651.91116017 Ry
     estimated scf accuracy    <       0.00000163 Ry

     total magnetization       =    -0.05 Bohr mag/cell
     absolute magnetization    =   229.53 Bohr mag/cell

     iteration # 52     ecut=    71.00 Ry     beta= 0.30
     Davidson diagonalization with overlap
     ethr =  7.90E-11,  avg # of iterations =  4.0

     negative rho (up, down):  1.621E-03 1.774E-03

     total cpu time spent up to now is     1160.4 secs

     total energy              =  -42651.91116213 Ry
     estimated scf accuracy    <       0.00000094 Ry

     total magnetization       =    -0.05 Bohr mag/cell
     absolute magnetization    =   229.53 Bohr mag/cell

     iteration # 53     ecut=    71.00 Ry     beta= 0.30
     Davidson diagonalization with overlap
     ethr =  4.55E-11,  avg # of iterations =  4.0

     negative rho (up, down):  1.669E-03 1.823E-03

     total cpu time spent up to now is     1183.8 secs

     total energy              =  -42651.91116361 Ry
     estimated scf accuracy    <       0.00000085 Ry

     total magnetization       =    -0.05 Bohr mag/cell
     absolute magnetization    =   229.53 Bohr mag/cell

     iteration # 54     ecut=    71.00 Ry     beta= 0.30
     Davidson diagonalization with overlap
     ethr =  4.11E-11,  avg # of iterations =  4.0

     negative rho (up, down):  1.691E-03 1.845E-03

     total cpu time spent up to now is     1206.7 secs

     total energy              =  -42651.91116470 Ry
     estimated scf accuracy    <       0.00000057 Ry

     total magnetization       =    -0.05 Bohr mag/cell
     absolute magnetization    =   229.53 Bohr mag/cell

     iteration # 55     ecut=    71.00 Ry     beta= 0.30
     Davidson diagonalization with overlap
     ethr =  2.77E-11,  avg # of iterations =  4.0

     negative rho (up, down):  1.716E-03 1.870E-03

     total cpu time spent up to now is     1228.4 secs

     total energy              =  -42651.91116569 Ry
     estimated scf accuracy    <       0.00000045 Ry

     total magnetization       =    -0.05 Bohr mag/cell
     absolute magnetization    =   229.53 Bohr mag/cell

     iteration # 56     ecut=    71.00 Ry     beta= 0.30
     Davidson diagonalization with overlap
     ethr =  2.16E-11,  avg # of iterations =  4.5

     negative rho (up, down):  1.739E-03 1.894E-03

     total cpu time spent up to now is     1252.6 secs

     total energy              =  -42651.91116581 Ry
     estimated scf accuracy    <       0.00000029 Ry

     total magnetization       =    -0.05 Bohr mag/cell
     absolute magnetization    =   229.53 Bohr mag/cell

     iteration # 57     ecut=    71.00 Ry     beta= 0.30
     Davidson diagonalization with overlap
     ethr =  1.42E-11,  avg # of iterations =  3.5

     negative rho (up, down):  1.743E-03 1.897E-03

     total cpu time spent up to now is     1274.6 secs

     total energy              =  -42651.91116606 Ry
     estimated scf accuracy    <       0.00000021 Ry

     total magnetization       =    -0.05 Bohr mag/cell
     absolute magnetization    =   229.53 Bohr mag/cell

     iteration # 58     ecut=    71.00 Ry     beta= 0.30
     Davidson diagonalization with overlap
     ethr =  1.01E-11,  avg # of iterations =  4.0

     negative rho (up, down):  1.733E-03 1.887E-03

     total cpu time spent up to now is     1297.8 secs

     total energy              =  -42651.91116622 Ry
     estimated scf accuracy    <       0.00000014 Ry

     total magnetization       =    -0.05 Bohr mag/cell
     absolute magnetization    =   229.53 Bohr mag/cell

     iteration # 59     ecut=    71.00 Ry     beta= 0.30
     Davidson diagonalization with overlap
     ethr =  6.78E-12,  avg # of iterations =  5.0

     negative rho (up, down):  1.728E-03 1.882E-03

     total cpu time spent up to now is     1320.6 secs

     total energy              =  -42651.91116628 Ry
     estimated scf accuracy    <       0.00000008 Ry

     total magnetization       =    -0.05 Bohr mag/cell
     absolute magnetization    =   229.53 Bohr mag/cell

     iteration # 60     ecut=    71.00 Ry     beta= 0.30
     Davidson diagonalization with overlap
     ethr =  3.82E-12,  avg # of iterations =  2.0

     negative rho (up, down):  1.710E-03 1.864E-03

     total cpu time spent up to now is     1341.7 secs

     total energy              =  -42651.91116632 Ry
     estimated scf accuracy    <       0.00000007 Ry

     total magnetization       =    -0.05 Bohr mag/cell
     absolute magnetization    =   229.53 Bohr mag/cell

     iteration # 61     ecut=    71.00 Ry     beta= 0.30
     Davidson diagonalization with overlap
     ethr =  3.26E-12,  avg # of iterations =  5.0

     negative rho (up, down):  1.707E-03 1.861E-03

     total cpu time spent up to now is     1366.1 secs

     total energy              =  -42651.91116635 Ry
     estimated scf accuracy    <       0.00000004 Ry

     total magnetization       =    -0.05 Bohr mag/cell
     absolute magnetization    =   229.53 Bohr mag/cell

     iteration # 62     ecut=    71.00 Ry     beta= 0.30
     Davidson diagonalization with overlap
     ethr =  1.93E-12,  avg # of iterations =  2.0

     negative rho (up, down):  1.694E-03 1.848E-03

     total cpu time spent up to now is     1387.7 secs

     total energy              =  -42651.91116631 Ry
     estimated scf accuracy    <       0.00000003 Ry

     total magnetization       =    -0.05 Bohr mag/cell
     absolute magnetization    =   229.53 Bohr mag/cell

     iteration # 63     ecut=    71.00 Ry     beta= 0.30
     Davidson diagonalization with overlap
     ethr =  1.58E-12,  avg # of iterations =  4.5

     negative rho (up, down):  1.694E-03 1.848E-03

     total cpu time spent up to now is     1410.9 secs

     total energy              =  -42651.91116633 Ry
     estimated scf accuracy    <       0.00000002 Ry

     total magnetization       =    -0.05 Bohr mag/cell
     absolute magnetization    =   229.53 Bohr mag/cell

     iteration # 64     ecut=    71.00 Ry     beta= 0.30
     Davidson diagonalization with overlap
     ethr =  9.24E-13,  avg # of iterations =  2.0

     negative rho (up, down):  1.693E-03 1.847E-03

     total cpu time spent up to now is     1432.2 secs

     total energy              =  -42651.91116635 Ry
     estimated scf accuracy    <       0.00000002 Ry

     total magnetization       =    -0.05 Bohr mag/cell
     absolute magnetization    =   229.53 Bohr mag/cell

     iteration # 65     ecut=    71.00 Ry     beta= 0.30
     Davidson diagonalization with overlap
     ethr =  8.34E-13,  avg # of iterations =  3.5

     negative rho (up, down):  1.694E-03 1.848E-03

     total cpu time spent up to now is     1454.7 secs

     total energy              =  -42651.91116638 Ry
     estimated scf accuracy    <       0.00000001 Ry

     total magnetization       =    -0.05 Bohr mag/cell
     absolute magnetization    =   229.53 Bohr mag/cell

     iteration # 66     ecut=    71.00 Ry     beta= 0.30
     Davidson diagonalization with overlap
     ethr =  5.93E-13,  avg # of iterations =  5.0

     negative rho (up, down):  1.709E-03 1.863E-03
 
     Magnetic moment per site:
     atom:    1    charge:   15.6235    magn:   -0.0019    constr:    0.0000
     atom:    2    charge:   14.1481    magn:    2.0178    constr:    0.0000
     atom:    3    charge:   14.1659    magn:   -2.0287    constr:    0.0000
     atom:    4    charge:   14.2061    magn:    1.4116    constr:    0.0000
     atom:    5    charge:   14.2342    magn:   -1.3312    constr:    0.0000
     atom:    6    charge:   14.2303    magn:    0.9400    constr:    0.0000
     atom:    7    charge:   14.2500    magn:   -0.9080    constr:    0.0000
     atom:    8    charge:   14.0998    magn:    2.3144    constr:    0.0000
     atom:    9    charge:   14.1157    magn:   -2.3191    constr:    0.0000
     atom:   10    charge:   14.1084    magn:    2.2291    constr:    0.0000
     atom:   11    charge:   14.1384    magn:   -2.1567    constr:    0.0000
     atom:   12    charge:   14.2262    magn:    1.1213    constr:    0.0000
     atom:   13    charge:   14.2380    magn:   -1.2275    constr:    0.0000
     atom:   14    charge:   14.2245    magn:    0.9679    constr:    0.0000
     atom:   15    charge:   14.2417    magn:   -0.9425    constr:    0.0000
     atom:   16    charge:   14.0986    magn:    2.3161    constr:    0.0000
     atom:   17    charge:   14.1160    magn:   -2.3016    constr:    0.0000
     atom:   18    charge:   14.1109    magn:    2.2175    constr:    0.0000
     atom:   19    charge:   14.1292    magn:   -2.2106    constr:    0.0000
     atom:   20    charge:   14.2182    magn:    1.2127    constr:    0.0000
     atom:   21    charge:   14.2375    magn:   -1.2057    constr:    0.0000
     atom:   22    charge:   14.2171    magn:    1.0375    constr:    0.0000
     atom:   23    charge:   14.2350    magn:   -1.0608    constr:    0.0000
     atom:   24    charge:   14.1025    magn:    2.2819    constr:    0.0000
     atom:   25    charge:   14.1185    magn:   -2.2873    constr:    0.0000
     atom:   26    charge:   14.1211    magn:    2.1528    constr:    0.0000
     atom:   27    charge:   14.1027    magn:   -2.2958    constr:    0.0000
     atom:   28    charge:   14.2150    magn:    1.2646    constr:    0.0000
     atom:   29    charge:   14.2377    magn:   -1.2323    constr:    0.0000
     atom:   30    charge:   14.2215    magn:    0.9452    constr:    0.0000
     atom:   31    charge:   14.2438    magn:   -0.9505    constr:    0.0000
     atom:   32    charge:   14.1000    magn:    2.2943    constr:    0.0000
     atom:   33    charge:   14.1146    magn:   -2.3232    constr:    0.0000
     atom:   34    charge:   14.0765    magn:    2.3521    constr:    0.0000
     atom:   35    charge:   14.1333    magn:   -2.2169    constr:    0.0000
     atom:   36    charge:   14.2188    magn:    0.8159    constr:    0.0000
     atom:   37    charge:   14.2380    magn:   -1.2467    constr:    0.0000
     atom:   38    charge:   14.2269    magn:    1.0758    constr:    0.0000
     atom:   39    charge:   14.2464    magn:   -1.0960    constr:    0.0000
     atom:   40    charge:   14.1094    magn:    2.2239    constr:    0.0000
     atom:   41    charge:   14.1284    magn:   -2.2600    constr:    0.0000
     atom:   42    charge:   14.1111    magn:    2.2282    constr:    0.0000
     atom:   43    charge:   14.1237    magn:   -2.2570    constr:    0.0000
     atom:   44    charge:   14.2216    magn:    1.1090    constr:    0.0000
     atom:   45    charge:   14.2412    magn:   -1.1627    constr:    0.0000
     atom:   46    charge:   14.2277    magn:    1.0029    constr:    0.0000
     atom:   47    charge:   14.2421    magn:   -1.0939    constr:    0.0000
     atom:   48    charge:   14.1130    magn:    2.2316    constr:    0.0000
     atom:   49    charge:   14.1241    magn:   -2.2681    constr:    0.0000
     atom:   50    charge:   14.1104    magn:    2.2406    constr:    0.0000
     atom:   51    charge:   14.1214    magn:   -2.2899    constr:    0.0000
     atom:   52    charge:   14.2247    magn:    0.9783    constr:    0.0000
     atom:   53    charge:   14.2404    magn:   -1.0404    constr:    0.0000
     atom:   54    charge:   14.2196    magn:    1.0754    constr:    0.0000
     atom:   55    charge:   14.2357    magn:   -1.1994    constr:    0.0000
     atom:   56    charge:   14.1145    magn:    2.1981    constr:    0.0000
     atom:   57    charge:   14.1232    magn:   -2.2487    constr:    0.0000
     atom:   58    charge:   14.1067    magn:    2.2603    constr:    0.0000
     atom:   59    charge:   14.1185    magn:   -2.2930    constr:    0.0000
     atom:   60    charge:   14.2224    magn:    0.9429    constr:    0.0000
     atom:   61    charge:   14.2283    magn:   -1.2227    constr:    0.0000
     atom:   62    charge:   14.2150    magn:    1.1924    constr:    0.0000
     atom:   63    charge:   14.2340    magn:   -1.2027    constr:    0.0000
     atom:   64    charge:   14.1121    magn:    2.1960    constr:    0.0000
     atom:   65    charge:   14.1194    magn:   -2.2729    constr:    0.0000
     atom:   66    charge:   14.1006    magn:    2.3006    constr:    0.0000
     atom:   67    charge:   14.1178    magn:   -2.2865    constr:    0.0000
     atom:   68    charge:   14.2196    magn:    1.0532    constr:    0.0000
     atom:   69    charge:   14.2374    magn:   -1.1030    constr:    0.0000
     atom:   70    charge:   14.2153    magn:    1.1976    constr:    0.0000
     atom:   71    charge:   14.2378    magn:   -1.1191    constr:    0.0000
     atom:   72    charge:   14.1141    magn:    2.2053    constr:    0.0000
     atom:   73    charge:   14.1293    magn:   -2.2217    constr:    0.0000
     atom:   74    charge:   14.1045    magn:    2.2691    constr:    0.0000
     atom:   75    charge:   14.1154    magn:   -2.3145    constr:    0.0000
     atom:   76    charge:   14.2165    magn:    1.0719    constr:    0.0000
     atom:   77    charge:   14.2410    magn:   -1.0558    constr:    0.0000
     atom:   78    charge:   14.2205    magn:    1.1522    constr:    0.0000
     atom:   79    charge:   14.2351    magn:   -1.2534    constr:    0.0000
     atom:   80    charge:   14.1067    magn:    2.2315    constr:    0.0000
     atom:   81    charge:   14.1321    magn:   -2.1930    constr:    0.0000
     atom:   82    charge:   14.1020    magn:    2.3038    constr:    0.0000
     atom:   83    charge:   14.1189    magn:   -2.3029    constr:    0.0000
     atom:   84    charge:   14.2269    magn:    0.9039    constr:    0.0000
     atom:   85    charge:   14.2454    magn:   -0.9182    constr:    0.0000
     atom:   86    charge:   14.2158    magn:    1.2946    constr:    0.0000
     atom:   87    charge:   14.2356    magn:   -1.2793    constr:    0.0000
     atom:   88    charge:   14.1212    magn:    2.1431    constr:    0.0000
     atom:   89    charge:   14.1381    magn:   -2.1468    constr:    0.0000
     atom:   90    charge:   14.0977    magn:    2.3201    constr:    0.0000
     atom:   91    charge:   14.1219    magn:   -2.2664    constr:    0.0000
     atom:   92    charge:   14.2217    magn:    1.0547    constr:    0.0000
     atom:   93    charge:   14.2350    magn:   -1.0772    constr:    0.0000
     atom:   94    charge:   14.2157    magn:    1.2574    constr:    0.0000
     atom:   95    charge:   14.2400    magn:   -1.1325    constr:    0.0000
     atom:   96    charge:   14.1158    magn:    2.1867    constr:    0.0000
     atom:   97    charge:   14.1230    magn:   -2.2336    constr:    0.0000
     atom:   98    charge:   14.1137    magn:    2.2298    constr:    0.0000
     atom:   99    charge:   14.1199    magn:   -2.2674    constr:    0.0000
     atom:  100    charge:   14.2249    magn:    1.2139    constr:    0.0000
     atom:  101    charge:   14.2402    magn:   -1.0282    constr:    0.0000
     atom:  102    charge:   14.2275    magn:    1.1362    constr:    0.0000
     atom:  103    charge:   14.2477    magn:   -1.0209    constr:    0.0000
     atom:  104    charge:   14.1124    magn:    2.2551    constr:    0.0000
     atom:  105    charge:   14.1248    magn:   -2.2418    constr:    0.0000
     atom:  106    charge:   14.1034    magn:    2.2757    constr:    0.0000
     atom:  107    charge:   14.1265    magn:   -2.2395    constr:    0.0000
     atom:  108    charge:   14.2188    magn:    1.1429    constr:    0.0000
     atom:  109    charge:   14.2417    magn:   -0.9675    constr:    0.0000
     atom:  110    charge:   14.2174    magn:    1.1940    constr:    0.0000
     atom:  111    charge:   14.2357    magn:   -1.1688    constr:    0.0000
     atom:  112    charge:   14.1033    magn:    2.2684    constr:    0.0000
     atom:  113    charge:   14.1278    magn:   -2.2095    constr:    0.0000
     atom:  114    charge:   14.1044    magn:    2.2893    constr:    0.0000
     atom:  115    charge:   14.1284    magn:   -2.2301    constr:    0.0000
     atom:  116    charge:   14.2210    magn:    1.0622    constr:    0.0000
     atom:  117    charge:   14.2429    magn:   -1.0095    constr:    0.0000
     atom:  118    charge:   14.2168    magn:    1.1951    constr:    0.0000
     atom:  119    charge:   14.2392    magn:   -1.0541    constr:    0.0000
     atom:  120    charge:   14.1066    magn:    2.2491    constr:    0.0000
     atom:  121    charge:   14.1307    magn:   -2.2060    constr:    0.0000
     atom:  122    charge:   14.1064    magn:    2.2583    constr:    0.0000
     atom:  123    charge:   14.1292    magn:   -2.2178    constr:    0.0000
     atom:  124    charge:   14.2216    magn:    1.1643    constr:    0.0000
     atom:  125    charge:   14.2400    magn:   -1.1184    constr:    0.0000
     atom:  126    charge:   14.2230    magn:    1.0937    constr:    0.0000
     atom:  127    charge:   14.2470    magn:   -0.9630    constr:    0.0000
     atom:  128    charge:   14.1079    magn:    2.2638    constr:    0.0000
     atom:  129    charge:   14.1285    magn:   -2.2435    constr:    0.0000

     total cpu time spent up to now is     1478.2 secs

     End of self-consistent calculation

 ------ SPIN UP ------------


          k = 0.0000 0.0000 0.0000 ( 91909 PWs)   bands (ev):

   -80.3713 -80.3024 -80.3004 -80.2982 -80.2953 -80.2939 -80.2832 -80.2821
   -80.2766 -80.2647 -80.2643 -80.2623 -80.2620 -80.2587 -80.2573 -80.2567
   -80.2556 -80.2519 -80.2498 -80.2437 -80.2384 -80.2343 -80.2322 -80.2306
   -80.2215 -80.2104 -80.2082 -80.2067 -80.2029 -80.1840 -80.1812 -80.1701
   -79.7699 -79.6936 -79.6689 -79.6648 -79.6369 -79.6325 -79.6265 -79.6254
   -79.6225 -79.6162 -79.6094 -79.5975 -79.5861 -79.5853 -79.5783 -79.5653
   -79.5553 -79.5460 -79.5417 -79.5366 -79.5330 -79.5266 -79.5210 -79.5090
   -79.4942 -79.4764 -79.4695 -79.4524 -79.4521 -79.4502 -79.4268 -79.3672
   -78.3876 -78.3826 -78.3688 -78.3648 -78.3622 -78.3591 -78.3427 -78.3416
   -78.3278 -78.3250 -78.3145 -78.3131 -78.3071 -78.3056 -78.3051 -78.2940
   -78.2910 -78.2909 -78.2768 -78.2690 -78.2637 -78.2589 -78.2438 -78.2416
   -78.2407 -78.2376 -78.2303 -78.2215 -78.2204 -78.2151 -78.2073 -78.1875
   -77.8459 -77.7082 -77.7067 -77.6981 -77.6884 -77.6863 -77.6828 -77.6785
   -77.6770 -77.6761 -77.6729 -77.6727 -77.6710 -77.6688 -77.6683 -77.6669
   -77.6667 -77.6656 -77.6655 -77.6589 -77.6576 -77.6562 -77.6558 -77.6511
   -77.6499 -77.6490 -77.6450 -77.6440 -77.6429 -77.6395 -77.6368 -77.6363
   -75.4179 -46.5173 -46.4605 -46.4581 -46.4551 -46.4506 -46.4451 -46.4419
   -46.4364 -46.4307 -46.4266 -46.4214 -46.4205 -46.4200 -46.4187 -46.4184
   -46.4172 -46.4134 -46.4121 -46.4110 -46.4043 -46.4024 -46.3980 -46.3945
   -46.3889 -46.3877 -46.3775 -46.3696 -46.3676 -46.3646 -46.3642 -46.3635
   -46.3609 -46.3604 -46.3570 -46.3547 -46.3532 -46.3503 -46.3493 -46.3425
   -46.3418 -46.3393 -46.3301 -46.3296 -46.3287 -46.3278 -46.3268 -46.3254
   -46.3233 -46.3214 -46.3212 -46.3157 -46.3149 -46.3076 -46.3073 -46.2966
   -46.2959 -46.2920 -46.2838 -46.2783 -46.2744 -46.2725 -46.2724 -46.2716
   -46.2701 -46.2677 -46.2676 -46.2674 -46.2568 -46.2532 -46.2486 -46.2464
   -46.2404 -46.2387 -46.2376 -46.2376 -46.2365 -46.2361 -46.2311 -46.2271
   -46.2265 -46.2254 -46.2244 -46.2211 -46.2158 -46.2155 -46.2132 -46.2098
   -46.2077 -46.2042 -46.1923 -46.1895 -46.1869 -46.1827 -46.1730 -46.1662
   -46.1562 -45.8617 -45.8494 -45.8063 -45.7827 -45.7790 -45.7657 -45.7618
   -45.7531 -45.7495 -45.7443 -45.7401 -45.7370 -45.7346 -45.7338 -45.7289
   -45.7266 -45.7255 -45.7244 -45.7210 -45.7180 -45.7165 -45.7047 -45.7034
   -45.7008 -45.6993 -45.6978 -45.6945 -45.6940 -45.6934 -45.6915 -45.6900
   -45.6872 -45.6857 -45.6819 -45.6805 -45.6741 -45.6728 -45.6720 -45.6634
   -45.6626 -45.6623 -45.6565 -45.6547 -45.6536 -45.6491 -45.6417 -45.6352
   -45.6276 -45.6187 -45.6088 -45.6064 -45.6050 -45.5970 -45.5941 -45.5874
   -45.5843 -45.5795 -45.5791 -45.5760 -45.5693 -45.5690 -45.5685 -45.5674
   -45.5603 -45.5525 -45.5521 -45.5488 -45.5441 -45.5322 -45.5307 -45.5297
   -45.5282 -45.5235 -45.5223 -45.5218 -45.5211 -45.5200 -45.5183 -45.5177
   -45.5075 -45.5066 -45.5052 -45.5031 -45.5009 -45.4968 -45.4882 -45.4766
   -45.4760 -45.4679 -45.4636 -45.4612 -45.4595 -45.4531 -45.4413 -45.4115
   -45.3907 -44.5100 -44.5059 -44.5057 -44.5045 -44.4963 -44.4921 -44.4901
   -44.4868 -44.4858 -44.4851 -44.4822 -44.4817 -44.4797 -44.4785 -44.4763
   -44.4721 -44.4706 -44.4685 -44.4654 -44.4631 -44.4606 -44.4587 -44.4578
   -44.4577 -44.4552 -44.4549 -44.4526 -44.4517 -44.4490 -44.4477 -44.4447
   -44.4437 -44.4419 -44.4408 -44.4397 -44.4341 -44.4278 -44.4270 -44.4259
   -44.4250 -44.4214 -44.4193 -44.4189 -44.4178 -44.4116 -44.4106 -44.4102
   -44.4035 -44.3995 -44.3920 -44.3896 -44.3862 -44.3793 -44.3665 -44.3537
   -44.3534 -44.3504 -44.3488 -44.3421 -44.3380 -44.3306 -44.3297 -44.3267
   -44.3261 -44.3254 -44.3239 -44.3231 -44.3218 -44.3161 -44.3115 -44.3099
   -44.3062 -44.3036 -44.3026 -44.3008 -44.2991 -44.2957 -44.2939 -44.2917
   -44.2894 -44.2882 -44.2868 -44.2837 -44.2810 -44.2802 -44.2797 -44.2779
   -44.2773 -44.2749 -44.2737 -44.2620 -44.2617 -44.2599 -44.2588 -44.2470
   -44.2453 -44.0236 -43.9088 -43.8868 -43.8853 -43.8714 -43.8627 -43.8530
   -43.8528 -43.8508 -43.8502 -43.8493 -43.8457 -43.8429 -43.8418 -43.8403
   -43.8398 -43.8348 -43.8335 -43.8324 -43.8322 -43.8313 -43.8245 -43.8217
   -43.8214 -43.8203 -43.8139 -43.8125 -43.8089 -43.8073 -43.8060 -43.8047
   -43.7976 -43.7971 -43.7947 -43.7945 -43.7915 -43.7867 -43.7858 -43.7751
   -43.7728 -43.7650 -43.7644 -43.7617 -43.7616 -43.7599 -43.7593 -43.7566
   -43.7556 -43.7538 -43.7535 -43.7526 -43.7496 -43.7473 -43.7457 -43.7453
   -43.7446 -43.7442 -43.7424 -43.7388 -43.7363 -43.7359 -43.7324 -43.7297
   -43.7272 -43.7249 -43.7162 -43.7157 -43.7148 -43.7046 -43.7019 -43.7014
   -43.7010 -43.7009 -43.6986 -43.6979 -43.6972 -43.6963 -43.6958 -43.6941
   -43.6935 -43.6917 -43.6911 -43.6900 -43.6887 -43.6867 -43.6850 -43.6846
   -43.6839 -43.6814 -43.6799 -43.6776 -43.6761 -43.6756 -43.6755 -43.6733
   -43.6727 -41.3427 -41.1438 -41.0381  -0.2066   0.5604   0.5670   0.6428
     0.6452   1.3211   1.3247   1.3282   1.3292   1.4589   2.1435   2.1665
     2.2267   2.2386   2.3735   2.5615   2.6805   2.6829   2.6975   2.7143
     2.7190   2.7229   2.9093   2.9126   2.9756   2.9775   3.0510   3.0512
     3.0536   3.0550   3.0844   3.0976   3.3299   3.3332   3.4323   3.4562
     3.4818   3.5063   3.5128   3.5200   3.5265   3.5302   3.5366   3.5736
     3.5784   3.6247   3.6664   3.6702   3.6750   3.6773   3.6881   3.6920
     3.7129   3.7220   3.7276   3.7385   3.7514   3.7581   3.7954   3.8026
     3.8104   3.8145   3.8523   3.8674   3.8726   3.8792   3.9035   3.9085
     3.9134   3.9830   3.9903   3.9939   3.9942   4.0004   4.0048   4.0064
     4.0087   4.0201   4.0362   4.0627   4.0674   4.0818   4.1090   4.1835
     4.2123   4.2191   4.2367   4.2513   4.2545   4.2599   4.2711   4.2721
     4.2743   4.2750   4.2796   4.2894   4.3268   4.3314   4.3400   4.3445
     4.3558   4.3578   4.3624   4.3684   4.3759   4.3811   4.3857   4.3884
     4.3890   4.3923   4.4046   4.4128   4.4171   4.4228   4.4237   4.4311
     4.4372   4.4395   4.4451   4.4507   4.4559   4.4585   4.4643   4.4666
     4.4699   4.4734   4.4774   4.4950   4.5074   4.5220   4.5227   4.5573
     4.5751   4.5798   4.5817   4.5846   4.5972   4.6142   4.6186   4.6227
     4.6245   4.6310   4.6691   4.6731   4.7062   4.7113   4.7222   4.7334
     4.7598   4.7650   4.7706   4.7721   4.7794   4.7837   4.7917   4.7948
     4.7999   4.8061   4.8104   4.8166   4.8256   4.8270   4.8385   4.8477
     4.8503   4.8598   4.8615   4.8728   4.8765   4.8860   4.8884   4.8948
     4.9029   4.9081   4.9087   4.9133   4.9198   4.9311   4.9339   4.9438
     4.9926   4.9955   4.9991   5.0057   5.0083   5.0108   5.0218   5.0324
     5.0446   5.0584   5.0621   5.1173   5.1341   5.1653   5.1686   5.1753
     5.1820   5.2099   5.2112   5.2147   5.2451   5.2550   5.2659   5.3043
     5.3314   5.3756   5.3873   5.3895   5.4000   5.4240   5.4303   5.4350
     5.4407   5.4497   5.4557   5.4581   5.4768   5.4769   5.4872   5.5003
     5.5098   5.5247   5.5421   5.5545   5.5563   5.5687   5.5772   5.5863
     5.5902   5.6160   5.6185   5.6201   5.6271   5.6373   5.6522   5.6587
     5.6698   5.6753   5.6819   5.6861   5.6877   5.6903   5.6966   5.7008
     5.7049   5.7101   5.7132   5.7140   5.7189   5.7215   5.7251   5.7282
     5.7339   5.7365   5.7462   5.7726   5.7756   5.8024   5.8350   5.8459
     5.8561   5.8587   5.8732   5.8756   5.8853   5.8905   5.8961   5.9057
     5.9096   5.9172   5.9190   5.9254   5.9453   5.9606   5.9703   5.9814
     5.9903   5.9976   6.0084   6.0243   6.0654   6.0717   6.1018   6.1123
     6.1158   6.1824   6.1966   6.2054   6.2125   6.2183   6.2337   6.2385
     6.2523   6.2573   6.2595   6.2640   6.2642   6.2772   6.2796   6.2802
     6.2870   6.2887   6.2929   6.2958   6.2986   6.3000   6.3010   6.3061
     6.3078   6.3107   6.3136   6.3203   6.3229   6.3278   6.3306   6.3414
     6.3741   6.3871   6.3959   6.4037   6.4146   6.4255   6.4483   6.4803
     6.5009   6.5077   6.5135   6.5171   6.5238   6.5266   6.5321   6.5369
     6.5397   6.5469   6.5473   6.5523   6.5587   6.5592   6.5636   6.5665
     6.5697   6.5747   6.5912   6.5971   6.5986   6.6027   6.6049   6.6073
     6.6101   6.6120   6.6136   6.6217   6.6243   6.6292   6.6323   6.6371
     6.6387   6.6480   6.6572   6.6595   6.6697   6.6754   6.6765   6.7054
     6.7156   6.7257   6.7269   6.7323   6.7423   6.7440   6.7497   6.7526
     6.7642   6.7726   6.7860   6.7963   6.8013   6.8071   6.8116   6.8166
     6.8227   6.8294   6.8392   6.8442   6.8535   6.8609   6.8740   6.8796
     6.8801   6.8835   6.8876   6.8957   6.8976   6.9045   6.9072   6.9108
     6.9256   6.9490   6.9622   6.9711   6.9756   6.9813   6.9865   6.9920
     7.0001   7.0003   7.0094   7.0251   7.0281   7.0417   7.0444   7.0507
     7.0624   7.0746   7.0787   7.0978   7.1056   7.1129   7.1384   7.1444
     7.1546   7.1671   7.1757   7.1855   7.1915   7.2046   7.2115   7.2135
     7.2200   7.2306   7.2391   7.2420   7.2514   7.2583   7.2639   7.2724
     7.2741   7.2872   7.2907   7.2984   7.3612   7.3689   7.3834   7.3928
     7.4320   7.4728   7.4804   7.5052   7.5079   7.5136   7.5171   7.5284
     7.5342   7.5374   7.5434   7.5524   7.5641   7.5659   7.5716   7.5766
     7.5792   7.5864   7.6010   7.6152   7.6354   7.6406   7.6415   7.6535
     7.6579   7.6705   7.7183   7.7233   7.7285   7.7389   7.7469   7.7555
     7.7733   7.7750   7.7837   7.7923   7.8016   7.8041   7.8111   7.8226
     7.8381   7.8430   7.8879   7.8995   7.9088   7.9149   7.9319   7.9397
     7.9441   7.9609   7.9652   7.9670   7.9774   7.9824   7.9847   7.9993
     8.0033   8.0142   8.0365   8.0479   8.0568   8.0613   8.0614   8.0732
     8.0797   8.0906   8.1126   8.1280   8.1351   8.1423   8.1448   8.1589
     8.1766   8.1795   8.1838   8.1881   8.1997   8.2021   8.2064   8.2103
     8.2248   8.2674   8.2833   8.2920   8.2936   8.2959   8.3095   8.3106
     8.3444   8.3467   8.3551   8.3780   8.3892   8.4232   8.4364   8.4391
     8.4504   8.4639   8.4683   8.4751   8.4797   8.4911   8.5082   8.5235
     8.5507   8.5919   8.5968   8.6120   8.6586   8.6735   8.6821   8.6858
     8.6931   8.7025   8.7052   8.7169   8.7607   8.7756   8.7777   8.7800
     8.7828   8.7842   8.7869   8.7878   8.7904   8.7946   8.7948   8.7979
     8.8042   8.8102   8.8127   8.8133   8.8171   8.8198   8.8210   8.8235
     8.8279   8.8289   8.8296   8.8319   8.8372   8.8392   8.8407   8.8448
     8.8489   8.8511   8.8517   8.8564   8.8621   8.8668   8.8677   8.8690
     8.8725   8.8743   8.8874   8.8962   8.9038   8.9093   8.9149   8.9184
     8.9278   8.9327   8.9346   8.9385   8.9584   8.9747   8.9759   8.9794
     8.9822   8.9845   8.9874   8.9934   9.0047   9.0145   9.0178   9.0187
     9.0237   9.0556   9.0567   9.0588   9.0636   9.0654   9.0701   9.0720
     9.0745   9.0756   9.0771   9.0789   9.0863   9.1233   9.1299   9.1505
     9.1587   9.1619   9.1752   9.1765   9.1784   9.1790   9.1812   9.1845
     9.1868   9.1942   9.1960   9.1996   9.2031   9.2174   9.2282   9.2356
     9.2504   9.2521   9.2574   9.2578   9.2637   9.2681   9.2698   9.2709
     9.2744   9.2810   9.2843   9.2866   9.2897   9.3040   9.3104   9.3247
     9.3315   9.3391   9.3573   9.3659   9.3711   9.3781   9.3887   9.3925
     9.4006   9.4034   9.4054   9.4073   9.4098   9.4145   9.4213   9.4247
     9.4261   9.4304   9.4436   9.4528   9.4576   9.4780   9.4893   9.5077
     9.5290   9.5424   9.5614   9.5831   9.5949   9.6032   9.6306   9.6348
     9.6423   9.7444   9.7618   9.8924   9.9866  10.0586  10.3075  10.3113
    10.4225  10.4461  10.4864  10.5179  10.5248  10.5477  10.5505  10.5628
    10.5765  10.6400  10.6428  10.6495  10.7180  10.7436  10.7565  10.7894

 ------ SPIN DOWN ----------


          k = 0.0000 0.0000 0.0000 ( 91909 PWs)   bands (ev):

   -80.3093 -80.3063 -80.3042 -80.2954 -80.2899 -80.2879 -80.2807 -80.2782
   -80.2779 -80.2760 -80.2754 -80.2672 -80.2640 -80.2628 -80.2582 -80.2487
   -80.2476 -80.2463 -80.2450 -80.2442 -80.2372 -80.2344 -80.2335 -80.2307
   -80.2270 -80.2159 -80.2153 -80.2144 -80.2062 -80.1821 -80.1816 -80.1720
   -79.7218 -79.6821 -79.6606 -79.6595 -79.6582 -79.6501 -79.6401 -79.6330
   -79.6239 -79.6215 -79.6070 -79.6002 -79.5871 -79.5771 -79.5682 -79.5647
   -79.5543 -79.5500 -79.5379 -79.5311 -79.5278 -79.5216 -79.5183 -79.5133
   -79.5012 -79.4953 -79.4679 -79.4670 -79.4540 -79.4491 -79.4358 -79.4300
   -78.4339 -78.3890 -78.3717 -78.3705 -78.3658 -78.3602 -78.3546 -78.3445
   -78.3260 -78.3201 -78.3140 -78.3076 -78.3073 -78.3052 -78.3036 -78.2940
   -78.2919 -78.2835 -78.2784 -78.2722 -78.2631 -78.2613 -78.2455 -78.2454
   -78.2437 -78.2414 -78.2350 -78.2296 -78.2136 -78.2059 -78.1999 -78.1413
   -77.8564 -77.7122 -77.7081 -77.6962 -77.6940 -77.6899 -77.6841 -77.6830
   -77.6760 -77.6754 -77.6735 -77.6730 -77.6682 -77.6674 -77.6673 -77.6658
   -77.6648 -77.6627 -77.6593 -77.6588 -77.6572 -77.6547 -77.6541 -77.6532
   -77.6510 -77.6485 -77.6474 -77.6453 -77.6453 -77.6366 -77.6362 -77.6341
   -75.4203 -46.4636 -46.4610 -46.4528 -46.4524 -46.4468 -46.4418 -46.4413
   -46.4405 -46.4385 -46.4319 -46.4263 -46.4232 -46.4214 -46.4196 -46.4134
   -46.4104 -46.4073 -46.4046 -46.4016 -46.4006 -46.3996 -46.3947 -46.3939
   -46.3926 -46.3883 -46.3870 -46.3730 -46.3719 -46.3702 -46.3670 -46.3651
   -46.3641 -46.3580 -46.3538 -46.3513 -46.3459 -46.3439 -46.3419 -46.3419
   -46.3394 -46.3331 -46.3329 -46.3326 -46.3273 -46.3264 -46.3242 -46.3240
   -46.3153 -46.3143 -46.3110 -46.3068 -46.3042 -46.3006 -46.3001 -46.2982
   -46.2975 -46.2872 -46.2840 -46.2816 -46.2779 -46.2774 -46.2753 -46.2712
   -46.2664 -46.2638 -46.2624 -46.2581 -46.2550 -46.2529 -46.2505 -46.2486
   -46.2474 -46.2449 -46.2423 -46.2415 -46.2410 -46.2395 -46.2391 -46.2312
   -46.2253 -46.2234 -46.2229 -46.2222 -46.2180 -46.2134 -46.2117 -46.2098
   -46.2071 -46.2029 -46.1980 -46.1972 -46.1947 -46.1864 -46.1706 -46.1689
   -46.1580 -45.8095 -45.7987 -45.7745 -45.7705 -45.7660 -45.7654 -45.7642
   -45.7585 -45.7530 -45.7523 -45.7402 -45.7348 -45.7310 -45.7309 -45.7298
   -45.7259 -45.7247 -45.7243 -45.7241 -45.7227 -45.7213 -45.7207 -45.7184
   -45.7157 -45.7137 -45.7055 -45.7023 -45.6995 -45.6978 -45.6948 -45.6909
   -45.6904 -45.6884 -45.6874 -45.6846 -45.6827 -45.6728 -45.6669 -45.6657
   -45.6635 -45.6611 -45.6557 -45.6532 -45.6512 -45.6459 -45.6422 -45.6305
   -45.6281 -45.6174 -45.6108 -45.6013 -45.5981 -45.5935 -45.5913 -45.5898
   -45.5806 -45.5796 -45.5768 -45.5748 -45.5729 -45.5695 -45.5672 -45.5605
   -45.5590 -45.5562 -45.5511 -45.5495 -45.5476 -45.5435 -45.5321 -45.5279
   -45.5274 -45.5273 -45.5239 -45.5233 -45.5231 -45.5209 -45.5206 -45.5181
   -45.5166 -45.5120 -45.5096 -45.5080 -45.5071 -45.5024 -45.4980 -45.4872
   -45.4867 -45.4852 -45.4774 -45.4747 -45.4739 -45.4614 -45.4598 -45.4481
   -45.4430 -44.5537 -44.5399 -44.5120 -44.5118 -44.5102 -44.4983 -44.4945
   -44.4931 -44.4909 -44.4887 -44.4878 -44.4875 -44.4865 -44.4818 -44.4756
   -44.4739 -44.4730 -44.4722 -44.4693 -44.4645 -44.4639 -44.4610 -44.4608
   -44.4595 -44.4583 -44.4572 -44.4555 -44.4500 -44.4475 -44.4460 -44.4412
   -44.4378 -44.4370 -44.4334 -44.4312 -44.4294 -44.4271 -44.4263 -44.4253
   -44.4246 -44.4241 -44.4224 -44.4184 -44.4170 -44.4134 -44.4112 -44.4098
   -44.4028 -44.3967 -44.3942 -44.3940 -44.3824 -44.3791 -44.3788 -44.3566
   -44.3549 -44.3545 -44.3516 -44.3465 -44.3453 -44.3399 -44.3315 -44.3288
   -44.3267 -44.3242 -44.3215 -44.3207 -44.3184 -44.3148 -44.3136 -44.3105
   -44.3102 -44.3079 -44.3071 -44.3034 -44.3003 -44.2932 -44.2928 -44.2924
   -44.2897 -44.2844 -44.2831 -44.2817 -44.2811 -44.2804 -44.2753 -44.2748
   -44.2738 -44.2720 -44.2680 -44.2606 -44.2561 -44.2493 -44.2457 -44.2167
   -44.2002 -44.0104 -43.9500 -43.8929 -43.8869 -43.8703 -43.8680 -43.8641
   -43.8556 -43.8546 -43.8506 -43.8458 -43.8454 -43.8453 -43.8409 -43.8379
   -43.8358 -43.8353 -43.8310 -43.8303 -43.8267 -43.8245 -43.8220 -43.8199
   -43.8197 -43.8165 -43.8153 -43.8142 -43.8111 -43.8086 -43.8079 -43.8066
   -43.7958 -43.7949 -43.7946 -43.7943 -43.7938 -43.7852 -43.7768 -43.7763
   -43.7739 -43.7734 -43.7686 -43.7632 -43.7626 -43.7591 -43.7575 -43.7569
   -43.7555 -43.7537 -43.7533 -43.7525 -43.7508 -43.7474 -43.7464 -43.7459
   -43.7449 -43.7430 -43.7419 -43.7382 -43.7370 -43.7368 -43.7352 -43.7271
   -43.7257 -43.7223 -43.7203 -43.7188 -43.7152 -43.7151 -43.7055 -43.7010
   -43.6995 -43.6985 -43.6957 -43.6952 -43.6949 -43.6945 -43.6927 -43.6917
   -43.6905 -43.6899 -43.6895 -43.6892 -43.6859 -43.6849 -43.6845 -43.6840
   -43.6839 -43.6822 -43.6816 -43.6789 -43.6769 -43.6758 -43.6738 -43.6731
   -43.6723 -41.3487 -41.1452 -41.0377  -0.2065   0.5606   0.5672   0.6434
     0.6446   1.3222   1.3239   1.3277   1.3296   1.4589   2.1440   2.1665
     2.2264   2.2384   2.3748   2.5602   2.6797   2.6826   2.6982   2.7140
     2.7190   2.7226   2.9100   2.9136   2.9747   2.9771   3.0507   3.0519
     3.0535   3.0542   3.0866   3.0976   3.3298   3.3327   3.4468   3.4579
     3.4823   3.5021   3.5090   3.5179   3.5256   3.5274   3.5353   3.5743
     3.5782   3.6425   3.6660   3.6737   3.6750   3.6777   3.6864   3.6917
     3.7039   3.7206   3.7223   3.7394   3.7529   3.7589   3.7973   3.8019
     3.8099   3.8159   3.8453   3.8632   3.8718   3.8784   3.9017   3.9111
     3.9134   3.9822   3.9878   3.9901   3.9971   4.0013   4.0020   4.0067
     4.0108   4.0238   4.0367   4.0622   4.0697   4.0766   4.1080   4.1784
     4.2052   4.2220   4.2385   4.2494   4.2542   4.2589   4.2627   4.2685
     4.2713   4.2768   4.2797   4.2862   4.3285   4.3293   4.3444   4.3472
     4.3557   4.3610   4.3621   4.3687   4.3722   4.3803   4.3823   4.3858
     4.3905   4.3920   4.4049   4.4111   4.4188   4.4202   4.4240   4.4316
     4.4396   4.4403   4.4492   4.4503   4.4528   4.4563   4.4646   4.4671
     4.4690   4.4739   4.4758   4.4993   4.5042   4.5158   4.5200   4.5567
     4.5764   4.5793   4.5814   4.5836   4.5894   4.6169   4.6221   4.6233
     4.6239   4.6302   4.6717   4.6759   4.7065   4.7134   4.7177   4.7294
     4.7587   4.7645   4.7683   4.7715   4.7846   4.7874   4.7908   4.7910
     4.8014   4.8051   4.8112   4.8195   4.8235   4.8263   4.8340   4.8440
     4.8539   4.8580   4.8599   4.8677   4.8811   4.8854   4.8888   4.8985
     4.9037   4.9052   4.9081   4.9127   4.9188   4.9337   4.9374   4.9450
     4.9933   4.9980   5.0018   5.0060   5.0075   5.0111   5.0262   5.0371
     5.0438   5.0593   5.0619   5.1212   5.1350   5.1558   5.1659   5.1748
     5.1798   5.2087   5.2104   5.2122   5.2472   5.2517   5.2653   5.3073
     5.3340   5.3637   5.3807   5.3922   5.3962   5.4189   5.4323   5.4348
     5.4397   5.4493   5.4544   5.4597   5.4681   5.4769   5.4915   5.5013
     5.5055   5.5236   5.5457   5.5508   5.5535   5.5629   5.5777   5.5887
     5.5970   5.6123   5.6201   5.6217   5.6357   5.6393   5.6545   5.6571
     5.6660   5.6697   5.6812   5.6842   5.6869   5.6944   5.6996   5.7005
     5.7050   5.7102   5.7138   5.7159   5.7206   5.7235   5.7248   5.7281
     5.7326   5.7365   5.7390   5.7747   5.7775   5.7994   5.8330   5.8549
     5.8562   5.8618   5.8682   5.8806   5.8844   5.8881   5.9000   5.9049
     5.9090   5.9182   5.9211   5.9247   5.9469   5.9622   5.9709   5.9860
     5.9884   5.9972   6.0132   6.0458   6.0615   6.0757   6.0860   6.0930
     6.1346   6.1865   6.2001   6.2035   6.2166   6.2252   6.2311   6.2333
     6.2503   6.2504   6.2582   6.2617   6.2707   6.2719   6.2777   6.2818
     6.2854   6.2887   6.2934   6.2958   6.2981   6.3014   6.3033   6.3068
     6.3076   6.3098   6.3120   6.3158   6.3175   6.3269   6.3272   6.3300
     6.3686   6.3922   6.3982   6.4014   6.4076   6.4160   6.4489   6.4561
     6.5008   6.5055   6.5117   6.5198   6.5244   6.5279   6.5292   6.5361
     6.5429   6.5480   6.5497   6.5529   6.5568   6.5599   6.5608   6.5657
     6.5671   6.5800   6.5884   6.5956   6.5982   6.6015   6.6049   6.6067
     6.6069   6.6113   6.6164   6.6175   6.6257   6.6292   6.6326   6.6359
     6.6396   6.6454   6.6533   6.6576   6.6663   6.6788   6.6879   6.6958
     6.7187   6.7261   6.7297   6.7363   6.7379   6.7508   6.7539   6.7597
     6.7694   6.7749   6.7885   6.7915   6.8013   6.8048   6.8117   6.8168
     6.8267   6.8327   6.8408   6.8432   6.8568   6.8654   6.8774   6.8803
     6.8824   6.8846   6.8877   6.8927   6.8988   6.9013   6.9054   6.9198
     6.9254   6.9448   6.9640   6.9676   6.9769   6.9824   6.9850   6.9929
     6.9951   7.0057   7.0160   7.0210   7.0315   7.0368   7.0443   7.0504
     7.0668   7.0789   7.0806   7.0925   7.1063   7.1159   7.1317   7.1382
     7.1470   7.1672   7.1738   7.1853   7.1906   7.2032   7.2112   7.2166
     7.2180   7.2264   7.2266   7.2460   7.2481   7.2561   7.2627   7.2719
     7.2764   7.2819   7.2874   7.2948   7.3587   7.3814   7.3836   7.4022
     7.4425   7.4636   7.4815   7.5070   7.5091   7.5136   7.5173   7.5259
     7.5303   7.5397   7.5527   7.5561   7.5640   7.5670   7.5695   7.5756
     7.5823   7.5873   7.6019   7.6110   7.6296   7.6364   7.6484   7.6588
     7.6600   7.6979   7.7207   7.7282   7.7352   7.7448   7.7511   7.7591
     7.7721   7.7790   7.7832   7.7904   7.7944   7.8013   7.8125   7.8226
     7.8384   7.8484   7.8888   7.9000   7.9095   7.9148   7.9353   7.9401
     7.9437   7.9580   7.9677   7.9721   7.9767   7.9803   7.9948   8.0001
     8.0041   8.0058   8.0385   8.0524   8.0534   8.0580   8.0663   8.0730
     8.0821   8.0850   8.0978   8.1287   8.1369   8.1425   8.1450   8.1506
     8.1708   8.1741   8.1859   8.1863   8.1949   8.2022   8.2065   8.2161
     8.2271   8.2581   8.2734   8.2852   8.2959   8.2984   8.3048   8.3100
     8.3224   8.3416   8.3470   8.3804   8.3865   8.4288   8.4343   8.4430
     8.4495   8.4592   8.4623   8.4641   8.4801   8.4882   8.5109   8.5192
     8.5528   8.5790   8.5982   8.6096   8.6599   8.6720   8.6837   8.6857
     8.6928   8.7025   8.7075   8.7182   8.7604   8.7743   8.7784   8.7826
     8.7838   8.7855   8.7873   8.7880   8.7904   8.7930   8.7955   8.7965
     8.8019   8.8079   8.8116   8.8136   8.8154   8.8184   8.8213   8.8251
     8.8287   8.8292   8.8304   8.8316   8.8346   8.8387   8.8415   8.8452
     8.8466   8.8491   8.8516   8.8555   8.8588   8.8646   8.8677   8.8682
     8.8708   8.8734   8.8847   8.9012   8.9032   8.9089   8.9118   8.9183
     8.9270   8.9320   8.9342   8.9401   8.9557   8.9730   8.9759   8.9768
     8.9800   8.9845   8.9850   8.9937   9.0097   9.0109   9.0153   9.0184
     9.0213   9.0519   9.0562   9.0602   9.0629   9.0671   9.0681   9.0710
     9.0744   9.0752   9.0755   9.0771   9.0866   9.1228   9.1296   9.1518
     9.1571   9.1621   9.1730   9.1752   9.1770   9.1791   9.1812   9.1849
     9.1873   9.1877   9.1964   9.1990   9.2027   9.2157   9.2238   9.2322
     9.2455   9.2547   9.2566   9.2577   9.2624   9.2669   9.2693   9.2710
     9.2744   9.2814   9.2825   9.2860   9.2881   9.3041   9.3092   9.3249
     9.3285   9.3385   9.3553   9.3652   9.3714   9.3765   9.3840   9.3942
     9.3980   9.4020   9.4050   9.4069   9.4103   9.4144   9.4201   9.4217
     9.4245   9.4298   9.4455   9.4578   9.4592   9.4765   9.4917   9.5075
     9.5250   9.5395   9.5624   9.5856   9.5893   9.6078   9.6312   9.6345
     9.6416   9.7467   9.7553   9.8870   9.9906  10.0773  10.3078  10.3143
    10.4296  10.4472  10.4797  10.5164  10.5208  10.5325  10.5556  10.5569
    10.5913  10.6272  10.6428  10.6621  10.7047  10.7423  10.7518  10.7577

     the Fermi energy is     8.1862 ev

!    total energy              =  -42651.91116646 Ry

     total all-electron energy =   -335917.894076 Ry
     estimated scf accuracy    <          9.7E-09 Ry
     smearing contrib. (-TS)   =       0.01005396 Ry
     internal energy E=F+TS    =  -42651.92122042 Ry

     The total energy is F=E-TS. E is the sum of the following terms:
     one-electron contribution =  -98054.68461581 Ry
     hartree contribution      =   49541.96820920 Ry
     xc contribution           =   -3575.62744851 Ry
     ewald contribution        =   20289.23257287 Ry
     one-center paw contrib.   =  -10852.80993817 Ry

     total magnetization       =    -0.05 Bohr mag/cell
     absolute magnetization    =   229.53 Bohr mag/cell

     convergence has been achieved in  66 iterations

     negative rho (up, down):  1.709E-03 1.863E-03

     Forces acting on atoms (cartesian axes, Ry/au):

     atom    1 type  3   force =     0.01536872   -0.01490034    0.02565622
     atom    2 type  1   force =     0.00414931    0.00375246   -0.00809158
     atom    3 type  2   force =    -0.00565618   -0.00313914   -0.00842628
     atom    4 type  1   force =    -0.00009417    0.00345648   -0.00182551
     atom    5 type  2   force =    -0.00014336   -0.00268352   -0.00190398
     atom    6 type  1   force =     0.00132456   -0.00113679    0.00002365
     atom    7 type  2   force =    -0.00123656    0.00114314   -0.00013596
     atom    8 type  1   force =     0.00204873   -0.00022343    0.00117622
     atom    9 type  2   force =    -0.00194637    0.00038868    0.00114794
     atom   10 type  1   force =    -0.00400468    0.00261637   -0.00184605
     atom   11 type  2   force =    -0.00383907    0.00075074   -0.00218080
     atom   12 type  1   force =    -0.00004713   -0.00260287   -0.00184377
     atom   13 type  2   force =     0.00039338   -0.00027379   -0.00129001
     atom   14 type  1   force =    -0.00241691    0.00108507    0.00384301
     atom   15 type  2   force =    -0.00225084    0.00014439   -0.00045479
     atom   16 type  1   force =     0.00011636    0.00019598    0.00063609
     atom   17 type  2   force =     0.00063175   -0.00067201   -0.00036196
     atom   18 type  1   force =    -0.00016299   -0.00006105    0.00007439
     atom   19 type  2   force =     0.00006524    0.00002523   -0.00000136
     atom   20 type  1   force =     0.00265032    0.00190267    0.00275920
     atom   21 type  2   force =    -0.00266727   -0.00183317    0.00279455
     atom   22 type  1   force =     0.00119481   -0.00012630    0.00115213
     atom   23 type  2   force =    -0.00105539    0.00037520    0.00097720
     atom   24 type  1   force =    -0.00008635   -0.00078548   -0.00202716
     atom   25 type  2   force =    -0.00001052    0.00109943   -0.00207340
     atom   26 type  1   force =     0.00358186   -0.00100835   -0.00214768
     atom   27 type  2   force =     0.00269313    0.00072601   -0.00848783
     atom   28 type  1   force =    -0.00099881    0.00095138   -0.00179495
     atom   29 type  2   force =     0.00034609    0.00204441   -0.00180357
     atom   30 type  1   force =     0.00243334    0.00035831   -0.00093040
     atom   31 type  2   force =     0.00236200   -0.00086440    0.00344472
     atom   32 type  1   force =    -0.00064403    0.00083009   -0.00034851
     atom   33 type  2   force =    -0.00009092   -0.00019539    0.00040761
     atom   34 type  1   force =    -0.00054273   -0.00268070   -0.00846434
     atom   35 type  2   force =    -0.00176358   -0.00388159   -0.00038140
     atom   36 type  1   force =     0.00167448    0.00151050   -0.00196002
     atom   37 type  2   force =    -0.00070633   -0.00096806   -0.00699708
     atom   38 type  1   force =     0.00011454   -0.00082513    0.00251834
     atom   39 type  2   force =     0.00103361    0.00042459   -0.00166182
     atom   40 type  1   force =     0.00422703   -0.00078103    0.00018174
     atom   41 type  2   force =     0.00002502    0.00154842    0.00582283
     atom   42 type  1   force =    -0.00140494    0.00087448    0.00175467
     atom   43 type  2   force =    -0.00037830   -0.00105425   -0.00226620
     atom   44 type  1   force =    -0.00086107   -0.00295771   -0.00382156
     atom   45 type  2   force =    -0.00087746   -0.00240439    0.00219657
     atom   46 type  1   force =    -0.00395656    0.00198773   -0.00175030
     atom   47 type  2   force =    -0.00035008    0.00121549    0.00029376
     atom   48 type  1   force =     0.00073001    0.00188389    0.00489618
     atom   49 type  2   force =     0.00117827   -0.00183694    0.00169283
     atom   50 type  1   force =     0.00104253    0.00265422   -0.00259236
     atom   51 type  2   force =     0.00018205    0.00183131   -0.00334668
     atom   52 type  1   force =     0.00248093   -0.00278644   -0.00044905
     atom   53 type  2   force =     0.00139703    0.00153937    0.00378687
     atom   54 type  1   force =    -0.00354203    0.00171197    0.00117336
     atom   55 type  2   force =    -0.00240647   -0.00092557    0.00290579
     atom   56 type  1   force =    -0.00075617    0.00001256   -0.00013932
     atom   57 type  2   force =    -0.00008054    0.00015808   -0.00073685
     atom   58 type  1   force =     0.00141880    0.00347988   -0.00146467
     atom   59 type  2   force =    -0.00165744    0.00185518   -0.00058417
     atom   60 type  1   force =     0.00223724    0.00150470    0.00027371
     atom   61 type  2   force =    -0.00019282    0.00330209   -0.00440244
     atom   62 type  1   force =    -0.00365262   -0.00218284    0.00265941
     atom   63 type  2   force =    -0.00218020   -0.00327346    0.00055044
     atom   64 type  1   force =     0.00138744   -0.00016132    0.00050274
     atom   65 type  2   force =     0.00104587   -0.00113371    0.00011730
     atom   66 type  1   force =    -0.00093946    0.00003611    0.00121386
     atom   67 type  2   force =     0.00109026    0.00005323    0.00142959
     atom   68 type  1   force =    -0.00468709   -0.00061899   -0.00182221
     atom   69 type  2   force =     0.00473619    0.00052780   -0.00155730
     atom   70 type  1   force =    -0.00038065   -0.00167558   -0.00176153
     atom   71 type  2   force =     0.00021825    0.00187159   -0.00107538
     atom   72 type  1   force =     0.00013264   -0.00070215    0.00119109
     atom   73 type  2   force =    -0.00083126    0.00073172    0.00142785
     atom   74 type  1   force =     0.00075311    0.00251311    0.00025417
     atom   75 type  2   force =     0.00222201    0.00009407   -0.00003954
     atom   76 type  1   force =     0.00076132    0.00054156   -0.00233113
     atom   77 type  2   force =    -0.00169775    0.00024382   -0.00035777
     atom   78 type  1   force =     0.00286504    0.00129750   -0.00074298
     atom   79 type  2   force =    -0.00011944    0.00103688    0.00184714
     atom   80 type  1   force =    -0.00300229    0.00066661   -0.00133521
     atom   81 type  2   force =    -0.00139097   -0.00203438    0.00160190
     atom   82 type  1   force =    -0.00034936   -0.00079791   -0.00013261
     atom   83 type  2   force =     0.00026647    0.00090050   -0.00012225
     atom   84 type  1   force =    -0.00176298    0.00312163    0.00165551
     atom   85 type  2   force =     0.00155179   -0.00298660    0.00151243
     atom   86 type  1   force =     0.00018035    0.00119832    0.00375332
     atom   87 type  2   force =    -0.00044965   -0.00118174    0.00354839
     atom   88 type  1   force =     0.00114098   -0.00057619    0.00095734
     atom   89 type  2   force =    -0.00134092    0.00067117    0.00096011
     atom   90 type  1   force =    -0.00229881    0.00007494   -0.00008076
     atom   91 type  2   force =    -0.00064756   -0.00219806    0.00045160
     atom   92 type  1   force =     0.00153398   -0.00023001   -0.00032578
     atom   93 type  2   force =    -0.00090315   -0.00029419   -0.00271272
     atom   94 type  1   force =    -0.00021352   -0.00075608    0.00177493
     atom   95 type  2   force =    -0.00296032   -0.00151161   -0.00086350
     atom   96 type  1   force =     0.00112754    0.00228986    0.00150943
     atom   97 type  2   force =     0.00234578   -0.00069015   -0.00147453
     atom   98 type  1   force =     0.00229134    0.00396062   -0.00037911
     atom   99 type  2   force =    -0.00098213    0.00472690   -0.00126807
     atom  100 type  1   force =    -0.00112897    0.00137569   -0.00525698
     atom  101 type  2   force =    -0.00315515   -0.00130675   -0.00079415
     atom  102 type  1   force =    -0.00160378   -0.00042636   -0.00122322
     atom  103 type  2   force =    -0.00079066    0.00079530    0.00308128
     atom  104 type  1   force =    -0.00000688   -0.00145728    0.00571676
     atom  105 type  2   force =    -0.00433672    0.00093291    0.00046172
     atom  106 type  1   force =     0.00156038   -0.00139525   -0.00060289
     atom  107 type  2   force =    -0.00182005   -0.00366200   -0.00113385
     atom  108 type  1   force =    -0.00034925   -0.00241653   -0.00371517
     atom  109 type  2   force =    -0.00256226   -0.00113070    0.00074116
     atom  110 type  1   force =     0.00160208    0.00345561    0.00129329
     atom  111 type  2   force =     0.00319138    0.00246609    0.00323861
     atom  112 type  1   force =    -0.00106156    0.00114684    0.00032758
     atom  113 type  2   force =    -0.00170231    0.00030346    0.00072463
     atom  114 type  1   force =    -0.00017315   -0.00164405   -0.00326414
     atom  115 type  2   force =    -0.00114287   -0.00279227   -0.00249363
     atom  116 type  1   force =    -0.00153199   -0.00113842    0.00412256
     atom  117 type  2   force =    -0.00255636    0.00303247   -0.00065161
     atom  118 type  1   force =     0.00230441    0.00098747    0.00310738
     atom  119 type  2   force =     0.00347509   -0.00138154    0.00126151
     atom  120 type  1   force =    -0.00001356    0.00007723   -0.00067834
     atom  121 type  2   force =     0.00071824    0.00013940   -0.00011028
     atom  122 type  1   force =     0.00053284    0.00144432   -0.00225281
     atom  123 type  2   force =     0.00123721   -0.00108182    0.00147093
     atom  124 type  1   force =     0.00116752    0.00226018    0.00205345
     atom  125 type  2   force =     0.00060188    0.00295264   -0.00382624
     atom  126 type  1   force =     0.00028007   -0.00103720    0.00036956
     atom  127 type  2   force =     0.00390132   -0.00186292   -0.00160864
     atom  128 type  1   force =    -0.00099686    0.00205107    0.00161434
     atom  129 type  2   force =    -0.00077336   -0.00197317    0.00489526

     Total force =     0.053741     Total SCF correction =     0.000333


     Computing stress (Cartesian axis) and pressure


     negative rho (up, down):  1.709E-03 1.863E-03
          total   stress  (Ry/bohr**3)                   (kbar)     P=      -19.76
  -0.00014793   0.00000324  -0.00000633          -21.76        0.48       -0.93
   0.00000324  -0.00009964   0.00000536            0.48      -14.66        0.79
  -0.00000633   0.00000536  -0.00015546           -0.93        0.79      -22.87


     Writing output data file /scratch/bxp912/fepdslab08.save/
 
     init_run     :      9.21s CPU      9.70s WALL (       1 calls)
     electrons    :   1428.71s CPU   1467.84s WALL (       1 calls)
     forces       :      5.16s CPU      5.32s WALL (       1 calls)
     stress       :    114.65s CPU    115.35s WALL (       1 calls)

     Called by init_run:
     wfcinit      :      5.91s CPU      6.18s WALL (       1 calls)
     potinit      :      1.22s CPU      1.29s WALL (       1 calls)
     hinit0       :      1.27s CPU      1.30s WALL (       1 calls)

     Called by electrons:
     c_bands      :   1180.11s CPU   1205.65s WALL (      66 calls)
     sum_band     :    172.65s CPU    179.38s WALL (      66 calls)
     v_of_rho     :      9.84s CPU     10.59s WALL (      67 calls)
     newd         :     18.61s CPU     22.61s WALL (      67 calls)
     PAW_pot      :     40.11s CPU     41.05s WALL (      67 calls)
     mix_rho      :      6.77s CPU      7.25s WALL (      66 calls)

     Called by c_bands:
     init_us_2    :      6.65s CPU      6.76s WALL (     270 calls)
     regterg      :   1156.02s CPU   1177.47s WALL (     132 calls)

     Called by *egterg:
     rdiaghg      :    122.24s CPU    123.48s WALL (     741 calls)
     h_psi        :    472.01s CPU    478.26s WALL (     743 calls)
     s_psi        :     90.90s CPU     92.92s WALL (     743 calls)
     g_psi        :      1.67s CPU      1.69s WALL (     609 calls)

     Called by h_psi:
     h_psi:calbec :    118.44s CPU    119.20s WALL (     743 calls)
     vloc_psi     :    253.74s CPU    256.68s WALL (     743 calls)
     add_vuspsi   :     96.33s CPU     98.85s WALL (     743 calls)

     General routines
     calbec       :    176.83s CPU    178.02s WALL (     885 calls)
     fft          :      9.46s CPU      9.73s WALL (    1434 calls)
     ffts         :      2.75s CPU      2.80s WALL (    1379 calls)
     fftw         :    256.09s CPU    259.05s WALL (  424352 calls)
     interpolate  :      1.22s CPU      1.25s WALL (     134 calls)
 
     Parallel routines
     fft_scatt_xy :     35.84s CPU     36.17s WALL (  427165 calls)
     fft_scatt_yz :    171.75s CPU    174.11s WALL (  427165 calls)
 
     PWSCF        :  26m 1.35s CPU  26m43.24s WALL

 
   This run was terminated on:   4: 5:15  22May2022            

=------------------------------------------------------------------------------=
   JOB DONE.
=------------------------------------------------------------------------------=
