
     Program PWSCF v.6.7MaX starts on 12May2022 at 14:15:41 

     This program is part of the open-source Quantum ESPRESSO suite
     for quantum simulation of materials; please cite
         "P. Giannozzi et al., J. Phys.:Condens. Matter 21 395502 (2009);
         "P. Giannozzi et al., J. Phys.:Condens. Matter 29 465901 (2017);
          URL http://www.quantum-espresso.org", 
     in publications or presentations arising from this work. More details at
     http://www.quantum-espresso.org/quote

     Parallel version (MPI & OpenMP), running on      72 processor cores
     Number of MPI processes:                72
     Threads/MPI process:                     1

     MPI processes distributed on     1 nodes
     R & G space division:  proc/nbgrp/npool/nimage =      72
     Reading input from fepdslab4.in
Warning: card &CELL ignored
Warning: card CELL_DYNAMICS = 'BFGS', ignored
Warning: card CELL_FACTOR = 2.0, ignored
Warning: card PRESS = 0.0, ignored
Warning: card / ignored

     Current dimensions of program PWSCF are:
     Max number of different atomic species (ntypx) = 10
     Max number of k-points (npk) =  40000
     Max angular momentum in pseudopotentials (lmaxx) =  3
     file Fe.pbe-spn-kjpaw_psl.1.0.0.UPF: wavefunction(s)  3P 3D renormalized
     file Fe.pbe-spn-kjpaw_psl.1.0.0.UPF: wavefunction(s)  3P 3D renormalized
     file Pd.pbe-spn-kjpaw_psl.1.0.0.UPF: wavefunction(s)  4S 5S 4D renormalized

     gamma-point specific algorithms are used

     Subspace diagonalization in iterative solution of the eigenvalue problem:
     one sub-group per band group will be used
     ELPA distributed-memory algorithm (size of sub-group:  8*  8 procs)

 
     Parallelization info
     --------------------
     sticks:   dense  smooth     PW     G-vecs:    dense   smooth      PW
     Min         333     220     53                38016    20412    2546
     Max         336     222     56                38038    20426    2560
     Sum       24049   15899   3985              2738239  1469969  183817
 


     bravais-lattice index     =            0
     lattice parameter (alat)  =      25.8600  a.u.
     unit-cell volume          =   18186.5006 (a.u.)^3
     number of atoms/cell      =          129
     number of atomic types    =            3
     number of electrons       =      2066.00
     number of Kohn-Sham states=         1240
     kinetic-energy cutoff     =      71.0000  Ry
     charge density cutoff     =     430.0000  Ry
     scf convergence threshold =      1.0E-06
     mixing beta               =       0.3000
     number of iterations used =           10  local-TF  mixing
     Exchange-correlation= SLA  PW   PBX  PBC
                           (   1   4   3   4   0   0   0)

     celldm(1)=  25.860000  celldm(2)=   0.000000  celldm(3)=   0.000000
     celldm(4)=   0.000000  celldm(5)=   0.000000  celldm(6)=   0.000000

     crystal axes: (cart. coord. in units of alat)
               a(1) = (   1.000000   0.000000   0.000000 )  
               a(2) = (   0.000000   1.051631   0.000000 )  
               a(3) = (   0.000000   0.000000   1.000000 )  

     reciprocal axes: (cart. coord. in units 2 pi/alat)
               b(1) = (  1.000000  0.000000  0.000000 )  
               b(2) = (  0.000000  0.950903  0.000000 )  
               b(3) = (  0.000000  0.000000  1.000000 )  


     PseudoPot. # 1 for Fe read from file:
     /rds/homes/b/bxp912/pp/Fe.pbe-spn-kjpaw_psl.1.0.0.UPF
     MD5 check sum: 42f43b795421b414b0dc916aa790dbcb
     Pseudo is Projector augmented-wave + core cor, Zval = 16.0
     Generated using &quot;atomic&quot; code by A. Dal Corso  v.6.3
     Shape of augmentation charge: PSQ
     Using radial grid of 1191 points,  6 beta functions with: 
                l(1) =   0
                l(2) =   0
                l(3) =   1
                l(4) =   1
                l(5) =   2
                l(6) =   2
     Q(r) pseudized with 0 coefficients 


     PseudoPot. # 2 for Fe read from file:
     /rds/homes/b/bxp912/pp/Fe.pbe-spn-kjpaw_psl.1.0.0.UPF
     MD5 check sum: 42f43b795421b414b0dc916aa790dbcb
     Pseudo is Projector augmented-wave + core cor, Zval = 16.0
     Generated using &quot;atomic&quot; code by A. Dal Corso  v.6.3
     Shape of augmentation charge: PSQ
     Using radial grid of 1191 points,  6 beta functions with: 
                l(1) =   0
                l(2) =   0
                l(3) =   1
                l(4) =   1
                l(5) =   2
                l(6) =   2
     Q(r) pseudized with 0 coefficients 


     PseudoPot. # 3 for Pd read from file:
     /rds/homes/b/bxp912/pp/Pd.pbe-spn-kjpaw_psl.1.0.0.UPF
     MD5 check sum: 790f2ebce206edfd9790dcb9844eca51
     Pseudo is Projector augmented-wave + core cor, Zval = 18.0
     Generated using &quot;atomic&quot; code by A. Dal Corso  v.6.3
     Shape of augmentation charge: PSQ
     Using radial grid of 1235 points,  6 beta functions with: 
                l(1) =   0
                l(2) =   0
                l(3) =   1
                l(4) =   1
                l(5) =   2
                l(6) =   2
     Q(r) pseudized with 0 coefficients 


     atomic species   valence    mass     pseudopotential
        Fe1           16.00    55.84500     Fe( 1.00)
        Fe2           16.00    55.84500     Fe( 1.00)
        Pd            18.00   106.42000     Pd( 1.00)

     Starting magnetic structure 
     atomic species   magnetization
        Fe1          0.100
        Fe2         -0.100
        Pd           0.001

     No symmetry found



   Cartesian axes

     site n.     atom                  positions (alat units)
         1           Pd  tau(   1) = (   0.1425366   0.1152741   0.1753095  )
         2           Fe1 tau(   2) = (   0.0587515   0.0653881   0.3211198  )
         3           Fe2 tau(   3) = (   0.1884265   0.2002713   0.3214448  )
         4           Fe1 tau(   4) = (   0.1868213   0.0655646   0.4421276  )
         5           Fe2 tau(   5) = (   0.0624952   0.1980629   0.4424469  )
         6           Fe1 tau(   6) = (   0.0623234   0.0655267   0.5697271  )
         7           Fe2 tau(   7) = (   0.1876610   0.1975943   0.5698145  )
         8           Fe1 tau(   8) = (   0.1882185   0.0650035   0.6879009  )
         9           Fe2 tau(   9) = (   0.0616632   0.1980291   0.6879420  )
        10           Fe1 tau(  10) = (   0.0653597   0.3265762   0.3172267  )
        11           Fe2 tau(  11) = (   0.1877413   0.4579090   0.3175394  )
        12           Fe1 tau(  12) = (   0.1881227   0.3296492   0.4412225  )
        13           Fe2 tau(  13) = (   0.0633903   0.4595175   0.4385688  )
        14           Fe1 tau(  14) = (   0.0628268   0.3296102   0.5678640  )
        15           Fe2 tau(  15) = (   0.1885537   0.4615096   0.5682187  )
        16           Fe1 tau(  16) = (   0.1887326   0.3305664   0.6874596  )
        17           Fe2 tau(  17) = (   0.0603308   0.4618776   0.6862421  )
        18           Fe1 tau(  18) = (   0.0648519   0.5907106   0.3145093  )
        19           Fe2 tau(  19) = (   0.1847510   0.7238107   0.3145456  )
        20           Fe1 tau(  20) = (   0.1863681   0.5909977   0.4371267  )
        21           Fe2 tau(  21) = (   0.0633682   0.7236125   0.4371464  )
        22           Fe1 tau(  22) = (   0.0615849   0.5918936   0.5662034  )
        23           Fe2 tau(  23) = (   0.1882586   0.7226899   0.5660552  )
        24           Fe1 tau(  24) = (   0.1887997   0.5925453   0.6861716  )
        25           Fe2 tau(  25) = (   0.0613274   0.7219977   0.6862125  )
        26           Fe1 tau(  26) = (   0.0618357   0.8560935   0.3172000  )
        27           Fe2 tau(  27) = (   0.1829530   0.9895025   0.3139428  )
        28           Fe1 tau(  28) = (   0.1862919   0.8555747   0.4379183  )
        29           Fe2 tau(  29) = (   0.0618572   0.9855343   0.4406165  )
        30           Fe1 tau(  30) = (   0.0613876   0.8531658   0.5679772  )
        31           Fe2 tau(  31) = (   0.1869233   0.9851356   0.5677120  )
        32           Fe1 tau(  32) = (   0.1896322   0.8527645   0.6860337  )
        33           Fe2 tau(  33) = (   0.0612834   0.9839846   0.6875207  )
        34           Fe1 tau(  34) = (   0.3076371   0.0696373   0.3122286  )
        35           Fe2 tau(  35) = (   0.4357117   0.1980603   0.3171939  )
        36           Fe1 tau(  36) = (   0.4341488   0.0657210   0.4341951  )
        37           Fe2 tau(  37) = (   0.3121648   0.1978698   0.4418603  )
        38           Fe1 tau(  38) = (   0.3124073   0.0653502   0.5666112  )
        39           Fe2 tau(  39) = (   0.4385533   0.1968925   0.5660486  )
        40           Fe1 tau(  40) = (   0.4380091   0.0657438   0.6859902  )
        41           Fe2 tau(  41) = (   0.3146724   0.1973275   0.6859048  )
        42           Fe1 tau(  42) = (   0.3112557   0.3275738   0.3170910  )
        43           Fe2 tau(  43) = (   0.4354886   0.4597974   0.3147106  )
        44           Fe1 tau(  44) = (   0.4374791   0.3293042   0.4369893  )
        45           Fe2 tau(  45) = (   0.3125364   0.4604356   0.4366549  )
        46           Fe1 tau(  46) = (   0.3141732   0.3293478   0.5679259  )
        47           Fe2 tau(  47) = (   0.4390386   0.4604040   0.5632767  )
        48           Fe1 tau(  48) = (   0.4403086   0.3292951   0.6845898  )
        49           Fe2 tau(  49) = (   0.3159177   0.4625217   0.6855273  )
        50           Fe1 tau(  50) = (   0.3083587   0.5903099   0.3147277  )
        51           Fe2 tau(  51) = (   0.4339295   0.7233087   0.3130231  )
        52           Fe1 tau(  52) = (   0.4358847   0.5924128   0.4322183  )
        53           Fe2 tau(  53) = (   0.3104159   0.7228918   0.4334436  )
        54           Fe1 tau(  54) = (   0.3142966   0.5918280   0.5641361  )
        55           Fe2 tau(  55) = (   0.4385180   0.7234213   0.5598951  )
        56           Fe1 tau(  56) = (   0.4419191   0.5923939   0.6824908  )
        57           Fe2 tau(  57) = (   0.3162141   0.7223454   0.6842751  )
        58           Fe1 tau(  58) = (   0.3074024   0.8548895   0.3147790  )
        59           Fe2 tau(  59) = (   0.4344514   0.9868630   0.3150403  )
        60           Fe1 tau(  60) = (   0.4356335   0.8547100   0.4315209  )
        61           Fe2 tau(  61) = (   0.3101231   0.9863643   0.4363794  )
        62           Fe1 tau(  62) = (   0.3137980   0.8546705   0.5632611  )
        63           Fe2 tau(  63) = (   0.4377077   0.9869231   0.5623578  )
        64           Fe1 tau(  64) = (   0.4393286   0.8535281   0.6828982  )
        65           Fe2 tau(  65) = (   0.3147963   0.9849942   0.6859368  )
        66           Fe1 tau(  66) = (   0.5616138   0.0664335   0.3146916  )
        67           Fe2 tau(  67) = (   0.6884049   0.1964824   0.3148346  )
        68           Fe1 tau(  68) = (   0.6885681   0.0663159   0.4352684  )
        69           Fe2 tau(  69) = (   0.5611411   0.1964240   0.4352748  )
        70           Fe1 tau(  70) = (   0.5619820   0.0659448   0.5635482  )
        71           Fe2 tau(  71) = (   0.6874432   0.1968268   0.5641102  )
        72           Fe1 tau(  72) = (   0.6855858   0.0654998   0.6850881  )
        73           Fe2 tau(  73) = (   0.5638040   0.1972169   0.6852842  )
        74           Fe1 tau(  74) = (   0.5607509   0.3265340   0.3139843  )
        75           Fe2 tau(  75) = (   0.6872354   0.4585088   0.3123752  )
        76           Fe1 tau(  76) = (   0.6875594   0.3276299   0.4335896  )
        77           Fe2 tau(  77) = (   0.5625961   0.4595520   0.4321368  )
        78           Fe1 tau(  78) = (   0.5632705   0.3282677   0.5635703  )
        79           Fe2 tau(  79) = (   0.6879817   0.4596075   0.5599214  )
        80           Fe1 tau(  80) = (   0.6882353   0.3288574   0.6849967  )
        81           Fe2 tau(  81) = (   0.5651853   0.4612490   0.6822433  )
        82           Fe1 tau(  82) = (   0.5612595   0.5916576   0.3122746  )
        83           Fe2 tau(  83) = (   0.6887743   0.7228831   0.3123244  )
        84           Fe1 tau(  84) = (   0.6883236   0.5904996   0.4294597  )
        85           Fe2 tau(  85) = (   0.5615383   0.7241508   0.4293434  )
        86           Fe1 tau(  86) = (   0.5630264   0.5915132   0.5576529  )
        87           Fe2 tau(  87) = (   0.6867405   0.7231521   0.5577775  )
        88           Fe1 tau(  88) = (   0.6857902   0.5920076   0.6805737  )
        89           Fe2 tau(  89) = (   0.5637901   0.7227363   0.6805291  )
        90           Fe1 tau(  90) = (   0.5626362   0.8561046   0.3121969  )
        91           Fe2 tau(  91) = (   0.6891343   0.9880418   0.3141519  )
        92           Fe1 tau(  92) = (   0.6872507   0.8551077   0.4321071  )
        93           Fe2 tau(  93) = (   0.5618631   0.9869943   0.4333065  )
        94           Fe1 tau(  94) = (   0.5617368   0.8550051   0.5596739  )
        95           Fe2 tau(  95) = (   0.6864801   0.9862486   0.5634570  )
        96           Fe1 tau(  96) = (   0.6844995   0.8533385   0.6820773  )
        97           Fe2 tau(  97) = (   0.5612864   0.9855678   0.6846505  )
        98           Fe1 tau(  98) = (   0.8145252   0.0648759   0.3171186  )
        99           Fe2 tau(  99) = (   0.9402188   0.1950601   0.3164839  )
       100           Fe1 tau( 100) = (   0.9374832   0.0651983   0.4423127  )
       101           Fe2 tau( 101) = (   0.8144773   0.1972618   0.4355587  )
       102           Fe1 tau( 102) = (   0.8110658   0.0658411   0.5663854  )
       103           Fe2 tau( 103) = (   0.9371201   0.1977054   0.5670544  )
       104           Fe1 tau( 104) = (   0.9352792   0.0655246   0.6857716  )
       105           Fe2 tau( 105) = (   0.8116171   0.1969980   0.6862948  )
       106           Fe1 tau( 106) = (   0.8150804   0.3280317   0.3151113  )
       107           Fe2 tau( 107) = (   0.9421429   0.4596402   0.3151684  )
       108           Fe1 tau( 108) = (   0.9387564   0.3287418   0.4373695  )
       109           Fe2 tau( 109) = (   0.8139475   0.4599326   0.4319884  )
       110           Fe1 tau( 110) = (   0.8116104   0.3277501   0.5631183  )
       111           Fe2 tau( 111) = (   0.9358814   0.4600430   0.5637519  )
       112           Fe1 tau( 112) = (   0.9349587   0.3296020   0.6860215  )
       113           Fe2 tau( 113) = (   0.8102864   0.4611700   0.6833021  )
       114           Fe1 tau( 114) = (   0.8159084   0.5911864   0.3130823  )
       115           Fe2 tau( 115) = (   0.9412610   0.7242602   0.3148148  )
       116           Fe1 tau( 116) = (   0.9393584   0.5917595   0.4337111  )
       117           Fe2 tau( 117) = (   0.8139347   0.7222047   0.4324709  )
       118           Fe1 tau( 118) = (   0.8112426   0.5912370   0.5601288  )
       119           Fe2 tau( 119) = (   0.9356265   0.7227141   0.5643328  )
       120           Fe1 tau( 120) = (   0.9336551   0.5923087   0.6844350  )
       121           Fe2 tau( 121) = (   0.8078635   0.7222525   0.6825759  )
       122           Fe1 tau( 122) = (   0.8143703   0.8548553   0.3146769  )
       123           Fe2 tau( 123) = (   0.9388847   0.9870538   0.3171989  )
       124           Fe1 tau( 124) = (   0.9373427   0.8541441   0.4366752  )
       125           Fe2 tau( 125) = (   0.8125994   0.9853090   0.4370552  )
       126           Fe1 tau( 126) = (   0.8108362   0.8541803   0.5632913  )
       127           Fe2 tau( 127) = (   0.9358746   0.9851837   0.5680012  )
       128           Fe1 tau( 128) = (   0.9341019   0.8520056   0.6853792  )
       129           Fe2 tau( 129) = (   0.8094919   0.9851394   0.6846363  )

     number of k points=     1  Marzari-Vanderbilt smearing, width (Ry)=  0.0400
                       cart. coord. in units 2pi/alat
        k(    1) = (   0.0000000   0.0000000   0.0000000), wk =   1.0000000

     Dense  grid:  1369120 G-vectors     FFT dimensions: ( 180, 180, 180)

     Smooth grid:   734985 G-vectors     FFT dimensions: ( 144, 150, 144)

     Estimated max dynamical RAM per process >     318.96 MB

     Estimated total dynamical RAM >      22.43 GB

     Check: negative core charge=   -0.000004
     Generating pointlists ...
     new r_m :   0.0707 (alat units)  1.8289 (a.u.) for type    1
     new r_m :   0.0709 (alat units)  1.8345 (a.u.) for type    2
     new r_m :   0.0723 (alat units)  1.8686 (a.u.) for type    3

     Initial potential from superposition of free atoms

     starting charge 2065.94361, renormalised to 2066.00000

     negative rho (up, down):  1.765E-04 1.765E-04
     Starting wfcs are 1290 randomized atomic wfcs
     Checking if some PAW data can be deallocated... 

     total cpu time spent up to now is       13.1 secs

     Self-consistent Calculation

     iteration #  1     ecut=    71.00 Ry     beta= 0.30
     Davidson diagonalization with overlap
     ethr =  1.00E-02,  avg # of iterations =  6.5

     negative rho (up, down):  1.137E+00 2.857E+00

     total cpu time spent up to now is       44.7 secs

     total energy              =  -42628.77029608 Ry
     estimated scf accuracy    <     716.57555619 Ry

     total magnetization       =    -2.92 Bohr mag/cell
     absolute magnetization    =   271.07 Bohr mag/cell

     iteration #  2     ecut=    71.00 Ry     beta= 0.30
     Davidson diagonalization with overlap
     ethr =  1.00E-02,  avg # of iterations =  3.5

     negative rho (up, down):  8.958E-01 2.201E+00

     total cpu time spent up to now is       66.2 secs

     total energy              =  -42639.14040293 Ry
     estimated scf accuracy    <     212.77174097 Ry

     total magnetization       =     1.81 Bohr mag/cell
     absolute magnetization    =   174.97 Bohr mag/cell

     iteration #  3     ecut=    71.00 Ry     beta= 0.30
     Davidson diagonalization with overlap
     ethr =  1.00E-02,  avg # of iterations =  1.5

     negative rho (up, down):  7.780E-01 1.917E+00

     total cpu time spent up to now is       85.6 secs

     total energy              =  -42650.37530157 Ry
     estimated scf accuracy    <     248.23962188 Ry

     total magnetization       =     0.82 Bohr mag/cell
     absolute magnetization    =   198.50 Bohr mag/cell

     iteration #  4     ecut=    71.00 Ry     beta= 0.30
     Davidson diagonalization with overlap
     ethr =  1.00E-02,  avg # of iterations =  1.0

     negative rho (up, down):  5.380E-01 1.336E+00

     total cpu time spent up to now is      103.4 secs

     total energy              =  -42651.39666189 Ry
     estimated scf accuracy    <      76.18000260 Ry

     total magnetization       =     0.34 Bohr mag/cell
     absolute magnetization    =   201.94 Bohr mag/cell

     iteration #  5     ecut=    71.00 Ry     beta= 0.30
     Davidson diagonalization with overlap
     ethr =  3.69E-03,  avg # of iterations =  1.0

     negative rho (up, down):  3.123E-01 7.667E-01

     total cpu time spent up to now is      121.2 secs

     total energy              =  -42651.83822345 Ry
     estimated scf accuracy    <      73.90494239 Ry

     total magnetization       =    -1.37 Bohr mag/cell
     absolute magnetization    =   206.78 Bohr mag/cell

     iteration #  6     ecut=    71.00 Ry     beta= 0.30
     Davidson diagonalization with overlap
     ethr =  3.58E-03,  avg # of iterations =  1.0

     negative rho (up, down):  5.716E-02 1.414E-01

     total cpu time spent up to now is      138.8 secs

     total energy              =  -42652.08867321 Ry
     estimated scf accuracy    <      43.48368682 Ry

     total magnetization       =    -1.43 Bohr mag/cell
     absolute magnetization    =   211.45 Bohr mag/cell

     iteration #  7     ecut=    71.00 Ry     beta= 0.30
     Davidson diagonalization with overlap
     ethr =  2.10E-03,  avg # of iterations =  1.5

     negative rho (up, down):  7.769E-03 1.502E-02

     total cpu time spent up to now is      158.9 secs

     total energy              =  -42652.04616352 Ry
     estimated scf accuracy    <      28.59710004 Ry

     total magnetization       =    -0.68 Bohr mag/cell
     absolute magnetization    =   218.29 Bohr mag/cell

     iteration #  8     ecut=    71.00 Ry     beta= 0.30
     Davidson diagonalization with overlap
     ethr =  1.38E-03,  avg # of iterations =  2.0

     negative rho (up, down):  7.865E-02 1.851E-01

     total cpu time spent up to now is      179.6 secs

     total energy              =  -42651.73134964 Ry
     estimated scf accuracy    <      11.05839310 Ry

     total magnetization       =    -1.10 Bohr mag/cell
     absolute magnetization    =   225.49 Bohr mag/cell

     iteration #  9     ecut=    71.00 Ry     beta= 0.30
     Davidson diagonalization with overlap
     ethr =  5.35E-04,  avg # of iterations =  2.5

     negative rho (up, down):  9.955E-02 2.395E-01

     total cpu time spent up to now is      200.2 secs

     total energy              =  -42651.75530639 Ry
     estimated scf accuracy    <       6.08371768 Ry

     total magnetization       =    -0.92 Bohr mag/cell
     absolute magnetization    =   229.49 Bohr mag/cell

     iteration # 10     ecut=    71.00 Ry     beta= 0.30
     Davidson diagonalization with overlap
     ethr =  2.94E-04,  avg # of iterations = 11.0

     negative rho (up, down):  3.432E-02 7.800E-02

     total cpu time spent up to now is      224.7 secs

     total energy              =  -42651.99525504 Ry
     estimated scf accuracy    <       3.55605442 Ry

     total magnetization       =    -0.34 Bohr mag/cell
     absolute magnetization    =   231.14 Bohr mag/cell

     iteration # 11     ecut=    71.00 Ry     beta= 0.30
     Davidson diagonalization with overlap
     c_bands:  1 eigenvalues not converged
     ethr =  1.72E-04,  avg # of iterations = 11.0

     negative rho (up, down):  3.451E-03 5.860E-03

     total cpu time spent up to now is      248.4 secs

     total energy              =  -42652.09216038 Ry
     estimated scf accuracy    <       2.04986673 Ry

     total magnetization       =     0.18 Bohr mag/cell
     absolute magnetization    =   229.83 Bohr mag/cell

     iteration # 12     ecut=    71.00 Ry     beta= 0.30
     Davidson diagonalization with overlap
     ethr =  9.92E-05,  avg # of iterations =  2.0

     negative rho (up, down):  1.326E-03 1.416E-03

     total cpu time spent up to now is      269.4 secs

     total energy              =  -42652.08745359 Ry
     estimated scf accuracy    <       1.10726959 Ry

     total magnetization       =     0.24 Bohr mag/cell
     absolute magnetization    =   228.61 Bohr mag/cell

     iteration # 13     ecut=    71.00 Ry     beta= 0.30
     Davidson diagonalization with overlap
     ethr =  5.36E-05,  avg # of iterations =  2.0

     negative rho (up, down):  1.293E-03 1.392E-03

     total cpu time spent up to now is      289.8 secs

     total energy              =  -42652.04560936 Ry
     estimated scf accuracy    <       0.82318881 Ry

     total magnetization       =     0.42 Bohr mag/cell
     absolute magnetization    =   228.37 Bohr mag/cell

     iteration # 14     ecut=    71.00 Ry     beta= 0.30
     Davidson diagonalization with overlap
     ethr =  3.98E-05,  avg # of iterations =  2.0

     negative rho (up, down):  2.946E-03 3.639E-03

     total cpu time spent up to now is      310.5 secs

     total energy              =  -42651.93899852 Ry
     estimated scf accuracy    <       0.67737034 Ry

     total magnetization       =     0.49 Bohr mag/cell
     absolute magnetization    =   229.04 Bohr mag/cell

     iteration # 15     ecut=    71.00 Ry     beta= 0.30
     Davidson diagonalization with overlap
     c_bands:  4 eigenvalues not converged
     c_bands:  5 eigenvalues not converged
     ethr =  3.28E-05,  avg # of iterations = 20.0

     negative rho (up, down):  5.161E-03 5.696E-03

     total cpu time spent up to now is      338.2 secs

     total energy              =  -42651.91821181 Ry
     estimated scf accuracy    <       0.49483439 Ry

     total magnetization       =     0.65 Bohr mag/cell
     absolute magnetization    =   229.60 Bohr mag/cell

     iteration # 16     ecut=    71.00 Ry     beta= 0.30
     Davidson diagonalization with overlap
     c_bands:  2 eigenvalues not converged
     ethr =  2.40E-05,  avg # of iterations = 13.5

     negative rho (up, down):  1.161E-03 1.245E-03

     total cpu time spent up to now is      362.4 secs

     total energy              =  -42651.90875812 Ry
     estimated scf accuracy    <       0.43434214 Ry

     total magnetization       =     0.67 Bohr mag/cell
     absolute magnetization    =   229.50 Bohr mag/cell

     iteration # 17     ecut=    71.00 Ry     beta= 0.30
     Davidson diagonalization with overlap
     ethr =  2.10E-05,  avg # of iterations =  5.5

     negative rho (up, down):  4.031E-03 3.723E-03

     total cpu time spent up to now is      382.8 secs

     total energy              =  -42651.88320425 Ry
     estimated scf accuracy    <       0.29280048 Ry

     total magnetization       =     0.54 Bohr mag/cell
     absolute magnetization    =   229.10 Bohr mag/cell

     iteration # 18     ecut=    71.00 Ry     beta= 0.30
     Davidson diagonalization with overlap
     ethr =  1.42E-05,  avg # of iterations =  2.0

     negative rho (up, down):  3.656E-02 3.399E-02

     total cpu time spent up to now is      403.3 secs

     total energy              =  -42651.82641305 Ry
     estimated scf accuracy    <       0.24661997 Ry

     total magnetization       =     0.41 Bohr mag/cell
     absolute magnetization    =   228.98 Bohr mag/cell

     iteration # 19     ecut=    71.00 Ry     beta= 0.30
     Davidson diagonalization with overlap
     ethr =  1.19E-05,  avg # of iterations =  2.0

     negative rho (up, down):  8.710E-03 7.916E-03

     total cpu time spent up to now is      423.9 secs

     total energy              =  -42651.84928369 Ry
     estimated scf accuracy    <       0.24362475 Ry

     total magnetization       =     0.22 Bohr mag/cell
     absolute magnetization    =   228.34 Bohr mag/cell

     iteration # 20     ecut=    71.00 Ry     beta= 0.30
     Davidson diagonalization with overlap
     ethr =  1.18E-05,  avg # of iterations =  1.0

     negative rho (up, down):  1.232E-01 1.209E-01

     total cpu time spent up to now is      441.5 secs

     total energy              =  -42651.84634394 Ry
     estimated scf accuracy    <       0.17093487 Ry

     total magnetization       =     0.28 Bohr mag/cell
     absolute magnetization    =   228.43 Bohr mag/cell

     iteration # 21     ecut=    71.00 Ry     beta= 0.30
     Davidson diagonalization with overlap
     ethr =  8.27E-06,  avg # of iterations = 15.0

     negative rho (up, down):  8.825E-02 8.665E-02

     total cpu time spent up to now is      468.5 secs

     total energy              =  -42651.85518437 Ry
     estimated scf accuracy    <       0.07307235 Ry

     total magnetization       =     0.10 Bohr mag/cell
     absolute magnetization    =   228.25 Bohr mag/cell

     iteration # 22     ecut=    71.00 Ry     beta= 0.30
     Davidson diagonalization with overlap
     ethr =  3.54E-06,  avg # of iterations =  2.0

     negative rho (up, down):  3.466E-02 3.378E-02

     total cpu time spent up to now is      489.3 secs

     total energy              =  -42651.86617162 Ry
     estimated scf accuracy    <       0.04762719 Ry

     total magnetization       =     0.06 Bohr mag/cell
     absolute magnetization    =   228.19 Bohr mag/cell

     iteration # 23     ecut=    71.00 Ry     beta= 0.30
     Davidson diagonalization with overlap
     ethr =  2.31E-06,  avg # of iterations =  6.5

     negative rho (up, down):  3.412E-02 3.326E-02

     total cpu time spent up to now is      513.0 secs

     total energy              =  -42651.87534842 Ry
     estimated scf accuracy    <       0.04160214 Ry

     total magnetization       =    -0.08 Bohr mag/cell
     absolute magnetization    =   228.15 Bohr mag/cell

     iteration # 24     ecut=    71.00 Ry     beta= 0.30
     Davidson diagonalization with overlap
     ethr =  2.01E-06,  avg # of iterations =  2.0

     negative rho (up, down):  2.513E-02 2.453E-02

     total cpu time spent up to now is      533.8 secs

     total energy              =  -42651.88616012 Ry
     estimated scf accuracy    <       0.02176623 Ry

     total magnetization       =    -0.10 Bohr mag/cell
     absolute magnetization    =   228.26 Bohr mag/cell

     iteration # 25     ecut=    71.00 Ry     beta= 0.30
     Davidson diagonalization with overlap
     ethr =  1.05E-06,  avg # of iterations =  2.0

     negative rho (up, down):  1.549E-02 1.522E-02

     total cpu time spent up to now is      554.4 secs

     total energy              =  -42651.89659885 Ry
     estimated scf accuracy    <       0.01234282 Ry

     total magnetization       =    -0.09 Bohr mag/cell
     absolute magnetization    =   228.43 Bohr mag/cell

     iteration # 26     ecut=    71.00 Ry     beta= 0.30
     Davidson diagonalization with overlap
     ethr =  5.97E-07,  avg # of iterations =  2.0

     negative rho (up, down):  1.344E-02 1.322E-02

     total cpu time spent up to now is      576.1 secs

     total energy              =  -42651.90378948 Ry
     estimated scf accuracy    <       0.00974625 Ry

     total magnetization       =    -0.11 Bohr mag/cell
     absolute magnetization    =   228.57 Bohr mag/cell

     iteration # 27     ecut=    71.00 Ry     beta= 0.30
     Davidson diagonalization with overlap
     ethr =  4.72E-07,  avg # of iterations =  4.0

     negative rho (up, down):  1.216E-02 1.196E-02

     total cpu time spent up to now is      599.0 secs

     total energy              =  -42651.90490496 Ry
     estimated scf accuracy    <       0.00311872 Ry

     total magnetization       =    -0.09 Bohr mag/cell
     absolute magnetization    =   228.85 Bohr mag/cell

     iteration # 28     ecut=    71.00 Ry     beta= 0.30
     Davidson diagonalization with overlap
     ethr =  1.51E-07,  avg # of iterations =  2.0

     negative rho (up, down):  1.060E-02 1.042E-02

     total cpu time spent up to now is      619.5 secs

     total energy              =  -42651.90538544 Ry
     estimated scf accuracy    <       0.00230884 Ry

     total magnetization       =    -0.09 Bohr mag/cell
     absolute magnetization    =   228.88 Bohr mag/cell

     iteration # 29     ecut=    71.00 Ry     beta= 0.30
     Davidson diagonalization with overlap
     ethr =  1.12E-07,  avg # of iterations =  2.0

     negative rho (up, down):  9.871E-03 9.708E-03

     total cpu time spent up to now is      640.7 secs

     total energy              =  -42651.90615183 Ry
     estimated scf accuracy    <       0.00162680 Ry

     total magnetization       =    -0.08 Bohr mag/cell
     absolute magnetization    =   228.91 Bohr mag/cell

     iteration # 30     ecut=    71.00 Ry     beta= 0.30
     Davidson diagonalization with overlap
     ethr =  7.87E-08,  avg # of iterations =  2.0

     negative rho (up, down):  8.753E-03 8.634E-03

     total cpu time spent up to now is      661.4 secs

     total energy              =  -42651.90707667 Ry
     estimated scf accuracy    <       0.00139165 Ry

     total magnetization       =    -0.08 Bohr mag/cell
     absolute magnetization    =   228.98 Bohr mag/cell

     iteration # 31     ecut=    71.00 Ry     beta= 0.30
     Davidson diagonalization with overlap
     ethr =  6.74E-08,  avg # of iterations =  2.0

     negative rho (up, down):  8.257E-03 8.167E-03

     total cpu time spent up to now is      682.1 secs

     total energy              =  -42651.90746473 Ry
     estimated scf accuracy    <       0.00086666 Ry

     total magnetization       =    -0.07 Bohr mag/cell
     absolute magnetization    =   229.08 Bohr mag/cell

     iteration # 32     ecut=    71.00 Ry     beta= 0.30
     Davidson diagonalization with overlap
     ethr =  4.19E-08,  avg # of iterations =  2.0

     negative rho (up, down):  8.461E-03 8.380E-03

     total cpu time spent up to now is      703.2 secs

     total energy              =  -42651.90767224 Ry
     estimated scf accuracy    <       0.00074386 Ry

     total magnetization       =    -0.07 Bohr mag/cell
     absolute magnetization    =   229.15 Bohr mag/cell

     iteration # 33     ecut=    71.00 Ry     beta= 0.30
     Davidson diagonalization with overlap
     ethr =  3.60E-08,  avg # of iterations =  2.0

     negative rho (up, down):  6.972E-03 6.928E-03

     total cpu time spent up to now is      724.1 secs

     total energy              =  -42651.90778384 Ry
     estimated scf accuracy    <       0.00057917 Ry

     total magnetization       =    -0.07 Bohr mag/cell
     absolute magnetization    =   229.18 Bohr mag/cell

     iteration # 34     ecut=    71.00 Ry     beta= 0.30
     Davidson diagonalization with overlap
     ethr =  2.80E-08,  avg # of iterations =  3.5

     negative rho (up, down):  4.145E-03 4.178E-03

     total cpu time spent up to now is      745.6 secs

     total energy              =  -42651.90768856 Ry
     estimated scf accuracy    <       0.00047492 Ry

     total magnetization       =    -0.06 Bohr mag/cell
     absolute magnetization    =   229.26 Bohr mag/cell

     iteration # 35     ecut=    71.00 Ry     beta= 0.30
     Davidson diagonalization with overlap
     ethr =  2.30E-08,  avg # of iterations =  2.0

     negative rho (up, down):  3.822E-03 3.923E-03

     total cpu time spent up to now is      766.5 secs

     total energy              =  -42651.90783423 Ry
     estimated scf accuracy    <       0.00043106 Ry

     total magnetization       =    -0.06 Bohr mag/cell
     absolute magnetization    =   229.34 Bohr mag/cell

     iteration # 36     ecut=    71.00 Ry     beta= 0.30
     Davidson diagonalization with overlap
     ethr =  2.09E-08,  avg # of iterations =  3.5

     negative rho (up, down):  3.491E-03 3.607E-03

     total cpu time spent up to now is      788.3 secs

     total energy              =  -42651.90786054 Ry
     estimated scf accuracy    <       0.00031118 Ry

     total magnetization       =    -0.05 Bohr mag/cell
     absolute magnetization    =   229.42 Bohr mag/cell

     iteration # 37     ecut=    71.00 Ry     beta= 0.30
     Davidson diagonalization with overlap
     ethr =  1.51E-08,  avg # of iterations =  2.0

     negative rho (up, down):  5.178E-03 5.314E-03

     total cpu time spent up to now is      809.5 secs

     total energy              =  -42651.90793993 Ry
     estimated scf accuracy    <       0.00027814 Ry

     total magnetization       =    -0.05 Bohr mag/cell
     absolute magnetization    =   229.45 Bohr mag/cell

     iteration # 38     ecut=    71.00 Ry     beta= 0.30
     Davidson diagonalization with overlap
     ethr =  1.35E-08,  avg # of iterations =  4.0

     negative rho (up, down):  5.787E-03 5.932E-03

     total cpu time spent up to now is      831.5 secs

     total energy              =  -42651.90798069 Ry
     estimated scf accuracy    <       0.00018915 Ry

     total magnetization       =    -0.05 Bohr mag/cell
     absolute magnetization    =   229.53 Bohr mag/cell

     iteration # 39     ecut=    71.00 Ry     beta= 0.30
     Davidson diagonalization with overlap
     ethr =  9.16E-09,  avg # of iterations =  2.0

     negative rho (up, down):  6.071E-03 6.220E-03

     total cpu time spent up to now is      853.0 secs

     total energy              =  -42651.90799429 Ry
     estimated scf accuracy    <       0.00019147 Ry

     total magnetization       =    -0.06 Bohr mag/cell
     absolute magnetization    =   229.55 Bohr mag/cell

     iteration # 40     ecut=    71.00 Ry     beta= 0.30
     Davidson diagonalization with overlap
     ethr =  9.16E-09,  avg # of iterations =  2.0

     negative rho (up, down):  3.960E-03 4.116E-03

     total cpu time spent up to now is      874.3 secs

     total energy              =  -42651.90801383 Ry
     estimated scf accuracy    <       0.00011142 Ry

     total magnetization       =    -0.06 Bohr mag/cell
     absolute magnetization    =   229.57 Bohr mag/cell

     iteration # 41     ecut=    71.00 Ry     beta= 0.30
     Davidson diagonalization with overlap
     ethr =  5.39E-09,  avg # of iterations =  3.0

     negative rho (up, down):  4.237E-03 4.393E-03

     total cpu time spent up to now is      896.1 secs

     total energy              =  -42651.90801084 Ry
     estimated scf accuracy    <       0.00006211 Ry

     total magnetization       =    -0.06 Bohr mag/cell
     absolute magnetization    =   229.58 Bohr mag/cell

     iteration # 42     ecut=    71.00 Ry     beta= 0.30
     Davidson diagonalization with overlap
     ethr =  3.01E-09,  avg # of iterations =  2.0

     negative rho (up, down):  3.541E-03 3.696E-03

     total cpu time spent up to now is      916.6 secs

     total energy              =  -42651.90803336 Ry
     estimated scf accuracy    <       0.00006277 Ry

     total magnetization       =    -0.06 Bohr mag/cell
     absolute magnetization    =   229.58 Bohr mag/cell

     iteration # 43     ecut=    71.00 Ry     beta= 0.30
     Davidson diagonalization with overlap
     ethr =  3.01E-09,  avg # of iterations =  2.0

     negative rho (up, down):  2.471E-03 2.625E-03

     total cpu time spent up to now is      937.8 secs

     total energy              =  -42651.90808135 Ry
     estimated scf accuracy    <       0.00003653 Ry

     total magnetization       =    -0.07 Bohr mag/cell
     absolute magnetization    =   229.59 Bohr mag/cell

     iteration # 44     ecut=    71.00 Ry     beta= 0.30
     Davidson diagonalization with overlap
     ethr =  1.77E-09,  avg # of iterations =  4.0

     negative rho (up, down):  1.760E-03 1.915E-03

     total cpu time spent up to now is      960.4 secs

     total energy              =  -42651.90810859 Ry
     estimated scf accuracy    <       0.00002154 Ry

     total magnetization       =    -0.06 Bohr mag/cell
     absolute magnetization    =   229.58 Bohr mag/cell

     iteration # 45     ecut=    71.00 Ry     beta= 0.30
     Davidson diagonalization with overlap
     ethr =  1.04E-09,  avg # of iterations =  5.0

     negative rho (up, down):  1.571E-03 1.727E-03

     total cpu time spent up to now is      983.9 secs

     total energy              =  -42651.90810832 Ry
     estimated scf accuracy    <       0.00001751 Ry

     total magnetization       =    -0.06 Bohr mag/cell
     absolute magnetization    =   229.55 Bohr mag/cell

     iteration # 46     ecut=    71.00 Ry     beta= 0.30
     Davidson diagonalization with overlap
     ethr =  8.48E-10,  avg # of iterations =  4.0

     negative rho (up, down):  1.540E-03 1.696E-03

     total cpu time spent up to now is     1006.2 secs

     total energy              =  -42651.90811261 Ry
     estimated scf accuracy    <       0.00000888 Ry

     total magnetization       =    -0.06 Bohr mag/cell
     absolute magnetization    =   229.55 Bohr mag/cell

     iteration # 47     ecut=    71.00 Ry     beta= 0.30
     Davidson diagonalization with overlap
     ethr =  4.30E-10,  avg # of iterations =  2.0

     negative rho (up, down):  1.474E-03 1.630E-03

     total cpu time spent up to now is     1027.0 secs

     total energy              =  -42651.90811248 Ry
     estimated scf accuracy    <       0.00000821 Ry

     total magnetization       =    -0.07 Bohr mag/cell
     absolute magnetization    =   229.54 Bohr mag/cell

     iteration # 48     ecut=    71.00 Ry     beta= 0.30
     Davidson diagonalization with overlap
     ethr =  3.97E-10,  avg # of iterations =  3.5

     negative rho (up, down):  1.474E-03 1.630E-03

     total cpu time spent up to now is     1048.9 secs

     total energy              =  -42651.90811628 Ry
     estimated scf accuracy    <       0.00000413 Ry

     total magnetization       =    -0.06 Bohr mag/cell
     absolute magnetization    =   229.53 Bohr mag/cell

     iteration # 49     ecut=    71.00 Ry     beta= 0.30
     Davidson diagonalization with overlap
     ethr =  2.00E-10,  avg # of iterations =  2.5

     negative rho (up, down):  1.525E-03 1.680E-03

     total cpu time spent up to now is     1069.8 secs

     total energy              =  -42651.90812180 Ry
     estimated scf accuracy    <       0.00000392 Ry

     total magnetization       =    -0.06 Bohr mag/cell
     absolute magnetization    =   229.53 Bohr mag/cell

     iteration # 50     ecut=    71.00 Ry     beta= 0.30
     Davidson diagonalization with overlap
     ethr =  1.90E-10,  avg # of iterations =  3.0

     negative rho (up, down):  1.580E-03 1.735E-03

     total cpu time spent up to now is     1091.7 secs

     total energy              =  -42651.90812584 Ry
     estimated scf accuracy    <       0.00000282 Ry

     total magnetization       =    -0.06 Bohr mag/cell
     absolute magnetization    =   229.53 Bohr mag/cell

     iteration # 51     ecut=    71.00 Ry     beta= 0.30
     Davidson diagonalization with overlap
     ethr =  1.37E-10,  avg # of iterations =  3.5

     negative rho (up, down):  1.677E-03 1.833E-03

     total cpu time spent up to now is     1114.0 secs

     total energy              =  -42651.90812939 Ry
     estimated scf accuracy    <       0.00000268 Ry

     total magnetization       =    -0.06 Bohr mag/cell
     absolute magnetization    =   229.53 Bohr mag/cell

     iteration # 52     ecut=    71.00 Ry     beta= 0.30
     Davidson diagonalization with overlap
     ethr =  1.30E-10,  avg # of iterations =  4.0

     negative rho (up, down):  1.727E-03 1.883E-03

     total cpu time spent up to now is     1136.7 secs

     total energy              =  -42651.90813042 Ry
     estimated scf accuracy    <       0.00000157 Ry

     total magnetization       =    -0.06 Bohr mag/cell
     absolute magnetization    =   229.53 Bohr mag/cell

     iteration # 53     ecut=    71.00 Ry     beta= 0.30
     Davidson diagonalization with overlap
     ethr =  7.60E-11,  avg # of iterations =  3.0

     negative rho (up, down):  1.765E-03 1.921E-03

     total cpu time spent up to now is     1157.8 secs

     total energy              =  -42651.90813147 Ry
     estimated scf accuracy    <       0.00000127 Ry

     total magnetization       =    -0.06 Bohr mag/cell
     absolute magnetization    =   229.53 Bohr mag/cell

     iteration # 54     ecut=    71.00 Ry     beta= 0.30
     Davidson diagonalization with overlap
     ethr =  6.14E-11,  avg # of iterations =  4.0

     negative rho (up, down):  1.784E-03 1.940E-03

     total cpu time spent up to now is     1180.2 secs

     total energy              =  -42651.90813188 Ry
     estimated scf accuracy    <       0.00000107 Ry

     total magnetization       =    -0.06 Bohr mag/cell
     absolute magnetization    =   229.53 Bohr mag/cell

     iteration # 55     ecut=    71.00 Ry     beta= 0.30
     Davidson diagonalization with overlap
     ethr =  5.18E-11,  avg # of iterations =  2.0

     negative rho (up, down):  1.714E-03 1.870E-03
 
     Magnetic moment per site:
     atom:    1    charge:   15.5099    magn:   -0.0077    constr:    0.0000
     atom:    2    charge:   14.1547    magn:    2.0053    constr:    0.0000
     atom:    3    charge:   14.1743    magn:   -2.0120    constr:    0.0000
     atom:    4    charge:   14.2060    magn:    1.4113    constr:    0.0000
     atom:    5    charge:   14.2342    magn:   -1.3372    constr:    0.0000
     atom:    6    charge:   14.2303    magn:    0.9372    constr:    0.0000
     atom:    7    charge:   14.2500    magn:   -0.9093    constr:    0.0000
     atom:    8    charge:   14.0998    magn:    2.3144    constr:    0.0000
     atom:    9    charge:   14.1157    magn:   -2.3189    constr:    0.0000
     atom:   10    charge:   14.1080    magn:    2.2283    constr:    0.0000
     atom:   11    charge:   14.1385    magn:   -2.1565    constr:    0.0000
     atom:   12    charge:   14.2262    magn:    1.1246    constr:    0.0000
     atom:   13    charge:   14.2379    magn:   -1.2292    constr:    0.0000
     atom:   14    charge:   14.2246    magn:    0.9686    constr:    0.0000
     atom:   15    charge:   14.2417    magn:   -0.9406    constr:    0.0000
     atom:   16    charge:   14.0986    magn:    2.3161    constr:    0.0000
     atom:   17    charge:   14.1159    magn:   -2.3016    constr:    0.0000
     atom:   18    charge:   14.1109    magn:    2.2173    constr:    0.0000
     atom:   19    charge:   14.1292    magn:   -2.2108    constr:    0.0000
     atom:   20    charge:   14.2182    magn:    1.2128    constr:    0.0000
     atom:   21    charge:   14.2375    magn:   -1.2050    constr:    0.0000
     atom:   22    charge:   14.2171    magn:    1.0380    constr:    0.0000
     atom:   23    charge:   14.2350    magn:   -1.0608    constr:    0.0000
     atom:   24    charge:   14.1025    magn:    2.2817    constr:    0.0000
     atom:   25    charge:   14.1185    magn:   -2.2871    constr:    0.0000
     atom:   26    charge:   14.1212    magn:    2.1510    constr:    0.0000
     atom:   27    charge:   14.1030    magn:   -2.2986    constr:    0.0000
     atom:   28    charge:   14.2149    magn:    1.2662    constr:    0.0000
     atom:   29    charge:   14.2378    magn:   -1.2303    constr:    0.0000
     atom:   30    charge:   14.2215    magn:    0.9448    constr:    0.0000
     atom:   31    charge:   14.2438    magn:   -0.9523    constr:    0.0000
     atom:   32    charge:   14.1000    magn:    2.2943    constr:    0.0000
     atom:   33    charge:   14.1146    magn:   -2.3230    constr:    0.0000
     atom:   34    charge:   14.0768    magn:    2.3539    constr:    0.0000
     atom:   35    charge:   14.1334    magn:   -2.2171    constr:    0.0000
     atom:   36    charge:   14.2187    magn:    0.8218    constr:    0.0000
     atom:   37    charge:   14.2383    magn:   -1.2404    constr:    0.0000
     atom:   38    charge:   14.2270    magn:    1.0734    constr:    0.0000
     atom:   39    charge:   14.2463    magn:   -1.1033    constr:    0.0000
     atom:   40    charge:   14.1093    magn:    2.2242    constr:    0.0000
     atom:   41    charge:   14.1284    magn:   -2.2598    constr:    0.0000
     atom:   42    charge:   14.1109    magn:    2.2296    constr:    0.0000
     atom:   43    charge:   14.1237    magn:   -2.2569    constr:    0.0000
     atom:   44    charge:   14.2216    magn:    1.1080    constr:    0.0000
     atom:   45    charge:   14.2411    magn:   -1.1641    constr:    0.0000
     atom:   46    charge:   14.2277    magn:    1.0032    constr:    0.0000
     atom:   47    charge:   14.2422    magn:   -1.0936    constr:    0.0000
     atom:   48    charge:   14.1131    magn:    2.2316    constr:    0.0000
     atom:   49    charge:   14.1241    magn:   -2.2680    constr:    0.0000
     atom:   50    charge:   14.1104    magn:    2.2403    constr:    0.0000
     atom:   51    charge:   14.1213    magn:   -2.2903    constr:    0.0000
     atom:   52    charge:   14.2247    magn:    0.9795    constr:    0.0000
     atom:   53    charge:   14.2404    magn:   -1.0394    constr:    0.0000
     atom:   54    charge:   14.2196    magn:    1.0757    constr:    0.0000
     atom:   55    charge:   14.2357    magn:   -1.2003    constr:    0.0000
     atom:   56    charge:   14.1145    magn:    2.1982    constr:    0.0000
     atom:   57    charge:   14.1232    magn:   -2.2486    constr:    0.0000
     atom:   58    charge:   14.1068    magn:    2.2585    constr:    0.0000
     atom:   59    charge:   14.1186    magn:   -2.2913    constr:    0.0000
     atom:   60    charge:   14.2224    magn:    0.9442    constr:    0.0000
     atom:   61    charge:   14.2283    magn:   -1.2215    constr:    0.0000
     atom:   62    charge:   14.2150    magn:    1.1924    constr:    0.0000
     atom:   63    charge:   14.2340    magn:   -1.2033    constr:    0.0000
     atom:   64    charge:   14.1121    magn:    2.1962    constr:    0.0000
     atom:   65    charge:   14.1194    magn:   -2.2727    constr:    0.0000
     atom:   66    charge:   14.1007    magn:    2.2995    constr:    0.0000
     atom:   67    charge:   14.1178    magn:   -2.2874    constr:    0.0000
     atom:   68    charge:   14.2195    magn:    1.0553    constr:    0.0000
     atom:   69    charge:   14.2374    magn:   -1.1038    constr:    0.0000
     atom:   70    charge:   14.2154    magn:    1.1929    constr:    0.0000
     atom:   71    charge:   14.2377    magn:   -1.1245    constr:    0.0000
     atom:   72    charge:   14.1141    magn:    2.2057    constr:    0.0000
     atom:   73    charge:   14.1294    magn:   -2.2207    constr:    0.0000
     atom:   74    charge:   14.1045    magn:    2.2690    constr:    0.0000
     atom:   75    charge:   14.1154    magn:   -2.3144    constr:    0.0000
     atom:   76    charge:   14.2165    magn:    1.0727    constr:    0.0000
     atom:   77    charge:   14.2410    magn:   -1.0560    constr:    0.0000
     atom:   78    charge:   14.2206    magn:    1.1527    constr:    0.0000
     atom:   79    charge:   14.2351    magn:   -1.2534    constr:    0.0000
     atom:   80    charge:   14.1067    magn:    2.2316    constr:    0.0000
     atom:   81    charge:   14.1321    magn:   -2.1929    constr:    0.0000
     atom:   82    charge:   14.1020    magn:    2.3037    constr:    0.0000
     atom:   83    charge:   14.1188    magn:   -2.3030    constr:    0.0000
     atom:   84    charge:   14.2269    magn:    0.9044    constr:    0.0000
     atom:   85    charge:   14.2454    magn:   -0.9172    constr:    0.0000
     atom:   86    charge:   14.2159    magn:    1.2946    constr:    0.0000
     atom:   87    charge:   14.2355    magn:   -1.2798    constr:    0.0000
     atom:   88    charge:   14.1212    magn:    2.1432    constr:    0.0000
     atom:   89    charge:   14.1381    magn:   -2.1466    constr:    0.0000
     atom:   90    charge:   14.0977    magn:    2.3201    constr:    0.0000
     atom:   91    charge:   14.1219    magn:   -2.2664    constr:    0.0000
     atom:   92    charge:   14.2216    magn:    1.0556    constr:    0.0000
     atom:   93    charge:   14.2350    magn:   -1.0783    constr:    0.0000
     atom:   94    charge:   14.2157    magn:    1.2573    constr:    0.0000
     atom:   95    charge:   14.2399    magn:   -1.1340    constr:    0.0000
     atom:   96    charge:   14.1158    magn:    2.1869    constr:    0.0000
     atom:   97    charge:   14.1231    magn:   -2.2334    constr:    0.0000
     atom:   98    charge:   14.1137    magn:    2.2303    constr:    0.0000
     atom:   99    charge:   14.1195    magn:   -2.2668    constr:    0.0000
     atom:  100    charge:   14.2248    magn:    1.2155    constr:    0.0000
     atom:  101    charge:   14.2403    magn:   -1.0216    constr:    0.0000
     atom:  102    charge:   14.2275    magn:    1.1343    constr:    0.0000
     atom:  103    charge:   14.2477    magn:   -1.0236    constr:    0.0000
     atom:  104    charge:   14.1124    magn:    2.2552    constr:    0.0000
     atom:  105    charge:   14.1249    magn:   -2.2413    constr:    0.0000
     atom:  106    charge:   14.1033    magn:    2.2763    constr:    0.0000
     atom:  107    charge:   14.1265    magn:   -2.2397    constr:    0.0000
     atom:  108    charge:   14.2188    magn:    1.1426    constr:    0.0000
     atom:  109    charge:   14.2416    magn:   -0.9681    constr:    0.0000
     atom:  110    charge:   14.2174    magn:    1.1941    constr:    0.0000
     atom:  111    charge:   14.2357    magn:   -1.1689    constr:    0.0000
     atom:  112    charge:   14.1033    magn:    2.2684    constr:    0.0000
     atom:  113    charge:   14.1277    magn:   -2.2093    constr:    0.0000
     atom:  114    charge:   14.1044    magn:    2.2891    constr:    0.0000
     atom:  115    charge:   14.1284    magn:   -2.2308    constr:    0.0000
     atom:  116    charge:   14.2210    magn:    1.0624    constr:    0.0000
     atom:  117    charge:   14.2429    magn:   -1.0091    constr:    0.0000
     atom:  118    charge:   14.2169    magn:    1.1952    constr:    0.0000
     atom:  119    charge:   14.2392    magn:   -1.0551    constr:    0.0000
     atom:  120    charge:   14.1065    magn:    2.2490    constr:    0.0000
     atom:  121    charge:   14.1307    magn:   -2.2060    constr:    0.0000
     atom:  122    charge:   14.1064    magn:    2.2583    constr:    0.0000
     atom:  123    charge:   14.1290    magn:   -2.2187    constr:    0.0000
     atom:  124    charge:   14.2216    magn:    1.1659    constr:    0.0000
     atom:  125    charge:   14.2400    magn:   -1.1186    constr:    0.0000
     atom:  126    charge:   14.2230    magn:    1.0931    constr:    0.0000
     atom:  127    charge:   14.2470    magn:   -0.9646    constr:    0.0000
     atom:  128    charge:   14.1079    magn:    2.2639    constr:    0.0000
     atom:  129    charge:   14.1286    magn:   -2.2430    constr:    0.0000

     total cpu time spent up to now is     1201.0 secs

     End of self-consistent calculation

 ------ SPIN UP ------------


          k = 0.0000 0.0000 0.0000 ( 91909 PWs)   bands (ev):

   -80.3672 -80.3020 -80.2999 -80.2978 -80.2938 -80.2933 -80.2829 -80.2814
   -80.2758 -80.2649 -80.2638 -80.2618 -80.2617 -80.2588 -80.2586 -80.2557
   -80.2539 -80.2512 -80.2492 -80.2428 -80.2384 -80.2339 -80.2318 -80.2306
   -80.2207 -80.2100 -80.2084 -80.2064 -80.2026 -80.1813 -80.1767 -80.1697
   -79.7696 -79.6931 -79.6699 -79.6642 -79.6366 -79.6327 -79.6250 -79.6228
   -79.6221 -79.6157 -79.6099 -79.5971 -79.5849 -79.5844 -79.5802 -79.5643
   -79.5545 -79.5439 -79.5414 -79.5363 -79.5332 -79.5276 -79.5212 -79.5088
   -79.4939 -79.4768 -79.4695 -79.4524 -79.4501 -79.4493 -79.4267 -79.3715
   -78.3863 -78.3826 -78.3694 -78.3636 -78.3609 -78.3583 -78.3427 -78.3411
   -78.3276 -78.3258 -78.3139 -78.3121 -78.3048 -78.3047 -78.3043 -78.2935
   -78.2901 -78.2883 -78.2742 -78.2678 -78.2626 -78.2583 -78.2432 -78.2407
   -78.2404 -78.2371 -78.2292 -78.2224 -78.2205 -78.2146 -78.2066 -78.1845
   -77.8616 -77.7077 -77.7066 -77.6983 -77.6879 -77.6853 -77.6823 -77.6780
   -77.6765 -77.6752 -77.6722 -77.6721 -77.6720 -77.6683 -77.6664 -77.6662
   -77.6651 -77.6650 -77.6647 -77.6584 -77.6571 -77.6556 -77.6553 -77.6507
   -77.6493 -77.6485 -77.6445 -77.6435 -77.6425 -77.6389 -77.6361 -77.6359
   -75.4978 -46.5152 -46.4599 -46.4576 -46.4548 -46.4499 -46.4437 -46.4413
   -46.4360 -46.4300 -46.4267 -46.4208 -46.4191 -46.4183 -46.4180 -46.4175
   -46.4167 -46.4128 -46.4126 -46.4073 -46.4037 -46.4017 -46.3976 -46.3948
   -46.3888 -46.3873 -46.3768 -46.3697 -46.3672 -46.3642 -46.3638 -46.3630
   -46.3604 -46.3600 -46.3555 -46.3541 -46.3500 -46.3489 -46.3460 -46.3419
   -46.3417 -46.3411 -46.3304 -46.3302 -46.3291 -46.3282 -46.3272 -46.3251
   -46.3230 -46.3212 -46.3183 -46.3152 -46.3142 -46.3072 -46.3066 -46.2963
   -46.2955 -46.2919 -46.2830 -46.2779 -46.2742 -46.2723 -46.2719 -46.2710
   -46.2687 -46.2673 -46.2672 -46.2669 -46.2561 -46.2528 -46.2460 -46.2457
   -46.2400 -46.2383 -46.2373 -46.2364 -46.2361 -46.2331 -46.2309 -46.2282
   -46.2249 -46.2244 -46.2238 -46.2202 -46.2156 -46.2154 -46.2130 -46.2097
   -46.2074 -46.2034 -46.1920 -46.1892 -46.1871 -46.1823 -46.1656 -46.1642
   -46.1558 -45.8618 -45.8487 -45.8055 -45.7823 -45.7793 -45.7651 -45.7613
   -45.7521 -45.7490 -45.7439 -45.7417 -45.7366 -45.7340 -45.7337 -45.7270
   -45.7262 -45.7249 -45.7239 -45.7207 -45.7177 -45.7162 -45.7044 -45.7031
   -45.7012 -45.6976 -45.6962 -45.6951 -45.6942 -45.6925 -45.6910 -45.6896
   -45.6866 -45.6854 -45.6815 -45.6811 -45.6748 -45.6727 -45.6701 -45.6633
   -45.6624 -45.6620 -45.6563 -45.6544 -45.6526 -45.6480 -45.6404 -45.6370
   -45.6263 -45.6179 -45.6068 -45.6060 -45.6048 -45.5971 -45.5940 -45.5883
   -45.5840 -45.5793 -45.5789 -45.5757 -45.5691 -45.5683 -45.5674 -45.5671
   -45.5601 -45.5520 -45.5518 -45.5487 -45.5437 -45.5320 -45.5308 -45.5297
   -45.5266 -45.5235 -45.5222 -45.5218 -45.5207 -45.5200 -45.5185 -45.5179
   -45.5073 -45.5069 -45.5038 -45.5029 -45.4988 -45.4966 -45.4882 -45.4765
   -45.4762 -45.4681 -45.4637 -45.4595 -45.4589 -45.4554 -45.4411 -45.4159
   -45.3946 -44.5087 -44.5057 -44.5049 -44.5045 -44.4953 -44.4923 -44.4891
   -44.4866 -44.4861 -44.4847 -44.4813 -44.4805 -44.4787 -44.4774 -44.4755
   -44.4717 -44.4703 -44.4683 -44.4647 -44.4628 -44.4598 -44.4580 -44.4569
   -44.4563 -44.4546 -44.4539 -44.4516 -44.4509 -44.4479 -44.4472 -44.4441
   -44.4439 -44.4427 -44.4398 -44.4391 -44.4335 -44.4268 -44.4263 -44.4246
   -44.4241 -44.4207 -44.4187 -44.4179 -44.4153 -44.4102 -44.4099 -44.4095
   -44.4022 -44.3984 -44.3907 -44.3875 -44.3849 -44.3781 -44.3659 -44.3533
   -44.3524 -44.3498 -44.3479 -44.3410 -44.3378 -44.3305 -44.3292 -44.3263
   -44.3254 -44.3250 -44.3243 -44.3232 -44.3211 -44.3153 -44.3106 -44.3084
   -44.3051 -44.3029 -44.3019 -44.3002 -44.2975 -44.2952 -44.2915 -44.2908
   -44.2883 -44.2873 -44.2863 -44.2830 -44.2805 -44.2799 -44.2791 -44.2774
   -44.2768 -44.2744 -44.2740 -44.2612 -44.2611 -44.2592 -44.2571 -44.2462
   -44.2433 -44.0393 -43.9253 -43.8863 -43.8853 -43.8719 -43.8692 -43.8622
   -43.8523 -43.8503 -43.8497 -43.8482 -43.8450 -43.8418 -43.8413 -43.8392
   -43.8384 -43.8348 -43.8330 -43.8321 -43.8317 -43.8308 -43.8241 -43.8212
   -43.8209 -43.8198 -43.8131 -43.8121 -43.8084 -43.8068 -43.8056 -43.8044
   -43.7970 -43.7967 -43.7941 -43.7940 -43.7911 -43.7863 -43.7850 -43.7746
   -43.7723 -43.7659 -43.7640 -43.7612 -43.7608 -43.7594 -43.7587 -43.7561
   -43.7552 -43.7532 -43.7530 -43.7521 -43.7491 -43.7467 -43.7451 -43.7442
   -43.7436 -43.7419 -43.7419 -43.7383 -43.7357 -43.7354 -43.7316 -43.7290
   -43.7265 -43.7244 -43.7160 -43.7152 -43.7150 -43.7042 -43.7009 -43.7004
   -43.6999 -43.6986 -43.6981 -43.6980 -43.6967 -43.6959 -43.6951 -43.6937
   -43.6928 -43.6911 -43.6906 -43.6896 -43.6883 -43.6861 -43.6845 -43.6840
   -43.6834 -43.6809 -43.6794 -43.6770 -43.6756 -43.6751 -43.6749 -43.6728
   -43.6723 -41.4291 -41.2343 -41.0997  -0.2063   0.5605   0.5674   0.6432
     0.6456   1.3212   1.3250   1.3285   1.3296   1.4588   2.1424   2.1668
     2.2265   2.2389   2.3738   2.5617   2.6801   2.6830   2.6968   2.7144
     2.7193   2.7233   2.9097   2.9127   2.9760   2.9777   3.0512   3.0514
     3.0540   3.0554   3.0843   3.0978   3.3299   3.3335   3.4316   3.4566
     3.4820   3.5067   3.5119   3.5191   3.5269   3.5303   3.5371   3.5733
     3.5789   3.6218   3.6660   3.6703   3.6755   3.6777   3.6883   3.6919
     3.7121   3.7226   3.7269   3.7385   3.7514   3.7586   3.7955   3.8029
     3.8106   3.8148   3.8504   3.8677   3.8725   3.8794   3.9021   3.9087
     3.9137   3.9825   3.9885   3.9941   3.9944   4.0004   4.0052   4.0068
     4.0091   4.0202   4.0365   4.0618   4.0679   4.0822   4.1091   4.1801
     4.2115   4.2160   4.2341   4.2514   4.2544   4.2600   4.2707   4.2724
     4.2733   4.2752   4.2798   4.2899   4.3235   4.3316   4.3395   4.3435
     4.3561   4.3572   4.3622   4.3688   4.3752   4.3810   4.3857   4.3888
     4.3893   4.3925   4.4046   4.4128   4.4172   4.4220   4.4236   4.4297
     4.4373   4.4395   4.4446   4.4509   4.4557   4.4589   4.4648   4.4667
     4.4705   4.4740   4.4778   4.4944   4.5073   4.5217   4.5227   4.5561
     4.5754   4.5795   4.5818   4.5846   4.5931   4.6140   4.6193   4.6232
     4.6252   4.6313   4.6690   4.6730   4.7033   4.7111   4.7221   4.7335
     4.7569   4.7626   4.7699   4.7725   4.7787   4.7835   4.7916   4.7942
     4.7997   4.8063   4.8110   4.8168   4.8261   4.8266   4.8388   4.8466
     4.8494   4.8583   4.8611   4.8721   4.8743   4.8858   4.8882   4.8951
     4.9024   4.9085   4.9090   4.9135   4.9203   4.9308   4.9342   4.9442
     4.9914   4.9943   4.9992   5.0056   5.0082   5.0111   5.0213   5.0331
     5.0445   5.0583   5.0618   5.1161   5.1338   5.1624   5.1662   5.1743
     5.1823   5.2084   5.2099   5.2141   5.2397   5.2506   5.2608   5.3043
     5.3243   5.3699   5.3844   5.3886   5.3975   5.4211   5.4266   5.4356
     5.4413   5.4498   5.4557   5.4575   5.4697   5.4773   5.4850   5.4991
     5.5063   5.5129   5.5389   5.5538   5.5562   5.5648   5.5761   5.5826
     5.5894   5.6084   5.6183   5.6206   5.6221   5.6328   5.6522   5.6584
     5.6691   5.6747   5.6814   5.6847   5.6863   5.6905   5.6947   5.7005
     5.7056   5.7101   5.7122   5.7143   5.7191   5.7208   5.7253   5.7285
     5.7345   5.7369   5.7389   5.7716   5.7759   5.7944   5.8324   5.8403
     5.8552   5.8562   5.8705   5.8741   5.8840   5.8906   5.8945   5.9052
     5.9074   5.9166   5.9173   5.9258   5.9422   5.9590   5.9611   5.9815
     5.9897   5.9944   6.0031   6.0214   6.0657   6.0714   6.0999   6.1055
     6.1113   6.1625   6.1926   6.2054   6.2105   6.2138   6.2304   6.2346
     6.2513   6.2548   6.2577   6.2621   6.2650   6.2748   6.2776   6.2799
     6.2870   6.2881   6.2931   6.2960   6.2992   6.3004   6.3015   6.3063
     6.3079   6.3091   6.3121   6.3176   6.3219   6.3279   6.3300   6.3325
     6.3689   6.3857   6.3957   6.4037   6.4146   6.4214   6.4435   6.4735
     6.5013   6.5085   6.5135   6.5168   6.5242   6.5269   6.5311   6.5365
     6.5402   6.5472   6.5477   6.5525   6.5592   6.5596   6.5635   6.5661
     6.5698   6.5744   6.5916   6.5960   6.5991   6.6031   6.6048   6.6070
     6.6097   6.6120   6.6140   6.6206   6.6237   6.6283   6.6310   6.6361
     6.6382   6.6474   6.6567   6.6598   6.6696   6.6758   6.6777   6.7020
     6.7141   6.7262   6.7272   6.7324   6.7420   6.7434   6.7504   6.7521
     6.7630   6.7731   6.7865   6.7961   6.8020   6.8076   6.8122   6.8172
     6.8232   6.8301   6.8395   6.8445   6.8538   6.8614   6.8744   6.8799
     6.8803   6.8841   6.8881   6.8961   6.8979   6.9048   6.9074   6.9131
     6.9243   6.9490   6.9627   6.9710   6.9762   6.9814   6.9870   6.9924
     6.9995   7.0017   7.0102   7.0254   7.0285   7.0425   7.0446   7.0505
     7.0630   7.0754   7.0793   7.0977   7.1069   7.1123   7.1390   7.1456
     7.1536   7.1675   7.1759   7.1855   7.1920   7.2046   7.2120   7.2146
     7.2208   7.2324   7.2399   7.2419   7.2517   7.2589   7.2644   7.2729
     7.2748   7.2876   7.2909   7.2990   7.3616   7.3715   7.3839   7.3942
     7.4331   7.4725   7.4817   7.5059   7.5087   7.5141   7.5175   7.5289
     7.5348   7.5371   7.5440   7.5529   7.5645   7.5674   7.5723   7.5772
     7.5798   7.5867   7.6022   7.6157   7.6358   7.6410   7.6428   7.6547
     7.6587   7.6729   7.7191   7.7237   7.7292   7.7394   7.7482   7.7573
     7.7737   7.7757   7.7843   7.7925   7.8022   7.8045   7.8118   7.8234
     7.8386   7.8440   7.8886   7.9007   7.9095   7.9153   7.9328   7.9407
     7.9442   7.9618   7.9656   7.9677   7.9777   7.9833   7.9858   7.9998
     8.0048   8.0139   8.0375   8.0486   8.0572   8.0618   8.0627   8.0738
     8.0803   8.0901   8.1125   8.1285   8.1355   8.1426   8.1455   8.1591
     8.1766   8.1799   8.1844   8.1886   8.2004   8.2038   8.2068   8.2109
     8.2261   8.2683   8.2837   8.2927   8.2941   8.2960   8.3093   8.3109
     8.3440   8.3465   8.3502   8.3789   8.3894   8.4250   8.4374   8.4397
     8.4508   8.4645   8.4692   8.4748   8.4806   8.4910   8.5086   8.5240
     8.5515   8.5919   8.5976   8.6123   8.6589   8.6741   8.6825   8.6865
     8.6938   8.7032   8.7056   8.7175   8.7620   8.7756   8.7784   8.7807
     8.7831   8.7847   8.7875   8.7880   8.7909   8.7951   8.7956   8.7987
     8.8048   8.8107   8.8131   8.8137   8.8173   8.8206   8.8217   8.8240
     8.8285   8.8297   8.8302   8.8325   8.8375   8.8394   8.8413   8.8453
     8.8495   8.8517   8.8524   8.8569   8.8626   8.8673   8.8683   8.8695
     8.8730   8.8747   8.8881   8.8974   8.9044   8.9097   8.9150   8.9191
     8.9284   8.9332   8.9351   8.9393   8.9584   8.9754   8.9765   8.9798
     8.9824   8.9845   8.9879   8.9946   9.0055   9.0147   9.0185   9.0193
     9.0245   9.0559   9.0573   9.0595   9.0640   9.0661   9.0706   9.0726
     9.0751   9.0760   9.0778   9.0791   9.0868   9.1238   9.1305   9.1511
     9.1593   9.1626   9.1757   9.1769   9.1788   9.1798   9.1819   9.1852
     9.1873   9.1947   9.1965   9.2002   9.2038   9.2174   9.2288   9.2354
     9.2511   9.2529   9.2579   9.2586   9.2642   9.2688   9.2703   9.2713
     9.2751   9.2815   9.2850   9.2870   9.2901   9.3045   9.3110   9.3252
     9.3317   9.3396   9.3577   9.3665   9.3716   9.3782   9.3892   9.3930
     9.4014   9.4041   9.4060   9.4078   9.4104   9.4150   9.4215   9.4245
     9.4268   9.4310   9.4447   9.4535   9.4583   9.4783   9.4901   9.5081
     9.5286   9.5428   9.5621   9.5838   9.5944   9.6044   9.6311   9.6353
     9.6429   9.7449   9.7620   9.8950   9.9880  10.0624  10.3079  10.3119
    10.4235  10.4470  10.4851  10.5186  10.5244  10.5476  10.5512  10.5632
    10.5783  10.6404  10.6427  10.6520  10.7171  10.7450  10.7527  10.7935

 ------ SPIN DOWN ----------


          k = 0.0000 0.0000 0.0000 ( 91909 PWs)   bands (ev):

   -80.3083 -80.3055 -80.3034 -80.2948 -80.2896 -80.2875 -80.2806 -80.2776
   -80.2765 -80.2759 -80.2755 -80.2664 -80.2634 -80.2620 -80.2577 -80.2481
   -80.2469 -80.2461 -80.2451 -80.2431 -80.2369 -80.2345 -80.2326 -80.2298
   -80.2249 -80.2153 -80.2147 -80.2141 -80.2057 -80.1812 -80.1788 -80.1713
   -79.7256 -79.6820 -79.6602 -79.6553 -79.6533 -79.6509 -79.6393 -79.6319
   -79.6241 -79.6211 -79.6075 -79.5999 -79.5874 -79.5793 -79.5681 -79.5678
   -79.5537 -79.5521 -79.5380 -79.5305 -79.5280 -79.5213 -79.5171 -79.5123
   -79.4993 -79.4947 -79.4679 -79.4677 -79.4551 -79.4475 -79.4346 -79.4304
   -78.4310 -78.3883 -78.3725 -78.3692 -78.3655 -78.3593 -78.3535 -78.3438
   -78.3253 -78.3187 -78.3131 -78.3080 -78.3070 -78.3044 -78.3029 -78.2935
   -78.2918 -78.2816 -78.2786 -78.2720 -78.2618 -78.2606 -78.2471 -78.2449
   -78.2432 -78.2409 -78.2345 -78.2281 -78.2131 -78.2051 -78.1994 -78.1415
   -77.8661 -77.7115 -77.7075 -77.6961 -77.6947 -77.6893 -77.6835 -77.6824
   -77.6755 -77.6751 -77.6732 -77.6725 -77.6677 -77.6669 -77.6668 -77.6655
   -77.6644 -77.6588 -77.6580 -77.6570 -77.6568 -77.6541 -77.6537 -77.6527
   -77.6507 -77.6481 -77.6469 -77.6448 -77.6447 -77.6360 -77.6358 -77.6336
   -75.5047 -46.4628 -46.4602 -46.4541 -46.4523 -46.4466 -46.4412 -46.4408
   -46.4381 -46.4379 -46.4313 -46.4267 -46.4225 -46.4207 -46.4188 -46.4130
   -46.4099 -46.4063 -46.4035 -46.4011 -46.4009 -46.3995 -46.3947 -46.3923
   -46.3911 -46.3874 -46.3851 -46.3724 -46.3713 -46.3698 -46.3663 -46.3644
   -46.3635 -46.3574 -46.3534 -46.3510 -46.3439 -46.3433 -46.3420 -46.3419
   -46.3396 -46.3393 -46.3324 -46.3319 -46.3266 -46.3257 -46.3236 -46.3234
   -46.3168 -46.3137 -46.3104 -46.3057 -46.3032 -46.3004 -46.2993 -46.2977
   -46.2973 -46.2856 -46.2833 -46.2809 -46.2772 -46.2770 -46.2744 -46.2705
   -46.2658 -46.2634 -46.2606 -46.2576 -46.2550 -46.2545 -46.2482 -46.2480
   -46.2458 -46.2416 -46.2414 -46.2404 -46.2395 -46.2388 -46.2385 -46.2305
   -46.2242 -46.2226 -46.2219 -46.2214 -46.2189 -46.2133 -46.2114 -46.2090
   -46.2050 -46.2025 -46.1976 -46.1967 -46.1941 -46.1858 -46.1682 -46.1660
   -46.1573 -45.8131 -45.8031 -45.7743 -45.7722 -45.7658 -45.7648 -45.7613
   -45.7579 -45.7529 -45.7501 -45.7394 -45.7345 -45.7307 -45.7302 -45.7254
   -45.7246 -45.7242 -45.7237 -45.7231 -45.7214 -45.7204 -45.7189 -45.7179
   -45.7154 -45.7127 -45.7066 -45.7017 -45.6990 -45.6968 -45.6951 -45.6913
   -45.6903 -45.6882 -45.6873 -45.6844 -45.6827 -45.6733 -45.6670 -45.6654
   -45.6634 -45.6609 -45.6553 -45.6528 -45.6514 -45.6455 -45.6449 -45.6324
   -45.6296 -45.6170 -45.6133 -45.6009 -45.5984 -45.5934 -45.5914 -45.5896
   -45.5802 -45.5801 -45.5760 -45.5745 -45.5728 -45.5684 -45.5665 -45.5608
   -45.5585 -45.5536 -45.5505 -45.5495 -45.5488 -45.5431 -45.5314 -45.5287
   -45.5277 -45.5276 -45.5236 -45.5233 -45.5231 -45.5214 -45.5209 -45.5172
   -45.5161 -45.5120 -45.5091 -45.5087 -45.5067 -45.5007 -45.4973 -45.4858
   -45.4855 -45.4848 -45.4780 -45.4745 -45.4742 -45.4620 -45.4584 -45.4471
   -45.4431 -44.5505 -44.5380 -44.5110 -44.5100 -44.5095 -44.4975 -44.4934
   -44.4932 -44.4916 -44.4879 -44.4870 -44.4867 -44.4854 -44.4815 -44.4748
   -44.4731 -44.4721 -44.4715 -44.4688 -44.4640 -44.4634 -44.4604 -44.4599
   -44.4588 -44.4576 -44.4568 -44.4547 -44.4494 -44.4469 -44.4455 -44.4407
   -44.4374 -44.4363 -44.4338 -44.4305 -44.4281 -44.4265 -44.4258 -44.4253
   -44.4240 -44.4238 -44.4218 -44.4177 -44.4163 -44.4127 -44.4107 -44.4095
   -44.4026 -44.3960 -44.3947 -44.3918 -44.3820 -44.3780 -44.3778 -44.3573
   -44.3544 -44.3541 -44.3520 -44.3460 -44.3453 -44.3384 -44.3305 -44.3280
   -44.3261 -44.3236 -44.3210 -44.3202 -44.3189 -44.3142 -44.3130 -44.3097
   -44.3093 -44.3074 -44.3069 -44.3029 -44.2997 -44.2927 -44.2922 -44.2920
   -44.2897 -44.2839 -44.2826 -44.2813 -44.2806 -44.2798 -44.2750 -44.2742
   -44.2732 -44.2712 -44.2677 -44.2601 -44.2556 -44.2488 -44.2449 -44.2176
   -44.2007 -44.0203 -43.9610 -43.8923 -43.8864 -43.8712 -43.8676 -43.8635
   -43.8603 -43.8551 -43.8541 -43.8455 -43.8450 -43.8450 -43.8401 -43.8374
   -43.8352 -43.8350 -43.8305 -43.8299 -43.8258 -43.8240 -43.8214 -43.8192
   -43.8189 -43.8147 -43.8138 -43.8113 -43.8105 -43.8081 -43.8074 -43.8061
   -43.7952 -43.7944 -43.7941 -43.7938 -43.7932 -43.7852 -43.7765 -43.7762
   -43.7734 -43.7731 -43.7681 -43.7623 -43.7594 -43.7570 -43.7567 -43.7564
   -43.7550 -43.7532 -43.7528 -43.7519 -43.7503 -43.7469 -43.7459 -43.7454
   -43.7442 -43.7425 -43.7413 -43.7378 -43.7365 -43.7363 -43.7349 -43.7265
   -43.7254 -43.7218 -43.7193 -43.7193 -43.7152 -43.7146 -43.7050 -43.7005
   -43.6990 -43.6982 -43.6953 -43.6947 -43.6945 -43.6938 -43.6912 -43.6901
   -43.6900 -43.6894 -43.6888 -43.6886 -43.6855 -43.6843 -43.6837 -43.6835
   -43.6834 -43.6817 -43.6814 -43.6784 -43.6764 -43.6754 -43.6734 -43.6726
   -43.6717 -41.4418 -41.2388 -41.1037  -0.2063   0.5606   0.5676   0.6435
     0.6451   1.3219   1.3244   1.3280   1.3300   1.4588   2.1428   2.1668
     2.2262   2.2387   2.3749   2.5605   2.6792   2.6827   2.6975   2.7142
     2.7192   2.7231   2.9102   2.9138   2.9751   2.9773   3.0506   3.0521
     3.0540   3.0545   3.0860   3.0979   3.3299   3.3330   3.4452   3.4582
     3.4818   3.5021   3.5076   3.5178   3.5261   3.5278   3.5358   3.5742
     3.5783   3.6368   3.6654   3.6740   3.6753   3.6781   3.6867   3.6909
     3.7038   3.7208   3.7225   3.7394   3.7526   3.7593   3.7969   3.8022
     3.8096   3.8161   3.8441   3.8630   3.8721   3.8787   3.9006   3.9111
     3.9132   3.9816   3.9871   3.9897   3.9963   4.0011   4.0023   4.0071
     4.0113   4.0231   4.0371   4.0612   4.0699   4.0771   4.1078   4.1746
     4.2051   4.2197   4.2343   4.2486   4.2550   4.2589   4.2621   4.2688
     4.2716   4.2769   4.2800   4.2867   4.3236   4.3289   4.3430   4.3472
     4.3558   4.3598   4.3620   4.3684   4.3727   4.3799   4.3823   4.3862
     4.3907   4.3924   4.4044   4.4114   4.4181   4.4203   4.4244   4.4312
     4.4379   4.4393   4.4489   4.4501   4.4527   4.4567   4.4649   4.4671
     4.4692   4.4742   4.4762   4.4984   4.5045   4.5155   4.5205   4.5558
     4.5763   4.5787   4.5811   4.5833   4.5880   4.6164   4.6223   4.6238
     4.6242   4.6304   4.6706   4.6761   4.7034   4.7120   4.7170   4.7296
     4.7559   4.7631   4.7657   4.7716   4.7839   4.7861   4.7899   4.7910
     4.8018   4.8052   4.8115   4.8191   4.8234   4.8263   4.8342   4.8435
     4.8524   4.8567   4.8585   4.8678   4.8795   4.8855   4.8887   4.8967
     4.9027   4.9053   4.9082   4.9130   4.9192   4.9336   4.9373   4.9454
     4.9915   4.9982   5.0011   5.0061   5.0076   5.0108   5.0252   5.0367
     5.0440   5.0592   5.0619   5.1198   5.1351   5.1534   5.1633   5.1746
     5.1794   5.2060   5.2101   5.2118   5.2371   5.2457   5.2603   5.3061
     5.3206   5.3540   5.3799   5.3902   5.3960   5.4156   5.4257   5.4348
     5.4394   5.4486   5.4544   5.4581   5.4631   5.4773   5.4904   5.4990
     5.5035   5.5149   5.5427   5.5509   5.5530   5.5630   5.5777   5.5859
     5.5958   5.6111   5.6197   5.6214   5.6267   5.6336   5.6517   5.6571
     5.6651   5.6703   5.6774   5.6836   5.6870   5.6917   5.6989   5.6993
     5.7038   5.7100   5.7137   5.7157   5.7196   5.7235   5.7240   5.7283
     5.7319   5.7363   5.7383   5.7718   5.7756   5.7919   5.8231   5.8542
     5.8552   5.8602   5.8671   5.8782   5.8851   5.8878   5.8993   5.9024
     5.9069   5.9170   5.9189   5.9251   5.9465   5.9619   5.9638   5.9861
     5.9884   5.9950   6.0055   6.0384   6.0611   6.0747   6.0819   6.0920
     6.1272   6.1676   6.1938   6.2038   6.2109   6.2241   6.2274   6.2328
     6.2497   6.2499   6.2574   6.2615   6.2709   6.2714   6.2771   6.2804
     6.2853   6.2887   6.2939   6.2959   6.2984   6.3011   6.3036   6.3053
     6.3072   6.3095   6.3122   6.3156   6.3175   6.3248   6.3278   6.3301
     6.3609   6.3856   6.3955   6.3996   6.4064   6.4142   6.4444   6.4531
     6.5009   6.5049   6.5123   6.5200   6.5243   6.5276   6.5293   6.5352
     6.5429   6.5479   6.5499   6.5536   6.5575   6.5603   6.5611   6.5658
     6.5670   6.5799   6.5890   6.5964   6.5983   6.6013   6.6052   6.6069
     6.6075   6.6116   6.6165   6.6172   6.6247   6.6291   6.6320   6.6354
     6.6387   6.6444   6.6535   6.6576   6.6670   6.6798   6.6850   6.6963
     6.7173   6.7259   6.7295   6.7362   6.7375   6.7508   6.7542   6.7594
     6.7671   6.7740   6.7886   6.7919   6.8018   6.8053   6.8125   6.8176
     6.8270   6.8331   6.8404   6.8430   6.8567   6.8657   6.8774   6.8805
     6.8823   6.8848   6.8880   6.8929   6.8995   6.9022   6.9050   6.9209
     6.9249   6.9443   6.9644   6.9681   6.9772   6.9825   6.9854   6.9930
     6.9947   7.0053   7.0163   7.0215   7.0324   7.0389   7.0453   7.0501
     7.0668   7.0792   7.0802   7.0941   7.1066   7.1155   7.1335   7.1398
     7.1482   7.1679   7.1742   7.1856   7.1912   7.2036   7.2118   7.2167
     7.2186   7.2286   7.2292   7.2463   7.2485   7.2575   7.2635   7.2722
     7.2776   7.2836   7.2886   7.2953   7.3593   7.3815   7.3837   7.4025
     7.4411   7.4644   7.4828   7.5074   7.5095   7.5141   7.5179   7.5265
     7.5315   7.5395   7.5528   7.5551   7.5641   7.5672   7.5707   7.5763
     7.5826   7.5876   7.6024   7.6119   7.6303   7.6369   7.6492   7.6595
     7.6606   7.6966   7.7213   7.7282   7.7345   7.7440   7.7516   7.7599
     7.7723   7.7794   7.7841   7.7912   7.7965   7.8021   7.8128   7.8230
     7.8389   7.8476   7.8893   7.9007   7.9103   7.9153   7.9352   7.9409
     7.9441   7.9590   7.9680   7.9717   7.9770   7.9808   7.9950   8.0004
     8.0039   8.0054   8.0392   8.0526   8.0540   8.0583   8.0675   8.0725
     8.0818   8.0861   8.0991   8.1291   8.1371   8.1431   8.1452   8.1516
     8.1716   8.1743   8.1864   8.1867   8.1961   8.2028   8.2066   8.2153
     8.2282   8.2614   8.2741   8.2858   8.2964   8.2985   8.3046   8.3101
     8.3232   8.3419   8.3478   8.3806   8.3870   8.4291   8.4350   8.4432
     8.4500   8.4609   8.4630   8.4649   8.4807   8.4886   8.5110   8.5201
     8.5534   8.5812   8.5990   8.6103   8.6601   8.6727   8.6841   8.6860
     8.6928   8.7030   8.7078   8.7185   8.7614   8.7741   8.7788   8.7830
     8.7841   8.7854   8.7878   8.7885   8.7904   8.7936   8.7965   8.7970
     8.8027   8.8085   8.8120   8.8140   8.8159   8.8192   8.8217   8.8256
     8.8292   8.8296   8.8309   8.8321   8.8354   8.8388   8.8420   8.8457
     8.8469   8.8494   8.8521   8.8562   8.8597   8.8651   8.8685   8.8689
     8.8712   8.8737   8.8854   8.9016   8.9038   8.9092   8.9122   8.9191
     8.9275   8.9326   8.9346   8.9406   8.9565   8.9739   8.9763   8.9770
     8.9803   8.9850   8.9855   8.9942   9.0098   9.0118   9.0161   9.0188
     9.0219   9.0525   9.0567   9.0607   9.0633   9.0675   9.0685   9.0716
     9.0749   9.0757   9.0762   9.0778   9.0870   9.1232   9.1300   9.1519
     9.1574   9.1625   9.1737   9.1756   9.1776   9.1795   9.1812   9.1852
     9.1878   9.1883   9.1967   9.1996   9.2030   9.2161   9.2252   9.2329
     9.2465   9.2551   9.2572   9.2582   9.2631   9.2675   9.2698   9.2713
     9.2749   9.2818   9.2829   9.2866   9.2885   9.3046   9.3097   9.3253
     9.3289   9.3390   9.3558   9.3656   9.3718   9.3767   9.3844   9.3946
     9.3988   9.4024   9.4056   9.4074   9.4109   9.4151   9.4211   9.4219
     9.4249   9.4306   9.4458   9.4583   9.4594   9.4769   9.4920   9.5079
     9.5253   9.5404   9.5629   9.5860   9.5897   9.6086   9.6317   9.6350
     9.6420   9.7474   9.7562   9.8893   9.9914  10.0775  10.3083  10.3144
    10.4293  10.4471  10.4802  10.5172  10.5210  10.5345  10.5559  10.5575
    10.5906  10.6291  10.6432  10.6609  10.7051  10.7426  10.7518  10.7580

     the Fermi energy is     8.1867 ev

!    total energy              =  -42651.90813454 Ry

     total all-electron energy =   -335917.891045 Ry
     estimated scf accuracy    <       0.00000076 Ry
     smearing contrib. (-TS)   =       0.00966758 Ry
     internal energy E=F+TS    =  -42651.91780211 Ry

     The total energy is F=E-TS. E is the sum of the following terms:
     one-electron contribution =  -98081.72387499 Ry
     hartree contribution      =   49555.46308185 Ry
     xc contribution           =   -3575.64126310 Ry
     ewald contribution        =   20302.79484555 Ry
     one-center paw contrib.   =  -10852.81059142 Ry

     total magnetization       =    -0.06 Bohr mag/cell
     absolute magnetization    =   229.53 Bohr mag/cell

     convergence has been achieved in  55 iterations

     negative rho (up, down):  1.714E-03 1.870E-03

     Forces acting on atoms (cartesian axes, Ry/au):

     atom    1 type  3   force =     0.01435075   -0.01510773    0.00742093
     atom    2 type  1   force =     0.00044581    0.00014119   -0.00063550
     atom    3 type  2   force =    -0.00181192    0.00181775    0.00055286
     atom    4 type  1   force =     0.00002179    0.00333600   -0.00209694
     atom    5 type  2   force =    -0.00030352   -0.00255593   -0.00123606
     atom    6 type  1   force =     0.00131372   -0.00115080    0.00007536
     atom    7 type  2   force =    -0.00121908    0.00110591   -0.00013183
     atom    8 type  1   force =     0.00205438   -0.00021014    0.00119182
     atom    9 type  2   force =    -0.00194843    0.00035447    0.00114369
     atom   10 type  1   force =    -0.00366096    0.00219401   -0.00278329
     atom   11 type  2   force =    -0.00380061    0.00091480   -0.00213688
     atom   12 type  1   force =     0.00000425   -0.00239950   -0.00165231
     atom   13 type  2   force =     0.00035764   -0.00037546   -0.00137146
     atom   14 type  1   force =    -0.00237596    0.00105379    0.00382527
     atom   15 type  2   force =    -0.00225253    0.00014843   -0.00043560
     atom   16 type  1   force =     0.00011049    0.00021044    0.00064267
     atom   17 type  2   force =     0.00062382   -0.00066290   -0.00034090
     atom   18 type  1   force =    -0.00014582   -0.00005919    0.00007952
     atom   19 type  2   force =     0.00006627    0.00001025   -0.00001476
     atom   20 type  1   force =     0.00264134    0.00186948    0.00272044
     atom   21 type  2   force =    -0.00265745   -0.00185988    0.00278746
     atom   22 type  1   force =     0.00119361   -0.00009347    0.00118336
     atom   23 type  2   force =    -0.00105272    0.00042622    0.00093167
     atom   24 type  1   force =    -0.00008803   -0.00080470   -0.00204363
     atom   25 type  2   force =    -0.00001319    0.00111395   -0.00209547
     atom   26 type  1   force =     0.00361970   -0.00094990   -0.00207716
     atom   27 type  2   force =     0.00256419   -0.00003153   -0.00674696
     atom   28 type  1   force =    -0.00100918    0.00083484   -0.00177370
     atom   29 type  2   force =     0.00025395    0.00204040   -0.00185246
     atom   30 type  1   force =     0.00243645    0.00029561   -0.00084259
     atom   31 type  2   force =     0.00232997   -0.00083733    0.00336338
     atom   32 type  1   force =    -0.00064393    0.00082735   -0.00034189
     atom   33 type  2   force =    -0.00009041   -0.00017047    0.00040296
     atom   34 type  1   force =    -0.00012709   -0.00249421   -0.00671701
     atom   35 type  2   force =    -0.00165649   -0.00385799   -0.00037920
     atom   36 type  1   force =     0.00167930    0.00154174   -0.00207410
     atom   37 type  2   force =    -0.00068621   -0.00094269   -0.00685716
     atom   38 type  1   force =     0.00010711   -0.00080635    0.00247314
     atom   39 type  2   force =     0.00111520    0.00041585   -0.00166170
     atom   40 type  1   force =     0.00423220   -0.00081812    0.00022490
     atom   41 type  2   force =     0.00001996    0.00153492    0.00582723
     atom   42 type  1   force =    -0.00172303    0.00046783    0.00176973
     atom   43 type  2   force =    -0.00035377   -0.00105031   -0.00228409
     atom   44 type  1   force =    -0.00092365   -0.00293546   -0.00384669
     atom   45 type  2   force =    -0.00087769   -0.00240330    0.00218052
     atom   46 type  1   force =    -0.00396652    0.00196535   -0.00178118
     atom   47 type  2   force =    -0.00034837    0.00119560    0.00029893
     atom   48 type  1   force =     0.00072740    0.00191846    0.00493356
     atom   49 type  2   force =     0.00118786   -0.00184012    0.00169244
     atom   50 type  1   force =     0.00105165    0.00265857   -0.00259557
     atom   51 type  2   force =     0.00018463    0.00183266   -0.00336649
     atom   52 type  1   force =     0.00247760   -0.00277868   -0.00045903
     atom   53 type  2   force =     0.00141032    0.00151653    0.00378246
     atom   54 type  1   force =    -0.00353511    0.00172339    0.00119146
     atom   55 type  2   force =    -0.00240470   -0.00091915    0.00290444
     atom   56 type  1   force =    -0.00074549    0.00000543   -0.00012797
     atom   57 type  2   force =    -0.00007630    0.00015599   -0.00073710
     atom   58 type  1   force =     0.00136632    0.00359695   -0.00149986
     atom   59 type  2   force =    -0.00178806    0.00189773   -0.00067384
     atom   60 type  1   force =     0.00225571    0.00149168    0.00029933
     atom   61 type  2   force =    -0.00017347    0.00332315   -0.00459187
     atom   62 type  1   force =    -0.00364530   -0.00215927    0.00267203
     atom   63 type  2   force =    -0.00219996   -0.00326693    0.00058312
     atom   64 type  1   force =     0.00139200   -0.00017045    0.00051133
     atom   65 type  2   force =     0.00104501   -0.00111399    0.00011695
     atom   66 type  1   force =    -0.00099483    0.00003734    0.00121975
     atom   67 type  2   force =     0.00107837    0.00004296    0.00144346
     atom   68 type  1   force =    -0.00461475   -0.00061539   -0.00184595
     atom   69 type  2   force =     0.00477609    0.00053368   -0.00156187
     atom   70 type  1   force =    -0.00045508   -0.00171085   -0.00175342
     atom   71 type  2   force =     0.00016681    0.00187113   -0.00110837
     atom   72 type  1   force =     0.00015360   -0.00072098    0.00120926
     atom   73 type  2   force =    -0.00084898    0.00071249    0.00138062
     atom   74 type  1   force =     0.00075074    0.00252800    0.00022322
     atom   75 type  2   force =     0.00221231    0.00011449   -0.00005975
     atom   76 type  1   force =     0.00080623    0.00054798   -0.00235690
     atom   77 type  2   force =    -0.00169078    0.00024946   -0.00035720
     atom   78 type  1   force =     0.00287855    0.00133258   -0.00072540
     atom   79 type  2   force =    -0.00012344    0.00103268    0.00185402
     atom   80 type  1   force =    -0.00299528    0.00068795   -0.00130861
     atom   81 type  2   force =    -0.00139162   -0.00202459    0.00160677
     atom   82 type  1   force =    -0.00033384   -0.00078265   -0.00014503
     atom   83 type  2   force =     0.00025742    0.00088545   -0.00014221
     atom   84 type  1   force =    -0.00175480    0.00311515    0.00163247
     atom   85 type  2   force =     0.00154983   -0.00297728    0.00150233
     atom   86 type  1   force =     0.00017938    0.00120503    0.00375906
     atom   87 type  2   force =    -0.00044817   -0.00117935    0.00355429
     atom   88 type  1   force =     0.00113521   -0.00056880    0.00098465
     atom   89 type  2   force =    -0.00133613    0.00066727    0.00097094
     atom   90 type  1   force =    -0.00232331    0.00005669   -0.00008057
     atom   91 type  2   force =    -0.00065772   -0.00221653    0.00041246
     atom   92 type  1   force =     0.00153116   -0.00022630   -0.00034739
     atom   93 type  2   force =    -0.00083456   -0.00031751   -0.00266908
     atom   94 type  1   force =    -0.00021736   -0.00075870    0.00176594
     atom   95 type  2   force =    -0.00297496   -0.00150700   -0.00086745
     atom   96 type  1   force =     0.00112769    0.00227178    0.00152624
     atom   97 type  2   force =     0.00234864   -0.00067133   -0.00151035
     atom   98 type  1   force =     0.00212292    0.00396356   -0.00032219
     atom   99 type  2   force =    -0.00074607    0.00439423   -0.00238067
     atom  100 type  1   force =    -0.00122614    0.00133294   -0.00507885
     atom  101 type  2   force =    -0.00295668   -0.00132004   -0.00091372
     atom  102 type  1   force =    -0.00161036   -0.00040690   -0.00122508
     atom  103 type  2   force =    -0.00072759    0.00077477    0.00304226
     atom  104 type  1   force =    -0.00000578   -0.00146611    0.00574893
     atom  105 type  2   force =    -0.00432705    0.00092870    0.00045984
     atom  106 type  1   force =     0.00155477   -0.00142297   -0.00055579
     atom  107 type  2   force =    -0.00180839   -0.00363463   -0.00112877
     atom  108 type  1   force =    -0.00034641   -0.00240502   -0.00371679
     atom  109 type  2   force =    -0.00255154   -0.00112729    0.00072903
     atom  110 type  1   force =     0.00160046    0.00345981    0.00128912
     atom  111 type  2   force =     0.00318278    0.00248314    0.00325523
     atom  112 type  1   force =    -0.00105886    0.00116818    0.00035191
     atom  113 type  2   force =    -0.00170102    0.00030390    0.00071604
     atom  114 type  1   force =    -0.00017984   -0.00164279   -0.00325901
     atom  115 type  2   force =    -0.00118488   -0.00279819   -0.00252566
     atom  116 type  1   force =    -0.00154067   -0.00116296    0.00410994
     atom  117 type  2   force =    -0.00257000    0.00302475   -0.00066376
     atom  118 type  1   force =     0.00230984    0.00098041    0.00311403
     atom  119 type  2   force =     0.00346045   -0.00139192    0.00126682
     atom  120 type  1   force =    -0.00001574    0.00006705   -0.00066933
     atom  121 type  2   force =     0.00070968    0.00014320   -0.00010006
     atom  122 type  1   force =     0.00051313    0.00142161   -0.00225243
     atom  123 type  2   force =     0.00164085   -0.00081297    0.00147674
     atom  124 type  1   force =     0.00115327    0.00229890    0.00207330
     atom  125 type  2   force =     0.00056864    0.00292867   -0.00380171
     atom  126 type  1   force =     0.00029438   -0.00103164    0.00036553
     atom  127 type  2   force =     0.00392801   -0.00187447   -0.00162880
     atom  128 type  1   force =    -0.00100119    0.00205459    0.00162514
     atom  129 type  2   force =    -0.00077289   -0.00195612    0.00487207

     Total force =     0.044693     Total SCF correction =     0.002466


     Computing stress (Cartesian axis) and pressure


     negative rho (up, down):  1.714E-03 1.870E-03
          total   stress  (Ry/bohr**3)                   (kbar)     P=      -19.51
  -0.00014742   0.00000420  -0.00000606          -21.69        0.62       -0.89
   0.00000420  -0.00009888   0.00000536            0.62      -14.55        0.79
  -0.00000606   0.00000536  -0.00015151           -0.89        0.79      -22.29


     Writing output data file /scratch/bxp912/fepdslab4b.save/
 
     init_run     :      8.89s CPU      9.49s WALL (       1 calls)
     electrons    :   1159.45s CPU   1188.05s WALL (       1 calls)
     forces       :      5.13s CPU      5.31s WALL (       1 calls)
     stress       :    113.82s CPU    114.37s WALL (       1 calls)

     Called by init_run:
     wfcinit      :      5.87s CPU      6.21s WALL (       1 calls)
     potinit      :      1.02s CPU      1.10s WALL (       1 calls)
     hinit0       :      1.08s CPU      1.15s WALL (       1 calls)

     Called by electrons:
     c_bands      :    954.34s CPU    972.87s WALL (      55 calls)
     sum_band     :    141.47s CPU    146.87s WALL (      55 calls)
     v_of_rho     :      8.59s CPU      9.15s WALL (      56 calls)
     newd         :     15.59s CPU     18.80s WALL (      56 calls)
     PAW_pot      :     33.24s CPU     33.85s WALL (      56 calls)
     mix_rho      :      5.80s CPU      6.11s WALL (      55 calls)

     Called by c_bands:
     init_us_2    :      5.46s CPU      5.56s WALL (     226 calls)
     regterg      :    934.40s CPU    952.04s WALL (     110 calls)

     Called by *egterg:
     rdiaghg      :     89.79s CPU     90.75s WALL (     519 calls)
     h_psi        :    388.47s CPU    393.82s WALL (     521 calls)
     s_psi        :     74.24s CPU     75.79s WALL (     521 calls)
     g_psi        :      1.37s CPU      1.39s WALL (     409 calls)

     Called by h_psi:
     h_psi:calbec :     96.23s CPU     97.03s WALL (     521 calls)
     vloc_psi     :    210.65s CPU    213.20s WALL (     521 calls)
     add_vuspsi   :     78.65s CPU     80.62s WALL (     521 calls)

     General routines
     calbec       :    146.00s CPU    147.16s WALL (     641 calls)
     fft          :      8.13s CPU      8.27s WALL (    1203 calls)
     ffts         :      2.53s CPU      2.58s WALL (    1152 calls)
     fftw         :    220.47s CPU    223.03s WALL (  350938 calls)
     interpolate  :      0.90s CPU      0.93s WALL (     112 calls)
 
     Parallel routines
     fft_scatt_xy :     29.78s CPU     30.05s WALL (  353293 calls)
     fft_scatt_yz :    151.00s CPU    153.02s WALL (  353293 calls)
 
     PWSCF        :  21m32.54s CPU  22m 4.76s WALL

 
   This run was terminated on:  14:37:46  12May2022            

=------------------------------------------------------------------------------=
   JOB DONE.
=------------------------------------------------------------------------------=
