
     Program PWSCF v.6.7MaX starts on  5Jan2022 at 16:47:14 

     This program is part of the open-source Quantum ESPRESSO suite
     for quantum simulation of materials; please cite
         "P. Giannozzi et al., J. Phys.:Condens. Matter 21 395502 (2009);
         "P. Giannozzi et al., J. Phys.:Condens. Matter 29 465901 (2017);
          URL http://www.quantum-espresso.org", 
     in publications or presentations arising from this work. More details at
     http://www.quantum-espresso.org/quote

     Parallel version (MPI & OpenMP), running on      72 processor cores
     Number of MPI processes:                72
     Threads/MPI process:                     1

     MPI processes distributed on     1 nodes
     R & G space division:  proc/nbgrp/npool/nimage =      72
     Reading input from fe_octa_2.in

     Current dimensions of program PWSCF are:
     Max number of different atomic species (ntypx) = 10
     Max number of k-points (npk) =  40000
     Max angular momentum in pseudopotentials (lmaxx) =  3
     file Fe.pbe-spn-kjpaw_psl.1.0.0.UPF: wavefunction(s)  3P 3D renormalized
     file Fe.pbe-spn-kjpaw_psl.1.0.0.UPF: wavefunction(s)  3P 3D renormalized
     file Fe.pbe-spn-kjpaw_psl.1.0.0.UPF: wavefunction(s)  3P 3D renormalized
     file Fe.pbe-spn-kjpaw_psl.1.0.0.UPF: wavefunction(s)  3P 3D renormalized
     file Fe.pbe-spn-kjpaw_psl.1.0.0.UPF: wavefunction(s)  3P 3D renormalized

     Subspace diagonalization in iterative solution of the eigenvalue problem:
     one sub-group per band group will be used
     ELPA distributed-memory algorithm (size of sub-group:  8*  8 procs)

     Message from routine setup:
     using ibrav=0 with symmetry is DISCOURAGED, use correct ibrav instead
 
     Parallelization info
     --------------------
     sticks:   dense  smooth     PW     G-vecs:    dense   smooth      PW
     Min          83      55     15                 4773     2563     367
     Max          84      56     16                 4778     2568     371
     Sum        6035    3993   1103               343891   184641   26583
 


     bravais-lattice index     =            0
     lattice parameter (alat)  =      12.9382  a.u.
     unit-cell volume          =    2283.7811 (a.u.)^3
     number of atoms/cell      =           33
     number of atomic types    =            5
     number of electrons       =       528.00
     number of Kohn-Sham states=          317
     kinetic-energy cutoff     =      71.0000  Ry
     charge density cutoff     =     430.0000  Ry
     scf convergence threshold =      1.0E-06
     mixing beta               =       0.3000
     number of iterations used =            8  local-TF  mixing
     energy convergence thresh.=      1.0E-04
     force convergence thresh. =      1.0E-03
     press convergence thresh. =      5.0E-01
     Exchange-correlation= SLA  PW   PBX  PBC
                           (   1   4   3   4   0   0   0)
     nstep                     =           40


     celldm(1)=  12.938187  celldm(2)=   0.000000  celldm(3)=   0.000000
     celldm(4)=   0.000000  celldm(5)=   0.000000  celldm(6)=   0.000000

     crystal axes: (cart. coord. in units of alat)
               a(1) = (   1.000000   0.000000   0.000000 )  
               a(2) = (   0.000000   1.054470   0.000000 )  
               a(3) = (   0.000000   0.000000   1.000000 )  

     reciprocal axes: (cart. coord. in units 2 pi/alat)
               b(1) = (  1.000000  0.000000  0.000000 )  
               b(2) = (  0.000000  0.948344  0.000000 )  
               b(3) = (  0.000000  0.000000  1.000000 )  


     PseudoPot. # 1 for Fe read from file:
     /rds/homes/b/bxp912/pp/Fe.pbe-spn-kjpaw_psl.1.0.0.UPF
     MD5 check sum: 42f43b795421b414b0dc916aa790dbcb
     Pseudo is Projector augmented-wave + core cor, Zval = 16.0
     Generated using &quot;atomic&quot; code by A. Dal Corso  v.6.3
     Shape of augmentation charge: PSQ
     Using radial grid of 1191 points,  6 beta functions with: 
                l(1) =   0
                l(2) =   0
                l(3) =   1
                l(4) =   1
                l(5) =   2
                l(6) =   2
     Q(r) pseudized with 0 coefficients 


     PseudoPot. # 2 for Fe read from file:
     /rds/homes/b/bxp912/pp/Fe.pbe-spn-kjpaw_psl.1.0.0.UPF
     MD5 check sum: 42f43b795421b414b0dc916aa790dbcb
     Pseudo is Projector augmented-wave + core cor, Zval = 16.0
     Generated using &quot;atomic&quot; code by A. Dal Corso  v.6.3
     Shape of augmentation charge: PSQ
     Using radial grid of 1191 points,  6 beta functions with: 
                l(1) =   0
                l(2) =   0
                l(3) =   1
                l(4) =   1
                l(5) =   2
                l(6) =   2
     Q(r) pseudized with 0 coefficients 


     PseudoPot. # 3 for Fe read from file:
     /rds/homes/b/bxp912/pp/Fe.pbe-spn-kjpaw_psl.1.0.0.UPF
     MD5 check sum: 42f43b795421b414b0dc916aa790dbcb
     Pseudo is Projector augmented-wave + core cor, Zval = 16.0
     Generated using &quot;atomic&quot; code by A. Dal Corso  v.6.3
     Shape of augmentation charge: PSQ
     Using radial grid of 1191 points,  6 beta functions with: 
                l(1) =   0
                l(2) =   0
                l(3) =   1
                l(4) =   1
                l(5) =   2
                l(6) =   2
     Q(r) pseudized with 0 coefficients 


     PseudoPot. # 4 for Fe read from file:
     /rds/homes/b/bxp912/pp/Fe.pbe-spn-kjpaw_psl.1.0.0.UPF
     MD5 check sum: 42f43b795421b414b0dc916aa790dbcb
     Pseudo is Projector augmented-wave + core cor, Zval = 16.0
     Generated using &quot;atomic&quot; code by A. Dal Corso  v.6.3
     Shape of augmentation charge: PSQ
     Using radial grid of 1191 points,  6 beta functions with: 
                l(1) =   0
                l(2) =   0
                l(3) =   1
                l(4) =   1
                l(5) =   2
                l(6) =   2
     Q(r) pseudized with 0 coefficients 


     PseudoPot. # 5 for Fe read from file:
     /rds/homes/b/bxp912/pp/Fe.pbe-spn-kjpaw_psl.1.0.0.UPF
     MD5 check sum: 42f43b795421b414b0dc916aa790dbcb
     Pseudo is Projector augmented-wave + core cor, Zval = 16.0
     Generated using &quot;atomic&quot; code by A. Dal Corso  v.6.3
     Shape of augmentation charge: PSQ
     Using radial grid of 1191 points,  6 beta functions with: 
                l(1) =   0
                l(2) =   0
                l(3) =   1
                l(4) =   1
                l(5) =   2
                l(6) =   2
     Q(r) pseudized with 0 coefficients 


     atomic species   valence    mass     pseudopotential
        Fe1           16.00    55.84500     Fe( 1.00)
        Fe2           16.00    55.84500     Fe( 1.00)
        Fe3           16.00    55.84500     Fe( 1.00)
        Fe4           16.00    55.84500     Fe( 1.00)
        Fe5           16.00    55.84500     Fe( 1.00)

     Starting magnetic structure 
     atomic species   magnetization
        Fe1          0.100
        Fe2         -0.100
        Fe3          0.100
        Fe4         -0.100
        Fe5         -0.010

      8 Sym. Ops., with inversion, found ( 7 have fractional translation)



   Cartesian axes

     site n.     atom                  positions (alat units)
         1           Fe5 tau(   1) = (   0.2500000   0.2636175   0.2500000  )
         2           Fe1 tau(   2) = (   0.0000000   0.0000000   0.0000000  )
         3           Fe2 tau(   3) = (   0.2500000   0.2636175   0.0000000  )
         4           Fe3 tau(   4) = (   0.2500000   0.0000000   0.2500000  )
         5           Fe4 tau(   5) = (   0.0000000   0.2636175   0.2500000  )
         6           Fe1 tau(   6) = (   0.0000000   0.0000000   0.5000000  )
         7           Fe2 tau(   7) = (   0.2500000   0.2636175   0.5000000  )
         8           Fe3 tau(   8) = (   0.2500000   0.0000000   0.7500000  )
         9           Fe4 tau(   9) = (   0.0000000   0.2636175   0.7500000  )
        10           Fe1 tau(  10) = (   0.0000000   0.5272350   0.0000000  )
        11           Fe2 tau(  11) = (   0.2500000   0.7908525   0.0000000  )
        12           Fe3 tau(  12) = (   0.2500000   0.5272350   0.2500000  )
        13           Fe4 tau(  13) = (   0.0000000   0.7908525   0.2500000  )
        14           Fe1 tau(  14) = (   0.0000000   0.5272350   0.5000000  )
        15           Fe2 tau(  15) = (   0.2500000   0.7908525   0.5000000  )
        16           Fe3 tau(  16) = (   0.2500000   0.5272350   0.7500000  )
        17           Fe4 tau(  17) = (   0.0000000   0.7908525   0.7500000  )
        18           Fe1 tau(  18) = (   0.5000000   0.0000000   0.0000000  )
        19           Fe2 tau(  19) = (   0.7500000   0.2636175   0.0000000  )
        20           Fe3 tau(  20) = (   0.7500000   0.0000000   0.2500000  )
        21           Fe4 tau(  21) = (   0.5000000   0.2636175   0.2500000  )
        22           Fe1 tau(  22) = (   0.5000000   0.0000000   0.5000000  )
        23           Fe2 tau(  23) = (   0.7500000   0.2636175   0.5000000  )
        24           Fe3 tau(  24) = (   0.7500000   0.0000000   0.7500000  )
        25           Fe4 tau(  25) = (   0.5000000   0.2636175   0.7500000  )
        26           Fe1 tau(  26) = (   0.5000000   0.5272350   0.0000000  )
        27           Fe2 tau(  27) = (   0.7500000   0.7908525   0.0000000  )
        28           Fe3 tau(  28) = (   0.7500000   0.5272350   0.2500000  )
        29           Fe4 tau(  29) = (   0.5000000   0.7908525   0.2500000  )
        30           Fe1 tau(  30) = (   0.5000000   0.5272350   0.5000000  )
        31           Fe2 tau(  31) = (   0.7500000   0.7908525   0.5000000  )
        32           Fe3 tau(  32) = (   0.7500000   0.5272350   0.7500000  )
        33           Fe4 tau(  33) = (   0.5000000   0.7908525   0.7500000  )

     number of k points=   125  Marzari-Vanderbilt smearing, width (Ry)=  0.0400

     Number of k-points >= 100: set verbosity='high' to print them.

     Dense  grid:   343891 G-vectors     FFT dimensions: (  90,  96,  90)

     Smooth grid:   184641 G-vectors     FFT dimensions: (  72,  80,  72)

     Estimated max dynamical RAM per process >     429.21 MB

     Estimated total dynamical RAM >      30.18 GB

     Check: negative core charge=   -0.000006
     Generating pointlists ...
     new r_m :   0.1458 (alat units)  1.8869 (a.u.) for type    1
     new r_m :   0.1031 (alat units)  1.3343 (a.u.) for type    2
     new r_m :   0.1087 (alat units)  1.4069 (a.u.) for type    3
     new r_m :   0.1031 (alat units)  1.3343 (a.u.) for type    4
     new r_m :   0.1031 (alat units)  1.3343 (a.u.) for type    5

     Initial potential from superposition of free atoms

     starting charge  527.98556, renormalised to  528.00000
     Starting wfcs are  330 randomized atomic wfcs
     Checking if some PAW data can be deallocated... 

     total cpu time spent up to now is       62.0 secs

     Self-consistent Calculation

     iteration #  1     ecut=    71.00 Ry     beta= 0.30
     Davidson diagonalization with overlap
     ethr =  1.00E-02,  avg # of iterations =  3.3

     total cpu time spent up to now is      273.5 secs

     total energy              =  -10862.57232558 Ry
     estimated scf accuracy    <      25.82313638 Ry

     total magnetization       =     1.70 Bohr mag/cell
     absolute magnetization    =    42.58 Bohr mag/cell

     iteration #  2     ecut=    71.00 Ry     beta= 0.30
     Davidson diagonalization with overlap
     ethr =  4.89E-03,  avg # of iterations =  1.1

     total cpu time spent up to now is      426.6 secs

     total energy              =  -10863.65923601 Ry
     estimated scf accuracy    <      16.00035057 Ry

     total magnetization       =     1.32 Bohr mag/cell
     absolute magnetization    =    40.25 Bohr mag/cell

     iteration #  3     ecut=    71.00 Ry     beta= 0.30
     Davidson diagonalization with overlap
     ethr =  3.03E-03,  avg # of iterations =  1.1

     total cpu time spent up to now is      578.5 secs

     total energy              =  -10864.14772344 Ry
     estimated scf accuracy    <       0.89798528 Ry

     total magnetization       =     2.19 Bohr mag/cell
     absolute magnetization    =    42.27 Bohr mag/cell

     iteration #  4     ecut=    71.00 Ry     beta= 0.30
     Davidson diagonalization with overlap
     ethr =  1.70E-04,  avg # of iterations =  4.1

     total cpu time spent up to now is      762.4 secs

     total energy              =  -10864.11638359 Ry
     estimated scf accuracy    <       0.32242129 Ry

     total magnetization       =     2.50 Bohr mag/cell
     absolute magnetization    =    42.51 Bohr mag/cell

     iteration #  5     ecut=    71.00 Ry     beta= 0.30
     Davidson diagonalization with overlap
     c_bands:  1 eigenvalues not converged
     ethr =  6.11E-05,  avg # of iterations =  4.3

     total cpu time spent up to now is      976.6 secs

     total energy              =  -10864.16491434 Ry
     estimated scf accuracy    <       0.22578518 Ry

     total magnetization       =     2.65 Bohr mag/cell
     absolute magnetization    =    42.89 Bohr mag/cell

     iteration #  6     ecut=    71.00 Ry     beta= 0.30
     Davidson diagonalization with overlap
     ethr =  4.28E-05,  avg # of iterations =  2.2

     total cpu time spent up to now is     1147.9 secs

     total energy              =  -10864.18985509 Ry
     estimated scf accuracy    <       0.11037020 Ry

     total magnetization       =     3.05 Bohr mag/cell
     absolute magnetization    =    42.96 Bohr mag/cell

     iteration #  7     ecut=    71.00 Ry     beta= 0.30
     Davidson diagonalization with overlap
     c_bands:  1 eigenvalues not converged
     c_bands:  1 eigenvalues not converged
     c_bands:  1 eigenvalues not converged
     c_bands:  1 eigenvalues not converged
     c_bands:  1 eigenvalues not converged
     c_bands:  2 eigenvalues not converged
     c_bands:  1 eigenvalues not converged
     c_bands:  1 eigenvalues not converged
     ethr =  2.09E-05,  avg # of iterations =  3.7

     total cpu time spent up to now is     1317.0 secs

     total energy              =  -10864.21017470 Ry
     estimated scf accuracy    <       0.05129884 Ry

     total magnetization       =     3.36 Bohr mag/cell
     absolute magnetization    =    42.93 Bohr mag/cell

     iteration #  8     ecut=    71.00 Ry     beta= 0.30
     Davidson diagonalization with overlap
     c_bands:  1 eigenvalues not converged
     c_bands:  1 eigenvalues not converged
     c_bands:  1 eigenvalues not converged
     ethr =  9.72E-06,  avg # of iterations =  4.3

     total cpu time spent up to now is     1513.1 secs

     total energy              =  -10864.21622922 Ry
     estimated scf accuracy    <       0.02965336 Ry

     total magnetization       =     3.63 Bohr mag/cell
     absolute magnetization    =    42.96 Bohr mag/cell

     iteration #  9     ecut=    71.00 Ry     beta= 0.30
     Davidson diagonalization with overlap
     c_bands:  1 eigenvalues not converged
     c_bands:  2 eigenvalues not converged
     c_bands:  1 eigenvalues not converged
     c_bands:  1 eigenvalues not converged
     c_bands:  1 eigenvalues not converged
     c_bands:  1 eigenvalues not converged
     ethr =  5.62E-06,  avg # of iterations =  4.2

     total cpu time spent up to now is     1723.4 secs

     total energy              =  -10864.22087412 Ry
     estimated scf accuracy    <       0.01065730 Ry

     total magnetization       =     4.02 Bohr mag/cell
     absolute magnetization    =    43.09 Bohr mag/cell

     iteration # 10     ecut=    71.00 Ry     beta= 0.30
     Davidson diagonalization with overlap
     c_bands:  1 eigenvalues not converged
     c_bands:  1 eigenvalues not converged
     c_bands:  1 eigenvalues not converged
     c_bands:  1 eigenvalues not converged
     c_bands:  1 eigenvalues not converged
     c_bands:  1 eigenvalues not converged
     c_bands:  1 eigenvalues not converged
     c_bands:  2 eigenvalues not converged
     c_bands:  2 eigenvalues not converged
     c_bands:  1 eigenvalues not converged
     c_bands:  2 eigenvalues not converged
     c_bands:  1 eigenvalues not converged
     c_bands:  2 eigenvalues not converged
     c_bands:  1 eigenvalues not converged
     c_bands:  1 eigenvalues not converged
     c_bands:  1 eigenvalues not converged
     c_bands:  1 eigenvalues not converged
     c_bands:  1 eigenvalues not converged
     c_bands:  1 eigenvalues not converged
     c_bands:  1 eigenvalues not converged
     c_bands:  1 eigenvalues not converged
     c_bands:  1 eigenvalues not converged
     ethr =  2.02E-06,  avg # of iterations =  6.2

     total cpu time spent up to now is     1914.3 secs

     total energy              =  -10864.22182133 Ry
     estimated scf accuracy    <       0.00579637 Ry

     total magnetization       =     4.17 Bohr mag/cell
     absolute magnetization    =    43.14 Bohr mag/cell

     iteration # 11     ecut=    71.00 Ry     beta= 0.30
     Davidson diagonalization with overlap
     c_bands:  1 eigenvalues not converged
     c_bands:  1 eigenvalues not converged
     ethr =  1.10E-06,  avg # of iterations =  3.1

     total cpu time spent up to now is     2111.5 secs

     total energy              =  -10864.22366465 Ry
     estimated scf accuracy    <       0.00305168 Ry

     total magnetization       =     4.41 Bohr mag/cell
     absolute magnetization    =    43.22 Bohr mag/cell

     iteration # 12     ecut=    71.00 Ry     beta= 0.30
     Davidson diagonalization with overlap
     ethr =  5.78E-07,  avg # of iterations =  2.1

     total cpu time spent up to now is     2279.7 secs

     total energy              =  -10864.22471631 Ry
     estimated scf accuracy    <       0.00256696 Ry

     total magnetization       =     4.54 Bohr mag/cell
     absolute magnetization    =    43.24 Bohr mag/cell

     iteration # 13     ecut=    71.00 Ry     beta= 0.30
     Davidson diagonalization with overlap
     c_bands:  2 eigenvalues not converged
     ethr =  4.86E-07,  avg # of iterations =  2.0

     total cpu time spent up to now is     2448.1 secs

     total energy              =  -10864.22603214 Ry
     estimated scf accuracy    <       0.00229322 Ry

     total magnetization       =     4.70 Bohr mag/cell
     absolute magnetization    =    43.27 Bohr mag/cell

     iteration # 14     ecut=    71.00 Ry     beta= 0.30
     Davidson diagonalization with overlap
     c_bands:  1 eigenvalues not converged
     ethr =  4.34E-07,  avg # of iterations =  3.0

     total cpu time spent up to now is     2632.0 secs

     total energy              =  -10864.22712259 Ry
     estimated scf accuracy    <       0.00179369 Ry

     total magnetization       =     4.95 Bohr mag/cell
     absolute magnetization    =    43.36 Bohr mag/cell

     iteration # 15     ecut=    71.00 Ry     beta= 0.30
     Davidson diagonalization with overlap
     c_bands:  1 eigenvalues not converged
     ethr =  3.40E-07,  avg # of iterations =  5.2

     total cpu time spent up to now is     2861.1 secs

     total energy              =  -10864.22732381 Ry
     estimated scf accuracy    <       0.00120990 Ry

     total magnetization       =     5.37 Bohr mag/cell
     absolute magnetization    =    43.62 Bohr mag/cell

     iteration # 16     ecut=    71.00 Ry     beta= 0.30
     Davidson diagonalization with overlap
     ethr =  2.29E-07,  avg # of iterations =  5.7

     total cpu time spent up to now is     3120.6 secs

     total energy              =  -10864.23115745 Ry
     estimated scf accuracy    <       0.00062202 Ry

     total magnetization       =     5.95 Bohr mag/cell
     absolute magnetization    =    44.26 Bohr mag/cell

     iteration # 17     ecut=    71.00 Ry     beta= 0.30
     Davidson diagonalization with overlap
     ethr =  1.18E-07,  avg # of iterations =  1.7

     total cpu time spent up to now is     3285.7 secs

     total energy              =  -10864.23120290 Ry
     estimated scf accuracy    <       0.00046044 Ry

     total magnetization       =     5.92 Bohr mag/cell
     absolute magnetization    =    44.20 Bohr mag/cell

     iteration # 18     ecut=    71.00 Ry     beta= 0.30
     Davidson diagonalization with overlap
     ethr =  8.72E-08,  avg # of iterations =  3.2

     total cpu time spent up to now is     3492.5 secs

     total energy              =  -10864.23170923 Ry
     estimated scf accuracy    <       0.00015995 Ry

     total magnetization       =     6.09 Bohr mag/cell
     absolute magnetization    =    44.39 Bohr mag/cell

     iteration # 19     ecut=    71.00 Ry     beta= 0.30
     Davidson diagonalization with overlap
     ethr =  3.03E-08,  avg # of iterations =  4.7

     total cpu time spent up to now is     3720.1 secs

     total energy              =  -10864.23188910 Ry
     estimated scf accuracy    <       0.00019081 Ry

     total magnetization       =     6.15 Bohr mag/cell
     absolute magnetization    =    44.48 Bohr mag/cell

     iteration # 20     ecut=    71.00 Ry     beta= 0.30
     Davidson diagonalization with overlap
     ethr =  3.03E-08,  avg # of iterations =  1.5

     total cpu time spent up to now is     3878.6 secs

     total energy              =  -10864.23193032 Ry
     estimated scf accuracy    <       0.00007476 Ry

     total magnetization       =     6.14 Bohr mag/cell
     absolute magnetization    =    44.44 Bohr mag/cell

     iteration # 21     ecut=    71.00 Ry     beta= 0.30
     Davidson diagonalization with overlap
     ethr =  1.42E-08,  avg # of iterations =  2.6

     total cpu time spent up to now is     4072.2 secs

     total energy              =  -10864.23181336 Ry
     estimated scf accuracy    <       0.00006967 Ry

     total magnetization       =     6.15 Bohr mag/cell
     absolute magnetization    =    44.45 Bohr mag/cell

     iteration # 22     ecut=    71.00 Ry     beta= 0.30
     Davidson diagonalization with overlap
     ethr =  1.32E-08,  avg # of iterations =  5.1

     total cpu time spent up to now is     4325.5 secs

     total energy              =  -10864.23201186 Ry
     estimated scf accuracy    <       0.00003761 Ry

     total magnetization       =     6.21 Bohr mag/cell
     absolute magnetization    =    44.55 Bohr mag/cell

     iteration # 23     ecut=    71.00 Ry     beta= 0.30
     Davidson diagonalization with overlap
     ethr =  7.12E-09,  avg # of iterations =  2.4

     total cpu time spent up to now is     4507.8 secs

     total energy              =  -10864.23204030 Ry
     estimated scf accuracy    <       0.00002270 Ry

     total magnetization       =     6.16 Bohr mag/cell
     absolute magnetization    =    44.47 Bohr mag/cell

     iteration # 24     ecut=    71.00 Ry     beta= 0.30
     Davidson diagonalization with overlap
     ethr =  4.30E-09,  avg # of iterations =  1.5

     total cpu time spent up to now is     4666.0 secs

     total energy              =  -10864.23203442 Ry
     estimated scf accuracy    <       0.00001813 Ry

     total magnetization       =     6.14 Bohr mag/cell
     absolute magnetization    =    44.45 Bohr mag/cell

     iteration # 25     ecut=    71.00 Ry     beta= 0.30
     Davidson diagonalization with overlap
     ethr =  3.43E-09,  avg # of iterations =  3.8

     total cpu time spent up to now is     4885.7 secs

     total energy              =  -10864.23206571 Ry
     estimated scf accuracy    <       0.00001075 Ry

     total magnetization       =     6.10 Bohr mag/cell
     absolute magnetization    =    44.42 Bohr mag/cell

     iteration # 26     ecut=    71.00 Ry     beta= 0.30
     Davidson diagonalization with overlap
     ethr =  2.04E-09,  avg # of iterations =  2.8

     total cpu time spent up to now is     5132.8 secs

     total energy              =  -10864.23207288 Ry
     estimated scf accuracy    <       0.00000742 Ry

     total magnetization       =     6.06 Bohr mag/cell
     absolute magnetization    =    44.38 Bohr mag/cell

     iteration # 27     ecut=    71.00 Ry     beta= 0.30
     Davidson diagonalization with overlap
     ethr =  1.41E-09,  avg # of iterations =  3.1

     total cpu time spent up to now is     5326.5 secs

     total energy              =  -10864.23207809 Ry
     estimated scf accuracy    <       0.00000478 Ry

     total magnetization       =     6.05 Bohr mag/cell
     absolute magnetization    =    44.38 Bohr mag/cell

     iteration # 28     ecut=    71.00 Ry     beta= 0.30
     Davidson diagonalization with overlap
     ethr =  9.05E-10,  avg # of iterations =  2.2

     total cpu time spent up to now is     5498.9 secs

     total energy              =  -10864.23207967 Ry
     estimated scf accuracy    <       0.00000379 Ry

     total magnetization       =     6.04 Bohr mag/cell
     absolute magnetization    =    44.38 Bohr mag/cell

     iteration # 29     ecut=    71.00 Ry     beta= 0.30
     Davidson diagonalization with overlap
     ethr =  7.18E-10,  avg # of iterations =  4.2

     total cpu time spent up to now is     5707.9 secs

     total energy              =  -10864.23207344 Ry
     estimated scf accuracy    <       0.00000314 Ry

     total magnetization       =     6.03 Bohr mag/cell
     absolute magnetization    =    44.38 Bohr mag/cell

     iteration # 30     ecut=    71.00 Ry     beta= 0.30
     Davidson diagonalization with overlap
     ethr =  5.94E-10,  avg # of iterations =  5.0

     total cpu time spent up to now is     5968.4 secs

     total energy              =  -10864.23208764 Ry
     estimated scf accuracy    <       0.00000153 Ry

     total magnetization       =     6.00 Bohr mag/cell
     absolute magnetization    =    44.37 Bohr mag/cell

     iteration # 31     ecut=    71.00 Ry     beta= 0.30
     Davidson diagonalization with overlap
     ethr =  2.90E-10,  avg # of iterations =  2.2

     total cpu time spent up to now is     6152.6 secs

     total energy              =  -10864.23208872 Ry
     estimated scf accuracy    <       0.00000115 Ry

     total magnetization       =     5.99 Bohr mag/cell
     absolute magnetization    =    44.37 Bohr mag/cell

     iteration # 32     ecut=    71.00 Ry     beta= 0.30
     Davidson diagonalization with overlap
     ethr =  2.18E-10,  avg # of iterations =  2.5
 
     Magnetic moment per site:
     atom:    1    charge:   12.8148    magn:    0.0469    constr:    0.0000
     atom:    2    charge:   14.3931    magn:    1.6943    constr:    0.0000
     atom:    3    charge:   12.4811    magn:    0.1929    constr:    0.0000
     atom:    4    charge:   12.8020    magn:    0.7850    constr:    0.0000
     atom:    5    charge:   12.4811    magn:    0.1927    constr:    0.0000
     atom:    6    charge:   14.3931    magn:    1.6943    constr:    0.0000
     atom:    7    charge:   12.4811    magn:    0.1929    constr:    0.0000
     atom:    8    charge:   12.6798    magn:    1.2302    constr:    0.0000
     atom:    9    charge:   12.3385    magn:   -1.3224    constr:    0.0000
     atom:   10    charge:   14.3931    magn:    1.6943    constr:    0.0000
     atom:   11    charge:   12.3400    magn:   -1.2474    constr:    0.0000
     atom:   12    charge:   12.8020    magn:    0.7850    constr:    0.0000
     atom:   13    charge:   12.3401    magn:   -1.2473    constr:    0.0000
     atom:   14    charge:   14.3931    magn:    1.6943    constr:    0.0000
     atom:   15    charge:   12.3400    magn:   -1.2474    constr:    0.0000
     atom:   16    charge:   12.6798    magn:    1.2302    constr:    0.0000
     atom:   17    charge:   12.3371    magn:   -1.3064    constr:    0.0000
     atom:   18    charge:   14.3931    magn:    1.6943    constr:    0.0000
     atom:   19    charge:   12.3384    magn:   -1.3223    constr:    0.0000
     atom:   20    charge:   12.6798    magn:    1.2301    constr:    0.0000
     atom:   21    charge:   12.4811    magn:    0.1927    constr:    0.0000
     atom:   22    charge:   14.3931    magn:    1.6943    constr:    0.0000
     atom:   23    charge:   12.3384    magn:   -1.3223    constr:    0.0000
     atom:   24    charge:   12.6770    magn:    1.1319    constr:    0.0000
     atom:   25    charge:   12.3385    magn:   -1.3224    constr:    0.0000
     atom:   26    charge:   14.3931    magn:    1.6943    constr:    0.0000
     atom:   27    charge:   12.3369    magn:   -1.3065    constr:    0.0000
     atom:   28    charge:   12.6798    magn:    1.2301    constr:    0.0000
     atom:   29    charge:   12.3401    magn:   -1.2473    constr:    0.0000
     atom:   30    charge:   14.3931    magn:    1.6943    constr:    0.0000
     atom:   31    charge:   12.3369    magn:   -1.3065    constr:    0.0000
     atom:   32    charge:   12.6770    magn:    1.1319    constr:    0.0000
     atom:   33    charge:   12.3371    magn:   -1.3064    constr:    0.0000

     total cpu time spent up to now is     6330.6 secs

     End of self-consistent calculation

     Number of k-points >= 100: set verbosity='high' to print the bands.

     the Fermi energy is    20.8994 ev

!    total energy              =  -10864.23208929 Ry

     total all-electron energy =    -84002.017680 Ry
     estimated scf accuracy    <       0.00000083 Ry
     smearing contrib. (-TS)   =       0.00400242 Ry
     internal energy E=F+TS    =  -10864.23609171 Ry

     The total energy is F=E-TS. E is the sum of the following terms:
     one-electron contribution =   -3492.94178074 Ry
     hartree contribution      =    2121.08363207 Ry
     xc contribution           =    -916.86495186 Ry
     ewald contribution        =   -5843.30604005 Ry
     one-center paw contrib.   =   -2732.20695113 Ry

     total magnetization       =     5.99 Bohr mag/cell
     absolute magnetization    =    44.37 Bohr mag/cell

     convergence has been achieved in  32 iterations

     Forces acting on atoms (cartesian axes, Ry/au):

     atom    1 type  5   force =     0.00000000    0.00000000    0.00000000
     atom    2 type  1   force =    -0.01138732   -0.00482012   -0.01139030
     atom    3 type  2   force =     0.00000000    0.00000000   -0.58634479
     atom    4 type  3   force =     0.00000000   -0.46681477    0.00000000
     atom    5 type  4   force =    -0.58628661    0.00000000    0.00000000
     atom    6 type  1   force =    -0.01138732   -0.00482012    0.01139030
     atom    7 type  2   force =     0.00000000    0.00000000    0.58634479
     atom    8 type  3   force =     0.00000000   -0.00936323    0.00000000
     atom    9 type  4   force =    -0.01645109    0.00000000    0.00000000
     atom   10 type  1   force =    -0.01138732    0.00482012   -0.01139030
     atom   11 type  2   force =     0.00000000    0.00000000   -0.00440611
     atom   12 type  3   force =     0.00000000    0.46681477    0.00000000
     atom   13 type  4   force =    -0.00444294    0.00000000    0.00000000
     atom   14 type  1   force =    -0.01138732    0.00482012    0.01139030
     atom   15 type  2   force =     0.00000000    0.00000000    0.00440611
     atom   16 type  3   force =     0.00000000    0.00936323    0.00000000
     atom   17 type  4   force =    -0.00321943    0.00000000    0.00000000
     atom   18 type  1   force =     0.01138732   -0.00482012   -0.01139030
     atom   19 type  2   force =     0.00000000    0.00000000   -0.01648719
     atom   20 type  3   force =     0.00000000   -0.00935330   -0.00000000
     atom   21 type  4   force =     0.58628661    0.00000000    0.00000000
     atom   22 type  1   force =     0.01138732   -0.00482012    0.01139030
     atom   23 type  2   force =     0.00000000    0.00000000    0.01648719
     atom   24 type  3   force =     0.00000000    0.00242456    0.00000000
     atom   25 type  4   force =     0.01645109    0.00000000    0.00000000
     atom   26 type  1   force =     0.01138732    0.00482012   -0.01139030
     atom   27 type  2   force =     0.00000000    0.00000000   -0.00325712
     atom   28 type  3   force =     0.00000000    0.00935330   -0.00000000
     atom   29 type  4   force =     0.00444294    0.00000000    0.00000000
     atom   30 type  1   force =     0.01138732    0.00482012    0.01139030
     atom   31 type  2   force =     0.00000000    0.00000000    0.00325712
     atom   32 type  3   force =     0.00000000   -0.00242456    0.00000000
     atom   33 type  4   force =     0.00321943    0.00000000    0.00000000

     Total force =     1.347117     Total SCF correction =     0.003016


     Computing stress (Cartesian axis) and pressure

          total   stress  (Ry/bohr**3)                   (kbar)     P=      262.74
   0.00192251   0.00000000   0.00000000          282.81        0.00        0.00
   0.00000000   0.00151341   0.00000000            0.00      222.63        0.00
   0.00000000   0.00000000   0.00192233            0.00        0.00      282.78


     BFGS Geometry Optimization
     Energy error            =      0.0E+00
     Gradient error          =      5.9E-01
     Cell gradient error     =      1.9E-03


     number of scf cycles    =   1
     number of bfgs steps    =   0

     enthalpy new            =  -10864.2320892944 Ry

     new trust radius        =       0.5000000000 bohr
     new conv_thr            =       0.0000010000 Ry

     new unit-cell volume =   2554.65655 a.u.^3 (   378.56104 Ang^3 )
     density =      8.08372 g/cm^3

CELL_PARAMETERS (alat= 12.93818670)
   1.040985141   0.000000000   0.000000000
   0.000000000   1.088491037   0.000000000
   0.000000000   0.000000000   1.040981216

ATOMIC_POSITIONS (crystal)
Fe5           0.2500000000        0.2500000000        0.2500000000
Fe1          -0.0007505251       -0.0003012777       -0.0007507210
Fe2           0.2500000000        0.2500000000       -0.0386452918
Fe3           0.2500000000       -0.0291778903        0.2500000000
Fe4          -0.0386414577        0.2500000000        0.2500000000
Fe1          -0.0007505251       -0.0003012777        0.5007507210
Fe2           0.2500000000        0.2500000000        0.5386452918
Fe3           0.2500000000       -0.0005852412        0.7500000000
Fe4          -0.0010842718        0.2500000000        0.7500000000
Fe1          -0.0007505251        0.5003012777       -0.0007507210
Fe2           0.2500000000        0.7500000000       -0.0002904014
Fe3           0.2500000000        0.5291778903        0.2500000000
Fe4          -0.0002928287        0.7500000000        0.2500000000
Fe1          -0.0007505251        0.5003012777        0.5007507210
Fe2           0.2500000000        0.7500000000        0.5002904014
Fe3           0.2500000000        0.5005852412        0.7500000000
Fe4          -0.0002121886        0.7500000000        0.7500000000
Fe1           0.5007505251       -0.0003012777       -0.0007507210
Fe2           0.7500000000        0.2500000000       -0.0010866510
Fe3           0.7500000000       -0.0005846209        0.2500000000
Fe4           0.5386414577        0.2500000000        0.2500000000
Fe1           0.5007505251       -0.0003012777        0.5007507210
Fe2           0.7500000000        0.2500000000        0.5010866510
Fe3           0.7500000000        0.0001515454        0.7500000000
Fe4           0.5010842718        0.2500000000        0.7500000000
Fe1           0.5007505251        0.5003012777       -0.0007507210
Fe2           0.7500000000        0.7500000000       -0.0002146726
Fe3           0.7500000000        0.5005846209        0.2500000000
Fe4           0.5002928287        0.7500000000        0.2500000000
Fe1           0.5007505251        0.5003012777        0.5007507210
Fe2           0.7500000000        0.7500000000        0.5002146726
Fe3           0.7500000000        0.4998484546        0.7500000000
Fe4           0.5002121886        0.7500000000        0.7500000000



     Writing output data file /scratch/bxp912/feocta2.save/
     NEW-OLD atomic charge density approx. for the potential

     Check: negative core charge=   -0.000006
     extrapolated charge  583.98339, renormalised to  528.00000
     Generating pointlists ...

     total cpu time spent up to now is     6538.2 secs

     Self-consistent Calculation

     iteration #  1     ecut=    71.00 Ry     beta= 0.30
     Davidson diagonalization with overlap
     c_bands:  4 eigenvalues not converged
     c_bands:  2 eigenvalues not converged
     c_bands:  3 eigenvalues not converged
     c_bands:  2 eigenvalues not converged
     c_bands:  2 eigenvalues not converged
     c_bands:  1 eigenvalues not converged
     c_bands:  2 eigenvalues not converged
     c_bands:  1 eigenvalues not converged
     c_bands:  1 eigenvalues not converged
     c_bands:  3 eigenvalues not converged
     c_bands:  5 eigenvalues not converged
     c_bands:  1 eigenvalues not converged
     c_bands:  1 eigenvalues not converged
     c_bands:  1 eigenvalues not converged
     c_bands:  1 eigenvalues not converged
     c_bands:  1 eigenvalues not converged
     c_bands:  2 eigenvalues not converged
     c_bands:  1 eigenvalues not converged
     c_bands:  1 eigenvalues not converged
     c_bands:  2 eigenvalues not converged
     c_bands:  1 eigenvalues not converged
     c_bands:  1 eigenvalues not converged
     c_bands:  2 eigenvalues not converged
     c_bands:  3 eigenvalues not converged
     c_bands:  5 eigenvalues not converged
     c_bands:  1 eigenvalues not converged
     c_bands:  4 eigenvalues not converged
     c_bands:  2 eigenvalues not converged
     c_bands:  2 eigenvalues not converged
     c_bands:  3 eigenvalues not converged
     c_bands:  3 eigenvalues not converged
     c_bands:  2 eigenvalues not converged
     c_bands:  1 eigenvalues not converged
     c_bands:  1 eigenvalues not converged
     c_bands:  1 eigenvalues not converged
     c_bands:  1 eigenvalues not converged
     c_bands:  1 eigenvalues not converged
     c_bands:  2 eigenvalues not converged
     c_bands:  3 eigenvalues not converged
     c_bands:  5 eigenvalues not converged
     c_bands:  4 eigenvalues not converged
     c_bands:  1 eigenvalues not converged
     c_bands:  1 eigenvalues not converged
     c_bands:  4 eigenvalues not converged
     c_bands:  1 eigenvalues not converged
     c_bands:  1 eigenvalues not converged
     c_bands:  1 eigenvalues not converged
     c_bands:  5 eigenvalues not converged
     c_bands:  4 eigenvalues not converged
     c_bands:  4 eigenvalues not converged
     c_bands:  1 eigenvalues not converged
     c_bands:  2 eigenvalues not converged
     c_bands:  2 eigenvalues not converged
     c_bands:  1 eigenvalues not converged
     c_bands:  1 eigenvalues not converged
     c_bands:  2 eigenvalues not converged
     c_bands:  3 eigenvalues not converged
     c_bands:  2 eigenvalues not converged
     c_bands:  2 eigenvalues not converged
     c_bands:  3 eigenvalues not converged
     c_bands:  2 eigenvalues not converged
     c_bands:  1 eigenvalues not converged
     c_bands:  2 eigenvalues not converged
     c_bands:  2 eigenvalues not converged
     c_bands:  1 eigenvalues not converged
     c_bands:  1 eigenvalues not converged
     c_bands:  1 eigenvalues not converged
     c_bands:  1 eigenvalues not converged
     c_bands:  1 eigenvalues not converged
     c_bands:  3 eigenvalues not converged
     c_bands:  3 eigenvalues not converged
     c_bands:  1 eigenvalues not converged
     c_bands:  4 eigenvalues not converged
     c_bands:  1 eigenvalues not converged
     c_bands:  1 eigenvalues not converged
     c_bands:  5 eigenvalues not converged
     c_bands:  2 eigenvalues not converged
     c_bands:  1 eigenvalues not converged
     c_bands:  1 eigenvalues not converged
     c_bands:  1 eigenvalues not converged
     c_bands:  2 eigenvalues not converged
     c_bands:  4 eigenvalues not converged
     c_bands:  1 eigenvalues not converged
     c_bands:  4 eigenvalues not converged
     c_bands:  4 eigenvalues not converged
     c_bands:  1 eigenvalues not converged
     c_bands:  4 eigenvalues not converged
     c_bands:  1 eigenvalues not converged
     c_bands:  1 eigenvalues not converged
     c_bands:  3 eigenvalues not converged
     c_bands:  3 eigenvalues not converged
     c_bands:  2 eigenvalues not converged
     c_bands:  1 eigenvalues not converged
     c_bands:  2 eigenvalues not converged
     c_bands:  1 eigenvalues not converged
     c_bands:  1 eigenvalues not converged
     c_bands:  5 eigenvalues not converged
     c_bands:  3 eigenvalues not converged
     c_bands:  1 eigenvalues not converged
     c_bands:  1 eigenvalues not converged
     c_bands:  2 eigenvalues not converged
     c_bands:  4 eigenvalues not converged
     c_bands:  1 eigenvalues not converged
     c_bands:  1 eigenvalues not converged
     c_bands:  5 eigenvalues not converged
     c_bands:  3 eigenvalues not converged
     c_bands:  1 eigenvalues not converged
     c_bands:  1 eigenvalues not converged
     c_bands:  4 eigenvalues not converged
     c_bands:  1 eigenvalues not converged
     c_bands:  3 eigenvalues not converged
     c_bands:  2 eigenvalues not converged
     c_bands:  1 eigenvalues not converged
     c_bands:  2 eigenvalues not converged
     c_bands:  1 eigenvalues not converged
     c_bands:  2 eigenvalues not converged
     c_bands:  3 eigenvalues not converged
     c_bands:  5 eigenvalues not converged
     c_bands:  1 eigenvalues not converged
     c_bands:  1 eigenvalues not converged
     c_bands:  1 eigenvalues not converged
     c_bands:  1 eigenvalues not converged
     c_bands:  3 eigenvalues not converged
     c_bands:  3 eigenvalues not converged
     c_bands:  2 eigenvalues not converged
     c_bands:  5 eigenvalues not converged
     c_bands:  1 eigenvalues not converged
     c_bands:  5 eigenvalues not converged
     c_bands:  2 eigenvalues not converged
     c_bands:  1 eigenvalues not converged
     c_bands:  1 eigenvalues not converged
     c_bands:  2 eigenvalues not converged
     c_bands:  4 eigenvalues not converged
     c_bands:  1 eigenvalues not converged
     c_bands:  3 eigenvalues not converged
     c_bands:  1 eigenvalues not converged
     c_bands:  1 eigenvalues not converged
     c_bands:  2 eigenvalues not converged
     c_bands:  1 eigenvalues not converged
     c_bands:  3 eigenvalues not converged
     c_bands:  1 eigenvalues not converged
     c_bands:  3 eigenvalues not converged
     c_bands:  4 eigenvalues not converged
     ethr =  1.00E-06,  avg # of iterations = 40.0

     negative rho (up, down):  3.971E+01 4.031E+01

     total cpu time spent up to now is     8303.4 secs

     total energy              =  -12244.53210504 Ry
     estimated scf accuracy    <   27662.88399354 Ry

     total magnetization       =     2.49 Bohr mag/cell
     absolute magnetization    =    20.94 Bohr mag/cell

     iteration #  2     ecut=    71.00 Ry     beta= 0.30
     Davidson diagonalization with overlap
     ethr =  1.00E-02,  avg # of iterations =  7.6

     negative rho (up, down):  1.632E+02 1.633E+02

     total cpu time spent up to now is     8684.8 secs

     total energy              =  -10703.45548688 Ry
     estimated scf accuracy    <   16657.87131136 Ry

     total magnetization       =     8.51 Bohr mag/cell
     absolute magnetization    =    39.09 Bohr mag/cell

     iteration #  3     ecut=    71.00 Ry     beta= 0.30
     Davidson diagonalization with overlap
     ethr =  1.00E-02,  avg # of iterations =  7.0

     negative rho (up, down):  1.784E+02 1.783E+02

     total cpu time spent up to now is     9064.0 secs

     total energy              =  -10671.23025901 Ry
     estimated scf accuracy    <     753.03917089 Ry

     total magnetization       =     9.06 Bohr mag/cell
     absolute magnetization    =    18.64 Bohr mag/cell

     iteration #  4     ecut=    71.00 Ry     beta= 0.30
     Davidson diagonalization with overlap
     ethr =  1.00E-02,  avg # of iterations =  3.0

     negative rho (up, down):  1.736E+02 1.735E+02

     total cpu time spent up to now is     9252.5 secs

     total energy              =  -10750.37092702 Ry
     estimated scf accuracy    <     345.18221477 Ry

     total magnetization       =     7.55 Bohr mag/cell
     absolute magnetization    =    28.13 Bohr mag/cell

     iteration #  5     ecut=    71.00 Ry     beta= 0.30
     Davidson diagonalization with overlap
     ethr =  1.00E-02,  avg # of iterations =  5.0

     negative rho (up, down):  1.696E+02 1.696E+02

     total cpu time spent up to now is     9520.4 secs

     total energy              =  -10827.55887883 Ry
     estimated scf accuracy    <     143.13325676 Ry

     total magnetization       =    10.46 Bohr mag/cell
     absolute magnetization    =    38.41 Bohr mag/cell

     iteration #  6     ecut=    71.00 Ry     beta= 0.30
     Davidson diagonalization with overlap
     ethr =  1.00E-02,  avg # of iterations =  2.0

     negative rho (up, down):  1.642E+02 1.642E+02

     total cpu time spent up to now is     9694.4 secs

     total energy              =  -10875.62513623 Ry
     estimated scf accuracy    <      55.86770431 Ry

     total magnetization       =    12.43 Bohr mag/cell
     absolute magnetization    =    38.51 Bohr mag/cell

     iteration #  7     ecut=    71.00 Ry     beta= 0.30
     Davidson diagonalization with overlap
     ethr =  1.00E-02,  avg # of iterations =  3.6

     negative rho (up, down):  1.565E+02 1.565E+02

     total cpu time spent up to now is     9880.2 secs

     total energy              =  -10907.58828845 Ry
     estimated scf accuracy    <      59.64044134 Ry

     total magnetization       =     8.86 Bohr mag/cell
     absolute magnetization    =    36.51 Bohr mag/cell

     iteration #  8     ecut=    71.00 Ry     beta= 0.30
     Davidson diagonalization with overlap
     ethr =  1.00E-02,  avg # of iterations =  3.6

     negative rho (up, down):  1.593E+02 1.593E+02

     total cpu time spent up to now is    10082.7 secs

     total energy              =  -10959.89586843 Ry
     estimated scf accuracy    <     532.74251521 Ry

     total magnetization       =    14.41 Bohr mag/cell
     absolute magnetization    =    43.22 Bohr mag/cell

     iteration #  9     ecut=    71.00 Ry     beta= 0.30
     Davidson diagonalization with overlap
     ethr =  1.00E-02,  avg # of iterations =  1.0

     negative rho (up, down):  1.541E+02 1.541E+02

     total cpu time spent up to now is    10232.9 secs

     total energy              =  -10955.33180371 Ry
     estimated scf accuracy    <     648.71245073 Ry

     total magnetization       =    14.24 Bohr mag/cell
     absolute magnetization    =    43.06 Bohr mag/cell

     iteration # 10     ecut=    71.00 Ry     beta= 0.30
     Davidson diagonalization with overlap
     ethr =  1.00E-02,  avg # of iterations =  2.0

     negative rho (up, down):  1.405E+02 1.406E+02

     total cpu time spent up to now is    10403.3 secs

     total energy              =  -10942.48749004 Ry
     estimated scf accuracy    <     296.76539835 Ry

     total magnetization       =    13.94 Bohr mag/cell
     absolute magnetization    =    43.36 Bohr mag/cell

     iteration # 11     ecut=    71.00 Ry     beta= 0.30
     Davidson diagonalization with overlap
     ethr =  1.00E-02,  avg # of iterations =  4.0

     negative rho (up, down):  1.403E+02 1.404E+02

     total cpu time spent up to now is    10597.7 secs

     total energy              =  -10940.31184545 Ry
     estimated scf accuracy    <     303.06415908 Ry

     total magnetization       =     7.05 Bohr mag/cell
     absolute magnetization    =    32.39 Bohr mag/cell

     iteration # 12     ecut=    71.00 Ry     beta= 0.30
     Davidson diagonalization with overlap
     ethr =  1.00E-02,  avg # of iterations =  3.0

     negative rho (up, down):  1.400E+02 1.400E+02

     total cpu time spent up to now is    10778.8 secs

     total energy              =  -10959.20787939 Ry
     estimated scf accuracy    <      47.61467245 Ry

     total magnetization       =     7.56 Bohr mag/cell
     absolute magnetization    =    37.51 Bohr mag/cell

     iteration # 13     ecut=    71.00 Ry     beta= 0.30
     Davidson diagonalization with overlap
     ethr =  9.02E-03,  avg # of iterations =  1.0

     negative rho (up, down):  1.419E+02 1.420E+02

     total cpu time spent up to now is    10929.3 secs

     total energy              =  -10954.42998640 Ry
     estimated scf accuracy    <      38.35182187 Ry

     total magnetization       =     7.76 Bohr mag/cell
     absolute magnetization    =    38.62 Bohr mag/cell

     iteration # 14     ecut=    71.00 Ry     beta= 0.30
     Davidson diagonalization with overlap
     ethr =  7.26E-03,  avg # of iterations =  2.0

     negative rho (up, down):  1.380E+02 1.381E+02

     total cpu time spent up to now is    11100.8 secs

     total energy              =  -10958.86088350 Ry
     estimated scf accuracy    <      30.23725794 Ry

     total magnetization       =     9.74 Bohr mag/cell
     absolute magnetization    =    42.50 Bohr mag/cell

     iteration # 15     ecut=    71.00 Ry     beta= 0.30
     Davidson diagonalization with overlap
     ethr =  5.73E-03,  avg # of iterations =  2.0

     negative rho (up, down):  1.372E+02 1.373E+02

     total cpu time spent up to now is    11269.3 secs

     total energy              =  -10959.33669796 Ry
     estimated scf accuracy    <       7.68954381 Ry

     total magnetization       =     9.53 Bohr mag/cell
     absolute magnetization    =    42.18 Bohr mag/cell

     iteration # 16     ecut=    71.00 Ry     beta= 0.30
     Davidson diagonalization with overlap
     ethr =  1.46E-03,  avg # of iterations =  2.1

     negative rho (up, down):  1.380E+02 1.381E+02

     total cpu time spent up to now is    11438.1 secs

     total energy              =  -10959.12661879 Ry
     estimated scf accuracy    <       3.50345765 Ry

     total magnetization       =     9.30 Bohr mag/cell
     absolute magnetization    =    41.94 Bohr mag/cell

     iteration # 17     ecut=    71.00 Ry     beta= 0.30
     Davidson diagonalization with overlap
     ethr =  6.64E-04,  avg # of iterations =  2.3

     negative rho (up, down):  1.387E+02 1.387E+02

     total cpu time spent up to now is    11610.8 secs

     total energy              =  -10958.98198420 Ry
     estimated scf accuracy    <       3.94419050 Ry

     total magnetization       =     9.73 Bohr mag/cell
     absolute magnetization    =    42.28 Bohr mag/cell

     iteration # 18     ecut=    71.00 Ry     beta= 0.30
     Davidson diagonalization with overlap
     ethr =  6.64E-04,  avg # of iterations =  1.1

     negative rho (up, down):  1.403E+02 1.404E+02

     total cpu time spent up to now is    11761.8 secs

     total energy              =  -10958.17176264 Ry
     estimated scf accuracy    <       3.77848522 Ry

     total magnetization       =     9.39 Bohr mag/cell
     absolute magnetization    =    41.80 Bohr mag/cell

     iteration # 19     ecut=    71.00 Ry     beta= 0.30
     Davidson diagonalization with overlap
     ethr =  6.64E-04,  avg # of iterations =  2.1

     negative rho (up, down):  1.405E+02 1.405E+02

     total cpu time spent up to now is    11930.2 secs

     total energy              =  -10957.99922956 Ry
     estimated scf accuracy    <       6.56723631 Ry

     total magnetization       =     9.60 Bohr mag/cell
     absolute magnetization    =    42.78 Bohr mag/cell

     iteration # 20     ecut=    71.00 Ry     beta= 0.30
     Davidson diagonalization with overlap
     ethr =  6.64E-04,  avg # of iterations =  1.2

     negative rho (up, down):  1.401E+02 1.401E+02

     total cpu time spent up to now is    12081.1 secs

     total energy              =  -10958.41064262 Ry
     estimated scf accuracy    <       4.79128512 Ry

     total magnetization       =     9.59 Bohr mag/cell
     absolute magnetization    =    42.45 Bohr mag/cell

     iteration # 21     ecut=    71.00 Ry     beta= 0.30
     Davidson diagonalization with overlap
     ethr =  6.64E-04,  avg # of iterations =  2.0

     negative rho (up, down):  1.397E+02 1.397E+02

     total cpu time spent up to now is    12248.2 secs

     total energy              =  -10958.77082740 Ry
     estimated scf accuracy    <       4.94929447 Ry

     total magnetization       =     9.76 Bohr mag/cell
     absolute magnetization    =    42.19 Bohr mag/cell

     iteration # 22     ecut=    71.00 Ry     beta= 0.30
     Davidson diagonalization with overlap
     ethr =  6.64E-04,  avg # of iterations =  1.1

     negative rho (up, down):  1.391E+02 1.391E+02

     total cpu time spent up to now is    12399.1 secs

     total energy              =  -10959.19978925 Ry
     estimated scf accuracy    <       4.70073660 Ry

     total magnetization       =     9.82 Bohr mag/cell
     absolute magnetization    =    42.25 Bohr mag/cell

     iteration # 23     ecut=    71.00 Ry     beta= 0.30
     Davidson diagonalization with overlap
     ethr =  6.64E-04,  avg # of iterations =  2.0

     negative rho (up, down):  1.383E+02 1.383E+02

     total cpu time spent up to now is    12568.3 secs

     total energy              =  -10959.83096796 Ry
     estimated scf accuracy    <      10.09247289 Ry

     total magnetization       =     9.36 Bohr mag/cell
     absolute magnetization    =    42.62 Bohr mag/cell

     iteration # 24     ecut=    71.00 Ry     beta= 0.30
     Davidson diagonalization with overlap
     ethr =  6.64E-04,  avg # of iterations =  2.0

     negative rho (up, down):  1.388E+02 1.388E+02

     total cpu time spent up to now is    12736.9 secs

     total energy              =  -10959.93624084 Ry
     estimated scf accuracy    <      11.64174434 Ry

     total magnetization       =     9.50 Bohr mag/cell
     absolute magnetization    =    42.69 Bohr mag/cell

     iteration # 25     ecut=    71.00 Ry     beta= 0.30
     Davidson diagonalization with overlap
     ethr =  6.64E-04,  avg # of iterations =  2.0

     negative rho (up, down):  1.369E+02 1.369E+02

     total cpu time spent up to now is    12905.3 secs

     total energy              =  -10959.98045086 Ry
     estimated scf accuracy    <      19.31049265 Ry

     total magnetization       =     9.74 Bohr mag/cell
     absolute magnetization    =    43.09 Bohr mag/cell

     iteration # 26     ecut=    71.00 Ry     beta= 0.30
     Davidson diagonalization with overlap
     ethr =  6.64E-04,  avg # of iterations =  2.0

     negative rho (up, down):  1.359E+02 1.360E+02

     total cpu time spent up to now is    13074.5 secs

     total energy              =  -10960.18625307 Ry
     estimated scf accuracy    <      13.35985612 Ry

     total magnetization       =     9.91 Bohr mag/cell
     absolute magnetization    =    42.65 Bohr mag/cell

     iteration # 27     ecut=    71.00 Ry     beta= 0.30
     Davidson diagonalization with overlap
     ethr =  6.64E-04,  avg # of iterations =  2.0

     negative rho (up, down):  1.385E+02 1.385E+02

     total cpu time spent up to now is    13241.3 secs

     total energy              =  -10959.40729836 Ry
     estimated scf accuracy    <      12.20881384 Ry

     total magnetization       =     9.43 Bohr mag/cell
     absolute magnetization    =    42.77 Bohr mag/cell

     iteration # 28     ecut=    71.00 Ry     beta= 0.30
     Davidson diagonalization with overlap
     ethr =  6.64E-04,  avg # of iterations =  2.1

     negative rho (up, down):  1.384E+02 1.384E+02

     total cpu time spent up to now is    13413.3 secs

     total energy              =  -10959.62287561 Ry
     estimated scf accuracy    <      18.04454451 Ry

     total magnetization       =     9.22 Bohr mag/cell
     absolute magnetization    =    43.52 Bohr mag/cell

     iteration # 29     ecut=    71.00 Ry     beta= 0.30
     Davidson diagonalization with overlap
     ethr =  6.64E-04,  avg # of iterations =  1.0

     negative rho (up, down):  1.395E+02 1.395E+02

     total cpu time spent up to now is    13562.5 secs

     total energy              =  -10958.95396316 Ry
     estimated scf accuracy    <      17.80619123 Ry

     total magnetization       =     9.15 Bohr mag/cell
     absolute magnetization    =    43.49 Bohr mag/cell

     iteration # 30     ecut=    71.00 Ry     beta= 0.30
     Davidson diagonalization with overlap
     ethr =  6.64E-04,  avg # of iterations =  2.0

     negative rho (up, down):  1.367E+02 1.367E+02

     total cpu time spent up to now is    13731.3 secs

     total energy              =  -10959.97963985 Ry
     estimated scf accuracy    <      17.93252094 Ry

     total magnetization       =     9.20 Bohr mag/cell
     absolute magnetization    =    43.80 Bohr mag/cell

     iteration # 31     ecut=    71.00 Ry     beta= 0.30
     Davidson diagonalization with overlap
     ethr =  6.64E-04,  avg # of iterations =  2.1

     negative rho (up, down):  1.336E+02 1.336E+02

     total cpu time spent up to now is    13904.1 secs

     total energy              =  -10959.82244985 Ry
     estimated scf accuracy    <      13.91502074 Ry

     total magnetization       =    10.33 Bohr mag/cell
     absolute magnetization    =    43.79 Bohr mag/cell

     iteration # 32     ecut=    71.00 Ry     beta= 0.30
     Davidson diagonalization with overlap
     ethr =  6.64E-04,  avg # of iterations =  2.0

     negative rho (up, down):  1.229E+02 1.229E+02

     total cpu time spent up to now is    14076.4 secs

     total energy              =  -10949.42815137 Ry
     estimated scf accuracy    <      13.85505848 Ry

     total magnetization       =     9.28 Bohr mag/cell
     absolute magnetization    =    40.50 Bohr mag/cell

     iteration # 33     ecut=    71.00 Ry     beta= 0.30
     Davidson diagonalization with overlap
     ethr =  6.64E-04,  avg # of iterations =  4.2

     negative rho (up, down):  1.222E+02 1.222E+02

     total cpu time spent up to now is    14276.5 secs

     total energy              =  -10954.80038696 Ry
     estimated scf accuracy    <      18.58177100 Ry

     total magnetization       =    13.05 Bohr mag/cell
     absolute magnetization    =    46.46 Bohr mag/cell

     iteration # 34     ecut=    71.00 Ry     beta= 0.30
     Davidson diagonalization with overlap
     ethr =  6.64E-04,  avg # of iterations =  2.0

     negative rho (up, down):  1.256E+02 1.257E+02

     total cpu time spent up to now is    14443.7 secs

     total energy              =  -10956.86692680 Ry
     estimated scf accuracy    <      21.60202249 Ry

     total magnetization       =    13.28 Bohr mag/cell
     absolute magnetization    =    46.86 Bohr mag/cell

     iteration # 35     ecut=    71.00 Ry     beta= 0.30
     Davidson diagonalization with overlap
     ethr =  6.64E-04,  avg # of iterations =  3.0

     negative rho (up, down):  1.261E+02 1.262E+02

     total cpu time spent up to now is    14623.8 secs

     total energy              =  -10958.32866173 Ry
     estimated scf accuracy    <      19.85002252 Ry

     total magnetization       =    11.02 Bohr mag/cell
     absolute magnetization    =    43.53 Bohr mag/cell

     iteration # 36     ecut=    71.00 Ry     beta= 0.30
     Davidson diagonalization with overlap
     ethr =  6.64E-04,  avg # of iterations =  2.0

     negative rho (up, down):  1.269E+02 1.268E+02

     total cpu time spent up to now is    14791.8 secs

     total energy              =  -10958.70309681 Ry
     estimated scf accuracy    <      23.39358458 Ry

     total magnetization       =    11.38 Bohr mag/cell
     absolute magnetization    =    43.26 Bohr mag/cell

     iteration # 37     ecut=    71.00 Ry     beta= 0.30
     Davidson diagonalization with overlap
     ethr =  6.64E-04,  avg # of iterations =  2.0

     negative rho (up, down):  1.312E+02 1.312E+02

     total cpu time spent up to now is    14959.2 secs

     total energy              =  -10959.14470964 Ry
     estimated scf accuracy    <      30.83826041 Ry

     total magnetization       =    14.15 Bohr mag/cell
     absolute magnetization    =    46.41 Bohr mag/cell

     iteration # 38     ecut=    71.00 Ry     beta= 0.30
     Davidson diagonalization with overlap
     ethr =  6.64E-04,  avg # of iterations =  3.0

     negative rho (up, down):  1.258E+02 1.258E+02

     total cpu time spent up to now is    15142.6 secs

     total energy              =  -10956.67241748 Ry
     estimated scf accuracy    <      24.17526932 Ry

     total magnetization       =    11.72 Bohr mag/cell
     absolute magnetization    =    43.89 Bohr mag/cell

     iteration # 39     ecut=    71.00 Ry     beta= 0.30
     Davidson diagonalization with overlap
     ethr =  6.64E-04,  avg # of iterations =  3.0

     negative rho (up, down):  1.243E+02 1.243E+02

     total cpu time spent up to now is    15324.4 secs

     total energy              =  -10956.24578432 Ry
     estimated scf accuracy    <      19.48318028 Ry

     total magnetization       =    12.29 Bohr mag/cell
     absolute magnetization    =    45.10 Bohr mag/cell

     iteration # 40     ecut=    71.00 Ry     beta= 0.30
     Davidson diagonalization with overlap
     ethr =  6.64E-04,  avg # of iterations =  2.0

     negative rho (up, down):  1.158E+02 1.158E+02

     total cpu time spent up to now is    15497.4 secs

     total energy              =  -10946.47393291 Ry
     estimated scf accuracy    <      25.63759842 Ry

     total magnetization       =    13.22 Bohr mag/cell
     absolute magnetization    =    47.13 Bohr mag/cell

     iteration # 41     ecut=    71.00 Ry     beta= 0.30
     Davidson diagonalization with overlap
     ethr =  6.64E-04,  avg # of iterations =  4.0

     negative rho (up, down):  1.118E+02 1.118E+02

     total cpu time spent up to now is    15689.2 secs

     total energy              =  -10942.41784402 Ry
     estimated scf accuracy    <      66.92799573 Ry

     total magnetization       =    16.28 Bohr mag/cell
     absolute magnetization    =    50.48 Bohr mag/cell

     iteration # 42     ecut=    71.00 Ry     beta= 0.30
     Davidson diagonalization with overlap
     ethr =  6.64E-04,  avg # of iterations =  2.8

     negative rho (up, down):  1.177E+02 1.177E+02

     total cpu time spent up to now is    15867.5 secs

     total energy              =  -10949.79944979 Ry
     estimated scf accuracy    <      74.75702399 Ry

     total magnetization       =    16.94 Bohr mag/cell
     absolute magnetization    =    53.34 Bohr mag/cell

     iteration # 43     ecut=    71.00 Ry     beta= 0.30
     Davidson diagonalization with overlap
     ethr =  6.64E-04,  avg # of iterations =  2.9

     negative rho (up, down):  1.292E+02 1.293E+02

     total cpu time spent up to now is    16047.3 secs

     total energy              =  -10956.23028573 Ry
     estimated scf accuracy    <      46.23189426 Ry

     total magnetization       =    15.36 Bohr mag/cell
     absolute magnetization    =    50.76 Bohr mag/cell

     iteration # 44     ecut=    71.00 Ry     beta= 0.30
     Davidson diagonalization with overlap
     ethr =  6.64E-04,  avg # of iterations =  4.0

     negative rho (up, down):  1.397E+02 1.397E+02

     total cpu time spent up to now is    16243.2 secs

     total energy              =  -10958.02428998 Ry
     estimated scf accuracy    <      28.86584649 Ry

     total magnetization       =    12.12 Bohr mag/cell
     absolute magnetization    =    42.93 Bohr mag/cell

     iteration # 45     ecut=    71.00 Ry     beta= 0.30
     Davidson diagonalization with overlap
     ethr =  6.64E-04,  avg # of iterations =  4.0

     negative rho (up, down):  1.369E+02 1.369E+02

     total cpu time spent up to now is    16434.8 secs

     total energy              =  -10960.07424092 Ry
     estimated scf accuracy    <      33.14656525 Ry

     total magnetization       =     7.89 Bohr mag/cell
     absolute magnetization    =    42.08 Bohr mag/cell

     iteration # 46     ecut=    71.00 Ry     beta= 0.30
     Davidson diagonalization with overlap
     ethr =  6.64E-04,  avg # of iterations =  2.0

     negative rho (up, down):  1.317E+02 1.318E+02

     total cpu time spent up to now is    16603.4 secs

     total energy              =  -10960.14736355 Ry
     estimated scf accuracy    <      10.11839865 Ry

     total magnetization       =     9.64 Bohr mag/cell
     absolute magnetization    =    43.56 Bohr mag/cell

     iteration # 47     ecut=    71.00 Ry     beta= 0.30
     Davidson diagonalization with overlap
     ethr =  6.64E-04,  avg # of iterations =  2.0

     negative rho (up, down):  1.330E+02 1.330E+02

     total cpu time spent up to now is    16776.1 secs

     total energy              =  -10960.48374748 Ry
     estimated scf accuracy    <      13.02772119 Ry

     total magnetization       =    10.29 Bohr mag/cell
     absolute magnetization    =    44.59 Bohr mag/cell

     iteration # 48     ecut=    71.00 Ry     beta= 0.30
     Davidson diagonalization with overlap
     ethr =  6.64E-04,  avg # of iterations =  2.0

     negative rho (up, down):  1.272E+02 1.272E+02

     total cpu time spent up to now is    16943.5 secs

     total energy              =  -10957.49146640 Ry
     estimated scf accuracy    <       8.96711506 Ry

     total magnetization       =     9.79 Bohr mag/cell
     absolute magnetization    =    45.91 Bohr mag/cell

     iteration # 49     ecut=    71.00 Ry     beta= 0.30
     Davidson diagonalization with overlap
     ethr =  6.64E-04,  avg # of iterations =  3.5

     negative rho (up, down):  1.277E+02 1.277E+02

     total cpu time spent up to now is    17124.4 secs

     total energy              =  -10958.99622537 Ry
     estimated scf accuracy    <      16.15615041 Ry

     total magnetization       =    14.34 Bohr mag/cell
     absolute magnetization    =    44.28 Bohr mag/cell

     iteration # 50     ecut=    71.00 Ry     beta= 0.30
     Davidson diagonalization with overlap
     ethr =  6.64E-04,  avg # of iterations =  1.0

     negative rho (up, down):  1.280E+02 1.280E+02

     total cpu time spent up to now is    17273.6 secs

     total energy              =  -10959.30798122 Ry
     estimated scf accuracy    <      14.42890351 Ry

     total magnetization       =    14.20 Bohr mag/cell
     absolute magnetization    =    43.89 Bohr mag/cell

     iteration # 51     ecut=    71.00 Ry     beta= 0.30
     Davidson diagonalization with overlap
     ethr =  6.64E-04,  avg # of iterations =  2.0

     negative rho (up, down):  1.306E+02 1.307E+02

     total cpu time spent up to now is    17440.2 secs

     total energy              =  -10960.15258698 Ry
     estimated scf accuracy    <      21.00465670 Ry

     total magnetization       =    12.67 Bohr mag/cell
     absolute magnetization    =    43.96 Bohr mag/cell

     iteration # 52     ecut=    71.00 Ry     beta= 0.30
     Davidson diagonalization with overlap
     ethr =  6.64E-04,  avg # of iterations =  2.0

     negative rho (up, down):  1.322E+02 1.322E+02

     total cpu time spent up to now is    17610.0 secs

     total energy              =  -10960.70272291 Ry
     estimated scf accuracy    <       7.95982387 Ry

     total magnetization       =    11.04 Bohr mag/cell
     absolute magnetization    =    42.99 Bohr mag/cell

     iteration # 53     ecut=    71.00 Ry     beta= 0.30
     Davidson diagonalization with overlap
     ethr =  6.64E-04,  avg # of iterations =  2.0

     negative rho (up, down):  1.334E+02 1.335E+02

     total cpu time spent up to now is    17777.4 secs

     total energy              =  -10960.78348404 Ry
     estimated scf accuracy    <       8.14538027 Ry

     total magnetization       =    10.59 Bohr mag/cell
     absolute magnetization    =    41.49 Bohr mag/cell

     iteration # 54     ecut=    71.00 Ry     beta= 0.30
     Davidson diagonalization with overlap
     ethr =  6.64E-04,  avg # of iterations =  2.0

     negative rho (up, down):  1.325E+02 1.325E+02

     total cpu time spent up to now is    17946.0 secs

     total energy              =  -10960.72357471 Ry
     estimated scf accuracy    <      10.16517450 Ry

     total magnetization       =     9.88 Bohr mag/cell
     absolute magnetization    =    41.06 Bohr mag/cell

     iteration # 55     ecut=    71.00 Ry     beta= 0.30
     Davidson diagonalization with overlap
     ethr =  6.64E-04,  avg # of iterations =  1.0

     negative rho (up, down):  1.280E+02 1.281E+02

     total cpu time spent up to now is    18094.3 secs

     total energy              =  -10958.40665417 Ry
     estimated scf accuracy    <       8.72164482 Ry

     total magnetization       =    10.51 Bohr mag/cell
     absolute magnetization    =    42.15 Bohr mag/cell

     iteration # 56     ecut=    71.00 Ry     beta= 0.30
     Davidson diagonalization with overlap
     ethr =  6.64E-04,  avg # of iterations =  3.0

     negative rho (up, down):  1.289E+02 1.289E+02

     total cpu time spent up to now is    18275.6 secs

     total energy              =  -10960.08202192 Ry
     estimated scf accuracy    <      22.93597413 Ry

     total magnetization       =    13.62 Bohr mag/cell
     absolute magnetization    =    41.98 Bohr mag/cell

     iteration # 57     ecut=    71.00 Ry     beta= 0.30
     Davidson diagonalization with overlap
     ethr =  6.64E-04,  avg # of iterations =  2.0

     negative rho (up, down):  1.324E+02 1.325E+02

     total cpu time spent up to now is    18443.3 secs

     total energy              =  -10959.83563402 Ry
     estimated scf accuracy    <      25.06421835 Ry

     total magnetization       =    12.96 Bohr mag/cell
     absolute magnetization    =    42.21 Bohr mag/cell

     iteration # 58     ecut=    71.00 Ry     beta= 0.30
     Davidson diagonalization with overlap
     ethr =  6.64E-04,  avg # of iterations =  3.0

     negative rho (up, down):  1.307E+02 1.307E+02

     total cpu time spent up to now is    18626.0 secs

     total energy              =  -10960.28781804 Ry
     estimated scf accuracy    <      26.61604512 Ry

     total magnetization       =    10.46 Bohr mag/cell
     absolute magnetization    =    46.45 Bohr mag/cell

     iteration # 59     ecut=    71.00 Ry     beta= 0.30
     Davidson diagonalization with overlap
     ethr =  6.64E-04,  avg # of iterations =  3.0

     negative rho (up, down):  1.334E+02 1.334E+02

     total cpu time spent up to now is    18807.2 secs

     total energy              =  -10960.57165871 Ry
     estimated scf accuracy    <      23.60708437 Ry

     total magnetization       =    13.57 Bohr mag/cell
     absolute magnetization    =    43.84 Bohr mag/cell

     iteration # 60     ecut=    71.00 Ry     beta= 0.30
     Davidson diagonalization with overlap
     ethr =  6.64E-04,  avg # of iterations =  2.0

     negative rho (up, down):  1.356E+02 1.355E+02

     total cpu time spent up to now is    18975.9 secs

     total energy              =  -10960.43969178 Ry
     estimated scf accuracy    <       7.15052769 Ry

     total magnetization       =    15.43 Bohr mag/cell
     absolute magnetization    =    43.85 Bohr mag/cell

     iteration # 61     ecut=    71.00 Ry     beta= 0.30
     Davidson diagonalization with overlap
     ethr =  6.64E-04,  avg # of iterations =  2.1

     negative rho (up, down):  1.352E+02 1.352E+02

     total cpu time spent up to now is    19147.7 secs

     total energy              =  -10960.73227966 Ry
     estimated scf accuracy    <       2.70227408 Ry

     total magnetization       =    13.73 Bohr mag/cell
     absolute magnetization    =    44.67 Bohr mag/cell

     iteration # 62     ecut=    71.00 Ry     beta= 0.30
     Davidson diagonalization with overlap
     ethr =  5.12E-04,  avg # of iterations =  2.0

     negative rho (up, down):  1.349E+02 1.348E+02

     total cpu time spent up to now is    19315.3 secs

     total energy              =  -10960.75615028 Ry
     estimated scf accuracy    <       1.40421523 Ry

     total magnetization       =    14.84 Bohr mag/cell
     absolute magnetization    =    44.90 Bohr mag/cell

     iteration # 63     ecut=    71.00 Ry     beta= 0.30
     Davidson diagonalization with overlap
     ethr =  2.66E-04,  avg # of iterations =  1.0

     negative rho (up, down):  1.341E+02 1.340E+02

     total cpu time spent up to now is    19465.0 secs

     total energy              =  -10960.69410375 Ry
     estimated scf accuracy    <       1.01536354 Ry

     total magnetization       =    14.98 Bohr mag/cell
     absolute magnetization    =    45.08 Bohr mag/cell

     iteration # 64     ecut=    71.00 Ry     beta= 0.30
     Davidson diagonalization with overlap
     ethr =  1.92E-04,  avg # of iterations =  2.1

     negative rho (up, down):  1.340E+02 1.340E+02

     total cpu time spent up to now is    19632.4 secs

     total energy              =  -10960.69510237 Ry
     estimated scf accuracy    <       1.22408201 Ry

     total magnetization       =    16.03 Bohr mag/cell
     absolute magnetization    =    46.26 Bohr mag/cell

     iteration # 65     ecut=    71.00 Ry     beta= 0.30
     Davidson diagonalization with overlap
     ethr =  1.92E-04,  avg # of iterations =  1.0

     negative rho (up, down):  1.342E+02 1.342E+02

     total cpu time spent up to now is    19781.4 secs

     total energy              =  -10960.71904681 Ry
     estimated scf accuracy    <       1.09771890 Ry

     total magnetization       =    16.05 Bohr mag/cell
     absolute magnetization    =    46.17 Bohr mag/cell

     iteration # 66     ecut=    71.00 Ry     beta= 0.30
     Davidson diagonalization with overlap
     ethr =  1.92E-04,  avg # of iterations =  2.0

     negative rho (up, down):  1.338E+02 1.338E+02

     total cpu time spent up to now is    19948.8 secs

     total energy              =  -10960.70222994 Ry
     estimated scf accuracy    <       0.60717450 Ry

     total magnetization       =    15.84 Bohr mag/cell
     absolute magnetization    =    46.17 Bohr mag/cell

     iteration # 67     ecut=    71.00 Ry     beta= 0.30
     Davidson diagonalization with overlap
     ethr =  1.15E-04,  avg # of iterations =  2.2

     negative rho (up, down):  1.347E+02 1.347E+02

     total cpu time spent up to now is    20117.8 secs

     total energy              =  -10960.70790663 Ry
     estimated scf accuracy    <       0.79589814 Ry

     total magnetization       =    16.60 Bohr mag/cell
     absolute magnetization    =    47.44 Bohr mag/cell

     iteration # 68     ecut=    71.00 Ry     beta= 0.30
     Davidson diagonalization with overlap
     ethr =  1.15E-04,  avg # of iterations =  4.2

     negative rho (up, down):  1.354E+02 1.354E+02

     total cpu time spent up to now is    20306.5 secs

     total energy              =  -10960.79086604 Ry
     estimated scf accuracy    <       0.34091728 Ry

     total magnetization       =    16.90 Bohr mag/cell
     absolute magnetization    =    49.11 Bohr mag/cell

     iteration # 69     ecut=    71.00 Ry     beta= 0.30
     Davidson diagonalization with overlap
     ethr =  6.46E-05,  avg # of iterations =  3.3

     negative rho (up, down):  1.352E+02 1.352E+02

     total cpu time spent up to now is    20486.2 secs

     total energy              =  -10960.83127605 Ry
     estimated scf accuracy    <       0.40512380 Ry

     total magnetization       =    16.73 Bohr mag/cell
     absolute magnetization    =    49.40 Bohr mag/cell

     iteration # 70     ecut=    71.00 Ry     beta= 0.30
     Davidson diagonalization with overlap
     ethr =  6.46E-05,  avg # of iterations =  2.0

     negative rho (up, down):  1.352E+02 1.352E+02

     total cpu time spent up to now is    20654.3 secs

     total energy              =  -10960.85660232 Ry
     estimated scf accuracy    <       0.15656786 Ry

     total magnetization       =    17.05 Bohr mag/cell
     absolute magnetization    =    49.73 Bohr mag/cell

     iteration # 71     ecut=    71.00 Ry     beta= 0.30
     Davidson diagonalization with overlap
     c_bands:  1 eigenvalues not converged
     ethr =  2.97E-05,  avg # of iterations =  2.4

     negative rho (up, down):  1.347E+02 1.347E+02

     total cpu time spent up to now is    20825.9 secs

     total energy              =  -10960.85169232 Ry
     estimated scf accuracy    <       0.16740287 Ry

     total magnetization       =    16.91 Bohr mag/cell
     absolute magnetization    =    49.48 Bohr mag/cell

     iteration # 72     ecut=    71.00 Ry     beta= 0.30
     Davidson diagonalization with overlap
     ethr =  2.97E-05,  avg # of iterations =  3.1

     negative rho (up, down):  1.347E+02 1.347E+02

     total cpu time spent up to now is    21006.4 secs

     total energy              =  -10960.87457526 Ry
     estimated scf accuracy    <       0.07557229 Ry

     total magnetization       =    17.37 Bohr mag/cell
     absolute magnetization    =    49.83 Bohr mag/cell

     iteration # 73     ecut=    71.00 Ry     beta= 0.30
     Davidson diagonalization with overlap
     c_bands:  1 eigenvalues not converged
     c_bands:  1 eigenvalues not converged
     c_bands:  1 eigenvalues not converged
     c_bands:  1 eigenvalues not converged
     ethr =  1.43E-05,  avg # of iterations =  3.4

     negative rho (up, down):  1.347E+02 1.347E+02

     total cpu time spent up to now is    21182.7 secs

     total energy              =  -10960.87712529 Ry
     estimated scf accuracy    <       0.03832987 Ry

     total magnetization       =    17.82 Bohr mag/cell
     absolute magnetization    =    50.68 Bohr mag/cell

     iteration # 74     ecut=    71.00 Ry     beta= 0.30
     Davidson diagonalization with overlap
     c_bands:  1 eigenvalues not converged
     c_bands:  1 eigenvalues not converged
     c_bands:  1 eigenvalues not converged
     c_bands:  1 eigenvalues not converged
     c_bands:  1 eigenvalues not converged
     ethr =  7.26E-06,  avg # of iterations =  3.4

     negative rho (up, down):  1.348E+02 1.348E+02

     total cpu time spent up to now is    21367.5 secs

     total energy              =  -10960.88266180 Ry
     estimated scf accuracy    <       0.05447257 Ry

     total magnetization       =    17.92 Bohr mag/cell
     absolute magnetization    =    50.90 Bohr mag/cell

     iteration # 75     ecut=    71.00 Ry     beta= 0.30
     Davidson diagonalization with overlap
     c_bands:  1 eigenvalues not converged
     c_bands:  1 eigenvalues not converged
     ethr =  7.26E-06,  avg # of iterations =  2.1

     negative rho (up, down):  1.348E+02 1.348E+02

     total cpu time spent up to now is    21536.5 secs

     total energy              =  -10960.88597999 Ry
     estimated scf accuracy    <       0.05387147 Ry

     total magnetization       =    18.15 Bohr mag/cell
     absolute magnetization    =    51.27 Bohr mag/cell

     iteration # 76     ecut=    71.00 Ry     beta= 0.30
     Davidson diagonalization with overlap
     ethr =  7.26E-06,  avg # of iterations =  2.0

     negative rho (up, down):  1.347E+02 1.347E+02

     total cpu time spent up to now is    21719.9 secs

     total energy              =  -10960.88354885 Ry
     estimated scf accuracy    <       0.07136921 Ry

     total magnetization       =    18.20 Bohr mag/cell
     absolute magnetization    =    51.36 Bohr mag/cell

     iteration # 77     ecut=    71.00 Ry     beta= 0.30
     Davidson diagonalization with overlap
     ethr =  7.26E-06,  avg # of iterations =  2.0

     negative rho (up, down):  1.347E+02 1.347E+02

     total cpu time spent up to now is    21886.1 secs

     total energy              =  -10960.88073262 Ry
     estimated scf accuracy    <       0.09507017 Ry

     total magnetization       =    18.08 Bohr mag/cell
     absolute magnetization    =    51.09 Bohr mag/cell

     iteration # 78     ecut=    71.00 Ry     beta= 0.30
     Davidson diagonalization with overlap
     ethr =  7.26E-06,  avg # of iterations =  2.0

     negative rho (up, down):  1.347E+02 1.347E+02

     total cpu time spent up to now is    22052.7 secs

     total energy              =  -10960.88207895 Ry
     estimated scf accuracy    <       0.08531100 Ry

     total magnetization       =    18.14 Bohr mag/cell
     absolute magnetization    =    51.26 Bohr mag/cell

     iteration # 79     ecut=    71.00 Ry     beta= 0.30
     Davidson diagonalization with overlap
     ethr =  7.26E-06,  avg # of iterations =  1.0

     negative rho (up, down):  1.347E+02 1.347E+02

     total cpu time spent up to now is    22200.6 secs

     total energy              =  -10960.88373813 Ry
     estimated scf accuracy    <       0.08406620 Ry

     total magnetization       =    18.14 Bohr mag/cell
     absolute magnetization    =    51.27 Bohr mag/cell

     iteration # 80     ecut=    71.00 Ry     beta= 0.30
     Davidson diagonalization with overlap
     ethr =  7.26E-06,  avg # of iterations =  2.0

     negative rho (up, down):  1.349E+02 1.349E+02

     total cpu time spent up to now is    22366.7 secs

     total energy              =  -10960.88630789 Ry
     estimated scf accuracy    <       0.06936046 Ry

     total magnetization       =    18.24 Bohr mag/cell
     absolute magnetization    =    51.40 Bohr mag/cell

     iteration # 81     ecut=    71.00 Ry     beta= 0.30
     Davidson diagonalization with overlap
     ethr =  7.26E-06,  avg # of iterations =  2.0

     negative rho (up, down):  1.349E+02 1.349E+02

     total cpu time spent up to now is    22533.8 secs

     total energy              =  -10960.88676342 Ry
     estimated scf accuracy    <       0.05682694 Ry

     total magnetization       =    18.41 Bohr mag/cell
     absolute magnetization    =    51.65 Bohr mag/cell

     iteration # 82     ecut=    71.00 Ry     beta= 0.30
     Davidson diagonalization with overlap
     ethr =  7.26E-06,  avg # of iterations =  2.0

     negative rho (up, down):  1.351E+02 1.351E+02

     total cpu time spent up to now is    22700.7 secs

     total energy              =  -10960.88546077 Ry
     estimated scf accuracy    <       0.04306524 Ry

     total magnetization       =    18.26 Bohr mag/cell
     absolute magnetization    =    51.48 Bohr mag/cell

     iteration # 83     ecut=    71.00 Ry     beta= 0.30
     Davidson diagonalization with overlap
     ethr =  7.26E-06,  avg # of iterations =  2.0

     negative rho (up, down):  1.351E+02 1.351E+02

     total cpu time spent up to now is    22869.9 secs

     total energy              =  -10960.88470847 Ry
     estimated scf accuracy    <       0.05395557 Ry

     total magnetization       =    18.22 Bohr mag/cell
     absolute magnetization    =    51.50 Bohr mag/cell

     iteration # 84     ecut=    71.00 Ry     beta= 0.30
     Davidson diagonalization with overlap
     ethr =  7.26E-06,  avg # of iterations =  1.0

     negative rho (up, down):  1.349E+02 1.349E+02

     total cpu time spent up to now is    23018.0 secs

     total energy              =  -10960.88523192 Ry
     estimated scf accuracy    <       0.05442026 Ry

     total magnetization       =    18.14 Bohr mag/cell
     absolute magnetization    =    51.42 Bohr mag/cell

     iteration # 85     ecut=    71.00 Ry     beta= 0.30
     Davidson diagonalization with overlap
     c_bands:  1 eigenvalues not converged
     ethr =  7.26E-06,  avg # of iterations =  2.1

     negative rho (up, down):  1.348E+02 1.348E+02

     total cpu time spent up to now is    23187.8 secs

     total energy              =  -10960.88285339 Ry
     estimated scf accuracy    <       0.06944433 Ry

     total magnetization       =    18.60 Bohr mag/cell
     absolute magnetization    =    51.99 Bohr mag/cell

     iteration # 86     ecut=    71.00 Ry     beta= 0.30
     Davidson diagonalization with overlap
     ethr =  7.26E-06,  avg # of iterations =  2.1

     negative rho (up, down):  1.350E+02 1.350E+02

     total cpu time spent up to now is    23358.5 secs

     total energy              =  -10960.88338704 Ry
     estimated scf accuracy    <       0.07918287 Ry

     total magnetization       =    18.31 Bohr mag/cell
     absolute magnetization    =    51.50 Bohr mag/cell

     iteration # 87     ecut=    71.00 Ry     beta= 0.30
     Davidson diagonalization with overlap
     ethr =  7.26E-06,  avg # of iterations =  2.0

     negative rho (up, down):  1.350E+02 1.350E+02

     total cpu time spent up to now is    23528.8 secs

     total energy              =  -10960.88750087 Ry
     estimated scf accuracy    <       0.06333196 Ry

     total magnetization       =    17.97 Bohr mag/cell
     absolute magnetization    =    51.17 Bohr mag/cell

     iteration # 88     ecut=    71.00 Ry     beta= 0.30
     Davidson diagonalization with overlap
     ethr =  7.26E-06,  avg # of iterations =  1.0

     negative rho (up, down):  1.352E+02 1.352E+02

     total cpu time spent up to now is    23676.3 secs

     total energy              =  -10960.88465729 Ry
     estimated scf accuracy    <       0.05374150 Ry

     total magnetization       =    18.20 Bohr mag/cell
     absolute magnetization    =    51.42 Bohr mag/cell

     iteration # 89     ecut=    71.00 Ry     beta= 0.30
     Davidson diagonalization with overlap
     ethr =  7.26E-06,  avg # of iterations =  2.0

     negative rho (up, down):  1.350E+02 1.350E+02

     total cpu time spent up to now is    23843.8 secs

     total energy              =  -10960.88924265 Ry
     estimated scf accuracy    <       0.07366561 Ry

     total magnetization       =    18.38 Bohr mag/cell
     absolute magnetization    =    51.75 Bohr mag/cell

     iteration # 90     ecut=    71.00 Ry     beta= 0.30
     Davidson diagonalization with overlap
     ethr =  7.26E-06,  avg # of iterations =  2.0

     negative rho (up, down):  1.348E+02 1.348E+02

     total cpu time spent up to now is    24010.0 secs

     total energy              =  -10960.88237784 Ry
     estimated scf accuracy    <       0.11584523 Ry

     total magnetization       =    18.33 Bohr mag/cell
     absolute magnetization    =    51.64 Bohr mag/cell

     iteration # 91     ecut=    71.00 Ry     beta= 0.30
     Davidson diagonalization with overlap
     ethr =  7.26E-06,  avg # of iterations =  2.0

     negative rho (up, down):  1.350E+02 1.350E+02

     total cpu time spent up to now is    24180.7 secs

     total energy              =  -10960.89031666 Ry
     estimated scf accuracy    <       0.05339642 Ry

     total magnetization       =    18.71 Bohr mag/cell
     absolute magnetization    =    52.06 Bohr mag/cell

     iteration # 92     ecut=    71.00 Ry     beta= 0.30
     Davidson diagonalization with overlap
     ethr =  7.26E-06,  avg # of iterations =  2.0

     negative rho (up, down):  1.350E+02 1.350E+02

     total cpu time spent up to now is    24345.6 secs

     total energy              =  -10960.89400368 Ry
     estimated scf accuracy    <       0.01615131 Ry

     total magnetization       =    19.16 Bohr mag/cell
     absolute magnetization    =    52.61 Bohr mag/cell

     iteration # 93     ecut=    71.00 Ry     beta= 0.30
     Davidson diagonalization with overlap
     c_bands:  1 eigenvalues not converged
     c_bands:  1 eigenvalues not converged
     c_bands:  1 eigenvalues not converged
     ethr =  3.06E-06,  avg # of iterations =  2.4

     negative rho (up, down):  1.351E+02 1.351E+02

     total cpu time spent up to now is    24514.3 secs

     total energy              =  -10960.89661813 Ry
     estimated scf accuracy    <       0.01340320 Ry

     total magnetization       =    19.60 Bohr mag/cell
     absolute magnetization    =    53.14 Bohr mag/cell

     iteration # 94     ecut=    71.00 Ry     beta= 0.30
     Davidson diagonalization with overlap
     c_bands:  1 eigenvalues not converged
     ethr =  2.54E-06,  avg # of iterations =  2.2

     negative rho (up, down):  1.351E+02 1.351E+02

     total cpu time spent up to now is    24681.9 secs

     total energy              =  -10960.89799906 Ry
     estimated scf accuracy    <       0.01219137 Ry

     total magnetization       =    19.77 Bohr mag/cell
     absolute magnetization    =    53.35 Bohr mag/cell

     iteration # 95     ecut=    71.00 Ry     beta= 0.30
     Davidson diagonalization with overlap
     ethr =  2.31E-06,  avg # of iterations =  1.1

     negative rho (up, down):  1.351E+02 1.351E+02

     total cpu time spent up to now is    24831.2 secs

     total energy              =  -10960.89848032 Ry
     estimated scf accuracy    <       0.01223369 Ry

     total magnetization       =    19.88 Bohr mag/cell
     absolute magnetization    =    53.45 Bohr mag/cell

     iteration # 96     ecut=    71.00 Ry     beta= 0.30
     Davidson diagonalization with overlap
     ethr =  2.31E-06,  avg # of iterations =  1.0

     negative rho (up, down):  1.351E+02 1.351E+02

     total cpu time spent up to now is    24978.9 secs

     total energy              =  -10960.89871679 Ry
     estimated scf accuracy    <       0.01168625 Ry

     total magnetization       =    19.92 Bohr mag/cell
     absolute magnetization    =    53.48 Bohr mag/cell

     iteration # 97     ecut=    71.00 Ry     beta= 0.30
     Davidson diagonalization with overlap
     c_bands:  1 eigenvalues not converged
     ethr =  2.21E-06,  avg # of iterations =  1.3

     negative rho (up, down):  1.350E+02 1.350E+02

     total cpu time spent up to now is    25128.6 secs

     total energy              =  -10960.90117197 Ry
     estimated scf accuracy    <       0.01138960 Ry

     total magnetization       =    20.00 Bohr mag/cell
     absolute magnetization    =    53.58 Bohr mag/cell

     iteration # 98     ecut=    71.00 Ry     beta= 0.30
     Davidson diagonalization with overlap
     c_bands:  1 eigenvalues not converged
     c_bands:  1 eigenvalues not converged
     ethr =  2.16E-06,  avg # of iterations =  2.4

     negative rho (up, down):  1.350E+02 1.350E+02

     total cpu time spent up to now is    25296.3 secs

     total energy              =  -10960.90526149 Ry
     estimated scf accuracy    <       0.01035199 Ry

     total magnetization       =    20.73 Bohr mag/cell
     absolute magnetization    =    54.43 Bohr mag/cell

     iteration # 99     ecut=    71.00 Ry     beta= 0.30
     Davidson diagonalization with overlap
     c_bands:  1 eigenvalues not converged
     ethr =  1.96E-06,  avg # of iterations =  1.2

     negative rho (up, down):  1.350E+02 1.350E+02

     total cpu time spent up to now is    25445.1 secs

     total energy              =  -10960.90426470 Ry
     estimated scf accuracy    <       0.01040715 Ry

     total magnetization       =    21.04 Bohr mag/cell
     absolute magnetization    =    54.81 Bohr mag/cell

     iteration #100     ecut=    71.00 Ry     beta= 0.30
     Davidson diagonalization with overlap
     ethr =  1.96E-06,  avg # of iterations =  1.3

     negative rho (up, down):  1.350E+02 1.350E+02

     total cpu time spent up to now is    25597.7 secs

     total energy              =  -10960.90638806 Ry
     estimated scf accuracy    <       0.01314215 Ry

     total magnetization       =    20.85 Bohr mag/cell
     absolute magnetization    =    54.61 Bohr mag/cell

     End of self-consistent calculation

     convergence NOT achieved after 100 iterations: stopping

     Writing output data file /scratch/bxp912/feocta2.save/
 
     init_run     :     59.88s CPU     61.45s WALL (       1 calls)
     electrons    :  24919.18s CPU  25328.22s WALL (       2 calls)
     update_pot   :      1.41s CPU      1.44s WALL (       1 calls)
     forces       :     35.68s CPU     36.00s WALL (       1 calls)
     stress       :    161.08s CPU    162.40s WALL (       1 calls)

     Called by init_run:
     wfcinit      :     58.39s CPU     59.89s WALL (       1 calls)
     potinit      :      0.66s CPU      0.68s WALL (       1 calls)
     hinit0       :      0.64s CPU      0.65s WALL (       1 calls)

     Called by electrons:
     c_bands      :  21946.15s CPU  22270.81s WALL (     132 calls)
     sum_band     :   2928.84s CPU   2987.19s WALL (     132 calls)
     v_of_rho     :      2.92s CPU      3.12s WALL (     134 calls)
     newd         :     10.36s CPU     11.81s WALL (     134 calls)
     PAW_pot      :     23.27s CPU     24.42s WALL (     135 calls)
     mix_rho      :      7.70s CPU      7.95s WALL (     132 calls)

     Called by c_bands:
     init_us_2    :    102.65s CPU    105.07s WALL (   67000 calls)
     cegterg      :  21544.68s CPU  21795.25s WALL (   33265 calls)

     Called by *egterg:
     cdiaghg      :   2868.84s CPU   2884.49s WALL (  126292 calls)
     h_psi        :  11673.39s CPU  11865.06s WALL (  127057 calls)
     s_psi        :    888.04s CPU    894.79s WALL (  127057 calls)
     g_psi        :     20.05s CPU     20.34s WALL (   93542 calls)

     Called by h_psi:
     h_psi:calbec :   1837.18s CPU   1849.59s WALL (  127057 calls)
     vloc_psi     :   8889.05s CPU   9050.39s WALL (  127057 calls)
     add_vuspsi   :    895.70s CPU    913.28s WALL (  127057 calls)

     General routines
     calbec       :   2661.60s CPU   2679.72s WALL (  161557 calls)
     fft          :      2.25s CPU      2.32s WALL (    3387 calls)
     ffts         :      5.05s CPU      5.13s WALL (   15495 calls)
     fftw         :  10589.67s CPU  10780.21s WALL (58791170 calls)
     interpolate  :      0.27s CPU      0.28s WALL (     268 calls)
     davcio       :      0.05s CPU      0.42s WALL (     268 calls)
 
     Parallel routines
     fft_scatt_xy :    487.27s CPU    496.14s WALL (58810052 calls)
     fft_scatt_yz :   9180.49s CPU   9348.01s WALL (58810052 calls)
 
     PWSCF        :      6h59m CPU      7h 6m WALL

 
   This run was terminated on:  23:53:53   5Jan2022            

=------------------------------------------------------------------------------=
   JOB DONE.
=------------------------------------------------------------------------------=
