
     Program PWSCF v.6.7MaX starts on 10Jan2022 at  1:22:29 

     This program is part of the open-source Quantum ESPRESSO suite
     for quantum simulation of materials; please cite
         "P. Giannozzi et al., J. Phys.:Condens. Matter 21 395502 (2009);
         "P. Giannozzi et al., J. Phys.:Condens. Matter 29 465901 (2017);
          URL http://www.quantum-espresso.org", 
     in publications or presentations arising from this work. More details at
     http://www.quantum-espresso.org/quote

     Parallel version (MPI & OpenMP), running on      72 processor cores
     Number of MPI processes:                72
     Threads/MPI process:                     1

     MPI processes distributed on     1 nodes
     R & G space division:  proc/nbgrp/npool/nimage =      72
     Reading input from fe_octa_1_revised_1.in
Warning: card &CELL ignored
Warning: card CELL_DYNAMICS = 'BFGS', ignored
Warning: card CELL_FACTOR = 2.0, ignored
Warning: card PRESS = 0.0, ignored
Warning: card / ignored

     Current dimensions of program PWSCF are:
     Max number of different atomic species (ntypx) = 10
     Max number of k-points (npk) =  40000
     Max angular momentum in pseudopotentials (lmaxx) =  3
     file Fe.pbe-spn-kjpaw_psl.1.0.0.UPF: wavefunction(s)  3P 3D renormalized
     file Fe.pbe-spn-kjpaw_psl.1.0.0.UPF: wavefunction(s)  3P 3D renormalized
     file Fe.pbe-spn-kjpaw_psl.1.0.0.UPF: wavefunction(s)  3P 3D renormalized

     Subspace diagonalization in iterative solution of the eigenvalue problem:
     one sub-group per band group will be used
     ELPA distributed-memory algorithm (size of sub-group:  8*  8 procs)

     Message from routine setup:
     using ibrav=0 with symmetry is DISCOURAGED, use correct ibrav instead
 
     Parallelization info
     --------------------
     sticks:   dense  smooth     PW     G-vecs:    dense   smooth      PW
     Min          83      55     15                 4773     2563     367
     Max          84      56     16                 4778     2568     371
     Sum        6035    3993   1103               343891   184641   26583
 


     bravais-lattice index     =            0
     lattice parameter (alat)  =      12.9382  a.u.
     unit-cell volume          =    2283.7811 (a.u.)^3
     number of atoms/cell      =           33
     number of atomic types    =            3
     number of electrons       =       528.00
     number of Kohn-Sham states=          317
     kinetic-energy cutoff     =      71.0000  Ry
     charge density cutoff     =     430.0000  Ry
     scf convergence threshold =      1.0E-06
     mixing beta               =       0.3000
     number of iterations used =            8  local-TF  mixing
     Exchange-correlation= SLA  PW   PBX  PBC
                           (   1   4   3   4   0   0   0)

     celldm(1)=  12.938187  celldm(2)=   0.000000  celldm(3)=   0.000000
     celldm(4)=   0.000000  celldm(5)=   0.000000  celldm(6)=   0.000000

     crystal axes: (cart. coord. in units of alat)
               a(1) = (   1.000000   0.000000   0.000000 )  
               a(2) = (   0.000000   1.054470   0.000000 )  
               a(3) = (   0.000000   0.000000   1.000000 )  

     reciprocal axes: (cart. coord. in units 2 pi/alat)
               b(1) = (  1.000000  0.000000  0.000000 )  
               b(2) = (  0.000000  0.948344  0.000000 )  
               b(3) = (  0.000000  0.000000  1.000000 )  


     PseudoPot. # 1 for Fe read from file:
     /rds/homes/b/bxp912/pp/Fe.pbe-spn-kjpaw_psl.1.0.0.UPF
     MD5 check sum: 42f43b795421b414b0dc916aa790dbcb
     Pseudo is Projector augmented-wave + core cor, Zval = 16.0
     Generated using &quot;atomic&quot; code by A. Dal Corso  v.6.3
     Shape of augmentation charge: PSQ
     Using radial grid of 1191 points,  6 beta functions with: 
                l(1) =   0
                l(2) =   0
                l(3) =   1
                l(4) =   1
                l(5) =   2
                l(6) =   2
     Q(r) pseudized with 0 coefficients 


     PseudoPot. # 2 for Fe read from file:
     /rds/homes/b/bxp912/pp/Fe.pbe-spn-kjpaw_psl.1.0.0.UPF
     MD5 check sum: 42f43b795421b414b0dc916aa790dbcb
     Pseudo is Projector augmented-wave + core cor, Zval = 16.0
     Generated using &quot;atomic&quot; code by A. Dal Corso  v.6.3
     Shape of augmentation charge: PSQ
     Using radial grid of 1191 points,  6 beta functions with: 
                l(1) =   0
                l(2) =   0
                l(3) =   1
                l(4) =   1
                l(5) =   2
                l(6) =   2
     Q(r) pseudized with 0 coefficients 


     PseudoPot. # 3 for Fe read from file:
     /rds/homes/b/bxp912/pp/Fe.pbe-spn-kjpaw_psl.1.0.0.UPF
     MD5 check sum: 42f43b795421b414b0dc916aa790dbcb
     Pseudo is Projector augmented-wave + core cor, Zval = 16.0
     Generated using &quot;atomic&quot; code by A. Dal Corso  v.6.3
     Shape of augmentation charge: PSQ
     Using radial grid of 1191 points,  6 beta functions with: 
                l(1) =   0
                l(2) =   0
                l(3) =   1
                l(4) =   1
                l(5) =   2
                l(6) =   2
     Q(r) pseudized with 0 coefficients 


     atomic species   valence    mass     pseudopotential
        Fe1           16.00    55.84500     Fe( 1.00)
        Fe2           16.00    55.84500     Fe( 1.00)
        Fe3           16.00    55.84500     Fe( 1.00)

     Starting magnetic structure 
     atomic species   magnetization
        Fe1          0.100
        Fe2         -0.100
        Fe3         -0.010

     16 Sym. Ops., with inversion, found (14 have fractional translation)



   Cartesian axes

     site n.     atom                  positions (alat units)
         1           Fe3 tau(   1) = (   0.2500000   0.2636175   0.2500000  )
         2           Fe1 tau(   2) = (   0.0000000   0.0000000   0.0000000  )
         3           Fe2 tau(   3) = (   0.2500000   0.2636175   0.0000000  )
         4           Fe1 tau(   4) = (   0.2500000   0.0000000   0.2500000  )
         5           Fe2 tau(   5) = (   0.0000000   0.2636175   0.2500000  )
         6           Fe1 tau(   6) = (   0.0000000   0.0000000   0.5000000  )
         7           Fe2 tau(   7) = (   0.2500000   0.2636175   0.5000000  )
         8           Fe1 tau(   8) = (   0.2500000   0.0000000   0.7500000  )
         9           Fe2 tau(   9) = (   0.0000000   0.2636175   0.7500000  )
        10           Fe1 tau(  10) = (   0.0000000   0.5272350   0.0000000  )
        11           Fe2 tau(  11) = (   0.2500000   0.7908525   0.0000000  )
        12           Fe1 tau(  12) = (   0.2500000   0.5272350   0.2500000  )
        13           Fe2 tau(  13) = (   0.0000000   0.7908525   0.2500000  )
        14           Fe1 tau(  14) = (   0.0000000   0.5272350   0.5000000  )
        15           Fe2 tau(  15) = (   0.2500000   0.7908525   0.5000000  )
        16           Fe1 tau(  16) = (   0.2500000   0.5272350   0.7500000  )
        17           Fe2 tau(  17) = (   0.0000000   0.7908525   0.7500000  )
        18           Fe1 tau(  18) = (   0.5000000   0.0000000   0.0000000  )
        19           Fe2 tau(  19) = (   0.7500000   0.2636175   0.0000000  )
        20           Fe1 tau(  20) = (   0.7500000   0.0000000   0.2500000  )
        21           Fe2 tau(  21) = (   0.5000000   0.2636175   0.2500000  )
        22           Fe1 tau(  22) = (   0.5000000   0.0000000   0.5000000  )
        23           Fe2 tau(  23) = (   0.7500000   0.2636175   0.5000000  )
        24           Fe1 tau(  24) = (   0.7500000   0.0000000   0.7500000  )
        25           Fe2 tau(  25) = (   0.5000000   0.2636175   0.7500000  )
        26           Fe1 tau(  26) = (   0.5000000   0.5272350   0.0000000  )
        27           Fe2 tau(  27) = (   0.7500000   0.7908525   0.0000000  )
        28           Fe1 tau(  28) = (   0.7500000   0.5272350   0.2500000  )
        29           Fe2 tau(  29) = (   0.5000000   0.7908525   0.2500000  )
        30           Fe1 tau(  30) = (   0.5000000   0.5272350   0.5000000  )
        31           Fe2 tau(  31) = (   0.7500000   0.7908525   0.5000000  )
        32           Fe1 tau(  32) = (   0.7500000   0.5272350   0.7500000  )
        33           Fe2 tau(  33) = (   0.5000000   0.7908525   0.7500000  )

     number of k points=    75  Marzari-Vanderbilt smearing, width (Ry)=  0.0400
                       cart. coord. in units 2pi/alat
        k(    1) = (   0.0555556   0.0526858   0.0555556), wk =   0.0109739
        k(    2) = (   0.0555556   0.0526858   0.1666667), wk =   0.0219479
        k(    3) = (   0.0555556   0.0526858   0.2777778), wk =   0.0219479
        k(    4) = (   0.0555556   0.0526858   0.3888889), wk =   0.0219479
        k(    5) = (   0.0555556   0.0526858  -0.5000000), wk =   0.0109739
        k(    6) = (   0.0555556   0.1580573   0.0555556), wk =   0.0109739
        k(    7) = (   0.0555556   0.1580573   0.1666667), wk =   0.0219479
        k(    8) = (   0.0555556   0.1580573   0.2777778), wk =   0.0219479
        k(    9) = (   0.0555556   0.1580573   0.3888889), wk =   0.0219479
        k(   10) = (   0.0555556   0.1580573  -0.5000000), wk =   0.0109739
        k(   11) = (   0.0555556   0.2634288   0.0555556), wk =   0.0109739
        k(   12) = (   0.0555556   0.2634288   0.1666667), wk =   0.0219479
        k(   13) = (   0.0555556   0.2634288   0.2777778), wk =   0.0219479
        k(   14) = (   0.0555556   0.2634288   0.3888889), wk =   0.0219479
        k(   15) = (   0.0555556   0.2634288  -0.5000000), wk =   0.0109739
        k(   16) = (   0.0555556   0.3688003   0.0555556), wk =   0.0109739
        k(   17) = (   0.0555556   0.3688003   0.1666667), wk =   0.0219479
        k(   18) = (   0.0555556   0.3688003   0.2777778), wk =   0.0219479
        k(   19) = (   0.0555556   0.3688003   0.3888889), wk =   0.0219479
        k(   20) = (   0.0555556   0.3688003  -0.5000000), wk =   0.0109739
        k(   21) = (   0.0555556  -0.4741719   0.0555556), wk =   0.0054870
        k(   22) = (   0.0555556  -0.4741719   0.1666667), wk =   0.0109739
        k(   23) = (   0.0555556  -0.4741719   0.2777778), wk =   0.0109739
        k(   24) = (   0.0555556  -0.4741719   0.3888889), wk =   0.0109739
        k(   25) = (   0.0555556  -0.4741719  -0.5000000), wk =   0.0054870
        k(   26) = (   0.1666667   0.0526858   0.1666667), wk =   0.0109739
        k(   27) = (   0.1666667   0.0526858   0.2777778), wk =   0.0219479
        k(   28) = (   0.1666667   0.0526858   0.3888889), wk =   0.0219479
        k(   29) = (   0.1666667   0.0526858  -0.5000000), wk =   0.0109739
        k(   30) = (   0.1666667   0.1580573   0.1666667), wk =   0.0109739
        k(   31) = (   0.1666667   0.1580573   0.2777778), wk =   0.0219479
        k(   32) = (   0.1666667   0.1580573   0.3888889), wk =   0.0219479
        k(   33) = (   0.1666667   0.1580573  -0.5000000), wk =   0.0109739
        k(   34) = (   0.1666667   0.2634288   0.1666667), wk =   0.0109739
        k(   35) = (   0.1666667   0.2634288   0.2777778), wk =   0.0219479
        k(   36) = (   0.1666667   0.2634288   0.3888889), wk =   0.0219479
        k(   37) = (   0.1666667   0.2634288  -0.5000000), wk =   0.0109739
        k(   38) = (   0.1666667   0.3688003   0.1666667), wk =   0.0109739
        k(   39) = (   0.1666667   0.3688003   0.2777778), wk =   0.0219479
        k(   40) = (   0.1666667   0.3688003   0.3888889), wk =   0.0219479
        k(   41) = (   0.1666667   0.3688003  -0.5000000), wk =   0.0109739
        k(   42) = (   0.1666667  -0.4741719   0.1666667), wk =   0.0054870
        k(   43) = (   0.1666667  -0.4741719   0.2777778), wk =   0.0109739
        k(   44) = (   0.1666667  -0.4741719   0.3888889), wk =   0.0109739
        k(   45) = (   0.1666667  -0.4741719  -0.5000000), wk =   0.0054870
        k(   46) = (   0.2777778   0.0526858   0.2777778), wk =   0.0109739
        k(   47) = (   0.2777778   0.0526858   0.3888889), wk =   0.0219479
        k(   48) = (   0.2777778   0.0526858  -0.5000000), wk =   0.0109739
        k(   49) = (   0.2777778   0.1580573   0.2777778), wk =   0.0109739
        k(   50) = (   0.2777778   0.1580573   0.3888889), wk =   0.0219479
        k(   51) = (   0.2777778   0.1580573  -0.5000000), wk =   0.0109739
        k(   52) = (   0.2777778   0.2634288   0.2777778), wk =   0.0109739
        k(   53) = (   0.2777778   0.2634288   0.3888889), wk =   0.0219479
        k(   54) = (   0.2777778   0.2634288  -0.5000000), wk =   0.0109739
        k(   55) = (   0.2777778   0.3688003   0.2777778), wk =   0.0109739
        k(   56) = (   0.2777778   0.3688003   0.3888889), wk =   0.0219479
        k(   57) = (   0.2777778   0.3688003  -0.5000000), wk =   0.0109739
        k(   58) = (   0.2777778  -0.4741719   0.2777778), wk =   0.0054870
        k(   59) = (   0.2777778  -0.4741719   0.3888889), wk =   0.0109739
        k(   60) = (   0.2777778  -0.4741719  -0.5000000), wk =   0.0054870
        k(   61) = (   0.3888889   0.0526858   0.3888889), wk =   0.0109739
        k(   62) = (   0.3888889   0.0526858  -0.5000000), wk =   0.0109739
        k(   63) = (   0.3888889   0.1580573   0.3888889), wk =   0.0109739
        k(   64) = (   0.3888889   0.1580573  -0.5000000), wk =   0.0109739
        k(   65) = (   0.3888889   0.2634288   0.3888889), wk =   0.0109739
        k(   66) = (   0.3888889   0.2634288  -0.5000000), wk =   0.0109739
        k(   67) = (   0.3888889   0.3688003   0.3888889), wk =   0.0109739
        k(   68) = (   0.3888889   0.3688003  -0.5000000), wk =   0.0109739
        k(   69) = (   0.3888889  -0.4741719   0.3888889), wk =   0.0054870
        k(   70) = (   0.3888889  -0.4741719  -0.5000000), wk =   0.0054870
        k(   71) = (  -0.5000000   0.0526858  -0.5000000), wk =   0.0027435
        k(   72) = (  -0.5000000   0.1580573  -0.5000000), wk =   0.0027435
        k(   73) = (  -0.5000000   0.2634288  -0.5000000), wk =   0.0027435
        k(   74) = (  -0.5000000   0.3688003  -0.5000000), wk =   0.0027435
        k(   75) = (  -0.5000000  -0.4741719  -0.5000000), wk =   0.0013717

     Dense  grid:   343891 G-vectors     FFT dimensions: (  90,  96,  90)

     Smooth grid:   184641 G-vectors     FFT dimensions: (  72,  80,  72)

     Estimated max dynamical RAM per process >     264.30 MB

     Estimated total dynamical RAM >      18.58 GB

     Check: negative core charge=   -0.000006
     Generating pointlists ...
     new r_m :   0.1087 (alat units)  1.4069 (a.u.) for type    1
     new r_m :   0.1031 (alat units)  1.3343 (a.u.) for type    2
     new r_m :   0.1031 (alat units)  1.3343 (a.u.) for type    3

     Initial potential from superposition of free atoms

     starting charge  527.98556, renormalised to  528.00000
     Starting wfcs are  330 randomized atomic wfcs
     Checking if some PAW data can be deallocated... 

     total cpu time spent up to now is       40.3 secs

     Self-consistent Calculation

     iteration #  1     ecut=    71.00 Ry     beta= 0.30
     Davidson diagonalization with overlap
     ethr =  1.00E-02,  avg # of iterations =  3.3

     total cpu time spent up to now is      167.7 secs

     total energy              =  -10862.50559586 Ry
     estimated scf accuracy    <      25.47462390 Ry

     total magnetization       =     1.62 Bohr mag/cell
     absolute magnetization    =    42.24 Bohr mag/cell

     iteration #  2     ecut=    71.00 Ry     beta= 0.30
     Davidson diagonalization with overlap
     ethr =  4.82E-03,  avg # of iterations =  1.1

     total cpu time spent up to now is      260.6 secs

     total energy              =  -10863.62870329 Ry
     estimated scf accuracy    <      15.75810535 Ry

     total magnetization       =     1.39 Bohr mag/cell
     absolute magnetization    =    40.10 Bohr mag/cell

     iteration #  3     ecut=    71.00 Ry     beta= 0.30
     Davidson diagonalization with overlap
     ethr =  2.98E-03,  avg # of iterations =  1.2

     total cpu time spent up to now is      353.1 secs

     total energy              =  -10864.15569034 Ry
     estimated scf accuracy    <       0.89148422 Ry

     total magnetization       =     2.18 Bohr mag/cell
     absolute magnetization    =    42.18 Bohr mag/cell

     iteration #  4     ecut=    71.00 Ry     beta= 0.30
     Davidson diagonalization with overlap
     ethr =  1.69E-04,  avg # of iterations =  4.0

     total cpu time spent up to now is      463.1 secs

     total energy              =  -10864.13752682 Ry
     estimated scf accuracy    <       0.32414798 Ry

     total magnetization       =     2.47 Bohr mag/cell
     absolute magnetization    =    42.47 Bohr mag/cell

     iteration #  5     ecut=    71.00 Ry     beta= 0.30
     Davidson diagonalization with overlap
     c_bands:  1 eigenvalues not converged
     ethr =  6.14E-05,  avg # of iterations =  4.2

     total cpu time spent up to now is      590.8 secs

     total energy              =  -10864.18267369 Ry
     estimated scf accuracy    <       0.22020666 Ry

     total magnetization       =     2.65 Bohr mag/cell
     absolute magnetization    =    42.91 Bohr mag/cell

     iteration #  6     ecut=    71.00 Ry     beta= 0.30
     Davidson diagonalization with overlap
     ethr =  4.17E-05,  avg # of iterations =  2.3

     total cpu time spent up to now is      694.1 secs

     total energy              =  -10864.19704781 Ry
     estimated scf accuracy    <       0.09637398 Ry

     total magnetization       =     3.10 Bohr mag/cell
     absolute magnetization    =    43.01 Bohr mag/cell

     iteration #  7     ecut=    71.00 Ry     beta= 0.30
     Davidson diagonalization with overlap
     c_bands:  1 eigenvalues not converged
     c_bands:  1 eigenvalues not converged
     c_bands:  1 eigenvalues not converged
     ethr =  1.83E-05,  avg # of iterations =  4.4

     total cpu time spent up to now is      799.2 secs

     total energy              =  -10864.21073757 Ry
     estimated scf accuracy    <       0.04237285 Ry

     total magnetization       =     3.36 Bohr mag/cell
     absolute magnetization    =    42.96 Bohr mag/cell

     iteration #  8     ecut=    71.00 Ry     beta= 0.30
     Davidson diagonalization with overlap
     c_bands:  1 eigenvalues not converged
     ethr =  8.03E-06,  avg # of iterations =  4.0

     total cpu time spent up to now is      919.7 secs

     total energy              =  -10864.21633456 Ry
     estimated scf accuracy    <       0.02672260 Ry

     total magnetization       =     3.63 Bohr mag/cell
     absolute magnetization    =    42.95 Bohr mag/cell

     iteration #  9     ecut=    71.00 Ry     beta= 0.30
     Davidson diagonalization with overlap
     c_bands:  1 eigenvalues not converged
     ethr =  5.06E-06,  avg # of iterations =  4.1

     total cpu time spent up to now is     1043.7 secs

     total energy              =  -10864.22081113 Ry
     estimated scf accuracy    <       0.00760762 Ry

     total magnetization       =     4.01 Bohr mag/cell
     absolute magnetization    =    43.09 Bohr mag/cell

     iteration # 10     ecut=    71.00 Ry     beta= 0.30
     Davidson diagonalization with overlap
     c_bands:  1 eigenvalues not converged
     c_bands:  1 eigenvalues not converged
     c_bands:  1 eigenvalues not converged
     c_bands:  2 eigenvalues not converged
     c_bands:  2 eigenvalues not converged
     c_bands:  1 eigenvalues not converged
     c_bands:  1 eigenvalues not converged
     c_bands:  3 eigenvalues not converged
     c_bands:  1 eigenvalues not converged
     ethr =  1.44E-06,  avg # of iterations =  4.9

     total cpu time spent up to now is     1155.9 secs

     total energy              =  -10864.22212546 Ry
     estimated scf accuracy    <       0.00455863 Ry

     total magnetization       =     4.17 Bohr mag/cell
     absolute magnetization    =    43.14 Bohr mag/cell

     iteration # 11     ecut=    71.00 Ry     beta= 0.30
     Davidson diagonalization with overlap
     ethr =  8.63E-07,  avg # of iterations =  3.1

     total cpu time spent up to now is     1273.7 secs

     total energy              =  -10864.22402466 Ry
     estimated scf accuracy    <       0.00314230 Ry

     total magnetization       =     4.43 Bohr mag/cell
     absolute magnetization    =    43.21 Bohr mag/cell

     iteration # 12     ecut=    71.00 Ry     beta= 0.30
     Davidson diagonalization with overlap
     ethr =  5.95E-07,  avg # of iterations =  2.2

     total cpu time spent up to now is     1376.1 secs

     total energy              =  -10864.22524268 Ry
     estimated scf accuracy    <       0.00243481 Ry

     total magnetization       =     4.60 Bohr mag/cell
     absolute magnetization    =    43.25 Bohr mag/cell

     iteration # 13     ecut=    71.00 Ry     beta= 0.30
     Davidson diagonalization with overlap
     ethr =  4.61E-07,  avg # of iterations =  2.3

     total cpu time spent up to now is     1479.5 secs

     total energy              =  -10864.22653578 Ry
     estimated scf accuracy    <       0.00206992 Ry

     total magnetization       =     4.78 Bohr mag/cell
     absolute magnetization    =    43.29 Bohr mag/cell

     iteration # 14     ecut=    71.00 Ry     beta= 0.30
     Davidson diagonalization with overlap
     c_bands:  1 eigenvalues not converged
     c_bands:  2 eigenvalues not converged
     ethr =  3.92E-07,  avg # of iterations =  4.6

     total cpu time spent up to now is     1601.5 secs

     total energy              =  -10864.22706302 Ry
     estimated scf accuracy    <       0.00158322 Ry

     total magnetization       =     5.08 Bohr mag/cell
     absolute magnetization    =    43.43 Bohr mag/cell

     iteration # 15     ecut=    71.00 Ry     beta= 0.30
     Davidson diagonalization with overlap
     ethr =  3.00E-07,  avg # of iterations =  5.5

     total cpu time spent up to now is     1750.1 secs

     total energy              =  -10864.22941864 Ry
     estimated scf accuracy    <       0.00106546 Ry

     total magnetization       =     5.61 Bohr mag/cell
     absolute magnetization    =    43.84 Bohr mag/cell

     iteration # 16     ecut=    71.00 Ry     beta= 0.30
     Davidson diagonalization with overlap
     ethr =  2.02E-07,  avg # of iterations =  4.6

     total cpu time spent up to now is     1888.1 secs

     total energy              =  -10864.23117951 Ry
     estimated scf accuracy    <       0.00051199 Ry

     total magnetization       =     6.00 Bohr mag/cell
     absolute magnetization    =    44.32 Bohr mag/cell

     iteration # 17     ecut=    71.00 Ry     beta= 0.30
     Davidson diagonalization with overlap
     ethr =  9.70E-08,  avg # of iterations =  2.0

     total cpu time spent up to now is     1992.4 secs

     total energy              =  -10864.23125695 Ry
     estimated scf accuracy    <       0.00044058 Ry

     total magnetization       =     5.93 Bohr mag/cell
     absolute magnetization    =    44.19 Bohr mag/cell

     iteration # 18     ecut=    71.00 Ry     beta= 0.30
     Davidson diagonalization with overlap
     ethr =  8.34E-08,  avg # of iterations =  3.1

     total cpu time spent up to now is     2115.9 secs

     total energy              =  -10864.23169906 Ry
     estimated scf accuracy    <       0.00016090 Ry

     total magnetization       =     6.10 Bohr mag/cell
     absolute magnetization    =    44.39 Bohr mag/cell

     iteration # 19     ecut=    71.00 Ry     beta= 0.30
     Davidson diagonalization with overlap
     ethr =  3.05E-08,  avg # of iterations =  4.9

     total cpu time spent up to now is     2258.2 secs

     total energy              =  -10864.23189172 Ry
     estimated scf accuracy    <       0.00016382 Ry

     total magnetization       =     6.16 Bohr mag/cell
     absolute magnetization    =    44.49 Bohr mag/cell

     iteration # 20     ecut=    71.00 Ry     beta= 0.30
     Davidson diagonalization with overlap
     ethr =  3.05E-08,  avg # of iterations =  1.9

     total cpu time spent up to now is     2361.2 secs

     total energy              =  -10864.23190983 Ry
     estimated scf accuracy    <       0.00007073 Ry

     total magnetization       =     6.12 Bohr mag/cell
     absolute magnetization    =    44.40 Bohr mag/cell

     iteration # 21     ecut=    71.00 Ry     beta= 0.30
     Davidson diagonalization with overlap
     ethr =  1.34E-08,  avg # of iterations =  3.5

     total cpu time spent up to now is     2488.3 secs

     total energy              =  -10864.23193536 Ry
     estimated scf accuracy    <       0.00006313 Ry

     total magnetization       =     6.17 Bohr mag/cell
     absolute magnetization    =    44.46 Bohr mag/cell

     iteration # 22     ecut=    71.00 Ry     beta= 0.30
     Davidson diagonalization with overlap
     ethr =  1.20E-08,  avg # of iterations =  4.6

     total cpu time spent up to now is     2625.8 secs

     total energy              =  -10864.23202925 Ry
     estimated scf accuracy    <       0.00003112 Ry

     total magnetization       =     6.20 Bohr mag/cell
     absolute magnetization    =    44.53 Bohr mag/cell

     iteration # 23     ecut=    71.00 Ry     beta= 0.30
     Davidson diagonalization with overlap
     ethr =  5.89E-09,  avg # of iterations =  2.0

     total cpu time spent up to now is     2729.0 secs

     total energy              =  -10864.23204418 Ry
     estimated scf accuracy    <       0.00001903 Ry

     total magnetization       =     6.16 Bohr mag/cell
     absolute magnetization    =    44.48 Bohr mag/cell

     iteration # 24     ecut=    71.00 Ry     beta= 0.30
     Davidson diagonalization with overlap
     ethr =  3.60E-09,  avg # of iterations =  2.2

     total cpu time spent up to now is     2835.4 secs

     total energy              =  -10864.23204414 Ry
     estimated scf accuracy    <       0.00001744 Ry

     total magnetization       =     6.13 Bohr mag/cell
     absolute magnetization    =    44.45 Bohr mag/cell

     iteration # 25     ecut=    71.00 Ry     beta= 0.30
     Davidson diagonalization with overlap
     ethr =  3.30E-09,  avg # of iterations =  4.4

     total cpu time spent up to now is     2971.3 secs

     total energy              =  -10864.23207129 Ry
     estimated scf accuracy    <       0.00000822 Ry

     total magnetization       =     6.08 Bohr mag/cell
     absolute magnetization    =    44.40 Bohr mag/cell

     iteration # 26     ecut=    71.00 Ry     beta= 0.30
     Davidson diagonalization with overlap
     ethr =  1.56E-09,  avg # of iterations =  2.4

     total cpu time spent up to now is     3083.2 secs

     total energy              =  -10864.23207547 Ry
     estimated scf accuracy    <       0.00000697 Ry

     total magnetization       =     6.06 Bohr mag/cell
     absolute magnetization    =    44.38 Bohr mag/cell

     iteration # 27     ecut=    71.00 Ry     beta= 0.30
     Davidson diagonalization with overlap
     ethr =  1.32E-09,  avg # of iterations =  2.5

     total cpu time spent up to now is     3193.9 secs

     total energy              =  -10864.23207653 Ry
     estimated scf accuracy    <       0.00000470 Ry

     total magnetization       =     6.05 Bohr mag/cell
     absolute magnetization    =    44.38 Bohr mag/cell

     iteration # 28     ecut=    71.00 Ry     beta= 0.30
     Davidson diagonalization with overlap
     ethr =  8.90E-10,  avg # of iterations =  4.8

     total cpu time spent up to now is     3334.3 secs

     total energy              =  -10864.23208413 Ry
     estimated scf accuracy    <       0.00000283 Ry

     total magnetization       =     6.02 Bohr mag/cell
     absolute magnetization    =    44.37 Bohr mag/cell

     iteration # 29     ecut=    71.00 Ry     beta= 0.30
     Davidson diagonalization with overlap
     ethr =  5.37E-10,  avg # of iterations =  2.8

     total cpu time spent up to now is     3456.8 secs

     total energy              =  -10864.23208612 Ry
     estimated scf accuracy    <       0.00000185 Ry

     total magnetization       =     6.01 Bohr mag/cell
     absolute magnetization    =    44.37 Bohr mag/cell

     iteration # 30     ecut=    71.00 Ry     beta= 0.30
     Davidson diagonalization with overlap
     ethr =  3.50E-10,  avg # of iterations =  4.3

     total cpu time spent up to now is     3588.1 secs

     total energy              =  -10864.23208804 Ry
     estimated scf accuracy    <       0.00000122 Ry

     total magnetization       =     6.00 Bohr mag/cell
     absolute magnetization    =    44.37 Bohr mag/cell

     iteration # 31     ecut=    71.00 Ry     beta= 0.30
     Davidson diagonalization with overlap
     ethr =  2.31E-10,  avg # of iterations =  2.6

     total cpu time spent up to now is     3702.5 secs

     total energy              =  -10864.23208729 Ry
     estimated scf accuracy    <       0.00000114 Ry

     total magnetization       =     6.00 Bohr mag/cell
     absolute magnetization    =    44.37 Bohr mag/cell

     iteration # 32     ecut=    71.00 Ry     beta= 0.30
     Davidson diagonalization with overlap
     ethr =  2.16E-10,  avg # of iterations =  4.7
 
     Magnetic moment per site:
     atom:    1    charge:   12.8149    magn:    0.0470    constr:    0.0000
     atom:    2    charge:   12.6773    magn:    1.5005    constr:    0.0000
     atom:    3    charge:   12.4810    magn:    0.1936    constr:    0.0000
     atom:    4    charge:   12.8021    magn:    0.7847    constr:    0.0000
     atom:    5    charge:   12.4810    magn:    0.1936    constr:    0.0000
     atom:    6    charge:   12.6773    magn:    1.5005    constr:    0.0000
     atom:    7    charge:   12.4810    magn:    0.1936    constr:    0.0000
     atom:    8    charge:   12.6797    magn:    1.2297    constr:    0.0000
     atom:    9    charge:   12.3385    magn:   -1.3228    constr:    0.0000
     atom:   10    charge:   12.6773    magn:    1.5005    constr:    0.0000
     atom:   11    charge:   12.3400    magn:   -1.2475    constr:    0.0000
     atom:   12    charge:   12.8021    magn:    0.7847    constr:    0.0000
     atom:   13    charge:   12.3400    magn:   -1.2475    constr:    0.0000
     atom:   14    charge:   12.6773    magn:    1.5005    constr:    0.0000
     atom:   15    charge:   12.3400    magn:   -1.2475    constr:    0.0000
     atom:   16    charge:   12.6797    magn:    1.2297    constr:    0.0000
     atom:   17    charge:   12.3370    magn:   -1.3072    constr:    0.0000
     atom:   18    charge:   12.6773    magn:    1.5005    constr:    0.0000
     atom:   19    charge:   12.3385    magn:   -1.3228    constr:    0.0000
     atom:   20    charge:   12.6797    magn:    1.2297    constr:    0.0000
     atom:   21    charge:   12.4810    magn:    0.1936    constr:    0.0000
     atom:   22    charge:   12.6773    magn:    1.5005    constr:    0.0000
     atom:   23    charge:   12.3385    magn:   -1.3228    constr:    0.0000
     atom:   24    charge:   12.6769    magn:    1.1301    constr:    0.0000
     atom:   25    charge:   12.3385    magn:   -1.3228    constr:    0.0000
     atom:   26    charge:   12.6773    magn:    1.5005    constr:    0.0000
     atom:   27    charge:   12.3370    magn:   -1.3072    constr:    0.0000
     atom:   28    charge:   12.6797    magn:    1.2297    constr:    0.0000
     atom:   29    charge:   12.3400    magn:   -1.2475    constr:    0.0000
     atom:   30    charge:   12.6773    magn:    1.5005    constr:    0.0000
     atom:   31    charge:   12.3370    magn:   -1.3072    constr:    0.0000
     atom:   32    charge:   12.6769    magn:    1.1301    constr:    0.0000
     atom:   33    charge:   12.3370    magn:   -1.3072    constr:    0.0000

     total cpu time spent up to now is     3845.2 secs

     End of self-consistent calculation

     Number of k-points >= 100: set verbosity='high' to print the bands.

     the Fermi energy is    20.8996 ev

!    total energy              =  -10864.23208975 Ry

     total all-electron energy =    -84002.017681 Ry
     estimated scf accuracy    <       0.00000061 Ry
     smearing contrib. (-TS)   =       0.00403083 Ry
     internal energy E=F+TS    =  -10864.23612057 Ry

     The total energy is F=E-TS. E is the sum of the following terms:
     one-electron contribution =   -3492.94505812 Ry
     hartree contribution      =    2121.08819672 Ry
     xc contribution           =    -916.86626061 Ry
     ewald contribution        =   -5843.30604005 Ry
     one-center paw contrib.   =   -2732.20695851 Ry

     total magnetization       =     5.99 Bohr mag/cell
     absolute magnetization    =    44.38 Bohr mag/cell

     convergence has been achieved in  32 iterations

     Forces acting on atoms (cartesian axes, Ry/au):

     atom    1 type  3   force =     0.00000000    0.00000000    0.00000000
     atom    2 type  1   force =    -0.01140485   -0.00480194   -0.01140485
     atom    3 type  2   force =     0.00000000    0.00000000   -0.58643640
     atom    4 type  1   force =     0.00000000   -0.46686441    0.00000000
     atom    5 type  2   force =    -0.58643640    0.00000000    0.00000000
     atom    6 type  1   force =    -0.01140485   -0.00480194    0.01140485
     atom    7 type  2   force =     0.00000000   -0.00000000    0.58643640
     atom    8 type  1   force =     0.00000000   -0.00930399    0.00000000
     atom    9 type  2   force =    -0.01646954    0.00000000    0.00000000
     atom   10 type  1   force =    -0.01140485    0.00480194   -0.01140485
     atom   11 type  2   force =     0.00000000    0.00000000   -0.00440510
     atom   12 type  1   force =     0.00000000    0.46686441    0.00000000
     atom   13 type  2   force =    -0.00440510    0.00000000    0.00000000
     atom   14 type  1   force =    -0.01140485    0.00480194    0.01140485
     atom   15 type  2   force =     0.00000000   -0.00000000    0.00440510
     atom   16 type  1   force =     0.00000000    0.00930399    0.00000000
     atom   17 type  2   force =    -0.00327363    0.00000000    0.00000000
     atom   18 type  1   force =     0.01140485   -0.00480194   -0.01140485
     atom   19 type  2   force =     0.00000000    0.00000000   -0.01646954
     atom   20 type  1   force =     0.00000000   -0.00930399    0.00000000
     atom   21 type  2   force =     0.58643640    0.00000000    0.00000000
     atom   22 type  1   force =     0.01140485   -0.00480194    0.01140485
     atom   23 type  2   force =     0.00000000    0.00000000    0.01646954
     atom   24 type  1   force =     0.00000000    0.00249455    0.00000000
     atom   25 type  2   force =     0.01646954    0.00000000    0.00000000
     atom   26 type  1   force =     0.01140485    0.00480194   -0.01140485
     atom   27 type  2   force =     0.00000000    0.00000000   -0.00327363
     atom   28 type  1   force =     0.00000000    0.00930399    0.00000000
     atom   29 type  2   force =     0.00440510    0.00000000    0.00000000
     atom   30 type  1   force =     0.01140485    0.00480194    0.01140485
     atom   31 type  2   force =     0.00000000    0.00000000    0.00327363
     atom   32 type  1   force =     0.00000000   -0.00249455    0.00000000
     atom   33 type  2   force =     0.00327363    0.00000000    0.00000000

     Total force =     1.347362     Total SCF correction =     0.001602


     Computing stress (Cartesian axis) and pressure

          total   stress  (Ry/bohr**3)                   (kbar)     P=      263.02
   0.00192412   0.00000000   0.00000000          283.05        0.00        0.00
   0.00000000   0.00151565   0.00000000            0.00      222.96        0.00
   0.00000000   0.00000000   0.00192412            0.00        0.00      283.05


     Writing output data file /scratch/bxp912/feocta1a.save/
 
     init_run     :     36.18s CPU     37.02s WALL (       1 calls)
     electrons    :   3755.59s CPU   3804.87s WALL (       1 calls)
     forces       :     21.63s CPU     21.79s WALL (       1 calls)
     stress       :     94.50s CPU     95.23s WALL (       1 calls)

     Called by init_run:
     wfcinit      :     35.30s CPU     36.06s WALL (       1 calls)
     potinit      :      0.36s CPU      0.38s WALL (       1 calls)
     hinit0       :      0.23s CPU      0.23s WALL (       1 calls)

     Called by electrons:
     c_bands      :   3313.31s CPU   3353.20s WALL (      32 calls)
     sum_band     :    433.44s CPU    441.97s WALL (      32 calls)
     v_of_rho     :      0.83s CPU      0.91s WALL (      33 calls)
     newd         :      1.67s CPU      2.06s WALL (      33 calls)
     PAW_pot      :      5.88s CPU      6.22s WALL (      33 calls)
     mix_rho      :      0.58s CPU      0.65s WALL (      32 calls)

     Called by c_bands:
     init_us_2    :     15.68s CPU     15.96s WALL (   10050 calls)
     cegterg      :   3253.69s CPU   3291.45s WALL (    4800 calls)

     Called by *egterg:
     cdiaghg      :    488.72s CPU    491.88s WALL (   21035 calls)
     h_psi        :   1745.09s CPU   1773.15s WALL (   21185 calls)
     s_psi        :    135.23s CPU    136.19s WALL (   21185 calls)
     g_psi        :      3.09s CPU      3.14s WALL (   16235 calls)

     Called by h_psi:
     h_psi:calbec :    272.74s CPU    274.68s WALL (   21185 calls)
     vloc_psi     :   1331.85s CPU   1355.85s WALL (   21185 calls)
     add_vuspsi   :    133.06s CPU    135.14s WALL (   21185 calls)

     General routines
     calbec       :    408.15s CPU    411.07s WALL (   26735 calls)
     fft          :      0.67s CPU      0.70s WALL (     863 calls)
     ffts         :      0.30s CPU      0.31s WALL (     779 calls)
     fftw         :   1584.85s CPU   1613.46s WALL ( 8633872 calls)
     interpolate  :      0.07s CPU      0.07s WALL (      66 calls)
 
     Parallel routines
     fft_scatt_xy :     71.91s CPU     73.17s WALL ( 8635514 calls)
     fft_scatt_yz :   1376.34s CPU   1401.56s WALL ( 8635514 calls)
 
     PWSCF        :      1h 5m CPU      1h 6m WALL

 
   This run was terminated on:   2:29: 5  10Jan2022            

=------------------------------------------------------------------------------=
   JOB DONE.
=------------------------------------------------------------------------------=
