
     Program PWSCF v.6.7MaX starts on 19Jan2022 at  1:55:50 

     This program is part of the open-source Quantum ESPRESSO suite
     for quantum simulation of materials; please cite
         "P. Giannozzi et al., J. Phys.:Condens. Matter 21 395502 (2009);
         "P. Giannozzi et al., J. Phys.:Condens. Matter 29 465901 (2017);
          URL http://www.quantum-espresso.org", 
     in publications or presentations arising from this work. More details at
     http://www.quantum-espresso.org/quote

     Parallel version (MPI & OpenMP), running on      72 processor cores
     Number of MPI processes:                72
     Threads/MPI process:                     1

     MPI processes distributed on     1 nodes
     R & G space division:  proc/nbgrp/npool/nimage =      72
     Reading input from fe_octa_1.in
Warning: card &CELL ignored
Warning: card CELL_DYNAMICS = 'BFGS', ignored
Warning: card CELL_FACTOR = 2.0, ignored
Warning: card PRESS = 0.0, ignored
Warning: card / ignored

     Current dimensions of program PWSCF are:
     Max number of different atomic species (ntypx) = 10
     Max number of k-points (npk) =  40000
     Max angular momentum in pseudopotentials (lmaxx) =  3
     file Fe.pbe-spn-kjpaw_psl.1.0.0.UPF: wavefunction(s)  3P 3D renormalized
     file Fe.pbe-spn-kjpaw_psl.1.0.0.UPF: wavefunction(s)  3P 3D renormalized
     file Fe.pbe-spn-kjpaw_psl.1.0.0.UPF: wavefunction(s)  3P 3D renormalized

     Subspace diagonalization in iterative solution of the eigenvalue problem:
     one sub-group per band group will be used
     ELPA distributed-memory algorithm (size of sub-group:  8*  8 procs)

     Message from routine setup:
     using ibrav=0 with symmetry is DISCOURAGED, use correct ibrav instead
 
     Parallelization info
     --------------------
     sticks:   dense  smooth     PW     G-vecs:    dense   smooth      PW
     Min          83      55     15                 4773     2563     367
     Max          84      56     16                 4778     2568     371
     Sum        6035    3993   1103               343891   184641   26583
 


     bravais-lattice index     =            0
     lattice parameter (alat)  =      12.9382  a.u.
     unit-cell volume          =    2283.7811 (a.u.)^3
     number of atoms/cell      =           33
     number of atomic types    =            3
     number of electrons       =       528.00
     number of Kohn-Sham states=          317
     kinetic-energy cutoff     =      71.0000  Ry
     charge density cutoff     =     430.0000  Ry
     scf convergence threshold =      1.0E-07
     mixing beta               =       0.1000
     number of iterations used =           10  local-TF  mixing
     Exchange-correlation= SLA  PW   PBX  PBC
                           (   1   4   3   4   0   0   0)

     celldm(1)=  12.938187  celldm(2)=   0.000000  celldm(3)=   0.000000
     celldm(4)=   0.000000  celldm(5)=   0.000000  celldm(6)=   0.000000

     crystal axes: (cart. coord. in units of alat)
               a(1) = (   1.000000   0.000000   0.000000 )  
               a(2) = (   0.000000   1.054470   0.000000 )  
               a(3) = (   0.000000   0.000000   1.000000 )  

     reciprocal axes: (cart. coord. in units 2 pi/alat)
               b(1) = (  1.000000  0.000000  0.000000 )  
               b(2) = (  0.000000  0.948344  0.000000 )  
               b(3) = (  0.000000  0.000000  1.000000 )  


     PseudoPot. # 1 for Fe read from file:
     /rds/homes/b/bxp912/pp/Fe.pbe-spn-kjpaw_psl.1.0.0.UPF
     MD5 check sum: 42f43b795421b414b0dc916aa790dbcb
     Pseudo is Projector augmented-wave + core cor, Zval = 16.0
     Generated using &quot;atomic&quot; code by A. Dal Corso  v.6.3
     Shape of augmentation charge: PSQ
     Using radial grid of 1191 points,  6 beta functions with: 
                l(1) =   0
                l(2) =   0
                l(3) =   1
                l(4) =   1
                l(5) =   2
                l(6) =   2
     Q(r) pseudized with 0 coefficients 


     PseudoPot. # 2 for Fe read from file:
     /rds/homes/b/bxp912/pp/Fe.pbe-spn-kjpaw_psl.1.0.0.UPF
     MD5 check sum: 42f43b795421b414b0dc916aa790dbcb
     Pseudo is Projector augmented-wave + core cor, Zval = 16.0
     Generated using &quot;atomic&quot; code by A. Dal Corso  v.6.3
     Shape of augmentation charge: PSQ
     Using radial grid of 1191 points,  6 beta functions with: 
                l(1) =   0
                l(2) =   0
                l(3) =   1
                l(4) =   1
                l(5) =   2
                l(6) =   2
     Q(r) pseudized with 0 coefficients 


     PseudoPot. # 3 for Fe read from file:
     /rds/homes/b/bxp912/pp/Fe.pbe-spn-kjpaw_psl.1.0.0.UPF
     MD5 check sum: 42f43b795421b414b0dc916aa790dbcb
     Pseudo is Projector augmented-wave + core cor, Zval = 16.0
     Generated using &quot;atomic&quot; code by A. Dal Corso  v.6.3
     Shape of augmentation charge: PSQ
     Using radial grid of 1191 points,  6 beta functions with: 
                l(1) =   0
                l(2) =   0
                l(3) =   1
                l(4) =   1
                l(5) =   2
                l(6) =   2
     Q(r) pseudized with 0 coefficients 


     atomic species   valence    mass     pseudopotential
        Fe1           16.00    55.84500     Fe( 1.00)
        Fe2           16.00    55.84500     Fe( 1.00)
        Fe3           16.00    55.84500     Fe( 1.00)

     Starting magnetic structure 
     atomic species   magnetization
        Fe1          0.100
        Fe2         -0.100
        Fe3         -0.010

     16 Sym. Ops., with inversion, found (14 have fractional translation)



   Cartesian axes

     site n.     atom                  positions (alat units)
         1           Fe3 tau(   1) = (   0.2500000   0.2636175   0.2500000  )
         2           Fe1 tau(   2) = (   0.0000000   0.0000000   0.0000000  )
         3           Fe2 tau(   3) = (   0.2500000   0.2636175   0.0000000  )
         4           Fe1 tau(   4) = (   0.2500000   0.0000000   0.2500000  )
         5           Fe2 tau(   5) = (   0.0000000   0.2636175   0.2500000  )
         6           Fe1 tau(   6) = (   0.0000000   0.0000000   0.5000000  )
         7           Fe2 tau(   7) = (   0.2500000   0.2636175   0.5000000  )
         8           Fe1 tau(   8) = (   0.2500000   0.0000000   0.7500000  )
         9           Fe2 tau(   9) = (   0.0000000   0.2636175   0.7500000  )
        10           Fe1 tau(  10) = (   0.0000000   0.5272350   0.0000000  )
        11           Fe2 tau(  11) = (   0.2500000   0.7908525   0.0000000  )
        12           Fe1 tau(  12) = (   0.2500000   0.5272350   0.2500000  )
        13           Fe2 tau(  13) = (   0.0000000   0.7908525   0.2500000  )
        14           Fe1 tau(  14) = (   0.0000000   0.5272350   0.5000000  )
        15           Fe2 tau(  15) = (   0.2500000   0.7908525   0.5000000  )
        16           Fe1 tau(  16) = (   0.2500000   0.5272350   0.7500000  )
        17           Fe2 tau(  17) = (   0.0000000   0.7908525   0.7500000  )
        18           Fe1 tau(  18) = (   0.5000000   0.0000000   0.0000000  )
        19           Fe2 tau(  19) = (   0.7500000   0.2636175   0.0000000  )
        20           Fe1 tau(  20) = (   0.7500000   0.0000000   0.2500000  )
        21           Fe2 tau(  21) = (   0.5000000   0.2636175   0.2500000  )
        22           Fe1 tau(  22) = (   0.5000000   0.0000000   0.5000000  )
        23           Fe2 tau(  23) = (   0.7500000   0.2636175   0.5000000  )
        24           Fe1 tau(  24) = (   0.7500000   0.0000000   0.7500000  )
        25           Fe2 tau(  25) = (   0.5000000   0.2636175   0.7500000  )
        26           Fe1 tau(  26) = (   0.5000000   0.5272350   0.0000000  )
        27           Fe2 tau(  27) = (   0.7500000   0.7908525   0.0000000  )
        28           Fe1 tau(  28) = (   0.7500000   0.5272350   0.2500000  )
        29           Fe2 tau(  29) = (   0.5000000   0.7908525   0.2500000  )
        30           Fe1 tau(  30) = (   0.5000000   0.5272350   0.5000000  )
        31           Fe2 tau(  31) = (   0.7500000   0.7908525   0.5000000  )
        32           Fe1 tau(  32) = (   0.7500000   0.5272350   0.7500000  )
        33           Fe2 tau(  33) = (   0.5000000   0.7908525   0.7500000  )

     number of k points=    75  Marzari-Vanderbilt smearing, width (Ry)=  0.0400
                       cart. coord. in units 2pi/alat
        k(    1) = (   0.0555556   0.0526858   0.0555556), wk =   0.0109739
        k(    2) = (   0.0555556   0.0526858   0.1666667), wk =   0.0219479
        k(    3) = (   0.0555556   0.0526858   0.2777778), wk =   0.0219479
        k(    4) = (   0.0555556   0.0526858   0.3888889), wk =   0.0219479
        k(    5) = (   0.0555556   0.0526858  -0.5000000), wk =   0.0109739
        k(    6) = (   0.0555556   0.1580573   0.0555556), wk =   0.0109739
        k(    7) = (   0.0555556   0.1580573   0.1666667), wk =   0.0219479
        k(    8) = (   0.0555556   0.1580573   0.2777778), wk =   0.0219479
        k(    9) = (   0.0555556   0.1580573   0.3888889), wk =   0.0219479
        k(   10) = (   0.0555556   0.1580573  -0.5000000), wk =   0.0109739
        k(   11) = (   0.0555556   0.2634288   0.0555556), wk =   0.0109739
        k(   12) = (   0.0555556   0.2634288   0.1666667), wk =   0.0219479
        k(   13) = (   0.0555556   0.2634288   0.2777778), wk =   0.0219479
        k(   14) = (   0.0555556   0.2634288   0.3888889), wk =   0.0219479
        k(   15) = (   0.0555556   0.2634288  -0.5000000), wk =   0.0109739
        k(   16) = (   0.0555556   0.3688003   0.0555556), wk =   0.0109739
        k(   17) = (   0.0555556   0.3688003   0.1666667), wk =   0.0219479
        k(   18) = (   0.0555556   0.3688003   0.2777778), wk =   0.0219479
        k(   19) = (   0.0555556   0.3688003   0.3888889), wk =   0.0219479
        k(   20) = (   0.0555556   0.3688003  -0.5000000), wk =   0.0109739
        k(   21) = (   0.0555556  -0.4741719   0.0555556), wk =   0.0054870
        k(   22) = (   0.0555556  -0.4741719   0.1666667), wk =   0.0109739
        k(   23) = (   0.0555556  -0.4741719   0.2777778), wk =   0.0109739
        k(   24) = (   0.0555556  -0.4741719   0.3888889), wk =   0.0109739
        k(   25) = (   0.0555556  -0.4741719  -0.5000000), wk =   0.0054870
        k(   26) = (   0.1666667   0.0526858   0.1666667), wk =   0.0109739
        k(   27) = (   0.1666667   0.0526858   0.2777778), wk =   0.0219479
        k(   28) = (   0.1666667   0.0526858   0.3888889), wk =   0.0219479
        k(   29) = (   0.1666667   0.0526858  -0.5000000), wk =   0.0109739
        k(   30) = (   0.1666667   0.1580573   0.1666667), wk =   0.0109739
        k(   31) = (   0.1666667   0.1580573   0.2777778), wk =   0.0219479
        k(   32) = (   0.1666667   0.1580573   0.3888889), wk =   0.0219479
        k(   33) = (   0.1666667   0.1580573  -0.5000000), wk =   0.0109739
        k(   34) = (   0.1666667   0.2634288   0.1666667), wk =   0.0109739
        k(   35) = (   0.1666667   0.2634288   0.2777778), wk =   0.0219479
        k(   36) = (   0.1666667   0.2634288   0.3888889), wk =   0.0219479
        k(   37) = (   0.1666667   0.2634288  -0.5000000), wk =   0.0109739
        k(   38) = (   0.1666667   0.3688003   0.1666667), wk =   0.0109739
        k(   39) = (   0.1666667   0.3688003   0.2777778), wk =   0.0219479
        k(   40) = (   0.1666667   0.3688003   0.3888889), wk =   0.0219479
        k(   41) = (   0.1666667   0.3688003  -0.5000000), wk =   0.0109739
        k(   42) = (   0.1666667  -0.4741719   0.1666667), wk =   0.0054870
        k(   43) = (   0.1666667  -0.4741719   0.2777778), wk =   0.0109739
        k(   44) = (   0.1666667  -0.4741719   0.3888889), wk =   0.0109739
        k(   45) = (   0.1666667  -0.4741719  -0.5000000), wk =   0.0054870
        k(   46) = (   0.2777778   0.0526858   0.2777778), wk =   0.0109739
        k(   47) = (   0.2777778   0.0526858   0.3888889), wk =   0.0219479
        k(   48) = (   0.2777778   0.0526858  -0.5000000), wk =   0.0109739
        k(   49) = (   0.2777778   0.1580573   0.2777778), wk =   0.0109739
        k(   50) = (   0.2777778   0.1580573   0.3888889), wk =   0.0219479
        k(   51) = (   0.2777778   0.1580573  -0.5000000), wk =   0.0109739
        k(   52) = (   0.2777778   0.2634288   0.2777778), wk =   0.0109739
        k(   53) = (   0.2777778   0.2634288   0.3888889), wk =   0.0219479
        k(   54) = (   0.2777778   0.2634288  -0.5000000), wk =   0.0109739
        k(   55) = (   0.2777778   0.3688003   0.2777778), wk =   0.0109739
        k(   56) = (   0.2777778   0.3688003   0.3888889), wk =   0.0219479
        k(   57) = (   0.2777778   0.3688003  -0.5000000), wk =   0.0109739
        k(   58) = (   0.2777778  -0.4741719   0.2777778), wk =   0.0054870
        k(   59) = (   0.2777778  -0.4741719   0.3888889), wk =   0.0109739
        k(   60) = (   0.2777778  -0.4741719  -0.5000000), wk =   0.0054870
        k(   61) = (   0.3888889   0.0526858   0.3888889), wk =   0.0109739
        k(   62) = (   0.3888889   0.0526858  -0.5000000), wk =   0.0109739
        k(   63) = (   0.3888889   0.1580573   0.3888889), wk =   0.0109739
        k(   64) = (   0.3888889   0.1580573  -0.5000000), wk =   0.0109739
        k(   65) = (   0.3888889   0.2634288   0.3888889), wk =   0.0109739
        k(   66) = (   0.3888889   0.2634288  -0.5000000), wk =   0.0109739
        k(   67) = (   0.3888889   0.3688003   0.3888889), wk =   0.0109739
        k(   68) = (   0.3888889   0.3688003  -0.5000000), wk =   0.0109739
        k(   69) = (   0.3888889  -0.4741719   0.3888889), wk =   0.0054870
        k(   70) = (   0.3888889  -0.4741719  -0.5000000), wk =   0.0054870
        k(   71) = (  -0.5000000   0.0526858  -0.5000000), wk =   0.0027435
        k(   72) = (  -0.5000000   0.1580573  -0.5000000), wk =   0.0027435
        k(   73) = (  -0.5000000   0.2634288  -0.5000000), wk =   0.0027435
        k(   74) = (  -0.5000000   0.3688003  -0.5000000), wk =   0.0027435
        k(   75) = (  -0.5000000  -0.4741719  -0.5000000), wk =   0.0013717

     Dense  grid:   343891 G-vectors     FFT dimensions: (  90,  96,  90)

     Smooth grid:   184641 G-vectors     FFT dimensions: (  72,  80,  72)

     Estimated max dynamical RAM per process >     264.88 MB

     Estimated total dynamical RAM >      18.62 GB

     Check: negative core charge=   -0.000006
     Generating pointlists ...
     new r_m :   0.1087 (alat units)  1.4069 (a.u.) for type    1
     new r_m :   0.1031 (alat units)  1.3343 (a.u.) for type    2
     new r_m :   0.1031 (alat units)  1.3343 (a.u.) for type    3

     Initial potential from superposition of free atoms

     starting charge  527.98556, renormalised to  528.00000
     Starting wfcs are  330 randomized atomic wfcs
     Checking if some PAW data can be deallocated... 

     total cpu time spent up to now is       40.7 secs

     Self-consistent Calculation

     iteration #  1     ecut=    71.00 Ry     beta= 0.10
     Davidson diagonalization with overlap
     ethr =  1.00E-02,  avg # of iterations =  3.3

     total cpu time spent up to now is      167.6 secs

     total energy              =  -10864.23326941 Ry
     estimated scf accuracy    <      25.47462390 Ry

     total magnetization       =     1.62 Bohr mag/cell
     absolute magnetization    =    42.24 Bohr mag/cell

     iteration #  2     ecut=    71.00 Ry     beta= 0.10
     Davidson diagonalization with overlap
     ethr =  4.82E-03,  avg # of iterations =  1.1

     total cpu time spent up to now is      259.9 secs

     total energy              =  -10864.19485347 Ry
     estimated scf accuracy    <       5.66453774 Ry

     total magnetization       =     1.21 Bohr mag/cell
     absolute magnetization    =    43.22 Bohr mag/cell

     iteration #  3     ecut=    71.00 Ry     beta= 0.10
     Davidson diagonalization with overlap
     ethr =  1.07E-03,  avg # of iterations =  2.0

     total cpu time spent up to now is      357.9 secs

     total energy              =  -10864.19665123 Ry
     estimated scf accuracy    <       0.95110571 Ry

     total magnetization       =     1.72 Bohr mag/cell
     absolute magnetization    =    42.74 Bohr mag/cell

     iteration #  4     ecut=    71.00 Ry     beta= 0.10
     Davidson diagonalization with overlap
     ethr =  1.80E-04,  avg # of iterations =  3.4

     total cpu time spent up to now is      464.3 secs

     total energy              =  -10864.08471504 Ry
     estimated scf accuracy    <       0.44794103 Ry

     total magnetization       =     2.11 Bohr mag/cell
     absolute magnetization    =    42.98 Bohr mag/cell

     iteration #  5     ecut=    71.00 Ry     beta= 0.10
     Davidson diagonalization with overlap
     c_bands:  1 eigenvalues not converged
     ethr =  8.48E-05,  avg # of iterations =  3.7

     total cpu time spent up to now is      591.4 secs

     total energy              =  -10864.17026610 Ry
     estimated scf accuracy    <       0.17050334 Ry

     total magnetization       =     2.61 Bohr mag/cell
     absolute magnetization    =    43.21 Bohr mag/cell

     iteration #  6     ecut=    71.00 Ry     beta= 0.10
     Davidson diagonalization with overlap
     c_bands:  1 eigenvalues not converged
     c_bands:  2 eigenvalues not converged
     ethr =  3.23E-05,  avg # of iterations =  3.7

     total cpu time spent up to now is      700.0 secs

     total energy              =  -10864.18265285 Ry
     estimated scf accuracy    <       0.09342912 Ry

     total magnetization       =     2.74 Bohr mag/cell
     absolute magnetization    =    43.28 Bohr mag/cell

     iteration #  7     ecut=    71.00 Ry     beta= 0.10
     Davidson diagonalization with overlap
     c_bands:  1 eigenvalues not converged
     ethr =  1.77E-05,  avg # of iterations =  4.0

     total cpu time spent up to now is      803.6 secs

     total energy              =  -10864.19573590 Ry
     estimated scf accuracy    <       0.06961197 Ry

     total magnetization       =     2.82 Bohr mag/cell
     absolute magnetization    =    43.31 Bohr mag/cell

     iteration #  8     ecut=    71.00 Ry     beta= 0.10
     Davidson diagonalization with overlap
     ethr =  1.32E-05,  avg # of iterations =  2.4

     total cpu time spent up to now is      911.1 secs

     total energy              =  -10864.21178172 Ry
     estimated scf accuracy    <       0.02244360 Ry

     total magnetization       =     3.25 Bohr mag/cell
     absolute magnetization    =    43.30 Bohr mag/cell

     iteration #  9     ecut=    71.00 Ry     beta= 0.10
     Davidson diagonalization with overlap
     c_bands:  1 eigenvalues not converged
     ethr =  4.25E-06,  avg # of iterations =  7.4

     total cpu time spent up to now is     1060.2 secs

     total energy              =  -10864.21661327 Ry
     estimated scf accuracy    <       0.01091550 Ry

     total magnetization       =     3.68 Bohr mag/cell
     absolute magnetization    =    43.29 Bohr mag/cell

     iteration # 10     ecut=    71.00 Ry     beta= 0.10
     Davidson diagonalization with overlap
     c_bands:  2 eigenvalues not converged
     c_bands:  1 eigenvalues not converged
     c_bands:  2 eigenvalues not converged
     c_bands:  1 eigenvalues not converged
     c_bands:  1 eigenvalues not converged
     ethr =  2.07E-06,  avg # of iterations =  3.8

     total cpu time spent up to now is     1168.6 secs

     total energy              =  -10864.21849565 Ry
     estimated scf accuracy    <       0.01322093 Ry

     total magnetization       =     3.71 Bohr mag/cell
     absolute magnetization    =    43.30 Bohr mag/cell

     iteration # 11     ecut=    71.00 Ry     beta= 0.10
     Davidson diagonalization with overlap
     ethr =  2.07E-06,  avg # of iterations =  2.2

     total cpu time spent up to now is     1272.7 secs

     total energy              =  -10864.22185465 Ry
     estimated scf accuracy    <       0.00340162 Ry

     total magnetization       =     4.22 Bohr mag/cell
     absolute magnetization    =    43.33 Bohr mag/cell

     iteration # 12     ecut=    71.00 Ry     beta= 0.10
     Davidson diagonalization with overlap
     ethr =  6.44E-07,  avg # of iterations =  3.5

     total cpu time spent up to now is     1397.9 secs

     total energy              =  -10864.22279469 Ry
     estimated scf accuracy    <       0.00414855 Ry

     total magnetization       =     4.33 Bohr mag/cell
     absolute magnetization    =    43.36 Bohr mag/cell

     iteration # 13     ecut=    71.00 Ry     beta= 0.10
     Davidson diagonalization with overlap
     ethr =  6.44E-07,  avg # of iterations =  1.2

     total cpu time spent up to now is     1490.4 secs

     total energy              =  -10864.22125464 Ry
     estimated scf accuracy    <       0.00312565 Ry

     total magnetization       =     4.45 Bohr mag/cell
     absolute magnetization    =    43.35 Bohr mag/cell

     iteration # 14     ecut=    71.00 Ry     beta= 0.10
     Davidson diagonalization with overlap
     ethr =  5.92E-07,  avg # of iterations =  5.4

     total cpu time spent up to now is     1646.3 secs

     total energy              =  -10864.22821321 Ry
     estimated scf accuracy    <       0.00225198 Ry

     total magnetization       =     5.30 Bohr mag/cell
     absolute magnetization    =    43.60 Bohr mag/cell

     iteration # 15     ecut=    71.00 Ry     beta= 0.10
     Davidson diagonalization with overlap
     ethr =  4.27E-07,  avg # of iterations =  4.1

     total cpu time spent up to now is     1781.5 secs

     total energy              =  -10864.23026804 Ry
     estimated scf accuracy    <       0.00106097 Ry

     total magnetization       =     5.64 Bohr mag/cell
     absolute magnetization    =    43.92 Bohr mag/cell

     iteration # 16     ecut=    71.00 Ry     beta= 0.10
     Davidson diagonalization with overlap
     ethr =  2.01E-07,  avg # of iterations =  2.3

     total cpu time spent up to now is     1887.4 secs

     total energy              =  -10864.23040894 Ry
     estimated scf accuracy    <       0.00069586 Ry

     total magnetization       =     5.78 Bohr mag/cell
     absolute magnetization    =    44.04 Bohr mag/cell

     iteration # 17     ecut=    71.00 Ry     beta= 0.10
     Davidson diagonalization with overlap
     ethr =  1.32E-07,  avg # of iterations =  5.5

     total cpu time spent up to now is     2055.3 secs

     total energy              =  -10864.23123367 Ry
     estimated scf accuracy    <       0.00091883 Ry

     total magnetization       =     6.02 Bohr mag/cell
     absolute magnetization    =    44.28 Bohr mag/cell

     iteration # 18     ecut=    71.00 Ry     beta= 0.10
     Davidson diagonalization with overlap
     ethr =  1.32E-07,  avg # of iterations =  3.5

     total cpu time spent up to now is     2183.2 secs

     total energy              =  -10864.23181085 Ry
     estimated scf accuracy    <       0.00013952 Ry

     total magnetization       =     6.18 Bohr mag/cell
     absolute magnetization    =    44.47 Bohr mag/cell

     iteration # 19     ecut=    71.00 Ry     beta= 0.10
     Davidson diagonalization with overlap
     ethr =  2.64E-08,  avg # of iterations =  3.9

     total cpu time spent up to now is     2307.7 secs

     total energy              =  -10864.23168255 Ry
     estimated scf accuracy    <       0.00010739 Ry

     total magnetization       =     6.16 Bohr mag/cell
     absolute magnetization    =    44.43 Bohr mag/cell

     iteration # 20     ecut=    71.00 Ry     beta= 0.10
     Davidson diagonalization with overlap
     ethr =  2.03E-08,  avg # of iterations =  4.9

     total cpu time spent up to now is     2454.5 secs

     total energy              =  -10864.23190374 Ry
     estimated scf accuracy    <       0.00011788 Ry

     total magnetization       =     6.27 Bohr mag/cell
     absolute magnetization    =    44.59 Bohr mag/cell

     iteration # 21     ecut=    71.00 Ry     beta= 0.10
     Davidson diagonalization with overlap
     ethr =  2.03E-08,  avg # of iterations =  1.3

     total cpu time spent up to now is     2548.0 secs

     total energy              =  -10864.23193656 Ry
     estimated scf accuracy    <       0.00008514 Ry

     total magnetization       =     6.24 Bohr mag/cell
     absolute magnetization    =    44.54 Bohr mag/cell

     iteration # 22     ecut=    71.00 Ry     beta= 0.10
     Davidson diagonalization with overlap
     ethr =  1.61E-08,  avg # of iterations =  1.6

     total cpu time spent up to now is     2644.8 secs

     total energy              =  -10864.23188957 Ry
     estimated scf accuracy    <       0.00006765 Ry

     total magnetization       =     6.21 Bohr mag/cell
     absolute magnetization    =    44.50 Bohr mag/cell

     iteration # 23     ecut=    71.00 Ry     beta= 0.10
     Davidson diagonalization with overlap
     ethr =  1.28E-08,  avg # of iterations =  3.9

     total cpu time spent up to now is     2778.3 secs

     total energy              =  -10864.23196877 Ry
     estimated scf accuracy    <       0.00006628 Ry

     total magnetization       =     6.23 Bohr mag/cell
     absolute magnetization    =    44.54 Bohr mag/cell

     iteration # 24     ecut=    71.00 Ry     beta= 0.10
     Davidson diagonalization with overlap
     ethr =  1.26E-08,  avg # of iterations =  2.7

     total cpu time spent up to now is     2898.6 secs

     total energy              =  -10864.23202246 Ry
     estimated scf accuracy    <       0.00002035 Ry

     total magnetization       =     6.14 Bohr mag/cell
     absolute magnetization    =    44.42 Bohr mag/cell

     iteration # 25     ecut=    71.00 Ry     beta= 0.10
     Davidson diagonalization with overlap
     ethr =  3.86E-09,  avg # of iterations =  2.2

     total cpu time spent up to now is     3002.7 secs

     total energy              =  -10864.23200419 Ry
     estimated scf accuracy    <       0.00001845 Ry

     total magnetization       =     6.15 Bohr mag/cell
     absolute magnetization    =    44.44 Bohr mag/cell

     iteration # 26     ecut=    71.00 Ry     beta= 0.10
     Davidson diagonalization with overlap
     ethr =  3.49E-09,  avg # of iterations =  3.3

     total cpu time spent up to now is     3126.9 secs

     total energy              =  -10864.23197167 Ry
     estimated scf accuracy    <       0.00001947 Ry

     total magnetization       =     6.12 Bohr mag/cell
     absolute magnetization    =    44.39 Bohr mag/cell

     iteration # 27     ecut=    71.00 Ry     beta= 0.10
     Davidson diagonalization with overlap
     ethr =  3.49E-09,  avg # of iterations =  5.0

     total cpu time spent up to now is     3284.6 secs

     total energy              =  -10864.23205199 Ry
     estimated scf accuracy    <       0.00001534 Ry

     total magnetization       =     6.13 Bohr mag/cell
     absolute magnetization    =    44.44 Bohr mag/cell

     iteration # 28     ecut=    71.00 Ry     beta= 0.10
     Davidson diagonalization with overlap
     ethr =  2.91E-09,  avg # of iterations =  3.3

     total cpu time spent up to now is     3411.1 secs

     total energy              =  -10864.23207077 Ry
     estimated scf accuracy    <       0.00000730 Ry

     total magnetization       =     6.08 Bohr mag/cell
     absolute magnetization    =    44.39 Bohr mag/cell

     iteration # 29     ecut=    71.00 Ry     beta= 0.10
     Davidson diagonalization with overlap
     ethr =  1.38E-09,  avg # of iterations =  2.7

     total cpu time spent up to now is     3518.8 secs

     total energy              =  -10864.23207180 Ry
     estimated scf accuracy    <       0.00000528 Ry

     total magnetization       =     6.06 Bohr mag/cell
     absolute magnetization    =    44.38 Bohr mag/cell

     iteration # 30     ecut=    71.00 Ry     beta= 0.10
     Davidson diagonalization with overlap
     ethr =  9.99E-10,  avg # of iterations =  2.9

     total cpu time spent up to now is     3631.7 secs

     total energy              =  -10864.23207596 Ry
     estimated scf accuracy    <       0.00000446 Ry

     total magnetization       =     6.05 Bohr mag/cell
     absolute magnetization    =    44.36 Bohr mag/cell

     iteration # 31     ecut=    71.00 Ry     beta= 0.10
     Davidson diagonalization with overlap
     ethr =  8.45E-10,  avg # of iterations =  3.2

     total cpu time spent up to now is     3748.8 secs

     total energy              =  -10864.23207991 Ry
     estimated scf accuracy    <       0.00000353 Ry

     total magnetization       =     6.03 Bohr mag/cell
     absolute magnetization    =    44.36 Bohr mag/cell

     iteration # 32     ecut=    71.00 Ry     beta= 0.10
     Davidson diagonalization with overlap
     ethr =  6.68E-10,  avg # of iterations =  3.0

     total cpu time spent up to now is     3863.5 secs

     total energy              =  -10864.23208226 Ry
     estimated scf accuracy    <       0.00000285 Ry

     total magnetization       =     6.02 Bohr mag/cell
     absolute magnetization    =    44.37 Bohr mag/cell

     iteration # 33     ecut=    71.00 Ry     beta= 0.10
     Davidson diagonalization with overlap
     ethr =  5.39E-10,  avg # of iterations =  2.1

     total cpu time spent up to now is     3977.3 secs

     total energy              =  -10864.23208285 Ry
     estimated scf accuracy    <       0.00000250 Ry

     total magnetization       =     6.01 Bohr mag/cell
     absolute magnetization    =    44.36 Bohr mag/cell

     iteration # 34     ecut=    71.00 Ry     beta= 0.10
     Davidson diagonalization with overlap
     ethr =  4.73E-10,  avg # of iterations =  4.3

     total cpu time spent up to now is     4135.3 secs

     total energy              =  -10864.23208530 Ry
     estimated scf accuracy    <       0.00000191 Ry

     total magnetization       =     6.00 Bohr mag/cell
     absolute magnetization    =    44.37 Bohr mag/cell

     iteration # 35     ecut=    71.00 Ry     beta= 0.10
     Davidson diagonalization with overlap
     ethr =  3.62E-10,  avg # of iterations =  4.2

     total cpu time spent up to now is     4269.9 secs

     total energy              =  -10864.23208818 Ry
     estimated scf accuracy    <       0.00000102 Ry

     total magnetization       =     5.98 Bohr mag/cell
     absolute magnetization    =    44.37 Bohr mag/cell

     iteration # 36     ecut=    71.00 Ry     beta= 0.10
     Davidson diagonalization with overlap
     ethr =  1.94E-10,  avg # of iterations =  4.4

     total cpu time spent up to now is     4410.0 secs

     total energy              =  -10864.23208949 Ry
     estimated scf accuracy    <       0.00000048 Ry

     total magnetization       =     5.98 Bohr mag/cell
     absolute magnetization    =    44.37 Bohr mag/cell

     iteration # 37     ecut=    71.00 Ry     beta= 0.10
     Davidson diagonalization with overlap
     ethr =  9.08E-11,  avg # of iterations =  4.2

     total cpu time spent up to now is     4595.0 secs

     total energy              =  -10864.23209027 Ry
     estimated scf accuracy    <       0.00000034 Ry

     total magnetization       =     5.97 Bohr mag/cell
     absolute magnetization    =    44.37 Bohr mag/cell

     iteration # 38     ecut=    71.00 Ry     beta= 0.10
     Davidson diagonalization with overlap
     ethr =  6.35E-11,  avg # of iterations =  2.2

     total cpu time spent up to now is     4717.8 secs

     total energy              =  -10864.23209044 Ry
     estimated scf accuracy    <       0.00000025 Ry

     total magnetization       =     5.97 Bohr mag/cell
     absolute magnetization    =    44.37 Bohr mag/cell

     iteration # 39     ecut=    71.00 Ry     beta= 0.10
     Davidson diagonalization with overlap
     ethr =  4.79E-11,  avg # of iterations =  1.3

     total cpu time spent up to now is     4829.4 secs

     total energy              =  -10864.23209049 Ry
     estimated scf accuracy    <       0.00000022 Ry

     total magnetization       =     5.97 Bohr mag/cell
     absolute magnetization    =    44.37 Bohr mag/cell

     iteration # 40     ecut=    71.00 Ry     beta= 0.10
     Davidson diagonalization with overlap
     ethr =  4.11E-11,  avg # of iterations =  2.2

     total cpu time spent up to now is     4964.7 secs

     total energy              =  -10864.23209058 Ry
     estimated scf accuracy    <       0.00000016 Ry

     total magnetization       =     5.97 Bohr mag/cell
     absolute magnetization    =    44.37 Bohr mag/cell

     iteration # 41     ecut=    71.00 Ry     beta= 0.10
     Davidson diagonalization with overlap
     ethr =  3.10E-11,  avg # of iterations =  2.7

     total cpu time spent up to now is     5081.4 secs

     total energy              =  -10864.23209065 Ry
     estimated scf accuracy    <       0.00000015 Ry

     total magnetization       =     5.97 Bohr mag/cell
     absolute magnetization    =    44.37 Bohr mag/cell

     iteration # 42     ecut=    71.00 Ry     beta= 0.10
     Davidson diagonalization with overlap
     ethr =  2.91E-11,  avg # of iterations =  3.8
 
     Magnetic moment per site:
     atom:    1    charge:   12.8149    magn:    0.0478    constr:    0.0000
     atom:    2    charge:   12.6772    magn:    1.5016    constr:    0.0000
     atom:    3    charge:   12.4811    magn:    0.1896    constr:    0.0000
     atom:    4    charge:   12.8021    magn:    0.7851    constr:    0.0000
     atom:    5    charge:   12.4811    magn:    0.1896    constr:    0.0000
     atom:    6    charge:   12.6772    magn:    1.5016    constr:    0.0000
     atom:    7    charge:   12.4811    magn:    0.1896    constr:    0.0000
     atom:    8    charge:   12.6798    magn:    1.2287    constr:    0.0000
     atom:    9    charge:   12.3385    magn:   -1.3221    constr:    0.0000
     atom:   10    charge:   12.6772    magn:    1.5016    constr:    0.0000
     atom:   11    charge:   12.3400    magn:   -1.2472    constr:    0.0000
     atom:   12    charge:   12.8021    magn:    0.7851    constr:    0.0000
     atom:   13    charge:   12.3400    magn:   -1.2472    constr:    0.0000
     atom:   14    charge:   12.6772    magn:    1.5016    constr:    0.0000
     atom:   15    charge:   12.3400    magn:   -1.2472    constr:    0.0000
     atom:   16    charge:   12.6798    magn:    1.2287    constr:    0.0000
     atom:   17    charge:   12.3370    magn:   -1.3079    constr:    0.0000
     atom:   18    charge:   12.6772    magn:    1.5016    constr:    0.0000
     atom:   19    charge:   12.3385    magn:   -1.3221    constr:    0.0000
     atom:   20    charge:   12.6798    magn:    1.2287    constr:    0.0000
     atom:   21    charge:   12.4811    magn:    0.1896    constr:    0.0000
     atom:   22    charge:   12.6772    magn:    1.5016    constr:    0.0000
     atom:   23    charge:   12.3385    magn:   -1.3221    constr:    0.0000
     atom:   24    charge:   12.6770    magn:    1.1274    constr:    0.0000
     atom:   25    charge:   12.3385    magn:   -1.3221    constr:    0.0000
     atom:   26    charge:   12.6772    magn:    1.5016    constr:    0.0000
     atom:   27    charge:   12.3370    magn:   -1.3079    constr:    0.0000
     atom:   28    charge:   12.6798    magn:    1.2287    constr:    0.0000
     atom:   29    charge:   12.3400    magn:   -1.2472    constr:    0.0000
     atom:   30    charge:   12.6772    magn:    1.5016    constr:    0.0000
     atom:   31    charge:   12.3370    magn:   -1.3079    constr:    0.0000
     atom:   32    charge:   12.6770    magn:    1.1274    constr:    0.0000
     atom:   33    charge:   12.3370    magn:   -1.3079    constr:    0.0000

     total cpu time spent up to now is     5212.9 secs

     End of self-consistent calculation

     Number of k-points >= 100: set verbosity='high' to print the bands.

     the Fermi energy is    20.8997 ev

!    total energy              =  -10864.23209090 Ry

     total all-electron energy =    -84002.017682 Ry
     estimated scf accuracy    <       0.00000009 Ry
     smearing contrib. (-TS)   =       0.00396029 Ry
     internal energy E=F+TS    =  -10864.23605119 Ry

     The total energy is F=E-TS. E is the sum of the following terms:
     one-electron contribution =   -3492.94313921 Ry
     hartree contribution      =    2121.08592947 Ry
     xc contribution           =    -916.86583861 Ry
     ewald contribution        =   -5843.30604005 Ry
     one-center paw contrib.   =   -2732.20696279 Ry

     total magnetization       =     5.97 Bohr mag/cell
     absolute magnetization    =    44.37 Bohr mag/cell

     convergence has been achieved in  42 iterations

     Forces acting on atoms (cartesian axes, Ry/au):

     atom    1 type  3   force =     0.00000000    0.00000000    0.00000000
     atom    2 type  1   force =    -0.01140740   -0.00481264   -0.01140740
     atom    3 type  2   force =     0.00000000   -0.00000000   -0.58641147
     atom    4 type  1   force =     0.00000000   -0.46686945   -0.00000000
     atom    5 type  2   force =    -0.58641147   -0.00000000    0.00000000
     atom    6 type  1   force =    -0.01140740   -0.00481264    0.01140740
     atom    7 type  2   force =     0.00000000    0.00000000    0.58641147
     atom    8 type  1   force =     0.00000000   -0.00932041    0.00000000
     atom    9 type  2   force =    -0.01645855    0.00000000    0.00000000
     atom   10 type  1   force =    -0.01140740    0.00481264   -0.01140740
     atom   11 type  2   force =     0.00000000    0.00000000   -0.00439719
     atom   12 type  1   force =     0.00000000    0.46686945   -0.00000000
     atom   13 type  2   force =    -0.00439719    0.00000000    0.00000000
     atom   14 type  1   force =    -0.01140740    0.00481264    0.01140740
     atom   15 type  2   force =     0.00000000    0.00000000    0.00439719
     atom   16 type  1   force =     0.00000000    0.00932041    0.00000000
     atom   17 type  2   force =    -0.00327231    0.00000000    0.00000000
     atom   18 type  1   force =     0.01140740   -0.00481264   -0.01140740
     atom   19 type  2   force =     0.00000000   -0.00000000   -0.01645855
     atom   20 type  1   force =     0.00000000   -0.00932041    0.00000000
     atom   21 type  2   force =     0.58641147    0.00000000    0.00000000
     atom   22 type  1   force =     0.01140740   -0.00481264    0.01140740
     atom   23 type  2   force =     0.00000000   -0.00000000    0.01645855
     atom   24 type  1   force =     0.00000000    0.00249022    0.00000000
     atom   25 type  2   force =     0.01645855    0.00000000    0.00000000
     atom   26 type  1   force =     0.01140740    0.00481264   -0.01140740
     atom   27 type  2   force =     0.00000000   -0.00000000   -0.00327231
     atom   28 type  1   force =     0.00000000    0.00932041    0.00000000
     atom   29 type  2   force =     0.00439719   -0.00000000    0.00000000
     atom   30 type  1   force =     0.01140740    0.00481264    0.01140740
     atom   31 type  2   force =     0.00000000   -0.00000000    0.00327231
     atom   32 type  1   force =     0.00000000   -0.00249022    0.00000000
     atom   33 type  2   force =     0.00327231    0.00000000    0.00000000

     Total force =     1.347323     Total SCF correction =     0.000771


     Computing stress (Cartesian axis) and pressure

          total   stress  (Ry/bohr**3)                   (kbar)     P=      262.85
   0.00192273   0.00000000   0.00000000          282.84        0.00        0.00
   0.00000000   0.00151496   0.00000000            0.00      222.86        0.00
   0.00000000   0.00000000   0.00192273            0.00        0.00      282.84


     Writing output data file /scratch/bxp912/feocta1.save/
 
     init_run     :     35.75s CPU     36.73s WALL (       1 calls)
     electrons    :   4956.94s CPU   5172.20s WALL (       1 calls)
     forces       :     21.26s CPU     21.47s WALL (       1 calls)
     stress       :     96.58s CPU     97.34s WALL (       1 calls)

     Called by init_run:
     wfcinit      :     34.94s CPU     35.79s WALL (       1 calls)
     potinit      :      0.39s CPU      0.42s WALL (       1 calls)
     hinit0       :      0.22s CPU      0.28s WALL (       1 calls)

     Called by electrons:
     c_bands      :   4379.89s CPU   4583.60s WALL (      42 calls)
     sum_band     :    565.31s CPU    575.67s WALL (      42 calls)
     v_of_rho     :      1.29s CPU      1.37s WALL (      43 calls)
     newd         :      2.17s CPU      2.61s WALL (      43 calls)
     PAW_pot      :      7.53s CPU      7.98s WALL (      43 calls)
     mix_rho      :      0.77s CPU      0.86s WALL (      42 calls)

     Called by c_bands:
     init_us_2    :     21.46s CPU     21.83s WALL (   13050 calls)
     cegterg      :   4301.44s CPU   4351.85s WALL (    6300 calls)

     Called by *egterg:
     cdiaghg      :    639.55s CPU    643.40s WALL (   26887 calls)
     h_psi        :   2310.87s CPU   2348.37s WALL (   27037 calls)
     s_psi        :    174.47s CPU    175.79s WALL (   27037 calls)
     g_psi        :      4.41s CPU      4.49s WALL (   20587 calls)

     Called by h_psi:
     h_psi:calbec :    362.95s CPU    365.60s WALL (   27037 calls)
     vloc_psi     :   1758.90s CPU   1790.68s WALL (   27037 calls)
     add_vuspsi   :    178.88s CPU    181.89s WALL (   27037 calls)

     General routines
     calbec       :    540.44s CPU    544.37s WALL (   34087 calls)
     fft          :      0.99s CPU      1.04s WALL (    1113 calls)
     ffts         :      0.38s CPU      0.39s WALL (    1027 calls)
     fftw         :   2088.87s CPU   2126.52s WALL (11441724 calls)
     interpolate  :      0.10s CPU      0.11s WALL (      86 calls)
 
     Parallel routines
     fft_scatt_xy :     94.72s CPU     96.39s WALL (11443864 calls)
     fft_scatt_yz :   1814.17s CPU   1847.35s WALL (11443864 calls)
 
     PWSCF        :      1h25m CPU      1h29m WALL

 
   This run was terminated on:   3:25:14  19Jan2022            

=------------------------------------------------------------------------------=
   JOB DONE.
=------------------------------------------------------------------------------=
