
     Program PWSCF v.6.7MaX starts on 12Jan2022 at 15:46:44 

     This program is part of the open-source Quantum ESPRESSO suite
     for quantum simulation of materials; please cite
         "P. Giannozzi et al., J. Phys.:Condens. Matter 21 395502 (2009);
         "P. Giannozzi et al., J. Phys.:Condens. Matter 29 465901 (2017);
          URL http://www.quantum-espresso.org", 
     in publications or presentations arising from this work. More details at
     http://www.quantum-espresso.org/quote

     Parallel version (MPI & OpenMP), running on      72 processor cores
     Number of MPI processes:                72
     Threads/MPI process:                     1

     MPI processes distributed on     1 nodes
     R & G space division:  proc/nbgrp/npool/nimage =      72
     Reading input from fe_octa_1_revised_6.in
Warning: card &CELL ignored
Warning: card CELL_DYNAMICS = 'BFGS', ignored
Warning: card CELL_FACTOR = 2.0, ignored
Warning: card PRESS = 0.0, ignored
Warning: card / ignored

     Current dimensions of program PWSCF are:
     Max number of different atomic species (ntypx) = 10
     Max number of k-points (npk) =  40000
     Max angular momentum in pseudopotentials (lmaxx) =  3
     file Fe.pbe-spn-kjpaw_psl.1.0.0.UPF: wavefunction(s)  3P 3D renormalized
     file Fe.pbe-spn-kjpaw_psl.1.0.0.UPF: wavefunction(s)  3P 3D renormalized
     file Fe.pbe-spn-kjpaw_psl.1.0.0.UPF: wavefunction(s)  3P 3D renormalized

     Subspace diagonalization in iterative solution of the eigenvalue problem:
     one sub-group per band group will be used
     ELPA distributed-memory algorithm (size of sub-group:  8*  8 procs)

     Message from routine setup:
     using ibrav=0 with symmetry is DISCOURAGED, use correct ibrav instead
 
     Parallelization info
     --------------------
     sticks:   dense  smooth     PW     G-vecs:    dense   smooth      PW
     Min          83      55     15                 4773     2563     367
     Max          84      56     16                 4778     2568     371
     Sum        6035    3993   1103               343891   184641   26583
 


     bravais-lattice index     =            0
     lattice parameter (alat)  =      12.9382  a.u.
     unit-cell volume          =    2283.7811 (a.u.)^3
     number of atoms/cell      =           33
     number of atomic types    =            3
     number of electrons       =       528.00
     number of Kohn-Sham states=          320
     kinetic-energy cutoff     =      71.0000  Ry
     charge density cutoff     =     430.0000  Ry
     scf convergence threshold =      1.0E-06
     mixing beta               =       0.0500
     number of iterations used =           10  local-TF  mixing
     Exchange-correlation= SLA  PW   PBX  PBC
                           (   1   4   3   4   0   0   0)

     celldm(1)=  12.938187  celldm(2)=   0.000000  celldm(3)=   0.000000
     celldm(4)=   0.000000  celldm(5)=   0.000000  celldm(6)=   0.000000

     crystal axes: (cart. coord. in units of alat)
               a(1) = (   1.000000   0.000000   0.000000 )  
               a(2) = (   0.000000   1.054470   0.000000 )  
               a(3) = (   0.000000   0.000000   1.000000 )  

     reciprocal axes: (cart. coord. in units 2 pi/alat)
               b(1) = (  1.000000  0.000000  0.000000 )  
               b(2) = (  0.000000  0.948344  0.000000 )  
               b(3) = (  0.000000  0.000000  1.000000 )  


     PseudoPot. # 1 for Fe read from file:
     /rds/homes/b/bxp912/pp/Fe.pbe-spn-kjpaw_psl.1.0.0.UPF
     MD5 check sum: 42f43b795421b414b0dc916aa790dbcb
     Pseudo is Projector augmented-wave + core cor, Zval = 16.0
     Generated using &quot;atomic&quot; code by A. Dal Corso  v.6.3
     Shape of augmentation charge: PSQ
     Using radial grid of 1191 points,  6 beta functions with: 
                l(1) =   0
                l(2) =   0
                l(3) =   1
                l(4) =   1
                l(5) =   2
                l(6) =   2
     Q(r) pseudized with 0 coefficients 


     PseudoPot. # 2 for Fe read from file:
     /rds/homes/b/bxp912/pp/Fe.pbe-spn-kjpaw_psl.1.0.0.UPF
     MD5 check sum: 42f43b795421b414b0dc916aa790dbcb
     Pseudo is Projector augmented-wave + core cor, Zval = 16.0
     Generated using &quot;atomic&quot; code by A. Dal Corso  v.6.3
     Shape of augmentation charge: PSQ
     Using radial grid of 1191 points,  6 beta functions with: 
                l(1) =   0
                l(2) =   0
                l(3) =   1
                l(4) =   1
                l(5) =   2
                l(6) =   2
     Q(r) pseudized with 0 coefficients 


     PseudoPot. # 3 for Fe read from file:
     /rds/homes/b/bxp912/pp/Fe.pbe-spn-kjpaw_psl.1.0.0.UPF
     MD5 check sum: 42f43b795421b414b0dc916aa790dbcb
     Pseudo is Projector augmented-wave + core cor, Zval = 16.0
     Generated using &quot;atomic&quot; code by A. Dal Corso  v.6.3
     Shape of augmentation charge: PSQ
     Using radial grid of 1191 points,  6 beta functions with: 
                l(1) =   0
                l(2) =   0
                l(3) =   1
                l(4) =   1
                l(5) =   2
                l(6) =   2
     Q(r) pseudized with 0 coefficients 


     atomic species   valence    mass     pseudopotential
        Fe1           16.00    55.84500     Fe( 1.00)
        Fe2           16.00    55.84500     Fe( 1.00)
        Fe3           16.00    55.84500     Fe( 1.00)

     Starting magnetic structure 
     atomic species   magnetization
        Fe1          0.100
        Fe2         -0.100
        Fe3         -0.010

     16 Sym. Ops., with inversion, found (14 have fractional translation)



   Cartesian axes

     site n.     atom                  positions (alat units)
         1           Fe3 tau(   1) = (   0.2500000   0.2636175   0.2500000  )
         2           Fe1 tau(   2) = (   0.0000000   0.0000000   0.0000000  )
         3           Fe2 tau(   3) = (   0.2500000   0.2636175   0.0000000  )
         4           Fe1 tau(   4) = (   0.2500000   0.0000000   0.2500000  )
         5           Fe2 tau(   5) = (   0.0000000   0.2636175   0.2500000  )
         6           Fe1 tau(   6) = (   0.0000000   0.0000000   0.5000000  )
         7           Fe2 tau(   7) = (   0.2500000   0.2636175   0.5000000  )
         8           Fe1 tau(   8) = (   0.2500000   0.0000000   0.7500000  )
         9           Fe2 tau(   9) = (   0.0000000   0.2636175   0.7500000  )
        10           Fe1 tau(  10) = (   0.0000000   0.5272350   0.0000000  )
        11           Fe2 tau(  11) = (   0.2500000   0.7908525   0.0000000  )
        12           Fe1 tau(  12) = (   0.2500000   0.5272350   0.2500000  )
        13           Fe2 tau(  13) = (   0.0000000   0.7908525   0.2500000  )
        14           Fe1 tau(  14) = (   0.0000000   0.5272350   0.5000000  )
        15           Fe2 tau(  15) = (   0.2500000   0.7908525   0.5000000  )
        16           Fe1 tau(  16) = (   0.2500000   0.5272350   0.7500000  )
        17           Fe2 tau(  17) = (   0.0000000   0.7908525   0.7500000  )
        18           Fe1 tau(  18) = (   0.5000000   0.0000000   0.0000000  )
        19           Fe2 tau(  19) = (   0.7500000   0.2636175   0.0000000  )
        20           Fe1 tau(  20) = (   0.7500000   0.0000000   0.2500000  )
        21           Fe2 tau(  21) = (   0.5000000   0.2636175   0.2500000  )
        22           Fe1 tau(  22) = (   0.5000000   0.0000000   0.5000000  )
        23           Fe2 tau(  23) = (   0.7500000   0.2636175   0.5000000  )
        24           Fe1 tau(  24) = (   0.7500000   0.0000000   0.7500000  )
        25           Fe2 tau(  25) = (   0.5000000   0.2636175   0.7500000  )
        26           Fe1 tau(  26) = (   0.5000000   0.5272350   0.0000000  )
        27           Fe2 tau(  27) = (   0.7500000   0.7908525   0.0000000  )
        28           Fe1 tau(  28) = (   0.7500000   0.5272350   0.2500000  )
        29           Fe2 tau(  29) = (   0.5000000   0.7908525   0.2500000  )
        30           Fe1 tau(  30) = (   0.5000000   0.5272350   0.5000000  )
        31           Fe2 tau(  31) = (   0.7500000   0.7908525   0.5000000  )
        32           Fe1 tau(  32) = (   0.7500000   0.5272350   0.7500000  )
        33           Fe2 tau(  33) = (   0.5000000   0.7908525   0.7500000  )

     number of k points=    75  Marzari-Vanderbilt smearing, width (Ry)=  0.0400
                       cart. coord. in units 2pi/alat
        k(    1) = (   0.0555556   0.0526858   0.0555556), wk =   0.0109739
        k(    2) = (   0.0555556   0.0526858   0.1666667), wk =   0.0219479
        k(    3) = (   0.0555556   0.0526858   0.2777778), wk =   0.0219479
        k(    4) = (   0.0555556   0.0526858   0.3888889), wk =   0.0219479
        k(    5) = (   0.0555556   0.0526858  -0.5000000), wk =   0.0109739
        k(    6) = (   0.0555556   0.1580573   0.0555556), wk =   0.0109739
        k(    7) = (   0.0555556   0.1580573   0.1666667), wk =   0.0219479
        k(    8) = (   0.0555556   0.1580573   0.2777778), wk =   0.0219479
        k(    9) = (   0.0555556   0.1580573   0.3888889), wk =   0.0219479
        k(   10) = (   0.0555556   0.1580573  -0.5000000), wk =   0.0109739
        k(   11) = (   0.0555556   0.2634288   0.0555556), wk =   0.0109739
        k(   12) = (   0.0555556   0.2634288   0.1666667), wk =   0.0219479
        k(   13) = (   0.0555556   0.2634288   0.2777778), wk =   0.0219479
        k(   14) = (   0.0555556   0.2634288   0.3888889), wk =   0.0219479
        k(   15) = (   0.0555556   0.2634288  -0.5000000), wk =   0.0109739
        k(   16) = (   0.0555556   0.3688003   0.0555556), wk =   0.0109739
        k(   17) = (   0.0555556   0.3688003   0.1666667), wk =   0.0219479
        k(   18) = (   0.0555556   0.3688003   0.2777778), wk =   0.0219479
        k(   19) = (   0.0555556   0.3688003   0.3888889), wk =   0.0219479
        k(   20) = (   0.0555556   0.3688003  -0.5000000), wk =   0.0109739
        k(   21) = (   0.0555556  -0.4741719   0.0555556), wk =   0.0054870
        k(   22) = (   0.0555556  -0.4741719   0.1666667), wk =   0.0109739
        k(   23) = (   0.0555556  -0.4741719   0.2777778), wk =   0.0109739
        k(   24) = (   0.0555556  -0.4741719   0.3888889), wk =   0.0109739
        k(   25) = (   0.0555556  -0.4741719  -0.5000000), wk =   0.0054870
        k(   26) = (   0.1666667   0.0526858   0.1666667), wk =   0.0109739
        k(   27) = (   0.1666667   0.0526858   0.2777778), wk =   0.0219479
        k(   28) = (   0.1666667   0.0526858   0.3888889), wk =   0.0219479
        k(   29) = (   0.1666667   0.0526858  -0.5000000), wk =   0.0109739
        k(   30) = (   0.1666667   0.1580573   0.1666667), wk =   0.0109739
        k(   31) = (   0.1666667   0.1580573   0.2777778), wk =   0.0219479
        k(   32) = (   0.1666667   0.1580573   0.3888889), wk =   0.0219479
        k(   33) = (   0.1666667   0.1580573  -0.5000000), wk =   0.0109739
        k(   34) = (   0.1666667   0.2634288   0.1666667), wk =   0.0109739
        k(   35) = (   0.1666667   0.2634288   0.2777778), wk =   0.0219479
        k(   36) = (   0.1666667   0.2634288   0.3888889), wk =   0.0219479
        k(   37) = (   0.1666667   0.2634288  -0.5000000), wk =   0.0109739
        k(   38) = (   0.1666667   0.3688003   0.1666667), wk =   0.0109739
        k(   39) = (   0.1666667   0.3688003   0.2777778), wk =   0.0219479
        k(   40) = (   0.1666667   0.3688003   0.3888889), wk =   0.0219479
        k(   41) = (   0.1666667   0.3688003  -0.5000000), wk =   0.0109739
        k(   42) = (   0.1666667  -0.4741719   0.1666667), wk =   0.0054870
        k(   43) = (   0.1666667  -0.4741719   0.2777778), wk =   0.0109739
        k(   44) = (   0.1666667  -0.4741719   0.3888889), wk =   0.0109739
        k(   45) = (   0.1666667  -0.4741719  -0.5000000), wk =   0.0054870
        k(   46) = (   0.2777778   0.0526858   0.2777778), wk =   0.0109739
        k(   47) = (   0.2777778   0.0526858   0.3888889), wk =   0.0219479
        k(   48) = (   0.2777778   0.0526858  -0.5000000), wk =   0.0109739
        k(   49) = (   0.2777778   0.1580573   0.2777778), wk =   0.0109739
        k(   50) = (   0.2777778   0.1580573   0.3888889), wk =   0.0219479
        k(   51) = (   0.2777778   0.1580573  -0.5000000), wk =   0.0109739
        k(   52) = (   0.2777778   0.2634288   0.2777778), wk =   0.0109739
        k(   53) = (   0.2777778   0.2634288   0.3888889), wk =   0.0219479
        k(   54) = (   0.2777778   0.2634288  -0.5000000), wk =   0.0109739
        k(   55) = (   0.2777778   0.3688003   0.2777778), wk =   0.0109739
        k(   56) = (   0.2777778   0.3688003   0.3888889), wk =   0.0219479
        k(   57) = (   0.2777778   0.3688003  -0.5000000), wk =   0.0109739
        k(   58) = (   0.2777778  -0.4741719   0.2777778), wk =   0.0054870
        k(   59) = (   0.2777778  -0.4741719   0.3888889), wk =   0.0109739
        k(   60) = (   0.2777778  -0.4741719  -0.5000000), wk =   0.0054870
        k(   61) = (   0.3888889   0.0526858   0.3888889), wk =   0.0109739
        k(   62) = (   0.3888889   0.0526858  -0.5000000), wk =   0.0109739
        k(   63) = (   0.3888889   0.1580573   0.3888889), wk =   0.0109739
        k(   64) = (   0.3888889   0.1580573  -0.5000000), wk =   0.0109739
        k(   65) = (   0.3888889   0.2634288   0.3888889), wk =   0.0109739
        k(   66) = (   0.3888889   0.2634288  -0.5000000), wk =   0.0109739
        k(   67) = (   0.3888889   0.3688003   0.3888889), wk =   0.0109739
        k(   68) = (   0.3888889   0.3688003  -0.5000000), wk =   0.0109739
        k(   69) = (   0.3888889  -0.4741719   0.3888889), wk =   0.0054870
        k(   70) = (   0.3888889  -0.4741719  -0.5000000), wk =   0.0054870
        k(   71) = (  -0.5000000   0.0526858  -0.5000000), wk =   0.0027435
        k(   72) = (  -0.5000000   0.1580573  -0.5000000), wk =   0.0027435
        k(   73) = (  -0.5000000   0.2634288  -0.5000000), wk =   0.0027435
        k(   74) = (  -0.5000000   0.3688003  -0.5000000), wk =   0.0027435
        k(   75) = (  -0.5000000  -0.4741719  -0.5000000), wk =   0.0013717

     Dense  grid:   343891 G-vectors     FFT dimensions: (  90,  96,  90)

     Smooth grid:   184641 G-vectors     FFT dimensions: (  72,  80,  72)

     Estimated max dynamical RAM per process >     267.09 MB

     Estimated total dynamical RAM >      18.78 GB

     Check: negative core charge=   -0.000006
     Generating pointlists ...
     new r_m :   0.1087 (alat units)  1.4069 (a.u.) for type    1
     new r_m :   0.1031 (alat units)  1.3343 (a.u.) for type    2
     new r_m :   0.1031 (alat units)  1.3343 (a.u.) for type    3

     Initial potential from superposition of free atoms

     starting charge  527.98556, renormalised to  528.00000
     Starting wfcs are  330 randomized atomic wfcs
     Checking if some PAW data can be deallocated... 

     total cpu time spent up to now is       40.2 secs

     Self-consistent Calculation

     iteration #  1     ecut=    71.00 Ry     beta= 0.05
     Davidson diagonalization with overlap
     ethr =  1.00E-02,  avg # of iterations =  4.2

     total cpu time spent up to now is      174.3 secs

     total energy              =  -10864.75407529 Ry
     estimated scf accuracy    <      25.74762426 Ry

     total magnetization       =     1.63 Bohr mag/cell
     absolute magnetization    =    42.51 Bohr mag/cell

     iteration #  2     ecut=    71.00 Ry     beta= 0.05
     Davidson diagonalization with overlap
     ethr =  4.88E-03,  avg # of iterations =  1.0

     total cpu time spent up to now is      266.1 secs

     total energy              =  -10864.01735241 Ry
     estimated scf accuracy    <      14.39645776 Ry

     total magnetization       =     1.28 Bohr mag/cell
     absolute magnetization    =    43.40 Bohr mag/cell

     iteration #  3     ecut=    71.00 Ry     beta= 0.05
     Davidson diagonalization with overlap
     ethr =  2.73E-03,  avg # of iterations =  1.1

     total cpu time spent up to now is      357.9 secs

     total energy              =  -10864.32186518 Ry
     estimated scf accuracy    <       1.23644961 Ry

     total magnetization       =     1.62 Bohr mag/cell
     absolute magnetization    =    42.91 Bohr mag/cell

     iteration #  4     ecut=    71.00 Ry     beta= 0.05
     Davidson diagonalization with overlap
     ethr =  2.34E-04,  avg # of iterations =  3.4

     total cpu time spent up to now is      464.1 secs

     total energy              =  -10864.24543894 Ry
     estimated scf accuracy    <       1.05862395 Ry

     total magnetization       =     1.82 Bohr mag/cell
     absolute magnetization    =    43.18 Bohr mag/cell

     iteration #  5     ecut=    71.00 Ry     beta= 0.05
     Davidson diagonalization with overlap
     ethr =  2.00E-04,  avg # of iterations =  1.2

     total cpu time spent up to now is      557.0 secs

     total energy              =  -10864.10356852 Ry
     estimated scf accuracy    <       0.59198489 Ry

     total magnetization       =     2.07 Bohr mag/cell
     absolute magnetization    =    43.21 Bohr mag/cell

     iteration #  6     ecut=    71.00 Ry     beta= 0.05
     Davidson diagonalization with overlap
     ethr =  1.12E-04,  avg # of iterations =  2.5

     total cpu time spent up to now is      671.0 secs

     total energy              =  -10864.15812963 Ry
     estimated scf accuracy    <       0.33956608 Ry

     total magnetization       =     2.35 Bohr mag/cell
     absolute magnetization    =    43.22 Bohr mag/cell

     iteration #  7     ecut=    71.00 Ry     beta= 0.05
     Davidson diagonalization with overlap
     ethr =  6.43E-05,  avg # of iterations =  2.5

     total cpu time spent up to now is      790.2 secs

     total energy              =  -10864.20182839 Ry
     estimated scf accuracy    <       0.18290838 Ry

     total magnetization       =     2.76 Bohr mag/cell
     absolute magnetization    =    43.43 Bohr mag/cell

     iteration #  8     ecut=    71.00 Ry     beta= 0.05
     Davidson diagonalization with overlap
     ethr =  3.46E-05,  avg # of iterations =  3.3

     total cpu time spent up to now is      897.3 secs

     total energy              =  -10864.20729254 Ry
     estimated scf accuracy    <       0.10780741 Ry

     total magnetization       =     2.96 Bohr mag/cell
     absolute magnetization    =    43.49 Bohr mag/cell

     iteration #  9     ecut=    71.00 Ry     beta= 0.05
     Davidson diagonalization with overlap
     c_bands:  1 eigenvalues not converged
     c_bands:  2 eigenvalues not converged
     c_bands:  1 eigenvalues not converged
     ethr =  2.04E-05,  avg # of iterations =  3.0

     total cpu time spent up to now is      997.5 secs

     total energy              =  -10864.20678327 Ry
     estimated scf accuracy    <       0.08125884 Ry

     total magnetization       =     3.07 Bohr mag/cell
     absolute magnetization    =    43.45 Bohr mag/cell

     iteration # 10     ecut=    71.00 Ry     beta= 0.05
     Davidson diagonalization with overlap
     c_bands:  2 eigenvalues not converged
     ethr =  1.54E-05,  avg # of iterations =  2.4

     total cpu time spent up to now is     1097.8 secs

     total energy              =  -10864.21317356 Ry
     estimated scf accuracy    <       0.03838295 Ry

     total magnetization       =     3.33 Bohr mag/cell
     absolute magnetization    =    43.37 Bohr mag/cell

     iteration # 11     ecut=    71.00 Ry     beta= 0.05
     Davidson diagonalization with overlap
     c_bands:  1 eigenvalues not converged
     c_bands:  1 eigenvalues not converged
     c_bands:  1 eigenvalues not converged
     c_bands:  1 eigenvalues not converged
     ethr =  7.27E-06,  avg # of iterations =  5.1

     total cpu time spent up to now is     1228.3 secs

     total energy              =  -10864.21722493 Ry
     estimated scf accuracy    <       0.01345944 Ry

     total magnetization       =     3.65 Bohr mag/cell
     absolute magnetization    =    43.34 Bohr mag/cell

     iteration # 12     ecut=    71.00 Ry     beta= 0.05
     Davidson diagonalization with overlap
     c_bands:  1 eigenvalues not converged
     c_bands:  1 eigenvalues not converged
     c_bands:  1 eigenvalues not converged
     c_bands:  1 eigenvalues not converged
     c_bands:  1 eigenvalues not converged
     ethr =  2.55E-06,  avg # of iterations =  4.9

     total cpu time spent up to now is     1337.2 secs

     total energy              =  -10864.21843557 Ry
     estimated scf accuracy    <       0.01586871 Ry

     total magnetization       =     3.64 Bohr mag/cell
     absolute magnetization    =    43.36 Bohr mag/cell

     iteration # 13     ecut=    71.00 Ry     beta= 0.05
     Davidson diagonalization with overlap
     ethr =  2.55E-06,  avg # of iterations =  1.3

     total cpu time spent up to now is     1431.0 secs

     total energy              =  -10864.21965561 Ry
     estimated scf accuracy    <       0.01120348 Ry

     total magnetization       =     3.90 Bohr mag/cell
     absolute magnetization    =    43.38 Bohr mag/cell

     iteration # 14     ecut=    71.00 Ry     beta= 0.05
     Davidson diagonalization with overlap
     ethr =  2.12E-06,  avg # of iterations =  2.2

     total cpu time spent up to now is     1534.7 secs

     total energy              =  -10864.22178440 Ry
     estimated scf accuracy    <       0.00366791 Ry

     total magnetization       =     4.15 Bohr mag/cell
     absolute magnetization    =    43.38 Bohr mag/cell

     iteration # 15     ecut=    71.00 Ry     beta= 0.05
     Davidson diagonalization with overlap
     ethr =  6.95E-07,  avg # of iterations =  2.1

     total cpu time spent up to now is     1644.7 secs

     total energy              =  -10864.22224566 Ry
     estimated scf accuracy    <       0.00304082 Ry

     total magnetization       =     4.35 Bohr mag/cell
     absolute magnetization    =    43.39 Bohr mag/cell

     iteration # 16     ecut=    71.00 Ry     beta= 0.05
     Davidson diagonalization with overlap
     ethr =  5.76E-07,  avg # of iterations =  1.0

     total cpu time spent up to now is     1736.9 secs

     total energy              =  -10864.22331933 Ry
     estimated scf accuracy    <       0.00298627 Ry

     total magnetization       =     4.33 Bohr mag/cell
     absolute magnetization    =    43.37 Bohr mag/cell

     iteration # 17     ecut=    71.00 Ry     beta= 0.05
     Davidson diagonalization with overlap
     ethr =  5.66E-07,  avg # of iterations =  3.4

     total cpu time spent up to now is     1864.5 secs

     total energy              =  -10864.22675735 Ry
     estimated scf accuracy    <       0.00184872 Ry

     total magnetization       =     4.91 Bohr mag/cell
     absolute magnetization    =    43.45 Bohr mag/cell

     iteration # 18     ecut=    71.00 Ry     beta= 0.05
     Davidson diagonalization with overlap
     c_bands:  1 eigenvalues not converged
     ethr =  3.50E-07,  avg # of iterations =  4.6

     total cpu time spent up to now is     2001.5 secs

     total energy              =  -10864.22913522 Ry
     estimated scf accuracy    <       0.00132831 Ry

     total magnetization       =     5.36 Bohr mag/cell
     absolute magnetization    =    43.68 Bohr mag/cell

     iteration # 19     ecut=    71.00 Ry     beta= 0.05
     Davidson diagonalization with overlap
     ethr =  2.52E-07,  avg # of iterations =  2.4

     total cpu time spent up to now is     2116.4 secs

     total energy              =  -10864.23001205 Ry
     estimated scf accuracy    <       0.00088566 Ry

     total magnetization       =     5.60 Bohr mag/cell
     absolute magnetization    =    43.87 Bohr mag/cell

     iteration # 20     ecut=    71.00 Ry     beta= 0.05
     Davidson diagonalization with overlap
     ethr =  1.68E-07,  avg # of iterations =  2.5

     total cpu time spent up to now is     2237.7 secs

     total energy              =  -10864.23050258 Ry
     estimated scf accuracy    <       0.00078287 Ry

     total magnetization       =     5.74 Bohr mag/cell
     absolute magnetization    =    44.01 Bohr mag/cell

     iteration # 21     ecut=    71.00 Ry     beta= 0.05
     Davidson diagonalization with overlap
     ethr =  1.48E-07,  avg # of iterations =  2.1

     total cpu time spent up to now is     2341.9 secs

     total energy              =  -10864.23099620 Ry
     estimated scf accuracy    <       0.00061593 Ry

     total magnetization       =     5.84 Bohr mag/cell
     absolute magnetization    =    44.11 Bohr mag/cell

     iteration # 22     ecut=    71.00 Ry     beta= 0.05
     Davidson diagonalization with overlap
     ethr =  1.17E-07,  avg # of iterations =  3.7

     total cpu time spent up to now is     2473.3 secs

     total energy              =  -10864.23007803 Ry
     estimated scf accuracy    <       0.00056692 Ry

     total magnetization       =     5.93 Bohr mag/cell
     absolute magnetization    =    44.15 Bohr mag/cell

     iteration # 23     ecut=    71.00 Ry     beta= 0.05
     Davidson diagonalization with overlap
     ethr =  1.07E-07,  avg # of iterations =  5.1

     total cpu time spent up to now is     2629.8 secs

     total energy              =  -10864.23157267 Ry
     estimated scf accuracy    <       0.00021782 Ry

     total magnetization       =     6.27 Bohr mag/cell
     absolute magnetization    =    44.60 Bohr mag/cell

     iteration # 24     ecut=    71.00 Ry     beta= 0.05
     Davidson diagonalization with overlap
     ethr =  4.13E-08,  avg # of iterations =  3.0

     total cpu time spent up to now is     2752.0 secs

     total energy              =  -10864.23182444 Ry
     estimated scf accuracy    <       0.00013175 Ry

     total magnetization       =     6.13 Bohr mag/cell
     absolute magnetization    =    44.41 Bohr mag/cell

     iteration # 25     ecut=    71.00 Ry     beta= 0.05
     Davidson diagonalization with overlap
     ethr =  2.50E-08,  avg # of iterations =  2.0

     total cpu time spent up to now is     2855.2 secs

     total energy              =  -10864.23187491 Ry
     estimated scf accuracy    <       0.00010428 Ry

     total magnetization       =     6.18 Bohr mag/cell
     absolute magnetization    =    44.47 Bohr mag/cell

     iteration # 26     ecut=    71.00 Ry     beta= 0.05
     Davidson diagonalization with overlap
     ethr =  1.98E-08,  avg # of iterations =  1.8

     total cpu time spent up to now is     2958.2 secs

     total energy              =  -10864.23191211 Ry
     estimated scf accuracy    <       0.00008827 Ry

     total magnetization       =     6.21 Bohr mag/cell
     absolute magnetization    =    44.50 Bohr mag/cell

     iteration # 27     ecut=    71.00 Ry     beta= 0.05
     Davidson diagonalization with overlap
     ethr =  1.67E-08,  avg # of iterations =  1.7

     total cpu time spent up to now is     3056.6 secs

     total energy              =  -10864.23194064 Ry
     estimated scf accuracy    <       0.00005896 Ry

     total magnetization       =     6.17 Bohr mag/cell
     absolute magnetization    =    44.44 Bohr mag/cell

     iteration # 28     ecut=    71.00 Ry     beta= 0.05
     Davidson diagonalization with overlap
     ethr =  1.12E-08,  avg # of iterations =  1.1

     total cpu time spent up to now is     3149.4 secs

     total energy              =  -10864.23194643 Ry
     estimated scf accuracy    <       0.00005187 Ry

     total magnetization       =     6.15 Bohr mag/cell
     absolute magnetization    =    44.41 Bohr mag/cell

     iteration # 29     ecut=    71.00 Ry     beta= 0.05
     Davidson diagonalization with overlap
     ethr =  9.82E-09,  avg # of iterations =  3.4

     total cpu time spent up to now is     3276.5 secs

     total energy              =  -10864.23199545 Ry
     estimated scf accuracy    <       0.00003202 Ry

     total magnetization       =     6.16 Bohr mag/cell
     absolute magnetization    =    44.43 Bohr mag/cell

     iteration # 30     ecut=    71.00 Ry     beta= 0.05
     Davidson diagonalization with overlap
     ethr =  6.06E-09,  avg # of iterations =  2.2

     total cpu time spent up to now is     3390.3 secs

     total energy              =  -10864.23198558 Ry
     estimated scf accuracy    <       0.00003132 Ry

     total magnetization       =     6.11 Bohr mag/cell
     absolute magnetization    =    44.38 Bohr mag/cell

     iteration # 31     ecut=    71.00 Ry     beta= 0.05
     Davidson diagonalization with overlap
     ethr =  5.93E-09,  avg # of iterations =  3.2

     total cpu time spent up to now is     3515.8 secs

     total energy              =  -10864.23202993 Ry
     estimated scf accuracy    <       0.00001865 Ry

     total magnetization       =     6.15 Bohr mag/cell
     absolute magnetization    =    44.44 Bohr mag/cell

     iteration # 32     ecut=    71.00 Ry     beta= 0.05
     Davidson diagonalization with overlap
     ethr =  3.53E-09,  avg # of iterations =  1.9

     total cpu time spent up to now is     3618.6 secs

     total energy              =  -10864.23203755 Ry
     estimated scf accuracy    <       0.00001543 Ry

     total magnetization       =     6.12 Bohr mag/cell
     absolute magnetization    =    44.41 Bohr mag/cell

     iteration # 33     ecut=    71.00 Ry     beta= 0.05
     Davidson diagonalization with overlap
     ethr =  2.92E-09,  avg # of iterations =  1.6

     total cpu time spent up to now is     3716.2 secs

     total energy              =  -10864.23204038 Ry
     estimated scf accuracy    <       0.00001329 Ry

     total magnetization       =     6.12 Bohr mag/cell
     absolute magnetization    =    44.41 Bohr mag/cell

     iteration # 34     ecut=    71.00 Ry     beta= 0.05
     Davidson diagonalization with overlap
     ethr =  2.52E-09,  avg # of iterations =  3.3

     total cpu time spent up to now is     3841.8 secs

     total energy              =  -10864.23205604 Ry
     estimated scf accuracy    <       0.00000777 Ry

     total magnetization       =     6.10 Bohr mag/cell
     absolute magnetization    =    44.41 Bohr mag/cell

     iteration # 35     ecut=    71.00 Ry     beta= 0.05
     Davidson diagonalization with overlap
     ethr =  1.47E-09,  avg # of iterations =  3.5

     total cpu time spent up to now is     3969.8 secs

     total energy              =  -10864.23206425 Ry
     estimated scf accuracy    <       0.00000649 Ry

     total magnetization       =     6.09 Bohr mag/cell
     absolute magnetization    =    44.40 Bohr mag/cell

     iteration # 36     ecut=    71.00 Ry     beta= 0.05
     Davidson diagonalization with overlap
     ethr =  1.23E-09,  avg # of iterations =  1.0

     total cpu time spent up to now is     4061.0 secs

     total energy              =  -10864.23206637 Ry
     estimated scf accuracy    <       0.00000619 Ry

     total magnetization       =     6.08 Bohr mag/cell
     absolute magnetization    =    44.40 Bohr mag/cell

     iteration # 37     ecut=    71.00 Ry     beta= 0.05
     Davidson diagonalization with overlap
     ethr =  1.17E-09,  avg # of iterations =  2.0

     total cpu time spent up to now is     4168.8 secs

     total energy              =  -10864.23207001 Ry
     estimated scf accuracy    <       0.00000542 Ry

     total magnetization       =     6.06 Bohr mag/cell
     absolute magnetization    =    44.38 Bohr mag/cell

     iteration # 38     ecut=    71.00 Ry     beta= 0.05
     Davidson diagonalization with overlap
     ethr =  1.03E-09,  avg # of iterations =  1.4

     total cpu time spent up to now is     4264.6 secs

     total energy              =  -10864.23207238 Ry
     estimated scf accuracy    <       0.00000491 Ry

     total magnetization       =     6.06 Bohr mag/cell
     absolute magnetization    =    44.37 Bohr mag/cell

     iteration # 39     ecut=    71.00 Ry     beta= 0.05
     Davidson diagonalization with overlap
     ethr =  9.30E-10,  avg # of iterations =  2.2

     total cpu time spent up to now is     4370.6 secs

     total energy              =  -10864.23207571 Ry
     estimated scf accuracy    <       0.00000444 Ry

     total magnetization       =     6.05 Bohr mag/cell
     absolute magnetization    =    44.37 Bohr mag/cell

     iteration # 40     ecut=    71.00 Ry     beta= 0.05
     Davidson diagonalization with overlap
     ethr =  8.42E-10,  avg # of iterations =  2.0

     total cpu time spent up to now is     4472.3 secs

     total energy              =  -10864.23207744 Ry
     estimated scf accuracy    <       0.00000392 Ry

     total magnetization       =     6.04 Bohr mag/cell
     absolute magnetization    =    44.37 Bohr mag/cell

     iteration # 41     ecut=    71.00 Ry     beta= 0.05
     Davidson diagonalization with overlap
     ethr =  7.42E-10,  avg # of iterations =  3.6

     total cpu time spent up to now is     4599.7 secs

     total energy              =  -10864.23208222 Ry
     estimated scf accuracy    <       0.00000189 Ry

     total magnetization       =     6.01 Bohr mag/cell
     absolute magnetization    =    44.36 Bohr mag/cell

     iteration # 42     ecut=    71.00 Ry     beta= 0.05
     Davidson diagonalization with overlap
     ethr =  3.58E-10,  avg # of iterations =  3.4

     total cpu time spent up to now is     4735.3 secs

     total energy              =  -10864.23208420 Ry
     estimated scf accuracy    <       0.00000155 Ry

     total magnetization       =     6.00 Bohr mag/cell
     absolute magnetization    =    44.36 Bohr mag/cell

     iteration # 43     ecut=    71.00 Ry     beta= 0.05
     Davidson diagonalization with overlap
     ethr =  2.93E-10,  avg # of iterations =  2.0

     total cpu time spent up to now is     4844.2 secs

     total energy              =  -10864.23208482 Ry
     estimated scf accuracy    <       0.00000134 Ry

     total magnetization       =     5.99 Bohr mag/cell
     absolute magnetization    =    44.35 Bohr mag/cell

     iteration # 44     ecut=    71.00 Ry     beta= 0.05
     Davidson diagonalization with overlap
     ethr =  2.54E-10,  avg # of iterations =  1.8

     total cpu time spent up to now is     4944.5 secs

     total energy              =  -10864.23208556 Ry
     estimated scf accuracy    <       0.00000115 Ry

     total magnetization       =     5.99 Bohr mag/cell
     absolute magnetization    =    44.36 Bohr mag/cell

     iteration # 45     ecut=    71.00 Ry     beta= 0.05
     Davidson diagonalization with overlap
     ethr =  2.18E-10,  avg # of iterations =  2.0

     total cpu time spent up to now is     5048.4 secs

     total energy              =  -10864.23208609 Ry
     estimated scf accuracy    <       0.00000105 Ry

     total magnetization       =     5.99 Bohr mag/cell
     absolute magnetization    =    44.36 Bohr mag/cell

     iteration # 46     ecut=    71.00 Ry     beta= 0.05
     Davidson diagonalization with overlap
     ethr =  1.99E-10,  avg # of iterations =  3.2
 
     Magnetic moment per site:
     atom:    1    charge:   12.8149    magn:    0.0483    constr:    0.0000
     atom:    2    charge:   12.6772    magn:    1.4991    constr:    0.0000
     atom:    3    charge:   12.4810    magn:    0.1883    constr:    0.0000
     atom:    4    charge:   12.8020    magn:    0.7859    constr:    0.0000
     atom:    5    charge:   12.4810    magn:    0.1883    constr:    0.0000
     atom:    6    charge:   12.6772    magn:    1.4991    constr:    0.0000
     atom:    7    charge:   12.4810    magn:    0.1883    constr:    0.0000
     atom:    8    charge:   12.6797    magn:    1.2313    constr:    0.0000
     atom:    9    charge:   12.3385    magn:   -1.3212    constr:    0.0000
     atom:   10    charge:   12.6772    magn:    1.4991    constr:    0.0000
     atom:   11    charge:   12.3400    magn:   -1.2476    constr:    0.0000
     atom:   12    charge:   12.8020    magn:    0.7859    constr:    0.0000
     atom:   13    charge:   12.3400    magn:   -1.2476    constr:    0.0000
     atom:   14    charge:   12.6772    magn:    1.4991    constr:    0.0000
     atom:   15    charge:   12.3400    magn:   -1.2476    constr:    0.0000
     atom:   16    charge:   12.6797    magn:    1.2313    constr:    0.0000
     atom:   17    charge:   12.3370    magn:   -1.3066    constr:    0.0000
     atom:   18    charge:   12.6772    magn:    1.4991    constr:    0.0000
     atom:   19    charge:   12.3385    magn:   -1.3212    constr:    0.0000
     atom:   20    charge:   12.6797    magn:    1.2313    constr:    0.0000
     atom:   21    charge:   12.4810    magn:    0.1883    constr:    0.0000
     atom:   22    charge:   12.6772    magn:    1.4991    constr:    0.0000
     atom:   23    charge:   12.3385    magn:   -1.3212    constr:    0.0000
     atom:   24    charge:   12.6769    magn:    1.1337    constr:    0.0000
     atom:   25    charge:   12.3385    magn:   -1.3212    constr:    0.0000
     atom:   26    charge:   12.6772    magn:    1.4991    constr:    0.0000
     atom:   27    charge:   12.3370    magn:   -1.3066    constr:    0.0000
     atom:   28    charge:   12.6797    magn:    1.2313    constr:    0.0000
     atom:   29    charge:   12.3400    magn:   -1.2476    constr:    0.0000
     atom:   30    charge:   12.6772    magn:    1.4991    constr:    0.0000
     atom:   31    charge:   12.3370    magn:   -1.3066    constr:    0.0000
     atom:   32    charge:   12.6769    magn:    1.1337    constr:    0.0000
     atom:   33    charge:   12.3370    magn:   -1.3066    constr:    0.0000

     total cpu time spent up to now is     5174.8 secs

     End of self-consistent calculation

     Number of k-points >= 100: set verbosity='high' to print the bands.

     the Fermi energy is    20.8997 ev

!    total energy              =  -10864.23208933 Ry

     total all-electron energy =    -84002.017680 Ry
     estimated scf accuracy    <       0.00000072 Ry
     smearing contrib. (-TS)   =       0.00385219 Ry
     internal energy E=F+TS    =  -10864.23594152 Ry

     The total energy is F=E-TS. E is the sum of the following terms:
     one-electron contribution =   -3492.93725125 Ry
     hartree contribution      =    2121.07809487 Ry
     xc contribution           =    -916.86382199 Ry
     ewald contribution        =   -5843.30604005 Ry
     one-center paw contrib.   =   -2732.20692310 Ry

     total magnetization       =     5.98 Bohr mag/cell
     absolute magnetization    =    44.36 Bohr mag/cell

     convergence has been achieved in  46 iterations

     Forces acting on atoms (cartesian axes, Ry/au):

     atom    1 type  3   force =     0.00000000    0.00000000    0.00000000
     atom    2 type  1   force =    -0.01144266   -0.00483917   -0.01144266
     atom    3 type  2   force =     0.00000000    0.00000000   -0.58649006
     atom    4 type  1   force =     0.00000000   -0.46694136    0.00000000
     atom    5 type  2   force =    -0.58649006   -0.00000000    0.00000000
     atom    6 type  1   force =    -0.01144266   -0.00483917    0.01144266
     atom    7 type  2   force =     0.00000000    0.00000000    0.58649006
     atom    8 type  1   force =     0.00000000   -0.00924173    0.00000000
     atom    9 type  2   force =    -0.01639488    0.00000000    0.00000000
     atom   10 type  1   force =    -0.01144266    0.00483917   -0.01144266
     atom   11 type  2   force =     0.00000000    0.00000000   -0.00437934
     atom   12 type  1   force =     0.00000000    0.46694136    0.00000000
     atom   13 type  2   force =    -0.00437934    0.00000000    0.00000000
     atom   14 type  1   force =    -0.01144266    0.00483917    0.01144266
     atom   15 type  2   force =     0.00000000    0.00000000    0.00437934
     atom   16 type  1   force =     0.00000000    0.00924173    0.00000000
     atom   17 type  2   force =    -0.00327830    0.00000000    0.00000000
     atom   18 type  1   force =     0.01144266   -0.00483917   -0.01144266
     atom   19 type  2   force =     0.00000000    0.00000000   -0.01639488
     atom   20 type  1   force =     0.00000000   -0.00924173    0.00000000
     atom   21 type  2   force =     0.58649006    0.00000000    0.00000000
     atom   22 type  1   force =     0.01144266   -0.00483917    0.01144266
     atom   23 type  2   force =     0.00000000    0.00000000    0.01639488
     atom   24 type  1   force =     0.00000000    0.00252288    0.00000000
     atom   25 type  2   force =     0.01639488    0.00000000    0.00000000
     atom   26 type  1   force =     0.01144266    0.00483917   -0.01144266
     atom   27 type  2   force =     0.00000000    0.00000000   -0.00327830
     atom   28 type  1   force =     0.00000000    0.00924173    0.00000000
     atom   29 type  2   force =     0.00437934    0.00000000    0.00000000
     atom   30 type  1   force =     0.01144266    0.00483917    0.01144266
     atom   31 type  2   force =     0.00000000    0.00000000    0.00327830
     atom   32 type  1   force =     0.00000000   -0.00252288    0.00000000
     atom   33 type  2   force =     0.00327830    0.00000000    0.00000000

     Total force =     1.347510     Total SCF correction =     0.002746


     Computing stress (Cartesian axis) and pressure

          total   stress  (Ry/bohr**3)                   (kbar)     P=      262.13
   0.00191717   0.00000000   0.00000000          282.03        0.00        0.00
   0.00000000   0.00151152   0.00000000            0.00      222.35        0.00
   0.00000000   0.00000000   0.00191717            0.00        0.00      282.03


     Writing output data file /scratch/bxp912/feocta1f.save/
 
     init_run     :     35.70s CPU     36.65s WALL (       1 calls)
     electrons    :   5073.03s CPU   5134.63s WALL (       1 calls)
     forces       :     20.81s CPU     20.96s WALL (       1 calls)
     stress       :     96.80s CPU     97.55s WALL (       1 calls)

     Called by init_run:
     wfcinit      :     34.81s CPU     35.61s WALL (       1 calls)
     potinit      :      0.36s CPU      0.39s WALL (       1 calls)
     hinit0       :      0.25s CPU      0.31s WALL (       1 calls)

     Called by electrons:
     c_bands      :   4430.39s CPU   4480.42s WALL (      46 calls)
     sum_band     :    630.01s CPU    640.57s WALL (      46 calls)
     v_of_rho     :      1.11s CPU      1.18s WALL (      47 calls)
     newd         :      2.29s CPU      2.81s WALL (      47 calls)
     PAW_pot      :      8.41s CPU      8.79s WALL (      47 calls)
     mix_rho      :      0.88s CPU      0.94s WALL (      46 calls)

     Called by c_bands:
     init_us_2    :     21.37s CPU     21.73s WALL (   14250 calls)
     cegterg      :   4342.90s CPU   4391.15s WALL (    6900 calls)

     Called by *egterg:
     cdiaghg      :    578.58s CPU    581.94s WALL (   24673 calls)
     h_psi        :   2407.85s CPU   2444.62s WALL (   24823 calls)
     s_psi        :    182.51s CPU    183.75s WALL (   24823 calls)
     g_psi        :      4.24s CPU      4.30s WALL (   17773 calls)

     Called by h_psi:
     h_psi:calbec :    371.60s CPU    373.98s WALL (   24823 calls)
     vloc_psi     :   1845.54s CPU   1877.57s WALL (   24823 calls)
     add_vuspsi   :    179.64s CPU    181.92s WALL (   24823 calls)

     General routines
     calbec       :    594.30s CPU    598.29s WALL (   32473 calls)
     fft          :      0.88s CPU      0.91s WALL (    1213 calls)
     ffts         :      0.45s CPU      0.46s WALL (    1125 calls)
     fftw         :   2219.86s CPU   2258.53s WALL (12074602 calls)
     interpolate  :      0.10s CPU      0.11s WALL (      94 calls)
 
     Parallel routines
     fft_scatt_xy :    100.08s CPU    101.97s WALL (12076940 calls)
     fft_scatt_yz :   1929.89s CPU   1963.74s WALL (12076940 calls)
 
     PWSCF        :      1h27m CPU      1h28m WALL

 
   This run was terminated on:  17:15:29  12Jan2022            

=------------------------------------------------------------------------------=
   JOB DONE.
=------------------------------------------------------------------------------=
