
     Program PWSCF v.6.7MaX starts on 12Jan2022 at 15:46:48 

     This program is part of the open-source Quantum ESPRESSO suite
     for quantum simulation of materials; please cite
         "P. Giannozzi et al., J. Phys.:Condens. Matter 21 395502 (2009);
         "P. Giannozzi et al., J. Phys.:Condens. Matter 29 465901 (2017);
          URL http://www.quantum-espresso.org", 
     in publications or presentations arising from this work. More details at
     http://www.quantum-espresso.org/quote

     Parallel version (MPI & OpenMP), running on      72 processor cores
     Number of MPI processes:                72
     Threads/MPI process:                     1

     MPI processes distributed on     1 nodes
     R & G space division:  proc/nbgrp/npool/nimage =      72
     Reading input from fe_octa_1_revised_8.in
Warning: card &CELL ignored
Warning: card CELL_DYNAMICS = 'BFGS', ignored
Warning: card CELL_FACTOR = 2.0, ignored
Warning: card PRESS = 0.0, ignored
Warning: card / ignored

     Current dimensions of program PWSCF are:
     Max number of different atomic species (ntypx) = 10
     Max number of k-points (npk) =  40000
     Max angular momentum in pseudopotentials (lmaxx) =  3
     file Fe.pbe-spn-kjpaw_psl.1.0.0.UPF: wavefunction(s)  3P 3D renormalized
     file Fe.pbe-spn-kjpaw_psl.1.0.0.UPF: wavefunction(s)  3P 3D renormalized
     file Fe.pbe-spn-kjpaw_psl.1.0.0.UPF: wavefunction(s)  3P 3D renormalized

     Subspace diagonalization in iterative solution of the eigenvalue problem:
     one sub-group per band group will be used
     ELPA distributed-memory algorithm (size of sub-group:  8*  8 procs)

     Message from routine setup:
     using ibrav=0 with symmetry is DISCOURAGED, use correct ibrav instead
 
     Parallelization info
     --------------------
     sticks:   dense  smooth     PW     G-vecs:    dense   smooth      PW
     Min          83      55     15                 4773     2563     367
     Max          84      56     16                 4778     2568     371
     Sum        6035    3993   1103               343891   184641   26583
 


     bravais-lattice index     =            0
     lattice parameter (alat)  =      12.9382  a.u.
     unit-cell volume          =    2283.7811 (a.u.)^3
     number of atoms/cell      =           33
     number of atomic types    =            3
     number of electrons       =       528.00
     number of Kohn-Sham states=          320
     kinetic-energy cutoff     =      71.0000  Ry
     charge density cutoff     =     430.0000  Ry
     scf convergence threshold =      1.0E-06
     mixing beta               =       0.3000
     number of iterations used =           10  local-TF  mixing
     Exchange-correlation= SLA  PW   PBX  PBC
                           (   1   4   3   4   0   0   0)

     celldm(1)=  12.938187  celldm(2)=   0.000000  celldm(3)=   0.000000
     celldm(4)=   0.000000  celldm(5)=   0.000000  celldm(6)=   0.000000

     crystal axes: (cart. coord. in units of alat)
               a(1) = (   1.000000   0.000000   0.000000 )  
               a(2) = (   0.000000   1.054470   0.000000 )  
               a(3) = (   0.000000   0.000000   1.000000 )  

     reciprocal axes: (cart. coord. in units 2 pi/alat)
               b(1) = (  1.000000  0.000000  0.000000 )  
               b(2) = (  0.000000  0.948344  0.000000 )  
               b(3) = (  0.000000  0.000000  1.000000 )  


     PseudoPot. # 1 for Fe read from file:
     /rds/homes/b/bxp912/pp/Fe.pbe-spn-kjpaw_psl.1.0.0.UPF
     MD5 check sum: 42f43b795421b414b0dc916aa790dbcb
     Pseudo is Projector augmented-wave + core cor, Zval = 16.0
     Generated using &quot;atomic&quot; code by A. Dal Corso  v.6.3
     Shape of augmentation charge: PSQ
     Using radial grid of 1191 points,  6 beta functions with: 
                l(1) =   0
                l(2) =   0
                l(3) =   1
                l(4) =   1
                l(5) =   2
                l(6) =   2
     Q(r) pseudized with 0 coefficients 


     PseudoPot. # 2 for Fe read from file:
     /rds/homes/b/bxp912/pp/Fe.pbe-spn-kjpaw_psl.1.0.0.UPF
     MD5 check sum: 42f43b795421b414b0dc916aa790dbcb
     Pseudo is Projector augmented-wave + core cor, Zval = 16.0
     Generated using &quot;atomic&quot; code by A. Dal Corso  v.6.3
     Shape of augmentation charge: PSQ
     Using radial grid of 1191 points,  6 beta functions with: 
                l(1) =   0
                l(2) =   0
                l(3) =   1
                l(4) =   1
                l(5) =   2
                l(6) =   2
     Q(r) pseudized with 0 coefficients 


     PseudoPot. # 3 for Fe read from file:
     /rds/homes/b/bxp912/pp/Fe.pbe-spn-kjpaw_psl.1.0.0.UPF
     MD5 check sum: 42f43b795421b414b0dc916aa790dbcb
     Pseudo is Projector augmented-wave + core cor, Zval = 16.0
     Generated using &quot;atomic&quot; code by A. Dal Corso  v.6.3
     Shape of augmentation charge: PSQ
     Using radial grid of 1191 points,  6 beta functions with: 
                l(1) =   0
                l(2) =   0
                l(3) =   1
                l(4) =   1
                l(5) =   2
                l(6) =   2
     Q(r) pseudized with 0 coefficients 


     atomic species   valence    mass     pseudopotential
        Fe1           16.00    55.84500     Fe( 1.00)
        Fe2           16.00    55.84500     Fe( 1.00)
        Fe3           16.00    55.84500     Fe( 1.00)

     Starting magnetic structure 
     atomic species   magnetization
        Fe1          0.100
        Fe2         -0.100
        Fe3         -0.010

     16 Sym. Ops., with inversion, found (14 have fractional translation)



   Cartesian axes

     site n.     atom                  positions (alat units)
         1           Fe3 tau(   1) = (   0.2500000   0.2636175   0.2500000  )
         2           Fe1 tau(   2) = (   0.0000000   0.0000000   0.0000000  )
         3           Fe2 tau(   3) = (   0.2500000   0.2636175   0.0000000  )
         4           Fe1 tau(   4) = (   0.2500000   0.0000000   0.2500000  )
         5           Fe2 tau(   5) = (   0.0000000   0.2636175   0.2500000  )
         6           Fe1 tau(   6) = (   0.0000000   0.0000000   0.5000000  )
         7           Fe2 tau(   7) = (   0.2500000   0.2636175   0.5000000  )
         8           Fe1 tau(   8) = (   0.2500000   0.0000000   0.7500000  )
         9           Fe2 tau(   9) = (   0.0000000   0.2636175   0.7500000  )
        10           Fe1 tau(  10) = (   0.0000000   0.5272350   0.0000000  )
        11           Fe2 tau(  11) = (   0.2500000   0.7908525   0.0000000  )
        12           Fe1 tau(  12) = (   0.2500000   0.5272350   0.2500000  )
        13           Fe2 tau(  13) = (   0.0000000   0.7908525   0.2500000  )
        14           Fe1 tau(  14) = (   0.0000000   0.5272350   0.5000000  )
        15           Fe2 tau(  15) = (   0.2500000   0.7908525   0.5000000  )
        16           Fe1 tau(  16) = (   0.2500000   0.5272350   0.7500000  )
        17           Fe2 tau(  17) = (   0.0000000   0.7908525   0.7500000  )
        18           Fe1 tau(  18) = (   0.5000000   0.0000000   0.0000000  )
        19           Fe2 tau(  19) = (   0.7500000   0.2636175   0.0000000  )
        20           Fe1 tau(  20) = (   0.7500000   0.0000000   0.2500000  )
        21           Fe2 tau(  21) = (   0.5000000   0.2636175   0.2500000  )
        22           Fe1 tau(  22) = (   0.5000000   0.0000000   0.5000000  )
        23           Fe2 tau(  23) = (   0.7500000   0.2636175   0.5000000  )
        24           Fe1 tau(  24) = (   0.7500000   0.0000000   0.7500000  )
        25           Fe2 tau(  25) = (   0.5000000   0.2636175   0.7500000  )
        26           Fe1 tau(  26) = (   0.5000000   0.5272350   0.0000000  )
        27           Fe2 tau(  27) = (   0.7500000   0.7908525   0.0000000  )
        28           Fe1 tau(  28) = (   0.7500000   0.5272350   0.2500000  )
        29           Fe2 tau(  29) = (   0.5000000   0.7908525   0.2500000  )
        30           Fe1 tau(  30) = (   0.5000000   0.5272350   0.5000000  )
        31           Fe2 tau(  31) = (   0.7500000   0.7908525   0.5000000  )
        32           Fe1 tau(  32) = (   0.7500000   0.5272350   0.7500000  )
        33           Fe2 tau(  33) = (   0.5000000   0.7908525   0.7500000  )

     number of k points=   126  Marzari-Vanderbilt smearing, width (Ry)=  0.0400

     Number of k-points >= 100: set verbosity='high' to print them.

     Dense  grid:   343891 G-vectors     FFT dimensions: (  90,  96,  90)

     Smooth grid:   184641 G-vectors     FFT dimensions: (  72,  80,  72)

     Estimated max dynamical RAM per process >     426.47 MB

     Estimated total dynamical RAM >      29.99 GB

     Check: negative core charge=   -0.000006
     Generating pointlists ...
     new r_m :   0.1087 (alat units)  1.4069 (a.u.) for type    1
     new r_m :   0.1031 (alat units)  1.3343 (a.u.) for type    2
     new r_m :   0.1031 (alat units)  1.3343 (a.u.) for type    3

     Initial potential from superposition of free atoms

     starting charge  527.98556, renormalised to  528.00000
     Starting wfcs are  330 randomized atomic wfcs
     Checking if some PAW data can be deallocated... 

     total cpu time spent up to now is       64.4 secs

     Self-consistent Calculation

     iteration #  1     ecut=    71.00 Ry     beta= 0.30
     Davidson diagonalization with overlap
     ethr =  1.00E-02,  avg # of iterations =  4.1

     total cpu time spent up to now is      288.4 secs

     total energy              =  -10862.52757564 Ry
     estimated scf accuracy    <      25.74563783 Ry

     total magnetization       =     1.63 Bohr mag/cell
     absolute magnetization    =    42.51 Bohr mag/cell

     iteration #  2     ecut=    71.00 Ry     beta= 0.30
     Davidson diagonalization with overlap
     ethr =  4.88E-03,  avg # of iterations =  1.0

     total cpu time spent up to now is      442.9 secs

     total energy              =  -10863.64678723 Ry
     estimated scf accuracy    <      15.82113709 Ry

     total magnetization       =     1.43 Bohr mag/cell
     absolute magnetization    =    40.41 Bohr mag/cell

     iteration #  3     ecut=    71.00 Ry     beta= 0.30
     Davidson diagonalization with overlap
     ethr =  3.00E-03,  avg # of iterations =  1.0

     total cpu time spent up to now is      596.0 secs

     total energy              =  -10864.15751972 Ry
     estimated scf accuracy    <       0.88100599 Ry

     total magnetization       =     2.19 Bohr mag/cell
     absolute magnetization    =    42.43 Bohr mag/cell

     iteration #  4     ecut=    71.00 Ry     beta= 0.30
     Davidson diagonalization with overlap
     ethr =  1.67E-04,  avg # of iterations =  3.5

     total cpu time spent up to now is      776.2 secs

     total energy              =  -10864.14278299 Ry
     estimated scf accuracy    <       0.29777748 Ry

     total magnetization       =     2.48 Bohr mag/cell
     absolute magnetization    =    42.67 Bohr mag/cell

     iteration #  5     ecut=    71.00 Ry     beta= 0.30
     Davidson diagonalization with overlap
     c_bands:  2 eigenvalues not converged
     c_bands:  1 eigenvalues not converged
     c_bands:  1 eigenvalues not converged
     ethr =  5.64E-05,  avg # of iterations =  4.4

     total cpu time spent up to now is      987.9 secs

     total energy              =  -10864.18210779 Ry
     estimated scf accuracy    <       0.22669745 Ry

     total magnetization       =     2.66 Bohr mag/cell
     absolute magnetization    =    43.06 Bohr mag/cell

     iteration #  6     ecut=    71.00 Ry     beta= 0.30
     Davidson diagonalization with overlap
     ethr =  4.29E-05,  avg # of iterations =  2.1

     total cpu time spent up to now is     1161.0 secs

     total energy              =  -10864.19811895 Ry
     estimated scf accuracy    <       0.10310822 Ry

     total magnetization       =     3.07 Bohr mag/cell
     absolute magnetization    =    43.11 Bohr mag/cell

     iteration #  7     ecut=    71.00 Ry     beta= 0.30
     Davidson diagonalization with overlap
     c_bands:  2 eigenvalues not converged
     c_bands:  1 eigenvalues not converged
     c_bands:  1 eigenvalues not converged
     c_bands:  1 eigenvalues not converged
     c_bands:  1 eigenvalues not converged
     ethr =  1.95E-05,  avg # of iterations =  3.7

     total cpu time spent up to now is     1335.0 secs

     total energy              =  -10864.21180905 Ry
     estimated scf accuracy    <       0.04283486 Ry

     total magnetization       =     3.41 Bohr mag/cell
     absolute magnetization    =    43.07 Bohr mag/cell

     iteration #  8     ecut=    71.00 Ry     beta= 0.30
     Davidson diagonalization with overlap
     c_bands:  1 eigenvalues not converged
     c_bands:  1 eigenvalues not converged
     c_bands:  2 eigenvalues not converged
     c_bands:  1 eigenvalues not converged
     c_bands:  1 eigenvalues not converged
     c_bands:  1 eigenvalues not converged
     c_bands:  1 eigenvalues not converged
     c_bands:  1 eigenvalues not converged
     c_bands:  1 eigenvalues not converged
     c_bands:  1 eigenvalues not converged
     c_bands:  1 eigenvalues not converged
     c_bands:  2 eigenvalues not converged
     c_bands:  1 eigenvalues not converged
     ethr =  8.11E-06,  avg # of iterations =  6.1

     total cpu time spent up to now is     1549.7 secs

     total energy              =  -10864.21768746 Ry
     estimated scf accuracy    <       0.02829496 Ry

     total magnetization       =     3.72 Bohr mag/cell
     absolute magnetization    =    43.05 Bohr mag/cell

     iteration #  9     ecut=    71.00 Ry     beta= 0.30
     Davidson diagonalization with overlap
     c_bands:  1 eigenvalues not converged
     c_bands:  2 eigenvalues not converged
     c_bands:  1 eigenvalues not converged
     c_bands:  1 eigenvalues not converged
     c_bands:  1 eigenvalues not converged
     c_bands:  1 eigenvalues not converged
     ethr =  5.36E-06,  avg # of iterations =  3.8

     total cpu time spent up to now is     1735.6 secs

     total energy              =  -10864.22092095 Ry
     estimated scf accuracy    <       0.00656643 Ry

     total magnetization       =     4.01 Bohr mag/cell
     absolute magnetization    =    43.16 Bohr mag/cell

     iteration # 10     ecut=    71.00 Ry     beta= 0.30
     Davidson diagonalization with overlap
     c_bands:  1 eigenvalues not converged
     c_bands:  1 eigenvalues not converged
     c_bands:  1 eigenvalues not converged
     c_bands:  1 eigenvalues not converged
     c_bands:  2 eigenvalues not converged
     c_bands:  1 eigenvalues not converged
     c_bands:  1 eigenvalues not converged
     c_bands:  2 eigenvalues not converged
     c_bands:  1 eigenvalues not converged
     ethr =  1.24E-06,  avg # of iterations =  4.7

     total cpu time spent up to now is     1931.8 secs

     total energy              =  -10864.22275271 Ry
     estimated scf accuracy    <       0.00380849 Ry

     total magnetization       =     4.21 Bohr mag/cell
     absolute magnetization    =    43.22 Bohr mag/cell

     iteration # 11     ecut=    71.00 Ry     beta= 0.30
     Davidson diagonalization with overlap
     c_bands:  1 eigenvalues not converged
     c_bands:  1 eigenvalues not converged
     ethr =  7.21E-07,  avg # of iterations =  4.0

     total cpu time spent up to now is     2148.3 secs

     total energy              =  -10864.22512461 Ry
     estimated scf accuracy    <       0.00543267 Ry

     total magnetization       =     4.56 Bohr mag/cell
     absolute magnetization    =    43.31 Bohr mag/cell

     iteration # 12     ecut=    71.00 Ry     beta= 0.30
     Davidson diagonalization with overlap
     ethr =  7.21E-07,  avg # of iterations =  2.0

     total cpu time spent up to now is     2321.8 secs

     total energy              =  -10864.22648637 Ry
     estimated scf accuracy    <       0.00414447 Ry

     total magnetization       =     4.77 Bohr mag/cell
     absolute magnetization    =    43.34 Bohr mag/cell

     iteration # 13     ecut=    71.00 Ry     beta= 0.30
     Davidson diagonalization with overlap
     ethr =  7.21E-07,  avg # of iterations =  2.1

     total cpu time spent up to now is     2500.7 secs

     total energy              =  -10864.22143113 Ry
     estimated scf accuracy    <       0.00230457 Ry

     total magnetization       =     5.00 Bohr mag/cell
     absolute magnetization    =    43.41 Bohr mag/cell

     iteration # 14     ecut=    71.00 Ry     beta= 0.30
     Davidson diagonalization with overlap
     ethr =  4.36E-07,  avg # of iterations =  5.7

     total cpu time spent up to now is     2773.0 secs

     total energy              =  -10864.23114995 Ry
     estimated scf accuracy    <       0.00087806 Ry

     total magnetization       =     5.96 Bohr mag/cell
     absolute magnetization    =    44.25 Bohr mag/cell

     iteration # 15     ecut=    71.00 Ry     beta= 0.30
     Davidson diagonalization with overlap
     ethr =  1.66E-07,  avg # of iterations =  2.0

     total cpu time spent up to now is     2946.0 secs

     total energy              =  -10864.23135521 Ry
     estimated scf accuracy    <       0.00042692 Ry

     total magnetization       =     5.95 Bohr mag/cell
     absolute magnetization    =    44.24 Bohr mag/cell

     iteration # 16     ecut=    71.00 Ry     beta= 0.30
     Davidson diagonalization with overlap
     ethr =  8.09E-08,  avg # of iterations =  2.2

     total cpu time spent up to now is     3135.2 secs

     total energy              =  -10864.23159823 Ry
     estimated scf accuracy    <       0.00029969 Ry

     total magnetization       =     6.04 Bohr mag/cell
     absolute magnetization    =    44.33 Bohr mag/cell

     iteration # 17     ecut=    71.00 Ry     beta= 0.30
     Davidson diagonalization with overlap
     ethr =  5.68E-08,  avg # of iterations =  3.5

     total cpu time spent up to now is     3344.9 secs

     total energy              =  -10864.23172665 Ry
     estimated scf accuracy    <       0.00017427 Ry

     total magnetization       =     6.11 Bohr mag/cell
     absolute magnetization    =    44.41 Bohr mag/cell

     iteration # 18     ecut=    71.00 Ry     beta= 0.30
     Davidson diagonalization with overlap
     ethr =  3.30E-08,  avg # of iterations =  4.4

     total cpu time spent up to now is     3578.4 secs

     total energy              =  -10864.23198526 Ry
     estimated scf accuracy    <       0.00007474 Ry

     total magnetization       =     6.19 Bohr mag/cell
     absolute magnetization    =    44.51 Bohr mag/cell

     iteration # 19     ecut=    71.00 Ry     beta= 0.30
     Davidson diagonalization with overlap
     ethr =  1.42E-08,  avg # of iterations =  1.6

     total cpu time spent up to now is     3746.4 secs

     total energy              =  -10864.23201545 Ry
     estimated scf accuracy    <       0.00004707 Ry

     total magnetization       =     6.18 Bohr mag/cell
     absolute magnetization    =    44.48 Bohr mag/cell

     iteration # 20     ecut=    71.00 Ry     beta= 0.30
     Davidson diagonalization with overlap
     ethr =  8.91E-09,  avg # of iterations =  2.1

     total cpu time spent up to now is     3928.0 secs

     total energy              =  -10864.23202499 Ry
     estimated scf accuracy    <       0.00003188 Ry

     total magnetization       =     6.14 Bohr mag/cell
     absolute magnetization    =    44.44 Bohr mag/cell

     iteration # 21     ecut=    71.00 Ry     beta= 0.30
     Davidson diagonalization with overlap
     ethr =  6.04E-09,  avg # of iterations =  3.2

     total cpu time spent up to now is     4135.9 secs

     total energy              =  -10864.23206011 Ry
     estimated scf accuracy    <       0.00002191 Ry

     total magnetization       =     6.15 Bohr mag/cell
     absolute magnetization    =    44.46 Bohr mag/cell

     iteration # 22     ecut=    71.00 Ry     beta= 0.30
     Davidson diagonalization with overlap
     ethr =  4.15E-09,  avg # of iterations =  2.1

     total cpu time spent up to now is     4312.7 secs

     total energy              =  -10864.23206087 Ry
     estimated scf accuracy    <       0.00001607 Ry

     total magnetization       =     6.13 Bohr mag/cell
     absolute magnetization    =    44.44 Bohr mag/cell

     iteration # 23     ecut=    71.00 Ry     beta= 0.30
     Davidson diagonalization with overlap
     ethr =  3.04E-09,  avg # of iterations =  4.4

     total cpu time spent up to now is     4543.8 secs

     total energy              =  -10864.23208583 Ry
     estimated scf accuracy    <       0.00000849 Ry

     total magnetization       =     6.09 Bohr mag/cell
     absolute magnetization    =    44.41 Bohr mag/cell

     iteration # 24     ecut=    71.00 Ry     beta= 0.30
     Davidson diagonalization with overlap
     ethr =  1.61E-09,  avg # of iterations =  3.2

     total cpu time spent up to now is     4771.5 secs

     total energy              =  -10864.23209656 Ry
     estimated scf accuracy    <       0.00000531 Ry

     total magnetization       =     6.06 Bohr mag/cell
     absolute magnetization    =    44.39 Bohr mag/cell

     iteration # 25     ecut=    71.00 Ry     beta= 0.30
     Davidson diagonalization with overlap
     ethr =  1.01E-09,  avg # of iterations =  2.8

     total cpu time spent up to now is     4974.6 secs

     total energy              =  -10864.23210191 Ry
     estimated scf accuracy    <       0.00000397 Ry

     total magnetization       =     6.03 Bohr mag/cell
     absolute magnetization    =    44.36 Bohr mag/cell

     iteration # 26     ecut=    71.00 Ry     beta= 0.30
     Davidson diagonalization with overlap
     ethr =  7.53E-10,  avg # of iterations =  2.2

     total cpu time spent up to now is     5155.9 secs

     total energy              =  -10864.23210011 Ry
     estimated scf accuracy    <       0.00000365 Ry

     total magnetization       =     6.02 Bohr mag/cell
     absolute magnetization    =    44.36 Bohr mag/cell

     iteration # 27     ecut=    71.00 Ry     beta= 0.30
     Davidson diagonalization with overlap
     ethr =  6.91E-10,  avg # of iterations =  4.3

     total cpu time spent up to now is     5389.6 secs

     total energy              =  -10864.23210799 Ry
     estimated scf accuracy    <       0.00000177 Ry

     total magnetization       =     5.99 Bohr mag/cell
     absolute magnetization    =    44.35 Bohr mag/cell

     iteration # 28     ecut=    71.00 Ry     beta= 0.30
     Davidson diagonalization with overlap
     ethr =  3.35E-10,  avg # of iterations =  2.8

     total cpu time spent up to now is     5593.6 secs

     total energy              =  -10864.23210798 Ry
     estimated scf accuracy    <       0.00000103 Ry

     total magnetization       =     5.98 Bohr mag/cell
     absolute magnetization    =    44.36 Bohr mag/cell

     iteration # 29     ecut=    71.00 Ry     beta= 0.30
     Davidson diagonalization with overlap
     ethr =  1.95E-10,  avg # of iterations =  4.5
 
     Magnetic moment per site:
     atom:    1    charge:   12.8149    magn:    0.0474    constr:    0.0000
     atom:    2    charge:   12.6772    magn:    1.4999    constr:    0.0000
     atom:    3    charge:   12.4812    magn:    0.1913    constr:    0.0000
     atom:    4    charge:   12.8021    magn:    0.7854    constr:    0.0000
     atom:    5    charge:   12.4812    magn:    0.1913    constr:    0.0000
     atom:    6    charge:   12.6772    magn:    1.4999    constr:    0.0000
     atom:    7    charge:   12.4812    magn:    0.1913    constr:    0.0000
     atom:    8    charge:   12.6797    magn:    1.2298    constr:    0.0000
     atom:    9    charge:   12.3386    magn:   -1.3224    constr:    0.0000
     atom:   10    charge:   12.6772    magn:    1.4999    constr:    0.0000
     atom:   11    charge:   12.3400    magn:   -1.2473    constr:    0.0000
     atom:   12    charge:   12.8021    magn:    0.7854    constr:    0.0000
     atom:   13    charge:   12.3400    magn:   -1.2473    constr:    0.0000
     atom:   14    charge:   12.6772    magn:    1.4999    constr:    0.0000
     atom:   15    charge:   12.3400    magn:   -1.2473    constr:    0.0000
     atom:   16    charge:   12.6797    magn:    1.2298    constr:    0.0000
     atom:   17    charge:   12.3371    magn:   -1.3068    constr:    0.0000
     atom:   18    charge:   12.6772    magn:    1.4999    constr:    0.0000
     atom:   19    charge:   12.3386    magn:   -1.3224    constr:    0.0000
     atom:   20    charge:   12.6797    magn:    1.2298    constr:    0.0000
     atom:   21    charge:   12.4812    magn:    0.1913    constr:    0.0000
     atom:   22    charge:   12.6772    magn:    1.4999    constr:    0.0000
     atom:   23    charge:   12.3386    magn:   -1.3224    constr:    0.0000
     atom:   24    charge:   12.6769    magn:    1.1306    constr:    0.0000
     atom:   25    charge:   12.3386    magn:   -1.3224    constr:    0.0000
     atom:   26    charge:   12.6772    magn:    1.4999    constr:    0.0000
     atom:   27    charge:   12.3371    magn:   -1.3068    constr:    0.0000
     atom:   28    charge:   12.6797    magn:    1.2298    constr:    0.0000
     atom:   29    charge:   12.3400    magn:   -1.2473    constr:    0.0000
     atom:   30    charge:   12.6772    magn:    1.4999    constr:    0.0000
     atom:   31    charge:   12.3371    magn:   -1.3068    constr:    0.0000
     atom:   32    charge:   12.6769    magn:    1.1306    constr:    0.0000
     atom:   33    charge:   12.3371    magn:   -1.3068    constr:    0.0000

     total cpu time spent up to now is     5844.2 secs

     End of self-consistent calculation

     Number of k-points >= 100: set verbosity='high' to print the bands.

     the Fermi energy is    20.8994 ev

!    total energy              =  -10864.23211106 Ry

     total all-electron energy =    -84002.017702 Ry
     estimated scf accuracy    <       0.00000071 Ry
     smearing contrib. (-TS)   =       0.00398187 Ry
     internal energy E=F+TS    =  -10864.23609293 Ry

     The total energy is F=E-TS. E is the sum of the following terms:
     one-electron contribution =   -3492.95204843 Ry
     hartree contribution      =    2121.09508518 Ry
     xc contribution           =    -916.86611615 Ry
     ewald contribution        =   -5843.30604005 Ry
     one-center paw contrib.   =   -2732.20697348 Ry

     total magnetization       =     5.98 Bohr mag/cell
     absolute magnetization    =    44.37 Bohr mag/cell

     convergence has been achieved in  29 iterations

     Forces acting on atoms (cartesian axes, Ry/au):

     atom    1 type  3   force =     0.00000000    0.00000000    0.00000000
     atom    2 type  1   force =    -0.01141881   -0.00484062   -0.01141881
     atom    3 type  2   force =     0.00000000   -0.00000000   -0.58641094
     atom    4 type  1   force =     0.00000000   -0.46690863    0.00000000
     atom    5 type  2   force =    -0.58641094    0.00000000    0.00000000
     atom    6 type  1   force =    -0.01141881   -0.00484062    0.01141881
     atom    7 type  2   force =     0.00000000    0.00000000    0.58641094
     atom    8 type  1   force =     0.00000000   -0.00935819    0.00000000
     atom    9 type  2   force =    -0.01645369   -0.00000000    0.00000000
     atom   10 type  1   force =    -0.01141881    0.00484062   -0.01141881
     atom   11 type  2   force =     0.00000000    0.00000000   -0.00439595
     atom   12 type  1   force =     0.00000000    0.46690863    0.00000000
     atom   13 type  2   force =    -0.00439595    0.00000000    0.00000000
     atom   14 type  1   force =    -0.01141881    0.00484062    0.01141881
     atom   15 type  2   force =     0.00000000    0.00000000    0.00439595
     atom   16 type  1   force =     0.00000000    0.00935819    0.00000000
     atom   17 type  2   force =    -0.00324618   -0.00000000    0.00000000
     atom   18 type  1   force =     0.01141881   -0.00484062   -0.01141881
     atom   19 type  2   force =     0.00000000    0.00000000   -0.01645369
     atom   20 type  1   force =     0.00000000   -0.00935819    0.00000000
     atom   21 type  2   force =     0.58641094    0.00000000    0.00000000
     atom   22 type  1   force =     0.01141881   -0.00484062    0.01141881
     atom   23 type  2   force =     0.00000000    0.00000000    0.01645369
     atom   24 type  1   force =     0.00000000    0.00247473    0.00000000
     atom   25 type  2   force =     0.01645369   -0.00000000    0.00000000
     atom   26 type  1   force =     0.01141881    0.00484062   -0.01141881
     atom   27 type  2   force =     0.00000000    0.00000000   -0.00324618
     atom   28 type  1   force =    -0.00000000    0.00935819    0.00000000
     atom   29 type  2   force =     0.00439595    0.00000000    0.00000000
     atom   30 type  1   force =     0.01141881    0.00484062    0.01141881
     atom   31 type  2   force =     0.00000000    0.00000000    0.00324618
     atom   32 type  1   force =     0.00000000   -0.00247473    0.00000000
     atom   33 type  2   force =     0.00324618   -0.00000000    0.00000000

     Total force =     1.347352     Total SCF correction =     0.003537


     Computing stress (Cartesian axis) and pressure

          total   stress  (Ry/bohr**3)                   (kbar)     P=      263.43
   0.00192659   0.00000000   0.00000000          283.41        0.00        0.00
   0.00000000   0.00151904   0.00000000            0.00      223.46        0.00
   0.00000000   0.00000000   0.00192659            0.00        0.00      283.41


     Writing output data file /scratch/bxp912/feocta1h.save/
 
     init_run     :     59.44s CPU     60.81s WALL (       1 calls)
     electrons    :   5711.16s CPU   5779.81s WALL (       1 calls)
     forces       :     35.98s CPU     36.21s WALL (       1 calls)
     stress       :    162.26s CPU    163.70s WALL (       1 calls)

     Called by init_run:
     wfcinit      :     58.44s CPU     59.68s WALL (       1 calls)
     potinit      :      0.28s CPU      0.30s WALL (       1 calls)
     hinit0       :      0.36s CPU      0.39s WALL (       1 calls)

     Called by electrons:
     c_bands      :   5042.59s CPU   5100.50s WALL (      29 calls)
     sum_band     :    660.70s CPU    670.76s WALL (      29 calls)
     v_of_rho     :      0.66s CPU      0.71s WALL (      30 calls)
     newd         :      1.49s CPU      1.81s WALL (      30 calls)
     PAW_pot      :      5.31s CPU      5.57s WALL (      30 calls)
     mix_rho      :      0.52s CPU      0.57s WALL (      29 calls)

     Called by c_bands:
     init_us_2    :     22.06s CPU     22.41s WALL (   15372 calls)
     cegterg      :   4950.90s CPU   5006.88s WALL (    7308 calls)

     Called by *egterg:
     cdiaghg      :    733.81s CPU    738.37s WALL (   30847 calls)
     h_psi        :   2663.31s CPU   2704.61s WALL (   31099 calls)
     s_psi        :    202.32s CPU    203.77s WALL (   31099 calls)
     g_psi        :      4.40s CPU      4.46s WALL (   23539 calls)

     Called by h_psi:
     h_psi:calbec :    415.24s CPU    417.95s WALL (   31099 calls)
     vloc_psi     :   2034.90s CPU   2070.57s WALL (   31099 calls)
     add_vuspsi   :    201.15s CPU    203.99s WALL (   31099 calls)

     General routines
     calbec       :    629.97s CPU    634.04s WALL (   39667 calls)
     fft          :      0.53s CPU      0.56s WALL (     788 calls)
     ffts         :      0.24s CPU      0.25s WALL (     702 calls)
     fftw         :   2424.91s CPU   2467.18s WALL (13266600 calls)
     interpolate  :      0.06s CPU      0.07s WALL (      60 calls)
 
     Parallel routines
     fft_scatt_xy :    110.14s CPU    112.10s WALL (13268090 calls)
     fft_scatt_yz :   2105.68s CPU   2142.96s WALL (13268090 calls)
 
     PWSCF        :      1h40m CPU      1h41m WALL

 
   This run was terminated on:  17:28:28  12Jan2022            

=------------------------------------------------------------------------------=
   JOB DONE.
=------------------------------------------------------------------------------=
