
     Program PWSCF v.6.7MaX starts on 12Jan2022 at 17:15:35 

     This program is part of the open-source Quantum ESPRESSO suite
     for quantum simulation of materials; please cite
         "P. Giannozzi et al., J. Phys.:Condens. Matter 21 395502 (2009);
         "P. Giannozzi et al., J. Phys.:Condens. Matter 29 465901 (2017);
          URL http://www.quantum-espresso.org", 
     in publications or presentations arising from this work. More details at
     http://www.quantum-espresso.org/quote

     Parallel version (MPI & OpenMP), running on      72 processor cores
     Number of MPI processes:                72
     Threads/MPI process:                     1

     MPI processes distributed on     1 nodes
     R & G space division:  proc/nbgrp/npool/nimage =      72
     Reading input from fe_octa_1_revised_7.in
Warning: card &CELL ignored
Warning: card CELL_DYNAMICS = 'BFGS', ignored
Warning: card CELL_FACTOR = 2.0, ignored
Warning: card PRESS = 0.0, ignored
Warning: card / ignored

     Current dimensions of program PWSCF are:
     Max number of different atomic species (ntypx) = 10
     Max number of k-points (npk) =  40000
     Max angular momentum in pseudopotentials (lmaxx) =  3
     file Fe.pbe-spn-kjpaw_psl.1.0.0.UPF: wavefunction(s)  3P 3D renormalized
     file Fe.pbe-spn-kjpaw_psl.1.0.0.UPF: wavefunction(s)  3P 3D renormalized
     file Fe.pbe-spn-kjpaw_psl.1.0.0.UPF: wavefunction(s)  3P 3D renormalized

     Subspace diagonalization in iterative solution of the eigenvalue problem:
     one sub-group per band group will be used
     ELPA distributed-memory algorithm (size of sub-group:  8*  8 procs)

     Message from routine setup:
     using ibrav=0 with symmetry is DISCOURAGED, use correct ibrav instead
 
     Parallelization info
     --------------------
     sticks:   dense  smooth     PW     G-vecs:    dense   smooth      PW
     Min          83      55     15                 4773     2563     367
     Max          84      56     16                 4778     2568     371
     Sum        6035    3993   1103               343891   184641   26583
 


     bravais-lattice index     =            0
     lattice parameter (alat)  =      12.9382  a.u.
     unit-cell volume          =    2283.7811 (a.u.)^3
     number of atoms/cell      =           33
     number of atomic types    =            3
     number of electrons       =       528.00
     number of Kohn-Sham states=          320
     kinetic-energy cutoff     =      71.0000  Ry
     charge density cutoff     =     430.0000  Ry
     scf convergence threshold =      1.0E-06
     mixing beta               =       0.3000
     number of iterations used =           10  local-TF  mixing
     Exchange-correlation= SLA  PW   PBX  PBC
                           (   1   4   3   4   0   0   0)

     celldm(1)=  12.938187  celldm(2)=   0.000000  celldm(3)=   0.000000
     celldm(4)=   0.000000  celldm(5)=   0.000000  celldm(6)=   0.000000

     crystal axes: (cart. coord. in units of alat)
               a(1) = (   1.000000   0.000000   0.000000 )  
               a(2) = (   0.000000   1.054470   0.000000 )  
               a(3) = (   0.000000   0.000000   1.000000 )  

     reciprocal axes: (cart. coord. in units 2 pi/alat)
               b(1) = (  1.000000  0.000000  0.000000 )  
               b(2) = (  0.000000  0.948344  0.000000 )  
               b(3) = (  0.000000  0.000000  1.000000 )  


     PseudoPot. # 1 for Fe read from file:
     /rds/homes/b/bxp912/pp/Fe.pbe-spn-kjpaw_psl.1.0.0.UPF
     MD5 check sum: 42f43b795421b414b0dc916aa790dbcb
     Pseudo is Projector augmented-wave + core cor, Zval = 16.0
     Generated using &quot;atomic&quot; code by A. Dal Corso  v.6.3
     Shape of augmentation charge: PSQ
     Using radial grid of 1191 points,  6 beta functions with: 
                l(1) =   0
                l(2) =   0
                l(3) =   1
                l(4) =   1
                l(5) =   2
                l(6) =   2
     Q(r) pseudized with 0 coefficients 


     PseudoPot. # 2 for Fe read from file:
     /rds/homes/b/bxp912/pp/Fe.pbe-spn-kjpaw_psl.1.0.0.UPF
     MD5 check sum: 42f43b795421b414b0dc916aa790dbcb
     Pseudo is Projector augmented-wave + core cor, Zval = 16.0
     Generated using &quot;atomic&quot; code by A. Dal Corso  v.6.3
     Shape of augmentation charge: PSQ
     Using radial grid of 1191 points,  6 beta functions with: 
                l(1) =   0
                l(2) =   0
                l(3) =   1
                l(4) =   1
                l(5) =   2
                l(6) =   2
     Q(r) pseudized with 0 coefficients 


     PseudoPot. # 3 for Fe read from file:
     /rds/homes/b/bxp912/pp/Fe.pbe-spn-kjpaw_psl.1.0.0.UPF
     MD5 check sum: 42f43b795421b414b0dc916aa790dbcb
     Pseudo is Projector augmented-wave + core cor, Zval = 16.0
     Generated using &quot;atomic&quot; code by A. Dal Corso  v.6.3
     Shape of augmentation charge: PSQ
     Using radial grid of 1191 points,  6 beta functions with: 
                l(1) =   0
                l(2) =   0
                l(3) =   1
                l(4) =   1
                l(5) =   2
                l(6) =   2
     Q(r) pseudized with 0 coefficients 


     atomic species   valence    mass     pseudopotential
        Fe1           16.00    55.84500     Fe( 1.00)
        Fe2           16.00    55.84500     Fe( 1.00)
        Fe3           16.00    55.84500     Fe( 1.00)

     Starting magnetic structure 
     atomic species   magnetization
        Fe1          0.100
        Fe2         -0.100
        Fe3         -0.010

     16 Sym. Ops., with inversion, found (14 have fractional translation)



   Cartesian axes

     site n.     atom                  positions (alat units)
         1           Fe3 tau(   1) = (   0.2500000   0.2636175   0.2500000  )
         2           Fe1 tau(   2) = (   0.0000000   0.0000000   0.0000000  )
         3           Fe2 tau(   3) = (   0.2500000   0.2636175   0.0000000  )
         4           Fe1 tau(   4) = (   0.2500000   0.0000000   0.2500000  )
         5           Fe2 tau(   5) = (   0.0000000   0.2636175   0.2500000  )
         6           Fe1 tau(   6) = (   0.0000000   0.0000000   0.5000000  )
         7           Fe2 tau(   7) = (   0.2500000   0.2636175   0.5000000  )
         8           Fe1 tau(   8) = (   0.2500000   0.0000000   0.7500000  )
         9           Fe2 tau(   9) = (   0.0000000   0.2636175   0.7500000  )
        10           Fe1 tau(  10) = (   0.0000000   0.5272350   0.0000000  )
        11           Fe2 tau(  11) = (   0.2500000   0.7908525   0.0000000  )
        12           Fe1 tau(  12) = (   0.2500000   0.5272350   0.2500000  )
        13           Fe2 tau(  13) = (   0.0000000   0.7908525   0.2500000  )
        14           Fe1 tau(  14) = (   0.0000000   0.5272350   0.5000000  )
        15           Fe2 tau(  15) = (   0.2500000   0.7908525   0.5000000  )
        16           Fe1 tau(  16) = (   0.2500000   0.5272350   0.7500000  )
        17           Fe2 tau(  17) = (   0.0000000   0.7908525   0.7500000  )
        18           Fe1 tau(  18) = (   0.5000000   0.0000000   0.0000000  )
        19           Fe2 tau(  19) = (   0.7500000   0.2636175   0.0000000  )
        20           Fe1 tau(  20) = (   0.7500000   0.0000000   0.2500000  )
        21           Fe2 tau(  21) = (   0.5000000   0.2636175   0.2500000  )
        22           Fe1 tau(  22) = (   0.5000000   0.0000000   0.5000000  )
        23           Fe2 tau(  23) = (   0.7500000   0.2636175   0.5000000  )
        24           Fe1 tau(  24) = (   0.7500000   0.0000000   0.7500000  )
        25           Fe2 tau(  25) = (   0.5000000   0.2636175   0.7500000  )
        26           Fe1 tau(  26) = (   0.5000000   0.5272350   0.0000000  )
        27           Fe2 tau(  27) = (   0.7500000   0.7908525   0.0000000  )
        28           Fe1 tau(  28) = (   0.7500000   0.5272350   0.2500000  )
        29           Fe2 tau(  29) = (   0.5000000   0.7908525   0.2500000  )
        30           Fe1 tau(  30) = (   0.5000000   0.5272350   0.5000000  )
        31           Fe2 tau(  31) = (   0.7500000   0.7908525   0.5000000  )
        32           Fe1 tau(  32) = (   0.7500000   0.5272350   0.7500000  )
        33           Fe2 tau(  33) = (   0.5000000   0.7908525   0.7500000  )

     number of k points=    75  Marzari-Vanderbilt smearing, width (Ry)=  0.0700
                       cart. coord. in units 2pi/alat
        k(    1) = (   0.0555556   0.0526858   0.0555556), wk =   0.0109739
        k(    2) = (   0.0555556   0.0526858   0.1666667), wk =   0.0219479
        k(    3) = (   0.0555556   0.0526858   0.2777778), wk =   0.0219479
        k(    4) = (   0.0555556   0.0526858   0.3888889), wk =   0.0219479
        k(    5) = (   0.0555556   0.0526858  -0.5000000), wk =   0.0109739
        k(    6) = (   0.0555556   0.1580573   0.0555556), wk =   0.0109739
        k(    7) = (   0.0555556   0.1580573   0.1666667), wk =   0.0219479
        k(    8) = (   0.0555556   0.1580573   0.2777778), wk =   0.0219479
        k(    9) = (   0.0555556   0.1580573   0.3888889), wk =   0.0219479
        k(   10) = (   0.0555556   0.1580573  -0.5000000), wk =   0.0109739
        k(   11) = (   0.0555556   0.2634288   0.0555556), wk =   0.0109739
        k(   12) = (   0.0555556   0.2634288   0.1666667), wk =   0.0219479
        k(   13) = (   0.0555556   0.2634288   0.2777778), wk =   0.0219479
        k(   14) = (   0.0555556   0.2634288   0.3888889), wk =   0.0219479
        k(   15) = (   0.0555556   0.2634288  -0.5000000), wk =   0.0109739
        k(   16) = (   0.0555556   0.3688003   0.0555556), wk =   0.0109739
        k(   17) = (   0.0555556   0.3688003   0.1666667), wk =   0.0219479
        k(   18) = (   0.0555556   0.3688003   0.2777778), wk =   0.0219479
        k(   19) = (   0.0555556   0.3688003   0.3888889), wk =   0.0219479
        k(   20) = (   0.0555556   0.3688003  -0.5000000), wk =   0.0109739
        k(   21) = (   0.0555556  -0.4741719   0.0555556), wk =   0.0054870
        k(   22) = (   0.0555556  -0.4741719   0.1666667), wk =   0.0109739
        k(   23) = (   0.0555556  -0.4741719   0.2777778), wk =   0.0109739
        k(   24) = (   0.0555556  -0.4741719   0.3888889), wk =   0.0109739
        k(   25) = (   0.0555556  -0.4741719  -0.5000000), wk =   0.0054870
        k(   26) = (   0.1666667   0.0526858   0.1666667), wk =   0.0109739
        k(   27) = (   0.1666667   0.0526858   0.2777778), wk =   0.0219479
        k(   28) = (   0.1666667   0.0526858   0.3888889), wk =   0.0219479
        k(   29) = (   0.1666667   0.0526858  -0.5000000), wk =   0.0109739
        k(   30) = (   0.1666667   0.1580573   0.1666667), wk =   0.0109739
        k(   31) = (   0.1666667   0.1580573   0.2777778), wk =   0.0219479
        k(   32) = (   0.1666667   0.1580573   0.3888889), wk =   0.0219479
        k(   33) = (   0.1666667   0.1580573  -0.5000000), wk =   0.0109739
        k(   34) = (   0.1666667   0.2634288   0.1666667), wk =   0.0109739
        k(   35) = (   0.1666667   0.2634288   0.2777778), wk =   0.0219479
        k(   36) = (   0.1666667   0.2634288   0.3888889), wk =   0.0219479
        k(   37) = (   0.1666667   0.2634288  -0.5000000), wk =   0.0109739
        k(   38) = (   0.1666667   0.3688003   0.1666667), wk =   0.0109739
        k(   39) = (   0.1666667   0.3688003   0.2777778), wk =   0.0219479
        k(   40) = (   0.1666667   0.3688003   0.3888889), wk =   0.0219479
        k(   41) = (   0.1666667   0.3688003  -0.5000000), wk =   0.0109739
        k(   42) = (   0.1666667  -0.4741719   0.1666667), wk =   0.0054870
        k(   43) = (   0.1666667  -0.4741719   0.2777778), wk =   0.0109739
        k(   44) = (   0.1666667  -0.4741719   0.3888889), wk =   0.0109739
        k(   45) = (   0.1666667  -0.4741719  -0.5000000), wk =   0.0054870
        k(   46) = (   0.2777778   0.0526858   0.2777778), wk =   0.0109739
        k(   47) = (   0.2777778   0.0526858   0.3888889), wk =   0.0219479
        k(   48) = (   0.2777778   0.0526858  -0.5000000), wk =   0.0109739
        k(   49) = (   0.2777778   0.1580573   0.2777778), wk =   0.0109739
        k(   50) = (   0.2777778   0.1580573   0.3888889), wk =   0.0219479
        k(   51) = (   0.2777778   0.1580573  -0.5000000), wk =   0.0109739
        k(   52) = (   0.2777778   0.2634288   0.2777778), wk =   0.0109739
        k(   53) = (   0.2777778   0.2634288   0.3888889), wk =   0.0219479
        k(   54) = (   0.2777778   0.2634288  -0.5000000), wk =   0.0109739
        k(   55) = (   0.2777778   0.3688003   0.2777778), wk =   0.0109739
        k(   56) = (   0.2777778   0.3688003   0.3888889), wk =   0.0219479
        k(   57) = (   0.2777778   0.3688003  -0.5000000), wk =   0.0109739
        k(   58) = (   0.2777778  -0.4741719   0.2777778), wk =   0.0054870
        k(   59) = (   0.2777778  -0.4741719   0.3888889), wk =   0.0109739
        k(   60) = (   0.2777778  -0.4741719  -0.5000000), wk =   0.0054870
        k(   61) = (   0.3888889   0.0526858   0.3888889), wk =   0.0109739
        k(   62) = (   0.3888889   0.0526858  -0.5000000), wk =   0.0109739
        k(   63) = (   0.3888889   0.1580573   0.3888889), wk =   0.0109739
        k(   64) = (   0.3888889   0.1580573  -0.5000000), wk =   0.0109739
        k(   65) = (   0.3888889   0.2634288   0.3888889), wk =   0.0109739
        k(   66) = (   0.3888889   0.2634288  -0.5000000), wk =   0.0109739
        k(   67) = (   0.3888889   0.3688003   0.3888889), wk =   0.0109739
        k(   68) = (   0.3888889   0.3688003  -0.5000000), wk =   0.0109739
        k(   69) = (   0.3888889  -0.4741719   0.3888889), wk =   0.0054870
        k(   70) = (   0.3888889  -0.4741719  -0.5000000), wk =   0.0054870
        k(   71) = (  -0.5000000   0.0526858  -0.5000000), wk =   0.0027435
        k(   72) = (  -0.5000000   0.1580573  -0.5000000), wk =   0.0027435
        k(   73) = (  -0.5000000   0.2634288  -0.5000000), wk =   0.0027435
        k(   74) = (  -0.5000000   0.3688003  -0.5000000), wk =   0.0027435
        k(   75) = (  -0.5000000  -0.4741719  -0.5000000), wk =   0.0013717

     Dense  grid:   343891 G-vectors     FFT dimensions: (  90,  96,  90)

     Smooth grid:   184641 G-vectors     FFT dimensions: (  72,  80,  72)

     Estimated max dynamical RAM per process >     267.09 MB

     Estimated total dynamical RAM >      18.78 GB

     Check: negative core charge=   -0.000006
     Generating pointlists ...
     new r_m :   0.1087 (alat units)  1.4069 (a.u.) for type    1
     new r_m :   0.1031 (alat units)  1.3343 (a.u.) for type    2
     new r_m :   0.1031 (alat units)  1.3343 (a.u.) for type    3

     Initial potential from superposition of free atoms

     starting charge  527.98556, renormalised to  528.00000
     Starting wfcs are  330 randomized atomic wfcs
     Checking if some PAW data can be deallocated... 

     total cpu time spent up to now is       41.0 secs

     Self-consistent Calculation

     iteration #  1     ecut=    71.00 Ry     beta= 0.30
     Davidson diagonalization with overlap
     ethr =  1.00E-02,  avg # of iterations =  4.2

     total cpu time spent up to now is      175.7 secs

     total energy              =  -10862.56668735 Ry
     estimated scf accuracy    <      24.69574848 Ry

     total magnetization       =     1.18 Bohr mag/cell
     absolute magnetization    =    41.71 Bohr mag/cell

     iteration #  2     ecut=    71.00 Ry     beta= 0.30
     Davidson diagonalization with overlap
     ethr =  4.68E-03,  avg # of iterations =  1.0

     total cpu time spent up to now is      268.1 secs

     total energy              =  -10863.64385028 Ry
     estimated scf accuracy    <      14.88045091 Ry

     total magnetization       =     1.07 Bohr mag/cell
     absolute magnetization    =    40.57 Bohr mag/cell

     iteration #  3     ecut=    71.00 Ry     beta= 0.30
     Davidson diagonalization with overlap
     ethr =  2.82E-03,  avg # of iterations =  1.0

     total cpu time spent up to now is      360.0 secs

     total energy              =  -10864.12141287 Ry
     estimated scf accuracy    <       0.81690743 Ry

     total magnetization       =     1.51 Bohr mag/cell
     absolute magnetization    =    42.12 Bohr mag/cell

     iteration #  4     ecut=    71.00 Ry     beta= 0.30
     Davidson diagonalization with overlap
     ethr =  1.55E-04,  avg # of iterations =  3.7

     total cpu time spent up to now is      469.0 secs

     total energy              =  -10864.09984834 Ry
     estimated scf accuracy    <       0.27388443 Ry

     total magnetization       =     1.68 Bohr mag/cell
     absolute magnetization    =    42.45 Bohr mag/cell

     iteration #  5     ecut=    71.00 Ry     beta= 0.30
     Davidson diagonalization with overlap
     ethr =  5.19E-05,  avg # of iterations =  4.1

     total cpu time spent up to now is      599.2 secs

     total energy              =  -10864.14570364 Ry
     estimated scf accuracy    <       0.18115867 Ry

     total magnetization       =     1.81 Bohr mag/cell
     absolute magnetization    =    43.01 Bohr mag/cell

     iteration #  6     ecut=    71.00 Ry     beta= 0.30
     Davidson diagonalization with overlap
     c_bands:  1 eigenvalues not converged
     ethr =  3.43E-05,  avg # of iterations =  2.1

     total cpu time spent up to now is      698.1 secs

     total energy              =  -10864.15964374 Ry
     estimated scf accuracy    <       0.08501898 Ry

     total magnetization       =     2.10 Bohr mag/cell
     absolute magnetization    =    43.11 Bohr mag/cell

     iteration #  7     ecut=    71.00 Ry     beta= 0.30
     Davidson diagonalization with overlap
     c_bands:  1 eigenvalues not converged
     c_bands:  1 eigenvalues not converged
     ethr =  1.61E-05,  avg # of iterations =  4.6

     total cpu time spent up to now is      809.5 secs

     total energy              =  -10864.17394134 Ry
     estimated scf accuracy    <       0.03234706 Ry

     total magnetization       =     2.36 Bohr mag/cell
     absolute magnetization    =    43.31 Bohr mag/cell

     iteration #  8     ecut=    71.00 Ry     beta= 0.30
     Davidson diagonalization with overlap
     c_bands:  1 eigenvalues not converged
     c_bands:  1 eigenvalues not converged
     c_bands:  1 eigenvalues not converged
     c_bands:  1 eigenvalues not converged
     c_bands:  1 eigenvalues not converged
     c_bands:  1 eigenvalues not converged
     ethr =  6.13E-06,  avg # of iterations =  6.3

     total cpu time spent up to now is      940.0 secs

     total energy              =  -10864.17689206 Ry
     estimated scf accuracy    <       0.02339820 Ry

     total magnetization       =     2.57 Bohr mag/cell
     absolute magnetization    =    43.60 Bohr mag/cell

     iteration #  9     ecut=    71.00 Ry     beta= 0.30
     Davidson diagonalization with overlap
     c_bands:  1 eigenvalues not converged
     ethr =  4.43E-06,  avg # of iterations =  2.7

     total cpu time spent up to now is     1045.9 secs

     total energy              =  -10864.17855856 Ry
     estimated scf accuracy    <       0.00705259 Ry

     total magnetization       =     2.72 Bohr mag/cell
     absolute magnetization    =    43.80 Bohr mag/cell

     iteration # 10     ecut=    71.00 Ry     beta= 0.30
     Davidson diagonalization with overlap
     c_bands:  1 eigenvalues not converged
     c_bands:  1 eigenvalues not converged
     c_bands:  1 eigenvalues not converged
     c_bands:  1 eigenvalues not converged
     c_bands:  1 eigenvalues not converged
     ethr =  1.34E-06,  avg # of iterations =  4.1

     total cpu time spent up to now is     1171.1 secs

     total energy              =  -10864.18075245 Ry
     estimated scf accuracy    <       0.00340037 Ry

     total magnetization       =     2.87 Bohr mag/cell
     absolute magnetization    =    44.06 Bohr mag/cell

     iteration # 11     ecut=    71.00 Ry     beta= 0.30
     Davidson diagonalization with overlap
     ethr =  6.44E-07,  avg # of iterations =  3.2

     total cpu time spent up to now is     1292.9 secs

     total energy              =  -10864.18177078 Ry
     estimated scf accuracy    <       0.00427042 Ry

     total magnetization       =     3.05 Bohr mag/cell
     absolute magnetization    =    44.34 Bohr mag/cell

     iteration # 12     ecut=    71.00 Ry     beta= 0.30
     Davidson diagonalization with overlap
     ethr =  6.44E-07,  avg # of iterations =  1.7

     total cpu time spent up to now is     1391.9 secs

     total energy              =  -10864.18070759 Ry
     estimated scf accuracy    <       0.00224411 Ry

     total magnetization       =     3.12 Bohr mag/cell
     absolute magnetization    =    44.42 Bohr mag/cell

     iteration # 13     ecut=    71.00 Ry     beta= 0.30
     Davidson diagonalization with overlap
     ethr =  4.25E-07,  avg # of iterations =  5.7

     total cpu time spent up to now is     1561.8 secs

     total energy              =  -10864.18456790 Ry
     estimated scf accuracy    <       0.00323023 Ry

     total magnetization       =     3.59 Bohr mag/cell
     absolute magnetization    =    44.99 Bohr mag/cell

     iteration # 14     ecut=    71.00 Ry     beta= 0.30
     Davidson diagonalization with overlap
     ethr =  4.25E-07,  avg # of iterations =  2.2

     total cpu time spent up to now is     1681.5 secs

     total energy              =  -10864.18552732 Ry
     estimated scf accuracy    <       0.00070240 Ry

     total magnetization       =     3.81 Bohr mag/cell
     absolute magnetization    =    45.29 Bohr mag/cell

     iteration # 15     ecut=    71.00 Ry     beta= 0.30
     Davidson diagonalization with overlap
     c_bands:  1 eigenvalues not converged
     ethr =  1.33E-07,  avg # of iterations =  2.9

     total cpu time spent up to now is     1793.7 secs

     total energy              =  -10864.18562582 Ry
     estimated scf accuracy    <       0.00031274 Ry

     total magnetization       =     3.84 Bohr mag/cell
     absolute magnetization    =    45.33 Bohr mag/cell

     iteration # 16     ecut=    71.00 Ry     beta= 0.30
     Davidson diagonalization with overlap
     c_bands:  1 eigenvalues not converged
     ethr =  5.92E-08,  avg # of iterations =  4.5

     total cpu time spent up to now is     1924.9 secs

     total energy              =  -10864.18532751 Ry
     estimated scf accuracy    <       0.00015245 Ry

     total magnetization       =     3.87 Bohr mag/cell
     absolute magnetization    =    45.35 Bohr mag/cell

     iteration # 17     ecut=    71.00 Ry     beta= 0.30
     Davidson diagonalization with overlap
     ethr =  2.89E-08,  avg # of iterations =  5.5

     total cpu time spent up to now is     2116.7 secs

     total energy              =  -10864.18596676 Ry
     estimated scf accuracy    <       0.00009469 Ry

     total magnetization       =     4.04 Bohr mag/cell
     absolute magnetization    =    45.47 Bohr mag/cell

     iteration # 18     ecut=    71.00 Ry     beta= 0.30
     Davidson diagonalization with overlap
     ethr =  1.79E-08,  avg # of iterations =  1.3

     total cpu time spent up to now is     2211.5 secs

     total energy              =  -10864.18596558 Ry
     estimated scf accuracy    <       0.00004573 Ry

     total magnetization       =     4.03 Bohr mag/cell
     absolute magnetization    =    45.42 Bohr mag/cell

     iteration # 19     ecut=    71.00 Ry     beta= 0.30
     Davidson diagonalization with overlap
     ethr =  8.66E-09,  avg # of iterations =  3.3

     total cpu time spent up to now is     2339.4 secs

     total energy              =  -10864.18600247 Ry
     estimated scf accuracy    <       0.00003830 Ry

     total magnetization       =     4.01 Bohr mag/cell
     absolute magnetization    =    45.33 Bohr mag/cell

     iteration # 20     ecut=    71.00 Ry     beta= 0.30
     Davidson diagonalization with overlap
     ethr =  7.25E-09,  avg # of iterations =  2.0

     total cpu time spent up to now is     2446.0 secs

     total energy              =  -10864.18600877 Ry
     estimated scf accuracy    <       0.00003413 Ry

     total magnetization       =     4.02 Bohr mag/cell
     absolute magnetization    =    45.28 Bohr mag/cell

     iteration # 21     ecut=    71.00 Ry     beta= 0.30
     Davidson diagonalization with overlap
     ethr =  6.46E-09,  avg # of iterations =  3.0

     total cpu time spent up to now is     2573.8 secs

     total energy              =  -10864.18602758 Ry
     estimated scf accuracy    <       0.00001342 Ry

     total magnetization       =     4.05 Bohr mag/cell
     absolute magnetization    =    45.27 Bohr mag/cell

     iteration # 22     ecut=    71.00 Ry     beta= 0.30
     Davidson diagonalization with overlap
     ethr =  2.54E-09,  avg # of iterations =  4.4

     total cpu time spent up to now is     2714.9 secs

     total energy              =  -10864.18603457 Ry
     estimated scf accuracy    <       0.00000799 Ry

     total magnetization       =     4.06 Bohr mag/cell
     absolute magnetization    =    45.21 Bohr mag/cell

     iteration # 23     ecut=    71.00 Ry     beta= 0.30
     Davidson diagonalization with overlap
     ethr =  1.51E-09,  avg # of iterations =  4.3

     total cpu time spent up to now is     2859.7 secs

     total energy              =  -10864.18604915 Ry
     estimated scf accuracy    <       0.00000469 Ry

     total magnetization       =     4.08 Bohr mag/cell
     absolute magnetization    =    45.17 Bohr mag/cell

     iteration # 24     ecut=    71.00 Ry     beta= 0.30
     Davidson diagonalization with overlap
     ethr =  8.89E-10,  avg # of iterations =  3.2

     total cpu time spent up to now is     3013.9 secs

     total energy              =  -10864.18605164 Ry
     estimated scf accuracy    <       0.00000153 Ry

     total magnetization       =     4.08 Bohr mag/cell
     absolute magnetization    =    45.13 Bohr mag/cell

     iteration # 25     ecut=    71.00 Ry     beta= 0.30
     Davidson diagonalization with overlap
     ethr =  2.91E-10,  avg # of iterations =  3.7
 
     Magnetic moment per site:
     atom:    1    charge:   12.8161    magn:    0.0462    constr:    0.0000
     atom:    2    charge:   12.6787    magn:    1.4530    constr:    0.0000
     atom:    3    charge:   12.4787    magn:   -0.0901    constr:    0.0000
     atom:    4    charge:   12.8012    magn:    0.6194    constr:    0.0000
     atom:    5    charge:   12.4787    magn:   -0.0901    constr:    0.0000
     atom:    6    charge:   12.6787    magn:    1.4530    constr:    0.0000
     atom:    7    charge:   12.4787    magn:   -0.0901    constr:    0.0000
     atom:    8    charge:   12.6783    magn:    1.3508    constr:    0.0000
     atom:    9    charge:   12.3389    magn:   -1.3636    constr:    0.0000
     atom:   10    charge:   12.6787    magn:    1.4530    constr:    0.0000
     atom:   11    charge:   12.3394    magn:   -1.3410    constr:    0.0000
     atom:   12    charge:   12.8012    magn:    0.6194    constr:    0.0000
     atom:   13    charge:   12.3394    magn:   -1.3410    constr:    0.0000
     atom:   14    charge:   12.6787    magn:    1.4530    constr:    0.0000
     atom:   15    charge:   12.3394    magn:   -1.3410    constr:    0.0000
     atom:   16    charge:   12.6783    magn:    1.3508    constr:    0.0000
     atom:   17    charge:   12.3369    magn:   -1.3441    constr:    0.0000
     atom:   18    charge:   12.6787    magn:    1.4530    constr:    0.0000
     atom:   19    charge:   12.3389    magn:   -1.3636    constr:    0.0000
     atom:   20    charge:   12.6783    magn:    1.3508    constr:    0.0000
     atom:   21    charge:   12.4787    magn:   -0.0901    constr:    0.0000
     atom:   22    charge:   12.6787    magn:    1.4530    constr:    0.0000
     atom:   23    charge:   12.3389    magn:   -1.3636    constr:    0.0000
     atom:   24    charge:   12.6752    magn:    1.2910    constr:    0.0000
     atom:   25    charge:   12.3389    magn:   -1.3636    constr:    0.0000
     atom:   26    charge:   12.6787    magn:    1.4530    constr:    0.0000
     atom:   27    charge:   12.3369    magn:   -1.3441    constr:    0.0000
     atom:   28    charge:   12.6783    magn:    1.3508    constr:    0.0000
     atom:   29    charge:   12.3394    magn:   -1.3410    constr:    0.0000
     atom:   30    charge:   12.6787    magn:    1.4530    constr:    0.0000
     atom:   31    charge:   12.3369    magn:   -1.3441    constr:    0.0000
     atom:   32    charge:   12.6752    magn:    1.2910    constr:    0.0000
     atom:   33    charge:   12.3369    magn:   -1.3441    constr:    0.0000

     total cpu time spent up to now is     3143.8 secs

     End of self-consistent calculation

     Number of k-points >= 100: set verbosity='high' to print the bands.

     the Fermi energy is    20.8267 ev

!    total energy              =  -10864.18605269 Ry

     total all-electron energy =    -84001.971644 Ry
     estimated scf accuracy    <       0.00000077 Ry
     smearing contrib. (-TS)   =       0.19221607 Ry
     internal energy E=F+TS    =  -10864.37826876 Ry

     The total energy is F=E-TS. E is the sum of the following terms:
     one-electron contribution =   -3492.93275125 Ry
     hartree contribution      =    2120.95568706 Ry
     xc contribution           =    -916.89545222 Ry
     ewald contribution        =   -5843.30604005 Ry
     one-center paw contrib.   =   -2732.19971231 Ry

     total magnetization       =     4.07 Bohr mag/cell
     absolute magnetization    =    45.11 Bohr mag/cell

     convergence has been achieved in  25 iterations

     Forces acting on atoms (cartesian axes, Ry/au):

     atom    1 type  3   force =     0.00000000    0.00000000    0.00000000
     atom    2 type  1   force =    -0.00854539   -0.00605476   -0.00854539
     atom    3 type  2   force =     0.00000000    0.00000000   -0.58666275
     atom    4 type  1   force =     0.00000000   -0.44958429   -0.00000000
     atom    5 type  2   force =    -0.58666275    0.00000000    0.00000000
     atom    6 type  1   force =    -0.00854539   -0.00605476    0.00854539
     atom    7 type  2   force =     0.00000000    0.00000000    0.58666275
     atom    8 type  1   force =     0.00000000   -0.00909399    0.00000000
     atom    9 type  2   force =    -0.01097614    0.00000000    0.00000000
     atom   10 type  1   force =    -0.00854539    0.00605476   -0.00854539
     atom   11 type  2   force =     0.00000000    0.00000000   -0.00425768
     atom   12 type  1   force =     0.00000000    0.44958429   -0.00000000
     atom   13 type  2   force =    -0.00425768   -0.00000000    0.00000000
     atom   14 type  1   force =    -0.00854539    0.00605476    0.00854539
     atom   15 type  2   force =     0.00000000    0.00000000    0.00425768
     atom   16 type  1   force =     0.00000000    0.00909399    0.00000000
     atom   17 type  2   force =    -0.00122837   -0.00000000    0.00000000
     atom   18 type  1   force =     0.00854539   -0.00605476   -0.00854539
     atom   19 type  2   force =     0.00000000    0.00000000   -0.01097614
     atom   20 type  1   force =     0.00000000   -0.00909399    0.00000000
     atom   21 type  2   force =     0.58666275    0.00000000    0.00000000
     atom   22 type  1   force =     0.00854539   -0.00605476    0.00854539
     atom   23 type  2   force =     0.00000000    0.00000000    0.01097614
     atom   24 type  1   force =     0.00000000    0.00219247    0.00000000
     atom   25 type  2   force =     0.01097614    0.00000000    0.00000000
     atom   26 type  1   force =     0.00854539    0.00605476   -0.00854539
     atom   27 type  2   force =     0.00000000   -0.00000000   -0.00122837
     atom   28 type  1   force =     0.00000000    0.00909399    0.00000000
     atom   29 type  2   force =     0.00425768   -0.00000000    0.00000000
     atom   30 type  1   force =     0.00854539    0.00605476    0.00854539
     atom   31 type  2   force =     0.00000000   -0.00000000    0.00122837
     atom   32 type  1   force =     0.00000000   -0.00219247    0.00000000
     atom   33 type  2   force =     0.00122837    0.00000000    0.00000000

     Total force =     1.335405     Total SCF correction =     0.004563


     Computing stress (Cartesian axis) and pressure

          total   stress  (Ry/bohr**3)                   (kbar)     P=      255.57
   0.00197163   0.00000000   0.00000000          290.04        0.00        0.00
   0.00000000   0.00126870   0.00000000            0.00      186.63        0.00
   0.00000000   0.00000000   0.00197163            0.00        0.00      290.04


     Writing output data file /scratch/bxp912/feocta1g.save/
 
     init_run     :     36.40s CPU     38.12s WALL (       1 calls)
     electrons    :   3014.73s CPU   3102.79s WALL (       1 calls)
     forces       :     21.27s CPU     21.44s WALL (       1 calls)
     stress       :     97.59s CPU     98.39s WALL (       1 calls)

     Called by init_run:
     wfcinit      :     35.30s CPU     36.93s WALL (       1 calls)
     potinit      :      0.48s CPU      0.50s WALL (       1 calls)
     hinit0       :      0.31s CPU      0.31s WALL (       1 calls)

     Called by electrons:
     c_bands      :   2666.29s CPU   2699.75s WALL (      25 calls)
     sum_band     :    341.66s CPU    347.82s WALL (      25 calls)
     v_of_rho     :      0.63s CPU      0.67s WALL (      26 calls)
     newd         :      1.32s CPU      1.56s WALL (      26 calls)
     PAW_pot      :      4.65s CPU      4.88s WALL (      26 calls)
     mix_rho      :      0.41s CPU      0.47s WALL (      25 calls)

     Called by c_bands:
     init_us_2    :     11.93s CPU     12.18s WALL (    7950 calls)
     cegterg      :   2619.76s CPU   2650.95s WALL (    3750 calls)

     Called by *egterg:
     cdiaghg      :    393.35s CPU    395.97s WALL (   16452 calls)
     h_psi        :   1410.46s CPU   1434.25s WALL (   16602 calls)
     s_psi        :    108.65s CPU    109.61s WALL (   16602 calls)
     g_psi        :      2.53s CPU      2.57s WALL (   12702 calls)

     Called by h_psi:
     h_psi:calbec :    220.43s CPU    222.05s WALL (   16602 calls)
     vloc_psi     :   1076.68s CPU   1096.66s WALL (   16602 calls)
     add_vuspsi   :    107.56s CPU    109.71s WALL (   16602 calls)

     General routines
     calbec       :    337.96s CPU    340.36s WALL (   21102 calls)
     fft          :      0.52s CPU      0.55s WALL (     688 calls)
     ffts         :      0.22s CPU      0.23s WALL (     590 calls)
     fftw         :   1277.09s CPU   1300.39s WALL ( 6989538 calls)
     interpolate  :      0.10s CPU      0.10s WALL (      52 calls)
 
     Parallel routines
     fft_scatt_xy :     57.83s CPU     58.91s WALL ( 6990816 calls)
     fft_scatt_yz :   1109.01s CPU   1129.61s WALL ( 6990816 calls)
 
     PWSCF        :  53m20.82s CPU  54m56.89s WALL

 
   This run was terminated on:  18:10:32  12Jan2022            

=------------------------------------------------------------------------------=
   JOB DONE.
=------------------------------------------------------------------------------=
