
     Program PWSCF v.6.7MaX starts on 12Jan2022 at 15:46:59 

     This program is part of the open-source Quantum ESPRESSO suite
     for quantum simulation of materials; please cite
         "P. Giannozzi et al., J. Phys.:Condens. Matter 21 395502 (2009);
         "P. Giannozzi et al., J. Phys.:Condens. Matter 29 465901 (2017);
          URL http://www.quantum-espresso.org", 
     in publications or presentations arising from this work. More details at
     http://www.quantum-espresso.org/quote

     Parallel version (MPI & OpenMP), running on      72 processor cores
     Number of MPI processes:                72
     Threads/MPI process:                     1

     MPI processes distributed on     1 nodes
     R & G space division:  proc/nbgrp/npool/nimage =      72
     Reading input from fe_octa_1_revised_4.in
Warning: card &CELL ignored
Warning: card CELL_DYNAMICS = 'BFGS', ignored
Warning: card CELL_FACTOR = 2.0, ignored
Warning: card PRESS = 0.0, ignored
Warning: card / ignored

     Current dimensions of program PWSCF are:
     Max number of different atomic species (ntypx) = 10
     Max number of k-points (npk) =  40000
     Max angular momentum in pseudopotentials (lmaxx) =  3
     file Fe.pbe-spn-kjpaw_psl.1.0.0.UPF: wavefunction(s)  3P 3D renormalized
     file Fe.pbe-spn-kjpaw_psl.1.0.0.UPF: wavefunction(s)  3P 3D renormalized
     file Fe.pbe-spn-kjpaw_psl.1.0.0.UPF: wavefunction(s)  3P 3D renormalized

     Subspace diagonalization in iterative solution of the eigenvalue problem:
     one sub-group per band group will be used
     ELPA distributed-memory algorithm (size of sub-group:  8*  8 procs)

     Message from routine setup:
     using ibrav=0 with symmetry is DISCOURAGED, use correct ibrav instead
 
     Parallelization info
     --------------------
     sticks:   dense  smooth     PW     G-vecs:    dense   smooth      PW
     Min          83      55     15                 4773     2563     367
     Max          84      56     16                 4778     2568     371
     Sum        6035    3993   1103               343891   184641   26583
 


     bravais-lattice index     =            0
     lattice parameter (alat)  =      12.9382  a.u.
     unit-cell volume          =    2283.7811 (a.u.)^3
     number of atoms/cell      =           33
     number of atomic types    =            3
     number of electrons       =       528.00
     number of Kohn-Sham states=          320
     kinetic-energy cutoff     =      71.0000  Ry
     charge density cutoff     =     430.0000  Ry
     scf convergence threshold =      1.0E-06
     mixing beta               =       0.3000
     number of iterations used =           10  local-TF  mixing
     Exchange-correlation= SLA  PW   PBX  PBC
                           (   1   4   3   4   0   0   0)

     celldm(1)=  12.938187  celldm(2)=   0.000000  celldm(3)=   0.000000
     celldm(4)=   0.000000  celldm(5)=   0.000000  celldm(6)=   0.000000

     crystal axes: (cart. coord. in units of alat)
               a(1) = (   1.000000   0.000000   0.000000 )  
               a(2) = (   0.000000   1.054470   0.000000 )  
               a(3) = (   0.000000   0.000000   1.000000 )  

     reciprocal axes: (cart. coord. in units 2 pi/alat)
               b(1) = (  1.000000  0.000000  0.000000 )  
               b(2) = (  0.000000  0.948344  0.000000 )  
               b(3) = (  0.000000  0.000000  1.000000 )  


     PseudoPot. # 1 for Fe read from file:
     /rds/homes/b/bxp912/pp/Fe.pbe-spn-kjpaw_psl.1.0.0.UPF
     MD5 check sum: 42f43b795421b414b0dc916aa790dbcb
     Pseudo is Projector augmented-wave + core cor, Zval = 16.0
     Generated using &quot;atomic&quot; code by A. Dal Corso  v.6.3
     Shape of augmentation charge: PSQ
     Using radial grid of 1191 points,  6 beta functions with: 
                l(1) =   0
                l(2) =   0
                l(3) =   1
                l(4) =   1
                l(5) =   2
                l(6) =   2
     Q(r) pseudized with 0 coefficients 


     PseudoPot. # 2 for Fe read from file:
     /rds/homes/b/bxp912/pp/Fe.pbe-spn-kjpaw_psl.1.0.0.UPF
     MD5 check sum: 42f43b795421b414b0dc916aa790dbcb
     Pseudo is Projector augmented-wave + core cor, Zval = 16.0
     Generated using &quot;atomic&quot; code by A. Dal Corso  v.6.3
     Shape of augmentation charge: PSQ
     Using radial grid of 1191 points,  6 beta functions with: 
                l(1) =   0
                l(2) =   0
                l(3) =   1
                l(4) =   1
                l(5) =   2
                l(6) =   2
     Q(r) pseudized with 0 coefficients 


     PseudoPot. # 3 for Fe read from file:
     /rds/homes/b/bxp912/pp/Fe.pbe-spn-kjpaw_psl.1.0.0.UPF
     MD5 check sum: 42f43b795421b414b0dc916aa790dbcb
     Pseudo is Projector augmented-wave + core cor, Zval = 16.0
     Generated using &quot;atomic&quot; code by A. Dal Corso  v.6.3
     Shape of augmentation charge: PSQ
     Using radial grid of 1191 points,  6 beta functions with: 
                l(1) =   0
                l(2) =   0
                l(3) =   1
                l(4) =   1
                l(5) =   2
                l(6) =   2
     Q(r) pseudized with 0 coefficients 


     atomic species   valence    mass     pseudopotential
        Fe1           16.00    55.84500     Fe( 1.00)
        Fe2           16.00    55.84500     Fe( 1.00)
        Fe3           16.00    55.84500     Fe( 1.00)

     Starting magnetic structure 
     atomic species   magnetization
        Fe1          0.100
        Fe2         -0.100
        Fe3         -0.010

     16 Sym. Ops., with inversion, found (14 have fractional translation)



   Cartesian axes

     site n.     atom                  positions (alat units)
         1           Fe3 tau(   1) = (   0.2500000   0.2636175   0.2500000  )
         2           Fe1 tau(   2) = (   0.0000000   0.0000000   0.0000000  )
         3           Fe2 tau(   3) = (   0.2500000   0.2636175   0.0000000  )
         4           Fe1 tau(   4) = (   0.2500000   0.0000000   0.2500000  )
         5           Fe2 tau(   5) = (   0.0000000   0.2636175   0.2500000  )
         6           Fe1 tau(   6) = (   0.0000000   0.0000000   0.5000000  )
         7           Fe2 tau(   7) = (   0.2500000   0.2636175   0.5000000  )
         8           Fe1 tau(   8) = (   0.2500000   0.0000000   0.7500000  )
         9           Fe2 tau(   9) = (   0.0000000   0.2636175   0.7500000  )
        10           Fe1 tau(  10) = (   0.0000000   0.5272350   0.0000000  )
        11           Fe2 tau(  11) = (   0.2500000   0.7908525   0.0000000  )
        12           Fe1 tau(  12) = (   0.2500000   0.5272350   0.2500000  )
        13           Fe2 tau(  13) = (   0.0000000   0.7908525   0.2500000  )
        14           Fe1 tau(  14) = (   0.0000000   0.5272350   0.5000000  )
        15           Fe2 tau(  15) = (   0.2500000   0.7908525   0.5000000  )
        16           Fe1 tau(  16) = (   0.2500000   0.5272350   0.7500000  )
        17           Fe2 tau(  17) = (   0.0000000   0.7908525   0.7500000  )
        18           Fe1 tau(  18) = (   0.5000000   0.0000000   0.0000000  )
        19           Fe2 tau(  19) = (   0.7500000   0.2636175   0.0000000  )
        20           Fe1 tau(  20) = (   0.7500000   0.0000000   0.2500000  )
        21           Fe2 tau(  21) = (   0.5000000   0.2636175   0.2500000  )
        22           Fe1 tau(  22) = (   0.5000000   0.0000000   0.5000000  )
        23           Fe2 tau(  23) = (   0.7500000   0.2636175   0.5000000  )
        24           Fe1 tau(  24) = (   0.7500000   0.0000000   0.7500000  )
        25           Fe2 tau(  25) = (   0.5000000   0.2636175   0.7500000  )
        26           Fe1 tau(  26) = (   0.5000000   0.5272350   0.0000000  )
        27           Fe2 tau(  27) = (   0.7500000   0.7908525   0.0000000  )
        28           Fe1 tau(  28) = (   0.7500000   0.5272350   0.2500000  )
        29           Fe2 tau(  29) = (   0.5000000   0.7908525   0.2500000  )
        30           Fe1 tau(  30) = (   0.5000000   0.5272350   0.5000000  )
        31           Fe2 tau(  31) = (   0.7500000   0.7908525   0.5000000  )
        32           Fe1 tau(  32) = (   0.7500000   0.5272350   0.7500000  )
        33           Fe2 tau(  33) = (   0.5000000   0.7908525   0.7500000  )

     number of k points=    75  Marzari-Vanderbilt smearing, width (Ry)=  0.0400
                       cart. coord. in units 2pi/alat
        k(    1) = (   0.0555556   0.0526858   0.0555556), wk =   0.0109739
        k(    2) = (   0.0555556   0.0526858   0.1666667), wk =   0.0219479
        k(    3) = (   0.0555556   0.0526858   0.2777778), wk =   0.0219479
        k(    4) = (   0.0555556   0.0526858   0.3888889), wk =   0.0219479
        k(    5) = (   0.0555556   0.0526858  -0.5000000), wk =   0.0109739
        k(    6) = (   0.0555556   0.1580573   0.0555556), wk =   0.0109739
        k(    7) = (   0.0555556   0.1580573   0.1666667), wk =   0.0219479
        k(    8) = (   0.0555556   0.1580573   0.2777778), wk =   0.0219479
        k(    9) = (   0.0555556   0.1580573   0.3888889), wk =   0.0219479
        k(   10) = (   0.0555556   0.1580573  -0.5000000), wk =   0.0109739
        k(   11) = (   0.0555556   0.2634288   0.0555556), wk =   0.0109739
        k(   12) = (   0.0555556   0.2634288   0.1666667), wk =   0.0219479
        k(   13) = (   0.0555556   0.2634288   0.2777778), wk =   0.0219479
        k(   14) = (   0.0555556   0.2634288   0.3888889), wk =   0.0219479
        k(   15) = (   0.0555556   0.2634288  -0.5000000), wk =   0.0109739
        k(   16) = (   0.0555556   0.3688003   0.0555556), wk =   0.0109739
        k(   17) = (   0.0555556   0.3688003   0.1666667), wk =   0.0219479
        k(   18) = (   0.0555556   0.3688003   0.2777778), wk =   0.0219479
        k(   19) = (   0.0555556   0.3688003   0.3888889), wk =   0.0219479
        k(   20) = (   0.0555556   0.3688003  -0.5000000), wk =   0.0109739
        k(   21) = (   0.0555556  -0.4741719   0.0555556), wk =   0.0054870
        k(   22) = (   0.0555556  -0.4741719   0.1666667), wk =   0.0109739
        k(   23) = (   0.0555556  -0.4741719   0.2777778), wk =   0.0109739
        k(   24) = (   0.0555556  -0.4741719   0.3888889), wk =   0.0109739
        k(   25) = (   0.0555556  -0.4741719  -0.5000000), wk =   0.0054870
        k(   26) = (   0.1666667   0.0526858   0.1666667), wk =   0.0109739
        k(   27) = (   0.1666667   0.0526858   0.2777778), wk =   0.0219479
        k(   28) = (   0.1666667   0.0526858   0.3888889), wk =   0.0219479
        k(   29) = (   0.1666667   0.0526858  -0.5000000), wk =   0.0109739
        k(   30) = (   0.1666667   0.1580573   0.1666667), wk =   0.0109739
        k(   31) = (   0.1666667   0.1580573   0.2777778), wk =   0.0219479
        k(   32) = (   0.1666667   0.1580573   0.3888889), wk =   0.0219479
        k(   33) = (   0.1666667   0.1580573  -0.5000000), wk =   0.0109739
        k(   34) = (   0.1666667   0.2634288   0.1666667), wk =   0.0109739
        k(   35) = (   0.1666667   0.2634288   0.2777778), wk =   0.0219479
        k(   36) = (   0.1666667   0.2634288   0.3888889), wk =   0.0219479
        k(   37) = (   0.1666667   0.2634288  -0.5000000), wk =   0.0109739
        k(   38) = (   0.1666667   0.3688003   0.1666667), wk =   0.0109739
        k(   39) = (   0.1666667   0.3688003   0.2777778), wk =   0.0219479
        k(   40) = (   0.1666667   0.3688003   0.3888889), wk =   0.0219479
        k(   41) = (   0.1666667   0.3688003  -0.5000000), wk =   0.0109739
        k(   42) = (   0.1666667  -0.4741719   0.1666667), wk =   0.0054870
        k(   43) = (   0.1666667  -0.4741719   0.2777778), wk =   0.0109739
        k(   44) = (   0.1666667  -0.4741719   0.3888889), wk =   0.0109739
        k(   45) = (   0.1666667  -0.4741719  -0.5000000), wk =   0.0054870
        k(   46) = (   0.2777778   0.0526858   0.2777778), wk =   0.0109739
        k(   47) = (   0.2777778   0.0526858   0.3888889), wk =   0.0219479
        k(   48) = (   0.2777778   0.0526858  -0.5000000), wk =   0.0109739
        k(   49) = (   0.2777778   0.1580573   0.2777778), wk =   0.0109739
        k(   50) = (   0.2777778   0.1580573   0.3888889), wk =   0.0219479
        k(   51) = (   0.2777778   0.1580573  -0.5000000), wk =   0.0109739
        k(   52) = (   0.2777778   0.2634288   0.2777778), wk =   0.0109739
        k(   53) = (   0.2777778   0.2634288   0.3888889), wk =   0.0219479
        k(   54) = (   0.2777778   0.2634288  -0.5000000), wk =   0.0109739
        k(   55) = (   0.2777778   0.3688003   0.2777778), wk =   0.0109739
        k(   56) = (   0.2777778   0.3688003   0.3888889), wk =   0.0219479
        k(   57) = (   0.2777778   0.3688003  -0.5000000), wk =   0.0109739
        k(   58) = (   0.2777778  -0.4741719   0.2777778), wk =   0.0054870
        k(   59) = (   0.2777778  -0.4741719   0.3888889), wk =   0.0109739
        k(   60) = (   0.2777778  -0.4741719  -0.5000000), wk =   0.0054870
        k(   61) = (   0.3888889   0.0526858   0.3888889), wk =   0.0109739
        k(   62) = (   0.3888889   0.0526858  -0.5000000), wk =   0.0109739
        k(   63) = (   0.3888889   0.1580573   0.3888889), wk =   0.0109739
        k(   64) = (   0.3888889   0.1580573  -0.5000000), wk =   0.0109739
        k(   65) = (   0.3888889   0.2634288   0.3888889), wk =   0.0109739
        k(   66) = (   0.3888889   0.2634288  -0.5000000), wk =   0.0109739
        k(   67) = (   0.3888889   0.3688003   0.3888889), wk =   0.0109739
        k(   68) = (   0.3888889   0.3688003  -0.5000000), wk =   0.0109739
        k(   69) = (   0.3888889  -0.4741719   0.3888889), wk =   0.0054870
        k(   70) = (   0.3888889  -0.4741719  -0.5000000), wk =   0.0054870
        k(   71) = (  -0.5000000   0.0526858  -0.5000000), wk =   0.0027435
        k(   72) = (  -0.5000000   0.1580573  -0.5000000), wk =   0.0027435
        k(   73) = (  -0.5000000   0.2634288  -0.5000000), wk =   0.0027435
        k(   74) = (  -0.5000000   0.3688003  -0.5000000), wk =   0.0027435
        k(   75) = (  -0.5000000  -0.4741719  -0.5000000), wk =   0.0013717

     Dense  grid:   343891 G-vectors     FFT dimensions: (  90,  96,  90)

     Smooth grid:   184641 G-vectors     FFT dimensions: (  72,  80,  72)

     Estimated max dynamical RAM per process >     267.09 MB

     Estimated total dynamical RAM >      18.78 GB

     Check: negative core charge=   -0.000006
     Generating pointlists ...
     new r_m :   0.1087 (alat units)  1.4069 (a.u.) for type    1
     new r_m :   0.1031 (alat units)  1.3343 (a.u.) for type    2
     new r_m :   0.1031 (alat units)  1.3343 (a.u.) for type    3

     Initial potential from superposition of free atoms

     starting charge  527.98556, renormalised to  528.00000
     Starting wfcs are  330 randomized atomic wfcs
     Checking if some PAW data can be deallocated... 

     total cpu time spent up to now is       40.5 secs

     Self-consistent Calculation

     iteration #  1     ecut=    71.00 Ry     beta= 0.30
     Davidson diagonalization with overlap
     ethr =  1.00E-02,  avg # of iterations =  4.2

     total cpu time spent up to now is      175.0 secs

     total energy              =  -10862.52721828 Ry
     estimated scf accuracy    <      25.74762426 Ry

     total magnetization       =     1.63 Bohr mag/cell
     absolute magnetization    =    42.51 Bohr mag/cell

     iteration #  2     ecut=    71.00 Ry     beta= 0.30
     Davidson diagonalization with overlap
     ethr =  4.88E-03,  avg # of iterations =  1.0

     total cpu time spent up to now is      267.1 secs

     total energy              =  -10863.64634037 Ry
     estimated scf accuracy    <      15.82207693 Ry

     total magnetization       =     1.43 Bohr mag/cell
     absolute magnetization    =    40.40 Bohr mag/cell

     iteration #  3     ecut=    71.00 Ry     beta= 0.30
     Davidson diagonalization with overlap
     ethr =  3.00E-03,  avg # of iterations =  1.0

     total cpu time spent up to now is      361.1 secs

     total energy              =  -10864.15743228 Ry
     estimated scf accuracy    <       0.88105823 Ry

     total magnetization       =     2.19 Bohr mag/cell
     absolute magnetization    =    42.43 Bohr mag/cell

     iteration #  4     ecut=    71.00 Ry     beta= 0.30
     Davidson diagonalization with overlap
     ethr =  1.67E-04,  avg # of iterations =  3.5

     total cpu time spent up to now is      468.8 secs

     total energy              =  -10864.14269805 Ry
     estimated scf accuracy    <       0.29779268 Ry

     total magnetization       =     2.48 Bohr mag/cell
     absolute magnetization    =    42.67 Bohr mag/cell

     iteration #  5     ecut=    71.00 Ry     beta= 0.30
     Davidson diagonalization with overlap
     ethr =  5.64E-05,  avg # of iterations =  3.6

     total cpu time spent up to now is      591.8 secs

     total energy              =  -10864.18206150 Ry
     estimated scf accuracy    <       0.22664321 Ry

     total magnetization       =     2.66 Bohr mag/cell
     absolute magnetization    =    43.05 Bohr mag/cell

     iteration #  6     ecut=    71.00 Ry     beta= 0.30
     Davidson diagonalization with overlap
     ethr =  4.29E-05,  avg # of iterations =  2.3

     total cpu time spent up to now is      695.7 secs

     total energy              =  -10864.19808014 Ry
     estimated scf accuracy    <       0.10309472 Ry

     total magnetization       =     3.07 Bohr mag/cell
     absolute magnetization    =    43.11 Bohr mag/cell

     iteration #  7     ecut=    71.00 Ry     beta= 0.30
     Davidson diagonalization with overlap
     c_bands:  2 eigenvalues not converged
     c_bands:  1 eigenvalues not converged
     c_bands:  2 eigenvalues not converged
     c_bands:  1 eigenvalues not converged
     c_bands:  1 eigenvalues not converged
     ethr =  1.95E-05,  avg # of iterations =  4.2

     total cpu time spent up to now is      801.4 secs

     total energy              =  -10864.21180026 Ry
     estimated scf accuracy    <       0.04281304 Ry

     total magnetization       =     3.41 Bohr mag/cell
     absolute magnetization    =    43.07 Bohr mag/cell

     iteration #  8     ecut=    71.00 Ry     beta= 0.30
     Davidson diagonalization with overlap
     c_bands:  1 eigenvalues not converged
     c_bands:  2 eigenvalues not converged
     c_bands:  1 eigenvalues not converged
     c_bands:  1 eigenvalues not converged
     c_bands:  2 eigenvalues not converged
     ethr =  8.11E-06,  avg # of iterations =  6.2

     total cpu time spent up to now is      931.1 secs

     total energy              =  -10864.21764163 Ry
     estimated scf accuracy    <       0.02834802 Ry

     total magnetization       =     3.72 Bohr mag/cell
     absolute magnetization    =    43.05 Bohr mag/cell

     iteration #  9     ecut=    71.00 Ry     beta= 0.30
     Davidson diagonalization with overlap
     c_bands:  1 eigenvalues not converged
     c_bands:  1 eigenvalues not converged
     c_bands:  1 eigenvalues not converged
     ethr =  5.37E-06,  avg # of iterations =  3.3

     total cpu time spent up to now is     1040.3 secs

     total energy              =  -10864.22090328 Ry
     estimated scf accuracy    <       0.00655383 Ry

     total magnetization       =     4.01 Bohr mag/cell
     absolute magnetization    =    43.16 Bohr mag/cell

     iteration # 10     ecut=    71.00 Ry     beta= 0.30
     Davidson diagonalization with overlap
     c_bands:  1 eigenvalues not converged
     c_bands:  1 eigenvalues not converged
     c_bands:  1 eigenvalues not converged
     ethr =  1.24E-06,  avg # of iterations =  4.4

     total cpu time spent up to now is     1156.7 secs

     total energy              =  -10864.22273095 Ry
     estimated scf accuracy    <       0.00380585 Ry

     total magnetization       =     4.21 Bohr mag/cell
     absolute magnetization    =    43.22 Bohr mag/cell

     iteration # 11     ecut=    71.00 Ry     beta= 0.30
     Davidson diagonalization with overlap
     ethr =  7.21E-07,  avg # of iterations =  3.8

     total cpu time spent up to now is     1285.2 secs

     total energy              =  -10864.22510621 Ry
     estimated scf accuracy    <       0.00544108 Ry

     total magnetization       =     4.57 Bohr mag/cell
     absolute magnetization    =    43.31 Bohr mag/cell

     iteration # 12     ecut=    71.00 Ry     beta= 0.30
     Davidson diagonalization with overlap
     ethr =  7.21E-07,  avg # of iterations =  2.0

     total cpu time spent up to now is     1388.3 secs

     total energy              =  -10864.22646633 Ry
     estimated scf accuracy    <       0.00413996 Ry

     total magnetization       =     4.77 Bohr mag/cell
     absolute magnetization    =    43.34 Bohr mag/cell

     iteration # 13     ecut=    71.00 Ry     beta= 0.30
     Davidson diagonalization with overlap
     ethr =  7.21E-07,  avg # of iterations =  2.2

     total cpu time spent up to now is     1497.1 secs

     total energy              =  -10864.22139995 Ry
     estimated scf accuracy    <       0.00230411 Ry

     total magnetization       =     5.00 Bohr mag/cell
     absolute magnetization    =    43.41 Bohr mag/cell

     iteration # 14     ecut=    71.00 Ry     beta= 0.30
     Davidson diagonalization with overlap
     c_bands:  2 eigenvalues not converged
     ethr =  4.36E-07,  avg # of iterations =  5.9

     total cpu time spent up to now is     1659.1 secs

     total energy              =  -10864.23112538 Ry
     estimated scf accuracy    <       0.00089305 Ry

     total magnetization       =     5.96 Bohr mag/cell
     absolute magnetization    =    44.25 Bohr mag/cell

     iteration # 15     ecut=    71.00 Ry     beta= 0.30
     Davidson diagonalization with overlap
     ethr =  1.69E-07,  avg # of iterations =  2.1

     total cpu time spent up to now is     1762.7 secs

     total energy              =  -10864.23133207 Ry
     estimated scf accuracy    <       0.00042851 Ry

     total magnetization       =     5.95 Bohr mag/cell
     absolute magnetization    =    44.24 Bohr mag/cell

     iteration # 16     ecut=    71.00 Ry     beta= 0.30
     Davidson diagonalization with overlap
     ethr =  8.12E-08,  avg # of iterations =  2.3

     total cpu time spent up to now is     1876.3 secs

     total energy              =  -10864.23156850 Ry
     estimated scf accuracy    <       0.00030075 Ry

     total magnetization       =     6.03 Bohr mag/cell
     absolute magnetization    =    44.33 Bohr mag/cell

     iteration # 17     ecut=    71.00 Ry     beta= 0.30
     Davidson diagonalization with overlap
     ethr =  5.70E-08,  avg # of iterations =  3.5

     total cpu time spent up to now is     2001.3 secs

     total energy              =  -10864.23170158 Ry
     estimated scf accuracy    <       0.00017650 Ry

     total magnetization       =     6.11 Bohr mag/cell
     absolute magnetization    =    44.41 Bohr mag/cell

     iteration # 18     ecut=    71.00 Ry     beta= 0.30
     Davidson diagonalization with overlap
     ethr =  3.34E-08,  avg # of iterations =  4.5

     total cpu time spent up to now is     2141.7 secs

     total energy              =  -10864.23196372 Ry
     estimated scf accuracy    <       0.00007489 Ry

     total magnetization       =     6.19 Bohr mag/cell
     absolute magnetization    =    44.51 Bohr mag/cell

     iteration # 19     ecut=    71.00 Ry     beta= 0.30
     Davidson diagonalization with overlap
     ethr =  1.42E-08,  avg # of iterations =  1.5

     total cpu time spent up to now is     2241.9 secs

     total energy              =  -10864.23199406 Ry
     estimated scf accuracy    <       0.00004732 Ry

     total magnetization       =     6.18 Bohr mag/cell
     absolute magnetization    =    44.48 Bohr mag/cell

     iteration # 20     ecut=    71.00 Ry     beta= 0.30
     Davidson diagonalization with overlap
     ethr =  8.96E-09,  avg # of iterations =  2.1

     total cpu time spent up to now is     2350.9 secs

     total energy              =  -10864.23200542 Ry
     estimated scf accuracy    <       0.00003213 Ry

     total magnetization       =     6.15 Bohr mag/cell
     absolute magnetization    =    44.44 Bohr mag/cell

     iteration # 21     ecut=    71.00 Ry     beta= 0.30
     Davidson diagonalization with overlap
     ethr =  6.08E-09,  avg # of iterations =  3.0

     total cpu time spent up to now is     2472.9 secs

     total energy              =  -10864.23203870 Ry
     estimated scf accuracy    <       0.00002154 Ry

     total magnetization       =     6.15 Bohr mag/cell
     absolute magnetization    =    44.46 Bohr mag/cell

     iteration # 22     ecut=    71.00 Ry     beta= 0.30
     Davidson diagonalization with overlap
     ethr =  4.08E-09,  avg # of iterations =  2.2

     total cpu time spent up to now is     2580.4 secs

     total energy              =  -10864.23203948 Ry
     estimated scf accuracy    <       0.00001604 Ry

     total magnetization       =     6.13 Bohr mag/cell
     absolute magnetization    =    44.44 Bohr mag/cell

     iteration # 23     ecut=    71.00 Ry     beta= 0.30
     Davidson diagonalization with overlap
     ethr =  3.04E-09,  avg # of iterations =  4.4

     total cpu time spent up to now is     2719.7 secs

     total energy              =  -10864.23206536 Ry
     estimated scf accuracy    <       0.00000841 Ry

     total magnetization       =     6.09 Bohr mag/cell
     absolute magnetization    =    44.40 Bohr mag/cell

     iteration # 24     ecut=    71.00 Ry     beta= 0.30
     Davidson diagonalization with overlap
     ethr =  1.59E-09,  avg # of iterations =  3.1

     total cpu time spent up to now is     2847.5 secs

     total energy              =  -10864.23207667 Ry
     estimated scf accuracy    <       0.00000540 Ry

     total magnetization       =     6.06 Bohr mag/cell
     absolute magnetization    =    44.39 Bohr mag/cell

     iteration # 25     ecut=    71.00 Ry     beta= 0.30
     Davidson diagonalization with overlap
     ethr =  1.02E-09,  avg # of iterations =  2.5

     total cpu time spent up to now is     2962.8 secs

     total energy              =  -10864.23207999 Ry
     estimated scf accuracy    <       0.00000414 Ry

     total magnetization       =     6.04 Bohr mag/cell
     absolute magnetization    =    44.37 Bohr mag/cell

     iteration # 26     ecut=    71.00 Ry     beta= 0.30
     Davidson diagonalization with overlap
     ethr =  7.84E-10,  avg # of iterations =  2.3

     total cpu time spent up to now is     3072.1 secs

     total energy              =  -10864.23207738 Ry
     estimated scf accuracy    <       0.00000380 Ry

     total magnetization       =     6.02 Bohr mag/cell
     absolute magnetization    =    44.36 Bohr mag/cell

     iteration # 27     ecut=    71.00 Ry     beta= 0.30
     Davidson diagonalization with overlap
     ethr =  7.20E-10,  avg # of iterations =  4.4

     total cpu time spent up to now is     3215.5 secs

     total energy              =  -10864.23208702 Ry
     estimated scf accuracy    <       0.00000162 Ry

     total magnetization       =     5.99 Bohr mag/cell
     absolute magnetization    =    44.35 Bohr mag/cell

     iteration # 28     ecut=    71.00 Ry     beta= 0.30
     Davidson diagonalization with overlap
     ethr =  3.07E-10,  avg # of iterations =  2.7

     total cpu time spent up to now is     3337.7 secs

     total energy              =  -10864.23208731 Ry
     estimated scf accuracy    <       0.00000133 Ry

     total magnetization       =     5.98 Bohr mag/cell
     absolute magnetization    =    44.35 Bohr mag/cell

     iteration # 29     ecut=    71.00 Ry     beta= 0.30
     Davidson diagonalization with overlap
     ethr =  2.52E-10,  avg # of iterations =  4.0
 
     Magnetic moment per site:
     atom:    1    charge:   12.8149    magn:    0.0474    constr:    0.0000
     atom:    2    charge:   12.6772    magn:    1.4996    constr:    0.0000
     atom:    3    charge:   12.4811    magn:    0.1912    constr:    0.0000
     atom:    4    charge:   12.8021    magn:    0.7854    constr:    0.0000
     atom:    5    charge:   12.4811    magn:    0.1912    constr:    0.0000
     atom:    6    charge:   12.6772    magn:    1.4996    constr:    0.0000
     atom:    7    charge:   12.4811    magn:    0.1912    constr:    0.0000
     atom:    8    charge:   12.6798    magn:    1.2301    constr:    0.0000
     atom:    9    charge:   12.3386    magn:   -1.3223    constr:    0.0000
     atom:   10    charge:   12.6772    magn:    1.4996    constr:    0.0000
     atom:   11    charge:   12.3400    magn:   -1.2473    constr:    0.0000
     atom:   12    charge:   12.8021    magn:    0.7854    constr:    0.0000
     atom:   13    charge:   12.3400    magn:   -1.2473    constr:    0.0000
     atom:   14    charge:   12.6772    magn:    1.4996    constr:    0.0000
     atom:   15    charge:   12.3400    magn:   -1.2473    constr:    0.0000
     atom:   16    charge:   12.6798    magn:    1.2301    constr:    0.0000
     atom:   17    charge:   12.3370    magn:   -1.3067    constr:    0.0000
     atom:   18    charge:   12.6772    magn:    1.4996    constr:    0.0000
     atom:   19    charge:   12.3386    magn:   -1.3223    constr:    0.0000
     atom:   20    charge:   12.6798    magn:    1.2301    constr:    0.0000
     atom:   21    charge:   12.4811    magn:    0.1912    constr:    0.0000
     atom:   22    charge:   12.6772    magn:    1.4996    constr:    0.0000
     atom:   23    charge:   12.3386    magn:   -1.3223    constr:    0.0000
     atom:   24    charge:   12.6769    magn:    1.1313    constr:    0.0000
     atom:   25    charge:   12.3386    magn:   -1.3223    constr:    0.0000
     atom:   26    charge:   12.6772    magn:    1.4996    constr:    0.0000
     atom:   27    charge:   12.3370    magn:   -1.3067    constr:    0.0000
     atom:   28    charge:   12.6798    magn:    1.2301    constr:    0.0000
     atom:   29    charge:   12.3400    magn:   -1.2473    constr:    0.0000
     atom:   30    charge:   12.6772    magn:    1.4996    constr:    0.0000
     atom:   31    charge:   12.3370    magn:   -1.3067    constr:    0.0000
     atom:   32    charge:   12.6769    magn:    1.1313    constr:    0.0000
     atom:   33    charge:   12.3370    magn:   -1.3067    constr:    0.0000

     total cpu time spent up to now is     3473.0 secs

     End of self-consistent calculation

     Number of k-points >= 100: set verbosity='high' to print the bands.

     the Fermi energy is    20.8994 ev

!    total energy              =  -10864.23208976 Ry

     total all-electron energy =    -84002.017681 Ry
     estimated scf accuracy    <       0.00000070 Ry
     smearing contrib. (-TS)   =       0.00397244 Ry
     internal energy E=F+TS    =  -10864.23606219 Ry

     The total energy is F=E-TS. E is the sum of the following terms:
     one-electron contribution =   -3492.95065285 Ry
     hartree contribution      =    2121.09338038 Ry
     xc contribution           =    -916.86581253 Ry
     ewald contribution        =   -5843.30604005 Ry
     one-center paw contrib.   =   -2732.20693715 Ry

     total magnetization       =     5.98 Bohr mag/cell
     absolute magnetization    =    44.36 Bohr mag/cell

     convergence has been achieved in  29 iterations

     Forces acting on atoms (cartesian axes, Ry/au):

     atom    1 type  3   force =     0.00000000    0.00000000    0.00000000
     atom    2 type  1   force =    -0.01142111   -0.00484028   -0.01142111
     atom    3 type  2   force =     0.00000000    0.00000000   -0.58639083
     atom    4 type  1   force =     0.00000000   -0.46689532    0.00000000
     atom    5 type  2   force =    -0.58639083    0.00000000    0.00000000
     atom    6 type  1   force =    -0.01142111   -0.00484028    0.01142111
     atom    7 type  2   force =     0.00000000    0.00000000    0.58639083
     atom    8 type  1   force =     0.00000000   -0.00936079    0.00000000
     atom    9 type  2   force =    -0.01645933    0.00000000    0.00000000
     atom   10 type  1   force =    -0.01142111    0.00484028   -0.01142111
     atom   11 type  2   force =     0.00000000    0.00000000   -0.00439910
     atom   12 type  1   force =    -0.00000000    0.46689532    0.00000000
     atom   13 type  2   force =    -0.00439910    0.00000000   -0.00000000
     atom   14 type  1   force =    -0.01142111    0.00484028    0.01142111
     atom   15 type  2   force =     0.00000000    0.00000000    0.00439910
     atom   16 type  1   force =     0.00000000    0.00936079    0.00000000
     atom   17 type  2   force =    -0.00324927    0.00000000    0.00000000
     atom   18 type  1   force =     0.01142111   -0.00484028   -0.01142111
     atom   19 type  2   force =     0.00000000    0.00000000   -0.01645933
     atom   20 type  1   force =     0.00000000   -0.00936079   -0.00000000
     atom   21 type  2   force =     0.58639083   -0.00000000    0.00000000
     atom   22 type  1   force =     0.01142111   -0.00484028    0.01142111
     atom   23 type  2   force =     0.00000000    0.00000000    0.01645933
     atom   24 type  1   force =     0.00000000    0.00246722    0.00000000
     atom   25 type  2   force =     0.01645933    0.00000000    0.00000000
     atom   26 type  1   force =     0.01142111    0.00484028   -0.01142111
     atom   27 type  2   force =     0.00000000    0.00000000   -0.00324927
     atom   28 type  1   force =    -0.00000000    0.00936079   -0.00000000
     atom   29 type  2   force =     0.00439910    0.00000000   -0.00000000
     atom   30 type  1   force =     0.01142111    0.00484028    0.01142111
     atom   31 type  2   force =     0.00000000    0.00000000    0.00324927
     atom   32 type  1   force =     0.00000000   -0.00246722    0.00000000
     atom   33 type  2   force =     0.00324927    0.00000000    0.00000000

     Total force =     1.347308     Total SCF correction =     0.003286


     Computing stress (Cartesian axis) and pressure

          total   stress  (Ry/bohr**3)                   (kbar)     P=      263.28
   0.00192557   0.00000000   0.00000000          283.26        0.00        0.00
   0.00000000   0.00151803   0.00000000            0.00      223.31        0.00
   0.00000000   0.00000000   0.00192557            0.00        0.00      283.26


     Writing output data file /scratch/bxp912/feocta1d.save/
 
     init_run     :     35.95s CPU     36.90s WALL (       1 calls)
     electrons    :   3390.07s CPU   3432.51s WALL (       1 calls)
     forces       :     21.52s CPU     21.66s WALL (       1 calls)
     stress       :     97.86s CPU     98.64s WALL (       1 calls)

     Called by init_run:
     wfcinit      :     35.05s CPU     35.85s WALL (       1 calls)
     potinit      :      0.31s CPU      0.33s WALL (       1 calls)
     hinit0       :      0.23s CPU      0.26s WALL (       1 calls)

     Called by electrons:
     c_bands      :   2987.46s CPU   3022.22s WALL (      29 calls)
     sum_band     :    394.48s CPU    401.42s WALL (      29 calls)
     v_of_rho     :      0.67s CPU      0.72s WALL (      30 calls)
     newd         :      1.49s CPU      1.83s WALL (      30 calls)
     PAW_pot      :      5.26s CPU      5.56s WALL (      30 calls)
     mix_rho      :      0.80s CPU      0.86s WALL (      29 calls)

     Called by c_bands:
     init_us_2    :     14.12s CPU     14.38s WALL (    9150 calls)
     cegterg      :   2932.71s CPU   2965.79s WALL (    4350 calls)

     Called by *egterg:
     cdiaghg      :    429.78s CPU    432.35s WALL (   18197 calls)
     h_psi        :   1579.38s CPU   1604.18s WALL (   18347 calls)
     s_psi        :    118.18s CPU    119.07s WALL (   18347 calls)
     g_psi        :      2.74s CPU      2.79s WALL (   13847 calls)

     Called by h_psi:
     h_psi:calbec :    245.66s CPU    247.34s WALL (   18347 calls)
     vloc_psi     :   1208.90s CPU   1230.20s WALL (   18347 calls)
     add_vuspsi   :    118.12s CPU    119.90s WALL (   18347 calls)

     General routines
     calbec       :    379.83s CPU    382.37s WALL (   23447 calls)
     fft          :      0.55s CPU      0.58s WALL (     788 calls)
     ffts         :      0.38s CPU      0.39s WALL (     704 calls)
     fftw         :   1440.98s CPU   1466.22s WALL ( 7871430 calls)
     interpolate  :      0.06s CPU      0.07s WALL (      60 calls)
 
     Parallel routines
     fft_scatt_xy :     64.78s CPU     65.96s WALL ( 7872922 calls)
     fft_scatt_yz :   1253.18s CPU   1275.41s WALL ( 7872922 calls)
 
     PWSCF        :  59m37.01s CPU      1h 0m WALL

 
   This run was terminated on:  16:47:26  12Jan2022            

=------------------------------------------------------------------------------=
   JOB DONE.
=------------------------------------------------------------------------------=
