
     Program PWSCF v.6.7MaX starts on  4Jan2022 at 11:39: 7 

     This program is part of the open-source Quantum ESPRESSO suite
     for quantum simulation of materials; please cite
         "P. Giannozzi et al., J. Phys.:Condens. Matter 21 395502 (2009);
         "P. Giannozzi et al., J. Phys.:Condens. Matter 29 465901 (2017);
          URL http://www.quantum-espresso.org", 
     in publications or presentations arising from this work. More details at
     http://www.quantum-espresso.org/quote

     Parallel version (MPI & OpenMP), running on      72 processor cores
     Number of MPI processes:                72
     Threads/MPI process:                     1

     MPI processes distributed on     1 nodes
     R & G space division:  proc/nbgrp/npool/nimage =      72
     Reading input from fe_octa_1.in
Warning: card &CELL ignored
Warning: card CELL_DYNAMICS = 'BFGS', ignored
Warning: card CELL_FACTOR = 2.0, ignored
Warning: card PRESS = 0.0, ignored
Warning: card / ignored

     Current dimensions of program PWSCF are:
     Max number of different atomic species (ntypx) = 10
     Max number of k-points (npk) =  40000
     Max angular momentum in pseudopotentials (lmaxx) =  3
     file Fe.pbe-spn-kjpaw_psl.1.0.0.UPF: wavefunction(s)  3P 3D renormalized
     file Fe.pbe-spn-kjpaw_psl.1.0.0.UPF: wavefunction(s)  3P 3D renormalized
     file Fe.pbe-spn-kjpaw_psl.1.0.0.UPF: wavefunction(s)  3P 3D renormalized
     file Fe.pbe-spn-kjpaw_psl.1.0.0.UPF: wavefunction(s)  3P 3D renormalized
     file Fe.pbe-spn-kjpaw_psl.1.0.0.UPF: wavefunction(s)  3P 3D renormalized

     Subspace diagonalization in iterative solution of the eigenvalue problem:
     one sub-group per band group will be used
     ELPA distributed-memory algorithm (size of sub-group:  8*  8 procs)

     Message from routine setup:
     using ibrav=0 with symmetry is DISCOURAGED, use correct ibrav instead
 
     Parallelization info
     --------------------
     sticks:   dense  smooth     PW     G-vecs:    dense   smooth      PW
     Min          83      55     15                 4773     2563     367
     Max          84      56     16                 4778     2568     371
     Sum        6035    3993   1103               343891   184641   26583
 


     bravais-lattice index     =            0
     lattice parameter (alat)  =      12.9382  a.u.
     unit-cell volume          =    2283.7811 (a.u.)^3
     number of atoms/cell      =           33
     number of atomic types    =            5
     number of electrons       =       528.00
     number of Kohn-Sham states=          317
     kinetic-energy cutoff     =      71.0000  Ry
     charge density cutoff     =     430.0000  Ry
     scf convergence threshold =      1.0E-06
     mixing beta               =       0.1000
     number of iterations used =           10  plain     mixing
     Exchange-correlation= SLA  PW   PBX  PBC
                           (   1   4   3   4   0   0   0)

     celldm(1)=  12.938187  celldm(2)=   0.000000  celldm(3)=   0.000000
     celldm(4)=   0.000000  celldm(5)=   0.000000  celldm(6)=   0.000000

     crystal axes: (cart. coord. in units of alat)
               a(1) = (   1.000000   0.000000   0.000000 )  
               a(2) = (   0.000000   1.054470   0.000000 )  
               a(3) = (   0.000000   0.000000   1.000000 )  

     reciprocal axes: (cart. coord. in units 2 pi/alat)
               b(1) = (  1.000000  0.000000  0.000000 )  
               b(2) = (  0.000000  0.948344  0.000000 )  
               b(3) = (  0.000000  0.000000  1.000000 )  


     PseudoPot. # 1 for Fe read from file:
     /rds/homes/b/bxp912/pp/Fe.pbe-spn-kjpaw_psl.1.0.0.UPF
     MD5 check sum: 42f43b795421b414b0dc916aa790dbcb
     Pseudo is Projector augmented-wave + core cor, Zval = 16.0
     Generated using &quot;atomic&quot; code by A. Dal Corso  v.6.3
     Shape of augmentation charge: PSQ
     Using radial grid of 1191 points,  6 beta functions with: 
                l(1) =   0
                l(2) =   0
                l(3) =   1
                l(4) =   1
                l(5) =   2
                l(6) =   2
     Q(r) pseudized with 0 coefficients 


     PseudoPot. # 2 for Fe read from file:
     /rds/homes/b/bxp912/pp/Fe.pbe-spn-kjpaw_psl.1.0.0.UPF
     MD5 check sum: 42f43b795421b414b0dc916aa790dbcb
     Pseudo is Projector augmented-wave + core cor, Zval = 16.0
     Generated using &quot;atomic&quot; code by A. Dal Corso  v.6.3
     Shape of augmentation charge: PSQ
     Using radial grid of 1191 points,  6 beta functions with: 
                l(1) =   0
                l(2) =   0
                l(3) =   1
                l(4) =   1
                l(5) =   2
                l(6) =   2
     Q(r) pseudized with 0 coefficients 


     PseudoPot. # 3 for Fe read from file:
     /rds/homes/b/bxp912/pp/Fe.pbe-spn-kjpaw_psl.1.0.0.UPF
     MD5 check sum: 42f43b795421b414b0dc916aa790dbcb
     Pseudo is Projector augmented-wave + core cor, Zval = 16.0
     Generated using &quot;atomic&quot; code by A. Dal Corso  v.6.3
     Shape of augmentation charge: PSQ
     Using radial grid of 1191 points,  6 beta functions with: 
                l(1) =   0
                l(2) =   0
                l(3) =   1
                l(4) =   1
                l(5) =   2
                l(6) =   2
     Q(r) pseudized with 0 coefficients 


     PseudoPot. # 4 for Fe read from file:
     /rds/homes/b/bxp912/pp/Fe.pbe-spn-kjpaw_psl.1.0.0.UPF
     MD5 check sum: 42f43b795421b414b0dc916aa790dbcb
     Pseudo is Projector augmented-wave + core cor, Zval = 16.0
     Generated using &quot;atomic&quot; code by A. Dal Corso  v.6.3
     Shape of augmentation charge: PSQ
     Using radial grid of 1191 points,  6 beta functions with: 
                l(1) =   0
                l(2) =   0
                l(3) =   1
                l(4) =   1
                l(5) =   2
                l(6) =   2
     Q(r) pseudized with 0 coefficients 


     PseudoPot. # 5 for Fe read from file:
     /rds/homes/b/bxp912/pp/Fe.pbe-spn-kjpaw_psl.1.0.0.UPF
     MD5 check sum: 42f43b795421b414b0dc916aa790dbcb
     Pseudo is Projector augmented-wave + core cor, Zval = 16.0
     Generated using &quot;atomic&quot; code by A. Dal Corso  v.6.3
     Shape of augmentation charge: PSQ
     Using radial grid of 1191 points,  6 beta functions with: 
                l(1) =   0
                l(2) =   0
                l(3) =   1
                l(4) =   1
                l(5) =   2
                l(6) =   2
     Q(r) pseudized with 0 coefficients 


     atomic species   valence    mass     pseudopotential
        Fe1           16.00    55.84500     Fe( 1.00)
        Fe2           16.00    55.84500     Fe( 1.00)
        Fe3           16.00    55.84500     Fe( 1.00)
        Fe4           16.00    55.84500     Fe( 1.00)
        Fe5           16.00    55.84500     Fe( 1.00)

     Starting magnetic structure 
     atomic species   magnetization
        Fe1          0.100
        Fe2         -0.100
        Fe3          0.100
        Fe4         -0.010
        Fe5          0.000

      8 Sym. Ops., with inversion, found ( 7 have fractional translation)



   Cartesian axes

     site n.     atom                  positions (alat units)
         1           Fe5 tau(   1) = (   0.2500000   0.2636175   0.2500000  )
         2           Fe1 tau(   2) = (   0.0000000   0.0000000   0.0000000  )
         3           Fe2 tau(   3) = (   0.2500000   0.2636175   0.0000000  )
         4           Fe3 tau(   4) = (   0.2500000   0.0000000   0.2500000  )
         5           Fe4 tau(   5) = (   0.0000000   0.2636175   0.2500000  )
         6           Fe1 tau(   6) = (   0.0000000   0.0000000   0.5000000  )
         7           Fe2 tau(   7) = (   0.2500000   0.2636175   0.5000000  )
         8           Fe3 tau(   8) = (   0.2500000   0.0000000   0.7500000  )
         9           Fe4 tau(   9) = (   0.0000000   0.2636175   0.7500000  )
        10           Fe1 tau(  10) = (   0.0000000   0.5272350   0.0000000  )
        11           Fe2 tau(  11) = (   0.2500000   0.7908525   0.0000000  )
        12           Fe3 tau(  12) = (   0.2500000   0.5272350   0.2500000  )
        13           Fe4 tau(  13) = (   0.0000000   0.7908525   0.2500000  )
        14           Fe1 tau(  14) = (   0.0000000   0.5272350   0.5000000  )
        15           Fe2 tau(  15) = (   0.2500000   0.7908525   0.5000000  )
        16           Fe3 tau(  16) = (   0.2500000   0.5272350   0.7500000  )
        17           Fe4 tau(  17) = (   0.0000000   0.7908525   0.7500000  )
        18           Fe1 tau(  18) = (   0.5000000   0.0000000   0.0000000  )
        19           Fe2 tau(  19) = (   0.7500000   0.2636175   0.0000000  )
        20           Fe3 tau(  20) = (   0.7500000   0.0000000   0.2500000  )
        21           Fe4 tau(  21) = (   0.5000000   0.2636175   0.2500000  )
        22           Fe1 tau(  22) = (   0.5000000   0.0000000   0.5000000  )
        23           Fe2 tau(  23) = (   0.7500000   0.2636175   0.5000000  )
        24           Fe3 tau(  24) = (   0.7500000   0.0000000   0.7500000  )
        25           Fe4 tau(  25) = (   0.5000000   0.2636175   0.7500000  )
        26           Fe1 tau(  26) = (   0.5000000   0.5272350   0.0000000  )
        27           Fe2 tau(  27) = (   0.7500000   0.7908525   0.0000000  )
        28           Fe3 tau(  28) = (   0.7500000   0.5272350   0.2500000  )
        29           Fe4 tau(  29) = (   0.5000000   0.7908525   0.2500000  )
        30           Fe1 tau(  30) = (   0.5000000   0.5272350   0.5000000  )
        31           Fe2 tau(  31) = (   0.7500000   0.7908525   0.5000000  )
        32           Fe3 tau(  32) = (   0.7500000   0.5272350   0.7500000  )
        33           Fe4 tau(  33) = (   0.5000000   0.7908525   0.7500000  )

     number of k points=   125  Marzari-Vanderbilt smearing, width (Ry)=  0.0400

     Number of k-points >= 100: set verbosity='high' to print them.

     Dense  grid:   343891 G-vectors     FFT dimensions: (  90,  96,  90)

     Smooth grid:   184641 G-vectors     FFT dimensions: (  72,  80,  72)

     Estimated max dynamical RAM per process >     421.47 MB

     Estimated total dynamical RAM >      29.63 GB

     Check: negative core charge=   -0.000006
     Generating pointlists ...
     new r_m :   0.1458 (alat units)  1.8869 (a.u.) for type    1
     new r_m :   0.1031 (alat units)  1.3343 (a.u.) for type    2
     new r_m :   0.1087 (alat units)  1.4069 (a.u.) for type    3
     new r_m :   0.1031 (alat units)  1.3343 (a.u.) for type    4
     new r_m :   0.1031 (alat units)  1.3343 (a.u.) for type    5

     Initial potential from superposition of free atoms

     starting charge  527.98556, renormalised to  528.00000
     Starting wfcs are  330 randomized atomic wfcs
     Checking if some PAW data can be deallocated... 

     total cpu time spent up to now is       65.7 secs

     Self-consistent Calculation

     iteration #  1     ecut=    71.00 Ry     beta= 0.10
     Davidson diagonalization with overlap
     ethr =  1.00E-02,  avg # of iterations =  3.2

     total cpu time spent up to now is      280.1 secs

     total energy              =  -10860.46508138 Ry
     estimated scf accuracy    <      26.89163719 Ry

     total magnetization       =     8.89 Bohr mag/cell
     absolute magnetization    =    34.97 Bohr mag/cell

     iteration #  2     ecut=    71.00 Ry     beta= 0.10
     Davidson diagonalization with overlap
     ethr =  5.09E-03,  avg # of iterations =  1.7

     total cpu time spent up to now is      443.5 secs

     total energy              =  -10860.49468568 Ry
     estimated scf accuracy    <     168.04445022 Ry

     total magnetization       =    11.85 Bohr mag/cell
     absolute magnetization    =    26.14 Bohr mag/cell

     iteration #  3     ecut=    71.00 Ry     beta= 0.10
     Davidson diagonalization with overlap
     ethr =  5.09E-03,  avg # of iterations =  1.1

     total cpu time spent up to now is      596.6 secs

     total energy              =  -10864.38790001 Ry
     estimated scf accuracy    <       5.77050893 Ry

     total magnetization       =     8.75 Bohr mag/cell
     absolute magnetization    =    34.17 Bohr mag/cell

     iteration #  4     ecut=    71.00 Ry     beta= 0.10
     Davidson diagonalization with overlap
     ethr =  1.09E-03,  avg # of iterations =  1.3

     total cpu time spent up to now is      752.7 secs

     total energy              =  -10864.48669923 Ry
     estimated scf accuracy    <       2.26861822 Ry

     total magnetization       =     9.01 Bohr mag/cell
     absolute magnetization    =    35.65 Bohr mag/cell

     iteration #  5     ecut=    71.00 Ry     beta= 0.10
     Davidson diagonalization with overlap
     ethr =  4.30E-04,  avg # of iterations =  1.7

     total cpu time spent up to now is      912.8 secs

     total energy              =  -10864.41673323 Ry
     estimated scf accuracy    <       1.00353754 Ry

     total magnetization       =     9.16 Bohr mag/cell
     absolute magnetization    =    35.69 Bohr mag/cell

     iteration #  6     ecut=    71.00 Ry     beta= 0.10
     Davidson diagonalization with overlap
     c_bands:  1 eigenvalues not converged
     ethr =  1.90E-04,  avg # of iterations =  3.1

     total cpu time spent up to now is     1079.4 secs

     total energy              =  -10864.07009596 Ry
     estimated scf accuracy    <       0.83630968 Ry

     total magnetization       =     8.94 Bohr mag/cell
     absolute magnetization    =    35.73 Bohr mag/cell

     iteration #  7     ecut=    71.00 Ry     beta= 0.10
     Davidson diagonalization with overlap
     ethr =  1.58E-04,  avg # of iterations =  2.2

     total cpu time spent up to now is     1272.9 secs

     total energy              =  -10864.10438471 Ry
     estimated scf accuracy    <       0.73592134 Ry

     total magnetization       =     8.78 Bohr mag/cell
     absolute magnetization    =    36.24 Bohr mag/cell

     iteration #  8     ecut=    71.00 Ry     beta= 0.10
     Davidson diagonalization with overlap
     ethr =  1.39E-04,  avg # of iterations =  1.3

     total cpu time spent up to now is     1428.1 secs

     total energy              =  -10864.13131983 Ry
     estimated scf accuracy    <       0.24442261 Ry

     total magnetization       =     8.99 Bohr mag/cell
     absolute magnetization    =    36.66 Bohr mag/cell

     iteration #  9     ecut=    71.00 Ry     beta= 0.10
     Davidson diagonalization with overlap
     c_bands:  1 eigenvalues not converged
     ethr =  4.63E-05,  avg # of iterations =  3.5

     total cpu time spent up to now is     1601.8 secs

     total energy              =  -10864.13523288 Ry
     estimated scf accuracy    <       0.12523538 Ry

     total magnetization       =     9.07 Bohr mag/cell
     absolute magnetization    =    36.60 Bohr mag/cell

     iteration # 10     ecut=    71.00 Ry     beta= 0.10
     Davidson diagonalization with overlap
     c_bands:  2 eigenvalues not converged
     c_bands:  1 eigenvalues not converged
     c_bands:  2 eigenvalues not converged
     c_bands:  1 eigenvalues not converged
     c_bands:  1 eigenvalues not converged
     c_bands:  2 eigenvalues not converged
     ethr =  2.37E-05,  avg # of iterations =  2.8

     total cpu time spent up to now is     1767.8 secs

     total energy              =  -10864.13951900 Ry
     estimated scf accuracy    <       0.06571836 Ry

     total magnetization       =     8.96 Bohr mag/cell
     absolute magnetization    =    36.43 Bohr mag/cell

     iteration # 11     ecut=    71.00 Ry     beta= 0.10
     Davidson diagonalization with overlap
     c_bands:  1 eigenvalues not converged
     ethr =  1.24E-05,  avg # of iterations =  3.4

     total cpu time spent up to now is     1965.3 secs

     total energy              =  -10864.13792324 Ry
     estimated scf accuracy    <       0.08665905 Ry

     total magnetization       =     8.78 Bohr mag/cell
     absolute magnetization    =    36.52 Bohr mag/cell

     iteration # 12     ecut=    71.00 Ry     beta= 0.10
     Davidson diagonalization with overlap
     ethr =  1.24E-05,  avg # of iterations =  2.2

     total cpu time spent up to now is     2148.3 secs

     total energy              =  -10864.13028240 Ry
     estimated scf accuracy    <       0.06475059 Ry

     total magnetization       =     8.68 Bohr mag/cell
     absolute magnetization    =    36.64 Bohr mag/cell

     iteration # 13     ecut=    71.00 Ry     beta= 0.10
     Davidson diagonalization with overlap
     ethr =  1.23E-05,  avg # of iterations =  2.3

     total cpu time spent up to now is     2324.1 secs

     total energy              =  -10864.14408706 Ry
     estimated scf accuracy    <       0.03995352 Ry

     total magnetization       =     8.67 Bohr mag/cell
     absolute magnetization    =    36.90 Bohr mag/cell

     iteration # 14     ecut=    71.00 Ry     beta= 0.10
     Davidson diagonalization with overlap
     c_bands:  1 eigenvalues not converged
     c_bands:  1 eigenvalues not converged
     ethr =  7.57E-06,  avg # of iterations =  3.3

     total cpu time spent up to now is     2531.9 secs

     total energy              =  -10864.13805024 Ry
     estimated scf accuracy    <       0.08918513 Ry

     total magnetization       =     8.62 Bohr mag/cell
     absolute magnetization    =    37.41 Bohr mag/cell

     iteration # 15     ecut=    71.00 Ry     beta= 0.10
     Davidson diagonalization with overlap
     ethr =  7.57E-06,  avg # of iterations =  1.6

     total cpu time spent up to now is     2695.0 secs

     total energy              =  -10864.16838563 Ry
     estimated scf accuracy    <       0.03391738 Ry

     total magnetization       =     8.59 Bohr mag/cell
     absolute magnetization    =    37.06 Bohr mag/cell

     iteration # 16     ecut=    71.00 Ry     beta= 0.10
     Davidson diagonalization with overlap
     c_bands:  2 eigenvalues not converged
     c_bands:  1 eigenvalues not converged
     ethr =  6.42E-06,  avg # of iterations =  3.4

     total cpu time spent up to now is     2923.8 secs

     total energy              =  -10864.18332039 Ry
     estimated scf accuracy    <       0.02578811 Ry

     total magnetization       =     8.06 Bohr mag/cell
     absolute magnetization    =    38.41 Bohr mag/cell

     iteration # 17     ecut=    71.00 Ry     beta= 0.10
     Davidson diagonalization with overlap
     c_bands:  1 eigenvalues not converged
     c_bands:  1 eigenvalues not converged
     c_bands:  1 eigenvalues not converged
     c_bands:  1 eigenvalues not converged
     c_bands:  1 eigenvalues not converged
     ethr =  4.88E-06,  avg # of iterations =  2.6

     total cpu time spent up to now is     3107.0 secs

     total energy              =  -10864.19628156 Ry
     estimated scf accuracy    <       0.06070382 Ry

     total magnetization       =     8.24 Bohr mag/cell
     absolute magnetization    =    38.19 Bohr mag/cell

     iteration # 18     ecut=    71.00 Ry     beta= 0.10
     Davidson diagonalization with overlap
     ethr =  4.88E-06,  avg # of iterations =  2.2

     total cpu time spent up to now is     3308.1 secs

     total energy              =  -10864.20515434 Ry
     estimated scf accuracy    <       0.02249882 Ry

     total magnetization       =     7.90 Bohr mag/cell
     absolute magnetization    =    38.96 Bohr mag/cell

     iteration # 19     ecut=    71.00 Ry     beta= 0.10
     Davidson diagonalization with overlap
     c_bands:  1 eigenvalues not converged
     ethr =  4.26E-06,  avg # of iterations =  1.2

     total cpu time spent up to now is     3464.1 secs

     total energy              =  -10864.20693976 Ry
     estimated scf accuracy    <       0.00676525 Ry

     total magnetization       =     7.85 Bohr mag/cell
     absolute magnetization    =    39.22 Bohr mag/cell

     iteration # 20     ecut=    71.00 Ry     beta= 0.10
     Davidson diagonalization with overlap
     c_bands:  1 eigenvalues not converged
     c_bands:  1 eigenvalues not converged
     c_bands:  1 eigenvalues not converged
     c_bands:  1 eigenvalues not converged
     c_bands:  1 eigenvalues not converged
     c_bands:  2 eigenvalues not converged
     c_bands:  1 eigenvalues not converged
     c_bands:  1 eigenvalues not converged
     c_bands:  1 eigenvalues not converged
     c_bands:  1 eigenvalues not converged
     c_bands:  1 eigenvalues not converged
     c_bands:  1 eigenvalues not converged
     ethr =  1.28E-06,  avg # of iterations =  5.5

     total cpu time spent up to now is     3684.0 secs

     total energy              =  -10864.20833436 Ry
     estimated scf accuracy    <       0.00676067 Ry

     total magnetization       =     7.75 Bohr mag/cell
     absolute magnetization    =    39.72 Bohr mag/cell

     iteration # 21     ecut=    71.00 Ry     beta= 0.10
     Davidson diagonalization with overlap
     ethr =  1.28E-06,  avg # of iterations =  1.3

     total cpu time spent up to now is     3839.0 secs

     total energy              =  -10864.20910615 Ry
     estimated scf accuracy    <       0.00586523 Ry

     total magnetization       =     7.74 Bohr mag/cell
     absolute magnetization    =    39.71 Bohr mag/cell

     iteration # 22     ecut=    71.00 Ry     beta= 0.10
     Davidson diagonalization with overlap
     ethr =  1.11E-06,  avg # of iterations =  2.0

     total cpu time spent up to now is     4011.6 secs

     total energy              =  -10864.20992157 Ry
     estimated scf accuracy    <       0.00449640 Ry

     total magnetization       =     7.70 Bohr mag/cell
     absolute magnetization    =    39.84 Bohr mag/cell

     iteration # 23     ecut=    71.00 Ry     beta= 0.10
     Davidson diagonalization with overlap
     ethr =  8.52E-07,  avg # of iterations =  1.0

     total cpu time spent up to now is     4163.8 secs

     total energy              =  -10864.21080828 Ry
     estimated scf accuracy    <       0.00402403 Ry

     total magnetization       =     7.68 Bohr mag/cell
     absolute magnetization    =    39.92 Bohr mag/cell

     iteration # 24     ecut=    71.00 Ry     beta= 0.10
     Davidson diagonalization with overlap
     ethr =  7.62E-07,  avg # of iterations =  1.0

     total cpu time spent up to now is     4317.1 secs

     total energy              =  -10864.21156823 Ry
     estimated scf accuracy    <       0.00373175 Ry

     total magnetization       =     7.65 Bohr mag/cell
     absolute magnetization    =    40.06 Bohr mag/cell

     iteration # 25     ecut=    71.00 Ry     beta= 0.10
     Davidson diagonalization with overlap
     ethr =  7.07E-07,  avg # of iterations =  1.0

     total cpu time spent up to now is     4470.4 secs

     total energy              =  -10864.21330746 Ry
     estimated scf accuracy    <       0.00373251 Ry

     total magnetization       =     7.61 Bohr mag/cell
     absolute magnetization    =    40.16 Bohr mag/cell

     iteration # 26     ecut=    71.00 Ry     beta= 0.10
     Davidson diagonalization with overlap
     ethr =  7.07E-07,  avg # of iterations =  1.9

     total cpu time spent up to now is     4647.7 secs

     total energy              =  -10864.21476746 Ry
     estimated scf accuracy    <       0.00331559 Ry

     total magnetization       =     7.52 Bohr mag/cell
     absolute magnetization    =    40.51 Bohr mag/cell

     iteration # 27     ecut=    71.00 Ry     beta= 0.10
     Davidson diagonalization with overlap
     ethr =  6.28E-07,  avg # of iterations =  4.4

     total cpu time spent up to now is     4868.4 secs

     total energy              =  -10864.21901725 Ry
     estimated scf accuracy    <       0.00258283 Ry

     total magnetization       =     7.31 Bohr mag/cell
     absolute magnetization    =    41.41 Bohr mag/cell

     iteration # 28     ecut=    71.00 Ry     beta= 0.10
     Davidson diagonalization with overlap
     ethr =  4.89E-07,  avg # of iterations =  1.5

     total cpu time spent up to now is     5030.8 secs

     total energy              =  -10864.21970721 Ry
     estimated scf accuracy    <       0.00214402 Ry

     total magnetization       =     7.29 Bohr mag/cell
     absolute magnetization    =    41.59 Bohr mag/cell

     iteration # 29     ecut=    71.00 Ry     beta= 0.10
     Davidson diagonalization with overlap
     ethr =  4.06E-07,  avg # of iterations =  1.9

     total cpu time spent up to now is     5200.1 secs

     total energy              =  -10864.22022989 Ry
     estimated scf accuracy    <       0.00181576 Ry

     total magnetization       =     7.25 Bohr mag/cell
     absolute magnetization    =    41.75 Bohr mag/cell

     iteration # 30     ecut=    71.00 Ry     beta= 0.10
     Davidson diagonalization with overlap
     ethr =  3.44E-07,  avg # of iterations =  1.3

     total cpu time spent up to now is     5357.6 secs

     total energy              =  -10864.22092818 Ry
     estimated scf accuracy    <       0.00199910 Ry

     total magnetization       =     7.22 Bohr mag/cell
     absolute magnetization    =    41.84 Bohr mag/cell

     iteration # 31     ecut=    71.00 Ry     beta= 0.10
     Davidson diagonalization with overlap
     ethr =  3.44E-07,  avg # of iterations =  2.1

     total cpu time spent up to now is     5529.3 secs

     total energy              =  -10864.22145082 Ry
     estimated scf accuracy    <       0.00170866 Ry

     total magnetization       =     7.18 Bohr mag/cell
     absolute magnetization    =    42.02 Bohr mag/cell

     iteration # 32     ecut=    71.00 Ry     beta= 0.10
     Davidson diagonalization with overlap
     ethr =  3.24E-07,  avg # of iterations =  1.0

     total cpu time spent up to now is     5681.3 secs

     total energy              =  -10864.22159146 Ry
     estimated scf accuracy    <       0.00158490 Ry

     total magnetization       =     7.17 Bohr mag/cell
     absolute magnetization    =    42.08 Bohr mag/cell

     iteration # 33     ecut=    71.00 Ry     beta= 0.10
     Davidson diagonalization with overlap
     ethr =  3.00E-07,  avg # of iterations =  1.0

     total cpu time spent up to now is     5833.6 secs

     total energy              =  -10864.22194054 Ry
     estimated scf accuracy    <       0.00158596 Ry

     total magnetization       =     7.16 Bohr mag/cell
     absolute magnetization    =    42.11 Bohr mag/cell

     iteration # 34     ecut=    71.00 Ry     beta= 0.10
     Davidson diagonalization with overlap
     ethr =  3.00E-07,  avg # of iterations =  1.0

     total cpu time spent up to now is     5987.9 secs

     total energy              =  -10864.22262787 Ry
     estimated scf accuracy    <       0.00158260 Ry

     total magnetization       =     7.13 Bohr mag/cell
     absolute magnetization    =    42.22 Bohr mag/cell

     iteration # 35     ecut=    71.00 Ry     beta= 0.10
     Davidson diagonalization with overlap
     ethr =  3.00E-07,  avg # of iterations =  1.7

     total cpu time spent up to now is     6153.1 secs

     total energy              =  -10864.22351032 Ry
     estimated scf accuracy    <       0.00161091 Ry

     total magnetization       =     7.09 Bohr mag/cell
     absolute magnetization    =    42.33 Bohr mag/cell

     iteration # 36     ecut=    71.00 Ry     beta= 0.10
     Davidson diagonalization with overlap
     ethr =  3.00E-07,  avg # of iterations =  2.1

     total cpu time spent up to now is     6326.8 secs

     total energy              =  -10864.22407266 Ry
     estimated scf accuracy    <       0.00178927 Ry

     total magnetization       =     7.04 Bohr mag/cell
     absolute magnetization    =    42.54 Bohr mag/cell

     iteration # 37     ecut=    71.00 Ry     beta= 0.10
     Davidson diagonalization with overlap
     ethr =  3.00E-07,  avg # of iterations =  5.0

     total cpu time spent up to now is     6557.6 secs

     total energy              =  -10864.22687243 Ry
     estimated scf accuracy    <       0.00125952 Ry

     total magnetization       =     6.87 Bohr mag/cell
     absolute magnetization    =    43.03 Bohr mag/cell

     iteration # 38     ecut=    71.00 Ry     beta= 0.10
     Davidson diagonalization with overlap
     ethr =  2.39E-07,  avg # of iterations =  2.0

     total cpu time spent up to now is     6733.7 secs

     total energy              =  -10864.22754888 Ry
     estimated scf accuracy    <       0.00113558 Ry

     total magnetization       =     6.81 Bohr mag/cell
     absolute magnetization    =    43.26 Bohr mag/cell

     iteration # 39     ecut=    71.00 Ry     beta= 0.10
     Davidson diagonalization with overlap
     ethr =  2.15E-07,  avg # of iterations =  2.1

     total cpu time spent up to now is     6908.0 secs

     total energy              =  -10864.22816486 Ry
     estimated scf accuracy    <       0.00102050 Ry

     total magnetization       =     6.77 Bohr mag/cell
     absolute magnetization    =    43.34 Bohr mag/cell

     iteration # 40     ecut=    71.00 Ry     beta= 0.10
     Davidson diagonalization with overlap
     ethr =  1.93E-07,  avg # of iterations =  3.0

     total cpu time spent up to now is     7102.7 secs

     total energy              =  -10864.22881611 Ry
     estimated scf accuracy    <       0.00093667 Ry

     total magnetization       =     6.69 Bohr mag/cell
     absolute magnetization    =    43.59 Bohr mag/cell

     iteration # 41     ecut=    71.00 Ry     beta= 0.10
     Davidson diagonalization with overlap
     ethr =  1.77E-07,  avg # of iterations =  4.3

     total cpu time spent up to now is     7322.3 secs

     total energy              =  -10864.22995538 Ry
     estimated scf accuracy    <       0.00069426 Ry

     total magnetization       =     6.56 Bohr mag/cell
     absolute magnetization    =    43.88 Bohr mag/cell

     iteration # 42     ecut=    71.00 Ry     beta= 0.10
     Davidson diagonalization with overlap
     ethr =  1.31E-07,  avg # of iterations =  2.4

     total cpu time spent up to now is     7507.1 secs

     total energy              =  -10864.23034671 Ry
     estimated scf accuracy    <       0.00060504 Ry

     total magnetization       =     6.50 Bohr mag/cell
     absolute magnetization    =    44.06 Bohr mag/cell

     iteration # 43     ecut=    71.00 Ry     beta= 0.10
     Davidson diagonalization with overlap
     ethr =  1.15E-07,  avg # of iterations =  2.5

     total cpu time spent up to now is     7695.5 secs

     total energy              =  -10864.23063068 Ry
     estimated scf accuracy    <       0.00048771 Ry

     total magnetization       =     6.45 Bohr mag/cell
     absolute magnetization    =    44.18 Bohr mag/cell

     iteration # 44     ecut=    71.00 Ry     beta= 0.10
     Davidson diagonalization with overlap
     ethr =  9.24E-08,  avg # of iterations =  2.1

     total cpu time spent up to now is     7868.5 secs

     total energy              =  -10864.23077013 Ry
     estimated scf accuracy    <       0.00058655 Ry

     total magnetization       =     6.42 Bohr mag/cell
     absolute magnetization    =    44.21 Bohr mag/cell

     iteration # 45     ecut=    71.00 Ry     beta= 0.10
     Davidson diagonalization with overlap
     ethr =  9.24E-08,  avg # of iterations =  2.3

     total cpu time spent up to now is     8047.4 secs

     total energy              =  -10864.23100155 Ry
     estimated scf accuracy    <       0.00039588 Ry

     total magnetization       =     6.37 Bohr mag/cell
     absolute magnetization    =    44.32 Bohr mag/cell

     iteration # 46     ecut=    71.00 Ry     beta= 0.10
     Davidson diagonalization with overlap
     ethr =  7.50E-08,  avg # of iterations =  1.8

     total cpu time spent up to now is     8215.9 secs

     total energy              =  -10864.23104726 Ry
     estimated scf accuracy    <       0.00028178 Ry

     total magnetization       =     6.35 Bohr mag/cell
     absolute magnetization    =    44.33 Bohr mag/cell

     iteration # 47     ecut=    71.00 Ry     beta= 0.10
     Davidson diagonalization with overlap
     ethr =  5.34E-08,  avg # of iterations =  3.8

     total cpu time spent up to now is     8420.7 secs

     total energy              =  -10864.23129490 Ry
     estimated scf accuracy    <       0.00025695 Ry

     total magnetization       =     6.29 Bohr mag/cell
     absolute magnetization    =    44.46 Bohr mag/cell

     iteration # 48     ecut=    71.00 Ry     beta= 0.10
     Davidson diagonalization with overlap
     ethr =  4.87E-08,  avg # of iterations =  2.6

     total cpu time spent up to now is     8612.9 secs

     total energy              =  -10864.23148342 Ry
     estimated scf accuracy    <       0.00021543 Ry

     total magnetization       =     6.24 Bohr mag/cell
     absolute magnetization    =    44.55 Bohr mag/cell

     iteration # 49     ecut=    71.00 Ry     beta= 0.10
     Davidson diagonalization with overlap
     ethr =  4.08E-08,  avg # of iterations =  1.6

     total cpu time spent up to now is     8775.3 secs

     total energy              =  -10864.23153130 Ry
     estimated scf accuracy    <       0.00022906 Ry

     total magnetization       =     6.23 Bohr mag/cell
     absolute magnetization    =    44.54 Bohr mag/cell

     iteration # 50     ecut=    71.00 Ry     beta= 0.10
     Davidson diagonalization with overlap
     ethr =  4.08E-08,  avg # of iterations =  2.0

     total cpu time spent up to now is     8947.9 secs

     total energy              =  -10864.23153519 Ry
     estimated scf accuracy    <       0.00016646 Ry

     total magnetization       =     6.20 Bohr mag/cell
     absolute magnetization    =    44.57 Bohr mag/cell

     iteration # 51     ecut=    71.00 Ry     beta= 0.10
     Davidson diagonalization with overlap
     ethr =  3.15E-08,  avg # of iterations =  4.0

     total cpu time spent up to now is     9163.4 secs

     total energy              =  -10864.23167862 Ry
     estimated scf accuracy    <       0.00014939 Ry

     total magnetization       =     6.14 Bohr mag/cell
     absolute magnetization    =    44.64 Bohr mag/cell

     iteration # 52     ecut=    71.00 Ry     beta= 0.10
     Davidson diagonalization with overlap
     ethr =  2.83E-08,  avg # of iterations =  3.9

     total cpu time spent up to now is     9383.6 secs

     total energy              =  -10864.23190371 Ry
     estimated scf accuracy    <       0.00012183 Ry

     total magnetization       =     6.08 Bohr mag/cell
     absolute magnetization    =    44.64 Bohr mag/cell

     iteration # 53     ecut=    71.00 Ry     beta= 0.10
     Davidson diagonalization with overlap
     ethr =  2.31E-08,  avg # of iterations =  2.0

     total cpu time spent up to now is     9566.4 secs

     total energy              =  -10864.23194466 Ry
     estimated scf accuracy    <       0.00010518 Ry

     total magnetization       =     6.06 Bohr mag/cell
     absolute magnetization    =    44.58 Bohr mag/cell

     iteration # 54     ecut=    71.00 Ry     beta= 0.10
     Davidson diagonalization with overlap
     ethr =  1.99E-08,  avg # of iterations =  1.1

     total cpu time spent up to now is     9720.7 secs

     total energy              =  -10864.23196899 Ry
     estimated scf accuracy    <       0.00005809 Ry

     total magnetization       =     6.04 Bohr mag/cell
     absolute magnetization    =    44.56 Bohr mag/cell

     iteration # 55     ecut=    71.00 Ry     beta= 0.10
     Davidson diagonalization with overlap
     ethr =  1.10E-08,  avg # of iterations =  2.4

     total cpu time spent up to now is     9914.3 secs

     total energy              =  -10864.23198636 Ry
     estimated scf accuracy    <       0.00004755 Ry

     total magnetization       =     6.02 Bohr mag/cell
     absolute magnetization    =    44.50 Bohr mag/cell

     iteration # 56     ecut=    71.00 Ry     beta= 0.10
     Davidson diagonalization with overlap
     ethr =  9.00E-09,  avg # of iterations =  2.2

     total cpu time spent up to now is    10093.5 secs

     total energy              =  -10864.23200046 Ry
     estimated scf accuracy    <       0.00003789 Ry

     total magnetization       =     6.02 Bohr mag/cell
     absolute magnetization    =    44.45 Bohr mag/cell

     iteration # 57     ecut=    71.00 Ry     beta= 0.10
     Davidson diagonalization with overlap
     ethr =  7.18E-09,  avg # of iterations =  1.1

     total cpu time spent up to now is    10247.2 secs

     total energy              =  -10864.23200695 Ry
     estimated scf accuracy    <       0.00003096 Ry

     total magnetization       =     6.01 Bohr mag/cell
     absolute magnetization    =    44.44 Bohr mag/cell

     iteration # 58     ecut=    71.00 Ry     beta= 0.10
     Davidson diagonalization with overlap
     ethr =  5.86E-09,  avg # of iterations =  1.5

     total cpu time spent up to now is    10417.0 secs

     total energy              =  -10864.23201355 Ry
     estimated scf accuracy    <       0.00002998 Ry

     total magnetization       =     6.01 Bohr mag/cell
     absolute magnetization    =    44.43 Bohr mag/cell

     iteration # 59     ecut=    71.00 Ry     beta= 0.10
     Davidson diagonalization with overlap
     ethr =  5.68E-09,  avg # of iterations =  1.7

     total cpu time spent up to now is    10599.4 secs

     total energy              =  -10864.23201326 Ry
     estimated scf accuracy    <       0.00002895 Ry

     total magnetization       =     6.00 Bohr mag/cell
     absolute magnetization    =    44.44 Bohr mag/cell

     iteration # 60     ecut=    71.00 Ry     beta= 0.10
     Davidson diagonalization with overlap
     ethr =  5.48E-09,  avg # of iterations =  3.3

     total cpu time spent up to now is    10805.0 secs

     total energy              =  -10864.23203603 Ry
     estimated scf accuracy    <       0.00002235 Ry

     total magnetization       =     5.98 Bohr mag/cell
     absolute magnetization    =    44.46 Bohr mag/cell

     iteration # 61     ecut=    71.00 Ry     beta= 0.10
     Davidson diagonalization with overlap
     ethr =  4.23E-09,  avg # of iterations =  2.1

     total cpu time spent up to now is    10989.2 secs

     total energy              =  -10864.23204908 Ry
     estimated scf accuracy    <       0.00001685 Ry

     total magnetization       =     5.99 Bohr mag/cell
     absolute magnetization    =    44.41 Bohr mag/cell

     iteration # 62     ecut=    71.00 Ry     beta= 0.10
     Davidson diagonalization with overlap
     ethr =  3.19E-09,  avg # of iterations =  1.6

     total cpu time spent up to now is    11152.0 secs

     total energy              =  -10864.23205479 Ry
     estimated scf accuracy    <       0.00001609 Ry

     total magnetization       =     5.98 Bohr mag/cell
     absolute magnetization    =    44.41 Bohr mag/cell

     iteration # 63     ecut=    71.00 Ry     beta= 0.10
     Davidson diagonalization with overlap
     ethr =  3.05E-09,  avg # of iterations =  1.9

     total cpu time spent up to now is    11320.9 secs

     total energy              =  -10864.23205971 Ry
     estimated scf accuracy    <       0.00001337 Ry

     total magnetization       =     5.98 Bohr mag/cell
     absolute magnetization    =    44.39 Bohr mag/cell

     iteration # 64     ecut=    71.00 Ry     beta= 0.10
     Davidson diagonalization with overlap
     ethr =  2.53E-09,  avg # of iterations =  3.0

     total cpu time spent up to now is    11522.7 secs

     total energy              =  -10864.23205983 Ry
     estimated scf accuracy    <       0.00001257 Ry

     total magnetization       =     5.97 Bohr mag/cell
     absolute magnetization    =    44.37 Bohr mag/cell

     iteration # 65     ecut=    71.00 Ry     beta= 0.10
     Davidson diagonalization with overlap
     ethr =  2.38E-09,  avg # of iterations =  4.6

     total cpu time spent up to now is    11757.4 secs

     total energy              =  -10864.23208113 Ry
     estimated scf accuracy    <       0.00000911 Ry

     total magnetization       =     5.95 Bohr mag/cell
     absolute magnetization    =    44.35 Bohr mag/cell

     iteration # 66     ecut=    71.00 Ry     beta= 0.10
     Davidson diagonalization with overlap
     ethr =  1.73E-09,  avg # of iterations =  1.2

     total cpu time spent up to now is    11912.4 secs

     total energy              =  -10864.23207179 Ry
     estimated scf accuracy    <       0.00000660 Ry

     total magnetization       =     5.95 Bohr mag/cell
     absolute magnetization    =    44.34 Bohr mag/cell

     iteration # 67     ecut=    71.00 Ry     beta= 0.10
     Davidson diagonalization with overlap
     ethr =  1.25E-09,  avg # of iterations =  4.1

     total cpu time spent up to now is    12139.6 secs

     total energy              =  -10864.23208450 Ry
     estimated scf accuracy    <       0.00000425 Ry

     total magnetization       =     5.94 Bohr mag/cell
     absolute magnetization    =    44.36 Bohr mag/cell

     iteration # 68     ecut=    71.00 Ry     beta= 0.10
     Davidson diagonalization with overlap
     ethr =  8.05E-10,  avg # of iterations =  2.1

     total cpu time spent up to now is    12322.8 secs

     total energy              =  -10864.23208362 Ry
     estimated scf accuracy    <       0.00000355 Ry

     total magnetization       =     5.94 Bohr mag/cell
     absolute magnetization    =    44.36 Bohr mag/cell

     iteration # 69     ecut=    71.00 Ry     beta= 0.10
     Davidson diagonalization with overlap
     ethr =  6.73E-10,  avg # of iterations =  3.8

     total cpu time spent up to now is    12533.2 secs

     total energy              =  -10864.23208693 Ry
     estimated scf accuracy    <       0.00000246 Ry

     total magnetization       =     5.93 Bohr mag/cell
     absolute magnetization    =    44.36 Bohr mag/cell

     iteration # 70     ecut=    71.00 Ry     beta= 0.10
     Davidson diagonalization with overlap
     ethr =  4.66E-10,  avg # of iterations =  1.7

     total cpu time spent up to now is    12696.7 secs

     total energy              =  -10864.23208739 Ry
     estimated scf accuracy    <       0.00000222 Ry

     total magnetization       =     5.94 Bohr mag/cell
     absolute magnetization    =    44.36 Bohr mag/cell

     iteration # 71     ecut=    71.00 Ry     beta= 0.10
     Davidson diagonalization with overlap
     ethr =  4.21E-10,  avg # of iterations =  1.0

     total cpu time spent up to now is    12850.4 secs

     total energy              =  -10864.23208789 Ry
     estimated scf accuracy    <       0.00000174 Ry

     total magnetization       =     5.94 Bohr mag/cell
     absolute magnetization    =    44.36 Bohr mag/cell

     iteration # 72     ecut=    71.00 Ry     beta= 0.10
     Davidson diagonalization with overlap
     ethr =  3.29E-10,  avg # of iterations =  2.0

     total cpu time spent up to now is    13028.7 secs

     total energy              =  -10864.23208851 Ry
     estimated scf accuracy    <       0.00000146 Ry

     total magnetization       =     5.94 Bohr mag/cell
     absolute magnetization    =    44.35 Bohr mag/cell

     iteration # 73     ecut=    71.00 Ry     beta= 0.10
     Davidson diagonalization with overlap
     ethr =  2.77E-10,  avg # of iterations =  2.2

     total cpu time spent up to now is    13202.0 secs

     total energy              =  -10864.23208882 Ry
     estimated scf accuracy    <       0.00000117 Ry

     total magnetization       =     5.94 Bohr mag/cell
     absolute magnetization    =    44.34 Bohr mag/cell

     iteration # 74     ecut=    71.00 Ry     beta= 0.10
     Davidson diagonalization with overlap
     ethr =  2.22E-10,  avg # of iterations =  3.2

     total cpu time spent up to now is    13391.9 secs

     total energy              =  -10864.23208881 Ry
     estimated scf accuracy    <       0.00000112 Ry

     total magnetization       =     5.94 Bohr mag/cell
     absolute magnetization    =    44.34 Bohr mag/cell

     iteration # 75     ecut=    71.00 Ry     beta= 0.10
     Davidson diagonalization with overlap
     ethr =  2.12E-10,  avg # of iterations =  4.2
 
     Magnetic moment per site:
     atom:    1    charge:   12.8148    magn:    0.0477    constr:    0.0000
     atom:    2    charge:   14.3930    magn:    1.6962    constr:    0.0000
     atom:    3    charge:   12.4811    magn:    0.1873    constr:    0.0000
     atom:    4    charge:   12.8020    magn:    0.7855    constr:    0.0000
     atom:    5    charge:   12.4811    magn:    0.1895    constr:    0.0000
     atom:    6    charge:   14.3930    magn:    1.6962    constr:    0.0000
     atom:    7    charge:   12.4811    magn:    0.1873    constr:    0.0000
     atom:    8    charge:   12.6797    magn:    1.2287    constr:    0.0000
     atom:    9    charge:   12.3385    magn:   -1.3235    constr:    0.0000
     atom:   10    charge:   14.3930    magn:    1.6962    constr:    0.0000
     atom:   11    charge:   12.3399    magn:   -1.2456    constr:    0.0000
     atom:   12    charge:   12.8020    magn:    0.7855    constr:    0.0000
     atom:   13    charge:   12.3399    magn:   -1.2471    constr:    0.0000
     atom:   14    charge:   14.3930    magn:    1.6962    constr:    0.0000
     atom:   15    charge:   12.3399    magn:   -1.2456    constr:    0.0000
     atom:   16    charge:   12.6797    magn:    1.2287    constr:    0.0000
     atom:   17    charge:   12.3370    magn:   -1.3051    constr:    0.0000
     atom:   18    charge:   14.3930    magn:    1.6962    constr:    0.0000
     atom:   19    charge:   12.3385    magn:   -1.3218    constr:    0.0000
     atom:   20    charge:   12.6797    magn:    1.2243    constr:    0.0000
     atom:   21    charge:   12.4811    magn:    0.1895    constr:    0.0000
     atom:   22    charge:   14.3930    magn:    1.6962    constr:    0.0000
     atom:   23    charge:   12.3385    magn:   -1.3218    constr:    0.0000
     atom:   24    charge:   12.6772    magn:    1.1230    constr:    0.0000
     atom:   25    charge:   12.3385    magn:   -1.3235    constr:    0.0000
     atom:   26    charge:   14.3930    magn:    1.6962    constr:    0.0000
     atom:   27    charge:   12.3370    magn:   -1.3087    constr:    0.0000
     atom:   28    charge:   12.6797    magn:    1.2243    constr:    0.0000
     atom:   29    charge:   12.3399    magn:   -1.2471    constr:    0.0000
     atom:   30    charge:   14.3930    magn:    1.6962    constr:    0.0000
     atom:   31    charge:   12.3370    magn:   -1.3087    constr:    0.0000
     atom:   32    charge:   12.6772    magn:    1.1230    constr:    0.0000
     atom:   33    charge:   12.3370    magn:   -1.3051    constr:    0.0000

     total cpu time spent up to now is    13607.4 secs

     End of self-consistent calculation

     Number of k-points >= 100: set verbosity='high' to print the bands.

     the Fermi energy is    20.8994 ev

!    total energy              =  -10864.23208987 Ry

     total all-electron energy =    -84002.017681 Ry
     estimated scf accuracy    <       0.00000095 Ry
     smearing contrib. (-TS)   =       0.00402915 Ry
     internal energy E=F+TS    =  -10864.23611903 Ry

     The total energy is F=E-TS. E is the sum of the following terms:
     one-electron contribution =   -3492.93912635 Ry
     hartree contribution      =    2121.07901634 Ry
     xc contribution           =    -916.86295774 Ry
     ewald contribution        =   -5843.30604005 Ry
     one-center paw contrib.   =   -2732.20701122 Ry

     total magnetization       =     5.95 Bohr mag/cell
     absolute magnetization    =    44.33 Bohr mag/cell

     convergence has been achieved in  75 iterations

     Forces acting on atoms (cartesian axes, Ry/au):

     atom    1 type  5   force =     0.00000000    0.00000000    0.00000000
     atom    2 type  1   force =    -0.01136113   -0.00487208   -0.01138893
     atom    3 type  2   force =     0.00000000    0.00000000   -0.58639324
     atom    4 type  3   force =     0.00000000   -0.46687998    0.00000000
     atom    5 type  4   force =    -0.58634806    0.00000000    0.00000000
     atom    6 type  1   force =    -0.01136113   -0.00487208    0.01138893
     atom    7 type  2   force =     0.00000000    0.00000000    0.58639324
     atom    8 type  3   force =     0.00000000   -0.00941880    0.00000000
     atom    9 type  4   force =    -0.01639866    0.00000000    0.00000000
     atom   10 type  1   force =    -0.01136113    0.00487208   -0.01138893
     atom   11 type  2   force =     0.00000000    0.00000000   -0.00441011
     atom   12 type  3   force =     0.00000000    0.46687998    0.00000000
     atom   13 type  4   force =    -0.00445689    0.00000000    0.00000000
     atom   14 type  1   force =    -0.01136113    0.00487208    0.01138893
     atom   15 type  2   force =     0.00000000    0.00000000    0.00441011
     atom   16 type  3   force =     0.00000000    0.00941880    0.00000000
     atom   17 type  4   force =    -0.00317658    0.00000000   -0.00000000
     atom   18 type  1   force =     0.01136113   -0.00487208   -0.01138893
     atom   19 type  2   force =     0.00000000    0.00000000   -0.01644906
     atom   20 type  3   force =     0.00000000   -0.00936677    0.00000000
     atom   21 type  4   force =     0.58634806    0.00000000    0.00000000
     atom   22 type  1   force =     0.01136113   -0.00487208    0.01138893
     atom   23 type  2   force =     0.00000000    0.00000000    0.01644906
     atom   24 type  3   force =     0.00000000    0.00238338    0.00000000
     atom   25 type  4   force =     0.01639866    0.00000000    0.00000000
     atom   26 type  1   force =     0.01136113    0.00487208   -0.01138893
     atom   27 type  2   force =     0.00000000    0.00000000   -0.00327371
     atom   28 type  3   force =     0.00000000    0.00936677    0.00000000
     atom   29 type  4   force =     0.00445689    0.00000000    0.00000000
     atom   30 type  1   force =     0.01136113    0.00487208    0.01138893
     atom   31 type  2   force =     0.00000000    0.00000000    0.00327371
     atom   32 type  3   force =     0.00000000   -0.00238338    0.00000000
     atom   33 type  4   force =     0.00317658    0.00000000   -0.00000000

     Total force =     1.347256     Total SCF correction =     0.003768


     Computing stress (Cartesian axis) and pressure

          total   stress  (Ry/bohr**3)                   (kbar)     P=      262.41
   0.00192029   0.00000000   0.00000000          282.49        0.00        0.00
   0.00000000   0.00151133   0.00000000            0.00      222.32        0.00
   0.00000000   0.00000000   0.00191990            0.00        0.00      282.43


     Writing output data file /scratch/bxp912/feocta1.save/
 
     init_run     :     58.96s CPU     60.47s WALL (       1 calls)
     electrons    :  13380.41s CPU  13541.76s WALL (       1 calls)
     forces       :     35.70s CPU     35.96s WALL (       1 calls)
     stress       :    164.99s CPU    166.29s WALL (       1 calls)

     Called by init_run:
     wfcinit      :     57.88s CPU     59.24s WALL (       1 calls)
     potinit      :      0.33s CPU      0.36s WALL (       1 calls)
     hinit0       :      0.38s CPU      0.44s WALL (       1 calls)

     Called by electrons:
     c_bands      :  11660.04s CPU  11793.60s WALL (      75 calls)
     sum_band     :   1697.31s CPU   1723.36s WALL (      75 calls)
     v_of_rho     :      1.79s CPU      1.92s WALL (      76 calls)
     newd         :      6.09s CPU      6.90s WALL (      76 calls)
     PAW_pot      :     13.98s CPU     14.68s WALL (      76 calls)
     mix_rho      :      0.74s CPU      0.87s WALL (      75 calls)

     Called by c_bands:
     init_us_2    :     64.07s CPU     65.01s WALL (   38250 calls)
     cegterg      :  11423.34s CPU  11553.09s WALL (   18750 calls)

     Called by *egterg:
     cdiaghg      :   1446.50s CPU   1454.51s WALL (   62528 calls)
     h_psi        :   6381.16s CPU   6480.04s WALL (   62778 calls)
     s_psi        :    488.90s CPU    492.27s WALL (   62778 calls)
     g_psi        :     11.19s CPU     11.36s WALL (   43778 calls)

     Called by h_psi:
     h_psi:calbec :    986.56s CPU    993.10s WALL (   62778 calls)
     vloc_psi     :   4880.29s CPU   4967.35s WALL (   62778 calls)
     add_vuspsi   :    486.23s CPU    491.34s WALL (   62778 calls)

     General routines
     calbec       :   1467.65s CPU   1477.52s WALL (   82778 calls)
     fft          :      1.52s CPU      1.57s WALL (    1938 calls)
     ffts         :      0.16s CPU      0.17s WALL (     302 calls)
     fftw         :   5881.82s CPU   5986.22s WALL (31843918 calls)
     interpolate  :      0.24s CPU      0.24s WALL (     152 calls)
 
     Parallel routines
     fft_scatt_xy :    265.42s CPU    270.23s WALL (31846158 calls)
     fft_scatt_yz :   5114.83s CPU   5206.96s WALL (31846158 calls)
 
     PWSCF        :      3h48m CPU      3h51m WALL

 
   This run was terminated on:  15:30:13   4Jan2022            

=------------------------------------------------------------------------------=
   JOB DONE.
=------------------------------------------------------------------------------=
