
     Program PWSCF v.6.7MaX starts on  4Jan2022 at  8: 0:42 

     This program is part of the open-source Quantum ESPRESSO suite
     for quantum simulation of materials; please cite
         "P. Giannozzi et al., J. Phys.:Condens. Matter 21 395502 (2009);
         "P. Giannozzi et al., J. Phys.:Condens. Matter 29 465901 (2017);
          URL http://www.quantum-espresso.org", 
     in publications or presentations arising from this work. More details at
     http://www.quantum-espresso.org/quote

     Parallel version (MPI & OpenMP), running on      72 processor cores
     Number of MPI processes:                72
     Threads/MPI process:                     1

     MPI processes distributed on     1 nodes
     R & G space division:  proc/nbgrp/npool/nimage =      72
     Reading input from pd_crowdion_2.in

     Current dimensions of program PWSCF are:
     Max number of different atomic species (ntypx) = 10
     Max number of k-points (npk) =  40000
     Max angular momentum in pseudopotentials (lmaxx) =  3
     file Pd.pbe-spn-kjpaw_psl.1.0.0.UPF: wavefunction(s)  4S 5S 4D renormalized

     Subspace diagonalization in iterative solution of the eigenvalue problem:
     one sub-group per band group will be used
     ELPA distributed-memory algorithm (size of sub-group:  8*  8 procs)

     Message from routine setup:
     using ibrav=0 with symmetry is DISCOURAGED, use correct ibrav instead
 
     Parallelization info
     --------------------
     sticks:   dense  smooth     PW     G-vecs:    dense   smooth      PW
     Min          98      65     17                 6240     3351     475
     Max          99      66     18                 6245     3355     482
     Sum        7113    4693   1281               449479   241377   34457
 


     bravais-lattice index     =            0
     lattice parameter (alat)  =      14.4007  a.u.
     unit-cell volume          =    2986.4454 (a.u.)^3
     number of atoms/cell      =           33
     number of atomic types    =            1
     number of electrons       =       594.00
     number of Kohn-Sham states=          356
     kinetic-energy cutoff     =      71.0000  Ry
     charge density cutoff     =     430.0000  Ry
     scf convergence threshold =      1.0E-06
     mixing beta               =       0.1000
     number of iterations used =           10  TF        mixing
     energy convergence thresh.=      1.0E-04
     force convergence thresh. =      1.0E-03
     press convergence thresh. =      5.0E-01
     Exchange-correlation= SLA  PW   PBX  PBC
                           (   1   4   3   4   0   0   0)
     nstep                     =           40


     celldm(1)=  14.400742  celldm(2)=   0.000000  celldm(3)=   0.000000
     celldm(4)=   0.000000  celldm(5)=   0.000000  celldm(6)=   0.000000

     crystal axes: (cart. coord. in units of alat)
               a(1) = (   1.000000   0.000000   0.000000 )  
               a(2) = (   0.000000   1.000000   0.000000 )  
               a(3) = (   0.000000   0.000000   1.000000 )  

     reciprocal axes: (cart. coord. in units 2 pi/alat)
               b(1) = (  1.000000  0.000000  0.000000 )  
               b(2) = (  0.000000  1.000000  0.000000 )  
               b(3) = (  0.000000  0.000000  1.000000 )  


     PseudoPot. # 1 for Pd read from file:
     /rds/homes/b/bxp912/pp/Pd.pbe-spn-kjpaw_psl.1.0.0.UPF
     MD5 check sum: 790f2ebce206edfd9790dcb9844eca51
     Pseudo is Projector augmented-wave + core cor, Zval = 18.0
     Generated using &quot;atomic&quot; code by A. Dal Corso  v.6.3
     Shape of augmentation charge: PSQ
     Using radial grid of 1235 points,  6 beta functions with: 
                l(1) =   0
                l(2) =   0
                l(3) =   1
                l(4) =   1
                l(5) =   2
                l(6) =   2
     Q(r) pseudized with 0 coefficients 


     atomic species   valence    mass     pseudopotential
        Pd            18.00   106.42000     Pd( 1.00)

      8 Sym. Ops., with inversion, found ( 6 have fractional translation)



   Cartesian axes

     site n.     atom                  positions (alat units)
         1           Pd  tau(   1) = (   0.0000000   0.3750000   0.1250000  )
         2           Pd  tau(   2) = (   0.0000000   0.0000000   0.0000000  )
         3           Pd  tau(   3) = (   0.2500000   0.2500000   0.0000000  )
         4           Pd  tau(   4) = (   0.2500000   0.0000000   0.2500000  )
         5           Pd  tau(   5) = (   0.0000000   0.2500000   0.2500000  )
         6           Pd  tau(   6) = (   0.0000000   0.0000000   0.5000000  )
         7           Pd  tau(   7) = (   0.2500000   0.2500000   0.5000000  )
         8           Pd  tau(   8) = (   0.2500000   0.0000000   0.7500000  )
         9           Pd  tau(   9) = (   0.0000000   0.2500000   0.7500000  )
        10           Pd  tau(  10) = (   0.0000000   0.5000000   0.0000000  )
        11           Pd  tau(  11) = (   0.2500000   0.7500000   0.0000000  )
        12           Pd  tau(  12) = (   0.2500000   0.5000000   0.2500000  )
        13           Pd  tau(  13) = (   0.0000000   0.7500000   0.2500000  )
        14           Pd  tau(  14) = (   0.0000000   0.5000000   0.5000000  )
        15           Pd  tau(  15) = (   0.2500000   0.7500000   0.5000000  )
        16           Pd  tau(  16) = (   0.2500000   0.5000000   0.7500000  )
        17           Pd  tau(  17) = (   0.0000000   0.7500000   0.7500000  )
        18           Pd  tau(  18) = (   0.5000000   0.0000000   0.0000000  )
        19           Pd  tau(  19) = (   0.7500000   0.2500000   0.0000000  )
        20           Pd  tau(  20) = (   0.7500000   0.0000000   0.2500000  )
        21           Pd  tau(  21) = (   0.5000000   0.2500000   0.2500000  )
        22           Pd  tau(  22) = (   0.5000000   0.0000000   0.5000000  )
        23           Pd  tau(  23) = (   0.7500000   0.2500000   0.5000000  )
        24           Pd  tau(  24) = (   0.7500000   0.0000000   0.7500000  )
        25           Pd  tau(  25) = (   0.5000000   0.2500000   0.7500000  )
        26           Pd  tau(  26) = (   0.5000000   0.5000000   0.0000000  )
        27           Pd  tau(  27) = (   0.7500000   0.7500000   0.0000000  )
        28           Pd  tau(  28) = (   0.7500000   0.5000000   0.2500000  )
        29           Pd  tau(  29) = (   0.5000000   0.7500000   0.2500000  )
        30           Pd  tau(  30) = (   0.5000000   0.5000000   0.5000000  )
        31           Pd  tau(  31) = (   0.7500000   0.7500000   0.5000000  )
        32           Pd  tau(  32) = (   0.7500000   0.5000000   0.7500000  )
        33           Pd  tau(  33) = (   0.5000000   0.7500000   0.7500000  )

     number of k points=   125  Marzari-Vanderbilt smearing, width (Ry)=  0.0400

     Number of k-points >= 100: set verbosity='high' to print them.

     Dense  grid:   449479 G-vectors     FFT dimensions: (  96,  96,  96)

     Smooth grid:   241377 G-vectors     FFT dimensions: (  80,  80,  80)

     Estimated max dynamical RAM per process >     325.28 MB

     Estimated total dynamical RAM >      22.87 GB

     Check: negative core charge=   -0.000001

     Initial potential from superposition of free atoms

     starting charge  593.98738, renormalised to  594.00000
     Starting wfcs are  330 randomized atomic wfcs +   26 random wfcs
     Checking if some PAW data can be deallocated... 

     total cpu time spent up to now is       41.9 secs

     Self-consistent Calculation

     iteration #  1     ecut=    71.00 Ry     beta= 0.10
     Davidson diagonalization with overlap
     ethr =  1.00E-02,  avg # of iterations =  3.0

     Threshold (ethr) on eigenvalues was too large:
     Diagonalizing with lowered threshold

     Davidson diagonalization with overlap
     ethr =  1.98E-04,  avg # of iterations =  2.1

     total cpu time spent up to now is      305.1 secs

     total energy              =  -16889.71119417 Ry
     estimated scf accuracy    <       1.14157781 Ry

     iteration #  2     ecut=    71.00 Ry     beta= 0.10
     Davidson diagonalization with overlap
     ethr =  1.92E-04,  avg # of iterations =  1.1

     total cpu time spent up to now is      408.3 secs

     total energy              =  -16889.42015458 Ry
     estimated scf accuracy    <       0.89673647 Ry

     iteration #  3     ecut=    71.00 Ry     beta= 0.10
     Davidson diagonalization with overlap
     ethr =  1.51E-04,  avg # of iterations =  2.8

     total cpu time spent up to now is      528.5 secs

     total energy              =  -16889.47838652 Ry
     estimated scf accuracy    <       0.19147421 Ry

     iteration #  4     ecut=    71.00 Ry     beta= 0.10
     Davidson diagonalization with overlap
     c_bands:  1 eigenvalues not converged
     c_bands:  1 eigenvalues not converged
     ethr =  3.22E-05,  avg # of iterations =  7.7

     total cpu time spent up to now is      665.5 secs

     total energy              =  -16889.48320291 Ry
     estimated scf accuracy    <       0.06433096 Ry

     iteration #  5     ecut=    71.00 Ry     beta= 0.10
     Davidson diagonalization with overlap
     c_bands:  1 eigenvalues not converged
     c_bands:  1 eigenvalues not converged
     c_bands:  1 eigenvalues not converged
     ethr =  1.08E-05,  avg # of iterations =  5.6

     total cpu time spent up to now is      792.6 secs

     total energy              =  -16889.46713040 Ry
     estimated scf accuracy    <       0.04734379 Ry

     iteration #  6     ecut=    71.00 Ry     beta= 0.10
     Davidson diagonalization with overlap
     c_bands:  1 eigenvalues not converged
     ethr =  7.97E-06,  avg # of iterations =  5.2

     total cpu time spent up to now is      939.1 secs

     total energy              =  -16889.47260898 Ry
     estimated scf accuracy    <       0.00647378 Ry

     iteration #  7     ecut=    71.00 Ry     beta= 0.10
     Davidson diagonalization with overlap
     c_bands:  1 eigenvalues not converged
     c_bands:  1 eigenvalues not converged
     ethr =  1.09E-06,  avg # of iterations =  7.7

     total cpu time spent up to now is     1075.0 secs

     total energy              =  -16889.47239172 Ry
     estimated scf accuracy    <       0.00350059 Ry

     iteration #  8     ecut=    71.00 Ry     beta= 0.10
     Davidson diagonalization with overlap
     ethr =  5.89E-07,  avg # of iterations =  2.0

     total cpu time spent up to now is     1191.0 secs

     total energy              =  -16889.47171435 Ry
     estimated scf accuracy    <       0.00211643 Ry

     iteration #  9     ecut=    71.00 Ry     beta= 0.10
     Davidson diagonalization with overlap
     ethr =  3.56E-07,  avg # of iterations =  2.0

     total cpu time spent up to now is     1308.9 secs

     total energy              =  -16889.47184395 Ry
     estimated scf accuracy    <       0.00024744 Ry

     iteration # 10     ecut=    71.00 Ry     beta= 0.10
     Davidson diagonalization with overlap
     ethr =  4.17E-08,  avg # of iterations =  2.0

     total cpu time spent up to now is     1428.6 secs

     total energy              =  -16889.47185022 Ry
     estimated scf accuracy    <       0.00010647 Ry

     iteration # 11     ecut=    71.00 Ry     beta= 0.10
     Davidson diagonalization with overlap
     ethr =  1.79E-08,  avg # of iterations =  2.0

     total cpu time spent up to now is     1546.3 secs

     total energy              =  -16889.47184601 Ry
     estimated scf accuracy    <       0.00005167 Ry

     iteration # 12     ecut=    71.00 Ry     beta= 0.10
     Davidson diagonalization with overlap
     ethr =  8.70E-09,  avg # of iterations =  2.0

     total cpu time spent up to now is     1668.9 secs

     total energy              =  -16889.47185622 Ry
     estimated scf accuracy    <       0.00001729 Ry

     iteration # 13     ecut=    71.00 Ry     beta= 0.10
     Davidson diagonalization with overlap
     ethr =  2.91E-09,  avg # of iterations =  1.4

     total cpu time spent up to now is     1776.2 secs

     total energy              =  -16889.47185732 Ry
     estimated scf accuracy    <       0.00000826 Ry

     iteration # 14     ecut=    71.00 Ry     beta= 0.10
     Davidson diagonalization with overlap
     ethr =  1.39E-09,  avg # of iterations =  2.0

     total cpu time spent up to now is     1894.7 secs

     total energy              =  -16889.47186023 Ry
     estimated scf accuracy    <       0.00000196 Ry

     iteration # 15     ecut=    71.00 Ry     beta= 0.10
     Davidson diagonalization with overlap
     ethr =  3.30E-10,  avg # of iterations =  2.0

     total cpu time spent up to now is     2016.8 secs

     End of self-consistent calculation

     Number of k-points >= 100: set verbosity='high' to print the bands.

     the Fermi energy is    22.8668 ev

!    total energy              =  -16889.47186985 Ry

     total all-electron energy =   -333030.352255 Ry
     estimated scf accuracy    <       0.00000071 Ry
     smearing contrib. (-TS)   =       0.05867442 Ry
     internal energy E=F+TS    =  -16889.53054426 Ry

     The total energy is F=E-TS. E is the sum of the following terms:
     one-electron contribution =   -2426.72080424 Ry
     hartree contribution      =    1702.18341446 Ry
     xc contribution           =   -1023.85753057 Ry
     ewald contribution        =   -6718.12153546 Ry
     one-center paw contrib.   =   -8423.01408846 Ry

     convergence has been achieved in  15 iterations

     Forces acting on atoms (cartesian axes, Ry/au):

     atom    1 type  1   force =     0.00000000    0.00000000    0.00000000
     atom    2 type  1   force =     0.00000000   -0.02682956   -0.01277654
     atom    3 type  1   force =     0.17454369   -0.08839474   -0.08839474
     atom    4 type  1   force =     0.00654044   -0.00794220    0.00140352
     atom    5 type  1   force =     0.00000000   -5.70891254    5.70891254
     atom    6 type  1   force =     0.00000000   -0.00502917    0.00502917
     atom    7 type  1   force =     0.00654044   -0.00140352    0.00794220
     atom    8 type  1   force =     0.00049256   -0.00134804   -0.00134804
     atom    9 type  1   force =     0.00000000   -0.01277654   -0.02682956
     atom   10 type  1   force =     0.00000000    5.70891254   -5.70891254
     atom   11 type  1   force =     0.00654044    0.00794220   -0.00140352
     atom   12 type  1   force =     0.17454369    0.08839474    0.08839474
     atom   13 type  1   force =     0.00000000    0.02682956    0.01277654
     atom   14 type  1   force =     0.00000000    0.01277654    0.02682956
     atom   15 type  1   force =     0.00049256    0.00134804    0.00134804
     atom   16 type  1   force =     0.00654044    0.00140352   -0.00794220
     atom   17 type  1   force =     0.00000000    0.00502917   -0.00502917
     atom   18 type  1   force =     0.00000000   -0.00396450   -0.00127124
     atom   19 type  1   force =    -0.17454369   -0.08839474   -0.08839474
     atom   20 type  1   force =    -0.00654044   -0.00794220    0.00140352
     atom   21 type  1   force =     0.00000000   -0.00215794    0.00215794
     atom   22 type  1   force =     0.00000000    0.00022620   -0.00022620
     atom   23 type  1   force =    -0.00654044   -0.00140352    0.00794220
     atom   24 type  1   force =    -0.00049256   -0.00134804   -0.00134804
     atom   25 type  1   force =     0.00000000   -0.00127124   -0.00396450
     atom   26 type  1   force =     0.00000000    0.00215794   -0.00215794
     atom   27 type  1   force =    -0.00654044    0.00794220   -0.00140352
     atom   28 type  1   force =    -0.17454369    0.08839474    0.08839474
     atom   29 type  1   force =     0.00000000    0.00396450    0.00127124
     atom   30 type  1   force =     0.00000000    0.00127124    0.00396450
     atom   31 type  1   force =    -0.00049256    0.00134804    0.00134804
     atom   32 type  1   force =    -0.00654044    0.00140352   -0.00794220
     atom   33 type  1   force =     0.00000000   -0.00022620    0.00022620

     Total force =    11.426097     Total SCF correction =     0.003877


     Computing stress (Cartesian axis) and pressure

          total   stress  (Ry/bohr**3)                   (kbar)     P=      992.77
   0.00252632   0.00000000   0.00000000          371.63        0.00        0.00
   0.00000000   0.00885992  -0.00661817            0.00     1303.34     -973.57
   0.00000000  -0.00661817   0.00885992            0.00     -973.57     1303.34


     BFGS Geometry Optimization
     Energy error            =      0.0E+00
     Gradient error          =      5.7E+00
     Cell gradient error     =      8.9E-03


     number of scf cycles    =   1
     number of bfgs steps    =   0

     enthalpy new            =  -16889.4718698475 Ry

     new trust radius        =       0.5000000000 bohr
     new conv_thr            =       0.0000010000 Ry

     new unit-cell volume =   3080.62879 a.u.^3 (   456.50209 Ang^3 )
     density =     12.77449 g/cm^3

CELL_PARAMETERS (alat= 14.40074160)
   1.003911376   0.000000000   0.000000000
   0.000000000   1.013717391  -0.010246592
   0.000000000  -0.010246592   1.013717391

ATOMIC_POSITIONS (crystal)
Pd            0.0000000000        0.3750000000        0.1250000000
Pd            0.0000000000       -0.0001153799       -0.0000549452
Pd            0.2507506213        0.2496198603       -0.0003801397
Pd            0.2500281270       -0.0000341552        0.2500060358
Pd            0.0000000000        0.2254489456        0.2745510544
Pd            0.0000000000       -0.0000216278        0.5000216278
Pd            0.2500281270        0.2499939642        0.5000341552
Pd            0.2500021182       -0.0000057972        0.7499942028
Pd            0.0000000000        0.2499450548        0.7498846201
Pd            0.0000000000        0.5245510544       -0.0245510544
Pd            0.2500281270        0.7500341552       -0.0000060358
Pd            0.2507506213        0.5003801397        0.2503801397
Pd            0.0000000000        0.7501153799        0.2500549452
Pd            0.0000000000        0.5000549452        0.5001153799
Pd            0.2500021182        0.7500057972        0.5000057972
Pd            0.2500281270        0.5000060358        0.7499658448
Pd            0.0000000000        0.7500216278        0.7499783722
Pd            0.5000000000       -0.0000170493       -0.0000054670
Pd            0.7492493787        0.2496198603       -0.0003801397
Pd            0.7499718730       -0.0000341552        0.2500060358
Pd            0.5000000000        0.2499907198        0.2500092802
Pd            0.5000000000        0.0000009728        0.4999990272
Pd            0.7499718730        0.2499939642        0.5000341552
Pd            0.7499978818       -0.0000057972        0.7499942028
Pd            0.5000000000        0.2499945330        0.7499829507
Pd            0.5000000000        0.5000092802       -0.0000092802
Pd            0.7499718730        0.7500341552       -0.0000060358
Pd            0.7492493787        0.5003801397        0.2503801397
Pd            0.5000000000        0.7500170493        0.2500054670
Pd            0.5000000000        0.5000054670        0.5000170493
Pd            0.7499978818        0.7500057972        0.5000057972
Pd            0.7499718730        0.5000060358        0.7499658448
Pd            0.5000000000        0.7499990272        0.7500009728



     Writing output data file /scratch/pdcrowdion2.save/
     NEW-OLD atomic charge density approx. for the potential

     Check: negative core charge=   -0.000002
     extrapolated charge  612.15985, renormalised to  594.00000

     total cpu time spent up to now is     2181.7 secs

     Self-consistent Calculation

     iteration #  1     ecut=    71.00 Ry     beta= 0.10
     Davidson diagonalization with overlap
     c_bands:  2 eigenvalues not converged
     c_bands:  2 eigenvalues not converged
     c_bands:  1 eigenvalues not converged
     c_bands:  1 eigenvalues not converged
     c_bands:  2 eigenvalues not converged
     c_bands:  1 eigenvalues not converged
     ethr =  1.00E-06,  avg # of iterations = 15.0

     total cpu time spent up to now is     2671.3 secs

     total energy              =  -16891.45492994 Ry
     estimated scf accuracy    <      13.38392203 Ry

     iteration #  2     ecut=    71.00 Ry     beta= 0.10
     Davidson diagonalization with overlap
     ethr =  2.25E-03,  avg # of iterations =  2.0

     total cpu time spent up to now is     2808.8 secs

     total energy              =  -16895.31279642 Ry
     estimated scf accuracy    <       3.42561721 Ry

     iteration #  3     ecut=    71.00 Ry     beta= 0.10
     Davidson diagonalization with overlap
     ethr =  5.77E-04,  avg # of iterations =  1.1

     total cpu time spent up to now is     2912.7 secs

     total energy              =  -16894.58344126 Ry
     estimated scf accuracy    <       2.36138834 Ry

     iteration #  4     ecut=    71.00 Ry     beta= 0.10
     Davidson diagonalization with overlap
     ethr =  3.98E-04,  avg # of iterations =  2.0

     total cpu time spent up to now is     3031.4 secs

     total energy              =  -16894.81828488 Ry
     estimated scf accuracy    <       0.48465585 Ry

     iteration #  5     ecut=    71.00 Ry     beta= 0.10
     Davidson diagonalization with overlap
     ethr =  8.16E-05,  avg # of iterations =  2.1

     total cpu time spent up to now is     3142.7 secs

     total energy              =  -16894.64820661 Ry
     estimated scf accuracy    <       0.23849592 Ry

     iteration #  6     ecut=    71.00 Ry     beta= 0.10
     Davidson diagonalization with overlap
     ethr =  4.02E-05,  avg # of iterations =  5.4

     total cpu time spent up to now is     3288.1 secs

     total energy              =  -16894.68045392 Ry
     estimated scf accuracy    <       0.05576486 Ry

     iteration #  7     ecut=    71.00 Ry     beta= 0.10
     Davidson diagonalization with overlap
     c_bands:  1 eigenvalues not converged
     c_bands:  1 eigenvalues not converged
     c_bands:  1 eigenvalues not converged
     ethr =  9.39E-06,  avg # of iterations =  7.2

     total cpu time spent up to now is     3423.8 secs

     total energy              =  -16894.65767232 Ry
     estimated scf accuracy    <       0.05194495 Ry

     iteration #  8     ecut=    71.00 Ry     beta= 0.10
     Davidson diagonalization with overlap
     c_bands:  1 eigenvalues not converged
     c_bands:  1 eigenvalues not converged
     ethr =  8.74E-06,  avg # of iterations =  2.7

     total cpu time spent up to now is     3550.8 secs

     total energy              =  -16894.65956580 Ry
     estimated scf accuracy    <       0.05132986 Ry

     iteration #  9     ecut=    71.00 Ry     beta= 0.10
     Davidson diagonalization with overlap
     ethr =  8.64E-06,  avg # of iterations =  2.0

     total cpu time spent up to now is     3669.6 secs

     total energy              =  -16894.66296095 Ry
     estimated scf accuracy    <       0.00377510 Ry

     iteration # 10     ecut=    71.00 Ry     beta= 0.10
     Davidson diagonalization with overlap
     c_bands:  1 eigenvalues not converged
     c_bands:  2 eigenvalues not converged
     c_bands:  1 eigenvalues not converged
     c_bands:  1 eigenvalues not converged
     c_bands:  1 eigenvalues not converged
     c_bands:  1 eigenvalues not converged
     ethr =  6.36E-07,  avg # of iterations =  5.5

     total cpu time spent up to now is     3799.9 secs

     total energy              =  -16894.66309408 Ry
     estimated scf accuracy    <       0.00189870 Ry

     iteration # 11     ecut=    71.00 Ry     beta= 0.10
     Davidson diagonalization with overlap
     ethr =  3.20E-07,  avg # of iterations =  1.3

     total cpu time spent up to now is     3904.0 secs

     total energy              =  -16894.66264522 Ry
     estimated scf accuracy    <       0.00131149 Ry

     iteration # 12     ecut=    71.00 Ry     beta= 0.10
     Davidson diagonalization with overlap
     ethr =  2.21E-07,  avg # of iterations =  2.0

     total cpu time spent up to now is     4025.3 secs

     total energy              =  -16894.66269432 Ry
     estimated scf accuracy    <       0.00325261 Ry

     iteration # 13     ecut=    71.00 Ry     beta= 0.10
     Davidson diagonalization with overlap
     ethr =  2.21E-07,  avg # of iterations =  2.0

     total cpu time spent up to now is     4142.2 secs

     total energy              =  -16894.66278783 Ry
     estimated scf accuracy    <       0.00018680 Ry

     iteration # 14     ecut=    71.00 Ry     beta= 0.10
     Davidson diagonalization with overlap
     ethr =  3.14E-08,  avg # of iterations =  2.0

     total cpu time spent up to now is     4260.9 secs

     total energy              =  -16894.66277947 Ry
     estimated scf accuracy    <       0.00015655 Ry

     iteration # 15     ecut=    71.00 Ry     beta= 0.10
     Davidson diagonalization with overlap
     ethr =  2.64E-08,  avg # of iterations =  2.0

     total cpu time spent up to now is     4379.2 secs

     total energy              =  -16894.66279267 Ry
     estimated scf accuracy    <       0.00001588 Ry

     iteration # 16     ecut=    71.00 Ry     beta= 0.10
     Davidson diagonalization with overlap
     ethr =  2.67E-09,  avg # of iterations =  2.0

     total cpu time spent up to now is     4499.6 secs

     total energy              =  -16894.66279053 Ry
     estimated scf accuracy    <       0.00002741 Ry

     iteration # 17     ecut=    71.00 Ry     beta= 0.10
     Davidson diagonalization with overlap
     ethr =  2.67E-09,  avg # of iterations =  2.0

     total cpu time spent up to now is     4619.0 secs

     total energy              =  -16894.66279324 Ry
     estimated scf accuracy    <       0.00000327 Ry

     iteration # 18     ecut=    71.00 Ry     beta= 0.10
     Davidson diagonalization with overlap
     ethr =  5.51E-10,  avg # of iterations =  2.0

     total cpu time spent up to now is     4736.8 secs

     total energy              =  -16894.66279376 Ry
     estimated scf accuracy    <       0.00000105 Ry

     iteration # 19     ecut=    71.00 Ry     beta= 0.10
     Davidson diagonalization with overlap
     ethr =  1.76E-10,  avg # of iterations =  3.0

     total cpu time spent up to now is     4860.0 secs

     End of self-consistent calculation

     Number of k-points >= 100: set verbosity='high' to print the bands.

     the Fermi energy is    21.8575 ev

!    total energy              =  -16894.66279690 Ry

     total all-electron energy =   -333035.543182 Ry
     estimated scf accuracy    <       0.00000016 Ry
     smearing contrib. (-TS)   =       0.04594937 Ry
     internal energy E=F+TS    =  -16894.70874627 Ry

     The total energy is F=E-TS. E is the sum of the following terms:
     one-electron contribution =   -2406.23855049 Ry
     hartree contribution      =    1679.62962389 Ry
     xc contribution           =   -1021.22566649 Ry
     ewald contribution        =   -6724.03290647 Ry
     one-center paw contrib.   =   -8422.84124671 Ry

     convergence has been achieved in  19 iterations

     Forces acting on atoms (cartesian axes, Ry/au):

     atom    1 type  1   force =     0.00000000    0.00000000    0.00000000
     atom    2 type  1   force =     0.00000000   -0.01504916   -0.01113610
     atom    3 type  1   force =     0.12277210   -0.06350379   -0.06350379
     atom    4 type  1   force =     0.01910253   -0.01840826   -0.00178333
     atom    5 type  1   force =     0.00000000   -1.46503501    1.46503501
     atom    6 type  1   force =     0.00000000   -0.04473461    0.04473461
     atom    7 type  1   force =     0.01910253    0.00178333    0.01840826
     atom    8 type  1   force =     0.00082656   -0.00138269   -0.00138269
     atom    9 type  1   force =    -0.00000000   -0.01113610   -0.01504916
     atom   10 type  1   force =     0.00000000    1.46503501   -1.46503501
     atom   11 type  1   force =     0.01910253    0.01840826    0.00178333
     atom   12 type  1   force =     0.12277210    0.06350379    0.06350379
     atom   13 type  1   force =     0.00000000    0.01504916    0.01113610
     atom   14 type  1   force =    -0.00000000    0.01113610    0.01504916
     atom   15 type  1   force =     0.00082656    0.00138269    0.00138269
     atom   16 type  1   force =     0.01910253   -0.00178333   -0.01840826
     atom   17 type  1   force =     0.00000000    0.04473461   -0.04473461
     atom   18 type  1   force =     0.00000000   -0.00442765   -0.00149272
     atom   19 type  1   force =    -0.12277210   -0.06350379   -0.06350379
     atom   20 type  1   force =    -0.01910253   -0.01840826   -0.00178333
     atom   21 type  1   force =    -0.00000000   -0.00072626    0.00072626
     atom   22 type  1   force =     0.00000000   -0.00041181    0.00041181
     atom   23 type  1   force =    -0.01910253    0.00178333    0.01840826
     atom   24 type  1   force =    -0.00082656   -0.00138269   -0.00138269
     atom   25 type  1   force =     0.00000000   -0.00149272   -0.00442765
     atom   26 type  1   force =    -0.00000000    0.00072626   -0.00072626
     atom   27 type  1   force =    -0.01910253    0.01840826    0.00178333
     atom   28 type  1   force =    -0.12277210    0.06350379    0.06350379
     atom   29 type  1   force =     0.00000000    0.00442765    0.00149272
     atom   30 type  1   force =     0.00000000    0.00149272    0.00442765
     atom   31 type  1   force =    -0.00082656    0.00138269    0.00138269
     atom   32 type  1   force =    -0.01910253   -0.00178333   -0.01840826
     atom   33 type  1   force =     0.00000000    0.00041181   -0.00041181

     Total force =     2.948395     Total SCF correction =     0.001748


     Computing stress (Cartesian axis) and pressure

          total   stress  (Ry/bohr**3)                   (kbar)     P=      439.54
   0.00179840   0.00000000   0.00000000          264.55        0.00        0.00
   0.00000000   0.00358273  -0.00193084            0.00      527.04     -284.04
   0.00000000  -0.00193084   0.00358273            0.00     -284.04      527.04

     Energy error            =      5.2E+00
     Gradient error          =      1.5E+00
     Cell gradient error     =      3.6E-03


     number of scf cycles    =   2
     number of bfgs steps    =   1

     enthalpy old            =  -16889.4718698475 Ry
     enthalpy new            =  -16894.6627969044 Ry

     CASE: enthalpy_new < enthalpy_old

     new trust radius        =       0.5172423003 bohr
     new conv_thr            =       0.0000010000 Ry

     new unit-cell volume =   3509.81038 a.u.^3 (   520.10024 Ang^3 )
     density =     11.21242 g/cm^3

CELL_PARAMETERS (alat= 14.40074160)
   1.045401027   0.000000000   0.000000000
   0.000000000   1.060441199  -0.018134540
   0.000000000  -0.018134540   1.060441199

ATOMIC_POSITIONS (crystal)
Pd            0.0000000000        0.3750000000        0.1250000000
Pd            0.0000000000       -0.0009083238       -0.0008097622
Pd            0.2582880732        0.2456771880       -0.0043228120
Pd            0.2517100421       -0.0016300514        0.2498157326
Pd            0.0000000000        0.2222254087        0.2777745913
Pd            0.0000000000       -0.0043006337        0.5043006337
Pd            0.2517100421        0.2501842674        0.5016300514
Pd            0.2500697192       -0.0001058811        0.7498941189
Pd           -0.0000000000        0.2491902378        0.7490916762
Pd            0.0000000000        0.5277745913       -0.0277745913
Pd            0.2517100421        0.7516300514        0.0001842674
Pd            0.2582880732        0.5043228120        0.2543228120
Pd            0.0000000000        0.7509083238        0.2508097622
Pd           -0.0000000000        0.5008097622        0.5009083238
Pd            0.2500697192        0.7501058811        0.5001058811
Pd            0.2517100421        0.4998157326        0.7483699486
Pd            0.0000000000        0.7543006337        0.7456993663
Pd            0.5000000000       -0.0003491270       -0.0001151702
Pd            0.7417119268        0.2456771880       -0.0043228120
Pd            0.7482899579       -0.0016300514        0.2498157326
Pd            0.5000000000        0.2499725236        0.2500274764
Pd            0.5000000000       -0.0000451476        0.5000451476
Pd            0.7482899579        0.2501842674        0.5016300514
Pd            0.7499302808       -0.0001058811        0.7498941189
Pd            0.5000000000        0.2498848298        0.7496508730
Pd            0.5000000000        0.5000274764       -0.0000274764
Pd            0.7482899579        0.7516300514        0.0001842674
Pd            0.7417119268        0.5043228120        0.2543228120
Pd            0.5000000000        0.7503491270        0.2501151702
Pd            0.5000000000        0.5001151702        0.5003491270
Pd            0.7499302808        0.7501058811        0.5001058811
Pd            0.7482899579        0.4998157326        0.7483699486
Pd            0.5000000000        0.7500451476        0.7499548524



     Writing output data file /scratch/pdcrowdion2.save/
     NEW-OLD atomic charge density approx. for the potential

     Check: negative core charge=   -0.000005
     extrapolated charge  666.63311, renormalised to  594.00000

     total cpu time spent up to now is     5021.1 secs

     Self-consistent Calculation

     iteration #  1     ecut=    71.00 Ry     beta= 0.10
     Davidson diagonalization with overlap
     c_bands:  1 eigenvalues not converged
     c_bands:  2 eigenvalues not converged
     c_bands:  1 eigenvalues not converged
     c_bands:  2 eigenvalues not converged
     c_bands:  1 eigenvalues not converged
     c_bands:  2 eigenvalues not converged
     c_bands:  3 eigenvalues not converged
     c_bands:  1 eigenvalues not converged
     c_bands:  4 eigenvalues not converged
     c_bands:  2 eigenvalues not converged
     c_bands:  2 eigenvalues not converged
     c_bands:  2 eigenvalues not converged
     c_bands:  2 eigenvalues not converged
     c_bands:  2 eigenvalues not converged
     c_bands:  1 eigenvalues not converged
     c_bands:  2 eigenvalues not converged
     c_bands:  1 eigenvalues not converged
     c_bands:  4 eigenvalues not converged
     c_bands:  4 eigenvalues not converged
     c_bands:  3 eigenvalues not converged
     c_bands:  3 eigenvalues not converged
     c_bands:  3 eigenvalues not converged
     c_bands:  3 eigenvalues not converged
     c_bands:  3 eigenvalues not converged
     c_bands:  4 eigenvalues not converged
     c_bands:  3 eigenvalues not converged
     c_bands:  3 eigenvalues not converged
     c_bands:  5 eigenvalues not converged
     c_bands:  5 eigenvalues not converged
     c_bands:  4 eigenvalues not converged
     c_bands:  1 eigenvalues not converged
     c_bands:  2 eigenvalues not converged
     c_bands:  2 eigenvalues not converged
     c_bands:  1 eigenvalues not converged
     c_bands:  2 eigenvalues not converged
     c_bands:  1 eigenvalues not converged
     c_bands:  2 eigenvalues not converged
     c_bands:  3 eigenvalues not converged
     c_bands:  1 eigenvalues not converged
     c_bands:  2 eigenvalues not converged
     c_bands:  3 eigenvalues not converged
     c_bands:  1 eigenvalues not converged
     c_bands:  3 eigenvalues not converged
     c_bands:  2 eigenvalues not converged
     c_bands:  2 eigenvalues not converged
     c_bands:  1 eigenvalues not converged
     c_bands:  2 eigenvalues not converged
     c_bands:  1 eigenvalues not converged
     c_bands:  2 eigenvalues not converged
     c_bands:  2 eigenvalues not converged
     c_bands:  2 eigenvalues not converged
     c_bands:  2 eigenvalues not converged
     c_bands:  1 eigenvalues not converged
     c_bands:  1 eigenvalues not converged
     c_bands:  2 eigenvalues not converged
     c_bands:  2 eigenvalues not converged
     c_bands:  1 eigenvalues not converged
     c_bands:  2 eigenvalues not converged
     c_bands:  2 eigenvalues not converged
     c_bands:  2 eigenvalues not converged
     c_bands:  1 eigenvalues not converged
     c_bands:  2 eigenvalues not converged
     c_bands:  2 eigenvalues not converged
     c_bands:  1 eigenvalues not converged
     c_bands:  2 eigenvalues not converged
     c_bands:  3 eigenvalues not converged
     c_bands:  1 eigenvalues not converged
     c_bands:  1 eigenvalues not converged
     c_bands:  1 eigenvalues not converged
     c_bands:  3 eigenvalues not converged
     c_bands:  2 eigenvalues not converged
     c_bands:  1 eigenvalues not converged
     c_bands:  2 eigenvalues not converged
     c_bands:  5 eigenvalues not converged
     c_bands:  1 eigenvalues not converged
     c_bands:  1 eigenvalues not converged
     c_bands:  2 eigenvalues not converged
     c_bands:  1 eigenvalues not converged
     c_bands:  3 eigenvalues not converged
     c_bands:  2 eigenvalues not converged
     c_bands:  2 eigenvalues not converged
     c_bands:  4 eigenvalues not converged
     c_bands:  1 eigenvalues not converged
     c_bands:  3 eigenvalues not converged
     c_bands:  4 eigenvalues not converged
     c_bands:  4 eigenvalues not converged
     c_bands:  5 eigenvalues not converged
     c_bands:  3 eigenvalues not converged
     c_bands:  3 eigenvalues not converged
     c_bands:  4 eigenvalues not converged
     c_bands:  2 eigenvalues not converged
     c_bands:  5 eigenvalues not converged
     c_bands:  1 eigenvalues not converged
     c_bands:  2 eigenvalues not converged
     c_bands:  4 eigenvalues not converged
     ethr =  1.00E-06,  avg # of iterations = 19.1

     total cpu time spent up to now is     5615.7 secs

     total energy              =  -16836.28064429 Ry
     estimated scf accuracy    <     185.93928202 Ry

     iteration #  2     ecut=    71.00 Ry     beta= 0.10
     Davidson diagonalization with overlap
     ethr =  1.00E-02,  avg # of iterations =  5.0

     total cpu time spent up to now is     5799.0 secs

     total energy              =  -16899.03850626 Ry
     estimated scf accuracy    <       9.89098581 Ry

     iteration #  3     ecut=    71.00 Ry     beta= 0.10
     Davidson diagonalization with overlap
     ethr =  1.67E-03,  avg # of iterations =  1.6

     total cpu time spent up to now is     5909.2 secs

     total energy              =  -16892.63189640 Ry
     estimated scf accuracy    <       8.13596151 Ry

     iteration #  4     ecut=    71.00 Ry     beta= 0.10
     Davidson diagonalization with overlap
     ethr =  1.37E-03,  avg # of iterations =  2.0

     total cpu time spent up to now is     6057.0 secs

     total energy              =  -16895.80488355 Ry
     estimated scf accuracy    <       2.89815115 Ry

     iteration #  5     ecut=    71.00 Ry     beta= 0.10
     Davidson diagonalization with overlap
     ethr =  4.88E-04,  avg # of iterations =  1.6

     total cpu time spent up to now is     6164.6 secs

     total energy              =  -16895.83739104 Ry
     estimated scf accuracy    <       1.05141932 Ry

     iteration #  6     ecut=    71.00 Ry     beta= 0.10
     Davidson diagonalization with overlap
     ethr =  1.77E-04,  avg # of iterations =  3.7

     total cpu time spent up to now is     6284.0 secs

     total energy              =  -16895.76358907 Ry
     estimated scf accuracy    <       0.71109613 Ry

     iteration #  7     ecut=    71.00 Ry     beta= 0.10
     Davidson diagonalization with overlap
     ethr =  1.20E-04,  avg # of iterations =  4.8

     total cpu time spent up to now is     6407.3 secs

     total energy              =  -16895.64493797 Ry
     estimated scf accuracy    <       0.35556653 Ry

     iteration #  8     ecut=    71.00 Ry     beta= 0.10
     Davidson diagonalization with overlap
     c_bands:  1 eigenvalues not converged
     ethr =  5.99E-05,  avg # of iterations =  5.2

     total cpu time spent up to now is     6554.1 secs

     total energy              =  -16895.69275918 Ry
     estimated scf accuracy    <       0.01594695 Ry

     iteration #  9     ecut=    71.00 Ry     beta= 0.10
     Davidson diagonalization with overlap
     c_bands:  1 eigenvalues not converged
     c_bands:  1 eigenvalues not converged
     c_bands:  1 eigenvalues not converged
     c_bands:  1 eigenvalues not converged
     ethr =  2.68E-06,  avg # of iterations = 11.6

     total cpu time spent up to now is     6705.4 secs

     total energy              =  -16895.69434555 Ry
     estimated scf accuracy    <       0.00494576 Ry

     iteration # 10     ecut=    71.00 Ry     beta= 0.10
     Davidson diagonalization with overlap
     ethr =  8.33E-07,  avg # of iterations =  2.0

     total cpu time spent up to now is     6827.9 secs

     total energy              =  -16895.68898202 Ry
     estimated scf accuracy    <       0.00846387 Ry

     iteration # 11     ecut=    71.00 Ry     beta= 0.10
     Davidson diagonalization with overlap
     ethr =  8.33E-07,  avg # of iterations =  2.0

     total cpu time spent up to now is     6975.8 secs

     total energy              =  -16895.68950926 Ry
     estimated scf accuracy    <       0.00207791 Ry

     iteration # 12     ecut=    71.00 Ry     beta= 0.10
     Davidson diagonalization with overlap
     ethr =  3.50E-07,  avg # of iterations =  2.0

     total cpu time spent up to now is     7093.6 secs

     total energy              =  -16895.68971178 Ry
     estimated scf accuracy    <       0.00042016 Ry

     iteration # 13     ecut=    71.00 Ry     beta= 0.10
     Davidson diagonalization with overlap
     ethr =  7.07E-08,  avg # of iterations =  2.0

     total cpu time spent up to now is     7214.0 secs

     total energy              =  -16895.68969676 Ry
     estimated scf accuracy    <       0.00029490 Ry

     iteration # 14     ecut=    71.00 Ry     beta= 0.10
     Davidson diagonalization with overlap
     ethr =  4.96E-08,  avg # of iterations =  1.5

     total cpu time spent up to now is     7323.6 secs

     total energy              =  -16895.68968380 Ry
     estimated scf accuracy    <       0.00011895 Ry

     iteration # 15     ecut=    71.00 Ry     beta= 0.10
     Davidson diagonalization with overlap
     ethr =  2.00E-08,  avg # of iterations =  1.0

     total cpu time spent up to now is     7426.2 secs

     total energy              =  -16895.68967809 Ry
     estimated scf accuracy    <       0.00008495 Ry

     iteration # 16     ecut=    71.00 Ry     beta= 0.10
     Davidson diagonalization with overlap
     ethr =  1.43E-08,  avg # of iterations =  2.0

     total cpu time spent up to now is     7542.4 secs

     total energy              =  -16895.68968621 Ry
     estimated scf accuracy    <       0.00000473 Ry

     iteration # 17     ecut=    71.00 Ry     beta= 0.10
     Davidson diagonalization with overlap
     ethr =  7.97E-10,  avg # of iterations =  2.2

     total cpu time spent up to now is     7667.4 secs

     total energy              =  -16895.68968812 Ry
     estimated scf accuracy    <       0.00000427 Ry

     iteration # 18     ecut=    71.00 Ry     beta= 0.10
     Davidson diagonalization with overlap
     ethr =  7.18E-10,  avg # of iterations =  2.0

     total cpu time spent up to now is     7783.7 secs

     total energy              =  -16895.68968986 Ry
     estimated scf accuracy    <       0.00000120 Ry

     iteration # 19     ecut=    71.00 Ry     beta= 0.10
     Davidson diagonalization with overlap
     ethr =  2.02E-10,  avg # of iterations =  2.0

     total cpu time spent up to now is     7900.3 secs

     End of self-consistent calculation

     Number of k-points >= 100: set verbosity='high' to print the bands.

     the Fermi energy is    18.3448 ev

!    total energy              =  -16895.68969585 Ry

     total all-electron energy =   -333036.570081 Ry
     estimated scf accuracy    <       0.00000085 Ry
     smearing contrib. (-TS)   =       0.07964330 Ry
     internal energy E=F+TS    =  -16895.76933915 Ry

     The total energy is F=E-TS. E is the sum of the following terms:
     one-electron contribution =   -2813.04604719 Ry
     hartree contribution      =    1815.57725088 Ry
     xc contribution           =   -1017.45838553 Ry
     ewald contribution        =   -6458.12319973 Ry
     one-center paw contrib.   =   -8422.71895758 Ry

     convergence has been achieved in  19 iterations

     Forces acting on atoms (cartesian axes, Ry/au):

     atom    1 type  1   force =     0.00000000    0.00000000    0.00000000
     atom    2 type  1   force =    -0.00000000   -0.00516908   -0.00405161
     atom    3 type  1   force =     0.04205199   -0.02027988   -0.02027988
     atom    4 type  1   force =     0.00687555   -0.00690657    0.00213204
     atom    5 type  1   force =     0.00000000   -0.86224155    0.86224155
     atom    6 type  1   force =     0.00000000   -0.01215893    0.01215893
     atom    7 type  1   force =     0.00687555   -0.00213204    0.00690657
     atom    8 type  1   force =     0.00300925   -0.00236702   -0.00236702
     atom    9 type  1   force =     0.00000000   -0.00405161   -0.00516908
     atom   10 type  1   force =     0.00000000    0.86224155   -0.86224155
     atom   11 type  1   force =     0.00687555    0.00690657   -0.00213204
     atom   12 type  1   force =     0.04205199    0.02027988    0.02027988
     atom   13 type  1   force =    -0.00000000    0.00516908    0.00405161
     atom   14 type  1   force =     0.00000000    0.00405161    0.00516908
     atom   15 type  1   force =     0.00300925    0.00236702    0.00236702
     atom   16 type  1   force =     0.00687555    0.00213204   -0.00690657
     atom   17 type  1   force =     0.00000000    0.01215893   -0.01215893
     atom   18 type  1   force =     0.00000000   -0.00778038   -0.00174598
     atom   19 type  1   force =    -0.04205199   -0.02027988   -0.02027988
     atom   20 type  1   force =    -0.00687555   -0.00690657    0.00213204
     atom   21 type  1   force =     0.00000000   -0.00239636    0.00239636
     atom   22 type  1   force =     0.00000000   -0.00092238    0.00092238
     atom   23 type  1   force =    -0.00687555   -0.00213204    0.00690657
     atom   24 type  1   force =    -0.00300925   -0.00236702   -0.00236702
     atom   25 type  1   force =    -0.00000000   -0.00174598   -0.00778038
     atom   26 type  1   force =     0.00000000    0.00239636   -0.00239636
     atom   27 type  1   force =    -0.00687555    0.00690657   -0.00213204
     atom   28 type  1   force =    -0.04205199    0.02027988    0.02027988
     atom   29 type  1   force =     0.00000000    0.00778038    0.00174598
     atom   30 type  1   force =     0.00000000    0.00174598    0.00778038
     atom   31 type  1   force =    -0.00300925    0.00236702    0.00236702
     atom   32 type  1   force =    -0.00687555    0.00213204   -0.00690657
     atom   33 type  1   force =     0.00000000    0.00092238   -0.00092238

     Total force =     1.728041     Total SCF correction =     0.004542


     Computing stress (Cartesian axis) and pressure

          total   stress  (Ry/bohr**3)                   (kbar)     P=       63.11
  -0.00025993   0.00000000   0.00000000          -38.24        0.00        0.00
   0.00000000   0.00077344  -0.00104297            0.00      113.78     -153.43
   0.00000000  -0.00104297   0.00077344            0.00     -153.43      113.78

     Energy error            =      1.0E+00
     Gradient error          =      8.6E-01
     Cell gradient error     =      1.0E-03


     number of scf cycles    =   3
     number of bfgs steps    =   2

     enthalpy old            =  -16894.6627969044 Ry
     enthalpy new            =  -16895.6896958513 Ry

     CASE: enthalpy_new < enthalpy_old

     new trust radius        =       0.2002153911 bohr
     new conv_thr            =       0.0000010000 Ry

     new unit-cell volume =   3533.96132 a.u.^3 (   523.67904 Ang^3 )
     density =     11.13579 g/cm^3

CELL_PARAMETERS (alat= 14.40074160)
   1.042080159   0.000000000   0.000000000
   0.000000000   1.065968316  -0.027182606
   0.000000000  -0.027182606   1.065968316

ATOMIC_POSITIONS (crystal)
Pd            0.0000000000        0.3750000000        0.1250000000
Pd           -0.0000000000       -0.0014153496       -0.0013830115
Pd            0.2635381953        0.2430661603       -0.0069338397
Pd            0.2530905802       -0.0029669411        0.2499328371
Pd            0.0000000000        0.2131106126        0.2868893874
Pd            0.0000000000       -0.0074861387        0.5074861387
Pd            0.2530905802        0.2500671629        0.5029669411
Pd            0.2503930575       -0.0003680072        0.7496319928
Pd           -0.0000000000        0.2486169885        0.7485846504
Pd            0.0000000000        0.5368893874       -0.0368893874
Pd            0.2530905802        0.7529669411        0.0000671629
Pd            0.2635381953        0.5069338397        0.2569338397
Pd           -0.0000000000        0.7514153496        0.2513830115
Pd           -0.0000000000        0.5013830115        0.5014153496
Pd            0.2503930575        0.7503680072        0.5003680072
Pd            0.2530905802        0.4999328371        0.7470330589
Pd            0.0000000000        0.7574861387        0.7425138613
Pd            0.5000000000       -0.0012291664       -0.0003110974
Pd            0.7364618047        0.2430661603       -0.0069338397
Pd            0.7469094198       -0.0029669411        0.2499328371
Pd            0.5000000000        0.2497491960        0.2502508040
Pd            0.5000000000       -0.0001644315        0.5001644315
Pd            0.7469094198        0.2500671629        0.5029669411
Pd            0.7496069425       -0.0003680072        0.7496319928
Pd            0.5000000000        0.2496889026        0.7487708336
Pd            0.5000000000        0.5002508040       -0.0002508040
Pd            0.7469094198        0.7529669411        0.0000671629
Pd            0.7364618047        0.5069338397        0.2569338397
Pd            0.5000000000        0.7512291664        0.2503110974
Pd            0.5000000000        0.5003110974        0.5012291664
Pd            0.7496069425        0.7503680072        0.5003680072
Pd            0.7469094198        0.4999328371        0.7470330589
Pd            0.5000000000        0.7501644315        0.7498355685



     Writing output data file /scratch/pdcrowdion2.save/
     NEW-OLD atomic charge density approx. for the potential

     Check: negative core charge=   -0.000005
     extrapolated charge  598.05928, renormalised to  594.00000

     total cpu time spent up to now is     8064.6 secs

     Self-consistent Calculation

     iteration #  1     ecut=    71.00 Ry     beta= 0.10
     Davidson diagonalization with overlap
     c_bands:  5 eigenvalues not converged
     c_bands:  1 eigenvalues not converged
     c_bands:  2 eigenvalues not converged
     c_bands:  1 eigenvalues not converged
     c_bands:  2 eigenvalues not converged
     c_bands:  1 eigenvalues not converged
     c_bands:  1 eigenvalues not converged
     c_bands:  2 eigenvalues not converged
     c_bands:  1 eigenvalues not converged
     c_bands:  1 eigenvalues not converged
     c_bands:  1 eigenvalues not converged
     c_bands:  2 eigenvalues not converged
     c_bands:  1 eigenvalues not converged
     c_bands:  2 eigenvalues not converged
     c_bands:  1 eigenvalues not converged
     c_bands:  2 eigenvalues not converged
     c_bands:  1 eigenvalues not converged
     c_bands:  2 eigenvalues not converged
     c_bands:  1 eigenvalues not converged
     c_bands:  1 eigenvalues not converged
     c_bands:  2 eigenvalues not converged
     c_bands:  2 eigenvalues not converged
     c_bands:  1 eigenvalues not converged
     c_bands:  1 eigenvalues not converged
     c_bands:  1 eigenvalues not converged
     c_bands:  1 eigenvalues not converged
     c_bands:  1 eigenvalues not converged
     c_bands:  1 eigenvalues not converged
     c_bands:  1 eigenvalues not converged
     c_bands:  1 eigenvalues not converged
     c_bands:  1 eigenvalues not converged
     c_bands:  3 eigenvalues not converged
     c_bands:  2 eigenvalues not converged
     c_bands:  1 eigenvalues not converged
     c_bands:  1 eigenvalues not converged
     c_bands:  1 eigenvalues not converged
     c_bands:  1 eigenvalues not converged
     c_bands:  1 eigenvalues not converged
     c_bands:  1 eigenvalues not converged
     c_bands:  2 eigenvalues not converged
     c_bands:  2 eigenvalues not converged
     c_bands:  1 eigenvalues not converged
     c_bands:  3 eigenvalues not converged
     c_bands:  1 eigenvalues not converged
     c_bands:  1 eigenvalues not converged
     c_bands:  1 eigenvalues not converged
     c_bands:  1 eigenvalues not converged
     c_bands:  3 eigenvalues not converged
     c_bands:  1 eigenvalues not converged
     c_bands:  1 eigenvalues not converged
     c_bands:  2 eigenvalues not converged
     c_bands:  1 eigenvalues not converged
     c_bands:  2 eigenvalues not converged
     ethr =  1.00E-06,  avg # of iterations = 17.4

     total cpu time spent up to now is     8573.1 secs

     total energy              =  -16895.97687903 Ry
     estimated scf accuracy    <       0.44910354 Ry

     iteration #  2     ecut=    71.00 Ry     beta= 0.10
     Davidson diagonalization with overlap
     ethr =  7.56E-05,  avg # of iterations =  2.1

     total cpu time spent up to now is     8717.0 secs

     total energy              =  -16896.19229925 Ry
     estimated scf accuracy    <       0.22032880 Ry

     iteration #  3     ecut=    71.00 Ry     beta= 0.10
     Davidson diagonalization with overlap
     ethr =  3.71E-05,  avg # of iterations =  1.0

     total cpu time spent up to now is     8826.6 secs

     total energy              =  -16896.16925426 Ry
     estimated scf accuracy    <       0.11351547 Ry

     iteration #  4     ecut=    71.00 Ry     beta= 0.10
     Davidson diagonalization with overlap
     ethr =  1.91E-05,  avg # of iterations =  1.0

     total cpu time spent up to now is     8929.1 secs

     total energy              =  -16896.15190601 Ry
     estimated scf accuracy    <       0.02339555 Ry

     iteration #  5     ecut=    71.00 Ry     beta= 0.10
     Davidson diagonalization with overlap
     c_bands:  1 eigenvalues not converged
     ethr =  3.94E-06,  avg # of iterations =  3.2

     total cpu time spent up to now is     9057.1 secs

     total energy              =  -16896.14899358 Ry
     estimated scf accuracy    <       0.00517813 Ry

     iteration #  6     ecut=    71.00 Ry     beta= 0.10
     Davidson diagonalization with overlap
     c_bands:  1 eigenvalues not converged
     ethr =  8.72E-07,  avg # of iterations =  2.7

     total cpu time spent up to now is     9194.6 secs

     total energy              =  -16896.14787152 Ry
     estimated scf accuracy    <       0.00460357 Ry

     iteration #  7     ecut=    71.00 Ry     beta= 0.10
     Davidson diagonalization with overlap
     c_bands:  1 eigenvalues not converged
     ethr =  7.75E-07,  avg # of iterations =  2.3

     total cpu time spent up to now is     9314.2 secs

     total energy              =  -16896.14820972 Ry
     estimated scf accuracy    <       0.00134914 Ry

     iteration #  8     ecut=    71.00 Ry     beta= 0.10
     Davidson diagonalization with overlap
     ethr =  2.27E-07,  avg # of iterations =  2.0

     total cpu time spent up to now is     9431.5 secs

     total energy              =  -16896.14781671 Ry
     estimated scf accuracy    <       0.00089286 Ry

     iteration #  9     ecut=    71.00 Ry     beta= 0.10
     Davidson diagonalization with overlap
     ethr =  1.50E-07,  avg # of iterations =  2.0

     total cpu time spent up to now is     9555.8 secs

     total energy              =  -16896.14779398 Ry
     estimated scf accuracy    <       0.00017148 Ry

     iteration # 10     ecut=    71.00 Ry     beta= 0.10
     Davidson diagonalization with overlap
     ethr =  2.89E-08,  avg # of iterations =  3.0

     total cpu time spent up to now is     9703.5 secs

     total energy              =  -16896.14783723 Ry
     estimated scf accuracy    <       0.00008130 Ry

     iteration # 11     ecut=    71.00 Ry     beta= 0.10
     Davidson diagonalization with overlap
     ethr =  1.37E-08,  avg # of iterations =  1.7

     total cpu time spent up to now is     9815.5 secs

     total energy              =  -16896.14780808 Ry
     estimated scf accuracy    <       0.00002917 Ry

     iteration # 12     ecut=    71.00 Ry     beta= 0.10
     Davidson diagonalization with overlap
     ethr =  4.91E-09,  avg # of iterations =  3.0

     total cpu time spent up to now is     9941.0 secs

     total energy              =  -16896.14779998 Ry
     estimated scf accuracy    <       0.00002334 Ry

     iteration # 13     ecut=    71.00 Ry     beta= 0.10
     Davidson diagonalization with overlap
     ethr =  3.93E-09,  avg # of iterations =  2.0

     total cpu time spent up to now is    10059.8 secs

     total energy              =  -16896.14780143 Ry
     estimated scf accuracy    <       0.00000429 Ry

     iteration # 14     ecut=    71.00 Ry     beta= 0.10
     Davidson diagonalization with overlap
     ethr =  7.22E-10,  avg # of iterations =  2.0

     total cpu time spent up to now is    10191.7 secs

     total energy              =  -16896.14780181 Ry
     estimated scf accuracy    <       0.00000253 Ry

     iteration # 15     ecut=    71.00 Ry     beta= 0.10
     Davidson diagonalization with overlap
     ethr =  4.26E-10,  avg # of iterations =  1.0

     total cpu time spent up to now is    10293.8 secs

     total energy              =  -16896.14780198 Ry
     estimated scf accuracy    <       0.00000103 Ry

     iteration # 16     ecut=    71.00 Ry     beta= 0.10
     Davidson diagonalization with overlap
     ethr =  1.73E-10,  avg # of iterations =  3.0

     total cpu time spent up to now is    10419.8 secs

     End of self-consistent calculation

     Number of k-points >= 100: set verbosity='high' to print the bands.

     the Fermi energy is    18.1483 ev

!    total energy              =  -16896.14780315 Ry

     total all-electron energy =   -333037.028189 Ry
     estimated scf accuracy    <       0.00000022 Ry
     smearing contrib. (-TS)   =       0.08253140 Ry
     internal energy E=F+TS    =  -16896.23033455 Ry

     The total energy is F=E-TS. E is the sum of the following terms:
     one-electron contribution =   -2802.15123113 Ry
     hartree contribution      =    1807.55990739 Ry
     xc contribution           =   -1017.03855852 Ry
     ewald contribution        =   -6461.89968183 Ry
     one-center paw contrib.   =   -8422.70077046 Ry

     convergence has been achieved in  16 iterations

     Forces acting on atoms (cartesian axes, Ry/au):

     atom    1 type  1   force =     0.00000000    0.00000000    0.00000000
     atom    2 type  1   force =     0.00000000    0.00055389   -0.00049083
     atom    3 type  1   force =     0.01810035   -0.00657118   -0.00657118
     atom    4 type  1   force =     0.00644120   -0.00520746    0.00282985
     atom    5 type  1   force =     0.00000000   -0.47600570    0.47600570
     atom    6 type  1   force =     0.00000000   -0.00970645    0.00970645
     atom    7 type  1   force =     0.00644120   -0.00282985    0.00520746
     atom    8 type  1   force =     0.00452232   -0.00274798   -0.00274798
     atom    9 type  1   force =     0.00000000   -0.00049083    0.00055389
     atom   10 type  1   force =     0.00000000    0.47600570   -0.47600570
     atom   11 type  1   force =     0.00644120    0.00520746   -0.00282985
     atom   12 type  1   force =     0.01810035    0.00657118    0.00657118
     atom   13 type  1   force =     0.00000000   -0.00055389    0.00049083
     atom   14 type  1   force =     0.00000000    0.00049083   -0.00055389
     atom   15 type  1   force =     0.00452232    0.00274798    0.00274798
     atom   16 type  1   force =     0.00644120    0.00282985   -0.00520746
     atom   17 type  1   force =     0.00000000    0.00970645   -0.00970645
     atom   18 type  1   force =    -0.00000000   -0.00945445   -0.00118348
     atom   19 type  1   force =    -0.01810035   -0.00657118   -0.00657118
     atom   20 type  1   force =    -0.00644120   -0.00520746    0.00282985
     atom   21 type  1   force =     0.00000000   -0.00335067    0.00335067
     atom   22 type  1   force =     0.00000000   -0.00134364    0.00134364
     atom   23 type  1   force =    -0.00644120   -0.00282985    0.00520746
     atom   24 type  1   force =    -0.00452232   -0.00274798   -0.00274798
     atom   25 type  1   force =     0.00000000   -0.00118348   -0.00945445
     atom   26 type  1   force =     0.00000000    0.00335067   -0.00335067
     atom   27 type  1   force =    -0.00644120    0.00520746   -0.00282985
     atom   28 type  1   force =    -0.01810035    0.00657118    0.00657118
     atom   29 type  1   force =    -0.00000000    0.00945445    0.00118348
     atom   30 type  1   force =     0.00000000    0.00118348    0.00945445
     atom   31 type  1   force =    -0.00452232    0.00274798    0.00274798
     atom   32 type  1   force =    -0.00644120    0.00282985   -0.00520746
     atom   33 type  1   force =     0.00000000    0.00134364   -0.00134364

     Total force =     0.953693     Total SCF correction =     0.002571


     Computing stress (Cartesian axis) and pressure

          total   stress  (Ry/bohr**3)                   (kbar)     P=        9.54
  -0.00033535   0.00000000   0.00000000          -49.33        0.00        0.00
   0.00000000   0.00026494  -0.00056432            0.00       38.97      -83.01
   0.00000000  -0.00056432   0.00026494            0.00      -83.01       38.97

     Energy error            =      4.6E-01
     Gradient error          =      4.8E-01
     Cell gradient error     =      5.6E-04


     number of scf cycles    =   4
     number of bfgs steps    =   3

     enthalpy old            =  -16895.6896958513 Ry
     enthalpy new            =  -16896.1478031505 Ry

     CASE: enthalpy_new < enthalpy_old

     new trust radius        =       0.2232130713 bohr
     new conv_thr            =       0.0000010000 Ry

     new unit-cell volume =   3491.32644 a.u.^3 (   517.36120 Ang^3 )
     density =     11.27178 g/cm^3

CELL_PARAMETERS (alat= 14.40074160)
   1.031093611   0.000000000   0.000000000
   0.000000000   1.065405552  -0.035853890
   0.000000000  -0.035853890   1.065405552

ATOMIC_POSITIONS (crystal)
Pd            0.0000000000        0.3750000000        0.1250000000
Pd           -0.0000000000       -0.0014921080       -0.0017463252
Pd            0.2682616450        0.2409765888       -0.0090234112
Pd            0.2548364086       -0.0045194048        0.2502656193
Pd            0.0000000000        0.2030843369        0.2969156631
Pd            0.0000000000       -0.0111635254        0.5111635254
Pd            0.2548364086        0.2497343807        0.5045194048
Pd            0.2510774401       -0.0008101760        0.7491898240
Pd           -0.0000000000        0.2482536748        0.7485078920
Pd            0.0000000000        0.5469156631       -0.0469156631
Pd            0.2548364086        0.7545194048       -0.0002656193
Pd            0.2682616450        0.5090234112        0.2590234112
Pd           -0.0000000000        0.7514921080        0.2517463252
Pd           -0.0000000000        0.5017463252        0.5014921080
Pd            0.2510774401        0.7508101760        0.5008101760
Pd            0.2548364086        0.5002656193        0.7454805952
Pd            0.0000000000        0.7611635254        0.7388364746
Pd            0.5000000000       -0.0027756023       -0.0005115105
Pd            0.7317383550        0.2409765888       -0.0090234112
Pd            0.7451635914       -0.0045194048        0.2502656193
Pd            0.5000000000        0.2492552545        0.2507447455
Pd            0.5000000000       -0.0003956542        0.5003956542
Pd            0.7451635914        0.2497343807        0.5045194048
Pd            0.7489225599       -0.0008101760        0.7491898240
Pd            0.5000000000        0.2494884895        0.7472243977
Pd            0.5000000000        0.5007447455       -0.0007447455
Pd            0.7451635914        0.7545194048       -0.0002656193
Pd            0.7317383550        0.5090234112        0.2590234112
Pd            0.5000000000        0.7527756023        0.2505115105
Pd            0.5000000000        0.5005115105        0.5027756023
Pd            0.7489225599        0.7508101760        0.5008101760
Pd            0.7451635914        0.5002656193        0.7454805952
Pd            0.5000000000        0.7503956542        0.7496043458



     Writing output data file /scratch/pdcrowdion2.save/
     NEW-OLD atomic charge density approx. for the potential

     Check: negative core charge=   -0.000005
     extrapolated charge  586.74643, renormalised to  594.00000

     total cpu time spent up to now is    10583.3 secs

     Self-consistent Calculation

     iteration #  1     ecut=    71.00 Ry     beta= 0.10
     Davidson diagonalization with overlap
     c_bands:  2 eigenvalues not converged
     c_bands:  1 eigenvalues not converged
     c_bands:  2 eigenvalues not converged
     c_bands:  1 eigenvalues not converged
     c_bands:  1 eigenvalues not converged
     c_bands:  2 eigenvalues not converged
     c_bands:  1 eigenvalues not converged
     c_bands:  1 eigenvalues not converged
     c_bands:  2 eigenvalues not converged
     c_bands:  1 eigenvalues not converged
     c_bands:  2 eigenvalues not converged
     c_bands:  1 eigenvalues not converged
     c_bands:  1 eigenvalues not converged
     c_bands:  2 eigenvalues not converged
     c_bands:  1 eigenvalues not converged
     c_bands:  2 eigenvalues not converged
     c_bands:  2 eigenvalues not converged
     c_bands:  3 eigenvalues not converged
     c_bands:  1 eigenvalues not converged
     c_bands:  1 eigenvalues not converged
     c_bands:  1 eigenvalues not converged
     c_bands:  1 eigenvalues not converged
     c_bands:  2 eigenvalues not converged
     c_bands:  1 eigenvalues not converged
     c_bands:  2 eigenvalues not converged
     c_bands:  1 eigenvalues not converged
     c_bands:  1 eigenvalues not converged
     c_bands:  1 eigenvalues not converged
     c_bands:  1 eigenvalues not converged
     c_bands:  1 eigenvalues not converged
     c_bands:  1 eigenvalues not converged
     c_bands:  1 eigenvalues not converged
     c_bands:  1 eigenvalues not converged
     c_bands:  1 eigenvalues not converged
     c_bands:  2 eigenvalues not converged
     c_bands:  1 eigenvalues not converged
     c_bands:  1 eigenvalues not converged
     c_bands:  1 eigenvalues not converged
     c_bands:  1 eigenvalues not converged
     c_bands:  1 eigenvalues not converged
     c_bands:  3 eigenvalues not converged
     c_bands:  2 eigenvalues not converged
     c_bands:  1 eigenvalues not converged
     c_bands:  1 eigenvalues not converged
     c_bands:  3 eigenvalues not converged
     c_bands:  1 eigenvalues not converged
     c_bands:  2 eigenvalues not converged
     c_bands:  2 eigenvalues not converged
     c_bands:  1 eigenvalues not converged
     c_bands:  1 eigenvalues not converged
     c_bands:  2 eigenvalues not converged
     c_bands:  2 eigenvalues not converged
     c_bands:  1 eigenvalues not converged
     c_bands:  2 eigenvalues not converged
     c_bands:  1 eigenvalues not converged
     c_bands:  1 eigenvalues not converged
     ethr =  1.00E-06,  avg # of iterations = 17.4

     total cpu time spent up to now is    11091.2 secs

     total energy              =  -16895.75456585 Ry
     estimated scf accuracy    <       2.22705820 Ry

     iteration #  2     ecut=    71.00 Ry     beta= 0.10
     Davidson diagonalization with overlap
     ethr =  3.75E-04,  avg # of iterations =  2.0

     total cpu time spent up to now is    11227.7 secs

     total energy              =  -16896.44485160 Ry
     estimated scf accuracy    <       0.24684556 Ry

     iteration #  3     ecut=    71.00 Ry     beta= 0.10
     Davidson diagonalization with overlap
     ethr =  4.16E-05,  avg # of iterations =  1.1

     total cpu time spent up to now is    11332.0 secs

     total energy              =  -16896.42367233 Ry
     estimated scf accuracy    <       0.09985771 Ry

     iteration #  4     ecut=    71.00 Ry     beta= 0.10
     Davidson diagonalization with overlap
     ethr =  1.68E-05,  avg # of iterations =  1.5

     total cpu time spent up to now is    11437.6 secs

     total energy              =  -16896.41566922 Ry
     estimated scf accuracy    <       0.02018058 Ry

     iteration #  5     ecut=    71.00 Ry     beta= 0.10
     Davidson diagonalization with overlap
     c_bands:  1 eigenvalues not converged
     c_bands:  1 eigenvalues not converged
     c_bands:  1 eigenvalues not converged
     c_bands:  1 eigenvalues not converged
     c_bands:  1 eigenvalues not converged
     ethr =  3.40E-06,  avg # of iterations =  6.7

     total cpu time spent up to now is    11570.2 secs

     total energy              =  -16896.40783803 Ry
     estimated scf accuracy    <       0.00770763 Ry

     iteration #  6     ecut=    71.00 Ry     beta= 0.10
     Davidson diagonalization with overlap
     c_bands:  1 eigenvalues not converged
     c_bands:  1 eigenvalues not converged
     ethr =  1.30E-06,  avg # of iterations =  3.5

     total cpu time spent up to now is    11715.4 secs

     total energy              =  -16896.40855158 Ry
     estimated scf accuracy    <       0.00343609 Ry

     iteration #  7     ecut=    71.00 Ry     beta= 0.10
     Davidson diagonalization with overlap
     ethr =  5.78E-07,  avg # of iterations =  2.1

     total cpu time spent up to now is    11836.0 secs

     total energy              =  -16896.40836818 Ry
     estimated scf accuracy    <       0.00377957 Ry

     iteration #  8     ecut=    71.00 Ry     beta= 0.10
     Davidson diagonalization with overlap
     ethr =  5.78E-07,  avg # of iterations =  1.1

     total cpu time spent up to now is    11940.5 secs

     total energy              =  -16896.40801087 Ry
     estimated scf accuracy    <       0.00153971 Ry

     iteration #  9     ecut=    71.00 Ry     beta= 0.10
     Davidson diagonalization with overlap
     ethr =  2.59E-07,  avg # of iterations =  1.0

     total cpu time spent up to now is    12049.2 secs

     total energy              =  -16896.40766107 Ry
     estimated scf accuracy    <       0.00062829 Ry

     iteration # 10     ecut=    71.00 Ry     beta= 0.10
     Davidson diagonalization with overlap
     ethr =  1.06E-07,  avg # of iterations =  2.0

     total cpu time spent up to now is    12185.3 secs

     total energy              =  -16896.40774020 Ry
     estimated scf accuracy    <       0.00005712 Ry

     iteration # 11     ecut=    71.00 Ry     beta= 0.10
     Davidson diagonalization with overlap
     ethr =  9.62E-09,  avg # of iterations =  2.1

     total cpu time spent up to now is    12340.1 secs

     total energy              =  -16896.40770411 Ry
     estimated scf accuracy    <       0.00008646 Ry

     iteration # 12     ecut=    71.00 Ry     beta= 0.10
     Davidson diagonalization with overlap
     ethr =  9.62E-09,  avg # of iterations =  2.0

     total cpu time spent up to now is    12463.7 secs

     total energy              =  -16896.40769118 Ry
     estimated scf accuracy    <       0.00001701 Ry

     iteration # 13     ecut=    71.00 Ry     beta= 0.10
     Davidson diagonalization with overlap
     ethr =  2.86E-09,  avg # of iterations =  3.0

     total cpu time spent up to now is    12593.4 secs

     total energy              =  -16896.40769328 Ry
     estimated scf accuracy    <       0.00000347 Ry

     iteration # 14     ecut=    71.00 Ry     beta= 0.10
     Davidson diagonalization with overlap
     ethr =  5.84E-10,  avg # of iterations =  1.3

     total cpu time spent up to now is    12699.2 secs

     total energy              =  -16896.40769348 Ry
     estimated scf accuracy    <       0.00000247 Ry

     iteration # 15     ecut=    71.00 Ry     beta= 0.10
     Davidson diagonalization with overlap
     ethr =  4.16E-10,  avg # of iterations =  2.0

     total cpu time spent up to now is    12815.9 secs

     End of self-consistent calculation

     Number of k-points >= 100: set verbosity='high' to print the bands.

     the Fermi energy is    18.4310 ev

!    total energy              =  -16896.40769458 Ry

     total all-electron energy =   -333037.288080 Ry
     estimated scf accuracy    <       0.00000090 Ry
     smearing contrib. (-TS)   =       0.08486535 Ry
     internal energy E=F+TS    =  -16896.49255992 Ry

     The total energy is F=E-TS. E is the sum of the following terms:
     one-electron contribution =   -2741.83855090 Ry
     hartree contribution      =    1783.79821955 Ry
     xc contribution           =   -1017.16256627 Ry
     ewald contribution        =   -6498.58841366 Ry
     one-center paw contrib.   =   -8422.70124864 Ry

     convergence has been achieved in  15 iterations

     Forces acting on atoms (cartesian axes, Ry/au):

     atom    1 type  1   force =     0.00000000    0.00000000    0.00000000
     atom    2 type  1   force =     0.00000000    0.00621733    0.00350468
     atom    3 type  1   force =     0.00067107    0.00360629    0.00360629
     atom    4 type  1   force =     0.00589075   -0.00331976    0.00329634
     atom    5 type  1   force =     0.00000000   -0.23831219    0.23831219
     atom    6 type  1   force =     0.00000000   -0.00856780    0.00856780
     atom    7 type  1   force =     0.00589075   -0.00329634    0.00331976
     atom    8 type  1   force =     0.00648842   -0.00195259   -0.00195259
     atom    9 type  1   force =    -0.00000000    0.00350468    0.00621733
     atom   10 type  1   force =     0.00000000    0.23831219   -0.23831219
     atom   11 type  1   force =     0.00589075    0.00331976   -0.00329634
     atom   12 type  1   force =     0.00067107   -0.00360629   -0.00360629
     atom   13 type  1   force =     0.00000000   -0.00621733   -0.00350468
     atom   14 type  1   force =    -0.00000000   -0.00350468   -0.00621733
     atom   15 type  1   force =     0.00648842    0.00195259    0.00195259
     atom   16 type  1   force =     0.00589075    0.00329634   -0.00331976
     atom   17 type  1   force =     0.00000000    0.00856780   -0.00856780
     atom   18 type  1   force =    -0.00000000   -0.00889664   -0.00002451
     atom   19 type  1   force =    -0.00067107    0.00360629    0.00360629
     atom   20 type  1   force =    -0.00589075   -0.00331976    0.00329634
     atom   21 type  1   force =     0.00000000   -0.00400320    0.00400320
     atom   22 type  1   force =     0.00000000   -0.00190692    0.00190692
     atom   23 type  1   force =    -0.00589075   -0.00329634    0.00331976
     atom   24 type  1   force =    -0.00648842   -0.00195259   -0.00195259
     atom   25 type  1   force =     0.00000000   -0.00002451   -0.00889664
     atom   26 type  1   force =     0.00000000    0.00400320   -0.00400320
     atom   27 type  1   force =    -0.00589075    0.00331976   -0.00329634
     atom   28 type  1   force =    -0.00067107   -0.00360629   -0.00360629
     atom   29 type  1   force =     0.00000000    0.00889664    0.00002451
     atom   30 type  1   force =     0.00000000    0.00002451    0.00889664
     atom   31 type  1   force =    -0.00648842    0.00195259    0.00195259
     atom   32 type  1   force =    -0.00589075    0.00329634   -0.00331976
     atom   33 type  1   force =     0.00000000    0.00190692   -0.00190692

     Total force =     0.478352     Total SCF correction =     0.005276


     Computing stress (Cartesian axis) and pressure

          total   stress  (Ry/bohr**3)                   (kbar)     P=        5.06
  -0.00017593   0.00000000   0.00000000          -25.88        0.00        0.00
   0.00000000   0.00013954  -0.00025311            0.00       20.53      -37.23
   0.00000000  -0.00025311   0.00013954            0.00      -37.23       20.53

     Energy error            =      2.6E-01
     Gradient error          =      2.4E-01
     Cell gradient error     =      2.5E-04


     number of scf cycles    =   5
     number of bfgs steps    =   4

     enthalpy old            =  -16896.1478031505 Ry
     enthalpy new            =  -16896.4076945755 Ry

     CASE: enthalpy_new < enthalpy_old

     new trust radius        =       0.2281451916 bohr
     new conv_thr            =       0.0000010000 Ry

     new unit-cell volume =   3449.09346 a.u.^3 (   511.10292 Ang^3 )
     density =     11.40980 g/cm^3

CELL_PARAMETERS (alat= 14.40074160)
   1.019760375   0.000000000   0.000000000
   0.000000000   1.065059424  -0.042602227
   0.000000000  -0.042602227   1.065059424

ATOMIC_POSITIONS (crystal)
Pd            0.0000000000        0.3750000000        0.1250000000
Pd            0.0000000000       -0.0007178881       -0.0015879039
Pd            0.2717453938        0.2398826617       -0.0101173383
Pd            0.2569405475       -0.0061742941        0.2508769567
Pd            0.0000000000        0.1929119746        0.3070880254
Pd            0.0000000000       -0.0153772431        0.5153772431
Pd            0.2569405475        0.2491230433        0.5061742941
Pd            0.2523505467       -0.0013285208        0.7486714792
Pd           -0.0000000000        0.2484120961        0.7492821119
Pd            0.0000000000        0.5570880254       -0.0570880254
Pd            0.2569405475        0.7561742941       -0.0008769567
Pd            0.2717453938        0.5101173383        0.2601173383
Pd            0.0000000000        0.7507178881        0.2515879039
Pd           -0.0000000000        0.5015879039        0.5007178881
Pd            0.2523505467        0.7513285208        0.5013285208
Pd            0.2569405475        0.5008769567        0.7438257059
Pd            0.0000000000        0.7653772431        0.7346227569
Pd            0.5000000000       -0.0049199058       -0.0006010950
Pd            0.7282546062        0.2398826617       -0.0101173383
Pd            0.7430594525       -0.0061742941        0.2508769567
Pd            0.5000000000        0.2484120097        0.2515879903
Pd            0.5000000000       -0.0008122641        0.5008122641
Pd            0.7430594525        0.2491230433        0.5061742941
Pd            0.7476494533       -0.0013285208        0.7486714792
Pd            0.5000000000        0.2493989050        0.7450800942
Pd            0.5000000000        0.5015879903       -0.0015879903
Pd            0.7430594525        0.7561742941       -0.0008769567
Pd            0.7282546062        0.5101173383        0.2601173383
Pd            0.5000000000        0.7549199058        0.2506010950
Pd            0.5000000000        0.5006010950        0.5049199058
Pd            0.7476494533        0.7513285208        0.5013285208
Pd            0.7430594525        0.5008769567        0.7438257059
Pd            0.5000000000        0.7508122641        0.7491877359



     Writing output data file /scratch/pdcrowdion2.save/
     NEW-OLD atomic charge density approx. for the potential

     Check: negative core charge=   -0.000005
     extrapolated charge  586.72682, renormalised to  594.00000

     total cpu time spent up to now is    12979.3 secs

     Self-consistent Calculation

     iteration #  1     ecut=    71.00 Ry     beta= 0.10
     Davidson diagonalization with overlap
     c_bands:  2 eigenvalues not converged
     c_bands:  1 eigenvalues not converged
     c_bands:  1 eigenvalues not converged
     c_bands:  1 eigenvalues not converged
     c_bands:  2 eigenvalues not converged
[...]
     /rds/homes/b/bxp912/pp/Pd.pbe-spn-kjpaw_psl.1.0.0.UPF
     MD5 check sum: 790f2ebce206edfd9790dcb9844eca51
     Pseudo is Projector augmented-wave + core cor, Zval = 18.0
     Generated using &quot;atomic&quot; code by A. Dal Corso  v.6.3
     Shape of augmentation charge: PSQ
     Using radial grid of 1235 points,  6 beta functions with: 
                l(1) =   0
                l(2) =   0
                l(3) =   1
                l(4) =   1
                l(5) =   2
                l(6) =   2
     Q(r) pseudized with 0 coefficients 


     atomic species   valence    mass     pseudopotential
        Pd            18.00   106.42000     Pd( 1.00)

      8 Sym. Ops., with inversion, found ( 6 have fractional translation)



   Cartesian axes

     site n.     atom                  positions (alat units)
         1           Pd  tau(   1) = (   0.0000000   0.3948249   0.1147386  )
         2           Pd  tau(   2) = (   0.0000000   0.0107076   0.0055960  )
         3           Pd  tau(   3) = (   0.2812321   0.2658882  -0.0141981  )
         4           Pd  tau(   4) = (   0.2628137  -0.0277710   0.2763170  )
         5           Pd  tau(   5) = (   0.0000000   0.1792282   0.3303353  )
         6           Pd  tau(   6) = (  -0.0000000  -0.0482333   0.5577969  )
         7           Pd  tau(   7) = (   0.2628137   0.2332466   0.5373346  )
         8           Pd  tau(   8) = (   0.2593338  -0.0341246   0.8061342  )
         9           Pd  tau(   9) = (  -0.0000000   0.2350733   0.8003575  )
        10           Pd  tau(  10) = (   0.0000000   0.6104216  -0.1008580  )
        11           Pd  tau(  11) = (   0.2628137   0.8174209  -0.0468397  )
        12           Pd  tau(  12) = (   0.2812321   0.5237617   0.2436754  )
        13           Pd  tau(  13) = (   0.0000000   0.7789423   0.2238813  )
        14           Pd  tau(  14) = (  -0.0000000   0.5039676   0.4988560  )
        15           Pd  tau(  15) = (   0.2593338   0.7731655   0.4930792  )
        16           Pd  tau(  16) = (   0.2628137   0.5057943   0.7618788  )
        17           Pd  tau(  17) = (  -0.0000000   0.7872742   0.7414166  )
        18           Pd  tau(  18) = (   0.5094896  -0.0018203   0.0043210  )
        19           Pd  tau(  19) = (   0.7377471   0.2658882  -0.0141981  )
        20           Pd  tau(  20) = (   0.7561655  -0.0277710   0.2763170  )
        21           Pd  tau(  21) = (   0.5094896   0.2408865   0.2686771  )
        22           Pd  tau(  22) = (   0.5094896  -0.0326365   0.5422001  )
        23           Pd  tau(  23) = (   0.7561655   0.2332466   0.5373346  )
        24           Pd  tau(  24) = (   0.7596455  -0.0341246   0.8061342  )
        25           Pd  tau(  25) = (   0.5094896   0.2337983   0.7878295  )
        26           Pd  tau(  26) = (   0.5094896   0.5487634  -0.0391998  )
        27           Pd  tau(  27) = (   0.7561655   0.8174209  -0.0468397  )
        28           Pd  tau(  28) = (   0.7377471   0.5237617   0.2436754  )
        29           Pd  tau(  29) = (   0.5094896   0.7914702   0.2251563  )
        30           Pd  tau(  30) = (   0.5094896   0.5052425   0.5113839  )
        31           Pd  tau(  31) = (   0.7596455   0.7731655   0.4930792  )
        32           Pd  tau(  32) = (   0.7561655   0.5057943   0.7618788  )
        33           Pd  tau(  33) = (   0.5094896   0.7716774   0.7570134  )

     number of k points=   125  Marzari-Vanderbilt smearing, width (Ry)=  0.0400

     Number of k-points >= 100: set verbosity='high' to print them.

     Dense  grid:   523347 G-vectors     FFT dimensions: ( 100, 108, 108)

     Smooth grid:   280793 G-vectors     FFT dimensions: (  80,  96,  96)

     Estimated max dynamical RAM per process >     377.62 MB

     Estimated total dynamical RAM >      26.55 GB

     Check: negative core charge=   -0.000002

     Initial potential from superposition of free atoms

     starting charge  593.98738, renormalised to  594.00000
     Starting wfcs are  330 randomized atomic wfcs +   26 random wfcs
     Checking if some PAW data can be deallocated... 

     total cpu time spent up to now is    53970.2 secs

     Self-consistent Calculation

     iteration #  1     ecut=    71.00 Ry     beta= 0.10
     Davidson diagonalization with overlap
     c_bands:  1 eigenvalues not converged
     c_bands:  1 eigenvalues not converged
     c_bands:  3 eigenvalues not converged
     c_bands:  2 eigenvalues not converged
     c_bands:  1 eigenvalues not converged
     c_bands:  5 eigenvalues not converged
     c_bands:  1 eigenvalues not converged
     c_bands:  2 eigenvalues not converged
     c_bands:  2 eigenvalues not converged
     c_bands:  2 eigenvalues not converged
     c_bands:  5 eigenvalues not converged
     c_bands:  1 eigenvalues not converged
     c_bands:  1 eigenvalues not converged
     c_bands:  2 eigenvalues not converged
     c_bands:  1 eigenvalues not converged
     c_bands:  1 eigenvalues not converged
     c_bands:  3 eigenvalues not converged
     c_bands:  1 eigenvalues not converged
     c_bands:  2 eigenvalues not converged
     c_bands:  2 eigenvalues not converged
     c_bands:  1 eigenvalues not converged
     c_bands:  1 eigenvalues not converged
     c_bands:  1 eigenvalues not converged
     c_bands:  1 eigenvalues not converged
     c_bands:  2 eigenvalues not converged
     c_bands:  1 eigenvalues not converged
     c_bands:  3 eigenvalues not converged
     c_bands:  1 eigenvalues not converged
     c_bands:  1 eigenvalues not converged
     c_bands:  2 eigenvalues not converged
     c_bands:  2 eigenvalues not converged
     c_bands:  2 eigenvalues not converged
     c_bands:  4 eigenvalues not converged
     c_bands:  2 eigenvalues not converged
     c_bands:  2 eigenvalues not converged
     c_bands:  1 eigenvalues not converged
     c_bands:  2 eigenvalues not converged
     c_bands:  1 eigenvalues not converged
     c_bands:  1 eigenvalues not converged
     c_bands:  1 eigenvalues not converged
     c_bands:  2 eigenvalues not converged
     c_bands:  2 eigenvalues not converged
     c_bands:  1 eigenvalues not converged
     c_bands:  2 eigenvalues not converged
     c_bands:  1 eigenvalues not converged
     c_bands:  1 eigenvalues not converged
     c_bands:  1 eigenvalues not converged
     c_bands:  3 eigenvalues not converged
     c_bands:  2 eigenvalues not converged
     c_bands:  1 eigenvalues not converged
     c_bands:  3 eigenvalues not converged
     c_bands:  1 eigenvalues not converged
     c_bands:  2 eigenvalues not converged
     c_bands:  2 eigenvalues not converged
     c_bands:  1 eigenvalues not converged
     c_bands:  2 eigenvalues not converged
     c_bands:  1 eigenvalues not converged
     c_bands:  1 eigenvalues not converged
     c_bands:  1 eigenvalues not converged
     c_bands:  1 eigenvalues not converged
     c_bands:  2 eigenvalues not converged
     c_bands:  2 eigenvalues not converged
     c_bands:  2 eigenvalues not converged
     c_bands:  2 eigenvalues not converged
     c_bands:  1 eigenvalues not converged
     c_bands:  1 eigenvalues not converged
     c_bands:  1 eigenvalues not converged
     c_bands:  1 eigenvalues not converged
     c_bands:  1 eigenvalues not converged
     c_bands:  1 eigenvalues not converged
     c_bands:  1 eigenvalues not converged
     c_bands:  1 eigenvalues not converged
     c_bands:  1 eigenvalues not converged
     c_bands:  1 eigenvalues not converged
     ethr =  1.00E-06,  avg # of iterations = 18.8

     total cpu time spent up to now is    54442.5 secs

     total energy              =  -16896.77963691 Ry
     estimated scf accuracy    <       0.74673196 Ry

     iteration #  2     ecut=    71.00 Ry     beta= 0.10
     Davidson diagonalization with overlap
     ethr =  1.26E-04,  avg # of iterations =  1.0

     total cpu time spent up to now is    54557.2 secs

     total energy              =  -16896.56533603 Ry
     estimated scf accuracy    <       0.54987208 Ry

     iteration #  3     ecut=    71.00 Ry     beta= 0.10
     Davidson diagonalization with overlap
     ethr =  9.26E-05,  avg # of iterations =  2.0

     total cpu time spent up to now is    54704.5 secs

     total energy              =  -16896.63559589 Ry
     estimated scf accuracy    <       0.05925881 Ry

     iteration #  4     ecut=    71.00 Ry     beta= 0.10
     Davidson diagonalization with overlap
     ethr =  9.98E-06,  avg # of iterations =  1.1

     total cpu time spent up to now is    54820.5 secs

     total energy              =  -16896.63126873 Ry
     estimated scf accuracy    <       0.02368211 Ry

     iteration #  5     ecut=    71.00 Ry     beta= 0.10
     Davidson diagonalization with overlap
     ethr =  3.99E-06,  avg # of iterations =  1.3

     total cpu time spent up to now is    54938.3 secs

     total energy              =  -16896.62974388 Ry
     estimated scf accuracy    <       0.00997851 Ry

     iteration #  6     ecut=    71.00 Ry     beta= 0.10
     Davidson diagonalization with overlap
     ethr =  1.68E-06,  avg # of iterations =  2.8

     total cpu time spent up to now is    55065.1 secs

     total energy              =  -16896.63024502 Ry
     estimated scf accuracy    <       0.00276979 Ry

     iteration #  7     ecut=    71.00 Ry     beta= 0.10
     Davidson diagonalization with overlap
     ethr =  4.66E-07,  avg # of iterations =  1.0

     total cpu time spent up to now is    55179.7 secs

     total energy              =  -16896.63037603 Ry
     estimated scf accuracy    <       0.00161146 Ry

     iteration #  8     ecut=    71.00 Ry     beta= 0.10
     Davidson diagonalization with overlap
     ethr =  2.71E-07,  avg # of iterations =  1.8

     total cpu time spent up to now is    55307.6 secs

     total energy              =  -16896.63016075 Ry
     estimated scf accuracy    <       0.00109206 Ry

     iteration #  9     ecut=    71.00 Ry     beta= 0.10
     Davidson diagonalization with overlap
     ethr =  1.84E-07,  avg # of iterations =  2.0

     total cpu time spent up to now is    55448.8 secs

     total energy              =  -16896.63027549 Ry
     estimated scf accuracy    <       0.00014147 Ry

     iteration # 10     ecut=    71.00 Ry     beta= 0.10
     Davidson diagonalization with overlap
     ethr =  2.38E-08,  avg # of iterations =  1.0

     total cpu time spent up to now is    55564.0 secs

     total energy              =  -16896.63028749 Ry
     estimated scf accuracy    <       0.00005138 Ry

     iteration # 11     ecut=    71.00 Ry     beta= 0.10
     Davidson diagonalization with overlap
     ethr =  8.65E-09,  avg # of iterations =  1.0

     total cpu time spent up to now is    55678.8 secs

     total energy              =  -16896.63028829 Ry
     estimated scf accuracy    <       0.00004215 Ry

     iteration # 12     ecut=    71.00 Ry     beta= 0.10
     Davidson diagonalization with overlap
     ethr =  7.10E-09,  avg # of iterations =  1.1

     total cpu time spent up to now is    55794.0 secs

     total energy              =  -16896.63029319 Ry
     estimated scf accuracy    <       0.00001412 Ry

     iteration # 13     ecut=    71.00 Ry     beta= 0.10
     Davidson diagonalization with overlap
     ethr =  2.38E-09,  avg # of iterations =  1.0

     total cpu time spent up to now is    55914.3 secs

     total energy              =  -16896.63029372 Ry
     estimated scf accuracy    <       0.00000646 Ry

     iteration # 14     ecut=    71.00 Ry     beta= 0.10
     Davidson diagonalization with overlap
     ethr =  1.09E-09,  avg # of iterations =  1.1

     total cpu time spent up to now is    56030.3 secs

     total energy              =  -16896.63029475 Ry
     estimated scf accuracy    <       0.00000261 Ry

     iteration # 15     ecut=    71.00 Ry     beta= 0.10
     Davidson diagonalization with overlap
     ethr =  4.39E-10,  avg # of iterations =  1.9

     total cpu time spent up to now is    56158.8 secs

     total energy              =  -16896.63029594 Ry
     estimated scf accuracy    <       0.00000057 Ry

     iteration # 16     ecut=    71.00 Ry     beta= 0.10
     Davidson diagonalization with overlap
     ethr =  9.55E-11,  avg # of iterations =  1.3

     total cpu time spent up to now is    56278.0 secs

     total energy              =  -16896.63029681 Ry
     estimated scf accuracy    <       0.00000029 Ry

     iteration # 17     ecut=    71.00 Ry     beta= 0.10
     Davidson diagonalization with overlap
     ethr =  4.94E-11,  avg # of iterations =  1.1

     total cpu time spent up to now is    56393.7 secs

     total energy              =  -16896.63029747 Ry
     estimated scf accuracy    <       0.00000011 Ry

     iteration # 18     ecut=    71.00 Ry     beta= 0.10
     Davidson diagonalization with overlap
     ethr =  1.89E-11,  avg # of iterations =  1.9

     total cpu time spent up to now is    56521.0 secs

     total energy              =  -16896.63029807 Ry
     estimated scf accuracy    <       0.00000006 Ry

     iteration # 19     ecut=    71.00 Ry     beta= 0.10
     Davidson diagonalization with overlap
     ethr =  1.06E-11,  avg # of iterations =  2.0

     total cpu time spent up to now is    56672.6 secs

     total energy              =  -16896.63029849 Ry
     estimated scf accuracy    <       0.00000002 Ry

     iteration # 20     ecut=    71.00 Ry     beta= 0.10
     Davidson diagonalization with overlap
     ethr =  2.69E-12,  avg # of iterations =  2.0

     total cpu time spent up to now is    56804.0 secs

     End of self-consistent calculation

     Number of k-points >= 100: set verbosity='high' to print the bands.

     the Fermi energy is    18.5264 ev

!    total energy              =  -16896.63030020 Ry

     total all-electron energy =   -333037.510686 Ry
     estimated scf accuracy    <          3.3E-09 Ry
     smearing contrib. (-TS)   =       0.10275986 Ry
     internal energy E=F+TS    =  -16896.73306006 Ry

     The total energy is F=E-TS. E is the sum of the following terms:
     one-electron contribution =   -2724.80119603 Ry
     hartree contribution      =    1778.00955822 Ry
     xc contribution           =   -1017.25106716 Ry
     ewald contribution        =   -6510.05345436 Ry
     one-center paw contrib.   =   -8422.63690072 Ry

     convergence has been achieved in  20 iterations

     Forces acting on atoms (cartesian axes, Ry/au):

     atom    1 type  1   force =     0.00000000    0.00000000    0.00000000
     atom    2 type  1   force =     0.00000000    0.00038135   -0.00029259
     atom    3 type  1   force =    -0.00021465    0.00020774    0.00020774
     atom    4 type  1   force =    -0.00032739    0.00012425    0.00047911
     atom    5 type  1   force =     0.00000000   -0.00012162    0.00012162
     atom    6 type  1   force =     0.00000000    0.00002458   -0.00002458
     atom    7 type  1   force =    -0.00032739   -0.00047911   -0.00012425
     atom    8 type  1   force =     0.00056474   -0.00059621   -0.00059621
     atom    9 type  1   force =     0.00000000   -0.00029259    0.00038135
     atom   10 type  1   force =     0.00000000    0.00012162   -0.00012162
     atom   11 type  1   force =    -0.00032739   -0.00012425   -0.00047911
     atom   12 type  1   force =    -0.00021465   -0.00020774   -0.00020774
     atom   13 type  1   force =     0.00000000   -0.00038135    0.00029259
     atom   14 type  1   force =     0.00000000    0.00029259   -0.00038135
     atom   15 type  1   force =     0.00056474    0.00059621    0.00059621
     atom   16 type  1   force =    -0.00032739    0.00047911    0.00012425
     atom   17 type  1   force =     0.00000000   -0.00002458    0.00002458
     atom   18 type  1   force =     0.00000000   -0.00014507    0.00022310
     atom   19 type  1   force =     0.00021465    0.00020774    0.00020774
     atom   20 type  1   force =     0.00032739    0.00012425    0.00047911
     atom   21 type  1   force =     0.00000000    0.00027604   -0.00027604
     atom   22 type  1   force =     0.00000000    0.00002460   -0.00002460
     atom   23 type  1   force =     0.00032739   -0.00047911   -0.00012425
     atom   24 type  1   force =    -0.00056474   -0.00059621   -0.00059621
     atom   25 type  1   force =     0.00000000    0.00022310   -0.00014507
     atom   26 type  1   force =     0.00000000   -0.00027604    0.00027604
     atom   27 type  1   force =     0.00032739   -0.00012425   -0.00047911
     atom   28 type  1   force =     0.00021465   -0.00020774   -0.00020774
     atom   29 type  1   force =     0.00000000    0.00014507   -0.00022310
     atom   30 type  1   force =     0.00000000   -0.00022310    0.00014507
     atom   31 type  1   force =    -0.00056474    0.00059621    0.00059621
     atom   32 type  1   force =     0.00032739    0.00047911    0.00012425
     atom   33 type  1   force =     0.00000000   -0.00002460    0.00002460

     Total force =     0.003007     Total SCF correction =     0.000228


     Computing stress (Cartesian axis) and pressure

          total   stress  (Ry/bohr**3)                   (kbar)     P=        4.22
   0.00002278   0.00000000   0.00000000            3.35        0.00        0.00
   0.00000000   0.00003160  -0.00001053            0.00        4.65       -1.55
   0.00000000  -0.00001053   0.00003160            0.00       -1.55        4.65


     Writing output data file /scratch/pdcrowdion2.save/
 
     init_run     :     80.50s CPU     82.17s WALL (       2 calls)
     electrons    :  52040.14s CPU  52629.03s WALL (      26 calls)
     update_pot   :      9.59s CPU      9.79s WALL (      24 calls)
     forces       :    568.37s CPU    573.04s WALL (      26 calls)
     stress       :   3552.89s CPU   3580.63s WALL (      26 calls)

     Called by init_run:
     wfcinit      :     78.82s CPU     80.30s WALL (       2 calls)
     potinit      :      0.41s CPU      0.42s WALL (       2 calls)
     hinit0       :      0.73s CPU      0.74s WALL (       2 calls)

     Called by electrons:
     c_bands      :  46509.44s CPU  47012.73s WALL (     374 calls)
     sum_band     :   5483.32s CPU   5562.56s WALL (     374 calls)
     v_of_rho     :      4.95s CPU      5.26s WALL (     391 calls)
     newd         :      8.74s CPU     12.32s WALL (     391 calls)
     PAW_pot      :     35.28s CPU     36.99s WALL (     415 calls)
     mix_rho      :      1.60s CPU      1.77s WALL (     374 calls)

     Called by c_bands:
     init_us_2    :    199.19s CPU    201.62s WALL (  103250 calls)
     cegterg      :  45742.89s CPU  46229.28s WALL (   46750 calls)

     Called by *egterg:
     cdiaghg      :   5219.23s CPU   5248.73s WALL (  161855 calls)
     h_psi        :  23783.98s CPU  24133.43s WALL (  166230 calls)
     s_psi        :   1901.82s CPU   1914.12s WALL (  166230 calls)
     g_psi        :     54.06s CPU     54.93s WALL (  119230 calls)

     Called by h_psi:
     h_psi:calbec :   3594.65s CPU   3619.56s WALL (  166230 calls)
     vloc_psi     :  18225.96s CPU  18521.04s WALL (  166230 calls)
     add_vuspsi   :   1832.94s CPU   1860.97s WALL (  166230 calls)

     General routines
     calbec       :   5941.10s CPU   5982.01s WALL (  232230 calls)
     fft          :      6.45s CPU      6.59s WALL (    5714 calls)
     ffts         :      0.45s CPU      0.47s WALL (     765 calls)
     fftw         :  21110.34s CPU  21450.45s WALL (99790606 calls)
     interpolate  :      0.94s CPU      0.98s WALL (     391 calls)
 
     Parallel routines
     fft_scatt_xy :   1744.34s CPU   1772.18s WALL (99797085 calls)
     fft_scatt_yz :  16407.37s CPU  16675.95s WALL (99797085 calls)
 
     PWSCF        :     15h40m CPU     15h50m WALL

 
   This run was terminated on:  23:51:19   4Jan2022            

=------------------------------------------------------------------------------=
   JOB DONE.
=------------------------------------------------------------------------------=
