
     Program PWSCF v.6.7MaX starts on  4Jan2022 at  0:47:25 

     This program is part of the open-source Quantum ESPRESSO suite
     for quantum simulation of materials; please cite
         "P. Giannozzi et al., J. Phys.:Condens. Matter 21 395502 (2009);
         "P. Giannozzi et al., J. Phys.:Condens. Matter 29 465901 (2017);
          URL http://www.quantum-espresso.org", 
     in publications or presentations arising from this work. More details at
     http://www.quantum-espresso.org/quote

     Parallel version (MPI & OpenMP), running on      72 processor cores
     Number of MPI processes:                72
     Threads/MPI process:                     1

     MPI processes distributed on     1 nodes
     R & G space division:  proc/nbgrp/npool/nimage =      72
     Reading input from pd_octa_2.in

     Current dimensions of program PWSCF are:
     Max number of different atomic species (ntypx) = 10
     Max number of k-points (npk) =  40000
     Max angular momentum in pseudopotentials (lmaxx) =  3
     file Pd.pbe-spn-kjpaw_psl.1.0.0.UPF: wavefunction(s)  4S 5S 4D renormalized

     Subspace diagonalization in iterative solution of the eigenvalue problem:
     one sub-group per band group will be used
     ELPA distributed-memory algorithm (size of sub-group:  8*  8 procs)

     Message from routine setup:
     using ibrav=0 with symmetry is DISCOURAGED, use correct ibrav instead
 
     Parallelization info
     --------------------
     sticks:   dense  smooth     PW     G-vecs:    dense   smooth      PW
     Min         104      68     18                 6830     3658     516
     Max         105      69     19                 6837     3669     525
     Sum        7521    4957   1353               492057   263859   37529
 


     bravais-lattice index     =            0
     lattice parameter (alat)  =      14.8394  a.u.
     unit-cell volume          =    3267.7646 (a.u.)^3
     number of atoms/cell      =           33
     number of atomic types    =            1
     number of electrons       =       594.00
     number of Kohn-Sham states=          356
     kinetic-energy cutoff     =      71.0000  Ry
     charge density cutoff     =     430.0000  Ry
     scf convergence threshold =      1.0E-06
     mixing beta               =       0.1000
     number of iterations used =           10  TF        mixing
     energy convergence thresh.=      1.0E-04
     force convergence thresh. =      1.0E-03
     press convergence thresh. =      5.0E-01
     Exchange-correlation= SLA  PW   PBX  PBC
                           (   1   4   3   4   0   0   0)
     nstep                     =           40


     celldm(1)=  14.839420  celldm(2)=   0.000000  celldm(3)=   0.000000
     celldm(4)=   0.000000  celldm(5)=   0.000000  celldm(6)=   0.000000

     crystal axes: (cart. coord. in units of alat)
               a(1) = (   1.000000   0.000000   0.000000 )  
               a(2) = (   0.000000   1.000000   0.000000 )  
               a(3) = (   0.000000   0.000000   1.000000 )  

     reciprocal axes: (cart. coord. in units 2 pi/alat)
               b(1) = (  1.000000  0.000000  0.000000 )  
               b(2) = (  0.000000  1.000000  0.000000 )  
               b(3) = (  0.000000  0.000000  1.000000 )  


     PseudoPot. # 1 for Pd read from file:
     /rds/homes/b/bxp912/pp/Pd.pbe-spn-kjpaw_psl.1.0.0.UPF
     MD5 check sum: 790f2ebce206edfd9790dcb9844eca51
     Pseudo is Projector augmented-wave + core cor, Zval = 18.0
     Generated using &quot;atomic&quot; code by A. Dal Corso  v.6.3
     Shape of augmentation charge: PSQ
     Using radial grid of 1235 points,  6 beta functions with: 
                l(1) =   0
                l(2) =   0
                l(3) =   1
                l(4) =   1
                l(5) =   2
                l(6) =   2
     Q(r) pseudized with 0 coefficients 


     atomic species   valence    mass     pseudopotential
        Pd            18.00   106.42000     Pd( 1.00)

     48 Sym. Ops., with inversion, found (42 have fractional translation)



   Cartesian axes

     site n.     atom                  positions (alat units)
         1           Pd  tau(   1) = (   0.2500000   0.2500000   0.2500000  )
         2           Pd  tau(   2) = (   0.0000000   0.0000000   0.0000000  )
         3           Pd  tau(   3) = (   0.2500000   0.2500000   0.0000000  )
         4           Pd  tau(   4) = (   0.2500000   0.0000000   0.2500000  )
         5           Pd  tau(   5) = (   0.0000000   0.2500000   0.2500000  )
         6           Pd  tau(   6) = (   0.0000000   0.0000000   0.5000000  )
         7           Pd  tau(   7) = (   0.2500000   0.2500000   0.5000000  )
         8           Pd  tau(   8) = (   0.2500000   0.0000000   0.7500000  )
         9           Pd  tau(   9) = (   0.0000000   0.2500000   0.7500000  )
        10           Pd  tau(  10) = (   0.0000000   0.5000000   0.0000000  )
        11           Pd  tau(  11) = (   0.2500000   0.7500000   0.0000000  )
        12           Pd  tau(  12) = (   0.2500000   0.5000000   0.2500000  )
        13           Pd  tau(  13) = (   0.0000000   0.7500000   0.2500000  )
        14           Pd  tau(  14) = (   0.0000000   0.5000000   0.5000000  )
        15           Pd  tau(  15) = (   0.2500000   0.7500000   0.5000000  )
        16           Pd  tau(  16) = (   0.2500000   0.5000000   0.7500000  )
        17           Pd  tau(  17) = (   0.0000000   0.7500000   0.7500000  )
        18           Pd  tau(  18) = (   0.5000000   0.0000000   0.0000000  )
        19           Pd  tau(  19) = (   0.7500000   0.2500000   0.0000000  )
        20           Pd  tau(  20) = (   0.7500000   0.0000000   0.2500000  )
        21           Pd  tau(  21) = (   0.5000000   0.2500000   0.2500000  )
        22           Pd  tau(  22) = (   0.5000000   0.0000000   0.5000000  )
        23           Pd  tau(  23) = (   0.7500000   0.2500000   0.5000000  )
        24           Pd  tau(  24) = (   0.7500000   0.0000000   0.7500000  )
        25           Pd  tau(  25) = (   0.5000000   0.2500000   0.7500000  )
        26           Pd  tau(  26) = (   0.5000000   0.5000000   0.0000000  )
        27           Pd  tau(  27) = (   0.7500000   0.7500000   0.0000000  )
        28           Pd  tau(  28) = (   0.7500000   0.5000000   0.2500000  )
        29           Pd  tau(  29) = (   0.5000000   0.7500000   0.2500000  )
        30           Pd  tau(  30) = (   0.5000000   0.5000000   0.5000000  )
        31           Pd  tau(  31) = (   0.7500000   0.7500000   0.5000000  )
        32           Pd  tau(  32) = (   0.7500000   0.5000000   0.7500000  )
        33           Pd  tau(  33) = (   0.5000000   0.7500000   0.7500000  )

     number of k points=    35  Marzari-Vanderbilt smearing, width (Ry)=  0.0400
                       cart. coord. in units 2pi/alat
        k(    1) = (   0.0555556   0.0555556   0.0555556), wk =   0.0219479
        k(    2) = (   0.0555556   0.0555556   0.1666667), wk =   0.0658436
        k(    3) = (   0.0555556   0.0555556   0.2777778), wk =   0.0658436
        k(    4) = (   0.0555556   0.0555556   0.3888889), wk =   0.0658436
        k(    5) = (   0.0555556   0.0555556  -0.5000000), wk =   0.0329218
        k(    6) = (   0.0555556   0.1666667   0.1666667), wk =   0.0658436
        k(    7) = (   0.0555556   0.1666667   0.2777778), wk =   0.1316872
        k(    8) = (   0.0555556   0.1666667   0.3888889), wk =   0.1316872
        k(    9) = (   0.0555556   0.1666667  -0.5000000), wk =   0.0658436
        k(   10) = (   0.0555556   0.2777778   0.2777778), wk =   0.0658436
        k(   11) = (   0.0555556   0.2777778   0.3888889), wk =   0.1316872
        k(   12) = (   0.0555556   0.2777778  -0.5000000), wk =   0.0658436
        k(   13) = (   0.0555556   0.3888889   0.3888889), wk =   0.0658436
        k(   14) = (   0.0555556   0.3888889  -0.5000000), wk =   0.0658436
        k(   15) = (   0.0555556  -0.5000000  -0.5000000), wk =   0.0164609
        k(   16) = (   0.1666667   0.1666667   0.1666667), wk =   0.0219479
        k(   17) = (   0.1666667   0.1666667   0.2777778), wk =   0.0658436
        k(   18) = (   0.1666667   0.1666667   0.3888889), wk =   0.0658436
        k(   19) = (   0.1666667   0.1666667  -0.5000000), wk =   0.0329218
        k(   20) = (   0.1666667   0.2777778   0.2777778), wk =   0.0658436
        k(   21) = (   0.1666667   0.2777778   0.3888889), wk =   0.1316872
        k(   22) = (   0.1666667   0.2777778  -0.5000000), wk =   0.0658436
        k(   23) = (   0.1666667   0.3888889   0.3888889), wk =   0.0658436
        k(   24) = (   0.1666667   0.3888889  -0.5000000), wk =   0.0658436
        k(   25) = (   0.1666667  -0.5000000  -0.5000000), wk =   0.0164609
        k(   26) = (   0.2777778   0.2777778   0.2777778), wk =   0.0219479
        k(   27) = (   0.2777778   0.2777778   0.3888889), wk =   0.0658436
        k(   28) = (   0.2777778   0.2777778  -0.5000000), wk =   0.0329218
        k(   29) = (   0.2777778   0.3888889   0.3888889), wk =   0.0658436
        k(   30) = (   0.2777778   0.3888889  -0.5000000), wk =   0.0658436
        k(   31) = (   0.2777778  -0.5000000  -0.5000000), wk =   0.0164609
        k(   32) = (   0.3888889   0.3888889   0.3888889), wk =   0.0219479
        k(   33) = (   0.3888889   0.3888889  -0.5000000), wk =   0.0329218
        k(   34) = (   0.3888889  -0.5000000  -0.5000000), wk =   0.0164609
        k(   35) = (  -0.5000000  -0.5000000  -0.5000000), wk =   0.0027435

     Dense  grid:   492057 G-vectors     FFT dimensions: ( 100, 100, 100)

     Smooth grid:   263859 G-vectors     FFT dimensions: (  80,  80,  80)

     Estimated max dynamical RAM per process >     131.34 MB

     Estimated total dynamical RAM >       9.23 GB

     Check: negative core charge=   -0.000002

     Initial potential from superposition of free atoms

     starting charge  593.98738, renormalised to  594.00000
     Starting wfcs are  330 randomized atomic wfcs +   26 random wfcs
     Checking if some PAW data can be deallocated... 

     total cpu time spent up to now is       14.4 secs

     Self-consistent Calculation

     iteration #  1     ecut=    71.00 Ry     beta= 0.10
     Davidson diagonalization with overlap
     ethr =  1.00E-02,  avg # of iterations =  3.0

     Threshold (ethr) on eigenvalues was too large:
     Diagonalizing with lowered threshold

     Davidson diagonalization with overlap
     ethr =  1.33E-04,  avg # of iterations =  4.5

     total cpu time spent up to now is       93.0 secs

     total energy              =  -16895.48039584 Ry
     estimated scf accuracy    <       0.76989943 Ry

     iteration #  2     ecut=    71.00 Ry     beta= 0.10
     Davidson diagonalization with overlap
     ethr =  1.30E-04,  avg # of iterations =  1.0

     total cpu time spent up to now is      123.6 secs

     total energy              =  -16895.27388837 Ry
     estimated scf accuracy    <       0.56909230 Ry

     iteration #  3     ecut=    71.00 Ry     beta= 0.10
     Davidson diagonalization with overlap
     ethr =  9.58E-05,  avg # of iterations =  2.6

     total cpu time spent up to now is      161.8 secs

     total energy              =  -16895.34056808 Ry
     estimated scf accuracy    <       0.05646466 Ry

     iteration #  4     ecut=    71.00 Ry     beta= 0.10
     Davidson diagonalization with overlap
     c_bands:  1 eigenvalues not converged
     ethr =  9.51E-06,  avg # of iterations =  7.2

     total cpu time spent up to now is      200.5 secs

     total energy              =  -16895.33939363 Ry
     estimated scf accuracy    <       0.02379734 Ry

     iteration #  5     ecut=    71.00 Ry     beta= 0.10
     Davidson diagonalization with overlap
     ethr =  4.01E-06,  avg # of iterations =  5.3

     total cpu time spent up to now is      237.0 secs

     total energy              =  -16895.33407120 Ry
     estimated scf accuracy    <       0.01857257 Ry

     iteration #  6     ecut=    71.00 Ry     beta= 0.10
     Davidson diagonalization with overlap
     ethr =  3.13E-06,  avg # of iterations =  2.1

     total cpu time spent up to now is      271.1 secs

     total energy              =  -16895.33580911 Ry
     estimated scf accuracy    <       0.00154102 Ry

     iteration #  7     ecut=    71.00 Ry     beta= 0.10
     Davidson diagonalization with overlap
     ethr =  2.59E-07,  avg # of iterations =  2.3

     total cpu time spent up to now is      305.8 secs

     total energy              =  -16895.33594081 Ry
     estimated scf accuracy    <       0.00093395 Ry

     iteration #  8     ecut=    71.00 Ry     beta= 0.10
     Davidson diagonalization with overlap
     ethr =  1.57E-07,  avg # of iterations =  2.0

     total cpu time spent up to now is      342.7 secs

     total energy              =  -16895.33598770 Ry
     estimated scf accuracy    <       0.00138685 Ry

     iteration #  9     ecut=    71.00 Ry     beta= 0.10
     Davidson diagonalization with overlap
     ethr =  1.57E-07,  avg # of iterations =  1.0

     total cpu time spent up to now is      372.7 secs

     total energy              =  -16895.33594988 Ry
     estimated scf accuracy    <       0.00050085 Ry

     iteration # 10     ecut=    71.00 Ry     beta= 0.10
     Davidson diagonalization with overlap
     ethr =  8.43E-08,  avg # of iterations =  1.0

     total cpu time spent up to now is      402.3 secs

     total energy              =  -16895.33596655 Ry
     estimated scf accuracy    <       0.00010171 Ry

     iteration # 11     ecut=    71.00 Ry     beta= 0.10
     Davidson diagonalization with overlap
     ethr =  1.71E-08,  avg # of iterations =  1.0

     total cpu time spent up to now is      432.2 secs

     total energy              =  -16895.33596855 Ry
     estimated scf accuracy    <       0.00003349 Ry

     iteration # 12     ecut=    71.00 Ry     beta= 0.10
     Davidson diagonalization with overlap
     ethr =  5.64E-09,  avg # of iterations =  1.2

     total cpu time spent up to now is      462.3 secs

     total energy              =  -16895.33597140 Ry
     estimated scf accuracy    <       0.00000794 Ry

     iteration # 13     ecut=    71.00 Ry     beta= 0.10
     Davidson diagonalization with overlap
     ethr =  1.34E-09,  avg # of iterations =  2.0

     total cpu time spent up to now is      498.4 secs

     total energy              =  -16895.33597349 Ry
     estimated scf accuracy    <       0.00000110 Ry

     iteration # 14     ecut=    71.00 Ry     beta= 0.10
     Davidson diagonalization with overlap
     ethr =  1.86E-10,  avg # of iterations =  2.4

     total cpu time spent up to now is      539.6 secs

     End of self-consistent calculation

          k = 0.0556 0.0556 0.0556 ( 32996 PWs)   bands (ev):

   -68.4395 -64.7614 -64.7614 -64.7614 -64.7461 -64.7461 -64.6775 -63.9236
   -63.8984 -63.8984 -63.8976 -63.8922 -63.8922 -63.8879 -63.8854 -63.8854
   -63.8853 -63.8847 -63.8830 -63.8830 -63.8827 -63.8788 -63.8788 -63.8787
   -63.8750 -63.8750 -63.8690 -63.8685 -63.8685 -63.8685 -63.8661 -63.8661
   -63.8628 -35.0005 -35.0005 -35.0005 -31.1433 -31.1076 -31.1076 -30.3920
   -30.3920 -30.3920 -30.3616 -30.3616 -30.3616 -30.2769 -30.2769 -30.2769
   -30.2433 -30.2433 -30.2433 -30.2258 -30.2258 -30.2258 -29.7965 -29.7877
   -29.7877 -29.7869 -29.7720 -29.7715 -29.7715 -29.7069 -29.7069 -29.7046
   -29.7044 -29.7044 -29.6971 -29.6959 -29.6959 -29.6946 -29.6946 -29.6937
   -29.6835 -29.6771 -29.6771 -29.6645 -29.6645 -29.6631 -29.6588 -29.6476
   -29.6476 -29.6412 -29.6386 -29.6386 -29.6327 -29.6177 -29.6177 -29.6079
   -29.6079 -29.6069 -29.6033 -29.5982 -29.5982 -29.5981 -29.5759 -29.5759
   -29.5755 -29.5755 -29.5752 -29.5712 -29.5708 -29.5708 -29.5624 -29.5580
   -29.5580 -29.5387 -29.5387 -29.5364 -29.5341 -29.5323 -29.5323 -29.5127
   -29.5127 -29.5106 -29.5096 -29.5092 -29.5092 -29.5063 -29.5063 -29.5052
   -29.5052 -29.5039 -29.5039 -29.5018 -29.5018 -29.5005 -29.4964 -29.4964
   -29.4951 -29.4641 -29.4622 -29.4622  10.4053  10.4053  10.4053  10.4734
    10.4734  12.7698  14.1428  14.4703  14.4728  14.4728  14.7598  14.7598
    14.7846  14.8608  15.1112  15.1112  15.1635  15.3347  15.3347  15.3756
    15.3756  15.3779  15.6340  15.7376  15.7390  15.7390  15.7950  15.7950
    15.8046  15.9245  15.9245  15.9433  15.9632  15.9715  15.9715  16.0963
    16.0963  16.1071  16.1232  16.1232  16.1794  16.2897  16.2897  16.3810
    16.3997  16.4465  16.4465  16.4672  16.4672  16.5515  16.5525  16.5525
    16.6012  16.6119  16.6119  16.6587  16.6759  16.6759  16.7375  16.7440
    16.7591  16.7591  16.7739  16.7739  16.8080  16.8516  16.8516  16.9196
    16.9196  16.9368  16.9745  16.9805  17.0106  17.0106  17.0717  17.1022
    17.1022  17.1809  17.1884  17.1884  17.2217  17.2217  17.2584  17.2619
    17.2619  17.2660  17.2954  17.2954  17.4116  17.4116  17.7745  17.8152
    17.8152  17.9995  17.9995  18.0367  18.0493  18.0493  18.0693  18.0937
    18.1940  18.1940  18.2025  18.2532  18.2692  18.2692  18.2988  18.2988
    18.3185  18.3187  18.3187  18.3303  18.3829  18.3829  18.4268  18.4268
    18.4491  18.5743  18.5989  18.5989  18.6348  18.6348  18.6680  18.7300
    18.7628  18.7628  18.7946  18.7986  18.7986  18.8120  18.8120  18.8191
    18.8237  18.8237  18.8743  18.9376  18.9376  19.0082  19.0742  19.0742
    19.3798  19.4239  19.4239  19.4853  19.5252  19.5252  19.6162  19.7569
    19.8369  19.8369  19.8931  19.8931  19.9015  19.9015  19.9070  19.9330
    19.9513  19.9513  19.9702  19.9967  19.9967  20.2782  20.3183  20.3213
    20.3213  20.3500  20.3500  20.3857  20.3857  20.4029  20.9512  20.9512
    20.9856  21.2993  21.4125  21.4125  21.6704  21.7941  21.7941  22.1382
    22.1382  22.2080  22.2408  22.3546  22.3546  22.7110  22.7843  22.7843
    23.2596  23.2596  23.2600  27.0106  27.0106  27.0860  27.2433  28.1197
    28.1759  28.1759  28.2349  28.2349  28.2603  28.8702  28.8702  28.9023
    28.9166  28.9311  28.9311  30.3328  30.3454  30.3454  30.4334  30.5233
    30.5730  30.5730  30.7826  30.7826  31.4442  31.4814  31.4814  31.5129
    31.5388  31.5389  31.6816  31.7135

          k = 0.0556 0.0556 0.1667 ( 33001 PWs)   bands (ev):

   -68.4395 -64.7614 -64.7614 -64.7614 -64.7461 -64.7460 -64.6774 -63.9229
   -63.9020 -63.8981 -63.8974 -63.8919 -63.8898 -63.8871 -63.8869 -63.8862
   -63.8853 -63.8847 -63.8829 -63.8825 -63.8822 -63.8802 -63.8778 -63.8776
   -63.8750 -63.8735 -63.8693 -63.8689 -63.8689 -63.8684 -63.8666 -63.8661
   -63.8631 -35.0006 -35.0005 -35.0005 -31.1431 -31.1076 -31.1073 -30.3928
   -30.3921 -30.3921 -30.3615 -30.3613 -30.3613 -30.2771 -30.2771 -30.2769
   -30.2433 -30.2432 -30.2432 -30.2259 -30.2259 -30.2258 -29.7934 -29.7862
   -29.7845 -29.7834 -29.7701 -29.7696 -29.7680 -29.7156 -29.7126 -29.7116
   -29.7089 -29.7047 -29.7036 -29.6983 -29.6981 -29.6948 -29.6933 -29.6927
   -29.6883 -29.6842 -29.6755 -29.6736 -29.6658 -29.6601 -29.6542 -29.6496
   -29.6477 -29.6433 -29.6372 -29.6347 -29.6283 -29.6196 -29.6103 -29.6075
   -29.6052 -29.6015 -29.5990 -29.5981 -29.5947 -29.5936 -29.5772 -29.5771
   -29.5756 -29.5754 -29.5733 -29.5729 -29.5716 -29.5614 -29.5598 -29.5520
   -29.5518 -29.5404 -29.5401 -29.5369 -29.5321 -29.5300 -29.5299 -29.5180
   -29.5162 -29.5148 -29.5131 -29.5118 -29.5104 -29.5086 -29.5079 -29.5068
   -29.5058 -29.5045 -29.5037 -29.5011 -29.5008 -29.5002 -29.4966 -29.4935
   -29.4917 -29.4692 -29.4638 -29.4633  10.4052  10.4052  10.4054  10.4736
    10.4824  12.8353  14.1470  14.4748  14.4955  14.4978  14.7548  14.8068
    14.8082  14.8222  15.0502  15.1575  15.2042  15.3498  15.3740  15.3892
    15.3997  15.4046  15.6260  15.6814  15.7088  15.7257  15.7432  15.7555
    15.7587  15.8319  15.8626  15.8778  15.9386  15.9562  15.9867  16.0259
    16.0329  16.0588  16.0637  16.1221  16.1693  16.2404  16.2451  16.3076
    16.3191  16.3794  16.3801  16.4776  16.4844  16.5075  16.5164  16.5401
    16.5766  16.5835  16.5995  16.6130  16.6391  16.6867  16.7090  16.7286
    16.7298  16.7611  16.8121  16.8224  16.8400  16.8666  16.8818  16.9295
    16.9884  16.9974  17.0075  17.0153  17.0180  17.1000  17.1434  17.1549
    17.1576  17.1786  17.2090  17.2404  17.2818  17.2848  17.2864  17.2993
    17.3055  17.3175  17.3233  17.3346  17.4030  17.4073  17.7171  17.7422
    17.8743  17.8952  17.9242  17.9707  17.9994  18.0240  18.0341  18.0795
    18.0914  18.1288  18.1721  18.1770  18.2100  18.2310  18.2771  18.2775
    18.3376  18.3568  18.3935  18.3987  18.4290  18.4599  18.4774  18.5179
    18.5551  18.5682  18.6120  18.6646  18.6899  18.7315  18.7474  18.7767
    18.7790  18.8265  18.8276  18.8480  18.8607  18.8864  18.8937  18.9187
    18.9531  19.0019  19.0371  19.0765  19.0891  19.1030  19.1445  19.1735
    19.3348  19.3393  19.3570  19.4544  19.4634  19.4786  19.5284  19.5632
    19.7512  19.7746  19.7961  19.8040  19.8332  19.8399  19.8936  19.9060
    19.9082  19.9337  19.9761  19.9906  20.0014  20.1273  20.1595  20.2614
    20.2817  20.2824  20.3182  20.3351  20.3392  20.3987  20.8751  20.8981
    21.0093  21.2929  21.3797  21.4516  21.5237  21.6630  21.7609  21.7891
    21.7963  22.1646  22.3002  22.7460  22.7498  22.8317  22.9208  23.3018
    23.3482  23.5596  23.5610  27.0261  27.1590  27.2134  27.4195  27.4846
    27.5448  27.5524  27.5831  28.1186  28.1196  28.3099  28.3722  29.0133
    29.0474  29.5289  29.5644  30.3905  30.5351  30.5364  30.5620  30.6577
    30.6896  30.7150  30.8452  30.9171  30.9966  31.0456  31.0610  31.1056
    31.2198  31.5360  31.5394  31.5915

          k = 0.0556 0.0556 0.2778 ( 32975 PWs)   bands (ev):

   -68.4395 -64.7615 -64.7614 -64.7614 -64.7461 -64.7460 -64.6774 -63.9216
   -63.9059 -63.8975 -63.8968 -63.8916 -63.8892 -63.8887 -63.8885 -63.8853
   -63.8847 -63.8838 -63.8823 -63.8821 -63.8819 -63.8817 -63.8764 -63.8759
   -63.8748 -63.8719 -63.8702 -63.8696 -63.8696 -63.8683 -63.8673 -63.8660
   -63.8637 -35.0006 -35.0005 -35.0005 -31.1428 -31.1076 -31.1068 -30.3938
   -30.3922 -30.3922 -30.3614 -30.3608 -30.3608 -30.2775 -30.2775 -30.2768
   -30.2433 -30.2432 -30.2432 -30.2260 -30.2259 -30.2258 -29.7876 -29.7834
   -29.7785 -29.7771 -29.7667 -29.7663 -29.7614 -29.7282 -29.7253 -29.7219
   -29.7146 -29.7133 -29.7063 -29.7051 -29.7037 -29.6992 -29.6921 -29.6911
   -29.6882 -29.6867 -29.6779 -29.6754 -29.6643 -29.6634 -29.6570 -29.6532
   -29.6464 -29.6348 -29.6338 -29.6319 -29.6254 -29.6232 -29.6131 -29.6026
   -29.6009 -29.5997 -29.5985 -29.5955 -29.5853 -29.5803 -29.5802 -29.5761
   -29.5752 -29.5752 -29.5683 -29.5682 -29.5673 -29.5563 -29.5529 -29.5464
   -29.5445 -29.5401 -29.5383 -29.5373 -29.5306 -29.5291 -29.5286 -29.5258
   -29.5213 -29.5209 -29.5184 -29.5169 -29.5126 -29.5093 -29.5092 -29.5088
   -29.5076 -29.5055 -29.5043 -29.5021 -29.5003 -29.4977 -29.4968 -29.4894
   -29.4878 -29.4777 -29.4666 -29.4662  10.4051  10.4051  10.4054  10.4738
    10.4964  12.9600  14.0931  14.4434  14.5373  14.5407  14.6563  14.8646
    14.8935  14.8976  15.0906  15.2439  15.2467  15.3387  15.4131  15.4244
    15.4348  15.4714  15.5391  15.5593  15.5805  15.6220  15.6384  15.6630
    15.7649  15.7751  15.8159  15.8305  15.8665  15.9164  15.9452  15.9706
    15.9750  15.9769  16.1053  16.1500  16.1521  16.1679  16.1798  16.2342
    16.2926  16.3236  16.3506  16.3721  16.4240  16.4709  16.4863  16.4947
    16.5233  16.5606  16.6060  16.6107  16.6447  16.6683  16.6920  16.7025
    16.7281  16.7556  16.7774  16.8148  16.8248  16.8564  16.9035  16.9154
    16.9238  16.9978  17.0054  17.0281  17.0595  17.1286  17.1298  17.1466
    17.2095  17.2097  17.2315  17.2440  17.3328  17.3615  17.3966  17.4195
    17.4691  17.4943  17.5109  17.5495  17.5924  17.5998  17.6768  17.6833
    17.7125  17.7171  17.8339  17.8396  17.8697  17.9222  17.9558  17.9726
    17.9728  18.1391  18.1820  18.2328  18.2594  18.3109  18.3155  18.3249
    18.3702  18.3911  18.4430  18.4735  18.4797  18.5291  18.5433  18.5711
    18.6314  18.6675  18.7173  18.7346  18.7527  18.7608  18.7981  18.8305
    18.8347  18.9159  18.9324  18.9343  18.9794  18.9810  19.0144  19.0549
    19.0573  19.0939  19.1183  19.1331  19.1348  19.1797  19.1821  19.2462
    19.2499  19.3204  19.3301  19.3988  19.4790  19.4890  19.5380  19.5490
    19.6060  19.6539  19.7181  19.7378  19.7775  19.8124  19.8137  19.8372
    19.8663  19.8835  19.8989  19.9180  19.9496  20.0658  20.0801  20.1519
    20.1569  20.1592  20.1943  20.3292  20.3361  20.3993  20.6852  20.7353
    20.9911  21.1131  21.1402  21.3535  21.3921  21.6359  21.6660  21.6938
    22.0589  22.1612  22.2520  22.3418  22.7206  23.3816  23.4517  23.9286
    23.9714  24.0602  24.0683  26.5985  26.6405  26.7651  26.7651  27.1261
    27.2093  27.2969  27.5137  27.5995  27.9575  28.5635  28.6234  29.2537
    29.2883  29.6618  30.0282  30.1209  30.1760  30.2454  30.3988  30.4604
    30.5370  30.5815  30.6085  30.6970  30.7584  30.8666  30.8857  31.0170
    31.0496  31.1281  31.2519  31.7183

          k = 0.0556 0.0556 0.3889 ( 32995 PWs)   bands (ev):

   -68.4395 -64.7615 -64.7614 -64.7614 -64.7461 -64.7460 -64.6774 -63.9201
   -63.9090 -63.8968 -63.8962 -63.8912 -63.8901 -63.8900 -63.8889 -63.8853
   -63.8847 -63.8833 -63.8828 -63.8821 -63.8818 -63.8790 -63.8755 -63.8742
   -63.8740 -63.8720 -63.8708 -63.8706 -63.8704 -63.8682 -63.8678 -63.8659
   -63.8644 -35.0006 -35.0005 -35.0005 -31.1425 -31.1076 -31.1064 -30.3948
   -30.3923 -30.3923 -30.3614 -30.3604 -30.3604 -30.2778 -30.2778 -30.2769
   -30.2434 -30.2432 -30.2431 -30.2260 -30.2260 -30.2258 -29.7808 -29.7805
   -29.7704 -29.7690 -29.7631 -29.7628 -29.7521 -29.7403 -29.7391 -29.7333
   -29.7223 -29.7204 -29.7194 -29.7088 -29.7066 -29.7002 -29.6915 -29.6898
   -29.6877 -29.6871 -29.6790 -29.6750 -29.6670 -29.6610 -29.6593 -29.6514
   -29.6473 -29.6385 -29.6310 -29.6297 -29.6228 -29.6218 -29.6165 -29.6003
   -29.6000 -29.5975 -29.5969 -29.5936 -29.5832 -29.5821 -29.5760 -29.5749
   -29.5669 -29.5617 -29.5614 -29.5613 -29.5593 -29.5543 -29.5517 -29.5426
   -29.5397 -29.5388 -29.5383 -29.5376 -29.5348 -29.5339 -29.5318 -29.5274
   -29.5237 -29.5221 -29.5213 -29.5208 -29.5136 -29.5120 -29.5114 -29.5092
   -29.5088 -29.5061 -29.5048 -29.5029 -29.5005 -29.4969 -29.4961 -29.4903
   -29.4840 -29.4837 -29.4700 -29.4700  10.4049  10.4050  10.4054  10.4741
    10.5088  13.1198  13.9119  14.4347  14.5826  14.5848  14.6569  14.9437
    14.9841  15.0243  15.1188  15.2473  15.3407  15.3769  15.3921  15.4207
    15.4255  15.4540  15.4633  15.4835  15.5083  15.5107  15.5748  15.6249
    15.6722  15.7358  15.8009  15.8025  15.8303  15.8603  15.8883  15.9349
    15.9517  15.9648  16.0217  16.0962  16.1621  16.2046  16.2227  16.2426
    16.2562  16.2793  16.2901  16.3250  16.3485  16.4418  16.4596  16.4678
    16.4910  16.5190  16.5455  16.5783  16.6236  16.6434  16.6640  16.6929
    16.7003  16.7433  16.7764  16.7977  16.8269  16.8814  16.9192  16.9325
    16.9425  16.9858  17.0096  17.0381  17.0386  17.0926  17.1241  17.1656
    17.2008  17.2086  17.2358  17.2642  17.3937  17.4224  17.4830  17.4872
    17.4900  17.5433  17.5467  17.5772  17.6853  17.6876  17.7236  17.7294
    17.7474  17.7983  17.8053  17.8278  17.8477  17.8931  18.0156  18.0378
    18.0409  18.1826  18.2385  18.2762  18.2884  18.3396  18.3735  18.3993
    18.4124  18.4170  18.4577  18.4995  18.5479  18.6035  18.6175  18.6411
    18.6493  18.6823  18.6845  18.6992  18.7360  18.7549  18.7639  18.7832
    18.7887  18.8242  18.8250  18.9006  18.9058  18.9707  18.9828  19.0803
    19.1012  19.1127  19.1699  19.1733  19.2085  19.2271  19.2342  19.3489
    19.3950  19.4112  19.4146  19.4556  19.4725  19.5217  19.5337  19.5474
    19.6675  19.6876  19.7005  19.7473  19.7474  19.7627  19.7679  19.7812
    19.8615  19.8878  19.9070  19.9416  19.9709  20.0180  20.0290  20.0356
    20.1139  20.1767  20.1896  20.3263  20.3362  20.3993  20.4069  20.4696
    20.7952  20.8515  20.9961  21.1694  21.3266  21.5978  21.6787  21.7304
    21.8874  22.1568  22.1670  22.3127  22.6704  24.0864  24.1509  24.6129
    24.6283  24.6844  24.7187  25.7387  25.7678  26.0425  26.0463  26.2946
    26.3205  27.5981  27.9770  28.0493  28.4691  28.8619  28.9316  28.9738
    29.3278  29.4227  29.6112  29.6419  29.8957  29.9379  29.9391  30.2831
    30.4485  30.4743  30.5158  30.5594  30.6590  30.9122  30.9362  31.0491
    31.0763  31.2496  31.3126  31.4952

          k = 0.0556 0.0556-0.5000 ( 33030 PWs)   bands (ev):

   -68.4395 -64.7615 -64.7614 -64.7614 -64.7461 -64.7460 -64.6774 -63.9193
   -63.9104 -63.8965 -63.8958 -63.8909 -63.8908 -63.8906 -63.8889 -63.8853
   -63.8847 -63.8833 -63.8832 -63.8821 -63.8818 -63.8772 -63.8750 -63.8736
   -63.8732 -63.8731 -63.8715 -63.8713 -63.8700 -63.8681 -63.8680 -63.8658
   -63.8648 -35.0007 -35.0005 -35.0005 -31.1425 -31.1076 -31.1062 -30.3951
   -30.3924 -30.3924 -30.3614 -30.3603 -30.3603 -30.2780 -30.2779 -30.2769
   -30.2434 -30.2432 -30.2432 -30.2261 -30.2261 -30.2258 -29.7793 -29.7769
   -29.7647 -29.7639 -29.7611 -29.7610 -29.7471 -29.7467 -29.7448 -29.7366
   -29.7341 -29.7232 -29.7229 -29.7109 -29.7064 -29.7008 -29.6914 -29.6893
   -29.6876 -29.6873 -29.6795 -29.6747 -29.6685 -29.6595 -29.6589 -29.6500
   -29.6477 -29.6413 -29.6323 -29.6304 -29.6198 -29.6192 -29.6188 -29.6008
   -29.5990 -29.5965 -29.5964 -29.5930 -29.5833 -29.5826 -29.5759 -29.5748
   -29.5586 -29.5583 -29.5578 -29.5529 -29.5505 -29.5496 -29.5494 -29.5474
   -29.5453 -29.5415 -29.5413 -29.5396 -29.5393 -29.5376 -29.5323 -29.5285
   -29.5219 -29.5215 -29.5214 -29.5153 -29.5135 -29.5133 -29.5133 -29.5090
   -29.5080 -29.5054 -29.5049 -29.5032 -29.5030 -29.4980 -29.4970 -29.4958
   -29.4818 -29.4815 -29.4724 -29.4721  10.4049  10.4049  10.4054  10.4741
    10.5137  13.2171  13.7891  14.4478  14.6041  14.6044  14.6675  14.9923
    15.0386  15.0903  15.1358  15.2539  15.2783  15.3498  15.3750  15.3951
    15.3959  15.4424  15.4654  15.4677  15.5039  15.5601  15.5926  15.5933
    15.6082  15.7451  15.7653  15.7868  15.8043  15.8380  15.8492  15.9332
    15.9360  15.9453  16.0342  16.0634  16.1637  16.1958  16.2217  16.2443
    16.2505  16.2773  16.2871  16.3365  16.3566  16.4104  16.4411  16.4612
    16.4755  16.5002  16.5074  16.5447  16.5667  16.6272  16.6478  16.6798
    16.7034  16.7648  16.7727  16.8231  16.8376  16.8928  16.9271  16.9362
    16.9825  16.9840  17.0100  17.0257  17.0336  17.0649  17.1186  17.1677
    17.2083  17.2180  17.2325  17.3282  17.3382  17.4382  17.4561  17.5007
    17.5478  17.5511  17.5584  17.5909  17.6165  17.6473  17.6543  17.6598
    17.6700  17.6954  17.8720  18.0555  18.0718  18.0872  18.1072  18.1474
    18.2340  18.2527  18.2701  18.3101  18.3563  18.3642  18.3721  18.3913
    18.4203  18.4412  18.4508  18.4631  18.4686  18.5155  18.5480  18.6137
    18.6288  18.6387  18.6459  18.6685  18.6754  18.6756  18.7305  18.7602
    18.7629  18.7751  18.7778  18.7923  18.8474  18.9295  18.9542  19.0672
    19.2009  19.2352  19.2354  19.2569  19.2633  19.2714  19.2776  19.3270
    19.3506  19.4585  19.4593  19.5084  19.5093  19.5512  19.6024  19.6357
    19.6666  19.6825  19.6910  19.6918  19.7145  19.7150  19.7336  19.7693
    19.8064  19.8962  19.9023  19.9114  19.9356  19.9681  19.9871  20.0713
    20.2059  20.2598  20.3246  20.3259  20.3367  20.3993  20.3997  20.5891
    20.5988  20.6949  20.7679  21.1247  21.1855  21.4334  21.5563  21.7662
    22.0381  22.0608  22.1544  22.4254  22.6249  24.7789  24.8993  24.9394
    24.9396  25.2202  25.2402  25.3813  25.4364  25.4446  25.4523  25.5174
    25.5216  28.1133  28.1315  28.4828  28.5499  28.7041  28.8089  29.1424
    29.1577  29.3353  29.3425  29.5089  29.5266  29.9055  29.9933  30.1316
    30.1680  30.3738  30.4478  30.5056  30.6505  31.1561  31.1897  31.2343
    31.2456  31.3415  31.4044  31.5257

          k = 0.0556 0.1667 0.1667 ( 32991 PWs)   bands (ev):

   -68.4395 -64.7614 -64.7614 -64.7614 -64.7460 -64.7460 -64.6774 -63.9222
   -63.9023 -63.9009 -63.8973 -63.8907 -63.8887 -63.8876 -63.8870 -63.8868
   -63.8856 -63.8847 -63.8826 -63.8824 -63.8813 -63.8790 -63.8789 -63.8770
   -63.8742 -63.8730 -63.8696 -63.8692 -63.8688 -63.8687 -63.8669 -63.8663
   -63.8635 -35.0006 -35.0005 -35.0005 -31.1429 -31.1074 -31.1071 -30.3930
   -30.3927 -30.3922 -30.3613 -30.3612 -30.3610 -30.2773 -30.2772 -30.2770
   -30.2434 -30.2432 -30.2432 -30.2259 -30.2259 -30.2259 -29.7910 -29.7847
   -29.7818 -29.7791 -29.7685 -29.7673 -29.7653 -29.7226 -29.7169 -29.7162
   -29.7121 -29.7070 -29.7031 -29.7029 -29.6992 -29.6970 -29.6957 -29.6947
   -29.6923 -29.6886 -29.6799 -29.6765 -29.6659 -29.6612 -29.6472 -29.6466
   -29.6433 -29.6429 -29.6428 -29.6315 -29.6287 -29.6104 -29.6078 -29.6042
   -29.6029 -29.6016 -29.5991 -29.5959 -29.5938 -29.5906 -29.5789 -29.5760
   -29.5741 -29.5721 -29.5719 -29.5710 -29.5672 -29.5664 -29.5598 -29.5480
   -29.5463 -29.5402 -29.5401 -29.5361 -29.5305 -29.5288 -29.5287 -29.5216
   -29.5181 -29.5170 -29.5169 -29.5143 -29.5134 -29.5127 -29.5108 -29.5058
   -29.5055 -29.5034 -29.5029 -29.5018 -29.5012 -29.5001 -29.4958 -29.4927
   -29.4875 -29.4749 -29.4652 -29.4632  10.4050  10.4052  10.4053  10.4781
    10.4872  12.8991  14.1556  14.4928  14.4991  14.5174  14.7608  14.8228
    14.8482  14.8578  14.9663  15.1459  15.2348  15.3829  15.3830  15.4094
    15.4225  15.4407  15.6301  15.6332  15.6704  15.6935  15.7007  15.7177
    15.7509  15.7764  15.8144  15.8388  15.8905  15.8911  15.9504  15.9823
    15.9855  15.9900  16.0667  16.0727  16.1562  16.1836  16.2271  16.2414
    16.2988  16.3302  16.3314  16.4027  16.4276  16.4901  16.5185  16.5432
    16.5627  16.5783  16.5816  16.6133  16.6435  16.6502  16.7033  16.7636
    16.7787  16.8071  16.8252  16.8764  16.8832  16.8998  16.9046  16.9429
    16.9779  17.0272  17.0547  17.0891  17.1188  17.1193  17.1370  17.2025
    17.2066  17.2516  17.2521  17.2650  17.2682  17.2870  17.2988  17.3089
    17.3206  17.3207  17.3550  17.3665  17.4298  17.4489  17.6716  17.7387
    17.8140  17.8456  17.9179  17.9725  17.9798  17.9962  18.0007  18.0608
    18.0890  18.0929  18.1406  18.1607  18.1872  18.2015  18.2789  18.2858
    18.2938  18.3630  18.3643  18.4127  18.4149  18.4702  18.4861  18.5226
    18.5893  18.6551  18.6586  18.6643  18.7157  18.7304  18.8015  18.8273
    18.8641  18.8658  18.8676  18.8959  18.9005  18.9479  18.9846  19.0234
    19.0598  19.0667  19.0881  19.0944  19.1786  19.2066  19.2312  19.2371
    19.2638  19.3255  19.3319  19.3689  19.4587  19.4895  19.5137  19.6292
    19.6300  19.7202  19.7314  19.7834  19.8081  19.8130  19.8674  19.8965
    19.9170  19.9203  19.9365  19.9838  20.0211  20.0321  20.0937  20.1753
    20.2158  20.2580  20.2743  20.2916  20.3108  20.3406  20.7055  20.7828
    20.8542  21.0704  21.2777  21.3784  21.3887  21.7107  21.7986  21.9360
    22.0350  22.2266  22.3655  22.7861  22.8001  23.2058  23.2132  23.3062
    23.3401  23.8252  23.9055  26.8197  26.9060  27.0429  27.0656  27.4975
    27.5373  27.6219  27.6563  27.6861  27.9480  28.2476  28.2637  28.6425
    28.7327  29.6621  29.6822  29.9956  30.0710  30.4045  30.5251  30.5990
    30.6029  30.6449  30.7403  30.8914  30.9751  31.1322  31.1454  31.3599
    31.4726  31.6630  31.6679  31.7409

          k = 0.0556 0.1667 0.2778 ( 32969 PWs)   bands (ev):

   -68.4395 -64.7615 -64.7614 -64.7614 -64.7460 -64.7460 -64.6774 -63.9210
   -63.9056 -63.9008 -63.8967 -63.8906 -63.8903 -63.8886 -63.8870 -63.8863
   -63.8847 -63.8835 -63.8824 -63.8820 -63.8807 -63.8801 -63.8772 -63.8757
   -63.8739 -63.8718 -63.8704 -63.8699 -63.8695 -63.8686 -63.8676 -63.8663
   -63.8640 -35.0006 -35.0005 -35.0005 -31.1426 -31.1074 -31.1067 -30.3938
   -30.3928 -30.3923 -30.3612 -30.3608 -30.3606 -30.2777 -30.2775 -30.2771
   -30.2435 -30.2432 -30.2431 -30.2259 -30.2259 -30.2258 -29.7862 -29.7820
   -29.7760 -29.7722 -29.7653 -29.7639 -29.7593 -29.7337 -29.7264 -29.7245
   -29.7173 -29.7119 -29.7083 -29.7079 -29.7053 -29.7039 -29.6974 -29.6961
   -29.6922 -29.6912 -29.6825 -29.6761 -29.6665 -29.6617 -29.6521 -29.6439
   -29.6416 -29.6400 -29.6356 -29.6278 -29.6267 -29.6120 -29.6038 -29.6027
   -29.6015 -29.6004 -29.5984 -29.5937 -29.5871 -29.5831 -29.5778 -29.5750
   -29.5726 -29.5723 -29.5679 -29.5666 -29.5662 -29.5580 -29.5550 -29.5470
   -29.5413 -29.5390 -29.5364 -29.5360 -29.5304 -29.5297 -29.5289 -29.5260
   -29.5233 -29.5232 -29.5200 -29.5188 -29.5171 -29.5133 -29.5127 -29.5066
   -29.5063 -29.5048 -29.5036 -29.5021 -29.4999 -29.4974 -29.4961 -29.4900
   -29.4839 -29.4821 -29.4682 -29.4650  10.4047  10.4051  10.4053  10.4797
    10.4999  13.0204  14.1198  14.4562  14.5371  14.5525  14.6816  14.8924
    14.9232  14.9286  14.9928  15.1918  15.2707  15.3706  15.4283  15.4329
    15.4613  15.4965  15.5212  15.5572  15.5616  15.6050  15.6216  15.6763
    15.6907  15.7208  15.7418  15.7916  15.8173  15.8387  15.8985  15.9426
    15.9656  15.9768  16.0341  16.0735  16.1136  16.1561  16.1664  16.2251
    16.2544  16.2711  16.3152  16.3613  16.3738  16.4336  16.4473  16.5064
    16.5452  16.5578  16.5752  16.6057  16.6327  16.6697  16.6945  16.7461
    16.7742  16.8123  16.8179  16.8428  16.8774  16.9097  16.9409  16.9585
    16.9787  17.0205  17.0648  17.1051  17.1364  17.1569  17.1870  17.2051
    17.2418  17.2519  17.2935  17.2971  17.3551  17.3712  17.4075  17.4257
    17.4498  17.4670  17.4798  17.5031  17.5868  17.5955  17.6390  17.6628
    17.6971  17.7710  17.8252  17.8546  17.8662  17.9107  17.9623  18.0154
    18.0353  18.0685  18.0946  18.1585  18.1997  18.2265  18.2514  18.2753
    18.3356  18.3815  18.4120  18.4698  18.4991  18.5358  18.5812  18.6161
    18.6400  18.6704  18.6823  18.7226  18.7601  18.7736  18.8148  18.8225
    18.8728  18.8939  18.9264  18.9399  18.9697  19.0057  19.0285  19.0536
    19.0936  19.1177  19.1285  19.1377  19.1808  19.1936  19.2779  19.2931
    19.3409  19.3551  19.3857  19.4160  19.4289  19.4448  19.5240  19.5813
    19.6486  19.6681  19.7022  19.7333  19.7703  19.8133  19.8246  19.8448
    19.8861  19.9026  19.9379  19.9551  20.0053  20.0532  20.0713  20.1078
    20.1382  20.1472  20.1937  20.2581  20.2762  20.3285  20.4480  20.6912
    20.7365  20.9601  21.0965  21.2624  21.3193  21.4342  21.7257  21.8188
    22.2452  22.4473  22.6354  22.7797  22.9085  23.2986  23.4304  23.6982
    23.9616  24.2846  24.5386  26.0465  26.2506  26.6970  26.8959  27.0509
    27.2247  27.2460  27.7348  27.8890  27.9488  27.9951  28.4307  28.4746
    29.1515  29.2187  29.5434  29.6642  29.8430  29.9158  30.0805  30.2494
    30.5461  30.6834  30.7755  30.8569  31.0215  31.1151  31.2597  31.3420
    31.4903  31.6011  31.6537  31.7385

          k = 0.0556 0.1667 0.3889 ( 33011 PWs)   bands (ev):

   -68.4395 -64.7615 -64.7614 -64.7614 -64.7460 -64.7460 -64.6774 -63.9195
   -63.9087 -63.9003 -63.8961 -63.8920 -63.8902 -63.8898 -63.8870 -63.8861
   -63.8847 -63.8831 -63.8823 -63.8809 -63.8805 -63.8790 -63.8757 -63.8742
   -63.8736 -63.8720 -63.8711 -63.8709 -63.8701 -63.8685 -63.8681 -63.8662
   -63.8647 -35.0006 -35.0005 -35.0005 -31.1424 -31.1074 -31.1063 -30.3947
   -30.3929 -30.3924 -30.3611 -30.3604 -30.3603 -30.2781 -30.2778 -30.2771
   -30.2435 -30.2433 -30.2431 -30.2260 -30.2258 -30.2258 -29.7801 -29.7792
   -29.7681 -29.7643 -29.7621 -29.7603 -29.7510 -29.7434 -29.7393 -29.7330
   -29.7236 -29.7206 -29.7200 -29.7125 -29.7093 -29.7061 -29.6973 -29.6957
   -29.6934 -29.6895 -29.6850 -29.6740 -29.6649 -29.6611 -29.6552 -29.6450
   -29.6397 -29.6392 -29.6345 -29.6240 -29.6211 -29.6155 -29.6079 -29.6030
   -29.5995 -29.5972 -29.5958 -29.5904 -29.5866 -29.5810 -29.5736 -29.5712
   -29.5688 -29.5663 -29.5644 -29.5606 -29.5590 -29.5528 -29.5501 -29.5421
   -29.5407 -29.5398 -29.5381 -29.5370 -29.5356 -29.5345 -29.5318 -29.5281
   -29.5250 -29.5247 -29.5230 -29.5196 -29.5175 -29.5142 -29.5137 -29.5095
   -29.5081 -29.5068 -29.5044 -29.5035 -29.4994 -29.4966 -29.4959 -29.4902
   -29.4851 -29.4786 -29.4719 -29.4684  10.4043  10.4050  10.4053  10.4802
    10.5122  13.1745  13.9624  14.4381  14.5820  14.5895  14.6670  14.9797
    15.0009  15.0466  15.0946  15.1732  15.3113  15.3838  15.3953  15.4119
    15.4410  15.4612  15.4709  15.4914  15.4972  15.5154  15.5611  15.6005
    15.6267  15.6393  15.7358  15.7713  15.7857  15.8626  15.8677  15.9094
    15.9393  15.9725  16.0159  16.0280  16.0832  16.1395  16.1804  16.1964
    16.2337  16.2728  16.2812  16.3339  16.3702  16.3965  16.4245  16.4443
    16.4625  16.4973  16.5628  16.5984  16.6089  16.6377  16.6760  16.7042
    16.7778  16.7869  16.8284  16.8715  16.8848  16.9128  16.9361  16.9620
    17.0083  17.0303  17.0441  17.0804  17.1393  17.1665  17.1901  17.2169
    17.2513  17.2724  17.2813  17.3023  17.4201  17.4836  17.4991  17.5067
    17.5311  17.5725  17.5901  17.6244  17.6397  17.6630  17.6844  17.7018
    17.7141  17.7420  17.8008  17.8643  17.8724  17.9013  17.9431  17.9789
    18.0065  18.0465  18.1443  18.1630  18.2121  18.2572  18.3097  18.3287
    18.3743  18.4056  18.4367  18.4589  18.4807  18.5267  18.5493  18.5935
    18.6181  18.6404  18.7092  18.7211  18.7354  18.7697  18.7819  18.8198
    18.8353  18.8757  18.8887  18.9530  18.9661  18.9767  19.0171  19.0892
    19.1165  19.1547  19.1816  19.2011  19.2264  19.2617  19.3119  19.3521
    19.3840  19.4195  19.4475  19.4505  19.4943  19.5298  19.5410  19.5766
    19.6001  19.6430  19.6684  19.6869  19.7396  19.7573  19.7827  19.8193
    19.8399  19.8730  19.8867  19.9293  19.9581  20.0015  20.0260  20.0402
    20.1708  20.2040  20.2553  20.2680  20.3270  20.3789  20.4417  20.5164
    20.7519  20.8367  21.0127  21.1017  21.2143  21.3778  21.4660  21.6768
    21.9654  22.4417  22.7496  22.8104  23.2492  23.5933  24.1444  24.2780
    24.6736  24.8597  25.1651  25.2760  25.5876  25.8109  26.2007  26.3406
    26.8431  27.2815  27.6049  28.1830  28.2944  28.3385  28.4943  28.7715
    28.8881  28.9990  29.1368  29.3022  29.6009  29.7264  29.9571  30.2428
    30.4328  30.5198  30.6516  30.7601  30.9212  31.0491  31.1269  31.1451
    31.2399  31.2812  31.6411  31.9343

          k = 0.0556 0.1667-0.5000 ( 33016 PWs)   bands (ev):

   -68.4395 -64.7615 -64.7614 -64.7614 -64.7460 -64.7459 -64.6774 -63.9186
   -63.9100 -63.9000 -63.8957 -63.8926 -63.8907 -63.8899 -63.8870 -63.8861
   -63.8847 -63.8832 -63.8823 -63.8812 -63.8804 -63.8772 -63.8748 -63.8736
   -63.8732 -63.8731 -63.8718 -63.8714 -63.8699 -63.8684 -63.8683 -63.8661
   -63.8652 -35.0007 -35.0005 -35.0005 -31.1423 -31.1074 -31.1061 -30.3951
   -30.3929 -30.3924 -30.3611 -30.3602 -30.3601 -30.2782 -30.2779 -30.2771
   -30.2436 -30.2434 -30.2431 -30.2261 -30.2258 -30.2258 -29.7780 -29.7761
   -29.7621 -29.7615 -29.7604 -29.7585 -29.7473 -29.7456 -29.7447 -29.7375
   -29.7309 -29.7269 -29.7230 -29.7147 -29.7096 -29.7067 -29.6972 -29.6949
   -29.6946 -29.6874 -29.6872 -29.6730 -29.6643 -29.6608 -29.6553 -29.6459
   -29.6400 -29.6385 -29.6351 -29.6224 -29.6182 -29.6166 -29.6103 -29.6038
   -29.5985 -29.5963 -29.5942 -29.5887 -29.5878 -29.5813 -29.5736 -29.5705
   -29.5661 -29.5571 -29.5567 -29.5563 -29.5528 -29.5518 -29.5516 -29.5492
   -29.5460 -29.5434 -29.5390 -29.5387 -29.5360 -29.5318 -29.5310 -29.5283
   -29.5259 -29.5240 -29.5214 -29.5190 -29.5166 -29.5165 -29.5131 -29.5124
   -29.5111 -29.5072 -29.5053 -29.5048 -29.4993 -29.4968 -29.4963 -29.4909
   -29.4828 -29.4752 -29.4744 -29.4715  10.4042  10.4049  10.4053  10.4804
    10.5171  13.2665  13.8494  14.4482  14.6035  14.6085  14.6680  15.0304
    15.0428  15.1258  15.1463  15.1835  15.2769  15.3279  15.3747  15.3931
    15.3971  15.4162  15.4422  15.4653  15.5060  15.5228  15.5469  15.5494
    15.6039  15.6742  15.7173  15.7868  15.7995  15.8171  15.8373  15.9014
    15.9530  15.9567  16.0002  16.0441  16.0901  16.1008  16.1610  16.1966
    16.2510  16.2576  16.2882  16.3272  16.3841  16.3983  16.4053  16.4253
    16.4517  16.4744  16.4814  16.5535  16.6195  16.6482  16.6642  16.6804
    16.7572  16.8015  16.8257  16.8710  16.8996  16.9253  16.9472  16.9687
    17.0165  17.0226  17.0565  17.1018  17.1163  17.1725  17.2112  17.2218
    17.2596  17.2712  17.2934  17.3455  17.3491  17.4552  17.5065  17.5258
    17.5623  17.5717  17.6016  17.6089  17.6259  17.6566  17.7034  17.7077
    17.7208  17.7428  17.7871  17.9456  18.0026  18.0076  18.0511  18.0938
    18.1077  18.1271  18.1557  18.1997  18.2166  18.2596  18.2642  18.2990
    18.3687  18.3753  18.4053  18.4290  18.4458  18.4634  18.4963  18.5624
    18.5680  18.5909  18.6218  18.6636  18.6846  18.7208  18.7507  18.7810
    18.8558  18.8679  18.8711  18.9434  18.9917  19.0391  19.0675  19.1082
    19.1406  19.2280  19.2296  19.2374  19.2728  19.3048  19.3201  19.3291
    19.3662  19.4411  19.4474  19.5239  19.5290  19.5356  19.5615  19.6102
    19.6320  19.6881  19.6989  19.7002  19.7181  19.7425  19.7474  19.7676
    19.7751  19.8046  19.8392  19.9202  19.9260  19.9326  19.9895  20.0083
    20.1514  20.2144  20.2590  20.2667  20.3269  20.3366  20.5803  20.6398
    20.7965  20.9513  21.0658  21.0824  21.1211  21.1397  21.4102  21.5340
    21.6464  22.5236  22.7297  22.9808  23.1880  24.3005  24.4132  24.8365
    24.8906  24.9886  25.0119  25.3882  25.4384  25.5449  25.6234  25.9744
    26.0586  27.6928  27.7077  28.1374  28.1408  28.5208  28.6655  28.6904
    28.8540  29.0594  29.1508  29.2592  29.2726  29.7460  29.7799  30.1221
    30.1975  30.5463  30.7509  30.8305  30.8483  30.9053  30.9265  31.0644
    31.1953  31.5334  31.6293  31.8775

          k = 0.0556 0.2778 0.2778 ( 33002 PWs)   bands (ev):

   -68.4395 -64.7615 -64.7615 -64.7614 -64.7460 -64.7460 -64.6774 -63.9197
   -63.9057 -63.9039 -63.8962 -63.8925 -63.8900 -63.8889 -63.8882 -63.8847
   -63.8834 -63.8832 -63.8823 -63.8817 -63.8796 -63.8781 -63.8778 -63.8751
   -63.8732 -63.8715 -63.8709 -63.8706 -63.8694 -63.8692 -63.8683 -63.8665
   -63.8646 -35.0006 -35.0006 -35.0005 -31.1423 -31.1072 -31.1064 -30.3940
   -30.3937 -30.3924 -30.3608 -30.3607 -30.3603 -30.2781 -30.2776 -30.2773
   -30.2436 -30.2434 -30.2431 -30.2260 -30.2259 -30.2257 -29.7828 -29.7796
   -29.7704 -29.7647 -29.7627 -29.7600 -29.7549 -29.7414 -29.7313 -29.7307
   -29.7200 -29.7147 -29.7131 -29.7105 -29.7092 -29.7081 -29.7065 -29.6994
   -29.6985 -29.6965 -29.6858 -29.6749 -29.6667 -29.6592 -29.6494 -29.6443
   -29.6425 -29.6339 -29.6292 -29.6253 -29.6189 -29.6085 -29.6028 -29.6011
   -29.5996 -29.5985 -29.5967 -29.5918 -29.5856 -29.5827 -29.5794 -29.5726
   -29.5697 -29.5682 -29.5647 -29.5637 -29.5634 -29.5603 -29.5543 -29.5431
   -29.5431 -29.5377 -29.5366 -29.5356 -29.5340 -29.5321 -29.5277 -29.5267
   -29.5258 -29.5244 -29.5228 -29.5220 -29.5206 -29.5160 -29.5156 -29.5070
   -29.5066 -29.5040 -29.5038 -29.5027 -29.5025 -29.4959 -29.4934 -29.4902
   -29.4865 -29.4784 -29.4714 -29.4649  10.4040  10.4051  10.4052  10.4851
    10.5092  13.1343  14.1395  14.4266  14.5560  14.5740  14.6885  14.8510
    14.9743  15.0008  15.0016  15.2075  15.3076  15.3896  15.4017  15.4508
    15.4584  15.4726  15.4929  15.5066  15.5350  15.5843  15.6038  15.6300
    15.6390  15.6709  15.6716  15.7140  15.7547  15.7620  15.8788  15.9406
    15.9578  15.9783  15.9901  16.0174  16.0229  16.1190  16.1486  16.1782
    16.1845  16.2236  16.2620  16.2678  16.3488  16.3849  16.4065  16.4756
    16.5181  16.5487  16.5906  16.6020  16.6453  16.6839  16.7179  16.7636
    16.8201  16.8416  16.8451  16.8863  16.8939  16.9691  16.9781  16.9864
    17.0767  17.0863  17.1413  17.1922  17.1967  17.2186  17.2543  17.2672
    17.2843  17.2883  17.3440  17.3785  17.3892  17.3960  17.4666  17.4725
    17.4850  17.5031  17.5479  17.5590  17.5820  17.5855  17.5963  17.6600
    17.7129  17.7316  17.7933  17.8075  17.8869  17.9048  17.9893  17.9955
    18.0370  18.0414  18.0799  18.0884  18.1167  18.1804  18.1931  18.2500
    18.2521  18.3015  18.3440  18.4553  18.4575  18.4737  18.5198  18.5631
    18.5858  18.6093  18.7164  18.7283  18.7901  18.7908  18.8568  18.8653
    18.8717  18.8786  18.9281  18.9630  19.0297  19.0696  19.0803  19.1037
    19.1125  19.1610  19.1762  19.1878  19.2238  19.2627  19.2969  19.3178
    19.3419  19.3732  19.4603  19.4694  19.4699  19.5097  19.5456  19.5652
    19.6068  19.6508  19.6843  19.7055  19.7342  19.7522  19.8077  19.8464
    19.8857  19.8976  19.8982  19.9407  19.9669  20.0654  20.0968  20.1230
    20.1399  20.1820  20.1879  20.1979  20.2323  20.4099  20.4284  20.5388
    20.6874  20.7400  21.0671  21.0998  21.1425  21.2986  21.4084  22.3438
    22.4395  22.7988  22.8516  23.1045  23.1172  23.4317  23.4421  23.9527
    23.9556  24.6922  25.1526  25.4212  25.5362  26.7115  26.7566  27.0203
    27.0220  27.1962  27.2484  27.6939  27.7319  28.2621  28.3585  28.4538
    28.5771  28.7158  29.0481  29.1513  29.2273  29.2579  30.4040  30.4826
    30.4901  30.6894  30.8885  31.0614  31.2171  31.3574  31.4002  31.5172
    31.6251  31.7829  31.8639  31.9453

          k = 0.0556 0.2778 0.3889 ( 33028 PWs)   bands (ev):

   -68.4395 -64.7615 -64.7615 -64.7614 -64.7460 -64.7459 -64.6774 -63.9182
   -63.9081 -63.9040 -63.8955 -63.8941 -63.8902 -63.8897 -63.8884 -63.8847
   -63.8833 -63.8830 -63.8820 -63.8790 -63.8790 -63.8784 -63.8759 -63.8740
   -63.8731 -63.8721 -63.8715 -63.8714 -63.8700 -63.8690 -63.8689 -63.8665
   -63.8653 -35.0006 -35.0006 -35.0005 -31.1421 -31.1071 -31.1060 -30.3947
   -30.3938 -30.3925 -30.3607 -30.3604 -30.3601 -30.2784 -30.2779 -30.2775
   -30.2438 -30.2436 -30.2431 -30.2260 -30.2259 -30.2256 -29.7777 -29.7769
   -29.7629 -29.7606 -29.7576 -29.7558 -29.7495 -29.7464 -29.7398 -29.7370
   -29.7233 -29.7220 -29.7191 -29.7167 -29.7139 -29.7129 -29.7076 -29.7026
   -29.7004 -29.6988 -29.6879 -29.6739 -29.6650 -29.6564 -29.6494 -29.6471
   -29.6426 -29.6288 -29.6240 -29.6175 -29.6160 -29.6110 -29.6034 -29.6004
   -29.5986 -29.5966 -29.5950 -29.5882 -29.5876 -29.5790 -29.5750 -29.5704
   -29.5692 -29.5683 -29.5645 -29.5585 -29.5568 -29.5507 -29.5487 -29.5481
   -29.5465 -29.5447 -29.5400 -29.5370 -29.5349 -29.5315 -29.5313 -29.5287
   -29.5271 -29.5258 -29.5231 -29.5222 -29.5182 -29.5177 -29.5159 -29.5121
   -29.5079 -29.5071 -29.5054 -29.5046 -29.5009 -29.4965 -29.4903 -29.4887
   -29.4854 -29.4756 -29.4741 -29.4668  10.4034  10.4050  10.4052  10.4872
    10.5200  13.2758  14.0542  14.3958  14.5930  14.6031  14.6704  14.9045
    15.0271  15.0722  15.1125  15.1693  15.2552  15.3296  15.3800  15.4093
    15.4338  15.4793  15.5014  15.5149  15.5208  15.5375  15.5608  15.5706
    15.6118  15.6199  15.6404  15.6728  15.7408  15.7975  15.8550  15.8725
    15.9319  15.9439  15.9687  16.0083  16.0156  16.0561  16.1076  16.1253
    16.1589  16.1851  16.2072  16.2543  16.3378  16.3741  16.3944  16.4342
    16.4672  16.4923  16.6003  16.6188  16.6739  16.6998  16.7227  16.7490
    16.7850  16.8509  16.8693  16.8777  16.8985  16.9751  17.0016  17.0825
    17.1251  17.1397  17.1498  17.1955  17.2176  17.2368  17.2690  17.2969
    17.3359  17.3459  17.4088  17.4243  17.4614  17.4697  17.5155  17.5414
    17.5621  17.5647  17.6148  17.6282  17.6420  17.6765  17.6840  17.6995
    17.7094  17.7382  17.7877  17.8531  17.8630  17.8753  17.9321  17.9444
    17.9923  17.9964  18.0324  18.0467  18.0742  18.1369  18.1801  18.2223
    18.2335  18.2655  18.3159  18.3399  18.3738  18.4357  18.4391  18.5107
    18.5507  18.5757  18.5970  18.6753  18.7613  18.7850  18.8276  18.8494
    18.9083  18.9235  18.9554  18.9840  19.0301  19.0540  19.0979  19.1043
    19.1602  19.1962  19.2134  19.2373  19.2808  19.3285  19.3488  19.4122
    19.4354  19.4478  19.4852  19.5047  19.5513  19.5717  19.5813  19.5972
    19.6188  19.6359  19.6737  19.6890  19.7278  19.7423  19.7704  19.8059
    19.8358  19.8516  19.8854  19.8930  19.9702  19.9892  20.0165  20.0407
    20.0829  20.1254  20.1383  20.1715  20.2051  20.3800  20.4856  20.6437
    20.8318  20.8401  20.9241  21.0851  21.1127  21.2222  21.3206  21.9114
    22.4231  23.0510  23.1126  23.3239  23.4289  23.6658  23.8888  24.1769
    24.6257  24.6831  24.8904  25.2187  25.8376  25.8803  26.2592  26.5042
    27.0536  27.2518  27.4137  27.5380  27.6627  27.8948  27.9413  28.2217
    28.3594  28.6507  28.7164  28.8742  29.1358  29.6744  29.9995  30.5601
    30.6929  30.7658  30.8159  30.9074  30.9784  31.1333  31.1723  31.6908
    31.7079  31.8294  31.9724  32.0585

          k = 0.0556 0.2778-0.5000 ( 33018 PWs)   bands (ev):

   -68.4395 -64.7615 -64.7615 -64.7614 -64.7460 -64.7459 -64.6774 -63.9173
   -63.9094 -63.9037 -63.8952 -63.8947 -63.8907 -63.8897 -63.8884 -63.8847
   -63.8832 -63.8831 -63.8820 -63.8788 -63.8786 -63.8772 -63.8746 -63.8736
   -63.8732 -63.8731 -63.8723 -63.8717 -63.8701 -63.8691 -63.8687 -63.8663
   -63.8657 -35.0006 -35.0006 -35.0005 -31.1420 -31.1071 -31.1058 -30.3950
   -30.3938 -30.3925 -30.3607 -30.3602 -30.3600 -30.2786 -30.2779 -30.2775
   -30.2438 -30.2437 -30.2431 -30.2260 -30.2259 -30.2255 -29.7756 -29.7741
   -29.7612 -29.7577 -29.7556 -29.7538 -29.7476 -29.7459 -29.7436 -29.7378
   -29.7309 -29.7245 -29.7225 -29.7195 -29.7148 -29.7146 -29.7079 -29.7037
   -29.7003 -29.6995 -29.6887 -29.6726 -29.6652 -29.6553 -29.6482 -29.6481
   -29.6436 -29.6262 -29.6216 -29.6175 -29.6137 -29.6114 -29.6049 -29.6008
   -29.5977 -29.5957 -29.5941 -29.5900 -29.5840 -29.5796 -29.5750 -29.5697
   -29.5652 -29.5614 -29.5600 -29.5587 -29.5572 -29.5551 -29.5497 -29.5490
   -29.5458 -29.5426 -29.5395 -29.5374 -29.5359 -29.5352 -29.5311 -29.5309
   -29.5276 -29.5256 -29.5227 -29.5221 -29.5217 -29.5166 -29.5156 -29.5125
   -29.5096 -29.5072 -29.5071 -29.5057 -29.5002 -29.4972 -29.4890 -29.4880
   -29.4831 -29.4784 -29.4711 -29.4691  10.4032  10.4050  10.4052  10.4877
    10.5246  13.3569  13.9658  14.4082  14.6052  14.6321  14.6560  14.9848
    15.0405  15.0801  15.1183  15.1998  15.2035  15.3200  15.3591  15.3758
    15.4131  15.4525  15.4870  15.4979  15.5334  15.5341  15.5636  15.5823
    15.5933  15.6024  15.6136  15.7158  15.7684  15.7868  15.7894  15.8808
    15.8818  15.9492  15.9709  15.9909  15.9909  16.0645  16.0659  16.0825
    16.1510  16.1874  16.2485  16.2810  16.3339  16.3391  16.3717  16.3934
    16.4571  16.4869  16.5692  16.6633  16.6702  16.7170  16.7429  16.7648
    16.7733  16.7983  16.8489  16.8729  16.8762  16.9921  17.0148  17.0736
    17.1180  17.1596  17.2049  17.2055  17.2486  17.2596  17.2793  17.3273
    17.3502  17.3689  17.3862  17.4273  17.4438  17.5202  17.5447  17.5513
    17.5785  17.5918  17.6117  17.6299  17.6582  17.6839  17.7645  17.7819
    17.7832  17.7963  17.8316  17.8588  17.8944  17.9155  17.9249  17.9458
    17.9708  17.9945  18.0111  18.0289  18.0290  18.0620  18.1065  18.1285
    18.2081  18.3096  18.3161  18.3464  18.3708  18.3986  18.4391  18.4545
    18.4803  18.5468  18.5581  18.5739  18.7134  18.7763  18.8383  18.8457
    18.8460  18.9323  18.9521  18.9952  19.0340  19.0873  19.0997  19.1062
    19.2104  19.2462  19.2702  19.3137  19.3517  19.3598  19.3744  19.4233
    19.4319  19.4609  19.5011  19.5133  19.5249  19.5483  19.5915  19.6245
    19.6425  19.6797  19.6978  19.7004  19.7406  19.7432  19.7579  19.7724
    19.8294  19.8500  19.8656  19.8796  19.8804  19.9553  19.9734  20.0077
    20.0645  20.1149  20.1498  20.1987  20.2067  20.3089  20.4974  20.5379
    20.6981  20.9404  21.0041  21.1599  21.2436  21.4198  21.4605  21.6012
    21.8559  23.2098  23.4113  23.5950  23.7385  23.8074  23.8670  24.2234
    24.3335  24.9510  25.0276  25.4443  25.4899  25.7298  25.9572  26.5638
    26.6289  27.3355  27.3510  27.7058  27.7192  27.7868  27.8821  28.0181
    28.2033  28.2524  28.3634  29.4172  29.4567  29.7791  29.8291  30.3612
    30.3937  30.7166  30.7352  30.9172  30.9236  31.2123  31.3226  31.4158
    31.5414  32.0127  32.1308  32.2475

          k = 0.0556 0.3889 0.3889 ( 33018 PWs)   bands (ev):

   -68.4395 -64.7615 -64.7615 -64.7614 -64.7460 -64.7459 -64.6773 -63.9166
   -63.9078 -63.9068 -63.8958 -63.8948 -63.8902 -63.8901 -63.8891 -63.8847
   -63.8832 -63.8831 -63.8791 -63.8789 -63.8779 -63.8762 -63.8759 -63.8737
   -63.8730 -63.8726 -63.8723 -63.8722 -63.8704 -63.8697 -63.8689 -63.8665
   -63.8659 -35.0006 -35.0006 -35.0005 -31.1419 -31.1070 -31.1057 -30.3947
   -30.3946 -30.3926 -30.3604 -30.3603 -30.3599 -30.2788 -30.2779 -30.2777
   -30.2439 -30.2438 -30.2430 -30.2260 -30.2260 -30.2253 -29.7744 -29.7738
   -29.7596 -29.7559 -29.7548 -29.7511 -29.7502 -29.7430 -29.7411 -29.7398
   -29.7254 -29.7238 -29.7219 -29.7207 -29.7192 -29.7154 -29.7140 -29.7104
   -29.7042 -29.7036 -29.6920 -29.6798 -29.6609 -29.6517 -29.6492 -29.6455
   -29.6415 -29.6228 -29.6150 -29.6134 -29.6114 -29.6072 -29.6019 -29.5984
   -29.5977 -29.5944 -29.5929 -29.5865 -29.5860 -29.5821 -29.5757 -29.5697
   -29.5690 -29.5656 -29.5592 -29.5582 -29.5578 -29.5557 -29.5540 -29.5494
   -29.5462 -29.5437 -29.5401 -29.5400 -29.5359 -29.5337 -29.5309 -29.5306
   -29.5305 -29.5288 -29.5264 -29.5216 -29.5198 -29.5181 -29.5155 -29.5107
   -29.5094 -29.5077 -29.5052 -29.5029 -29.5021 -29.4962 -29.4911 -29.4842
   -29.4840 -29.4797 -29.4720 -29.4656  10.4027  10.4051  10.4051  10.4909
    10.5294  13.3970  14.1407  14.3012  14.6025  14.6162  14.6682  14.8407
    14.9865  15.0591  15.1762  15.1785  15.2820  15.3447  15.3490  15.4031
    15.4192  15.4455  15.4717  15.5062  15.5298  15.5543  15.5926  15.5958
    15.6023  15.6290  15.6582  15.6604  15.7151  15.7317  15.8412  15.8481
    15.8726  15.9008  15.9021  15.9130  15.9877  16.0017  16.0066  16.0395
    16.0525  16.1360  16.2160  16.2341  16.3305  16.3486  16.3629  16.3843
    16.4959  16.5053  16.5663  16.6336  16.7148  16.7566  16.7731  16.7834
    16.7872  16.8308  16.8719  16.8927  17.0187  17.0485  17.1541  17.1809
    17.2191  17.2319  17.2602  17.2768  17.2805  17.3068  17.3512  17.3651
    17.3702  17.4021  17.4129  17.4626  17.4725  17.5229  17.5301  17.5521
    17.6109  17.6301  17.6421  17.6617  17.6734  17.6864  17.6930  17.7545
    17.7780  17.7794  17.8061  17.8340  17.8340  17.8799  17.9126  17.9252
    17.9663  17.9697  17.9797  18.0047  18.0102  18.0289  18.0428  18.0717
    18.0872  18.1012  18.1882  18.1902  18.2428  18.3019  18.3819  18.3843
    18.4667  18.4962  18.5577  18.5791  18.6085  18.6446  18.8904  18.8987
    18.9572  18.9592  19.0053  19.0382  19.0846  19.1050  19.1368  19.1668
    19.2262  19.2617  19.2897  19.3254  19.3385  19.4103  19.4394  19.4427
    19.4588  19.4939  19.5514  19.5580  19.5595  19.5767  19.6022  19.6377
    19.6480  19.6771  19.7051  19.7201  19.7468  19.7500  19.7743  19.8078
    19.8398  19.8431  19.8963  19.9076  19.9459  19.9800  19.9856  20.0185
    20.0252  20.0301  20.0715  20.0985  20.1108  20.3134  20.3595  20.3795
    20.7401  20.8583  20.9752  21.0108  21.0679  21.4725  21.6244  22.4990
    22.5947  22.9393  22.9800  23.7235  23.7696  24.0158  24.1029  24.1945
    24.1958  24.5656  24.6109  25.6913  25.7396  25.7703  26.5067  26.8225
    26.9854  27.0185  27.1331  27.3577  27.4285  27.4689  27.6308  27.8788
    27.9776  28.0401  28.0587  28.1082  29.3355  29.7538  30.3259  30.6857
    30.7209  30.8579  30.9509  31.1828  31.2439  31.3500  31.4451  31.7846
    31.8321  32.2090  32.2273  32.2804

          k = 0.0556 0.3889-0.5000 ( 33038 PWs)   bands (ev):

   -68.4395 -64.7615 -64.7615 -64.7614 -64.7460 -64.7459 -64.6773 -63.9156
   -63.9088 -63.9070 -63.8964 -63.8945 -63.8907 -63.8901 -63.8892 -63.8847
   -63.8832 -63.8831 -63.8790 -63.8775 -63.8772 -63.8761 -63.8744 -63.8736
   -63.8734 -63.8731 -63.8728 -63.8725 -63.8706 -63.8701 -63.8687 -63.8665
   -63.8663 -35.0006 -35.0006 -35.0005 -31.1418 -31.1070 -31.1055 -30.3950
   -30.3946 -30.3926 -30.3603 -30.3602 -30.3598 -30.2789 -30.2779 -30.2778
   -30.2439 -30.2439 -30.2430 -30.2261 -30.2260 -30.2252 -29.7733 -29.7710
   -29.7601 -29.7575 -29.7496 -29.7488 -29.7477 -29.7464 -29.7405 -29.7365
   -29.7308 -29.7255 -29.7230 -29.7221 -29.7195 -29.7178 -29.7165 -29.7135
   -29.7052 -29.7043 -29.6937 -29.6826 -29.6600 -29.6502 -29.6488 -29.6430
   -29.6423 -29.6190 -29.6167 -29.6097 -29.6072 -29.6058 -29.6017 -29.5991
   -29.5982 -29.5929 -29.5919 -29.5862 -29.5853 -29.5783 -29.5770 -29.5696
   -29.5666 -29.5648 -29.5646 -29.5631 -29.5586 -29.5518 -29.5505 -29.5500
   -29.5445 -29.5438 -29.5422 -29.5398 -29.5371 -29.5368 -29.5344 -29.5313
   -29.5306 -29.5297 -29.5289 -29.5206 -29.5187 -29.5181 -29.5165 -29.5102
   -29.5076 -29.5066 -29.5064 -29.5044 -29.5006 -29.4969 -29.4904 -29.4853
   -29.4820 -29.4810 -29.4717 -29.4652  10.4024  10.4051  10.4051  10.4920
    10.5336  13.4619  14.1251  14.3085  14.5852  14.6081  14.6831  14.8703
    14.8772  15.0675  15.2178  15.2533  15.2737  15.3387  15.3563  15.3568
    15.3920  15.4252  15.4792  15.5029  15.5388  15.5531  15.5901  15.6006
    15.6161  15.6261  15.6869  15.6984  15.7219  15.7604  15.7867  15.8232
    15.8588  15.8635  15.8739  15.8992  15.9227  15.9473  15.9546  16.0112
    16.0387  16.1435  16.1743  16.2967  16.2981  16.3359  16.3466  16.3985
    16.4986  16.5148  16.5482  16.6302  16.6846  16.7253  16.8023  16.8051
    16.8132  16.8516  16.9104  16.9512  17.0398  17.0942  17.1321  17.1809
    17.2280  17.2632  17.2703  17.2742  17.3128  17.3672  17.3793  17.3818
    17.4327  17.4346  17.4705  17.5057  17.5161  17.5772  17.5832  17.5853
    17.6363  17.6380  17.6599  17.6883  17.7044  17.7226  17.7333  17.7394
    17.7396  17.7917  17.8006  17.8295  17.8477  17.8488  17.8700  17.8889
    17.8954  17.9032  17.9183  17.9219  17.9632  17.9958  18.0113  18.0308
    18.0457  18.1691  18.2216  18.2332  18.2665  18.2721  18.2864  18.3553
    18.3877  18.3903  18.4051  18.4413  18.5608  18.6037  18.9193  18.9425
    18.9639  18.9831  19.0624  19.0625  19.1150  19.1523  19.1559  19.1916
    19.2571  19.2910  19.3084  19.3372  19.3907  19.4146  19.4471  19.4542
    19.4741  19.5017  19.5183  19.5522  19.5834  19.5907  19.6215  19.6750
    19.7062  19.7319  19.7321  19.7528  19.7740  19.7907  19.7962  19.8059
    19.8393  19.8528  19.8753  19.8998  19.9122  19.9412  19.9545  19.9585
    19.9939  20.0004  20.0263  20.0495  20.1641  20.2459  20.3076  20.3721
    20.5818  20.8213  20.9127  21.0138  21.0398  21.9613  22.0748  22.1289
    22.3511  23.2279  23.2815  23.5372  23.5686  23.9613  24.1237  24.2132
    24.3395  24.9654  24.9819  25.2538  25.2836  26.1464  26.4086  27.0284
    27.0831  27.1472  27.2096  27.3248  27.3467  27.3677  27.4113  27.4733
    27.5947  27.6412  27.6559  28.6504  28.7009  30.4308  30.4681  30.6911
    30.6973  30.8473  30.9401  31.0231  31.0547  31.7050  31.8327  31.8800
    31.8989  31.9216  31.9768  32.4881

          k = 0.0556-0.5000-0.5000 ( 32992 PWs)   bands (ev):

   -68.4395 -64.7615 -64.7615 -64.7614 -64.7460 -64.7459 -64.6773 -63.9146
   -63.9085 -63.9085 -63.8970 -63.8941 -63.8907 -63.8907 -63.8892 -63.8847
   -63.8832 -63.8832 -63.8773 -63.8770 -63.8770 -63.8743 -63.8743 -63.8743
   -63.8735 -63.8735 -63.8731 -63.8731 -63.8708 -63.8707 -63.8686 -63.8665
   -63.8665 -35.0006 -35.0006 -35.0005 -31.1417 -31.1070 -31.1054 -30.3949
   -30.3949 -30.3926 -30.3602 -30.3602 -30.3597 -30.2790 -30.2779 -30.2779
   -30.2440 -30.2440 -30.2430 -30.2261 -30.2261 -30.2251 -29.7723 -29.7688
   -29.7592 -29.7592 -29.7510 -29.7451 -29.7451 -29.7444 -29.7392 -29.7344
   -29.7302 -29.7267 -29.7267 -29.7254 -29.7209 -29.7199 -29.7199 -29.7139
   -29.7052 -29.7052 -29.6977 -29.6874 -29.6585 -29.6484 -29.6484 -29.6411
   -29.6411 -29.6164 -29.6164 -29.6056 -29.6047 -29.6007 -29.6007 -29.5998
   -29.5983 -29.5943 -29.5878 -29.5868 -29.5814 -29.5782 -29.5782 -29.5726
   -29.5668 -29.5668 -29.5653 -29.5642 -29.5558 -29.5558 -29.5548 -29.5460
   -29.5454 -29.5415 -29.5411 -29.5411 -29.5398 -29.5398 -29.5333 -29.5333
   -29.5315 -29.5310 -29.5306 -29.5198 -29.5187 -29.5170 -29.5170 -29.5108
   -29.5067 -29.5067 -29.5067 -29.5017 -29.5004 -29.4925 -29.4925 -29.4907
   -29.4799 -29.4799 -29.4724 -29.4637  10.4020  10.4051  10.4051  10.4932
    10.5376  13.5156  14.2466  14.2466  14.4803  14.6094  14.7191  14.8261
    14.8261  15.0729  15.2845  15.2956  15.3103  15.3103  15.3460  15.3460
    15.4026  15.4202  15.4202  15.4574  15.5564  15.6060  15.6060  15.6164
    15.6396  15.6947  15.6947  15.7050  15.7115  15.7739  15.7915  15.7915
    15.8082  15.8283  15.8690  15.8812  15.8829  15.8829  15.8918  15.9776
    15.9776  16.0332  16.1640  16.3128  16.3128  16.3608  16.3608  16.4046
    16.4573  16.5526  16.6048  16.6048  16.6217  16.6485  16.8098  16.8098
    16.8366  16.8555  17.0804  17.0804  17.1601  17.1601  17.1929  17.1960
    17.2019  17.2714  17.3315  17.3359  17.3359  17.3832  17.3834  17.4360
    17.4360  17.4692  17.4692  17.4698  17.5126  17.5472  17.6045  17.6045
    17.6417  17.6417  17.6521  17.6521  17.6938  17.6991  17.7230  17.7721
    17.7721  17.8084  17.8333  17.8438  17.8438  17.8462  17.8504  17.8504
    17.8814  17.9012  17.9368  18.0015  18.0015  18.0274  18.0342  18.0413
    18.0413  18.0871  18.1096  18.1407  18.1407  18.1664  18.1878  18.2185
    18.2280  18.2280  18.3877  18.3877  18.5518  18.6150  18.9869  18.9905
    18.9905  19.0609  19.0609  19.1091  19.1269  19.1269  19.2011  19.2284
    19.2284  19.2292  19.4017  19.4158  19.4158  19.4276  19.4447  19.4447
    19.4547  19.4716  19.5252  19.6110  19.6110  19.6538  19.7101  19.7328
    19.7328  19.7405  19.7497  19.7813  19.8077  19.8129  19.8129  19.8288
    19.8537  19.8537  19.8722  19.9126  19.9199  19.9297  19.9346  19.9346
    19.9502  19.9749  19.9823  19.9823  20.0254  20.2161  20.2161  20.3406
    20.5866  20.7477  20.7477  21.0075  21.0176  22.5505  22.5505  22.6614
    22.7189  22.8169  22.8588  22.8588  22.9994  24.6380  24.6380  24.6785
    24.7258  24.7702  24.7702  24.8456  24.9049  26.4875  26.8966  26.8966
    26.9873  27.0283  27.0283  27.0712  27.2614  27.2614  27.2655  27.2701
    27.4108  27.8877  27.8877  27.9573  28.0665  30.6854  30.6854  30.8218
    30.9418  31.1224  31.1224  31.1526  31.2140  31.7294  31.7294  31.7379
    31.8461  32.1724  32.1725  32.1878

          k = 0.1667 0.1667 0.1667 ( 32972 PWs)   bands (ev):

   -68.4395 -64.7614 -64.7614 -64.7614 -64.7460 -64.7460 -64.6774 -63.9215
   -63.9020 -63.9020 -63.8994 -63.8889 -63.8889 -63.8884 -63.8872 -63.8872
   -63.8850 -63.8847 -63.8819 -63.8819 -63.8809 -63.8784 -63.8784 -63.8777
   -63.8730 -63.8730 -63.8700 -63.8691 -63.8691 -63.8691 -63.8669 -63.8669
   -63.8638 -35.0005 -35.0005 -35.0005 -31.1427 -31.1071 -31.1071 -30.3931
   -30.3927 -30.3927 -30.3610 -30.3610 -30.3609 -30.2775 -30.2775 -30.2771
   -30.2435 -30.2432 -30.2432 -30.2259 -30.2259 -30.2259 -29.7888 -29.7818
   -29.7818 -29.7736 -29.7674 -29.7637 -29.7637 -29.7236 -29.7236 -29.7192
   -29.7192 -29.7118 -29.7045 -29.7028 -29.7028 -29.7022 -29.6946 -29.6946
   -29.6920 -29.6903 -29.6903 -29.6787 -29.6607 -29.6607 -29.6459 -29.6459
   -29.6408 -29.6400 -29.6400 -29.6369 -29.6172 -29.6098 -29.6098 -29.6031
   -29.6015 -29.5978 -29.5978 -29.5924 -29.5921 -29.5921 -29.5751 -29.5751
   -29.5748 -29.5712 -29.5712 -29.5688 -29.5663 -29.5663 -29.5599 -29.5484
   -29.5484 -29.5358 -29.5356 -29.5356 -29.5307 -29.5278 -29.5278 -29.5216
   -29.5216 -29.5210 -29.5203 -29.5159 -29.5159 -29.5135 -29.5135 -29.5096
   -29.5081 -29.5021 -29.5011 -29.5011 -29.5005 -29.5005 -29.4919 -29.4919
   -29.4853 -29.4810 -29.4645 -29.4645  10.4049  10.4051  10.4051  10.4874
    10.4874  12.9613  14.1666  14.5119  14.5119  14.5145  14.7671  14.8691
    14.8691  14.8902  15.0058  15.0058  15.2529  15.3980  15.3980  15.4486
    15.4560  15.4560  15.5877  15.5877  15.6058  15.6570  15.6967  15.7104
    15.7104  15.7427  15.8047  15.8047  15.8867  15.8922  15.8922  15.9239
    15.9239  15.9609  16.0701  16.0701  16.1210  16.1210  16.1302  16.1517
    16.2768  16.2768  16.3434  16.3434  16.3588  16.4474  16.5410  16.5508
    16.5508  16.5884  16.5884  16.6198  16.7037  16.7037  16.7283  16.8241
    16.8241  16.8515  16.8684  16.8684  16.9112  16.9112  16.9134  16.9463
    17.0240  17.0240  17.0375  17.0816  17.0816  17.1805  17.2087  17.2289
    17.2289  17.2421  17.2421  17.2946  17.3053  17.3053  17.3219  17.3219
    17.3580  17.3635  17.3923  17.3923  17.4782  17.4782  17.6339  17.7825
    17.7825  17.8852  17.8852  17.8978  17.9386  17.9386  18.0121  18.0129
    18.0129  18.1089  18.1392  18.1541  18.2215  18.2215  18.2797  18.3016
    18.3016  18.3455  18.3455  18.3842  18.3943  18.3943  18.5849  18.5849
    18.5911  18.6502  18.6828  18.6828  18.7508  18.7620  18.7620  18.7739
    18.8544  18.8544  18.8757  18.8757  18.9841  18.9841  18.9860  19.0332
    19.0809  19.0809  19.0970  19.0970  19.1388  19.2186  19.2186  19.3086
    19.3512  19.4222  19.4877  19.4877  19.5653  19.5653  19.6015  19.6374
    19.6374  19.6713  19.6943  19.6943  19.7839  19.7892  19.8014  19.8014
    19.8870  19.9485  19.9726  19.9726  20.0117  20.0117  20.0841  20.0841
    20.1503  20.2236  20.2236  20.2675  20.2675  20.3017  20.3825  20.7021
    20.7021  20.7848  21.1647  21.1647  21.9381  21.9992  21.9992  22.2485
    22.2504  22.2504  22.2961  22.4016  22.4016  23.4658  23.4752  23.4752
    23.8664  23.9189  23.9189  26.8526  26.9570  26.9570  27.0402  27.0402
    27.0594  27.2291  27.2291  27.3038  28.4104  28.7437  28.7437  28.7767
    28.8264  28.8565  28.8565  29.4544  29.5543  29.5543  30.9080  31.0572
    31.0572  31.0770  31.0770  31.1113  31.1630  31.1930  31.1930  31.3197
    31.3276  31.3276  31.3607  31.5777

          k = 0.1667 0.1667 0.2778 ( 32998 PWs)   bands (ev):

   -68.4395 -64.7615 -64.7614 -64.7614 -64.7460 -64.7460 -64.6774 -63.9203
   -63.9053 -63.9014 -63.8994 -63.8908 -63.8903 -63.8887 -63.8869 -63.8857
   -63.8847 -63.8827 -63.8815 -63.8815 -63.8805 -63.8794 -63.8772 -63.8762
   -63.8730 -63.8718 -63.8706 -63.8698 -63.8698 -63.8690 -63.8677 -63.8668
   -63.8644 -35.0006 -35.0006 -35.0005 -31.1424 -31.1071 -31.1066 -30.3939
   -30.3930 -30.3928 -30.3609 -30.3606 -30.3606 -30.2778 -30.2777 -30.2773
   -30.2436 -30.2433 -30.2432 -30.2259 -30.2258 -30.2258 -29.7847 -29.7798
   -29.7762 -29.7659 -29.7648 -29.7610 -29.7579 -29.7354 -29.7292 -29.7258
   -29.7246 -29.7149 -29.7110 -29.7103 -29.7066 -29.7051 -29.7028 -29.6986
   -29.6935 -29.6909 -29.6875 -29.6760 -29.6624 -29.6587 -29.6508 -29.6442
   -29.6391 -29.6363 -29.6324 -29.6300 -29.6176 -29.6150 -29.6039 -29.6014
   -29.6006 -29.5988 -29.5949 -29.5938 -29.5882 -29.5810 -29.5763 -29.5763
   -29.5722 -29.5694 -29.5678 -29.5660 -29.5642 -29.5587 -29.5557 -29.5509
   -29.5457 -29.5368 -29.5334 -29.5325 -29.5310 -29.5293 -29.5282 -29.5273
   -29.5261 -29.5241 -29.5218 -29.5202 -29.5199 -29.5156 -29.5150 -29.5111
   -29.5087 -29.5027 -29.5027 -29.4999 -29.4980 -29.4969 -29.4927 -29.4898
   -29.4863 -29.4818 -29.4670 -29.4658  10.4046  10.4048  10.4051  10.4876
    10.5016  13.0787  14.1436  14.4679  14.5439  14.5453  14.7061  14.9214
    14.9473  14.9578  14.9964  15.0821  15.2608  15.3983  15.4292  15.4434
    15.4802  15.4962  15.5063  15.5196  15.5217  15.5958  15.5977  15.6675
    15.6802  15.7157  15.7365  15.7695  15.8027  15.8401  15.8493  15.9134
    15.9135  15.9649  15.9955  16.0381  16.0512  16.0742  16.1471  16.1625
    16.1854  16.2500  16.3066  16.3315  16.3822  16.4031  16.4866  16.4960
    16.5538  16.5585  16.6037  16.6061  16.6551  16.7413  16.7478  16.7535
    16.8236  16.8240  16.8596  16.8853  16.8935  16.9149  16.9690  16.9727
    16.9827  17.0307  17.0920  17.1303  17.1649  17.1955  17.2263  17.2305
    17.2491  17.2984  17.3206  17.3422  17.3501  17.3542  17.4197  17.4297
    17.4596  17.4943  17.5004  17.5255  17.5779  17.5870  17.6229  17.7015
    17.7514  17.7665  17.8112  17.8169  17.8202  17.8778  17.9441  17.9779
    18.0645  18.0825  18.0880  18.0941  18.1908  18.2556  18.2606  18.3123
    18.3372  18.3564  18.4066  18.4320  18.4824  18.4866  18.5639  18.6097
    18.6225  18.6345  18.6757  18.7021  18.7182  18.7240  18.7453  18.7541
    18.8390  18.8531  18.8553  18.9327  18.9435  19.0133  19.0656  19.0669
    19.1043  19.1094  19.1649  19.1683  19.2409  19.2527  19.3215  19.3399
    19.3408  19.3961  19.4213  19.4867  19.5083  19.5110  19.5257  19.5448
    19.6385  19.6504  19.7041  19.7141  19.7982  19.8295  19.8465  19.8901
    19.9229  19.9281  19.9538  19.9810  19.9824  20.0588  20.0722  20.1228
    20.1380  20.1593  20.1991  20.2024  20.2415  20.2832  20.3203  20.4472
    20.4646  20.6947  21.0905  21.1148  21.7859  21.8010  22.0231  22.0923
    22.2895  22.3395  22.6102  22.8669  22.9266  22.9598  23.8642  23.9188
    23.9264  24.5186  24.5584  26.1100  26.1708  26.3734  26.3778  27.0281
    27.1601  27.1995  27.5318  27.5836  27.9309  27.9437  28.5940  28.9104
    28.9679  29.0469  29.0499  29.1141  29.3133  29.3706  30.1990  30.2732
    30.6074  30.6372  30.9234  31.0512  31.2759  31.3365  31.5711  31.5812
    31.6883  31.7371  31.7887  31.8076

          k = 0.1667 0.1667 0.3889 ( 33010 PWs)   bands (ev):

   -68.4395 -64.7615 -64.7614 -64.7614 -64.7460 -64.7460 -64.6774 -63.9188
   -63.9083 -63.9007 -63.8988 -63.8923 -63.8916 -63.8887 -63.8866 -63.8855
   -63.8847 -63.8818 -63.8813 -63.8803 -63.8803 -63.8790 -63.8758 -63.8744
   -63.8732 -63.8720 -63.8713 -63.8708 -63.8703 -63.8688 -63.8683 -63.8666
   -63.8651 -35.0006 -35.0005 -35.0005 -31.1422 -31.1071 -31.1062 -30.3947
   -30.3931 -30.3929 -30.3609 -30.3603 -30.3603 -30.2782 -30.2780 -30.2773
   -30.2437 -30.2434 -30.2432 -30.2258 -30.2258 -30.2258 -29.7791 -29.7774
   -29.7685 -29.7614 -29.7589 -29.7584 -29.7505 -29.7433 -29.7409 -29.7338
   -29.7264 -29.7217 -29.7192 -29.7161 -29.7128 -29.7098 -29.7036 -29.7027
   -29.6963 -29.6879 -29.6841 -29.6709 -29.6636 -29.6575 -29.6541 -29.6449
   -29.6364 -29.6333 -29.6291 -29.6261 -29.6186 -29.6163 -29.6060 -29.6029
   -29.5996 -29.5973 -29.5908 -29.5907 -29.5867 -29.5802 -29.5730 -29.5705
   -29.5682 -29.5653 -29.5637 -29.5610 -29.5601 -29.5560 -29.5513 -29.5455
   -29.5418 -29.5417 -29.5382 -29.5380 -29.5349 -29.5326 -29.5317 -29.5289
   -29.5276 -29.5268 -29.5228 -29.5201 -29.5187 -29.5165 -29.5157 -29.5117
   -29.5108 -29.5081 -29.5043 -29.4987 -29.4968 -29.4954 -29.4937 -29.4926
   -29.4812 -29.4786 -29.4701 -29.4693  10.4043  10.4045  10.4051  10.4877
    10.5143  13.2264  14.0089  14.4396  14.5753  14.5884  14.6766  15.0048
    15.0092  15.0674  15.0783  15.1886  15.2044  15.3752  15.3887  15.3899
    15.4277  15.4444  15.4871  15.4974  15.5200  15.5240  15.5590  15.5628
    15.6097  15.6338  15.7560  15.7585  15.7762  15.8340  15.8526  15.8625
    15.9099  15.9458  15.9513  15.9872  16.0106  16.1129  16.1217  16.2156
    16.2203  16.2573  16.2767  16.3403  16.3422  16.3828  16.4180  16.4430
    16.4647  16.4919  16.5568  16.5912  16.6663  16.6869  16.7321  16.7540
    16.7813  16.7988  16.8535  16.8638  16.8958  16.9328  16.9830  16.9887
    17.0197  17.0814  17.1062  17.1097  17.1671  17.1835  17.2135  17.2750
    17.3190  17.3237  17.3336  17.3384  17.4623  17.5119  17.5143  17.5290
    17.5559  17.5843  17.5926  17.6125  17.6175  17.6510  17.6628  17.6914
    17.7061  17.7337  17.7711  17.8927  17.8932  17.9129  17.9404  17.9411
    17.9602  17.9748  18.0415  18.0644  18.1996  18.2225  18.2583  18.3395
    18.3852  18.3891  18.4329  18.4477  18.4751  18.5553  18.5597  18.6023
    18.6072  18.6204  18.6375  18.6419  18.6707  18.7264  18.7303  18.7614
    18.7921  18.8227  18.8523  18.8820  18.9307  18.9658  18.9915  19.1012
    19.1280  19.1433  19.2230  19.2565  19.2716  19.3011  19.3316  19.3383
    19.3700  19.4547  19.4565  19.5103  19.5363  19.5578  19.5642  19.5864
    19.5921  19.6294  19.6494  19.6767  19.7076  19.7472  19.8083  19.8362
    19.8485  19.8811  19.9005  19.9262  19.9675  19.9923  20.0180  20.0974
    20.1586  20.2127  20.2154  20.2279  20.2797  20.3154  20.4966  20.4978
    20.6251  20.7649  21.0590  21.0623  21.3750  21.4001  22.0082  22.1561
    22.2044  22.3029  22.3170  23.1538  23.5949  23.6617  23.7966  24.4607
    24.4667  25.1716  25.2458  25.3054  25.3073  25.7287  25.7345  26.8001
    26.8157  27.0782  27.6580  27.7632  27.8849  28.0029  28.0890  28.4883
    28.5670  29.2311  29.3558  29.4204  29.4480  29.6561  29.8281  29.8936
    30.1415  30.1776  30.7153  30.8341  31.1103  31.2784  31.3201  31.4216
    31.4710  31.7206  31.7344  32.0949

          k = 0.1667 0.1667-0.5000 ( 33000 PWs)   bands (ev):

   -68.4395 -64.7615 -64.7614 -64.7614 -64.7460 -64.7459 -64.6774 -63.9180
   -63.9097 -63.9004 -63.8986 -63.8929 -63.8922 -63.8887 -63.8865 -63.8855
   -63.8847 -63.8818 -63.8812 -63.8806 -63.8802 -63.8772 -63.8747 -63.8736
   -63.8732 -63.8731 -63.8721 -63.8712 -63.8701 -63.8687 -63.8686 -63.8663
   -63.8656 -35.0006 -35.0006 -35.0005 -31.1421 -31.1071 -31.1060 -30.3950
   -30.3931 -30.3929 -30.3608 -30.3602 -30.3601 -30.2783 -30.2781 -30.2773
   -30.2437 -30.2434 -30.2432 -30.2258 -30.2258 -30.2258 -29.7763 -29.7752
   -29.7619 -29.7602 -29.7586 -29.7584 -29.7476 -29.7442 -29.7420 -29.7384
   -29.7298 -29.7272 -29.7246 -29.7167 -29.7157 -29.7108 -29.7043 -29.7025
   -29.6975 -29.6868 -29.6828 -29.6674 -29.6643 -29.6608 -29.6495 -29.6477
   -29.6356 -29.6326 -29.6294 -29.6267 -29.6172 -29.6143 -29.6079 -29.6057
   -29.5985 -29.5964 -29.5886 -29.5879 -29.5870 -29.5832 -29.5722 -29.5671
   -29.5632 -29.5616 -29.5601 -29.5573 -29.5566 -29.5514 -29.5514 -29.5493
   -29.5487 -29.5458 -29.5403 -29.5381 -29.5332 -29.5328 -29.5325 -29.5279
   -29.5265 -29.5262 -29.5238 -29.5232 -29.5187 -29.5175 -29.5174 -29.5118
   -29.5114 -29.5107 -29.5053 -29.4980 -29.4975 -29.4944 -29.4941 -29.4927
   -29.4767 -29.4755 -29.4741 -29.4722  10.4042  10.4043  10.4051  10.4878
    10.5193  13.3129  13.9063  14.4453  14.5888  14.6190  14.6635  15.0351
    15.0589  15.1164  15.1568  15.1769  15.2865  15.2987  15.3497  15.3572
    15.3582  15.4179  15.4497  15.4520  15.4841  15.5181  15.5492  15.5713
    15.6202  15.6817  15.6963  15.7431  15.8003  15.8015  15.8222  15.8494
    15.8686  15.9557  16.0025  16.0030  16.0269  16.0557  16.1936  16.1951
    16.2279  16.2610  16.2707  16.3174  16.3434  16.3563  16.3927  16.4163
    16.4503  16.4732  16.4886  16.5973  16.6519  16.6796  16.7125  16.7588
    16.7699  16.7733  16.8494  16.8734  16.9013  16.9607  16.9671  16.9794
    17.0652  17.1011  17.1025  17.1307  17.1769  17.1891  17.2357  17.2577
    17.3227  17.3409  17.3412  17.3522  17.4059  17.4980  17.5045  17.5546
    17.5682  17.5758  17.5924  17.6244  17.6579  17.7080  17.7144  17.7428
    17.7465  17.7679  17.8024  17.8576  17.9164  17.9304  17.9566  17.9950
    18.0250  18.0672  18.0888  18.1061  18.1900  18.2100  18.2518  18.2927
    18.3274  18.3365  18.3858  18.4293  18.4565  18.4962  18.5536  18.5838
    18.5893  18.5911  18.6396  18.6453  18.6569  18.6822  18.6991  18.7263
    18.7455  18.7911  18.7979  18.9312  18.9428  18.9917  19.0493  19.0658
    19.1006  19.2217  19.2321  19.2640  19.2789  19.3403  19.3734  19.3754
    19.3956  19.4795  19.4943  19.5154  19.5531  19.5727  19.5901  19.6086
    19.6148  19.6449  19.6999  19.7085  19.7229  19.7394  19.7409  19.7651
    19.7681  19.8052  19.8303  19.8741  19.9366  19.9448  19.9541  20.0262
    20.1294  20.1651  20.2127  20.2250  20.2794  20.3944  20.6148  20.7274
    20.8098  20.9558  20.9662  21.0991  21.1196  21.3694  21.6365  22.0058
    22.2045  22.2698  22.3272  23.4632  23.6546  24.3077  24.4223  24.4619
    24.4650  24.9979  24.9990  25.1740  25.1791  25.9497  26.0124  26.0433
    26.0590  27.3397  27.3513  27.9541  28.0627  28.1278  28.1742  28.5231
    28.5748  28.7277  28.8335  29.5735  29.6991  29.7756  29.8070  30.3083
    30.3133  30.3349  30.3581  30.3832  30.4402  31.3106  31.3112  31.3263
    31.3427  31.8765  31.8855  31.9065

          k = 0.1667 0.2778 0.2778 ( 33025 PWs)   bands (ev):

   -68.4395 -64.7615 -64.7615 -64.7614 -64.7460 -64.7460 -64.6774 -63.9190
   -63.9053 -63.9038 -63.8995 -63.8926 -63.8907 -63.8902 -63.8861 -63.8847
   -63.8828 -63.8823 -63.8812 -63.8811 -63.8796 -63.8777 -63.8777 -63.8757
   -63.8725 -63.8716 -63.8711 -63.8704 -63.8696 -63.8696 -63.8682 -63.8671
   -63.8650 -35.0006 -35.0006 -35.0006 -31.1422 -31.1069 -31.1064 -30.3940
   -30.3937 -30.3930 -30.3606 -30.3605 -30.3603 -30.2782 -30.2779 -30.2775
   -30.2438 -30.2434 -30.2433 -30.2259 -30.2258 -30.2257 -29.7815 -29.7771
[...]

          k = 0.3815 0.3815 0.3815 ( 34986 PWs)   bands (ev):

   -65.9454 -65.5703 -65.5703 -65.5702 -65.5625 -65.5625 -65.5576 -65.4921
   -65.4921 -65.4921 -65.4737 -65.4737 -65.4737 -65.4734 -65.4734 -65.4733
   -65.4608 -65.4608 -65.4608 -65.4071 -65.3880 -65.3880 -65.3879 -65.3798
   -65.3798 -65.2512 -65.2511 -65.2511 -65.2511 -65.2509 -65.2509 -65.2509
   -65.2507 -31.8370 -31.8366 -31.8366 -31.4520 -31.4424 -31.4424 -31.4295
   -31.4295 -31.4282 -31.3889 -31.3726 -31.3726 -31.3661 -31.3661 -31.3655
   -31.3380 -31.3380 -31.3327 -31.3312 -31.3210 -31.3210 -31.3022 -31.2949
   -31.2949 -31.2592 -31.2592 -31.2527 -31.2483 -31.2339 -31.2235 -31.2235
   -31.2074 -31.2074 -31.2037 -31.2037 -31.1957 -31.1804 -31.1782 -31.1782
   -31.1713 -31.1713 -31.1701 -31.1450 -31.1396 -31.1396 -31.1339 -31.1291
   -31.1267 -31.1267 -31.1187 -31.1187 -31.1134 -31.1134 -31.1131 -31.1106
   -31.1106 -31.1093 -31.1080 -31.1080 -31.1028 -31.1028 -31.1023 -31.1014
   -31.0773 -31.0520 -31.0520 -31.0406 -31.0398 -31.0398 -31.0368 -31.0368
   -31.0358 -31.0196 -31.0186 -31.0186 -30.9774 -30.9774 -30.9759 -30.9745
   -30.9745 -30.9717 -30.9518 -30.9518 -30.9465 -30.9454 -30.9454 -30.9432
   -30.9424 -30.9424 -30.9423 -30.9417 -30.9360 -30.9360 -30.9225 -30.9204
   -30.9204 -30.9175 -30.9154 -30.9154  12.9020  13.2678  13.2678  13.3870
    13.5117  13.5117  13.5550  13.6538  13.7708  13.7708  13.7717  14.0010
    14.0010  14.0673  14.1282  14.1282  14.1556  14.1556  14.2246  14.2260
    14.2260  14.2693  14.2898  14.2898  14.3380  14.3438  14.3449  14.3491
    14.3491  14.3885  14.3885  14.4785  14.5549  14.5549  14.5775  14.5775
    14.5818  14.6889  14.6897  14.6897  14.7994  14.9039  14.9039  14.9121
    14.9121  15.0288  15.0360  15.0360  15.0362  15.1341  15.1802  15.1802
    15.2282  15.2462  15.2462  15.3275  15.3275  15.3294  15.4659  15.4659
    15.4762  15.5424  15.5787  15.5787  15.6649  15.6999  15.6999  15.7829
    15.7829  15.8098  15.8773  15.8773  15.9667  15.9776  15.9842  15.9842
    16.0308  16.0308  16.1862  16.1931  16.1931  16.2438  16.2544  16.2544
    16.2749  16.2990  16.2990  16.3236  16.3315  16.3315  16.3387  16.4005
    16.4005  16.4141  16.4312  16.4312  16.4361  16.5231  16.5231  16.5381
    16.5381  16.5466  16.6820  16.7078  16.7078  16.7302  16.7578  16.7960
    16.7960  16.8860  16.8860  16.9065  16.9349  16.9609  16.9609  16.9661
    17.1632  17.2060  17.2060  17.2177  17.2177  17.2278  17.2863  17.2863
    17.4059  17.4305  17.4349  17.4349  17.4537  17.4537  17.4905  17.4905
    17.4917  17.5199  17.5770  17.5770  17.6344  17.6344  17.6772  17.7088
    17.7088  17.7817  17.8987  17.8987  17.9618  17.9618  18.0352  18.1902
    18.1902  18.2937  18.3172  18.3172  18.3856  18.3916  18.3916  18.3969
    18.4502  18.4522  18.4522  18.4787  18.4787  18.4862  18.5037  18.5037
    18.5245  18.5389  18.5389  18.5985  18.6171  18.6171  18.8489  18.8489
    18.8996  20.4836  20.4836  20.6071  21.0373  21.1324  21.1324  21.2807
    21.2876  21.2876  21.5048  21.7077  21.7077  22.1283  22.1283  22.1365
    22.7610  22.8014  22.8014  22.9137  23.0612  23.0612  23.3843  23.3843
    23.6248  25.1384  25.7356  25.7356  25.8039  25.8039  26.1393  26.6778
    26.6778  26.7622  27.0415  27.1979  27.1979  27.6251  27.6251  27.6569
    28.0857  28.0857  28.0967  28.3324  28.3755  28.3755  28.8426  29.2030
    29.2030  30.5370  30.7095  30.9571

          k = 0.3815 0.3815-0.4905 ( 34982 PWs)   bands (ev):

   -65.9454 -65.5704 -65.5703 -65.5702 -65.5625 -65.5625 -65.5574 -65.4923
   -65.4923 -65.4921 -65.4737 -65.4736 -65.4736 -65.4734 -65.4731 -65.4731
   -65.4610 -65.4610 -65.4608 -65.4072 -65.3880 -65.3880 -65.3878 -65.3799
   -65.3798 -65.2512 -65.2512 -65.2510 -65.2510 -65.2510 -65.2510 -65.2508
   -65.2508 -31.8381 -31.8369 -31.8366 -31.4468 -31.4424 -31.4382 -31.4350
   -31.4301 -31.4126 -31.4011 -31.3805 -31.3722 -31.3660 -31.3656 -31.3639
   -31.3366 -31.3328 -31.3322 -31.3301 -31.3221 -31.3206 -31.3037 -31.3031
   -31.2942 -31.2592 -31.2572 -31.2555 -31.2487 -31.2349 -31.2267 -31.2241
   -31.2080 -31.2074 -31.2041 -31.1982 -31.1982 -31.1776 -31.1762 -31.1739
   -31.1737 -31.1726 -31.1708 -31.1416 -31.1393 -31.1388 -31.1309 -31.1294
   -31.1277 -31.1216 -31.1185 -31.1181 -31.1179 -31.1137 -31.1115 -31.1110
   -31.1109 -31.1100 -31.1084 -31.1082 -31.1061 -31.1050 -31.1047 -31.1023
   -31.0766 -31.0516 -31.0503 -31.0399 -31.0399 -31.0375 -31.0370 -31.0336
   -31.0335 -31.0224 -31.0215 -31.0190 -30.9782 -30.9774 -30.9771 -30.9765
   -30.9742 -30.9740 -30.9511 -30.9509 -30.9466 -30.9452 -30.9445 -30.9439
   -30.9431 -30.9422 -30.9421 -30.9415 -30.9360 -30.9352 -30.9217 -30.9206
   -30.9204 -30.9166 -30.9155 -30.9154  13.0760  13.1044  13.3813  13.3885
    13.4380  13.4843  13.5479  13.6110  13.7573  13.7601  13.7700  13.9992
    14.0369  14.1303  14.1320  14.1349  14.1658  14.1801  14.2091  14.2218
    14.2319  14.2399  14.2909  14.2998  14.3087  14.3152  14.3410  14.3416
    14.3489  14.3824  14.3917  14.4970  14.5139  14.5478  14.5868  14.6001
    14.6265  14.6686  14.7010  14.7563  14.8427  14.8505  14.8649  14.8904
    14.9625  14.9992  15.0431  15.0602  15.0887  15.1320  15.1369  15.1780
    15.1933  15.2134  15.2696  15.2934  15.2984  15.3457  15.4797  15.4852
    15.5128  15.5129  15.5295  15.5836  15.6726  15.6757  15.7829  15.8097
    15.8143  15.8449  15.8495  15.8950  15.8977  15.9596  15.9991  16.0025
    16.0645  16.1010  16.1188  16.1296  16.2029  16.2171  16.2615  16.2816
    16.2917  16.2961  16.2966  16.3016  16.3365  16.3379  16.3470  16.3729
    16.3795  16.3823  16.4192  16.4461  16.4544  16.5195  16.5217  16.5384
    16.5422  16.5709  16.5936  16.6619  16.6965  16.7018  16.8045  16.8327
    16.8465  16.8586  16.8766  16.9213  16.9336  16.9390  16.9841  17.0060
    17.1140  17.1385  17.1842  17.1888  17.2387  17.2509  17.2817  17.3100
    17.3674  17.3911  17.4214  17.4325  17.4575  17.4648  17.4660  17.4851
    17.4866  17.5017  17.5477  17.5558  17.6102  17.6319  17.6518  17.6909
    17.7006  17.7241  17.7980  17.8868  17.9586  17.9665  17.9975  18.2130
    18.2472  18.2974  18.3288  18.3768  18.3781  18.3896  18.4075  18.4279
    18.4392  18.4553  18.4619  18.4728  18.4848  18.5107  18.5138  18.5198
    18.5239  18.5295  18.5456  18.5946  18.6064  18.6079  18.8613  18.8664
    18.9200  20.7589  20.7865  20.8804  20.9074  21.1603  21.2936  21.3511
    21.4087  21.4329  21.4914  21.8978  21.9531  22.0043  22.2956  22.4007
    22.4185  22.4746  22.5250  22.5997  22.6527  23.1622  23.1797  23.2423
    23.2980  25.4708  25.5966  25.9489  25.9808  26.2751  26.2861  26.3218
    26.4267  26.9943  27.1872  27.2750  27.3237  27.3883  27.6087  27.6107
    27.6868  27.9162  28.0160  28.3912  28.4414  28.5049  28.5360  28.5694
    28.8692  30.8006  30.9894  31.0346

          k = 0.3815-0.4905-0.4905 ( 34936 PWs)   bands (ev):

   -65.9454 -65.5704 -65.5704 -65.5703 -65.5625 -65.5625 -65.5573 -65.4925
   -65.4923 -65.4923 -65.4736 -65.4736 -65.4734 -65.4731 -65.4731 -65.4730
   -65.4612 -65.4610 -65.4610 -65.4072 -65.3880 -65.3878 -65.3878 -65.3799
   -65.3798 -65.2511 -65.2511 -65.2511 -65.2511 -65.2510 -65.2509 -65.2509
   -65.2509 -31.8381 -31.8381 -31.8367 -31.4404 -31.4403 -31.4403 -31.4372
   -31.4191 -31.4040 -31.4016 -31.4016 -31.3751 -31.3645 -31.3644 -31.3644
   -31.3328 -31.3326 -31.3326 -31.3280 -31.3207 -31.3207 -31.3057 -31.3041
   -31.2995 -31.2592 -31.2565 -31.2565 -31.2490 -31.2356 -31.2288 -31.2288
   -31.2088 -31.2071 -31.2008 -31.1974 -31.1974 -31.1750 -31.1744 -31.1744
   -31.1730 -31.1720 -31.1720 -31.1397 -31.1357 -31.1357 -31.1314 -31.1296
   -31.1210 -31.1183 -31.1183 -31.1183 -31.1177 -31.1177 -31.1164 -31.1144
   -31.1107 -31.1096 -31.1096 -31.1095 -31.1084 -31.1051 -31.1051 -31.1049
   -31.0758 -31.0504 -31.0492 -31.0389 -31.0389 -31.0351 -31.0333 -31.0333
   -31.0326 -31.0251 -31.0220 -31.0220 -30.9788 -30.9788 -30.9774 -30.9770
   -30.9759 -30.9759 -30.9501 -30.9501 -30.9456 -30.9456 -30.9447 -30.9440
   -30.9440 -30.9419 -30.9419 -30.9414 -30.9357 -30.9347 -30.9210 -30.9204
   -30.9204 -30.9160 -30.9154 -30.9154  13.2213  13.2213  13.2553  13.2913
    13.4662  13.4662  13.5381  13.5564  13.7473  13.7473  13.7542  14.0138
    14.1121  14.1321  14.1414  14.1414  14.1925  14.1984  14.1993  14.1993
    14.2195  14.2252  14.2605  14.3026  14.3026  14.3059  14.3316  14.3446
    14.3446  14.3516  14.4089  14.5223  14.5253  14.5253  14.6195  14.6195
    14.6487  14.7095  14.7107  14.7107  14.8078  14.8984  14.8984  14.9057
    14.9943  15.0109  15.0569  15.0569  15.0602  15.0632  15.1496  15.1889
    15.1889  15.1974  15.2692  15.2862  15.2942  15.2942  15.4952  15.5056
    15.5056  15.5160  15.5160  15.5585  15.6682  15.7664  15.7664  15.8332
    15.8416  15.8633  15.8731  15.8805  15.8928  15.8928  15.9969  16.0141
    16.0578  16.0578  16.1217  16.1568  16.1759  16.1759  16.2724  16.2724
    16.2831  16.2957  16.3148  16.3148  16.3342  16.3342  16.3405  16.3415
    16.3640  16.3640  16.4287  16.4719  16.4719  16.4907  16.5162  16.5293
    16.5350  16.5588  16.5898  16.6459  16.6459  16.7039  16.8187  16.8768
    16.8768  16.8775  16.9176  16.9176  16.9590  16.9664  17.0001  17.0001
    17.0511  17.1094  17.1502  17.1502  17.2193  17.2891  17.2891  17.2921
    17.3249  17.3827  17.4095  17.4095  17.4281  17.4426  17.4426  17.4882
    17.4882  17.5127  17.5344  17.5615  17.5920  17.5920  17.6079  17.6567
    17.6740  17.6740  17.7394  17.8083  17.9672  17.9672  17.9888  18.2560
    18.2799  18.3326  18.3326  18.3558  18.3921  18.4260  18.4439  18.4439
    18.4542  18.4664  18.4664  18.4924  18.4924  18.4925  18.5162  18.5173
    18.5367  18.5398  18.5398  18.5952  18.5954  18.5954  18.8785  18.8818
    18.9404  21.0136  21.0136  21.1137  21.1958  21.4626  21.4626  21.5856
    21.6143  21.6429  21.6429  21.6597  21.9275  22.0589  22.0589  22.1848
    22.3145  22.3145  22.4354  22.4441  22.6640  22.7588  22.7588  22.8848
    23.0419  25.8070  25.8252  25.8252  26.4017  26.4306  26.5039  26.5039
    26.7649  26.7649  26.9052  27.0672  27.1215  27.5803  27.5803  27.8924
    27.9125  27.9163  27.9163  27.9960  28.1104  28.1878  28.2516  28.2839
    28.2839  30.9153  31.3763  31.3837

          k =-0.4905-0.4905-0.4905 ( 35016 PWs)   bands (ev):

   -65.9454 -65.5704 -65.5704 -65.5704 -65.5625 -65.5625 -65.5571 -65.4925
   -65.4925 -65.4925 -65.4734 -65.4734 -65.4734 -65.4730 -65.4730 -65.4730
   -65.4612 -65.4612 -65.4612 -65.4073 -65.3878 -65.3878 -65.3878 -65.3799
   -65.3799 -65.2511 -65.2510 -65.2510 -65.2510 -65.2510 -65.2510 -65.2510
   -65.2510 -31.8381 -31.8381 -31.8381 -31.4403 -31.4403 -31.4403 -31.4249
   -31.4042 -31.4042 -31.4023 -31.4023 -31.4023 -31.3635 -31.3635 -31.3635
   -31.3328 -31.3328 -31.3328 -31.3207 -31.3207 -31.3207 -31.3057 -31.3057
   -31.3050 -31.2644 -31.2518 -31.2518 -31.2518 -31.2351 -31.2351 -31.2351
   -31.2080 -31.2080 -31.1966 -31.1966 -31.1966 -31.1734 -31.1734 -31.1734
   -31.1728 -31.1728 -31.1728 -31.1338 -31.1338 -31.1338 -31.1220 -31.1219
   -31.1219 -31.1203 -31.1203 -31.1203 -31.1199 -31.1170 -31.1170 -31.1170
   -31.1163 -31.1163 -31.1108 -31.1108 -31.1108 -31.1050 -31.1050 -31.1050
   -31.0750 -31.0488 -31.0488 -31.0355 -31.0355 -31.0355 -31.0321 -31.0321
   -31.0321 -31.0253 -31.0253 -31.0253 -30.9791 -30.9791 -30.9791 -30.9779
   -30.9779 -30.9779 -30.9493 -30.9493 -30.9455 -30.9449 -30.9448 -30.9448
   -30.9448 -30.9414 -30.9414 -30.9414 -30.9347 -30.9347 -30.9204 -30.9204
   -30.9204 -30.9153 -30.9153 -30.9153  13.3288  13.3288  13.3288  13.3479
    13.3479  13.3479  13.4615  13.5277  13.7310  13.7310  13.7310  14.0980
    14.0980  14.1536  14.1536  14.1536  14.1767  14.2050  14.2050  14.2050
    14.2263  14.2263  14.2313  14.2313  14.3098  14.3098  14.3098  14.3427
    14.3427  14.3427  14.4224  14.5274  14.5274  14.5274  14.6833  14.6833
    14.6833  14.6956  14.6956  14.6956  14.8709  14.8709  14.8709  14.9212
    14.9689  15.0302  15.0302  15.1449  15.1449  15.1449  15.1567  15.1567
    15.1567  15.2137  15.2137  15.2349  15.2349  15.2349  15.4704  15.4704
    15.4704  15.5559  15.5559  15.5559  15.7496  15.7496  15.7496  15.8477
    15.8477  15.8716  15.8716  15.8977  15.9113  15.9113  15.9113  15.9493
    16.0828  16.0828  16.0828  16.1507  16.1507  16.1507  16.2724  16.2724
    16.2724  16.2969  16.2969  16.2969  16.3303  16.3303  16.3303  16.3425
    16.3425  16.3425  16.4248  16.5138  16.5138  16.5138  16.5206  16.5206
    16.5254  16.5254  16.6040  16.6040  16.6040  16.7198  16.8849  16.8849
    16.8849  16.9564  16.9564  16.9564  16.9735  16.9735  16.9735  17.0039
    17.0827  17.0827  17.1693  17.1693  17.1693  17.2074  17.2550  17.2550
    17.2550  17.3499  17.3499  17.3499  17.4678  17.4678  17.4678  17.4877
    17.4877  17.4877  17.5452  17.5452  17.5732  17.5732  17.5732  17.6019
    17.6019  17.6019  17.7096  17.7096  17.9799  17.9799  17.9799  18.3163
    18.3163  18.3402  18.3402  18.3402  18.4401  18.4519  18.4519  18.4519
    18.4780  18.4780  18.5052  18.5052  18.5052  18.5211  18.5211  18.5211
    18.5216  18.5216  18.5216  18.5850  18.5850  18.5850  18.8989  18.8989
    18.9573  21.6452  21.6452  21.6452  21.6614  21.6614  21.6614  21.8089
    21.8298  21.8298  21.8298  21.8715  21.8715  21.8715  22.0464  22.0464
    22.0464  22.1056  22.1056  22.1056  22.1249  22.1249  22.4161  22.4161
    22.5279  25.9746  25.9746  25.9746  26.7758  26.8531  26.8531  26.8531
    27.1686  27.1686  27.1686  27.3504  27.3504  27.3504  27.3607  27.3607
    27.3607  27.4283  27.4283  27.7034  27.7034  27.9618  27.9743  27.9743
    27.9743  31.4974  31.7159  31.7162

     the Fermi energy is    18.6467 ev

!    total energy              =  -16896.70810861 Ry

     total all-electron energy =   -333037.588494 Ry
     estimated scf accuracy    <          2.3E-09 Ry
     smearing contrib. (-TS)   =       0.07701921 Ry
     internal energy E=F+TS    =  -16896.78512782 Ry

     The total energy is F=E-TS. E is the sum of the following terms:
     one-electron contribution =   -2701.09456117 Ry
     hartree contribution      =    1768.08811165 Ry
     xc contribution           =   -1017.22068779 Ry
     ewald contribution        =   -6523.91544472 Ry
     one-center paw contrib.   =   -8422.64254578 Ry

     convergence has been achieved in  27 iterations

     Forces acting on atoms (cartesian axes, Ry/au):

     atom    1 type  1   force =     0.00000000    0.00000000    0.00000000
     atom    2 type  1   force =     0.00000250    0.00000250    0.00000250
     atom    3 type  1   force =    -0.00000000    0.00000000   -0.00024275
     atom    4 type  1   force =    -0.00000000   -0.00024275   -0.00000000
     atom    5 type  1   force =    -0.00024275   -0.00000000    0.00000000
     atom    6 type  1   force =     0.00000250    0.00000250   -0.00000250
     atom    7 type  1   force =    -0.00000000    0.00000000    0.00024275
     atom    8 type  1   force =     0.00000000    0.00009625    0.00000000
     atom    9 type  1   force =     0.00009625    0.00000000    0.00000000
     atom   10 type  1   force =     0.00000250   -0.00000250    0.00000250
     atom   11 type  1   force =     0.00000000   -0.00000000    0.00009625
     atom   12 type  1   force =     0.00000000    0.00024275    0.00000000
     atom   13 type  1   force =     0.00009625    0.00000000   -0.00000000
     atom   14 type  1   force =     0.00000250   -0.00000250   -0.00000250
     atom   15 type  1   force =     0.00000000   -0.00000000   -0.00009625
     atom   16 type  1   force =     0.00000000   -0.00009625    0.00000000
     atom   17 type  1   force =    -0.00001395    0.00000000    0.00000000
     atom   18 type  1   force =    -0.00000250    0.00000250    0.00000250
     atom   19 type  1   force =    -0.00000000   -0.00000000    0.00009625
     atom   20 type  1   force =     0.00000000    0.00009625   -0.00000000
     atom   21 type  1   force =     0.00024275   -0.00000000    0.00000000
     atom   22 type  1   force =    -0.00000250    0.00000250   -0.00000250
     atom   23 type  1   force =    -0.00000000    0.00000000   -0.00009625
     atom   24 type  1   force =    -0.00000000   -0.00001395   -0.00000000
     atom   25 type  1   force =    -0.00009625    0.00000000   -0.00000000
     atom   26 type  1   force =    -0.00000250   -0.00000250    0.00000250
     atom   27 type  1   force =     0.00000000    0.00000000   -0.00001395
     atom   28 type  1   force =     0.00000000   -0.00009625    0.00000000
     atom   29 type  1   force =    -0.00009625    0.00000000    0.00000000
     atom   30 type  1   force =    -0.00000250   -0.00000250   -0.00000250
     atom   31 type  1   force =     0.00000000    0.00000000    0.00001395
     atom   32 type  1   force =    -0.00000000    0.00001395   -0.00000000
     atom   33 type  1   force =     0.00001395    0.00000000    0.00000000

     Total force =     0.000683     Total SCF correction =     0.000182
     SCF correction compared to forces is large: reduce conv_thr to get better values


     Computing stress (Cartesian axis) and pressure

          total   stress  (Ry/bohr**3)                   (kbar)     P=        2.66
   0.00001807   0.00000000   0.00000000            2.66        0.00        0.00
   0.00000000   0.00001807   0.00000000            0.00        2.66        0.00
   0.00000000   0.00000000   0.00001807            0.00        0.00        2.66


     Writing output data file /scratch/pdocta2.save/
 
     init_run     :     24.73s CPU     25.36s WALL (       2 calls)
     electrons    :   8672.86s CPU   8848.48s WALL (      14 calls)
     update_pot   :      4.90s CPU      5.00s WALL (      12 calls)
     forces       :     91.00s CPU     91.87s WALL (      14 calls)
     stress       :    612.56s CPU    617.28s WALL (      14 calls)

     Called by init_run:
     wfcinit      :     23.11s CPU     23.58s WALL (       2 calls)
     potinit      :      0.43s CPU      0.46s WALL (       2 calls)
     hinit0       :      0.80s CPU      0.80s WALL (       2 calls)

     Called by electrons:
     c_bands      :   7733.84s CPU   7889.20s WALL (     214 calls)
     sum_band     :    911.50s CPU    926.63s WALL (     214 calls)
     v_of_rho     :      3.17s CPU      3.34s WALL (     226 calls)
     newd         :      5.29s CPU      7.75s WALL (     226 calls)
     PAW_pot      :     19.75s CPU     20.86s WALL (     238 calls)
     mix_rho      :      1.01s CPU      1.11s WALL (     214 calls)

     Called by c_bands:
     init_us_2    :     38.83s CPU     39.35s WALL (   16450 calls)
     cegterg      :   7600.26s CPU   7683.00s WALL (    7490 calls)

     Called by *egterg:
     cdiaghg      :    839.71s CPU    844.99s WALL (   25292 calls)
     h_psi        :   3970.12s CPU   4029.03s WALL (   25852 calls)
     s_psi        :    333.76s CPU    335.95s WALL (   25852 calls)
     g_psi        :      9.03s CPU      9.18s WALL (   18292 calls)

     Called by h_psi:
     h_psi:calbec :    613.18s CPU    617.63s WALL (   25852 calls)
     vloc_psi     :   3004.46s CPU   3052.36s WALL (   25852 calls)
     add_vuspsi   :    329.03s CPU    335.34s WALL (   25852 calls)

     General routines
     calbec       :   1052.88s CPU   1060.39s WALL (   36212 calls)
     fft          :      3.48s CPU      3.57s WALL (    3274 calls)
     ffts         :      0.29s CPU      0.30s WALL (     440 calls)
     fftw         :   3474.76s CPU   3530.09s WALL (16097748 calls)
     interpolate  :      0.42s CPU      0.44s WALL (     226 calls)
 
     Parallel routines
     fft_scatt_xy :    289.25s CPU    293.82s WALL (16101462 calls)
     fft_scatt_yz :   2675.17s CPU   2718.49s WALL (16101462 calls)
 
     PWSCF        :      2h37m CPU      2h40m WALL

 
   This run was terminated on:   3:27:44   4Jan2022            

=------------------------------------------------------------------------------=
   JOB DONE.
=------------------------------------------------------------------------------=
