
     Program PWSCF v.6.7MaX starts on  4Jan2022 at  5:57:13 

     This program is part of the open-source Quantum ESPRESSO suite
     for quantum simulation of materials; please cite
         "P. Giannozzi et al., J. Phys.:Condens. Matter 21 395502 (2009);
         "P. Giannozzi et al., J. Phys.:Condens. Matter 29 465901 (2017);
          URL http://www.quantum-espresso.org", 
     in publications or presentations arising from this work. More details at
     http://www.quantum-espresso.org/quote

     Parallel version (MPI & OpenMP), running on      72 processor cores
     Number of MPI processes:                72
     Threads/MPI process:                     1

     MPI processes distributed on     1 nodes
     R & G space division:  proc/nbgrp/npool/nimage =      72
     Reading input from pd_vacancy_2.in

     Current dimensions of program PWSCF are:
     Max number of different atomic species (ntypx) = 10
     Max number of k-points (npk) =  40000
     Max angular momentum in pseudopotentials (lmaxx) =  3
     file Pd.pbe-spn-kjpaw_psl.1.0.0.UPF: wavefunction(s)  4S 5S 4D renormalized

     Subspace diagonalization in iterative solution of the eigenvalue problem:
     one sub-group per band group will be used
     ELPA distributed-memory algorithm (size of sub-group:  8*  8 procs)

     Message from routine setup:
     using ibrav=0 with symmetry is DISCOURAGED, use correct ibrav instead
 
     Parallelization info
     --------------------
     sticks:   dense  smooth     PW     G-vecs:    dense   smooth      PW
     Min          98      65     17                 6240     3351     475
     Max          99      66     18                 6245     3355     482
     Sum        7113    4693   1281               449479   241377   34457
 


     bravais-lattice index     =            0
     lattice parameter (alat)  =      14.4007  a.u.
     unit-cell volume          =    2986.4454 (a.u.)^3
     number of atoms/cell      =           31
     number of atomic types    =            1
     number of electrons       =       558.00
     number of Kohn-Sham states=          335
     kinetic-energy cutoff     =      71.0000  Ry
     charge density cutoff     =     430.0000  Ry
     scf convergence threshold =      1.0E-06
     mixing beta               =       0.1000
     number of iterations used =           10  TF        mixing
     energy convergence thresh.=      1.0E-04
     force convergence thresh. =      1.0E-03
     press convergence thresh. =      5.0E-01
     Exchange-correlation= SLA  PW   PBX  PBC
                           (   1   4   3   4   0   0   0)
     nstep                     =           40


     celldm(1)=  14.400742  celldm(2)=   0.000000  celldm(3)=   0.000000
     celldm(4)=   0.000000  celldm(5)=   0.000000  celldm(6)=   0.000000

     crystal axes: (cart. coord. in units of alat)
               a(1) = (   1.000000   0.000000   0.000000 )  
               a(2) = (   0.000000   1.000000   0.000000 )  
               a(3) = (   0.000000   0.000000   1.000000 )  

     reciprocal axes: (cart. coord. in units 2 pi/alat)
               b(1) = (  1.000000  0.000000  0.000000 )  
               b(2) = (  0.000000  1.000000  0.000000 )  
               b(3) = (  0.000000  0.000000  1.000000 )  


     PseudoPot. # 1 for Pd read from file:
     /rds/homes/b/bxp912/pp/Pd.pbe-spn-kjpaw_psl.1.0.0.UPF
     MD5 check sum: 790f2ebce206edfd9790dcb9844eca51
     Pseudo is Projector augmented-wave + core cor, Zval = 18.0
     Generated using &quot;atomic&quot; code by A. Dal Corso  v.6.3
     Shape of augmentation charge: PSQ
     Using radial grid of 1235 points,  6 beta functions with: 
                l(1) =   0
                l(2) =   0
                l(3) =   1
                l(4) =   1
                l(5) =   2
                l(6) =   2
     Q(r) pseudized with 0 coefficients 


     atomic species   valence    mass     pseudopotential
        Pd            18.00   106.42000     Pd( 1.00)

     48 Sym. Ops., with inversion, found



   Cartesian axes

     site n.     atom                  positions (alat units)
         1           Pd  tau(   1) = (   0.2500000   0.2500000   0.0000000  )
         2           Pd  tau(   2) = (   0.2500000   0.0000000   0.2500000  )
         3           Pd  tau(   3) = (   0.0000000   0.2500000   0.2500000  )
         4           Pd  tau(   4) = (   0.0000000   0.0000000   0.5000000  )
         5           Pd  tau(   5) = (   0.2500000   0.2500000   0.5000000  )
         6           Pd  tau(   6) = (   0.2500000   0.0000000   0.7500000  )
         7           Pd  tau(   7) = (   0.0000000   0.2500000   0.7500000  )
         8           Pd  tau(   8) = (   0.0000000   0.5000000   0.0000000  )
         9           Pd  tau(   9) = (   0.2500000   0.7500000   0.0000000  )
        10           Pd  tau(  10) = (   0.2500000   0.5000000   0.2500000  )
        11           Pd  tau(  11) = (   0.0000000   0.7500000   0.2500000  )
        12           Pd  tau(  12) = (   0.0000000   0.5000000   0.5000000  )
        13           Pd  tau(  13) = (   0.2500000   0.7500000   0.5000000  )
        14           Pd  tau(  14) = (   0.2500000   0.5000000   0.7500000  )
        15           Pd  tau(  15) = (   0.0000000   0.7500000   0.7500000  )
        16           Pd  tau(  16) = (   0.5000000   0.0000000   0.0000000  )
        17           Pd  tau(  17) = (   0.7500000   0.2500000   0.0000000  )
        18           Pd  tau(  18) = (   0.7500000   0.0000000   0.2500000  )
        19           Pd  tau(  19) = (   0.5000000   0.2500000   0.2500000  )
        20           Pd  tau(  20) = (   0.5000000   0.0000000   0.5000000  )
        21           Pd  tau(  21) = (   0.7500000   0.2500000   0.5000000  )
        22           Pd  tau(  22) = (   0.7500000   0.0000000   0.7500000  )
        23           Pd  tau(  23) = (   0.5000000   0.2500000   0.7500000  )
        24           Pd  tau(  24) = (   0.5000000   0.5000000   0.0000000  )
        25           Pd  tau(  25) = (   0.7500000   0.7500000   0.0000000  )
        26           Pd  tau(  26) = (   0.7500000   0.5000000   0.2500000  )
        27           Pd  tau(  27) = (   0.5000000   0.7500000   0.2500000  )
        28           Pd  tau(  28) = (   0.5000000   0.5000000   0.5000000  )
        29           Pd  tau(  29) = (   0.7500000   0.7500000   0.5000000  )
        30           Pd  tau(  30) = (   0.7500000   0.5000000   0.7500000  )
        31           Pd  tau(  31) = (   0.5000000   0.7500000   0.7500000  )

     number of k points=    35  Marzari-Vanderbilt smearing, width (Ry)=  0.0400
                       cart. coord. in units 2pi/alat
        k(    1) = (   0.0555556   0.0555556   0.0555556), wk =   0.0219479
        k(    2) = (   0.0555556   0.0555556   0.1666667), wk =   0.0658436
        k(    3) = (   0.0555556   0.0555556   0.2777778), wk =   0.0658436
        k(    4) = (   0.0555556   0.0555556   0.3888889), wk =   0.0658436
        k(    5) = (   0.0555556   0.0555556  -0.5000000), wk =   0.0329218
        k(    6) = (   0.0555556   0.1666667   0.1666667), wk =   0.0658436
        k(    7) = (   0.0555556   0.1666667   0.2777778), wk =   0.1316872
        k(    8) = (   0.0555556   0.1666667   0.3888889), wk =   0.1316872
        k(    9) = (   0.0555556   0.1666667  -0.5000000), wk =   0.0658436
        k(   10) = (   0.0555556   0.2777778   0.2777778), wk =   0.0658436
        k(   11) = (   0.0555556   0.2777778   0.3888889), wk =   0.1316872
        k(   12) = (   0.0555556   0.2777778  -0.5000000), wk =   0.0658436
        k(   13) = (   0.0555556   0.3888889   0.3888889), wk =   0.0658436
        k(   14) = (   0.0555556   0.3888889  -0.5000000), wk =   0.0658436
        k(   15) = (   0.0555556  -0.5000000  -0.5000000), wk =   0.0164609
        k(   16) = (   0.1666667   0.1666667   0.1666667), wk =   0.0219479
        k(   17) = (   0.1666667   0.1666667   0.2777778), wk =   0.0658436
        k(   18) = (   0.1666667   0.1666667   0.3888889), wk =   0.0658436
        k(   19) = (   0.1666667   0.1666667  -0.5000000), wk =   0.0329218
        k(   20) = (   0.1666667   0.2777778   0.2777778), wk =   0.0658436
        k(   21) = (   0.1666667   0.2777778   0.3888889), wk =   0.1316872
        k(   22) = (   0.1666667   0.2777778  -0.5000000), wk =   0.0658436
        k(   23) = (   0.1666667   0.3888889   0.3888889), wk =   0.0658436
        k(   24) = (   0.1666667   0.3888889  -0.5000000), wk =   0.0658436
        k(   25) = (   0.1666667  -0.5000000  -0.5000000), wk =   0.0164609
        k(   26) = (   0.2777778   0.2777778   0.2777778), wk =   0.0219479
        k(   27) = (   0.2777778   0.2777778   0.3888889), wk =   0.0658436
        k(   28) = (   0.2777778   0.2777778  -0.5000000), wk =   0.0329218
        k(   29) = (   0.2777778   0.3888889   0.3888889), wk =   0.0658436
        k(   30) = (   0.2777778   0.3888889  -0.5000000), wk =   0.0658436
        k(   31) = (   0.2777778  -0.5000000  -0.5000000), wk =   0.0164609
        k(   32) = (   0.3888889   0.3888889   0.3888889), wk =   0.0219479
        k(   33) = (   0.3888889   0.3888889  -0.5000000), wk =   0.0329218
        k(   34) = (   0.3888889  -0.5000000  -0.5000000), wk =   0.0164609
        k(   35) = (  -0.5000000  -0.5000000  -0.5000000), wk =   0.0027435

     Dense  grid:   449479 G-vectors     FFT dimensions: (  96,  96,  96)

     Smooth grid:   241377 G-vectors     FFT dimensions: (  80,  80,  80)

     Estimated max dynamical RAM per process >     114.79 MB

     Estimated total dynamical RAM >       8.07 GB

     Check: negative core charge=   -0.000001

     Initial potential from superposition of free atoms

     starting charge  557.98814, renormalised to  558.00000
     Starting wfcs are  310 randomized atomic wfcs +   25 random wfcs
     Checking if some PAW data can be deallocated... 

     total cpu time spent up to now is       13.1 secs

     Self-consistent Calculation

     iteration #  1     ecut=    71.00 Ry     beta= 0.10
     Davidson diagonalization with overlap
     ethr =  1.00E-02,  avg # of iterations =  3.0

     Threshold (ethr) on eigenvalues was too large:
     Diagonalizing with lowered threshold

     Davidson diagonalization with overlap
     ethr =  8.85E-05,  avg # of iterations =  5.2

     total cpu time spent up to now is       85.1 secs

     total energy              =  -15872.75491547 Ry
     estimated scf accuracy    <       0.47013927 Ry

     iteration #  2     ecut=    71.00 Ry     beta= 0.10
     Davidson diagonalization with overlap
     ethr =  8.43E-05,  avg # of iterations =  1.1

     total cpu time spent up to now is      111.6 secs

     total energy              =  -15872.63493856 Ry
     estimated scf accuracy    <       0.36939842 Ry

     iteration #  3     ecut=    71.00 Ry     beta= 0.10
     Davidson diagonalization with overlap
     ethr =  6.62E-05,  avg # of iterations =  3.4

     total cpu time spent up to now is      145.9 secs

     total energy              =  -15872.67532386 Ry
     estimated scf accuracy    <       0.06068559 Ry

     iteration #  4     ecut=    71.00 Ry     beta= 0.10
     Davidson diagonalization with overlap
     c_bands:  1 eigenvalues not converged
     ethr =  1.09E-05,  avg # of iterations =  8.4

     total cpu time spent up to now is      180.5 secs

     total energy              =  -15872.66917845 Ry
     estimated scf accuracy    <       0.04418868 Ry

     iteration #  5     ecut=    71.00 Ry     beta= 0.10
     Davidson diagonalization with overlap
     ethr =  7.92E-06,  avg # of iterations =  1.9

     total cpu time spent up to now is      209.1 secs

     total energy              =  -15872.66395618 Ry
     estimated scf accuracy    <       0.02647380 Ry

     iteration #  6     ecut=    71.00 Ry     beta= 0.10
     Davidson diagonalization with overlap
     ethr =  4.74E-06,  avg # of iterations =  5.0

     total cpu time spent up to now is      241.6 secs

     total energy              =  -15872.66537935 Ry
     estimated scf accuracy    <       0.00739215 Ry

     iteration #  7     ecut=    71.00 Ry     beta= 0.10
     Davidson diagonalization with overlap
     ethr =  1.32E-06,  avg # of iterations =  2.0

     total cpu time spent up to now is      270.4 secs

     total energy              =  -15872.66492171 Ry
     estimated scf accuracy    <       0.00289566 Ry

     iteration #  8     ecut=    71.00 Ry     beta= 0.10
     Davidson diagonalization with overlap
     ethr =  5.19E-07,  avg # of iterations =  1.6

     total cpu time spent up to now is      297.9 secs

     total energy              =  -15872.66487857 Ry
     estimated scf accuracy    <       0.00109394 Ry

     iteration #  9     ecut=    71.00 Ry     beta= 0.10
     Davidson diagonalization with overlap
     ethr =  1.96E-07,  avg # of iterations =  1.8

     total cpu time spent up to now is      326.9 secs

     total energy              =  -15872.66502035 Ry
     estimated scf accuracy    <       0.00032879 Ry

     iteration # 10     ecut=    71.00 Ry     beta= 0.10
     Davidson diagonalization with overlap
     ethr =  5.89E-08,  avg # of iterations =  1.2

     total cpu time spent up to now is      354.0 secs

     total energy              =  -15872.66515499 Ry
     estimated scf accuracy    <       0.00024618 Ry

     iteration # 11     ecut=    71.00 Ry     beta= 0.10
     Davidson diagonalization with overlap
     ethr =  4.41E-08,  avg # of iterations =  2.0

     total cpu time spent up to now is      385.1 secs

     total energy              =  -15872.66518239 Ry
     estimated scf accuracy    <       0.00002390 Ry

     iteration # 12     ecut=    71.00 Ry     beta= 0.10
     Davidson diagonalization with overlap
     ethr =  4.28E-09,  avg # of iterations =  2.0

     total cpu time spent up to now is      418.7 secs

     total energy              =  -15872.66518807 Ry
     estimated scf accuracy    <       0.00002136 Ry

     iteration # 13     ecut=    71.00 Ry     beta= 0.10
     Davidson diagonalization with overlap
     ethr =  3.83E-09,  avg # of iterations =  2.0

     total cpu time spent up to now is      453.7 secs

     total energy              =  -15872.66519576 Ry
     estimated scf accuracy    <       0.00000786 Ry

     iteration # 14     ecut=    71.00 Ry     beta= 0.10
     Davidson diagonalization with overlap
     ethr =  1.41E-09,  avg # of iterations =  2.0

     total cpu time spent up to now is      485.0 secs

     total energy              =  -15872.66519916 Ry
     estimated scf accuracy    <       0.00000157 Ry

     iteration # 15     ecut=    71.00 Ry     beta= 0.10
     Davidson diagonalization with overlap
     ethr =  2.81E-10,  avg # of iterations =  2.0

     total cpu time spent up to now is      516.5 secs

     End of self-consistent calculation

          k = 0.0556 0.0556 0.0556 ( 30224 PWs)   bands (ev):

   -63.5472 -63.5214 -63.5214 -63.5213 -63.4976 -63.4966 -63.4966 -63.4960
   -63.4824 -63.4824 -63.4824 -63.4787 -63.4787 -63.4719 -63.4717 -63.4717
   -63.4529 -63.4529 -63.4503 -63.4152 -63.4122 -63.4122 -63.4115 -63.4018
   -63.4018 -63.4018 -63.3881 -63.3881 -63.3881 -63.3860 -63.3860 -29.4954
   -29.4954 -29.4939 -29.4862 -29.4456 -29.4456 -29.4452 -29.3679 -29.3679
   -29.3661 -29.3581 -29.3578 -29.3578 -29.3499 -29.3482 -29.3482 -29.3379
   -29.3379 -29.3314 -29.3266 -29.3223 -29.3223 -29.3094 -29.3094 -29.3013
   -29.2973 -29.2924 -29.2924 -29.2655 -29.2655 -29.2590 -29.2440 -29.2440
   -29.2406 -29.2138 -29.2138 -29.1996 -29.1996 -29.1914 -29.1889 -29.1889
   -29.1856 -29.1850 -29.1755 -29.1755 -29.1754 -29.1687 -29.1687 -29.1672
   -29.1516 -29.1516 -29.1501 -29.1497 -29.1497 -29.1481 -29.1397 -29.1397
   -29.1350 -29.0929 -29.0929 -29.0902 -29.0784 -29.0780 -29.0780 -29.0735
   -29.0712 -29.0712 -29.0648 -29.0637 -29.0637 -29.0608 -29.0608 -29.0607
   -29.0593 -29.0593 -29.0582 -29.0375 -29.0375 -29.0355 -29.0292 -29.0286
   -29.0286 -29.0126 -29.0122 -29.0122 -28.9796 -28.9796 -28.9699 -28.9699
   -28.9696 -28.9662 -28.9630 -28.9630  13.3473  14.9073  15.0002  15.0002
    15.0805  15.0902  15.0902  15.1150  15.3293  15.3312  15.3312  15.4286
    15.4286  15.4964  15.6045  15.6045  15.8332  16.0328  16.0770  16.0770
    16.0779  16.2572  16.2572  16.2840  16.3063  16.3063  16.4442  16.4442
    16.4839  16.5063  16.5063  16.5471  16.5498  16.5606  16.5606  16.6043
    16.6043  16.6713  16.6713  16.6730  16.8998  16.9144  16.9176  16.9176
    16.9532  16.9532  17.0309  17.0309  17.0438  17.0660  17.0660  17.0876
    17.1373  17.1525  17.1563  17.1563  17.2384  17.2384  17.2967  17.3104
    17.3667  17.3667  17.4132  17.4132  17.4284  17.4527  17.4728  17.4728
    17.5580  17.5580  17.5652  17.5960  17.5960  17.6563  17.6563  17.6601
    17.6805  17.6805  17.6891  17.6891  17.6916  17.7038  17.7161  18.0218
    18.0218  18.3769  18.3976  18.3976  18.6398  18.6398  18.6886  18.7469
    18.7566  18.7566  18.7712  18.7899  18.7899  18.8074  18.8107  18.8107
    18.8746  18.8746  18.8909  18.9729  19.0016  19.1061  19.1061  19.1258
    19.1258  19.1808  19.1808  19.2464  19.2682  19.2830  19.2830  19.3291
    19.4075  19.4075  19.4097  19.4271  19.4287  19.4287  19.4498  19.4498
    19.4805  19.4805  19.5309  19.5364  19.5364  19.5677  19.5858  19.5858
    19.6298  19.9119  19.9119  20.0806  20.1507  20.1507  20.1934  20.4179
    20.5219  20.5219  20.6041  20.6041  20.6924  20.6924  20.8056  20.8056
    20.8085  20.8518  20.8643  20.9618  20.9618  21.1094  21.1121  21.1121
    21.1522  21.1522  21.1624  21.1823  21.1861  21.1861  21.7238  22.0092
    22.1142  22.1142  22.7166  22.7166  22.8349  23.1589  23.1589  23.3473
    23.4333  23.4540  23.4540  23.8479  23.8479  24.0978  24.4554  24.4590
    24.4590  28.6073  28.6073  28.7061  28.9454  29.6038  29.6038  29.6754
    29.7170  29.7720  29.7720  30.3593  30.3593  30.4581  30.5025  30.5886
    30.5886  31.9287  31.9287  32.0637  32.1044  32.1044  32.1100  32.2594
    32.2594  32.3606  32.9238  32.9243  33.0225  33.1145  33.1646

          k = 0.0556 0.0556 0.1667 ( 30207 PWs)   bands (ev):

   -63.5462 -63.5231 -63.5213 -63.5213 -63.4977 -63.4970 -63.4964 -63.4957
   -63.4828 -63.4828 -63.4824 -63.4795 -63.4770 -63.4718 -63.4715 -63.4707
   -63.4532 -63.4531 -63.4506 -63.4165 -63.4124 -63.4122 -63.4100 -63.4018
   -63.4014 -63.4014 -63.3883 -63.3883 -63.3880 -63.3864 -63.3861 -29.4910
   -29.4902 -29.4873 -29.4801 -29.4421 -29.4419 -29.4396 -29.3804 -29.3798
   -29.3696 -29.3634 -29.3623 -29.3601 -29.3582 -29.3556 -29.3446 -29.3438
   -29.3389 -29.3368 -29.3320 -29.3281 -29.3224 -29.3138 -29.3079 -29.2979
   -29.2958 -29.2871 -29.2825 -29.2821 -29.2689 -29.2617 -29.2475 -29.2462
   -29.2275 -29.2213 -29.2156 -29.2039 -29.2019 -29.1904 -29.1873 -29.1857
   -29.1803 -29.1761 -29.1753 -29.1687 -29.1685 -29.1639 -29.1614 -29.1548
   -29.1525 -29.1524 -29.1482 -29.1445 -29.1433 -29.1374 -29.1370 -29.1369
   -29.1265 -29.0969 -29.0966 -29.0896 -29.0822 -29.0819 -29.0796 -29.0772
   -29.0736 -29.0712 -29.0674 -29.0664 -29.0657 -29.0628 -29.0625 -29.0613
   -29.0609 -29.0559 -29.0553 -29.0426 -29.0371 -29.0365 -29.0299 -29.0254
   -29.0253 -29.0140 -29.0083 -29.0081 -28.9830 -28.9813 -28.9730 -28.9716
   -28.9712 -28.9685 -28.9650 -28.9637  13.4250  14.9531  15.0273  15.0497
    15.1120  15.1284  15.1373  15.1435  15.2273  15.3587  15.3741  15.3744
    15.4811  15.5365  15.6513  15.6550  15.8390  15.9796  16.0143  16.0662
    16.1173  16.1180  16.2578  16.2609  16.2715  16.2890  16.3266  16.3281
    16.3579  16.3949  16.4032  16.4838  16.4921  16.5154  16.5209  16.5427
    16.5603  16.6112  16.6289  16.7096  16.7201  16.7512  16.8859  16.9086
    16.9182  16.9527  16.9732  17.0213  17.0434  17.0902  17.1174  17.1362
    17.1709  17.1880  17.2010  17.2224  17.2379  17.2763  17.2892  17.3473
    17.3476  17.3488  17.3791  17.4104  17.4334  17.5179  17.5321  17.5595
    17.5885  17.6031  17.6197  17.6546  17.6551  17.6663  17.6797  17.6972
    17.7071  17.7219  17.7360  17.7397  17.7968  17.8216  17.8306  18.0087
    18.0724  18.3196  18.3457  18.3971  18.4554  18.5082  18.5783  18.6076
    18.6219  18.6644  18.6707  18.7131  18.7702  18.8179  18.8213  18.8932
    18.9139  18.9221  18.9371  18.9468  19.0293  19.0855  19.0953  19.1362
    19.1607  19.2179  19.2301  19.2680  19.3025  19.3471  19.3632  19.4159
    19.4265  19.4487  19.4741  19.4806  19.4920  19.5224  19.5370  19.5416
    19.6181  19.6484  19.6562  19.6843  19.6957  19.7272  19.7362  19.7815
    19.8647  19.8850  20.0198  20.0838  20.1709  20.1764  20.2039  20.2872
    20.3109  20.3369  20.4846  20.5451  20.5993  20.6307  20.6327  20.7312
    20.7481  20.7596  20.8060  20.8203  20.9025  20.9386  20.9612  21.0290
    21.0799  21.0847  21.1034  21.1384  21.1757  21.1794  21.7503  22.1640
    22.1847  22.3483  22.3606  22.4795  22.7256  22.7641  22.8877  23.2282
    23.3919  23.8655  23.9053  23.9754  24.1124  24.4634  24.6599  24.7642
    24.7669  28.6157  28.6999  28.8648  28.9437  28.9610  28.9868  29.0195
    29.2031  29.5600  29.6763  29.8210  29.8860  30.5446  30.6568  31.1206
    31.1368  32.0437  32.0535  32.1445  32.1909  32.2955  32.3401  32.3581
    32.4373  32.4377  32.6181  32.6281  32.6981  32.7123  32.8012

          k = 0.0556 0.0556 0.2778 ( 30183 PWs)   bands (ev):

   -63.5444 -63.5261 -63.5213 -63.5212 -63.4979 -63.4972 -63.4962 -63.4954
   -63.4834 -63.4833 -63.4824 -63.4806 -63.4744 -63.4715 -63.4712 -63.4695
   -63.4539 -63.4533 -63.4510 -63.4177 -63.4126 -63.4124 -63.4082 -63.4018
   -63.4008 -63.4008 -63.3886 -63.3886 -63.3878 -63.3870 -63.3863 -29.4817
   -29.4803 -29.4752 -29.4684 -29.4357 -29.4354 -29.4283 -29.4013 -29.3999
   -29.3844 -29.3811 -29.3726 -29.3647 -29.3611 -29.3604 -29.3515 -29.3505
   -29.3425 -29.3387 -29.3363 -29.3233 -29.3208 -29.3133 -29.3119 -29.3031
   -29.2954 -29.2916 -29.2781 -29.2749 -29.2726 -29.2675 -29.2449 -29.2419
   -29.2342 -29.2309 -29.2159 -29.2150 -29.1970 -29.1926 -29.1901 -29.1822
   -29.1749 -29.1637 -29.1630 -29.1597 -29.1569 -29.1546 -29.1536 -29.1533
   -29.1518 -29.1461 -29.1380 -29.1354 -29.1326 -29.1313 -29.1299 -29.1245
   -29.1070 -29.1021 -29.1008 -29.0963 -29.0886 -29.0880 -29.0851 -29.0841
   -29.0790 -29.0742 -29.0727 -29.0714 -29.0676 -29.0665 -29.0642 -29.0580
   -29.0573 -29.0541 -29.0528 -29.0509 -29.0377 -29.0366 -29.0315 -29.0204
   -29.0199 -29.0166 -29.0021 -29.0018 -28.9929 -28.9832 -28.9791 -28.9747
   -28.9742 -28.9697 -28.9670 -28.9664  13.5775  14.7947  15.0505  15.1383
    15.1442  15.1962  15.2305  15.2352  15.2750  15.4133  15.4589  15.4592
    15.5781  15.5898  15.6540  15.7408  15.8158  15.8592  15.8693  15.9309
    16.0034  16.0353  16.1086  16.1410  16.1919  16.1955  16.2293  16.2704
    16.2783  16.3002  16.3511  16.3716  16.3872  16.4214  16.4640  16.5220
    16.5302  16.6032  16.6272  16.6668  16.7587  16.8449  16.8566  16.8797
    16.8866  16.9012  16.9201  16.9503  16.9777  17.0368  17.0786  17.0887
    17.1211  17.1688  17.2010  17.2199  17.2456  17.2740  17.3073  17.3172
    17.3535  17.3841  17.3852  17.4080  17.4213  17.4691  17.5046  17.5480
    17.5663  17.5851  17.5967  17.6294  17.6733  17.6813  17.7841  17.7857
    17.8164  17.9407  17.9544  17.9826  18.0033  18.0152  18.1069  18.1166
    18.2377  18.2443  18.2648  18.3095  18.3497  18.3915  18.4043  18.4231
    18.4317  18.4600  18.4692  18.7647  18.8053  18.8329  18.9036  18.9129
    18.9983  19.0317  19.0571  19.0798  19.0952  19.0959  19.1681  19.1816
    19.1999  19.2331  19.2333  19.2712  19.3733  19.3856  19.3996  19.4225
    19.4349  19.4950  19.5137  19.5218  19.6035  19.7053  19.7194  19.7217
    19.7529  19.7584  19.7926  19.8130  19.8836  19.8843  19.9126  19.9229
    19.9302  19.9306  19.9660  19.9889  20.0717  20.1872  20.2022  20.2675
    20.3170  20.3930  20.4081  20.4693  20.4959  20.5254  20.5557  20.5962
    20.6190  20.6405  20.6863  20.7180  20.7845  20.8178  20.8316  20.8746
    20.9285  20.9398  20.9643  21.1375  21.1756  21.1783  21.7484  21.7827
    21.9981  22.2256  22.3069  22.4939  22.6159  22.6535  22.9843  23.1676
    23.3410  23.4598  23.8318  24.5765  24.6770  25.1484  25.2810  25.2845
    25.3209  27.9864  28.0735  28.1709  28.1760  28.5904  28.7043  28.8469
    29.1204  29.2096  29.5984  30.0844  30.1485  30.7874  30.9051  31.2321
    31.6375  31.6596  31.8004  31.8594  32.0073  32.0339  32.1076  32.2030
    32.2669  32.3137  32.4186  32.4342  32.4893  32.6364  32.6402

          k = 0.0556 0.0556 0.3889 ( 30161 PWs)   bands (ev):

   -63.5423 -63.5292 -63.5212 -63.5210 -63.4981 -63.4973 -63.4960 -63.4952
   -63.4839 -63.4838 -63.4824 -63.4814 -63.4722 -63.4712 -63.4709 -63.4686
   -63.4548 -63.4536 -63.4513 -63.4184 -63.4128 -63.4126 -63.4068 -63.4018
   -63.4003 -63.4002 -63.3889 -63.3889 -63.3877 -63.3875 -63.3866 -29.4683
   -29.4667 -29.4579 -29.4522 -29.4295 -29.4289 -29.4210 -29.4201 -29.4120
   -29.4100 -29.4052 -29.3746 -29.3715 -29.3708 -29.3700 -29.3599 -29.3513
   -29.3492 -29.3368 -29.3368 -29.3293 -29.3165 -29.3141 -29.3048 -29.3017
   -29.2938 -29.2880 -29.2837 -29.2784 -29.2689 -29.2688 -29.2517 -29.2503
   -29.2298 -29.2255 -29.2254 -29.2115 -29.2037 -29.1986 -29.1924 -29.1865
   -29.1579 -29.1571 -29.1535 -29.1530 -29.1521 -29.1509 -29.1465 -29.1454
   -29.1438 -29.1319 -29.1269 -29.1266 -29.1213 -29.1207 -29.1171 -29.1134
   -29.1116 -29.1108 -29.1091 -29.0949 -29.0928 -29.0925 -29.0916 -29.0894
   -29.0830 -29.0817 -29.0788 -29.0777 -29.0696 -29.0672 -29.0633 -29.0619
   -29.0549 -29.0524 -29.0512 -29.0492 -29.0394 -29.0357 -29.0331 -29.0202
   -29.0146 -29.0144 -29.0098 -28.9954 -28.9952 -28.9847 -28.9832 -28.9778
   -28.9773 -28.9747 -28.9714 -28.9656  13.7966  14.4487  15.1706  15.2521
    15.2702  15.3177  15.3647  15.3669  15.4019  15.4832  15.5017  15.5738
    15.5746  15.6273  15.6563  15.6712  15.7165  15.7565  15.7990  15.8037
    15.8303  15.9433  15.9446  15.9894  16.0340  16.0541  16.1125  16.2275
    16.2547  16.3138  16.3423  16.3728  16.4087  16.4474  16.4604  16.5206
    16.5383  16.6184  16.6188  16.6486  16.7211  16.7523  16.7704  16.8125
    16.8482  16.8508  16.8977  16.9055  16.9661  16.9941  17.0040  17.0694
    17.0915  17.1495  17.1766  17.2129  17.2375  17.2761  17.3211  17.3606
    17.3751  17.3866  17.3924  17.4297  17.4373  17.4514  17.4629  17.5082
    17.5489  17.5830  17.6291  17.6610  17.7318  17.7431  17.8829  17.8882
    17.9266  17.9362  17.9588  17.9744  18.0104  18.0775  18.0859  18.1155
    18.1230  18.2125  18.2183  18.2615  18.2662  18.4985  18.5033  18.5456
    18.6338  18.6790  18.6852  18.7431  18.8962  18.8965  18.9257  18.9596
    19.0855  19.1305  19.1528  19.1604  19.1828  19.2037  19.2092  19.2305
    19.2380  19.2502  19.2590  19.3076  19.3355  19.3528  19.4007  19.4030
    19.4216  19.4226  19.4683  19.4755  19.5181  19.5401  19.5568  19.5914
    19.6434  19.6883  19.6937  19.9037  19.9267  19.9503  19.9522  20.0092
    20.0597  20.0788  20.1408  20.1453  20.1635  20.1990  20.2199  20.3177
    20.3309  20.3970  20.4330  20.4398  20.5106  20.5651  20.5674  20.5704
    20.6003  20.6362  20.6635  20.6735  20.6839  20.7177  20.7791  20.8624
    20.8889  20.9281  21.0898  21.1374  21.1759  21.1778  21.3317  21.3764
    21.7587  21.8535  22.1956  22.5308  22.5654  22.8228  22.8499  23.0889
    23.2565  23.3355  23.7334  25.3252  25.4165  25.8927  25.9090  25.9219
    26.0537  27.0681  27.1578  27.4256  27.4285  27.6471  27.7761  29.1864
    29.5706  29.6671  30.1120  30.4309  30.4560  30.5182  30.9348  30.9902
    31.1324  31.2501  31.5128  31.5328  31.5400  31.9538  31.9861  32.1023
    32.1491  32.1990  32.2352  32.4619  32.5958  32.6282  32.6724

          k = 0.0556 0.0556-0.5000 ( 30178 PWs)   bands (ev):

   -63.5412 -63.5307 -63.5212 -63.5210 -63.4981 -63.4973 -63.4960 -63.4951
   -63.4841 -63.4840 -63.4824 -63.4817 -63.4715 -63.4712 -63.4706 -63.4682
   -63.4552 -63.4537 -63.4513 -63.4187 -63.4129 -63.4127 -63.4062 -63.4018
   -63.4000 -63.4000 -63.3891 -63.3891 -63.3879 -63.3874 -63.3868 -29.4569
   -29.4562 -29.4431 -29.4392 -29.4352 -29.4343 -29.4298 -29.4255 -29.4229
   -29.4202 -29.3949 -29.3872 -29.3770 -29.3764 -29.3749 -29.3640 -29.3479
   -29.3460 -29.3402 -29.3389 -29.3325 -29.3126 -29.3061 -29.3053 -29.3044
   -29.2951 -29.2875 -29.2808 -29.2769 -29.2682 -29.2666 -29.2610 -29.2594
   -29.2306 -29.2169 -29.2153 -29.2143 -29.2083 -29.2083 -29.1930 -29.1894
   -29.1561 -29.1533 -29.1515 -29.1510 -29.1503 -29.1441 -29.1427 -29.1340
   -29.1330 -29.1264 -29.1264 -29.1248 -29.1199 -29.1174 -29.1170 -29.1150
   -29.1118 -29.1046 -29.1041 -29.1017 -29.1003 -29.0983 -29.0939 -29.0926
   -29.0873 -29.0813 -29.0803 -29.0784 -29.0747 -29.0671 -29.0655 -29.0563
   -29.0545 -29.0530 -29.0496 -29.0407 -29.0406 -29.0350 -29.0342 -29.0255
   -29.0213 -29.0120 -29.0114 -28.9921 -28.9917 -28.9854 -28.9848 -28.9791
   -28.9786 -28.9783 -28.9738 -28.9654  14.0035  14.1947  15.2618  15.3569
    15.3598  15.4008  15.4707  15.4751  15.4831  15.5092  15.5127  15.5255
    15.5305  15.5703  15.5904  15.5913  15.6564  15.7045  15.7054  15.8161
    15.8409  15.8610  15.9139  15.9639  15.9709  16.0518  16.0704  16.1143
    16.1581  16.3698  16.3837  16.3912  16.4648  16.4733  16.4922  16.5211
    16.5587  16.5877  16.6009  16.6524  16.6556  16.6835  16.7314  16.7666
    16.8015  16.8755  16.8765  16.9095  16.9186  16.9483  16.9779  17.0616
    17.1237  17.1707  17.1746  17.2197  17.2646  17.3059  17.3103  17.3393
    17.3413  17.3952  17.4060  17.4086  17.4158  17.4554  17.4661  17.5140
    17.5284  17.5782  17.7541  17.7905  17.7959  17.8168  17.8296  17.8531
    17.8612  17.8770  17.9806  17.9996  18.0182  18.0355  18.0542  18.0734
    18.0815  18.0865  18.1034  18.1219  18.2949  18.6795  18.6810  18.7229
    18.9061  18.9172  18.9212  18.9289  18.9393  19.0124  19.0269  19.0293
    19.0606  19.0628  19.0760  19.1049  19.1411  19.1789  19.2015  19.2031
    19.2177  19.2603  19.2796  19.2817  19.2868  19.3059  19.3111  19.3269
    19.3503  19.3721  19.3735  19.4128  19.4244  19.5146  19.5275  19.5391
    19.5558  19.5859  19.6593  19.7514  19.7658  20.0446  20.0634  20.1718
    20.2059  20.2093  20.2665  20.2821  20.2925  20.3478  20.3588  20.3633
    20.3676  20.3863  20.4081  20.4100  20.4182  20.4310  20.4745  20.4779
    20.5116  20.5176  20.5193  20.5970  20.6365  20.8417  20.9121  20.9127
    20.9213  21.0097  21.1373  21.1760  21.1776  21.3102  21.3351  21.3355
    21.4362  21.7555  21.9154  22.3822  22.4142  22.8580  22.9747  23.0227
    23.1853  23.5528  23.5893  26.0674  26.1572  26.1949  26.2511  26.4930
    26.5081  26.7189  26.7533  26.7736  26.8903  26.9239  26.9551  29.6680
    29.7557  30.0622  30.2232  30.3125  30.3152  30.7301  30.7879  30.9288
    30.9330  30.9912  31.0431  31.5786  31.6080  31.6707  31.7829  32.0683
    32.0835  32.1130  32.2299  32.6965  32.7706  32.7799  32.7860

          k = 0.0556 0.1667 0.1667 ( 30215 PWs)   bands (ev):

   -63.5453 -63.5232 -63.5227 -63.5213 -63.4978 -63.4978 -63.4966 -63.4952
   -63.4830 -63.4828 -63.4828 -63.4786 -63.4766 -63.4716 -63.4710 -63.4704
   -63.4534 -63.4533 -63.4510 -63.4177 -63.4125 -63.4112 -63.4097 -63.4014
   -63.4014 -63.4009 -63.3885 -63.3883 -63.3881 -63.3866 -63.3864 -29.4878
   -29.4861 -29.4803 -29.4730 -29.4385 -29.4377 -29.4352 -29.3861 -29.3839
   -29.3788 -29.3722 -29.3676 -29.3626 -29.3581 -29.3560 -29.3505 -29.3503
   -29.3439 -29.3437 -29.3393 -29.3352 -29.3231 -29.3115 -29.3078 -29.2989
   -29.2923 -29.2853 -29.2845 -29.2784 -29.2730 -29.2656 -29.2503 -29.2397
   -29.2274 -29.2147 -29.2097 -29.2016 -29.1972 -29.1961 -29.1878 -29.1842
   -29.1826 -29.1786 -29.1719 -29.1662 -29.1626 -29.1604 -29.1556 -29.1535
   -29.1504 -29.1462 -29.1442 -29.1364 -29.1353 -29.1339 -29.1338 -29.1307
   -29.1270 -29.0991 -29.0989 -29.0914 -29.0857 -29.0835 -29.0815 -29.0814
   -29.0748 -29.0724 -29.0707 -29.0685 -29.0667 -29.0663 -29.0641 -29.0608
   -29.0594 -29.0590 -29.0519 -29.0434 -29.0396 -29.0376 -29.0286 -29.0256
   -29.0204 -29.0106 -29.0090 -29.0046 -28.9856 -28.9840 -28.9807 -28.9731
   -28.9712 -28.9692 -28.9665 -28.9620  13.5016  14.9991  15.0665  15.0827
    15.1326  15.1664  15.1914  15.1983  15.2103  15.3249  15.3967  15.4077
    15.4201  15.5567  15.6942  15.7016  15.8393  15.9903  16.0154  16.0302
    16.0747  16.0986  16.1509  16.1582  16.1820  16.2279  16.2506  16.2782
    16.3266  16.3281  16.3684  16.3994  16.4049  16.4298  16.4624  16.5410
    16.5697  16.5731  16.5874  16.6571  16.6747  16.7423  16.7530  16.8194
    16.8510  16.9421  16.9648  17.0228  17.0686  17.1042  17.1290  17.1453
    17.1873  17.2183  17.2279  17.2395  17.2470  17.2575  17.3194  17.3633
    17.3984  17.4117  17.4801  17.5281  17.5371  17.5511  17.5633  17.5902
    17.6109  17.6479  17.6636  17.6733  17.6819  17.7099  17.7151  17.7320
    17.7718  17.7744  17.7832  17.7946  17.8008  17.8234  17.8421  18.0366
    18.0459  18.2596  18.3129  18.3902  18.4003  18.4011  18.5276  18.5753
    18.5878  18.6477  18.6739  18.7433  18.7644  18.7866  18.7880  18.8046
    18.8301  18.8999  18.9562  18.9780  19.0178  19.0741  19.0770  19.1059
    19.1086  19.1559  19.2511  19.3316  19.3593  19.4217  19.4601  19.4640
    19.4667  19.4893  19.5026  19.5326  19.5440  19.5813  19.6045  19.6087
    19.6754  19.6820  19.7980  19.8305  19.8587  19.8732  19.8984  19.9240
    19.9275  19.9512  20.0079  20.0485  20.0799  20.0925  20.1166  20.2320
    20.2819  20.4200  20.4539  20.5521  20.5613  20.5694  20.5750  20.6029
    20.6560  20.7596  20.7730  20.8023  20.8370  20.8875  20.9301  20.9347
    21.0250  21.0679  21.0735  21.0888  21.1025  21.1232  21.4686  21.7748
    22.1737  22.1798  22.2682  22.6771  22.7545  22.8916  22.9132  23.3284
    23.4874  23.8459  24.0094  24.3668  24.3748  24.4798  24.6022  25.0439
    25.1844  28.2713  28.3113  28.5757  28.7439  28.9789  29.0105  29.1027
    29.1361  29.2488  29.5762  29.7254  29.8152  30.1231  30.2934  31.2270
    31.2526  31.6227  31.6290  31.9863  32.1478  32.1666  32.2060  32.3243
    32.3596  32.5173  32.5802  32.7285  32.7678  33.0283  33.0745

          k = 0.0556 0.1667 0.2778 ( 30157 PWs)   bands (ev):

   -63.5435 -63.5258 -63.5226 -63.5213 -63.4985 -63.4979 -63.4968 -63.4949
   -63.4834 -63.4831 -63.4828 -63.4790 -63.4745 -63.4713 -63.4706 -63.4695
   -63.4540 -63.4536 -63.4514 -63.4188 -63.4128 -63.4110 -63.4083 -63.4014
   -63.4008 -63.4003 -63.3888 -63.3886 -63.3880 -63.3872 -63.3866 -29.4800
   -29.4775 -29.4679 -29.4602 -29.4321 -29.4313 -29.4251 -29.4041 -29.4003
   -29.3845 -29.3813 -29.3764 -29.3722 -29.3711 -29.3619 -29.3559 -29.3544
   -29.3484 -29.3465 -29.3418 -29.3401 -29.3228 -29.3202 -29.3057 -29.3041
   -29.2990 -29.2883 -29.2764 -29.2722 -29.2687 -29.2624 -29.2456 -29.2386
   -29.2282 -29.2177 -29.2121 -29.2081 -29.2024 -29.1897 -29.1879 -29.1802
   -29.1752 -29.1703 -29.1638 -29.1582 -29.1564 -29.1556 -29.1548 -29.1534
   -29.1455 -29.1400 -29.1366 -29.1299 -29.1297 -29.1267 -29.1232 -29.1176
   -29.1145 -29.1025 -29.1012 -29.0995 -29.0917 -29.0890 -29.0882 -29.0859
   -29.0786 -29.0753 -29.0739 -29.0720 -29.0704 -29.0696 -29.0665 -29.0620
   -29.0572 -29.0558 -29.0510 -29.0483 -29.0392 -29.0380 -29.0301 -29.0220
   -29.0137 -29.0121 -29.0033 -29.0001 -28.9968 -28.9861 -28.9850 -28.9757
   -28.9735 -28.9706 -28.9679 -28.9623  13.6519  14.8500  15.0919  15.1684
    15.1802  15.2042  15.2541  15.2927  15.3073  15.3849  15.4543  15.4878
    15.5065  15.6157  15.6697  15.7647  15.8289  15.8615  15.8810  15.9350
    15.9491  16.0116  16.0447  16.0660  16.0986  16.1443  16.1800  16.2032
    16.2292  16.2469  16.2842  16.2970  16.3482  16.3766  16.4402  16.4859
    16.5045  16.5406  16.6203  16.6465  16.6615  16.7521  16.7859  16.7901
    16.8517  16.8857  16.9282  16.9398  16.9973  17.0372  17.0577  17.1182
    17.1619  17.1834  17.2219  17.2351  17.2491  17.3121  17.3601  17.4039
    17.4172  17.4574  17.4631  17.4933  17.5298  17.5580  17.5762  17.5774
    17.6410  17.6746  17.6907  17.7145  17.7582  17.7840  17.8013  17.8362
    17.8483  17.8843  17.9110  17.9433  17.9925  18.0289  18.0497  18.0684
    18.1580  18.2162  18.2477  18.2757  18.3561  18.3959  18.4103  18.4275
    18.4999  18.5233  18.5770  18.6172  18.6782  18.7442  18.7735  18.8033
    18.9118  18.9466  18.9760  19.0092  19.0554  19.1132  19.1334  19.1596
    19.2180  19.2738  19.3083  19.3813  19.3912  19.4347  19.4496  19.4880
    19.5023  19.5336  19.5616  19.6298  19.6409  19.6558  19.6713  19.6912
    19.7194  19.7318  19.7724  19.7912  19.8743  19.9086  19.9379  19.9881
    19.9962  20.0199  20.0688  20.0841  20.0927  20.1156  20.1998  20.2246
    20.2347  20.3154  20.4087  20.4511  20.4881  20.5276  20.5788  20.6384
    20.6659  20.7079  20.7702  20.7842  20.8101  20.8432  20.8588  20.9056
    20.9191  20.9435  20.9518  21.0608  21.0941  21.1021  21.3421  21.5458
    21.7573  22.1421  22.2078  22.2906  22.6814  22.8679  23.1981  23.3904
    23.7522  23.8829  24.0924  24.4449  24.6437  24.9077  25.2180  25.5265
    25.8411  27.4365  27.6217  28.1037  28.3109  28.6335  28.6710  28.8625
    29.1867  29.4009  29.4570  29.6012  29.9725  30.0899  30.6890  30.7755
    31.0855  31.2496  31.3749  31.5488  31.6738  31.8571  32.1505  32.3134
    32.3843  32.4402  32.6535  32.7438  32.8727  32.9588  33.0302

          k = 0.0556 0.1667 0.3889 ( 30138 PWs)   bands (ev):

   -63.5415 -63.5287 -63.5223 -63.5214 -63.4987 -63.4982 -63.4970 -63.4948
   -63.4838 -63.4831 -63.4828 -63.4795 -63.4725 -63.4710 -63.4703 -63.4687
   -63.4548 -63.4538 -63.4516 -63.4196 -63.4130 -63.4112 -63.4070 -63.4014
   -63.4002 -63.3997 -63.3891 -63.3889 -63.3879 -63.3877 -63.3869 -29.4678
   -29.4648 -29.4512 -29.4442 -29.4290 -29.4266 -29.4202 -29.4175 -29.4099
   -29.4044 -29.3968 -29.3864 -29.3773 -29.3741 -29.3737 -29.3657 -29.3646
   -29.3531 -29.3437 -29.3400 -29.3375 -29.3288 -29.3171 -29.3120 -29.3071
   -29.3020 -29.2897 -29.2724 -29.2655 -29.2621 -29.2564 -29.2410 -29.2384
   -29.2342 -29.2198 -29.2189 -29.2129 -29.2090 -29.1967 -29.1844 -29.1774
   -29.1645 -29.1585 -29.1552 -29.1542 -29.1531 -29.1497 -29.1475 -29.1437
   -29.1406 -29.1368 -29.1280 -29.1260 -29.1234 -29.1186 -29.1144 -29.1136
   -29.1113 -29.1065 -29.1012 -29.0984 -29.0970 -29.0962 -29.0910 -29.0881
   -29.0851 -29.0819 -29.0786 -29.0748 -29.0723 -29.0719 -29.0698 -29.0614
   -29.0575 -29.0540 -29.0517 -29.0488 -29.0390 -29.0373 -29.0327 -29.0177
   -29.0159 -29.0135 -29.0065 -28.9966 -28.9932 -28.9884 -28.9870 -28.9786
   -28.9771 -28.9741 -28.9686 -28.9632  13.8678  14.5090  15.2142  15.2813
    15.2984  15.3119  15.3726  15.4310  15.4494  15.4845  15.5240  15.5471
    15.5943  15.6084  15.6488  15.6726  15.7004  15.7354  15.7688  15.8099
    15.8582  15.8735  15.9311  15.9551  15.9877  16.0459  16.0702  16.0805
    16.1644  16.2718  16.2852  16.2910  16.3299  16.3926  16.4402  16.4667
    16.5221  16.6010  16.6313  16.6367  16.6660  16.7142  16.7304  16.7643
    16.7968  16.8165  16.8449  16.9372  16.9672  17.0018  17.0220  17.0545
    17.0874  17.1440  17.1824  17.2507  17.2810  17.2973  17.3627  17.4164
    17.4374  17.4627  17.4896  17.5091  17.5292  17.5689  17.5940  17.6097
    17.6225  17.6598  17.6935  17.7290  17.7582  17.8435  17.8803  17.8991
    17.9516  17.9638  17.9981  18.0172  18.0560  18.0689  18.1029  18.1342
    18.1804  18.1988  18.2233  18.2767  18.3401  18.4261  18.4456  18.4627
    18.5423  18.5993  18.6259  18.6793  18.7250  18.7354  18.7616  18.8614
    18.9561  18.9683  19.0392  19.0747  19.0808  19.1176  19.1902  19.2209
    19.2492  19.2659  19.3187  19.3250  19.3569  19.3654  19.4167  19.4342
    19.4473  19.4594  19.5010  19.5094  19.5578  19.6105  19.6458  19.6975
    19.7161  19.7354  19.8106  19.8641  19.9098  19.9355  19.9627  19.9849
    19.9932  20.0726  20.1603  20.1885  20.2334  20.2787  20.2883  20.2922
    20.3124  20.3268  20.3991  20.4133  20.4522  20.5046  20.5539  20.5775
    20.6005  20.6570  20.6609  20.6887  20.7001  20.7214  20.7985  20.8491
    20.8783  20.9627  21.0564  21.0930  21.0976  21.3064  21.3557  21.4760
    21.7208  21.7778  22.0400  22.3241  22.3844  22.6156  22.9851  23.4805
    23.8065  23.8556  24.3490  24.8195  25.3926  25.5112  25.9675  26.1266
    26.4413  26.6486  26.9529  27.1698  27.5909  27.7207  28.2736  28.8611
    29.2050  29.7198  29.8026  29.8916  30.1186  30.2951  30.4444  30.5944
    30.7062  30.8576  31.1607  31.2826  31.5673  31.8595  32.0497  32.1455
    32.2710  32.3527  32.4867  32.6156  32.7211  32.7606  32.8213

          k = 0.0556 0.1667-0.5000 ( 30170 PWs)   bands (ev):

   -63.5404 -63.5301 -63.5221 -63.5214 -63.4987 -63.4983 -63.4971 -63.4947
   -63.4840 -63.4830 -63.4828 -63.4798 -63.4718 -63.4709 -63.4700 -63.4684
   -63.4552 -63.4538 -63.4517 -63.4198 -63.4131 -63.4113 -63.4065 -63.4014
   -63.4000 -63.3994 -63.3892 -63.3891 -63.3881 -63.3876 -63.3871 -29.4563
   -29.4541 -29.4449 -29.4401 -29.4287 -29.4278 -29.4225 -29.4195 -29.4189
   -29.4114 -29.3949 -29.3907 -29.3834 -29.3788 -29.3779 -29.3753 -29.3633
   -29.3577 -29.3412 -29.3402 -29.3327 -29.3295 -29.3183 -29.3138 -29.3095
   -29.3043 -29.2887 -29.2718 -29.2592 -29.2585 -29.2511 -29.2477 -29.2444
   -29.2287 -29.2222 -29.2215 -29.2113 -29.2083 -29.2056 -29.1850 -29.1792
   -29.1570 -29.1557 -29.1526 -29.1525 -29.1488 -29.1465 -29.1413 -29.1347
   -29.1345 -29.1317 -29.1289 -29.1274 -29.1228 -29.1214 -29.1174 -29.1141
   -29.1111 -29.1047 -29.1019 -29.1018 -29.0962 -29.0923 -29.0915 -29.0901
   -29.0871 -29.0833 -29.0806 -29.0788 -29.0745 -29.0720 -29.0655 -29.0611
   -29.0592 -29.0553 -29.0518 -29.0470 -29.0395 -29.0356 -29.0349 -29.0246
   -29.0168 -29.0135 -29.0042 -28.9934 -28.9915 -28.9881 -28.9881 -28.9802
   -28.9794 -28.9756 -28.9697 -28.9634  14.0727  14.2578  15.3154  15.3864
    15.3881  15.4210  15.4542  15.4591  15.5034  15.5134  15.5230  15.5583
    15.5829  15.5878  15.5994  15.6391  15.6671  15.6702  15.7183  15.7570
    15.7773  15.8392  15.8683  15.8743  15.9453  15.9756  16.0021  16.0939
    16.1341  16.2594  16.2624  16.3776  16.3891  16.4069  16.4147  16.5073
    16.5278  16.5385  16.5545  16.6475  16.6702  16.7109  16.7543  16.7812
    16.7911  16.7926  16.8628  16.8869  16.8944  16.9375  17.0080  17.0327
    17.0703  17.0992  17.2440  17.2719  17.2736  17.3212  17.3608  17.4015
    17.4054  17.4616  17.4869  17.5085  17.5364  17.5612  17.5861  17.6416
    17.6522  17.6762  17.7716  17.8021  17.8232  17.8511  17.8609  17.9071
    17.9286  17.9633  17.9652  18.0056  18.0251  18.0588  18.0718  18.0982
    18.1228  18.1502  18.1790  18.1992  18.3221  18.5580  18.6069  18.6919
    18.7050  18.7297  18.7332  18.7712  18.8062  18.8650  18.8809  18.8974
    18.9269  18.9527  18.9725  19.0037  19.0500  19.0807  19.1028  19.1228
    19.1834  19.2219  19.2316  19.2453  19.2881  19.3158  19.3186  19.4179
    19.4295  19.4507  19.4891  19.5404  19.5519  19.5828  19.6329  19.6363
    19.7063  19.7213  19.8117  19.8319  19.8611  19.9347  20.0654  20.1072
    20.1233  20.1498  20.1904  20.2212  20.2588  20.2844  20.3372  20.3948
    20.4003  20.4206  20.4386  20.4886  20.5063  20.5085  20.5141  20.5198
    20.5251  20.5368  20.5481  20.6112  20.6118  20.6688  20.6951  20.8257
    20.8873  20.9322  21.0558  21.0925  21.0967  21.2969  21.3518  21.7800
    21.8692  21.8937  21.8966  22.1553  22.2486  22.5066  22.5321  23.6591
    23.6943  24.1525  24.1689  25.5961  25.6456  26.0609  26.1716  26.2544
    26.3721  26.6799  26.7939  26.8655  27.0352  27.3912  27.4253  29.2326
    29.3260  29.6772  29.7702  30.0861  30.1805  30.2196  30.3329  30.6363
    30.7781  30.7857  30.8663  31.3313  31.4205  31.7527  31.7736  32.2174
    32.2222  32.4247  32.4805  32.5219  32.5637  32.6595  32.6847

          k = 0.0556 0.2778 0.2778 ( 30150 PWs)   bands (ev):

   -63.5419 -63.5256 -63.5245 -63.5216 -63.4994 -63.4985 -63.4973 -63.4947
   -63.4833 -63.4833 -63.4824 -63.4776 -63.4739 -63.4709 -63.4700 -63.4693
   -63.4541 -63.4540 -63.4519 -63.4200 -63.4131 -63.4096 -63.4083 -63.4008
   -63.4008 -63.3995 -63.3891 -63.3887 -63.3882 -63.3876 -63.3871 -29.4739
   -29.4707 -29.4554 -29.4471 -29.4257 -29.4249 -29.4184 -29.4087 -29.4036
   -29.3999 -29.3888 -29.3820 -29.3771 -29.3764 -29.3654 -29.3642 -29.3598
   -29.3579 -29.3565 -29.3468 -29.3429 -29.3407 -29.3264 -29.3130 -29.3033
   -29.2966 -29.2951 -29.2768 -29.2625 -29.2577 -29.2468 -29.2433 -29.2320
   -29.2313 -29.2148 -29.2110 -29.2000 -29.1930 -29.1883 -29.1874 -29.1793
   -29.1733 -29.1728 -29.1683 -29.1578 -29.1547 -29.1525 -29.1506 -29.1440
   -29.1384 -29.1372 -29.1310 -29.1282 -29.1276 -29.1213 -29.1188 -29.1125
   -29.1102 -29.1084 -29.1032 -29.0989 -29.0954 -29.0941 -29.0919 -29.0881
   -29.0804 -29.0793 -29.0779 -29.0764 -29.0752 -29.0719 -29.0675 -29.0630
   -29.0589 -29.0534 -29.0512 -29.0460 -29.0425 -29.0382 -29.0288 -29.0234
   -29.0108 -29.0064 -29.0056 -29.0036 -28.9942 -28.9894 -28.9878 -28.9776
   -28.9759 -28.9710 -28.9692 -28.9594  13.7979  14.9211  15.0039  15.1733
    15.2528  15.2593  15.2754  15.3217  15.4053  15.4501  15.5280  15.5462
    15.5922  15.6375  15.7350  15.7407  15.7817  15.8164  15.8337  15.8378
    15.8871  15.9114  15.9181  15.9842  16.0164  16.0472  16.0612  16.1707
    16.1795  16.2216  16.2257  16.2593  16.3074  16.3157  16.3689  16.3953
    16.4423  16.4902  16.5677  16.5833  16.6438  16.6725  16.7203  16.7722
    16.8135  16.8192  16.9246  16.9318  16.9733  16.9903  17.0068  17.0941
    17.1275  17.1686  17.2360  17.2994  17.3605  17.4440  17.4477  17.4754
    17.4852  17.5327  17.5343  17.5515  17.5845  17.6542  17.6587  17.6719
    17.6873  17.7144  17.7446  17.8374  17.8389  17.8574  17.9008  17.9237
    17.9350  17.9566  17.9754  17.9974  18.0355  18.0422  18.0718  18.0793
    18.1027  18.1740  18.1857  18.2367  18.3315  18.3913  18.4138  18.4304
    18.4354  18.5204  18.5263  18.6268  18.6376  18.7242  18.7479  18.7544
    18.7698  18.8385  18.8508  18.9259  18.9421  19.0327  19.0807  19.1296
    19.2284  19.3199  19.3306  19.3432  19.3714  19.4291  19.4571  19.4955
    19.5073  19.5400  19.5446  19.5974  19.6605  19.6916  19.6937  19.7509
    19.7589  19.8381  19.8489  19.8630  19.9314  19.9317  19.9592  19.9741
    20.0228  20.0244  20.0746  20.1525  20.1818  20.2320  20.2449  20.2676
    20.2795  20.2849  20.3634  20.4045  20.4047  20.4998  20.5915  20.6089
    20.6394  20.6998  20.7416  20.7963  20.7979  20.8155  20.8668  20.9249
    20.9328  20.9412  20.9437  20.9564  21.0137  21.3086  21.3448  21.3890
    21.6510  21.7203  22.0577  22.1638  22.2567  23.4409  23.5575  23.7855
    23.8269  24.2227  24.3325  24.5215  24.6964  25.0570  25.2833  25.9601
    26.4460  26.8060  26.8698  28.0501  28.1626  28.4256  28.6693  28.7335
    28.7776  29.1584  29.2665  29.6763  29.9020  30.0670  30.1994  30.2206
    30.6495  30.7339  30.7480  30.8340  32.0048  32.0903  32.1029  32.3071
    32.4140  32.6213  32.7804  32.9870  33.0158  33.1592  33.2260

          k = 0.0556 0.2778 0.3889 ( 30193 PWs)   bands (ev):

   -63.5400 -63.5277 -63.5242 -63.5221 -63.4998 -63.4992 -63.4976 -63.4945
   -63.4838 -63.4833 -63.4819 -63.4774 -63.4723 -63.4707 -63.4697 -63.4689
   -63.4548 -63.4542 -63.4522 -63.4207 -63.4133 -63.4093 -63.4074 -63.4008
   -63.4003 -63.3988 -63.3894 -63.3891 -63.3882 -63.3879 -63.3874 -29.4637
   -29.4597 -29.4404 -29.4334 -29.4261 -29.4227 -29.4169 -29.4128 -29.4057
   -29.4021 -29.3957 -29.3900 -29.3878 -29.3848 -29.3784 -29.3755 -29.3682
   -29.3590 -29.3564 -29.3541 -29.3481 -29.3398 -29.3283 -29.3177 -29.3094
   -29.3031 -29.2990 -29.2713 -29.2568 -29.2422 -29.2406 -29.2337 -29.2325
   -29.2284 -29.2186 -29.2116 -29.2039 -29.1996 -29.1920 -29.1770 -29.1710
   -29.1691 -29.1672 -29.1608 -29.1564 -29.1516 -29.1489 -29.1453 -29.1433
   -29.1383 -29.1349 -29.1289 -29.1258 -29.1224 -29.1206 -29.1156 -29.1136
   -29.1095 -29.1058 -29.1051 -29.1018 -29.0985 -29.0937 -29.0926 -29.0885
   -29.0839 -29.0829 -29.0813 -29.0800 -29.0778 -29.0728 -29.0697 -29.0621
   -29.0583 -29.0563 -29.0520 -29.0499 -29.0403 -29.0388 -29.0313 -29.0203
   -29.0193 -29.0089 -28.9993 -28.9985 -28.9935 -28.9908 -28.9874 -28.9801
   -28.9796 -28.9726 -28.9696 -28.9582  14.0077  14.6251  15.1223  15.2833
    15.3410  15.3517  15.3951  15.4058  15.5378  15.5545  15.5738  15.5848
    15.6087  15.6357  15.6538  15.6735  15.7027  15.7332  15.7412  15.8100
    15.8194  15.8394  15.8748  15.8944  15.9323  16.0246  16.0346  16.0576
    16.0726  16.1455  16.1496  16.2399  16.2763  16.3017  16.3394  16.3866
    16.4069  16.4269  16.5255  16.5560  16.5826  16.6387  16.6986  16.7565
    16.7812  16.8422  16.8573  16.9081  16.9482  17.0251  17.0452  17.0705
    17.1313  17.1351  17.2567  17.2713  17.3414  17.4328  17.4678  17.4862
    17.4987  17.5241  17.6076  17.6315  17.6489  17.6610  17.7008  17.7078
    17.7513  17.8226  17.8319  17.8831  17.9280  17.9341  17.9385  17.9496
    17.9735  18.0006  18.0383  18.0686  18.0862  18.1253  18.1332  18.1563
    18.1648  18.2192  18.2608  18.3057  18.3321  18.3861  18.4037  18.4258
    18.4527  18.4790  18.5100  18.5492  18.5617  18.6205  18.6872  18.7431
    18.7824  18.8389  18.9064  18.9266  18.9391  18.9970  19.0021  19.0295
    19.0959  19.1411  19.1676  19.2159  19.2878  19.3421  19.3816  19.4527
    19.5179  19.5380  19.5977  19.6091  19.6668  19.6829  19.7062  19.7599
    19.7769  19.8007  19.8743  19.9363  19.9766  19.9892  20.0244  20.0442
    20.0983  20.1199  20.1771  20.2137  20.2404  20.2480  20.3001  20.3734
    20.3934  20.4253  20.4408  20.4611  20.4676  20.5067  20.5314  20.5790
    20.6291  20.6436  20.6531  20.7143  20.7210  20.7260  20.7376  20.7701
    20.8211  20.8707  20.9202  20.9445  20.9707  21.2350  21.3417  21.5778
    21.7226  21.8874  21.9693  22.0258  22.1605  22.9735  23.4763  24.1402
    24.2550  24.3929  24.5264  24.8632  25.0347  25.4028  25.8982  25.9809
    26.1712  26.5111  27.2001  27.2364  27.6044  27.8915  28.6481  28.7937
    28.8994  29.0498  29.1472  29.3914  29.5065  29.7398  29.9469  30.1656
    30.2617  30.3984  30.7326  31.2917  31.5867  32.1571  32.2093  32.4147
    32.4321  32.4712  32.5738  32.6974  32.7889  33.3187  33.3561

          k = 0.0556 0.2778-0.5000 ( 30164 PWs)   bands (ev):

   -63.5390 -63.5290 -63.5238 -63.5223 -63.4998 -63.4996 -63.4977 -63.4944
   -63.4840 -63.4833 -63.4817 -63.4775 -63.4716 -63.4706 -63.4695 -63.4688
   -63.4552 -63.4543 -63.4523 -63.4210 -63.4134 -63.4094 -63.4069 -63.4008
   -63.4000 -63.3986 -63.3895 -63.3893 -63.3884 -63.3878 -63.3876 -29.4534
   -29.4492 -29.4438 -29.4377 -29.4214 -29.4163 -29.4158 -29.4105 -29.4073
   -29.4024 -29.4007 -29.3980 -29.3872 -29.3865 -29.3849 -29.3799 -29.3789
   -29.3642 -29.3563 -29.3524 -29.3471 -29.3378 -29.3313 -29.3138 -29.3118
   -29.3061 -29.3053 -29.2669 -29.2571 -29.2383 -29.2352 -29.2304 -29.2292
   -29.2257 -29.2205 -29.2129 -29.2050 -29.2046 -29.1992 -29.1753 -29.1678
   -29.1672 -29.1584 -29.1533 -29.1513 -29.1502 -29.1484 -29.1469 -29.1424
   -29.1384 -29.1312 -29.1301 -29.1283 -29.1259 -29.1218 -29.1171 -29.1145
   -29.1082 -29.1060 -29.1048 -29.0979 -29.0973 -29.0944 -29.0934 -29.0872
   -29.0872 -29.0834 -29.0828 -29.0774 -29.0758 -29.0755 -29.0678 -29.0635
   -29.0629 -29.0559 -29.0537 -29.0529 -29.0394 -29.0374 -29.0344 -29.0218
   -29.0172 -29.0108 -28.9965 -28.9958 -28.9947 -28.9908 -28.9859 -28.9821
   -28.9810 -28.9731 -28.9703 -28.9579  14.2087  14.3802  15.2695  15.3440
    15.4105  15.4294  15.4373  15.4571  15.4890  15.5174  15.5424  15.5615
    15.5838  15.6442  15.6664  15.6825  15.6991  15.7375  15.7425  15.7672
    15.7896  15.8201  15.8253  15.9155  15.9211  15.9362  15.9487  15.9581
    16.0712  16.1544  16.1971  16.2366  16.2678  16.2869  16.3039  16.3490
    16.3976  16.4343  16.4408  16.5621  16.5763  16.6375  16.7215  16.7303
    16.7785  16.8243  16.8330  16.8715  17.0423  17.0504  17.0807  17.0843
    17.1252  17.1765  17.1946  17.2441  17.2534  17.3384  17.4186  17.4707
    17.5113  17.6405  17.6448  17.6669  17.6671  17.7130  17.7193  17.7583
    17.7868  17.8064  17.8365  17.8580  17.8651  17.9290  18.0004  18.0111
    18.0469  18.0494  18.0571  18.0767  18.0920  18.1063  18.1138  18.1397
    18.2122  18.2495  18.2852  18.3119  18.3676  18.3954  18.4725  18.4910
    18.5046  18.5322  18.5563  18.5687  18.6513  18.6583  18.6607  18.7018
    18.7247  18.7515  18.7817  18.8490  18.9578  18.9952  19.0213  19.0319
    19.0655  19.0823  19.0993  19.1106  19.1722  19.2989  19.3671  19.4011
    19.4367  19.5377  19.5602  19.6168  19.6453  19.6715  19.7167  19.7465
    19.7628  19.8312  19.8770  20.0176  20.0233  20.0574  20.0711  20.1168
    20.1484  20.1917  20.2338  20.2519  20.2914  20.2916  20.3461  20.3845
    20.3972  20.4035  20.4738  20.5066  20.5242  20.5304  20.5545  20.5785
    20.5982  20.6095  20.6115  20.6174  20.6187  20.6252  20.6368  20.7942
    20.8242  20.8680  20.9170  20.9486  20.9565  21.2535  21.3159  21.4458
    21.4630  22.0487  22.0620  22.3367  22.4930  22.7301  22.7400  24.3819
    24.4012  24.7708  24.7785  25.0627  25.0735  25.3743  25.6697  26.2089
    26.2820  26.7685  26.7982  27.0741  27.3398  27.9654  28.0369  28.8695
    28.9677  29.2351  29.2758  29.2911  29.4589  29.5280  29.6916  29.7605
    29.9193  30.9168  31.0110  31.3953  31.4544  31.9758  32.0337  32.2052
    32.3951  32.4879  32.4985  32.7991  32.9609  33.0736  33.1045

          k = 0.0556 0.3889 0.3889 ( 30175 PWs)   bands (ev):

   -63.5383 -63.5269 -63.5260 -63.5230 -63.5006 -63.5001 -63.4979 -63.4943
   -63.4838 -63.4838 -63.4809 -63.4763 -63.4714 -63.4704 -63.4693 -63.4691
   -63.4549 -63.4548 -63.4525 -63.4215 -63.4136 -63.4080 -63.4076 -63.4003
   -63.4003 -63.3981 -63.3896 -63.3895 -63.3883 -63.3881 -63.3878 -29.4556
   -29.4502 -29.4332 -29.4238 -29.4237 -29.4186 -29.4153 -29.4132 -29.4081
   -29.3985 -29.3974 -29.3953 -29.3888 -29.3879 -29.3822 -29.3746 -29.3721
   -29.3702 -29.3671 -29.3670 -29.3518 -29.3509 -29.3427 -29.3207 -29.3139
   -29.3066 -29.2993 -29.2731 -29.2599 -29.2366 -29.2262 -29.2257 -29.2206
   -29.2192 -29.2133 -29.2051 -29.1910 -29.1873 -29.1851 -29.1811 -29.1766
   -29.1737 -29.1652 -29.1612 -29.1571 -29.1506 -29.1472 -29.1441 -29.1436
   -29.1349 -29.1330 -29.1320 -29.1294 -29.1252 -29.1201 -29.1148 -29.1142
   -29.1134 -29.1086 -29.1049 -29.1043 -29.1001 -29.0956 -29.0924 -29.0892
   -29.0889 -29.0873 -29.0817 -29.0812 -29.0740 -29.0707 -29.0669 -29.0648
   -29.0627 -29.0603 -29.0542 -29.0455 -29.0421 -29.0398 -29.0290 -29.0239
   -29.0196 -29.0063 -28.9990 -28.9957 -28.9951 -28.9904 -28.9852 -28.9826
   -28.9821 -28.9723 -28.9703 -28.9549  14.2088  14.7474  14.8475  15.2698
    15.3707  15.4163  15.4740  15.4930  15.5079  15.5677  15.5946  15.6646
    15.6667  15.6675  15.6813  15.6896  15.7057  15.7272  15.7556  15.7609
    15.8257  15.8281  15.8543  15.9135  15.9456  15.9599  15.9797  15.9803
    16.0647  16.0805  16.1105  16.1189  16.1362  16.1966  16.2162  16.2741
    16.3187  16.3363  16.3701  16.5318  16.5678  16.5953  16.6731  16.7005
    16.7369  16.8100  16.8794  16.9020  16.9214  17.0172  17.0609  17.1254
    17.1372  17.2039  17.2716  17.3053  17.4473  17.4663  17.5037  17.5321
    17.6569  17.6748  17.7189  17.7444  17.7532  17.7715  17.7856  17.8010
    17.8429  17.8914  17.9074  17.9335  17.9643  17.9928  18.0060  18.0377
    18.0543  18.0899  18.1144  18.1248  18.1616  18.1719  18.2189  18.2318
    18.2393  18.2564  18.2767  18.2854  18.2984  18.3157  18.3490  18.3813
    18.4215  18.4346  18.4782  18.5456  18.5551  18.5637  18.6270  18.6527
    18.6704  18.7016  18.7080  18.7283  18.7316  18.7652  18.8069  18.8714
    18.9309  19.0220  19.0642  19.1215  19.1773  19.1998  19.2684  19.3846
    19.4478  19.5523  19.6097  19.6411  19.6930  19.7579  19.7985  19.8453
    19.9008  19.9215  19.9300  20.0224  20.0489  20.0666  20.1021  20.1348
    20.1609  20.2683  20.2760  20.2851  20.3096  20.3671  20.3680  20.3999
    20.4088  20.4180  20.4240  20.5034  20.5340  20.5737  20.5834  20.5936
    20.5995  20.6502  20.6518  20.7113  20.7171  20.7292  20.7373  20.7392
    20.7485  20.7704  20.7874  20.8614  20.9278  21.0670  21.1292  21.2082
    21.6531  21.7012  21.7962  22.5344  22.5367  23.6204  23.7216  24.0304
    24.1190  24.8015  24.8872  25.2092  25.2951  25.3438  25.4905  25.6392
    25.9521  26.8963  27.1018  27.1264  27.8988  28.1606  28.5054  28.6139
    28.7265  28.8666  28.8904  29.0707  29.1182  29.3605  29.5175  29.5207
    29.6106  29.6228  30.8554  31.3756  31.9611  32.1708  32.3810  32.4191
    32.4928  32.8237  32.8505  32.9879  33.0301  33.4432  33.4941

          k = 0.0556 0.3889-0.5000 ( 30172 PWs)   bands (ev):

   -63.5374 -63.5275 -63.5256 -63.5236 -63.5007 -63.5006 -63.4980 -63.4942
   -63.4840 -63.4838 -63.4805 -63.4761 -63.4709 -63.4703 -63.4693 -63.4691
   -63.4552 -63.4549 -63.4526 -63.4218 -63.4137 -63.4079 -63.4072 -63.4003
   -63.4001 -63.3978 -63.3897 -63.3897 -63.3884 -63.3881 -63.3880 -29.4469
   -29.4405 -29.4401 -29.4311 -29.4249 -29.4120 -29.4092 -29.4077 -29.4075
   -29.4021 -29.3968 -29.3967 -29.3894 -29.3891 -29.3847 -29.3813 -29.3756
   -29.3688 -29.3665 -29.3646 -29.3644 -29.3501 -29.3501 -29.3265 -29.3112
   -29.3050 -29.3043 -29.2704 -29.2650 -29.2365 -29.2254 -29.2242 -29.2138
   -29.2055 -29.2000 -29.1995 -29.1966 -29.1938 -29.1918 -29.1812 -29.1676
   -29.1671 -29.1628 -29.1606 -29.1581 -29.1555 -29.1467 -29.1439 -29.1416
   -29.1415 -29.1391 -29.1322 -29.1273 -29.1221 -29.1208 -29.1149 -29.1129
   -29.1121 -29.1091 -29.1072 -29.1023 -29.1007 -29.0996 -29.0940 -29.0919
   -29.0911 -29.0897 -29.0805 -29.0770 -29.0742 -29.0710 -29.0688 -29.0643
   -29.0635 -29.0594 -29.0562 -29.0467 -29.0403 -29.0384 -29.0313 -29.0231
   -29.0188 -29.0075 -28.9971 -28.9965 -28.9956 -28.9886 -28.9844 -28.9839
   -28.9833 -28.9717 -28.9712 -28.9538  14.4065  14.5496  14.9548  15.1034
    15.4506  15.4780  15.5092  15.5325  15.5476  15.5690  15.5734  15.6200
    15.6307  15.6549  15.6861  15.7092  15.7452  15.7610  15.7758  15.8310
    15.8325  15.8582  15.8684  15.8849  15.9118  15.9338  15.9727  15.9787
    15.9967  15.9998  16.0645  16.1397  16.1427  16.1627  16.1701  16.2092
    16.2249  16.2787  16.3090  16.5461  16.5714  16.6017  16.6705  16.7140
    16.7321  16.7458  16.8031  16.8579  16.9737  16.9883  17.0296  17.1699
    17.2046  17.2936  17.3294  17.3766  17.4426  17.4691  17.4986  17.5367
    17.5406  17.6712  17.6850  17.7567  17.7891  17.7999  17.8127  17.9175
    17.9287  17.9816  17.9819  18.0101  18.0493  18.0814  18.0959  18.0993
    18.1065  18.1204  18.1501  18.1859  18.1959  18.2086  18.2108  18.2178
    18.2421  18.2653  18.2747  18.3217  18.3239  18.3363  18.3429  18.3495
    18.3944  18.4213  18.4285  18.4407  18.4512  18.4644  18.5143  18.5217
    18.5405  18.6508  18.6912  18.7274  18.8336  18.8382  18.8441  18.8766
    18.9021  18.9507  18.9718  18.9746  18.9974  19.0415  19.0886  19.4014
    19.4613  19.5913  19.6189  19.6575  19.7078  19.7542  19.8693  19.9082
    19.9395  19.9442  19.9722  19.9844  20.0532  20.1369  20.1848  20.2097
    20.2165  20.2681  20.2745  20.2836  20.3234  20.3542  20.4372  20.4430
    20.4887  20.4970  20.5147  20.5274  20.5448  20.5827  20.5923  20.6109
    20.6170  20.6483  20.6651  20.6690  20.6697  20.6835  20.6895  20.7310
    20.7365  20.7439  20.7897  20.7981  20.8050  21.0335  21.0806  21.2395
    21.3202  21.6518  21.7140  22.9801  23.1649  23.2806  23.3258  24.4554
    24.4682  24.5992  24.7984  25.1525  25.1867  25.3988  25.4344  26.1492
    26.2358  26.5347  26.5679  27.5536  27.7542  28.5038  28.6015  28.6370
    28.7204  28.7987  28.8600  28.9084  28.9195  29.0593  29.0822  29.1123
    29.2655  30.1344  30.2127  32.0445  32.0938  32.1709  32.3680  32.4434
    32.4442  32.6413  32.7099  33.3442  33.4897  33.5184  33.5723

          k = 0.0556-0.5000-0.5000 ( 30184 PWs)   bands (ev):

   -63.5366 -63.5265 -63.5265 -63.5245 -63.5010 -63.5010 -63.4981 -63.4941
   -63.4840 -63.4840 -63.4801 -63.4758 -63.4703 -63.4701 -63.4692 -63.4692
   -63.4552 -63.4552 -63.4528 -63.4221 -63.4138 -63.4073 -63.4073 -63.4001
   -63.4001 -63.3975 -63.3899 -63.3898 -63.3883 -63.3883 -63.3881 -29.4374
   -29.4374 -29.4366 -29.4303 -29.4245 -29.4245 -29.4143 -29.4141 -29.4009
   -29.3942 -29.3919 -29.3893 -29.3879 -29.3879 -29.3844 -29.3774 -29.3772
   -29.3772 -29.3708 -29.3708 -29.3662 -29.3538 -29.3538 -29.3444 -29.3139
   -29.3005 -29.3005 -29.2732 -29.2698 -29.2367 -29.2233 -29.2233 -29.2004
   -29.1950 -29.1939 -29.1939 -29.1853 -29.1822 -29.1820 -29.1783 -29.1783
   -29.1768 -29.1763 -29.1763 -29.1512 -29.1492 -29.1492 -29.1485 -29.1392
   -29.1380 -29.1380 -29.1301 -29.1301 -29.1249 -29.1234 -29.1181 -29.1119
   -29.1101 -29.1101 -29.1073 -29.1020 -29.0998 -29.0998 -29.0988 -29.0964
   -29.0964 -29.0937 -29.0796 -29.0756 -29.0756 -29.0655 -29.0637 -29.0632
   -29.0632 -29.0631 -29.0610 -29.0452 -29.0407 -29.0341 -29.0289 -29.0289
   -29.0174 -29.0080 -28.9968 -28.9968 -28.9961 -28.9863 -28.9848 -28.9848
   -28.9842 -28.9713 -28.9713 -28.9523  14.6359  14.6837  14.6837  14.9383
    15.4987  15.4987  15.4989  15.5783  15.5843  15.6111  15.6111  15.6129
    15.6129  15.6357  15.7459  15.7478  15.7682  15.7682  15.8126  15.8191
    15.8191  15.9026  15.9237  15.9394  15.9394  15.9478  15.9703  15.9776
    15.9877  15.9877  16.0188  16.0241  16.0509  16.0791  16.0791  16.0906
    16.1083  16.3117  16.3117  16.4692  16.5549  16.5549  16.6412  16.6658
    16.8051  16.8178  16.8378  16.8378  16.9062  16.9062  16.9176  17.2199
    17.2275  17.3562  17.3562  17.4570  17.4687  17.5322  17.5322  17.6623
    17.6714  17.7246  17.7246  17.8685  17.8685  17.8942  17.8955  17.8955
    17.8997  17.9587  17.9614  18.0511  18.1123  18.1123  18.1254  18.1469
    18.1771  18.1771  18.1894  18.1894  18.1957  18.1991  18.2084  18.2120
    18.2156  18.2373  18.2373  18.2735  18.2888  18.2974  18.3248  18.3325
    18.3325  18.4535  18.4839  18.4861  18.4861  18.5915  18.5915  18.5928
    18.5964  18.5964  18.5985  18.6464  18.6555  18.6667  18.6989  18.6989
    18.7278  18.7555  18.7555  18.8767  19.0041  19.0310  19.0310  19.4222
    19.4572  19.6438  19.6438  19.7449  19.7582  19.7972  19.7972  19.9085
    19.9085  20.0044  20.0538  20.0706  20.0946  20.1216  20.1216  20.1834
    20.1834  20.2730  20.3522  20.4747  20.4939  20.4986  20.4986  20.5110
    20.5128  20.5128  20.5158  20.5523  20.6038  20.6038  20.6105  20.6233
    20.6430  20.6602  20.6602  20.6838  20.6863  20.6869  20.6869  20.7046
    20.7046  20.7050  20.7072  20.7491  20.7558  20.7558  20.8645  21.3381
    21.3619  21.3619  21.5145  23.4877  23.8040  23.8410  23.8410  23.8581
    23.9889  24.0951  24.0951  25.6784  25.7590  25.7590  25.8739  25.8827
    26.0907  26.1919  26.1919  28.0638  28.0638  28.1895  28.5677  28.6119
    28.6119  28.6350  28.7250  28.8211  28.8211  28.8263  28.9920  29.2357
    29.4052  29.5217  29.5217  32.1477  32.3601  32.4226  32.4226  32.7108
    32.7996  32.7996  32.8208  33.3459  33.4346  33.4550  33.4550

          k = 0.1667 0.1667 0.1667 ( 30217 PWs)   bands (ev):

   -63.5444 -63.5235 -63.5225 -63.5225 -63.4981 -63.4981 -63.4980 -63.4942
   -63.4829 -63.4829 -63.4828 -63.4770 -63.4770 -63.4716 -63.4703 -63.4703
   -63.4535 -63.4535 -63.4514 -63.4188 -63.4114 -63.4114 -63.4096 -63.4010
   -63.4010 -63.4009 -63.3885 -63.3884 -63.3884 -63.3868 -63.3868 -29.4830
   -29.4830 -29.4764 -29.4641 -29.4346 -29.4346 -29.4304 -29.3881 -29.3881
   -29.3812 -29.3795 -29.3727 -29.3727 -29.3622 -29.3622 -29.3592 -29.3525
   -29.3492 -29.3492 -29.3438 -29.3286 -29.3286 -29.3113 -29.3113 -29.2964
   -29.2939 -29.2939 -29.2751 -29.2736 -29.2736 -29.2652 -29.2435 -29.2435
   -29.2239 -29.2070 -29.2070 -29.2029 -29.1946 -29.1946 -29.1881 -29.1815
   -29.1815 -29.1733 -29.1732 -29.1641 -29.1641 -29.1577 -29.1543 -29.1543
   -29.1455 -29.1455 -29.1428 -29.1327 -29.1316 -29.1316 -29.1287 -29.1240
   -29.1240 -29.1008 -29.1008 -29.0924 -29.0858 -29.0858 -29.0855 -29.0829
   -29.0777 -29.0777 -29.0764 -29.0699 -29.0699 -29.0665 -29.0665 -29.0597
   -29.0571 -29.0541 -29.0541 -29.0427 -29.0427 -29.0395 -29.0237 -29.0218
   -29.0218 -29.0084 -29.0048 -29.0048 -28.9908 -28.9858 -28.9858 -28.9730
   -28.9730 -28.9694 -28.9636 -28.9636  13.5768  15.0417  15.1107  15.1107
    15.1360  15.2255  15.2342  15.2342  15.2645  15.2645  15.4155  15.4458
    15.4502  15.4502  15.7348  15.7348  15.8336  16.0087  16.0188  16.0188
    16.0382  16.0423  16.0423  16.1354  16.1354  16.1416  16.1972  16.2329
    16.2329  16.3153  16.3441  16.3441  16.3550  16.3550  16.4396  16.4396
    16.4458  16.5614  16.5983  16.5983  16.6580  16.6865  16.6865  16.7432
    16.9023  16.9023  16.9988  17.1075  17.1075  17.1295  17.1492  17.1706
    17.1706  17.1706  17.2464  17.2464  17.3362  17.3482  17.3482  17.4134
    17.4226  17.4226  17.4661  17.4661  17.5361  17.5521  17.6168  17.6168
    17.6914  17.7048  17.7121  17.7121  17.7262  17.7262  17.7666  17.7666
    17.7985  17.7985  17.8322  17.8343  17.8343  17.8450  17.8869  18.0466
    18.0466  18.2221  18.3224  18.3224  18.3593  18.3593  18.4647  18.5615
    18.5615  18.6257  18.6418  18.7073  18.7073  18.7864  18.8317  18.8671
    18.8671  18.8792  18.8886  18.8886  19.0779  19.0945  19.0945  19.1397
    19.1397  19.2443  19.2443  19.2655  19.3183  19.3183  19.3844  19.4677
    19.4772  19.4772  19.5270  19.5270  19.5299  19.5640  19.6620  19.6620
    19.7685  19.8008  19.8008  19.8640  19.8640  19.8809  19.9164  19.9164
    19.9585  19.9585  20.0124  20.0474  20.2435  20.2435  20.3344  20.4062
    20.4062  20.4238  20.4996  20.4996  20.5583  20.5583  20.5740  20.5938
    20.5938  20.6182  20.6876  20.6876  20.8630  20.8688  20.8791  20.9224
    20.9224  21.0109  21.0304  21.0304  21.0444  21.0444  21.1011  21.7095
    21.7095  21.8096  22.8356  22.9273  22.9273  23.2004  23.2004  23.3857
    23.4935  23.5201  23.5201  24.6271  24.6884  24.6884  25.0546  25.0546
    25.3154  28.2911  28.2911  28.3940  28.4926  28.4926  28.5300  28.8129
    28.8129  28.9698  30.0164  30.2197  30.2197  30.2982  30.3707  30.4208
    30.4208  31.0832  31.0832  31.1054  32.6024  32.6024  32.6803  32.6803
    32.7203  32.7603  32.7847  32.7847  32.8109  33.0103  33.0106

          k = 0.1667 0.1667 0.2778 ( 30175 PWs)   bands (ev):

   -63.5427 -63.5255 -63.5228 -63.5222 -63.4991 -63.4986 -63.4983 -63.4937
   -63.4831 -63.4829 -63.4829 -63.4775 -63.4745 -63.4713 -63.4701 -63.4695
   -63.4540 -63.4537 -63.4518 -63.4199 -63.4116 -63.4110 -63.4085 -63.4010
   -63.4004 -63.4002 -63.3888 -63.3887 -63.3882 -63.3874 -63.3870 -29.4765
   -29.4738 -29.4662 -29.4503 -29.4291 -29.4281 -29.4212 -29.4042 -29.4012
   -29.3872 -29.3858 -29.3814 -29.3776 -29.3730 -29.3672 -29.3647 -29.3579
   -29.3574 -29.3553 -29.3506 -29.3372 -29.3239 -29.3236 -29.3090 -29.2986
   -29.2980 -29.2889 -29.2742 -29.2653 -29.2621 -29.2612 -29.2418 -29.2404
   -29.2179 -29.2167 -29.2095 -29.2036 -29.1989 -29.1920 -29.1876 -29.1803
   -29.1735 -29.1662 -29.1636 -29.1585 -29.1573 -29.1560 -29.1533 -29.1524
   -29.1423 -29.1399 -29.1387 -29.1280 -29.1277 -29.1255 -29.1203 -29.1201
   -29.1134 -29.1026 -29.0993 -29.0992 -29.0915 -29.0904 -29.0903 -29.0874
   -29.0843 -29.0820 -29.0769 -29.0738 -29.0730 -29.0707 -29.0661 -29.0622
   -29.0560 -29.0547 -29.0524 -29.0462 -29.0411 -29.0397 -29.0260 -29.0160
   -29.0159 -29.0102 -29.0041 -28.9990 -28.9987 -28.9885 -28.9877 -28.9753
   -28.9750 -28.9699 -28.9653 -28.9630  13.7245  14.8986  15.1251  15.1935
    15.1965  15.2196  15.3113  15.3132  15.3580  15.3629  15.4525  15.5004
    15.5319  15.5322  15.6880  15.7793  15.8203  15.8321  15.8737  15.9007
    15.9361  15.9653  16.0081  16.0634  16.1043  16.1141  16.1546  16.1706
    16.1880  16.2218  16.2376  16.2516  16.2853  16.3015  16.3655  16.3844
    16.4804  16.4925  16.4954  16.6127  16.6201  16.6766  16.7492  16.8407
    16.8769  16.9497  16.9784  17.0209  17.0254  17.0333  17.0786  17.1100
    17.1583  17.2159  17.2207  17.2525  17.3077  17.3209  17.3557  17.3685
    17.4446  17.4476  17.5318  17.5475  17.5496  17.6372  17.6462  17.6582
    17.7360  17.7375  17.7573  17.7833  17.7857  17.7996  17.8259  17.8265
    17.8560  17.8604  17.9403  17.9466  17.9968  18.0424  18.0514  18.0804
    18.1390  18.2027  18.2072  18.3020  18.3412  18.3723  18.3772  18.4529
    18.4817  18.4981  18.5235  18.5631  18.6118  18.6664  18.8375  18.8414
    18.9734  18.9918  19.0051  19.0108  19.0816  19.1054  19.1261  19.1586
    19.1920  19.2273  19.2374  19.2645  19.3279  19.4016  19.4259  19.4312
    19.4544  19.4634  19.4947  19.5067  19.5114  19.5706  19.5770  19.7006
    19.7378  19.7736  19.7881  19.8500  19.9223  20.0015  20.0387  20.0428
    20.0954  20.1133  20.1159  20.1440  20.1726  20.1826  20.2082  20.2607
    20.3389  20.3444  20.3737  20.4386  20.4561  20.4996  20.5548  20.6192
    20.6201  20.7332  20.8005  20.8351  20.8619  20.8852  20.8949  20.9090
    20.9419  20.9760  20.9774  21.0171  21.0304  21.0705  21.0756  21.2994
    21.3559  21.6729  22.7614  22.8556  22.9844  23.0357  23.2728  23.4391
    23.5970  23.9817  24.0327  24.2071  25.0518  25.1350  25.1512  25.7328
    25.9097  27.4561  27.6016  27.7371  27.7626  28.5673  28.5830  28.6996
    29.1061  29.2346  29.4206  29.4254  30.1586  30.3924  30.5515  30.5832
    30.6257  30.6992  30.8662  30.9111  31.8289  31.8511  32.1831  32.2467
    32.6280  32.6319  32.9377  32.9475  33.1485  33.1720  33.3239

          k = 0.1667 0.1667 0.3889 ( 30171 PWs)   bands (ev):

   -63.5407 -63.5282 -63.5228 -63.5219 -63.4994 -63.4990 -63.4988 -63.4936
   -63.4832 -63.4829 -63.4828 -63.4780 -63.4725 -63.4710 -63.4699 -63.4689
   -63.4548 -63.4539 -63.4521 -63.4207 -63.4118 -63.4111 -63.4073 -63.4010
   -63.3998 -63.3996 -63.3891 -63.3891 -63.3880 -63.3880 -63.3872 -29.4658
   -29.4614 -29.4508 -29.4356 -29.4280 -29.4235 -29.4180 -29.4156 -29.4087
   -29.4043 -29.3909 -29.3892 -29.3844 -29.3782 -29.3767 -29.3712 -29.3692
   -29.3613 -29.3537 -29.3512 -29.3459 -29.3324 -29.3289 -29.3068 -29.2994
   -29.2966 -29.2849 -29.2684 -29.2612 -29.2520 -29.2513 -29.2387 -29.2373
   -29.2298 -29.2204 -29.2112 -29.2106 -29.2087 -29.1972 -29.1801 -29.1736
   -29.1707 -29.1579 -29.1574 -29.1525 -29.1509 -29.1504 -29.1467 -29.1457
   -29.1360 -29.1347 -29.1312 -29.1267 -29.1229 -29.1229 -29.1195 -29.1145
   -29.1116 -29.1058 -29.1023 -29.0989 -29.0982 -29.0934 -29.0934 -29.0891
   -29.0855 -29.0853 -29.0796 -29.0762 -29.0757 -29.0727 -29.0696 -29.0635
   -29.0592 -29.0565 -29.0504 -29.0498 -29.0398 -29.0380 -29.0302 -29.0181
   -29.0123 -29.0099 -29.0066 -28.9945 -28.9935 -28.9906 -28.9889 -28.9783
   -28.9775 -28.9729 -28.9651 -28.9642  13.9367  14.5644  15.2373  15.2920
    15.3167  15.3195  15.4275  15.4293  15.4777  15.4977  15.5096  15.5411
    15.5677  15.6220  15.6313  15.6763  15.6878  15.7148  15.7745  15.7872
    15.8445  15.8885  15.8932  15.9100  16.0038  16.0446  16.0923  16.1034
    16.1058  16.1481  16.2188  16.2572  16.2940  16.3140  16.3229  16.4278
    16.4648  16.5100  16.5548  16.6019  16.6425  16.7012  16.7866  16.7917
    16.8485  16.8586  16.8840  16.9555  16.9882  16.9895  17.0233  17.0507
    17.1116  17.1595  17.2057  17.2494  17.2941  17.3167  17.3587  17.4079
    17.4520  17.4670  17.5301  17.5625  17.6066  17.6405  17.6584  17.6808
    17.7392  17.7536  17.7584  17.8001  17.8338  17.8776  17.8934  17.9176
    17.9824  18.0007  18.0203  18.0725  18.0858  18.0898  18.0989  18.1227
    18.1485  18.1915  18.2052  18.3119  18.3362  18.3886  18.4297  18.4585
    18.4781  18.4944  18.5393  18.5486  18.6024  18.6464  18.7878  18.8655
    19.0331  19.0500  19.0568  19.0861  19.0910  19.1346  19.1371  19.1499
    19.1972  19.2085  19.2326  19.2614  19.2831  19.2847  19.3462  19.3830
    19.4012  19.4188  19.4532  19.4674  19.4919  19.5425  19.6413  19.6555
    19.6666  19.7653  19.8295  19.8935  19.9091  19.9444  19.9641  20.0223
    20.1326  20.1715  20.2023  20.2305  20.2466  20.2753  20.3193  20.3241
    20.3267  20.3442  20.3452  20.3562  20.3771  20.4004  20.5791  20.5933
    20.6369  20.6543  20.7257  20.7330  20.7339  20.7444  20.8497  20.8902
    20.9038  20.9341  21.0079  21.0340  21.0553  21.2095  21.3140  21.3963
    21.5441  21.7270  22.2629  22.4034  23.0003  23.1369  23.2357  23.2817
    23.4057  24.2151  24.7822  24.8529  24.9854  25.7018  25.7174  26.4200
    26.5247  26.5965  26.7566  27.0911  27.1000  28.1302  28.2674  28.6664
    29.1900  29.2395  29.4484  29.5772  29.6941  30.0371  30.0619  30.8242
    30.8808  30.9917  31.0323  31.2720  31.4228  31.4515  31.6824  31.7882
    32.3616  32.4334  32.7462  32.8313  32.9562  32.9834  33.0939

          k = 0.1667 0.1667-0.5000 ( 30122 PWs)   bands (ev):

   -63.5396 -63.5295 -63.5228 -63.5218 -63.4993 -63.4992 -63.4991 -63.4936
   -63.4832 -63.4829 -63.4828 -63.4782 -63.4717 -63.4709 -63.4698 -63.4686
   -63.4552 -63.4540 -63.4521 -63.4209 -63.4119 -63.4112 -63.4068 -63.4010
   -63.3996 -63.3993 -63.3892 -63.3892 -63.3883 -63.3879 -63.3874 -29.4544
   -29.4521 -29.4453 -29.4345 -29.4308 -29.4270 -29.4188 -29.4184 -29.4093
   -29.4008 -29.3951 -29.3920 -29.3908 -29.3832 -29.3814 -29.3736 -29.3710
   -29.3681 -29.3537 -29.3490 -29.3417 -29.3397 -29.3316 -29.3093 -29.2978
   -29.2955 -29.2836 -29.2584 -29.2558 -29.2544 -29.2466 -29.2376 -29.2369
   -29.2368 -29.2234 -29.2144 -29.2097 -29.2086 -29.2056 -29.1800 -29.1747
   -29.1587 -29.1575 -29.1535 -29.1510 -29.1502 -29.1491 -29.1389 -29.1381
   -29.1334 -29.1326 -29.1290 -29.1285 -29.1211 -29.1204 -29.1186 -29.1168
   -29.1135 -29.1112 -29.1073 -29.1028 -29.0963 -29.0935 -29.0917 -29.0878
   -29.0868 -29.0813 -29.0772 -29.0770 -29.0763 -29.0752 -29.0729 -29.0636
   -29.0599 -29.0567 -29.0566 -29.0499 -29.0396 -29.0344 -29.0344 -29.0217
   -29.0124 -29.0072 -29.0050 -28.9942 -28.9902 -28.9898 -28.9892 -28.9798
   -28.9792 -28.9750 -28.9650 -28.9648  14.1386  14.3174  15.3561  15.3801
    15.3832  15.4196  15.4421  15.4676  15.5218  15.5362  15.5381  15.5500
    15.5959  15.6016  15.6128  15.6187  15.6383  15.6806  15.6992  15.7094
    15.8080  15.8606  15.8692  15.8994  15.9269  15.9435  16.0172  16.0450
    16.0624  16.1395  16.2425  16.2704  16.3154  16.3598  16.3695  16.3913
    16.4572  16.5979  16.6137  16.6284  16.6519  16.7003  16.7109  16.7242
    16.7525  16.8140  16.9029  16.9215  16.9254  16.9835  17.0230  17.0648
    17.1196  17.1204  17.2088  17.2503  17.2846  17.3316  17.3485  17.4037
    17.4597  17.4815  17.5093  17.5412  17.6196  17.6359  17.7289  17.7398
    17.7510  17.7516  17.8450  17.8609  17.8632  17.8915  17.9034  17.9251
    17.9352  17.9763  17.9817  17.9975  18.0543  18.0764  18.1001  18.1371
    18.1415  18.2113  18.2239  18.2585  18.3356  18.4685  18.4791  18.5217
    18.5262  18.5990  18.6616  18.7123  18.7323  18.7672  18.7889  18.8416
    18.9440  18.9458  18.9683  19.0290  19.1201  19.1412  19.1547  19.1648
    19.2082  19.2117  19.2160  19.2177  19.2309  19.2989  19.3052  19.3277
    19.3342  19.3376  19.3895  19.3962  19.4123  19.5717  19.6128  19.6327
    19.6533  19.7131  19.8104  19.9409  20.0556  20.0588  20.0743  20.1189
    20.1193  20.1261  20.1473  20.1604  20.1702  20.1754  20.2690  20.3730
    20.3883  20.5209  20.5399  20.5421  20.5436  20.5500  20.5523  20.5564
    20.5774  20.5837  20.5923  20.5981  20.6048  20.6169  20.6546  20.7899
    20.8042  20.8260  21.0036  21.0382  21.0446  21.3925  21.3954  21.7586
    21.7931  21.8016  21.9787  22.4252  22.4974  23.0939  23.1856  23.2166
    23.3815  24.6529  24.6535  25.5384  25.6851  25.6982  25.7868  26.2322
    26.2471  26.5050  26.5509  27.2951  27.3226  27.4363  27.4774  28.8749
    28.9834  29.4950  29.5484  29.6189  29.6342  30.0935  30.3035  30.3301
    30.3353  31.2000  31.2056  31.2391  31.4605  31.8300  31.9321  31.9486
    31.9942  32.0132  32.0302  32.7694  32.9479  32.9788  32.9879

          k = 0.1667 0.2778 0.2778 ( 30156 PWs)   bands (ev):

   -63.5411 -63.5256 -63.5242 -63.5224 -63.5002 -63.4997 -63.4989 -63.4932
   -63.4830 -63.4829 -63.4824 -63.4762 -63.4739 -63.4710 -63.4697 -63.4694
   -63.4542 -63.4541 -63.4524 -63.4211 -63.4116 -63.4097 -63.4085 -63.4003
   -63.4003 -63.3995 -63.3891 -63.3888 -63.3885 -63.3878 -63.3874 -29.4699
   -29.4674 -29.4570 -29.4366 -29.4235 -29.4229 -29.4150 -29.4072 -29.4051
   -29.3982 -29.3943 -29.3867 -29.3823 -29.3810 -29.3716 -29.3711 -29.3662
   -29.3660 -29.3604 -29.3584 -29.3446 -29.3335 -29.3293 -29.3102 -29.2947
   -29.2916 -29.2913 -29.2693 -29.2599 -29.2548 -29.2485 -29.2400 -29.2322
   -29.2240 -29.2140 -29.2057 -29.2011 -29.1961 -29.1869 -29.1840 -29.1775
   -29.1768 -29.1673 -29.1643 -29.1550 -29.1548 -29.1511 -29.1493 -29.1489
   -29.1398 -29.1360 -29.1333 -29.1319 -29.1249 -29.1225 -29.1221 -29.1172
   -29.1151 -29.1064 -29.1016 -29.0962 -29.0960 -29.0941 -29.0910 -29.0895
   -29.0875 -29.0830 -29.0828 -29.0773 -29.0761 -29.0727 -29.0698 -29.0650
   -29.0554 -29.0541 -29.0536 -29.0441 -29.0421 -29.0405 -29.0217 -29.0183
   -29.0150 -29.0079 -29.0022 -28.9997 -28.9946 -28.9909 -28.9896 -28.9767
   -28.9766 -28.9693 -28.9669 -28.9610  13.8670  14.9597  15.0326  15.1829
    15.2473  15.2863  15.3000  15.3671  15.4426  15.4521  15.4821  15.5695
    15.5754  15.6088  15.6921  15.6948  15.7444  15.7821  15.8202  15.8646
    15.9114  15.9318  15.9530  16.0019  16.0167  16.0725  16.0808  16.1341
    16.1413  16.1653  16.1707  16.1941  16.2168  16.2399  16.3048  16.3610
    16.4181  16.4632  16.4892  16.5144  16.5943  16.6423  16.7454  16.8228
    16.8948  16.9228  16.9663  16.9682  16.9984  17.0177  17.0736  17.0811
    17.1383  17.1817  17.2543  17.2901  17.3061  17.3658  17.4185  17.4933
    17.4958  17.5338  17.5471  17.5991  17.6491  17.6790  17.6969  17.7165
    17.7703  17.7745  17.7876  17.8167  17.8367  17.8905  17.9253  17.9369
    17.9754  17.9908  18.0139  18.0362  18.0462  18.0723  18.0734  18.0854
    18.0977  18.1801  18.2094  18.2537  18.2914  18.3312  18.3487  18.3797
    18.4113  18.4314  18.4580  18.5960  18.7087  18.7451  18.7650  18.8121
    18.8353  18.8637  18.9310  19.0198  19.0347  19.0842  19.1026  19.1193
    19.1494  19.1543  19.2123  19.2537  19.2587  19.3319  19.4053  19.4384
    19.4626  19.4786  19.4818  19.4894  19.5106  19.5820  19.6422  19.6744
    19.7285  19.7390  19.8100  19.8390  19.8734  19.9122  19.9623  20.0038
    20.0242  20.1621  20.1823  20.1830  20.2354  20.2986  20.3102  20.3246
    20.3358  20.3474  20.3890  20.4456  20.4989  20.5631  20.5680  20.5889
    20.6414  20.6553  20.7114  20.8269  20.8320  20.8504  20.8789  20.9064
    20.9064  20.9287  20.9625  20.9635  21.0355  21.0504  21.2069  21.2805
    21.4351  21.4978  22.7622  22.8328  22.8870  23.4650  23.5634  23.7516
    23.8299  23.9621  24.1755  24.4583  24.5613  25.5496  25.6377  25.8318
    26.4529  26.9046  26.9587  27.6437  27.6998  27.8847  28.1173  28.7894
    28.8971  29.5438  29.5943  29.6028  29.7281  29.7430  29.8888  30.0220
    30.0416  31.0761  31.0864  31.2537  31.3236  31.3454  32.3161  32.4203
    32.4716  32.7500  32.8021  32.9854  33.0364  33.0954  33.2499

          k = 0.1667 0.2778 0.3889 ( 30187 PWs)   bands (ev):

   -63.5393 -63.5273 -63.5242 -63.5225 -63.5008 -63.5004 -63.4995 -63.4930
   -63.4830 -63.4829 -63.4819 -63.4761 -63.4722 -63.4708 -63.4696 -63.4691
   -63.4548 -63.4543 -63.4527 -63.4219 -63.4118 -63.4095 -63.4076 -63.4003
   -63.3997 -63.3988 -63.3893 -63.3891 -63.3884 -63.3882 -63.3877 -29.4606
   -29.4567 -29.4430 -29.4299 -29.4209 -29.4198 -29.4171 -29.4116 -29.4043
   -29.4027 -29.4011 -29.3919 -29.3910 -29.3836 -29.3803 -29.3771 -29.3754
   -29.3667 -29.3661 -29.3601 -29.3558 -29.3435 -29.3356 -29.3077 -29.2952
   -29.2914 -29.2875 -29.2661 -29.2501 -29.2452 -29.2392 -29.2365 -29.2270
   -29.2252 -29.2201 -29.2080 -29.2034 -29.1949 -29.1936 -29.1817 -29.1736
   -29.1684 -29.1629 -29.1583 -29.1543 -29.1530 -29.1481 -29.1454 -29.1426
   -29.1380 -29.1322 -29.1289 -29.1283 -29.1270 -29.1233 -29.1192 -29.1162
   -29.1132 -29.1104 -29.1086 -29.1028 -29.1002 -29.0958 -29.0946 -29.0909
   -29.0862 -29.0845 -29.0816 -29.0803 -29.0783 -29.0736 -29.0713 -29.0657
[...]
    17.5350  17.5350  17.5791  17.5905  17.5997  17.5997  17.6087  17.6404
    17.6404  17.6631  17.6632  17.7296  17.7418  17.8377  17.8377  17.8510
    17.9297  17.9310  17.9310  18.0341  18.0385  18.0385  18.0971  18.3446
    18.4110  18.4110  18.5356  18.5849  18.7256  18.7283  18.7283  18.7482
    18.7482  18.7541  18.7673  18.7718  18.7750  18.7768  18.7768  18.7844
    18.7889  18.7889  18.8022  18.8072  18.8119  18.8128  18.8128  20.7273
    20.7273  20.7393  20.8337  21.6523  21.7726  21.8882  21.8882  21.9400
    22.0313  22.0619  22.0619  22.9827  23.0734  23.0766  23.0766  23.1528
    23.2450  23.4072  23.4072  24.2672  24.2672  24.3070  24.5818  26.6769
    26.7037  26.7037  26.7428  26.7964  26.7964  26.8246  27.0138  27.0687
    27.3708  27.4095  27.4095  28.8266  28.9682  29.0601  29.0601  29.4790
    29.4814  29.4855  29.4855  29.5835  29.5835  29.6084  29.7446

          k = 0.3790 0.3790 0.3790 ( 32567 PWs)   bands (ev):

   -65.3669 -65.3664 -65.3664 -65.3143 -65.2969 -65.2956 -65.2956 -65.2928
   -65.2875 -65.2875 -65.2855 -65.2840 -65.2708 -65.2708 -65.2706 -65.2706
   -65.2702 -65.2696 -65.2687 -65.2687 -65.2655 -65.2653 -65.2653 -65.2605
   -65.2605 -65.2604 -65.2604 -65.2603 -65.2463 -65.2463 -65.2461 -31.2120
   -31.2120 -31.2015 -31.2015 -31.2001 -31.1932 -31.1820 -31.1789 -31.1789
   -31.1703 -31.1660 -31.1660 -31.1601 -31.1575 -31.1575 -31.1457 -31.1457
   -31.1320 -31.1245 -31.1245 -31.1228 -31.1015 -31.0879 -31.0750 -31.0750
   -31.0630 -31.0630 -31.0556 -31.0397 -31.0397 -31.0362 -31.0323 -31.0254
   -31.0232 -31.0232 -31.0099 -31.0099 -31.0097 -31.0076 -31.0076 -30.9997
   -30.9896 -30.9896 -30.9835 -30.9835 -30.9810 -30.9810 -30.9795 -30.9754
   -30.9703 -30.9679 -30.9679 -30.9622 -30.9612 -30.9612 -30.9548 -30.9478
   -30.9469 -30.9469 -30.9460 -30.9445 -30.9445 -30.9369 -30.9360 -30.9360
   -30.9312 -30.9312 -30.9307 -30.9291 -30.9290 -30.9290 -30.9249 -30.9223
   -30.9223 -30.8903 -30.8903 -30.8864 -30.8864 -30.8864 -30.8830 -30.8643
   -30.8623 -30.8623 -30.8600 -30.8578 -30.8578 -30.8568 -30.8568 -30.8485
   -30.8485 -30.8357 -30.8343 -30.8343  13.0268  13.4210  13.4210  13.4773
    13.6781  13.6781  13.7029  13.8862  14.1354  14.1403  14.1403  14.2337
    14.2470  14.2470  14.2896  14.2896  14.3034  14.3193  14.3240  14.3240
    14.3419  14.3490  14.3490  14.3720  14.3720  14.3936  14.5062  14.5062
    14.5449  14.5449  14.5813  14.6857  14.7694  14.7694  14.8231  14.9116
    14.9333  14.9518  14.9518  14.9620  14.9620  15.0660  15.0660  15.0691
    15.1991  15.2399  15.2399  15.2479  15.2796  15.2796  15.3289  15.3973
    15.3973  15.4556  15.6963  15.6963  15.7251  15.8276  15.8276  15.8799
    16.0288  16.0288  16.0776  16.2213  16.2213  16.2467  16.2467  16.2608
    16.2795  16.2795  16.2803  16.3034  16.3034  16.3244  16.3244  16.3287
    16.3362  16.3483  16.3483  16.3850  16.4045  16.4045  16.4085  16.4390
    16.4516  16.4516  16.5179  16.5280  16.5280  16.5471  16.5599  16.5599
    16.6427  16.6427  16.6786  16.6786  16.7003  16.7782  16.8040  16.8162
    16.8162  16.9304  17.0585  17.0585  17.0982  17.0982  17.1396  17.1484
    17.1484  17.1552  17.1776  17.2252  17.2252  17.2871  17.2871  17.4030
    17.4096  17.4840  17.4840  17.4999  17.5130  17.5265  17.5265  17.5315
    17.5315  17.5561  17.5561  17.6562  17.6887  17.6887  17.7430  17.7905
    17.7905  17.9277  17.9571  17.9571  18.0555  18.1062  18.1062  18.3925
    18.3975  18.3975  18.5613  18.5613  18.7041  18.7344  18.7344  18.7510
    18.7510  18.7568  18.7691  18.7769  18.7769  18.7983  18.8101  18.8101
    18.8231  18.8231  18.8320  18.8381  18.8576  18.8576  18.9055  20.9216
    20.9216  21.0057  21.5589  21.5589  21.7450  21.7557  21.7557  21.9185
    22.0632  22.1575  22.1575  22.5757  22.7043  22.7043  23.4084  23.4084
    23.5113  23.6060  23.6232  23.6232  23.9097  23.9097  24.2369  26.3807
    26.4214  26.4214  27.0921  27.0921  27.2211  27.5377  27.5377  27.7021
    27.7547  27.7886  27.7886  28.4206  28.4206  28.5404  28.6444  28.6506
    28.6506  29.0405  29.0405  29.0865  29.9429  29.9429  29.9922

          k = 0.3790 0.3790-0.4873 ( 32570 PWs)   bands (ev):

   -65.3668 -65.3666 -65.3664 -65.3141 -65.2966 -65.2960 -65.2953 -65.2931
   -65.2881 -65.2872 -65.2864 -65.2841 -65.2707 -65.2707 -65.2703 -65.2699
   -65.2699 -65.2695 -65.2687 -65.2681 -65.2659 -65.2651 -65.2651 -65.2609
   -65.2608 -65.2607 -65.2605 -65.2603 -65.2463 -65.2463 -65.2462 -31.2104
   -31.2103 -31.2050 -31.2024 -31.2007 -31.1904 -31.1810 -31.1794 -31.1778
   -31.1733 -31.1687 -31.1637 -31.1610 -31.1609 -31.1590 -31.1458 -31.1455
   -31.1327 -31.1267 -31.1249 -31.1242 -31.0900 -31.0889 -31.0775 -31.0693
   -31.0625 -31.0602 -31.0559 -31.0391 -31.0361 -31.0357 -31.0310 -31.0273
   -31.0164 -31.0159 -31.0158 -31.0120 -31.0114 -31.0068 -31.0014 -31.0005
   -30.9920 -30.9901 -30.9896 -30.9817 -30.9812 -30.9806 -30.9803 -30.9762
   -30.9714 -30.9694 -30.9677 -30.9640 -30.9627 -30.9624 -30.9595 -30.9481
   -30.9478 -30.9466 -30.9460 -30.9442 -30.9440 -30.9393 -30.9387 -30.9338
   -30.9334 -30.9320 -30.9317 -30.9309 -30.9308 -30.9279 -30.9251 -30.9238
   -30.9232 -30.8876 -30.8875 -30.8873 -30.8870 -30.8845 -30.8837 -30.8618
   -30.8617 -30.8616 -30.8593 -30.8590 -30.8573 -30.8567 -30.8560 -30.8485
   -30.8471 -30.8363 -30.8343 -30.8334  13.1880  13.2514  13.5072  13.5168
    13.5691  13.6386  13.6852  13.8707  14.1913  14.1986  14.2066  14.2072
    14.2136  14.2260  14.2663  14.2721  14.2760  14.2995  14.3176  14.3257
    14.3329  14.3377  14.3449  14.3579  14.3709  14.3830  14.4961  14.4987
    14.5835  14.6100  14.6312  14.7281  14.7306  14.8467  14.8560  14.8567
    14.9016  14.9374  15.0043  15.0292  15.0362  15.0663  15.0685  15.1128
    15.1204  15.1275  15.1871  15.2331  15.2714  15.2912  15.3359  15.3621
    15.3768  15.3786  15.6662  15.6970  15.7669  15.8863  15.9156  15.9396
    15.9567  15.9610  16.2171  16.2442  16.2579  16.2634  16.2858  16.3008
    16.3025  16.3086  16.3105  16.3298  16.3315  16.3327  16.3395  16.3401
    16.3443  16.3510  16.3764  16.3849  16.3940  16.3967  16.3972  16.4064
    16.4187  16.4238  16.4259  16.4756  16.5047  16.5345  16.5541  16.5585
    16.6317  16.6680  16.6699  16.6930  16.7767  16.8200  16.8502  16.8539
    16.8948  16.9017  16.9126  16.9289  16.9541  17.0228  17.0483  17.1668
    17.1789  17.1893  17.2323  17.2827  17.2934  17.3062  17.3185  17.3195
    17.3245  17.3387  17.4250  17.4686  17.4806  17.5087  17.5362  17.5697
    17.5859  17.5925  17.6093  17.6111  17.6250  17.6508  17.6676  17.8007
    17.8083  17.8634  17.9183  17.9466  17.9556  17.9796  18.0409  18.3868
    18.3975  18.4120  18.5578  18.5722  18.7470  18.7618  18.7671  18.7794
    18.7890  18.7967  18.7967  18.8064  18.8150  18.8168  18.8204  18.8243
    18.8248  18.8268  18.8372  18.8505  18.8515  18.8719  18.8837  21.2534
    21.2625  21.2856  21.3863  21.6787  21.7679  21.8733  21.8921  21.9800
    21.9906  22.4550  22.5525  22.6246  22.7362  22.9695  23.0147  23.0329
    23.0673  23.1670  23.2760  23.7133  23.7510  23.7905  24.0050  26.6662
    26.7737  26.8883  26.9234  26.9745  27.0585  27.6780  27.7398  27.7752
    27.8472  28.0083  28.0292  28.0519  28.3243  28.3279  28.3385  28.3809
    28.4164  29.1852  29.2153  29.2173  29.3059  29.3954  29.5684

          k = 0.3790-0.4873-0.4873 ( 32548 PWs)   bands (ev):

   -65.3666 -65.3666 -65.3666 -65.3139 -65.2962 -65.2962 -65.2955 -65.2933
   -65.2877 -65.2877 -65.2876 -65.2840 -65.2703 -65.2702 -65.2702 -65.2694
   -65.2694 -65.2693 -65.2683 -65.2683 -65.2656 -65.2656 -65.2649 -65.2611
   -65.2610 -65.2608 -65.2608 -65.2606 -65.2463 -65.2463 -65.2463 -31.2106
   -31.2093 -31.2044 -31.2032 -31.2032 -31.1890 -31.1796 -31.1796 -31.1776
   -31.1704 -31.1704 -31.1688 -31.1623 -31.1612 -31.1612 -31.1465 -31.1456
   -31.1335 -31.1270 -31.1260 -31.1260 -31.0859 -31.0756 -31.0735 -31.0735
   -31.0591 -31.0591 -31.0581 -31.0375 -31.0349 -31.0349 -31.0318 -31.0230
   -31.0124 -31.0124 -31.0118 -31.0110 -31.0110 -31.0044 -31.0044 -31.0020
   -30.9958 -30.9947 -30.9911 -30.9857 -30.9857 -30.9775 -30.9775 -30.9764
   -30.9714 -30.9711 -30.9699 -30.9653 -30.9653 -30.9649 -30.9643 -30.9502
   -30.9461 -30.9455 -30.9445 -30.9445 -30.9444 -30.9400 -30.9400 -30.9371
   -30.9342 -30.9332 -30.9327 -30.9309 -30.9309 -30.9271 -30.9254 -30.9250
   -30.9250 -30.8870 -30.8870 -30.8864 -30.8842 -30.8835 -30.8835 -30.8614
   -30.8608 -30.8590 -30.8590 -30.8583 -30.8581 -30.8564 -30.8564 -30.8474
   -30.8457 -30.8354 -30.8354 -30.8327  13.3441  13.3552  13.3552  13.4329
    13.6059  13.6100  13.6100  13.8533  14.2231  14.2231  14.2387  14.2446
    14.2446  14.2455  14.2499  14.2548  14.2577  14.2676  14.2676  14.2951
    14.3139  14.3139  14.3332  14.3629  14.3655  14.3655  14.4891  14.4971
    14.6246  14.6391  14.6391  14.8034  14.8885  14.9011  14.9011  14.9027
    14.9106  14.9514  14.9618  14.9618  15.0220  15.0220  15.0283  15.0823
    15.1786  15.2200  15.2200  15.2332  15.2357  15.2648  15.2648  15.2941
    15.2941  15.3098  15.6461  15.6756  15.8154  15.9271  15.9314  15.9314
    16.1228  16.1355  16.1355  16.1722  16.2517  16.2536  16.2740  16.2740
    16.2867  16.3010  16.3014  16.3014  16.3208  16.3208  16.3242  16.3313
    16.3496  16.3496  16.3954  16.3954  16.4029  16.4071  16.4227  16.4383
    16.4479  16.4687  16.4687  16.5161  16.5384  16.5384  16.5683  16.6105
    16.6105  16.6605  16.6670  16.6842  16.6982  16.7331  16.7331  16.7684
    16.9181  16.9801  16.9801  16.9894  17.0275  17.0700  17.0725  17.0725
    17.1178  17.1178  17.1457  17.2354  17.2594  17.3253  17.3253  17.3526
    17.3916  17.3916  17.3937  17.4327  17.4327  17.4338  17.4540  17.5324
    17.5325  17.5325  17.5743  17.6013  17.6447  17.7280  17.7312  17.7312
    17.7551  17.8294  17.8294  17.9004  17.9004  17.9046  17.9071  18.3937
    18.4118  18.4118  18.5609  18.5752  18.7895  18.7913  18.7913  18.8129
    18.8129  18.8179  18.8301  18.8319  18.8319  18.8324  18.8358  18.8411
    18.8530  18.8538  18.8538  18.8566  18.8688  18.8688  18.8722  21.5327
    21.5327  21.5747  21.6087  21.9391  22.0070  22.1376  22.1376  22.1938
    22.2410  22.2410  22.3583  22.6807  22.7278  22.7689  22.7689  22.8302
    22.8557  23.1136  23.1136  23.3837  23.3915  23.3915  23.6949  27.2328
    27.2608  27.2608  27.2906  27.3251  27.3251  27.3686  27.4079  27.4657
    27.6986  27.6986  27.7552  28.3000  28.4575  28.5829  28.5829  28.6654
    28.6740  28.6855  28.6855  28.7929  28.7929  28.8158  29.0184

          k =-0.4873-0.4873-0.4873 ( 32344 PWs)   bands (ev):

   -65.3666 -65.3666 -65.3666 -65.3137 -65.2960 -65.2960 -65.2960 -65.2929
   -65.2883 -65.2883 -65.2883 -65.2839 -65.2694 -65.2694 -65.2694 -65.2694
   -65.2694 -65.2685 -65.2685 -65.2685 -65.2655 -65.2655 -65.2655 -65.2611
   -65.2611 -65.2610 -65.2610 -65.2610 -65.2464 -65.2464 -65.2464 -31.2103
   -31.2103 -31.2041 -31.2041 -31.2041 -31.1880 -31.1788 -31.1788 -31.1788
   -31.1686 -31.1686 -31.1686 -31.1644 -31.1644 -31.1644 -31.1467 -31.1467
   -31.1341 -31.1272 -31.1272 -31.1272 -31.0823 -31.0663 -31.0663 -31.0663
   -31.0574 -31.0574 -31.0574 -31.0391 -31.0334 -31.0334 -31.0334 -31.0172
   -31.0172 -31.0172 -31.0062 -31.0062 -31.0062 -31.0019 -31.0019 -31.0019
   -30.9956 -30.9956 -30.9956 -30.9951 -30.9951 -30.9759 -30.9754 -30.9754
   -30.9754 -30.9713 -30.9713 -30.9694 -30.9670 -30.9670 -30.9670 -30.9458
   -30.9447 -30.9447 -30.9447 -30.9444 -30.9444 -30.9424 -30.9424 -30.9424
   -30.9345 -30.9345 -30.9345 -30.9282 -30.9282 -30.9282 -30.9266 -30.9266
   -30.9266 -30.8866 -30.8866 -30.8866 -30.8818 -30.8818 -30.8818 -30.8595
   -30.8595 -30.8589 -30.8589 -30.8589 -30.8567 -30.8567 -30.8567 -30.8450
   -30.8450 -30.8344 -30.8344 -30.8344  13.4303  13.4483  13.4483  13.4483
    13.5031  13.5031  13.5031  13.8282  14.2261  14.2261  14.2261  14.2466
    14.2466  14.2466  14.2544  14.2544  14.2809  14.2873  14.2873  14.2873
    14.3072  14.3072  14.3072  14.3356  14.3356  14.3356  14.4903  14.4903
    14.6537  14.6537  14.6537  14.8236  14.9363  15.0070  15.0070  15.0070
    15.0302  15.0302  15.0544  15.0544  15.0544  15.0618  15.0618  15.0618
    15.1152  15.1282  15.1282  15.1282  15.1455  15.1455  15.1455  15.2548
    15.2548  15.2548  15.6344  15.6344  15.9470  16.0306  16.0306  16.0306
    16.0651  16.0691  16.0691  16.0691  16.2441  16.2441  16.2843  16.2843
    16.2843  16.2877  16.2877  16.2877  16.3128  16.3128  16.3128  16.3966
    16.3966  16.3966  16.4428  16.4428  16.4557  16.4557  16.4557  16.4770
    16.4770  16.4770  16.4786  16.5092  16.5092  16.5092  16.5297  16.5297
    16.5297  16.5960  16.5960  16.6999  16.6999  16.7130  16.7130  16.7130
    16.9191  17.0667  17.0667  17.0667  17.1763  17.1763  17.1763  17.1955
    17.1955  17.1955  17.1992  17.1992  17.2104  17.2104  17.2104  17.2436
    17.2436  17.2436  17.2690  17.3122  17.3438  17.3438  17.3438  17.5508
    17.5508  17.6175  17.6175  17.6175  17.6926  17.6926  17.7036  17.7036
    17.7036  17.7379  17.7379  17.7379  17.8527  17.8527  17.8527  18.4145
    18.4145  18.4145  18.5713  18.5713  18.8177  18.8177  18.8177  18.8390
    18.8390  18.8390  18.8539  18.8539  18.8560  18.8560  18.8560  18.8675
    18.8681  18.8681  18.8681  18.8688  18.8846  18.8846  18.8846  22.1632
    22.1632  22.1632  22.1970  22.1970  22.4500  22.4500  22.4500  22.4521
    22.4521  22.4521  22.4666  22.4666  22.4666  22.4710  22.4710  22.4874
    22.5287  22.5287  22.5287  22.7695  23.0358  23.0358  23.0358  27.7117
    27.7117  27.7117  27.8525  27.8615  27.8615  27.9318  27.9318  27.9475
    27.9475  27.9475  27.9564  27.9564  27.9564  27.9631  27.9631  27.9631
    28.2412  28.2412  28.2412  28.2966  28.2966  28.2966  28.4482

     the Fermi energy is    18.8311 ev

!    total energy              =  -15872.83719747 Ry

     total all-electron energy =   -312853.664226 Ry
     estimated scf accuracy    <          6.6E-09 Ry
     smearing contrib. (-TS)   =       0.04244411 Ry
     internal energy E=F+TS    =  -15872.87964158 Ry

     The total energy is F=E-TS. E is the sum of the following terms:
     one-electron contribution =   -2574.86933561 Ry
     hartree contribution      =    1682.86258279 Ry
     xc contribution           =    -955.63567576 Ry
     ewald contribution        =   -6113.04402638 Ry
     one-center paw contrib.   =   -7912.19318663 Ry

     convergence has been achieved in  20 iterations

     Forces acting on atoms (cartesian axes, Ry/au):

     atom    1 type  1   force =     0.00020266    0.00020266    0.00000000
     atom    2 type  1   force =     0.00020266   -0.00000000    0.00020266
     atom    3 type  1   force =     0.00000000    0.00020266    0.00020266
     atom    4 type  1   force =     0.00000000    0.00000000    0.00000000
     atom    5 type  1   force =    -0.00027349   -0.00027349    0.00000000
     atom    6 type  1   force =     0.00020266    0.00000000   -0.00020266
     atom    7 type  1   force =    -0.00000000    0.00020266   -0.00020266
     atom    8 type  1   force =     0.00000000    0.00000000    0.00000000
     atom    9 type  1   force =     0.00020266   -0.00020266   -0.00000000
     atom   10 type  1   force =    -0.00027349    0.00000000   -0.00027349
     atom   11 type  1   force =    -0.00000000   -0.00020266    0.00020266
     atom   12 type  1   force =     0.00000000    0.00000000    0.00000000
     atom   13 type  1   force =    -0.00027349    0.00027349    0.00000000
     atom   14 type  1   force =    -0.00027349    0.00000000    0.00027349
     atom   15 type  1   force =     0.00000000   -0.00020266   -0.00020266
     atom   16 type  1   force =     0.00000000    0.00000000    0.00000000
     atom   17 type  1   force =    -0.00020266    0.00020266   -0.00000000
     atom   18 type  1   force =    -0.00020266    0.00000000    0.00020266
     atom   19 type  1   force =     0.00000000   -0.00027349   -0.00027349
     atom   20 type  1   force =     0.00000000    0.00000000    0.00000000
     atom   21 type  1   force =     0.00027349   -0.00027349    0.00000000
     atom   22 type  1   force =    -0.00020266   -0.00000000   -0.00020266
     atom   23 type  1   force =     0.00000000   -0.00027349    0.00027349
     atom   24 type  1   force =     0.00000000    0.00000000    0.00000000
     atom   25 type  1   force =    -0.00020266   -0.00020266    0.00000000
     atom   26 type  1   force =     0.00027349    0.00000000   -0.00027349
     atom   27 type  1   force =     0.00000000    0.00027349   -0.00027349
     atom   28 type  1   force =     0.00000000    0.00000000    0.00000000
     atom   29 type  1   force =     0.00027349    0.00027349    0.00000000
     atom   30 type  1   force =     0.00027349    0.00000000    0.00027349
     atom   31 type  1   force =     0.00000000    0.00027349    0.00027349

     Total force =     0.001668     Total SCF correction =     0.000339
     SCF correction compared to forces is large: reduce conv_thr to get better values


     Computing stress (Cartesian axis) and pressure

          total   stress  (Ry/bohr**3)                   (kbar)     P=        3.16
   0.00002146   0.00000000   0.00000000            3.16        0.00        0.00
   0.00000000   0.00002146   0.00000000            0.00        3.16        0.00
   0.00000000   0.00000000   0.00002146            0.00        0.00        3.16


     Writing output data file /scratch/pdvacancy2.save/
 
     init_run     :     20.48s CPU     21.03s WALL (       2 calls)
     electrons    :   4772.84s CPU   4832.30s WALL (       8 calls)
     update_pot   :      2.18s CPU      2.24s WALL (       6 calls)
     forces       :     44.25s CPU     44.83s WALL (       8 calls)
     stress       :    260.95s CPU    263.21s WALL (       8 calls)

     Called by init_run:
     wfcinit      :     18.99s CPU     19.43s WALL (       2 calls)
     potinit      :      0.35s CPU      0.37s WALL (       2 calls)
     hinit0       :      0.71s CPU      0.72s WALL (       2 calls)

     Called by electrons:
     c_bands      :   4216.35s CPU   4263.44s WALL (     141 calls)
     sum_band     :    539.31s CPU    548.92s WALL (     141 calls)
     v_of_rho     :      1.89s CPU      2.02s WALL (     148 calls)
     newd         :      3.21s CPU      4.62s WALL (     148 calls)
     PAW_pot      :     12.22s CPU     13.13s WALL (     154 calls)
     mix_rho      :      0.61s CPU      0.71s WALL (     141 calls)

     Called by c_bands:
     init_us_2    :     20.93s CPU     21.25s WALL (   10710 calls)
     cegterg      :   4140.21s CPU   4185.79s WALL (    4935 calls)

     Called by *egterg:
     cdiaghg      :    470.30s CPU    473.33s WALL (   16412 calls)
     h_psi        :   2263.36s CPU   2296.94s WALL (   16727 calls)
     s_psi        :    173.78s CPU    175.01s WALL (   16727 calls)
     g_psi        :      5.11s CPU      5.19s WALL (   11722 calls)

     Called by h_psi:
     h_psi:calbec :    326.31s CPU    328.51s WALL (   16727 calls)
     vloc_psi     :   1754.86s CPU   1782.73s WALL (   16727 calls)
     add_vuspsi   :    168.77s CPU    172.15s WALL (   16727 calls)

     General routines
     calbec       :    547.50s CPU    551.43s WALL (   23272 calls)
     fft          :      1.98s CPU      2.07s WALL (    2115 calls)
     ffts         :      0.19s CPU      0.20s WALL (     289 calls)
     fftw         :   2045.22s CPU   2078.01s WALL ( 9702015 calls)
     interpolate  :      0.26s CPU      0.29s WALL (     148 calls)
 
     Parallel routines
     fft_scatt_xy :    168.11s CPU    170.80s WALL ( 9704419 calls)
     fft_scatt_yz :   1590.53s CPU   1616.45s WALL ( 9704419 calls)
 
     PWSCF        :      1h25m CPU      1h26m WALL

 
   This run was terminated on:   7:23:37   4Jan2022            

=------------------------------------------------------------------------------=
   JOB DONE.
=------------------------------------------------------------------------------=
