
     Program PWSCF v.6.7MaX starts on 29May2022 at 14:27:25 

     This program is part of the open-source Quantum ESPRESSO suite
     for quantum simulation of materials; please cite
         "P. Giannozzi et al., J. Phys.:Condens. Matter 21 395502 (2009);
         "P. Giannozzi et al., J. Phys.:Condens. Matter 29 465901 (2017);
          URL http://www.quantum-espresso.org", 
     in publications or presentations arising from this work. More details at
     http://www.quantum-espresso.org/quote

     Parallel version (MPI & OpenMP), running on      72 processor cores
     Number of MPI processes:                72
     Threads/MPI process:                     1

     MPI processes distributed on     1 nodes
     R & G space division:  proc/nbgrp/npool/nimage =      72
     Reading input from feruslabB.in
Warning: card &CELL ignored
Warning: card CELL_DYNAMICS = 'BFGS', ignored
Warning: card CELL_FACTOR = 2.0, ignored
Warning: card PRESS = 0.0, ignored
Warning: card / ignored

     Current dimensions of program PWSCF are:
     Max number of different atomic species (ntypx) = 10
     Max number of k-points (npk) =  40000
     Max angular momentum in pseudopotentials (lmaxx) =  3
     file Fe.pbe-spn-kjpaw_psl.1.0.0.UPF: wavefunction(s)  3P 3D renormalized
     file Fe.pbe-spn-kjpaw_psl.1.0.0.UPF: wavefunction(s)  3P 3D renormalized
     file Ru.pbe-spn-kjpaw_psl.1.0.0.UPF: wavefunction(s)  4D renormalized

     gamma-point specific algorithms are used

     Subspace diagonalization in iterative solution of the eigenvalue problem:
     one sub-group per band group will be used
     ELPA distributed-memory algorithm (size of sub-group:  8*  8 procs)

 
     Parallelization info
     --------------------
     sticks:   dense  smooth     PW     G-vecs:    dense   smooth      PW
     Min         333     220     53                38016    20412    2546
     Max         336     222     56                38038    20426    2560
     Sum       24049   15899   3985              2738239  1469969  183817
 


     bravais-lattice index     =            0
     lattice parameter (alat)  =      25.8600  a.u.
     unit-cell volume          =   18186.5006 (a.u.)^3
     number of atoms/cell      =          128
     number of atomic types    =            3
     number of electrons       =      2048.00
     number of Kohn-Sham states=         1229
     kinetic-energy cutoff     =      71.0000  Ry
     charge density cutoff     =     430.0000  Ry
     scf convergence threshold =      1.0E-08
     mixing beta               =       0.3000
     number of iterations used =           10  local-TF  mixing
     Exchange-correlation= SLA  PW   PBX  PBC
                           (   1   4   3   4   0   0   0)

     celldm(1)=  25.860000  celldm(2)=   0.000000  celldm(3)=   0.000000
     celldm(4)=   0.000000  celldm(5)=   0.000000  celldm(6)=   0.000000

     crystal axes: (cart. coord. in units of alat)
               a(1) = (   1.000000   0.000000   0.000000 )  
               a(2) = (   0.000000   1.051631   0.000000 )  
               a(3) = (   0.000000   0.000000   1.000000 )  

     reciprocal axes: (cart. coord. in units 2 pi/alat)
               b(1) = (  1.000000  0.000000  0.000000 )  
               b(2) = (  0.000000  0.950903  0.000000 )  
               b(3) = (  0.000000  0.000000  1.000000 )  


     PseudoPot. # 1 for Fe read from file:
     /rds/homes/b/bxp912/pp/Fe.pbe-spn-kjpaw_psl.1.0.0.UPF
     MD5 check sum: 42f43b795421b414b0dc916aa790dbcb
     Pseudo is Projector augmented-wave + core cor, Zval = 16.0
     Generated using &quot;atomic&quot; code by A. Dal Corso  v.6.3
     Shape of augmentation charge: PSQ
     Using radial grid of 1191 points,  6 beta functions with: 
                l(1) =   0
                l(2) =   0
                l(3) =   1
                l(4) =   1
                l(5) =   2
                l(6) =   2
     Q(r) pseudized with 0 coefficients 


     PseudoPot. # 2 for Fe read from file:
     /rds/homes/b/bxp912/pp/Fe.pbe-spn-kjpaw_psl.1.0.0.UPF
     MD5 check sum: 42f43b795421b414b0dc916aa790dbcb
     Pseudo is Projector augmented-wave + core cor, Zval = 16.0
     Generated using &quot;atomic&quot; code by A. Dal Corso  v.6.3
     Shape of augmentation charge: PSQ
     Using radial grid of 1191 points,  6 beta functions with: 
                l(1) =   0
                l(2) =   0
                l(3) =   1
                l(4) =   1
                l(5) =   2
                l(6) =   2
     Q(r) pseudized with 0 coefficients 


     PseudoPot. # 3 for Ru read from file:
     /rds/homes/b/bxp912/pp/Ru.pbe-spn-kjpaw_psl.1.0.0.UPF
     MD5 check sum: 0ae1f594dea09af7be8575c3a481d1ae
     Pseudo is Projector augmented-wave + core cor, Zval = 16.0
     Generated using "atomic" code by A. Dal Corso  v.5.1
     Shape of augmentation charge: PSQ
     Using radial grid of 1233 points,  6 beta functions with: 
                l(1) =   0
                l(2) =   0
                l(3) =   1
                l(4) =   1
                l(5) =   2
                l(6) =   2
     Q(r) pseudized with 0 coefficients 


     atomic species   valence    mass     pseudopotential
        Fe1           16.00    55.84500     Fe( 1.00)
        Fe2           16.00    55.84500     Fe( 1.00)
        Ru            16.00   101.07000     Ru( 1.00)

     Starting magnetic structure 
     atomic species   magnetization
        Fe1          0.100
        Fe2         -0.100
        Ru           0.001

     No symmetry found



   Cartesian axes

     site n.     atom                  positions (alat units)
         1           Ru  tau(   1) = (   0.0625059   0.0657779   0.2910260  )
         2           Fe2 tau(   2) = (   0.1918897   0.2014172   0.3118918  )
         3           Fe1 tau(   3) = (   0.1882328   0.0656869   0.4358379  )
         4           Fe2 tau(   4) = (   0.0624775   0.1970719   0.4359471  )
         5           Fe1 tau(   5) = (   0.0624549   0.0656597   0.5661003  )
         6           Fe2 tau(   6) = (   0.1871430   0.1965451   0.5642273  )
         7           Fe1 tau(   7) = (   0.1889127   0.0656324   0.6868723  )
         8           Fe2 tau(   8) = (   0.0625044   0.1953941   0.6845946  )
         9           Fe1 tau(   9) = (   0.0624492   0.3290082   0.3162931  )
        10           Fe2 tau(  10) = (   0.1878214   0.4592247   0.3140372  )
        11           Fe1 tau(  11) = (   0.1883843   0.3293589   0.4358220  )
        12           Fe2 tau(  12) = (   0.0624760   0.4596378   0.4342728  )
        13           Fe1 tau(  13) = (   0.0624920   0.3282674   0.5642399  )
        14           Fe2 tau(  14) = (   0.1874818   0.4600075   0.5644807  )
        15           Fe1 tau(  15) = (   0.1868970   0.3281618   0.6858748  )
        16           Fe2 tau(  16) = (   0.0624936   0.4605212   0.6849404  )
        17           Fe1 tau(  17) = (   0.0625024   0.5915716   0.3157343  )
        18           Fe2 tau(  18) = (   0.1879142   0.7239319   0.3139752  )
        19           Fe1 tau(  19) = (   0.1872820   0.5915469   0.4358293  )
        20           Fe2 tau(  20) = (   0.0624835   0.7235138   0.4342323  )
        21           Fe1 tau(  21) = (   0.0624907   0.5915302   0.5645538  )
        22           Fe2 tau(  22) = (   0.1874919   0.7231202   0.5644793  )
        23           Fe1 tau(  23) = (   0.1874063   0.5915279   0.6856542  )
        24           Fe2 tau(  24) = (   0.0625142   0.7225942   0.6849283  )
        25           Fe1 tau(  25) = (   0.0624543   0.8539987   0.3163316  )
        26           Fe2 tau(  26) = (   0.1918142   0.9816207   0.3118943  )
        27           Fe1 tau(  27) = (   0.1884013   0.8536921   0.4358345  )
        28           Fe2 tau(  28) = (   0.0624649   0.9860452   0.4359182  )
        29           Fe1 tau(  29) = (   0.0624985   0.8547814   0.5642264  )
        30           Fe2 tau(  30) = (   0.1871332   0.9865130   0.5642305  )
        31           Fe1 tau(  31) = (   0.1869002   0.8548778   0.6858783  )
        32           Fe2 tau(  32) = (   0.0624558   0.9876052   0.6846415  )
        33           Fe1 tau(  33) = (   0.3125283   0.0656767   0.3153241  )
        34           Fe2 tau(  34) = (   0.4366043   0.1971699   0.3142072  )
        35           Fe1 tau(  35) = (   0.4374422   0.0657131   0.4355769  )
        36           Fe2 tau(  36) = (   0.3125894   0.1975774   0.4358271  )
        37           Fe1 tau(  37) = (   0.3120225   0.0656827   0.5647659  )
        38           Fe2 tau(  38) = (   0.4378242   0.1969597   0.5645465  )
        39           Fe1 tau(  39) = (   0.4382670   0.0656506   0.6865253  )
        40           Fe2 tau(  40) = (   0.3128280   0.1968527   0.6838988  )
        41           Fe1 tau(  41) = (   0.3143566   0.3300848   0.3168881  )
        42           Fe2 tau(  42) = (   0.4380142   0.4607661   0.3143143  )
        43           Fe1 tau(  43) = (   0.4381801   0.3288131   0.4365576  )
        44           Fe2 tau(  44) = (   0.3127566   0.4604807   0.4354136  )
        45           Fe1 tau(  45) = (   0.3125129   0.3287898   0.5653541  )
        46           Fe2 tau(  46) = (   0.4375258   0.4601913   0.5648721  )
        47           Fe1 tau(  47) = (   0.4372527   0.3286868   0.6863403  )
        48           Fe2 tau(  48) = (   0.3121639   0.4602999   0.6850825  )
        49           Fe1 tau(  49) = (   0.3122461   0.5915191   0.3156420  )
        50           Fe2 tau(  50) = (   0.4379749   0.7223781   0.3143454  )
        51           Fe1 tau(  51) = (   0.4374235   0.5915294   0.4359555  )
        52           Fe2 tau(  52) = (   0.3127687   0.7226645   0.4354242  )
        53           Fe1 tau(  53) = (   0.3124200   0.5915220   0.5650306  )
        54           Fe2 tau(  54) = (   0.4375286   0.7229381   0.5648768  )
        55           Fe1 tau(  55) = (   0.4377002   0.5915143   0.6861050  )
        56           Fe2 tau(  56) = (   0.3121736   0.7228110   0.6850814  )
        57           Fe1 tau(  57) = (   0.3144103   0.8531069   0.3169355  )
        58           Fe2 tau(  58) = (   0.4366715   0.9859647   0.3142091  )
        59           Fe1 tau(  59) = (   0.4382063   0.8542513   0.4365853  )
        60           Fe2 tau(  60) = (   0.3125895   0.9855573   0.4358131  )
        61           Fe1 tau(  61) = (   0.3125265   0.8542407   0.5653611  )
        62           Fe2 tau(  62) = (   0.4378325   0.9861451   0.5645420  )
        63           Fe1 tau(  63) = (   0.4372699   0.8543597   0.6863681  )
        64           Fe2 tau(  64) = (   0.3128304   0.9861935   0.6838849  )
        65           Fe1 tau(  65) = (   0.5625142   0.0657518   0.3155197  )
        66           Fe2 tau(  66) = (   0.6884275   0.1972393   0.3141685  )
        67           Fe1 tau(  67) = (   0.6875814   0.0657202   0.4355947  )
        68           Fe2 tau(  68) = (   0.5624869   0.1971116   0.4346219  )
        69           Fe1 tau(  69) = (   0.5624665   0.0657032   0.5650370  )
        70           Fe2 tau(  70) = (   0.6871792   0.1969761   0.5645671  )
        71           Fe1 tau(  71) = (   0.6867500   0.0657180   0.6864988  )
        72           Fe2 tau(  72) = (   0.5624490   0.1974414   0.6850771  )
        73           Fe1 tau(  73) = (   0.5624717   0.3284063   0.3152410  )
        74           Fe2 tau(  74) = (   0.6870449   0.4607425   0.3143349  )
        75           Fe1 tau(  75) = (   0.6868481   0.3288285   0.4365528  )
        76           Fe2 tau(  76) = (   0.5624858   0.4602011   0.4356304  )
        77           Fe1 tau(  77) = (   0.5624696   0.3286445   0.5657893  )
        78           Fe2 tau(  78) = (   0.6875184   0.4601922   0.5648814  )
        79           Fe1 tau(  79) = (   0.6877528   0.3286750   0.6863519  )
        80           Fe2 tau(  80) = (   0.5624904   0.4601740   0.6852254  )
        81           Fe1 tau(  81) = (   0.5625021   0.5915534   0.3157218  )
        82           Fe2 tau(  82) = (   0.6870476   0.7223925   0.3143659  )
        83           Fe1 tau(  83) = (   0.6876222   0.5915305   0.4359579  )
        84           Fe2 tau(  84) = (   0.5624842   0.7229418   0.4356372  )
        85           Fe1 tau(  85) = (   0.5624854   0.5915252   0.5649611  )
        86           Fe2 tau(  86) = (   0.6875119   0.7229386   0.5648756  )
        87           Fe1 tau(  87) = (   0.6873472   0.5915288   0.6861004  )
        88           Fe2 tau(  88) = (   0.5624894   0.7229340   0.6852333  )
        89           Fe1 tau(  89) = (   0.5624839   0.8546681   0.3152447  )
        90           Fe2 tau(  90) = (   0.6883906   0.9859399   0.3141765  )
        91           Fe1 tau(  91) = (   0.6868257   0.8542599   0.4365795  )
        92           Fe2 tau(  92) = (   0.5624906   0.9860592   0.4346384  )
        93           Fe1 tau(  93) = (   0.5624785   0.8543838   0.5658206  )
        94           Fe2 tau(  94) = (   0.6872127   0.9861528   0.5645641  )
        95           Fe1 tau(  95) = (   0.6877739   0.8543440   0.6863827  )
        96           Fe2 tau(  96) = (   0.5625026   0.9856437   0.6850466  )
        97           Fe1 tau(  97) = (   0.8124175   0.0656983   0.3153522  )
        98           Fe2 tau(  98) = (   0.9330675   0.2013798   0.3119115  )
        99           Fe1 tau(  99) = (   0.9367576   0.0657035   0.4358350  )
       100           Fe2 tau( 100) = (   0.8123431   0.1975886   0.4358514  )
       101           Fe1 tau( 101) = (   0.8129413   0.0657175   0.5647536  )
       102           Fe2 tau( 102) = (   0.9378744   0.1965738   0.5642378  )
       103           Fe1 tau( 103) = (   0.9360334   0.0657117   0.6868729  )
       104           Fe2 tau( 104) = (   0.8121472   0.1969087   0.6839032  )
       105           Fe1 tau( 105) = (   0.8107129   0.3301075   0.3169261  )
       106           Fe2 tau( 106) = (   0.9371901   0.4592594   0.3140454  )
       107           Fe1 tau( 107) = (   0.9366242   0.3293580   0.4358643  )
       108           Fe2 tau( 108) = (   0.8122145   0.4604953   0.4354371  )
       109           Fe1 tau( 109) = (   0.8124339   0.3288010   0.5653806  )
       110           Fe2 tau( 110) = (   0.9375603   0.4600078   0.5644969  )
       111           Fe1 tau( 111) = (   0.9381634   0.3281476   0.6858955  )
       112           Fe2 tau( 112) = (   0.8128228   0.4602923   0.6850926  )
       113           Fe1 tau( 113) = (   0.8127453   0.5915450   0.3156492  )
       114           Fe2 tau( 114) = (   0.9371598   0.7238976   0.3139999  )
       115           Fe1 tau( 115) = (   0.9377646   0.5915458   0.4358419  )
       116           Fe2 tau( 116) = (   0.8122153   0.7226557   0.4354428  )
       117           Fe1 tau( 117) = (   0.8125580   0.5915265   0.5650413  )
       118           Fe2 tau( 118) = (   0.9375705   0.7231224   0.5644911  )
       119           Fe1 tau( 119) = (   0.9376433   0.5915402   0.6856562  )
       120           Fe2 tau( 120) = (   0.8128215   0.7228073   0.6850820  )
       121           Fe1 tau( 121) = (   0.8106770   0.8530522   0.3170121  )
       122           Fe2 tau( 122) = (   0.9331251   0.9816405   0.3118907  )
       123           Fe1 tau( 123) = (   0.9366253   0.8537026   0.4358875  )
       124           Fe2 tau( 124) = (   0.8123694   0.9855677   0.4358403  )
       125           Fe1 tau( 125) = (   0.8124209   0.8542355   0.5653886  )
       126           Fe2 tau( 126) = (   0.9378693   0.9865197   0.5642632  )
       127           Fe1 tau( 127) = (   0.9381364   0.8548433   0.6858883  )
       128           Fe2 tau( 128) = (   0.8121443   0.9862056   0.6839159  )

     number of k points=     1  Marzari-Vanderbilt smearing, width (Ry)=  0.0400
                       cart. coord. in units 2pi/alat
        k(    1) = (   0.0000000   0.0000000   0.0000000), wk =   1.0000000

     Dense  grid:  1369120 G-vectors     FFT dimensions: ( 180, 180, 180)

     Smooth grid:   734985 G-vectors     FFT dimensions: ( 144, 150, 144)

     Estimated max dynamical RAM per process >     316.28 MB

     Estimated total dynamical RAM >      22.24 GB

     Check: negative core charge=   -0.000004
     Generating pointlists ...
     new r_m :   0.0710 (alat units)  1.8364 (a.u.) for type    1
     new r_m :   0.0713 (alat units)  1.8431 (a.u.) for type    2
     new r_m :   0.0778 (alat units)  2.0119 (a.u.) for type    3

     Initial potential from superposition of free atoms

     starting charge 2047.94379, renormalised to 2048.00000

     negative rho (up, down):  2.063E-04 2.061E-04
     Starting wfcs are 1280 randomized atomic wfcs
     Checking if some PAW data can be deallocated... 

     total cpu time spent up to now is       10.5 secs

     Self-consistent Calculation

     iteration #  1     ecut=    71.00 Ry     beta= 0.30
     Davidson diagonalization with overlap
     ethr =  1.00E-02,  avg # of iterations =  6.5

     negative rho (up, down):  2.010E-01 4.959E+00

     total cpu time spent up to now is       42.9 secs

     total energy              =  -42219.10761524 Ry
     estimated scf accuracy    <    1140.08621188 Ry

     total magnetization       =    -9.42 Bohr mag/cell
     absolute magnetization    =   283.55 Bohr mag/cell

     iteration #  2     ecut=    71.00 Ry     beta= 0.30
     Davidson diagonalization with overlap
     ethr =  1.00E-02,  avg # of iterations =  3.0

     negative rho (up, down):  1.659E-01 4.427E+00

     total cpu time spent up to now is       64.6 secs

     total energy              =  -42223.64042466 Ry
     estimated scf accuracy    <     206.28255111 Ry

     total magnetization       =    -8.56 Bohr mag/cell
     absolute magnetization    =   181.79 Bohr mag/cell

     iteration #  3     ecut=    71.00 Ry     beta= 0.30
     Davidson diagonalization with overlap
     ethr =  1.00E-02,  avg # of iterations =  1.0

     negative rho (up, down):  1.322E-01 4.195E+00

     total cpu time spent up to now is       82.6 secs

     total energy              =  -42236.28174881 Ry
     estimated scf accuracy    <     349.15908072 Ry

     total magnetization       =    -6.15 Bohr mag/cell
     absolute magnetization    =   201.16 Bohr mag/cell

     iteration #  4     ecut=    71.00 Ry     beta= 0.30
     Davidson diagonalization with overlap
     ethr =  1.00E-02,  avg # of iterations =  1.5

     negative rho (up, down):  9.046E-02 3.371E+00

     total cpu time spent up to now is      101.5 secs

     total energy              =  -42240.02707196 Ry
     estimated scf accuracy    <      90.04877680 Ry

     total magnetization       =    -6.58 Bohr mag/cell
     absolute magnetization    =   202.61 Bohr mag/cell

     iteration #  5     ecut=    71.00 Ry     beta= 0.30
     Davidson diagonalization with overlap
     ethr =  4.40E-03,  avg # of iterations =  3.0

     negative rho (up, down):  8.037E-02 3.045E+00

     total cpu time spent up to now is      121.2 secs

     total energy              =  -42241.14836234 Ry
     estimated scf accuracy    <     100.50868898 Ry

     total magnetization       =    -3.78 Bohr mag/cell
     absolute magnetization    =   202.00 Bohr mag/cell

     iteration #  6     ecut=    71.00 Ry     beta= 0.30
     Davidson diagonalization with overlap
     ethr =  4.40E-03,  avg # of iterations =  1.0

     negative rho (up, down):  4.048E-02 1.385E+00

     total cpu time spent up to now is      139.9 secs

     total energy              =  -42242.51518121 Ry
     estimated scf accuracy    <      83.94393953 Ry

     total magnetization       =    -4.08 Bohr mag/cell
     absolute magnetization    =   204.04 Bohr mag/cell

     iteration #  7     ecut=    71.00 Ry     beta= 0.30
     Davidson diagonalization with overlap
     ethr =  4.10E-03,  avg # of iterations =  2.0

     negative rho (up, down):  2.680E-03 2.345E+00

     total cpu time spent up to now is      160.3 secs

     total energy              =  -42237.91780922 Ry
     estimated scf accuracy    <      47.47061151 Ry

     total magnetization       =    -3.86 Bohr mag/cell
     absolute magnetization    =   209.88 Bohr mag/cell

     iteration #  8     ecut=    71.00 Ry     beta= 0.30
     Davidson diagonalization with overlap
     ethr =  2.32E-03,  avg # of iterations =  3.5

     negative rho (up, down):  2.613E-03 2.609E+00

     total cpu time spent up to now is      182.1 secs

     total energy              =  -42240.73065838 Ry
     estimated scf accuracy    <     106.80802825 Ry

     total magnetization       =    -2.48 Bohr mag/cell
     absolute magnetization    =   245.26 Bohr mag/cell

     iteration #  9     ecut=    71.00 Ry     beta= 0.30
     Davidson diagonalization with overlap
     ethr =  2.32E-03,  avg # of iterations =  1.5

     negative rho (up, down):  2.810E-03 2.398E+00

     total cpu time spent up to now is      201.6 secs

     total energy              =  -42241.14851313 Ry
     estimated scf accuracy    <     165.90907162 Ry

     total magnetization       =    -2.89 Bohr mag/cell
     absolute magnetization    =   250.41 Bohr mag/cell

     iteration # 10     ecut=    71.00 Ry     beta= 0.30
     Davidson diagonalization with overlap
     ethr =  2.32E-03,  avg # of iterations =  1.5

     negative rho (up, down):  2.813E-03 2.403E+00

     total cpu time spent up to now is      220.6 secs

     total energy              =  -42241.12201662 Ry
     estimated scf accuracy    <     196.15141710 Ry

     total magnetization       =    -3.27 Bohr mag/cell
     absolute magnetization    =   251.85 Bohr mag/cell

     iteration # 11     ecut=    71.00 Ry     beta= 0.30
     Davidson diagonalization with overlap
     ethr =  2.32E-03,  avg # of iterations =  1.0

     negative rho (up, down):  1.967E-03 2.311E+00

     total cpu time spent up to now is      238.7 secs

     total energy              =  -42240.86155728 Ry
     estimated scf accuracy    <     203.49967858 Ry

     total magnetization       =    -3.03 Bohr mag/cell
     absolute magnetization    =   252.37 Bohr mag/cell

     iteration # 12     ecut=    71.00 Ry     beta= 0.30
     Davidson diagonalization with overlap
     ethr =  2.32E-03,  avg # of iterations =  1.5

     negative rho (up, down):  1.611E-03 1.943E+00

     total cpu time spent up to now is      258.0 secs

     total energy              =  -42241.17904744 Ry
     estimated scf accuracy    <     108.08476166 Ry

     total magnetization       =    -2.75 Bohr mag/cell
     absolute magnetization    =   245.80 Bohr mag/cell

     iteration # 13     ecut=    71.00 Ry     beta= 0.30
     Davidson diagonalization with overlap
     ethr =  2.32E-03,  avg # of iterations =  1.5

     negative rho (up, down):  1.919E-03 1.738E+00

     total cpu time spent up to now is      277.0 secs

     total energy              =  -42241.27536260 Ry
     estimated scf accuracy    <      99.87767837 Ry

     total magnetization       =    -1.65 Bohr mag/cell
     absolute magnetization    =   243.54 Bohr mag/cell

     iteration # 14     ecut=    71.00 Ry     beta= 0.30
     Davidson diagonalization with overlap
     ethr =  2.32E-03,  avg # of iterations =  1.5

     negative rho (up, down):  1.153E-02 3.492E-01

     total cpu time spent up to now is      296.4 secs

     total energy              =  -42238.95632518 Ry
     estimated scf accuracy    <      58.16022412 Ry

     total magnetization       =    -1.12 Bohr mag/cell
     absolute magnetization    =   239.37 Bohr mag/cell

     iteration # 15     ecut=    71.00 Ry     beta= 0.30
     Davidson diagonalization with overlap
     ethr =  2.32E-03,  avg # of iterations =  3.5

     negative rho (up, down):  7.577E-02 1.502E+00

     total cpu time spent up to now is      317.5 secs

     total energy              =  -42244.47446818 Ry
     estimated scf accuracy    <      17.19612329 Ry

     total magnetization       =     1.96 Bohr mag/cell
     absolute magnetization    =   224.43 Bohr mag/cell

     iteration # 16     ecut=    71.00 Ry     beta= 0.30
     Davidson diagonalization with overlap
     ethr =  8.40E-04,  avg # of iterations =  2.0

     negative rho (up, down):  2.992E-01 3.918E+00

     total cpu time spent up to now is      338.0 secs

     total energy              =  -42245.66459873 Ry
     estimated scf accuracy    <      48.46730511 Ry

     total magnetization       =     5.06 Bohr mag/cell
     absolute magnetization    =   224.21 Bohr mag/cell

     iteration # 17     ecut=    71.00 Ry     beta= 0.30
     Davidson diagonalization with overlap
     ethr =  8.40E-04,  avg # of iterations =  3.5

     negative rho (up, down):  1.921E-01 2.929E+00

     total cpu time spent up to now is      359.2 secs

     total energy              =  -42245.50339449 Ry
     estimated scf accuracy    <     123.98161846 Ry

     total magnetization       =     8.48 Bohr mag/cell
     absolute magnetization    =   222.51 Bohr mag/cell

     iteration # 18     ecut=    71.00 Ry     beta= 0.30
     Davidson diagonalization with overlap
     ethr =  8.40E-04,  avg # of iterations =  2.0

     negative rho (up, down):  9.659E-02 1.868E+00

     total cpu time spent up to now is      379.9 secs

     total energy              =  -42244.25796715 Ry
     estimated scf accuracy    <      92.32507395 Ry

     total magnetization       =     7.17 Bohr mag/cell
     absolute magnetization    =   223.02 Bohr mag/cell

     iteration # 19     ecut=    71.00 Ry     beta= 0.30
     Davidson diagonalization with overlap
     ethr =  8.40E-04,  avg # of iterations =  2.0

     negative rho (up, down):  1.011E-02 3.014E-01

     total cpu time spent up to now is      400.1 secs

     total energy              =  -42242.31753759 Ry
     estimated scf accuracy    <      57.12721655 Ry

     total magnetization       =     4.57 Bohr mag/cell
     absolute magnetization    =   221.11 Bohr mag/cell

     iteration # 20     ecut=    71.00 Ry     beta= 0.30
     Davidson diagonalization with overlap
     ethr =  8.40E-04,  avg # of iterations =  2.5

     negative rho (up, down):  1.058E-02 6.892E-01

     total cpu time spent up to now is      421.3 secs

     total energy              =  -42242.68866110 Ry
     estimated scf accuracy    <      16.20845484 Ry

     total magnetization       =     0.21 Bohr mag/cell
     absolute magnetization    =   224.95 Bohr mag/cell

     iteration # 21     ecut=    71.00 Ry     beta= 0.30
     Davidson diagonalization with overlap
     ethr =  7.91E-04,  avg # of iterations =  2.0

     negative rho (up, down):  4.277E-04 3.149E+00

     total cpu time spent up to now is      442.1 secs

     total energy              =  -42240.35145809 Ry
     estimated scf accuracy    <      16.86445191 Ry

     total magnetization       =    -0.78 Bohr mag/cell
     absolute magnetization    =   224.29 Bohr mag/cell

     iteration # 22     ecut=    71.00 Ry     beta= 0.30
     Davidson diagonalization with overlap
     ethr =  7.91E-04,  avg # of iterations =  3.5

     negative rho (up, down):  4.963E-04 5.903E+00

     total cpu time spent up to now is      462.9 secs

     total energy              =  -42240.09645738 Ry
     estimated scf accuracy    <      77.07033667 Ry

     total magnetization       =    -4.01 Bohr mag/cell
     absolute magnetization    =   228.70 Bohr mag/cell

     iteration # 23     ecut=    71.00 Ry     beta= 0.30
     Davidson diagonalization with overlap
     ethr =  7.91E-04,  avg # of iterations =  5.0

     negative rho (up, down):  6.754E-04 6.554E+00

     total cpu time spent up to now is      485.4 secs

     total energy              =  -42240.90733354 Ry
     estimated scf accuracy    <     200.17740183 Ry

     total magnetization       =    -7.88 Bohr mag/cell
     absolute magnetization    =   233.42 Bohr mag/cell

     iteration # 24     ecut=    71.00 Ry     beta= 0.30
     Davidson diagonalization with overlap
     ethr =  7.91E-04,  avg # of iterations =  2.5

     negative rho (up, down):  2.888E-04 2.283E+00

     total cpu time spent up to now is      506.1 secs

     total energy              =  -42239.74496799 Ry
     estimated scf accuracy    <     239.92697505 Ry

     total magnetization       =    -7.22 Bohr mag/cell
     absolute magnetization    =   234.24 Bohr mag/cell

     iteration # 25     ecut=    71.00 Ry     beta= 0.30
     Davidson diagonalization with overlap
     ethr =  7.91E-04,  avg # of iterations =  4.0

     negative rho (up, down):  4.108E-03 8.439E-02

     total cpu time spent up to now is      528.3 secs

     total energy              =  -42242.67318929 Ry
     estimated scf accuracy    <      47.14452435 Ry

     total magnetization       =    -6.07 Bohr mag/cell
     absolute magnetization    =   229.47 Bohr mag/cell

     iteration # 26     ecut=    71.00 Ry     beta= 0.30
     Davidson diagonalization with overlap
     ethr =  7.91E-04,  avg # of iterations =  2.5

     negative rho (up, down):  5.161E-03 6.252E-02

     total cpu time spent up to now is      548.9 secs

     total energy              =  -42242.99319952 Ry
     estimated scf accuracy    <      14.25112914 Ry

     total magnetization       =    -4.24 Bohr mag/cell
     absolute magnetization    =   226.69 Bohr mag/cell

     iteration # 27     ecut=    71.00 Ry     beta= 0.30
     Davidson diagonalization with overlap
     ethr =  6.96E-04,  avg # of iterations =  1.5

     negative rho (up, down):  1.282E-03 6.364E-02

     total cpu time spent up to now is      568.2 secs

     total energy              =  -42242.98154379 Ry
     estimated scf accuracy    <       7.81208816 Ry

     total magnetization       =    -7.63 Bohr mag/cell
     absolute magnetization    =   226.50 Bohr mag/cell

     iteration # 28     ecut=    71.00 Ry     beta= 0.30
     Davidson diagonalization with overlap
     ethr =  3.81E-04,  avg # of iterations =  1.0

     negative rho (up, down):  5.381E-04 6.559E-02

     total cpu time spent up to now is      586.2 secs

     total energy              =  -42242.86958125 Ry
     estimated scf accuracy    <       8.27175909 Ry

     total magnetization       =    -7.37 Bohr mag/cell
     absolute magnetization    =   226.74 Bohr mag/cell

     iteration # 29     ecut=    71.00 Ry     beta= 0.30
     Davidson diagonalization with overlap
     ethr =  3.81E-04,  avg # of iterations =  1.0

     negative rho (up, down):  2.445E-04 8.823E-02

     total cpu time spent up to now is      603.8 secs

     total energy              =  -42242.91742255 Ry
     estimated scf accuracy    <       5.66916459 Ry

     total magnetization       =    -8.54 Bohr mag/cell
     absolute magnetization    =   227.09 Bohr mag/cell

     iteration # 30     ecut=    71.00 Ry     beta= 0.30
     Davidson diagonalization with overlap
     ethr =  2.77E-04,  avg # of iterations =  1.5

     negative rho (up, down):  2.984E-04 9.249E-02

     total cpu time spent up to now is      623.1 secs

     total energy              =  -42242.85857490 Ry
     estimated scf accuracy    <       6.01177935 Ry

     total magnetization       =    -7.83 Bohr mag/cell
     absolute magnetization    =   228.88 Bohr mag/cell

     iteration # 31     ecut=    71.00 Ry     beta= 0.30
     Davidson diagonalization with overlap
     ethr =  2.77E-04,  avg # of iterations =  1.0

     negative rho (up, down):  3.427E-04 1.032E-01

     total cpu time spent up to now is      640.5 secs

     total energy              =  -42242.83415787 Ry
     estimated scf accuracy    <       5.60088142 Ry

     total magnetization       =    -9.13 Bohr mag/cell
     absolute magnetization    =   229.65 Bohr mag/cell

     iteration # 32     ecut=    71.00 Ry     beta= 0.30
     Davidson diagonalization with overlap
     ethr =  2.73E-04,  avg # of iterations =  1.0

     negative rho (up, down):  5.204E-04 9.700E-02

     total cpu time spent up to now is      658.7 secs

     total energy              =  -42242.62050417 Ry
     estimated scf accuracy    <       5.20582891 Ry

     total magnetization       =    -8.91 Bohr mag/cell
     absolute magnetization    =   229.84 Bohr mag/cell

     iteration # 33     ecut=    71.00 Ry     beta= 0.30
     Davidson diagonalization with overlap
     ethr =  2.54E-04,  avg # of iterations =  3.0

     negative rho (up, down):  6.491E-04 3.951E-02

     total cpu time spent up to now is      679.8 secs

     total energy              =  -42242.57907143 Ry
     estimated scf accuracy    <       3.24828308 Ry

     total magnetization       =   -10.25 Bohr mag/cell
     absolute magnetization    =   229.87 Bohr mag/cell

     iteration # 34     ecut=    71.00 Ry     beta= 0.30
     Davidson diagonalization with overlap
     c_bands:  1 eigenvalues not converged
     ethr =  1.59E-04,  avg # of iterations = 11.0

     negative rho (up, down):  7.636E-04 2.754E-02

     total cpu time spent up to now is      702.9 secs

     total energy              =  -42242.52649587 Ry
     estimated scf accuracy    <       2.28671012 Ry

     total magnetization       =    -8.54 Bohr mag/cell
     absolute magnetization    =   230.41 Bohr mag/cell

     iteration # 35     ecut=    71.00 Ry     beta= 0.30
     Davidson diagonalization with overlap
     ethr =  1.12E-04,  avg # of iterations =  6.5

     negative rho (up, down):  6.378E-04 1.842E-02

     total cpu time spent up to now is      725.1 secs

     total energy              =  -42242.54196201 Ry
     estimated scf accuracy    <       1.72160617 Ry

     total magnetization       =    -8.28 Bohr mag/cell
     absolute magnetization    =   230.89 Bohr mag/cell

     iteration # 36     ecut=    71.00 Ry     beta= 0.30
     Davidson diagonalization with overlap
     c_bands:  2 eigenvalues not converged
     ethr =  8.41E-05,  avg # of iterations = 11.0

     negative rho (up, down):  7.300E-04 1.266E-02

     total cpu time spent up to now is      748.5 secs

     total energy              =  -42242.50748289 Ry
     estimated scf accuracy    <       1.33069635 Ry

     total magnetization       =    -8.30 Bohr mag/cell
     absolute magnetization    =   230.58 Bohr mag/cell

     iteration # 37     ecut=    71.00 Ry     beta= 0.30
     Davidson diagonalization with overlap
     ethr =  6.50E-05,  avg # of iterations =  6.0

     negative rho (up, down):  7.527E-04 2.638E-03

     total cpu time spent up to now is      770.5 secs

     total energy              =  -42242.46026466 Ry
     estimated scf accuracy    <       0.85904824 Ry

     total magnetization       =    -8.90 Bohr mag/cell
     absolute magnetization    =   230.92 Bohr mag/cell

     iteration # 38     ecut=    71.00 Ry     beta= 0.30
     Davidson diagonalization with overlap
     ethr =  4.19E-05,  avg # of iterations =  2.0

     negative rho (up, down):  3.455E-04 8.924E-04

     total cpu time spent up to now is      791.0 secs

     total energy              =  -42242.43555756 Ry
     estimated scf accuracy    <       0.73850928 Ry

     total magnetization       =    -8.03 Bohr mag/cell
     absolute magnetization    =   230.65 Bohr mag/cell

     iteration # 39     ecut=    71.00 Ry     beta= 0.30
     Davidson diagonalization with overlap
     ethr =  3.61E-05,  avg # of iterations =  2.0

     negative rho (up, down):  2.946E-03 5.215E-03

     total cpu time spent up to now is      811.5 secs

     total energy              =  -42242.35330511 Ry
     estimated scf accuracy    <       0.65993976 Ry

     total magnetization       =    -7.72 Bohr mag/cell
     absolute magnetization    =   230.65 Bohr mag/cell

     iteration # 40     ecut=    71.00 Ry     beta= 0.30
     Davidson diagonalization with overlap
     ethr =  3.22E-05,  avg # of iterations =  7.5

     negative rho (up, down):  1.780E-02 1.770E-02

     total cpu time spent up to now is      833.5 secs

     total energy              =  -42242.29498520 Ry
     estimated scf accuracy    <       0.49046820 Ry

     total magnetization       =    -7.30 Bohr mag/cell
     absolute magnetization    =   230.00 Bohr mag/cell

     iteration # 41     ecut=    71.00 Ry     beta= 0.30
     Davidson diagonalization with overlap
     ethr =  2.39E-05,  avg # of iterations =  2.0

     negative rho (up, down):  9.898E-02 7.661E-02

     total cpu time spent up to now is      853.9 secs

     total energy              =  -42242.22731503 Ry
     estimated scf accuracy    <       0.41699506 Ry

     total magnetization       =    -6.24 Bohr mag/cell
     absolute magnetization    =   229.83 Bohr mag/cell

     iteration # 42     ecut=    71.00 Ry     beta= 0.30
     Davidson diagonalization with overlap
     ethr =  2.04E-05,  avg # of iterations =  3.5

     negative rho (up, down):  1.913E-01 1.661E-01

     total cpu time spent up to now is      874.7 secs

     total energy              =  -42242.22434789 Ry
     estimated scf accuracy    <       0.29349598 Ry

     total magnetization       =    -5.22 Bohr mag/cell
     absolute magnetization    =   229.18 Bohr mag/cell

     iteration # 43     ecut=    71.00 Ry     beta= 0.30
     Davidson diagonalization with overlap
     ethr =  1.43E-05,  avg # of iterations = 12.0

     negative rho (up, down):  2.196E-01 1.936E-01

     total cpu time spent up to now is      899.5 secs

     total energy              =  -42242.23512948 Ry
     estimated scf accuracy    <       0.24653501 Ry

     total magnetization       =    -4.60 Bohr mag/cell
     absolute magnetization    =   228.83 Bohr mag/cell

     iteration # 44     ecut=    71.00 Ry     beta= 0.30
     Davidson diagonalization with overlap
     ethr =  1.20E-05,  avg # of iterations =  2.0

     negative rho (up, down):  1.269E-01 1.247E-01

     total cpu time spent up to now is      920.2 secs

     total energy              =  -42242.23580810 Ry
     estimated scf accuracy    <       0.14324503 Ry

     total magnetization       =    -4.42 Bohr mag/cell
     absolute magnetization    =   228.40 Bohr mag/cell

     iteration # 45     ecut=    71.00 Ry     beta= 0.30
     Davidson diagonalization with overlap
     ethr =  6.99E-06,  avg # of iterations =  2.0

     negative rho (up, down):  1.034E-01 1.056E-01

     total cpu time spent up to now is      940.6 secs

     total energy              =  -42242.24443817 Ry
     estimated scf accuracy    <       0.08691395 Ry

     total magnetization       =    -4.45 Bohr mag/cell
     absolute magnetization    =   227.94 Bohr mag/cell

     iteration # 46     ecut=    71.00 Ry     beta= 0.30
     Davidson diagonalization with overlap
     ethr =  4.24E-06,  avg # of iterations =  2.0

     negative rho (up, down):  7.345E-02 7.886E-02

     total cpu time spent up to now is      961.5 secs

     total energy              =  -42242.26172715 Ry
     estimated scf accuracy    <       0.06428485 Ry

     total magnetization       =    -4.29 Bohr mag/cell
     absolute magnetization    =   227.84 Bohr mag/cell

     iteration # 47     ecut=    71.00 Ry     beta= 0.30
     Davidson diagonalization with overlap
     c_bands:  1 eigenvalues not converged
     ethr =  3.14E-06,  avg # of iterations = 11.0

     negative rho (up, down):  3.565E-02 3.550E-02

     total cpu time spent up to now is      985.8 secs

     total energy              =  -42242.27225666 Ry
     estimated scf accuracy    <       0.03531011 Ry

     total magnetization       =    -4.18 Bohr mag/cell
     absolute magnetization    =   227.48 Bohr mag/cell

     iteration # 48     ecut=    71.00 Ry     beta= 0.30
     Davidson diagonalization with overlap
     ethr =  1.72E-06,  avg # of iterations =  2.5

     negative rho (up, down):  1.347E-02 1.308E-02

     total cpu time spent up to now is     1007.3 secs

     total energy              =  -42242.27779542 Ry
     estimated scf accuracy    <       0.01909151 Ry

     total magnetization       =    -4.17 Bohr mag/cell
     absolute magnetization    =   227.37 Bohr mag/cell

     iteration # 49     ecut=    71.00 Ry     beta= 0.30
     Davidson diagonalization with overlap
     ethr =  9.32E-07,  avg # of iterations =  4.5

     negative rho (up, down):  5.897E-03 5.652E-03

     total cpu time spent up to now is     1028.4 secs

     total energy              =  -42242.28453286 Ry
     estimated scf accuracy    <       0.01109257 Ry

     total magnetization       =    -4.22 Bohr mag/cell
     absolute magnetization    =   227.40 Bohr mag/cell

     iteration # 50     ecut=    71.00 Ry     beta= 0.30
     Davidson diagonalization with overlap
     ethr =  5.42E-07,  avg # of iterations =  2.0

     negative rho (up, down):  2.757E-03 2.612E-03

     total cpu time spent up to now is     1049.2 secs

     total energy              =  -42242.28845363 Ry
     estimated scf accuracy    <       0.00791924 Ry

     total magnetization       =    -4.21 Bohr mag/cell
     absolute magnetization    =   227.40 Bohr mag/cell

     iteration # 51     ecut=    71.00 Ry     beta= 0.30
     Davidson diagonalization with overlap
     ethr =  3.87E-07,  avg # of iterations =  2.0

     negative rho (up, down):  4.267E-04 5.480E-04

     total cpu time spent up to now is     1070.3 secs

     total energy              =  -42242.29355772 Ry
     estimated scf accuracy    <       0.00561389 Ry

     total magnetization       =    -4.24 Bohr mag/cell
     absolute magnetization    =   227.48 Bohr mag/cell

     iteration # 52     ecut=    71.00 Ry     beta= 0.30
     Davidson diagonalization with overlap
     c_bands:  1 eigenvalues not converged
     ethr =  2.74E-07,  avg # of iterations = 11.5

     negative rho (up, down):  1.036E-03 1.148E-03

     total cpu time spent up to now is     1095.4 secs

     total energy              =  -42242.29538075 Ry
     estimated scf accuracy    <       0.00240852 Ry

     total magnetization       =    -4.22 Bohr mag/cell
     absolute magnetization    =   227.72 Bohr mag/cell

     iteration # 53     ecut=    71.00 Ry     beta= 0.30
     Davidson diagonalization with overlap
     ethr =  1.18E-07,  avg # of iterations =  8.0

     negative rho (up, down):  1.174E-03 1.280E-03

     total cpu time spent up to now is     1118.2 secs

     total energy              =  -42242.29565362 Ry
     estimated scf accuracy    <       0.00043166 Ry

     total magnetization       =    -4.22 Bohr mag/cell
     absolute magnetization    =   227.80 Bohr mag/cell

     iteration # 54     ecut=    71.00 Ry     beta= 0.30
     Davidson diagonalization with overlap
     ethr =  2.11E-08,  avg # of iterations =  5.0

     negative rho (up, down):  1.200E-03 1.306E-03

     total cpu time spent up to now is     1140.8 secs

     total energy              =  -42242.29584269 Ry
     estimated scf accuracy    <       0.00034191 Ry

     total magnetization       =    -4.20 Bohr mag/cell
     absolute magnetization    =   227.84 Bohr mag/cell

     iteration # 55     ecut=    71.00 Ry     beta= 0.30
     Davidson diagonalization with overlap
     ethr =  1.67E-08,  avg # of iterations =  1.5

     negative rho (up, down):  1.297E-03 1.405E-03

     total cpu time spent up to now is     1160.3 secs

     total energy              =  -42242.29632866 Ry
     estimated scf accuracy    <       0.00028372 Ry

     total magnetization       =    -4.18 Bohr mag/cell
     absolute magnetization    =   227.87 Bohr mag/cell

     iteration # 56     ecut=    71.00 Ry     beta= 0.30
     Davidson diagonalization with overlap
     ethr =  1.39E-08,  avg # of iterations =  3.0

     negative rho (up, down):  1.575E-03 1.687E-03

     total cpu time spent up to now is     1182.6 secs

     total energy              =  -42242.29668708 Ry
     estimated scf accuracy    <       0.00019089 Ry

     total magnetization       =    -4.14 Bohr mag/cell
     absolute magnetization    =   227.99 Bohr mag/cell

     iteration # 57     ecut=    71.00 Ry     beta= 0.30
     Davidson diagonalization with overlap
     ethr =  9.32E-09,  avg # of iterations =  4.5

     negative rho (up, down):  1.714E-03 1.835E-03

     total cpu time spent up to now is     1206.7 secs

     total energy              =  -42242.29690251 Ry
     estimated scf accuracy    <       0.00016823 Ry

     total magnetization       =    -4.12 Bohr mag/cell
     absolute magnetization    =   228.11 Bohr mag/cell

     iteration # 58     ecut=    71.00 Ry     beta= 0.30
     Davidson diagonalization with overlap
     ethr =  8.21E-09,  avg # of iterations =  4.0

     negative rho (up, down):  1.693E-03 1.821E-03

     total cpu time spent up to now is     1229.6 secs

     total energy              =  -42242.29700728 Ry
     estimated scf accuracy    <       0.00012242 Ry

     total magnetization       =    -4.09 Bohr mag/cell
     absolute magnetization    =   228.22 Bohr mag/cell

     iteration # 59     ecut=    71.00 Ry     beta= 0.30
     Davidson diagonalization with overlap
     ethr =  5.98E-09,  avg # of iterations =  4.5

     negative rho (up, down):  1.453E-03 1.585E-03

     total cpu time spent up to now is     1252.2 secs

     total energy              =  -42242.29706422 Ry
     estimated scf accuracy    <       0.00010122 Ry

     total magnetization       =    -4.07 Bohr mag/cell
     absolute magnetization    =   228.29 Bohr mag/cell

     iteration # 60     ecut=    71.00 Ry     beta= 0.30
     Davidson diagonalization with overlap
     ethr =  4.94E-09,  avg # of iterations =  3.5

     negative rho (up, down):  1.442E-03 1.583E-03

     total cpu time spent up to now is     1273.9 secs

     total energy              =  -42242.29713852 Ry
     estimated scf accuracy    <       0.00009077 Ry

     total magnetization       =    -4.06 Bohr mag/cell
     absolute magnetization    =   228.34 Bohr mag/cell

     iteration # 61     ecut=    71.00 Ry     beta= 0.30
     Davidson diagonalization with overlap
     ethr =  4.43E-09,  avg # of iterations =  5.0

     negative rho (up, down):  2.070E-03 2.230E-03

     total cpu time spent up to now is     1300.7 secs

     total energy              =  -42242.29721741 Ry
     estimated scf accuracy    <       0.00008345 Ry

     total magnetization       =    -4.02 Bohr mag/cell
     absolute magnetization    =   228.44 Bohr mag/cell

     iteration # 62     ecut=    71.00 Ry     beta= 0.30
     Davidson diagonalization with overlap
     ethr =  4.07E-09,  avg # of iterations =  4.0

     negative rho (up, down):  2.470E-03 2.639E-03

     total cpu time spent up to now is     1325.1 secs

     total energy              =  -42242.29726095 Ry
     estimated scf accuracy    <       0.00005612 Ry

     total magnetization       =    -3.99 Bohr mag/cell
     absolute magnetization    =   228.52 Bohr mag/cell

     iteration # 63     ecut=    71.00 Ry     beta= 0.30
     Davidson diagonalization with overlap
     ethr =  2.74E-09,  avg # of iterations =  5.0

     negative rho (up, down):  2.940E-03 3.121E-03

     total cpu time spent up to now is     1349.8 secs

     total energy              =  -42242.29727160 Ry
     estimated scf accuracy    <       0.00005249 Ry

     total magnetization       =    -3.97 Bohr mag/cell
     absolute magnetization    =   228.57 Bohr mag/cell

     iteration # 64     ecut=    71.00 Ry     beta= 0.30
     Davidson diagonalization with overlap
     ethr =  2.56E-09,  avg # of iterations =  5.0

     negative rho (up, down):  3.066E-03 3.248E-03

     total cpu time spent up to now is     1375.5 secs

     total energy              =  -42242.29730453 Ry
     estimated scf accuracy    <       0.00004106 Ry

     total magnetization       =    -3.94 Bohr mag/cell
     absolute magnetization    =   228.63 Bohr mag/cell

     iteration # 65     ecut=    71.00 Ry     beta= 0.30
     Davidson diagonalization with overlap
     ethr =  2.01E-09,  avg # of iterations =  4.5

     negative rho (up, down):  2.246E-03 2.418E-03

     total cpu time spent up to now is     1398.7 secs

     total energy              =  -42242.29732501 Ry
     estimated scf accuracy    <       0.00003485 Ry

     total magnetization       =    -3.92 Bohr mag/cell
     absolute magnetization    =   228.66 Bohr mag/cell

     iteration # 66     ecut=    71.00 Ry     beta= 0.30
     Davidson diagonalization with overlap
     ethr =  1.70E-09,  avg # of iterations =  5.5

     negative rho (up, down):  1.308E-03 1.457E-03

     total cpu time spent up to now is     1436.0 secs

     total energy              =  -42242.29744293 Ry
     estimated scf accuracy    <       0.00003564 Ry

     total magnetization       =    -3.86 Bohr mag/cell
     absolute magnetization    =   228.74 Bohr mag/cell

     iteration # 67     ecut=    71.00 Ry     beta= 0.30
     Davidson diagonalization with overlap
     ethr =  1.70E-09,  avg # of iterations =  5.0

     negative rho (up, down):  1.474E-03 1.626E-03

     total cpu time spent up to now is     1464.7 secs

     total energy              =  -42242.29749654 Ry
     estimated scf accuracy    <       0.00001836 Ry

     total magnetization       =    -3.81 Bohr mag/cell
     absolute magnetization    =   228.79 Bohr mag/cell

     iteration # 68     ecut=    71.00 Ry     beta= 0.30
     Davidson diagonalization with overlap
     ethr =  8.97E-10,  avg # of iterations =  3.0

     negative rho (up, down):  1.258E-03 1.404E-03

     total cpu time spent up to now is     1486.6 secs

     total energy              =  -42242.29751012 Ry
     estimated scf accuracy    <       0.00001764 Ry

     total magnetization       =    -3.79 Bohr mag/cell
     absolute magnetization    =   228.80 Bohr mag/cell

     iteration # 69     ecut=    71.00 Ry     beta= 0.30
     Davidson diagonalization with overlap
     ethr =  8.61E-10,  avg # of iterations =  4.0

     negative rho (up, down):  1.196E-03 1.340E-03

     total cpu time spent up to now is     1508.7 secs

     total energy              =  -42242.29751872 Ry
     estimated scf accuracy    <       0.00001241 Ry

     total magnetization       =    -3.78 Bohr mag/cell
     absolute magnetization    =   228.80 Bohr mag/cell

     iteration # 70     ecut=    71.00 Ry     beta= 0.30
     Davidson diagonalization with overlap
     ethr =  6.06E-10,  avg # of iterations =  3.0

     negative rho (up, down):  1.218E-03 1.360E-03

     total cpu time spent up to now is     1531.2 secs

     total energy              =  -42242.29751338 Ry
     estimated scf accuracy    <       0.00001141 Ry

     total magnetization       =    -3.77 Bohr mag/cell
     absolute magnetization    =   228.79 Bohr mag/cell

     iteration # 71     ecut=    71.00 Ry     beta= 0.30
     Davidson diagonalization with overlap
     ethr =  5.57E-10,  avg # of iterations =  8.0

     negative rho (up, down):  1.228E-03 1.368E-03

     total cpu time spent up to now is     1565.9 secs

     total energy              =  -42242.29753932 Ry
     estimated scf accuracy    <       0.00000867 Ry

     total magnetization       =    -3.74 Bohr mag/cell
     absolute magnetization    =   228.76 Bohr mag/cell

     iteration # 72     ecut=    71.00 Ry     beta= 0.30
     Davidson diagonalization with overlap
     ethr =  4.23E-10,  avg # of iterations =  3.5

     negative rho (up, down):  1.218E-03 1.356E-03

     total cpu time spent up to now is     1588.9 secs

     total energy              =  -42242.29754517 Ry
     estimated scf accuracy    <       0.00000689 Ry

     total magnetization       =    -3.73 Bohr mag/cell
     absolute magnetization    =   228.74 Bohr mag/cell

     iteration # 73     ecut=    71.00 Ry     beta= 0.30
     Davidson diagonalization with overlap
     ethr =  3.36E-10,  avg # of iterations =  4.5

     negative rho (up, down):  1.463E-03 1.606E-03

     total cpu time spent up to now is     1613.7 secs

     total energy              =  -42242.29752807 Ry
     estimated scf accuracy    <       0.00000533 Ry

     total magnetization       =    -3.72 Bohr mag/cell
     absolute magnetization    =   228.73 Bohr mag/cell

     iteration # 74     ecut=    71.00 Ry     beta= 0.30
     Davidson diagonalization with overlap
     ethr =  2.60E-10,  avg # of iterations =  6.5

     negative rho (up, down):  1.518E-03 1.660E-03

     total cpu time spent up to now is     1649.3 secs

     total energy              =  -42242.29754925 Ry
     estimated scf accuracy    <       0.00000492 Ry

     total magnetization       =    -3.70 Bohr mag/cell
     absolute magnetization    =   228.73 Bohr mag/cell

     iteration # 75     ecut=    71.00 Ry     beta= 0.30
     Davidson diagonalization with overlap
     ethr =  2.40E-10,  avg # of iterations =  5.0

     negative rho (up, down):  1.582E-03 1.725E-03

     total cpu time spent up to now is     1675.3 secs

     total energy              =  -42242.29755042 Ry
     estimated scf accuracy    <       0.00000374 Ry

     total magnetization       =    -3.69 Bohr mag/cell
     absolute magnetization    =   228.71 Bohr mag/cell

     iteration # 76     ecut=    71.00 Ry     beta= 0.30
     Davidson diagonalization with overlap
     ethr =  1.83E-10,  avg # of iterations =  3.0

     negative rho (up, down):  1.590E-03 1.732E-03

     total cpu time spent up to now is     1697.0 secs

     total energy              =  -42242.29754741 Ry
     estimated scf accuracy    <       0.00000312 Ry

     total magnetization       =    -3.69 Bohr mag/cell
     absolute magnetization    =   228.71 Bohr mag/cell

     iteration # 77     ecut=    71.00 Ry     beta= 0.30
     Davidson diagonalization with overlap
     ethr =  1.52E-10,  avg # of iterations =  5.0

     negative rho (up, down):  1.521E-03 1.662E-03

     total cpu time spent up to now is     1727.6 secs

     total energy              =  -42242.29755668 Ry
     estimated scf accuracy    <       0.00000251 Ry

     total magnetization       =    -3.68 Bohr mag/cell
     absolute magnetization    =   228.71 Bohr mag/cell

     iteration # 78     ecut=    71.00 Ry     beta= 0.30
     Davidson diagonalization with overlap
     ethr =  1.23E-10,  avg # of iterations =  3.0

     negative rho (up, down):  1.478E-03 1.618E-03

     total cpu time spent up to now is     1748.7 secs

     total energy              =  -42242.29755702 Ry
     estimated scf accuracy    <       0.00000219 Ry

     total magnetization       =    -3.68 Bohr mag/cell
     absolute magnetization    =   228.71 Bohr mag/cell

     iteration # 79     ecut=    71.00 Ry     beta= 0.30
     Davidson diagonalization with overlap
     ethr =  1.07E-10,  avg # of iterations =  5.0

     negative rho (up, down):  1.426E-03 1.566E-03

     total cpu time spent up to now is     1777.2 secs

     total energy              =  -42242.29756267 Ry
     estimated scf accuracy    <       0.00000167 Ry

     total magnetization       =    -3.68 Bohr mag/cell
     absolute magnetization    =   228.68 Bohr mag/cell

     iteration # 80     ecut=    71.00 Ry     beta= 0.30
     Davidson diagonalization with overlap
     ethr =  8.15E-11,  avg # of iterations =  3.5

     negative rho (up, down):  1.361E-03 1.500E-03

     total cpu time spent up to now is     1799.4 secs

     total energy              =  -42242.29756482 Ry
     estimated scf accuracy    <       0.00000173 Ry

     total magnetization       =    -3.68 Bohr mag/cell
     absolute magnetization    =   228.68 Bohr mag/cell

     iteration # 81     ecut=    71.00 Ry     beta= 0.30
     Davidson diagonalization with overlap
     ethr =  8.15E-11,  avg # of iterations =  5.0

     negative rho (up, down):  1.334E-03 1.473E-03

     total cpu time spent up to now is     1826.2 secs

     total energy              =  -42242.29756624 Ry
     estimated scf accuracy    <       0.00000122 Ry

     total magnetization       =    -3.69 Bohr mag/cell
     absolute magnetization    =   228.66 Bohr mag/cell

     iteration # 82     ecut=    71.00 Ry     beta= 0.30
     Davidson diagonalization with overlap
     ethr =  5.96E-11,  avg # of iterations =  4.5

     negative rho (up, down):  1.280E-03 1.419E-03

     total cpu time spent up to now is     1852.2 secs

     total energy              =  -42242.29756784 Ry
     estimated scf accuracy    <       0.00000120 Ry

     total magnetization       =    -3.68 Bohr mag/cell
     absolute magnetization    =   228.65 Bohr mag/cell

     iteration # 83     ecut=    71.00 Ry     beta= 0.30
     Davidson diagonalization with overlap
     ethr =  5.86E-11,  avg # of iterations =  5.0

     negative rho (up, down):  1.245E-03 1.384E-03

     total cpu time spent up to now is     1881.9 secs

     total energy              =  -42242.29756969 Ry
     estimated scf accuracy    <       0.00000090 Ry

     total magnetization       =    -3.69 Bohr mag/cell
     absolute magnetization    =   228.65 Bohr mag/cell

     iteration # 84     ecut=    71.00 Ry     beta= 0.30
     Davidson diagonalization with overlap
     ethr =  4.40E-11,  avg # of iterations =  3.0

     negative rho (up, down):  1.226E-03 1.364E-03

     total cpu time spent up to now is     1902.9 secs

     total energy              =  -42242.29756964 Ry
     estimated scf accuracy    <       0.00000087 Ry

     total magnetization       =    -3.69 Bohr mag/cell
     absolute magnetization    =   228.65 Bohr mag/cell

     iteration # 85     ecut=    71.00 Ry     beta= 0.30
     Davidson diagonalization with overlap
     ethr =  4.27E-11,  avg # of iterations =  3.5

     negative rho (up, down):  1.190E-03 1.327E-03

     total cpu time spent up to now is     1927.4 secs

     total energy              =  -42242.29757014 Ry
     estimated scf accuracy    <       0.00000077 Ry

     total magnetization       =    -3.69 Bohr mag/cell
     absolute magnetization    =   228.64 Bohr mag/cell

     iteration # 86     ecut=    71.00 Ry     beta= 0.30
     Davidson diagonalization with overlap
     ethr =  3.77E-11,  avg # of iterations =  5.0

     negative rho (up, down):  1.156E-03 1.292E-03

     total cpu time spent up to now is     1951.9 secs

     total energy              =  -42242.29757051 Ry
     estimated scf accuracy    <       0.00000070 Ry

     total magnetization       =    -3.69 Bohr mag/cell
     absolute magnetization    =   228.65 Bohr mag/cell

     iteration # 87     ecut=    71.00 Ry     beta= 0.30
     Davidson diagonalization with overlap
     ethr =  3.43E-11,  avg # of iterations =  3.5

     negative rho (up, down):  1.108E-03 1.243E-03

     total cpu time spent up to now is     1974.6 secs

     total energy              =  -42242.29757014 Ry
     estimated scf accuracy    <       0.00000058 Ry

     total magnetization       =    -3.69 Bohr mag/cell
     absolute magnetization    =   228.65 Bohr mag/cell

     iteration # 88     ecut=    71.00 Ry     beta= 0.30
     Davidson diagonalization with overlap
     ethr =  2.85E-11,  avg # of iterations =  5.0

     negative rho (up, down):  1.109E-03 1.244E-03

     total cpu time spent up to now is     2001.2 secs

     total energy              =  -42242.29757046 Ry
     estimated scf accuracy    <       0.00000044 Ry

     total magnetization       =    -3.69 Bohr mag/cell
     absolute magnetization    =   228.65 Bohr mag/cell

     iteration # 89     ecut=    71.00 Ry     beta= 0.30
     Davidson diagonalization with overlap
     ethr =  2.15E-11,  avg # of iterations =  2.0

     negative rho (up, down):  1.097E-03 1.231E-03

     total cpu time spent up to now is     2021.7 secs

     total energy              =  -42242.29757030 Ry
     estimated scf accuracy    <       0.00000047 Ry

     total magnetization       =    -3.69 Bohr mag/cell
     absolute magnetization    =   228.65 Bohr mag/cell

     iteration # 90     ecut=    71.00 Ry     beta= 0.30
     Davidson diagonalization with overlap
     ethr =  2.15E-11,  avg # of iterations =  4.0

     negative rho (up, down):  1.112E-03 1.246E-03

     total cpu time spent up to now is     2047.2 secs

     total energy              =  -42242.29757083 Ry
     estimated scf accuracy    <       0.00000031 Ry

     total magnetization       =    -3.69 Bohr mag/cell
     absolute magnetization    =   228.65 Bohr mag/cell

     iteration # 91     ecut=    71.00 Ry     beta= 0.30
     Davidson diagonalization with overlap
     ethr =  1.51E-11,  avg # of iterations =  4.5

     negative rho (up, down):  1.137E-03 1.270E-03

     total cpu time spent up to now is     2071.0 secs

     total energy              =  -42242.29757073 Ry
     estimated scf accuracy    <       0.00000031 Ry

     total magnetization       =    -3.69 Bohr mag/cell
     absolute magnetization    =   228.65 Bohr mag/cell

     iteration # 92     ecut=    71.00 Ry     beta= 0.30
     Davidson diagonalization with overlap
     ethr =  1.51E-11,  avg # of iterations =  5.0

     negative rho (up, down):  1.149E-03 1.283E-03

     total cpu time spent up to now is     2099.9 secs

     total energy              =  -42242.29757099 Ry
     estimated scf accuracy    <       0.00000016 Ry

     total magnetization       =    -3.68 Bohr mag/cell
     absolute magnetization    =   228.66 Bohr mag/cell

     iteration # 93     ecut=    71.00 Ry     beta= 0.30
     Davidson diagonalization with overlap
     ethr =  7.92E-12,  avg # of iterations =  5.0

     negative rho (up, down):  1.164E-03 1.298E-03

     total cpu time spent up to now is     2129.8 secs

     total energy              =  -42242.29757140 Ry
     estimated scf accuracy    <       0.00000012 Ry

     total magnetization       =    -3.68 Bohr mag/cell
     absolute magnetization    =   228.65 Bohr mag/cell

     iteration # 94     ecut=    71.00 Ry     beta= 0.30
     Davidson diagonalization with overlap
     ethr =  5.92E-12,  avg # of iterations =  4.0

     negative rho (up, down):  1.170E-03 1.304E-03

     total cpu time spent up to now is     2153.3 secs

     total energy              =  -42242.29757139 Ry
     estimated scf accuracy    <       0.00000007 Ry

     total magnetization       =    -3.68 Bohr mag/cell
     absolute magnetization    =   228.65 Bohr mag/cell

     iteration # 95     ecut=    71.00 Ry     beta= 0.30
     Davidson diagonalization with overlap
     ethr =  3.26E-12,  avg # of iterations =  5.0

     negative rho (up, down):  1.166E-03 1.300E-03

     total cpu time spent up to now is     2181.8 secs

     total energy              =  -42242.29757146 Ry
     estimated scf accuracy    <       0.00000003 Ry

     total magnetization       =    -3.68 Bohr mag/cell
     absolute magnetization    =   228.65 Bohr mag/cell

     iteration # 96     ecut=    71.00 Ry     beta= 0.30
     Davidson diagonalization with overlap
     ethr =  1.46E-12,  avg # of iterations =  4.5

     negative rho (up, down):  1.170E-03 1.304E-03

     total cpu time spent up to now is     2208.4 secs

     total energy              =  -42242.29757150 Ry
     estimated scf accuracy    <       0.00000002 Ry

     total magnetization       =    -3.68 Bohr mag/cell
     absolute magnetization    =   228.65 Bohr mag/cell

     iteration # 97     ecut=    71.00 Ry     beta= 0.30
     Davidson diagonalization with overlap
     ethr =  1.05E-12,  avg # of iterations =  2.5

     negative rho (up, down):  1.166E-03 1.300E-03

     total cpu time spent up to now is     2231.7 secs

     total energy              =  -42242.29757151 Ry
     estimated scf accuracy    <       0.00000002 Ry

     total magnetization       =    -3.68 Bohr mag/cell
     absolute magnetization    =   228.65 Bohr mag/cell

     iteration # 98     ecut=    71.00 Ry     beta= 0.30
     Davidson diagonalization with overlap
     ethr =  7.51E-13,  avg # of iterations =  5.0

     negative rho (up, down):  1.162E-03 1.297E-03

     total cpu time spent up to now is     2257.0 secs

     total energy              =  -42242.29757151 Ry
     estimated scf accuracy    <       0.00000001 Ry

     total magnetization       =    -3.68 Bohr mag/cell
     absolute magnetization    =   228.65 Bohr mag/cell

     iteration # 99     ecut=    71.00 Ry     beta= 0.30
     Davidson diagonalization with overlap
     ethr =  6.14E-13,  avg # of iterations =  5.0

     negative rho (up, down):  1.163E-03 1.298E-03

     total cpu time spent up to now is     2289.8 secs

     total energy              =  -42242.29757154 Ry
     estimated scf accuracy    <       0.00000001 Ry

     total magnetization       =    -3.68 Bohr mag/cell
     absolute magnetization    =   228.65 Bohr mag/cell

     iteration #100     ecut=    71.00 Ry     beta= 0.30
     Davidson diagonalization with overlap
     ethr =  5.85E-13,  avg # of iterations =  3.5

     negative rho (up, down):  1.165E-03 1.300E-03
 
     Magnetic moment per site:
     atom:    1    charge:   13.6553    magn:   -0.2752    constr:    0.0000
     atom:    2    charge:   14.1306    magn:   -2.3867    constr:    0.0000
     atom:    3    charge:   14.1941    magn:    1.7188    constr:    0.0000
     atom:    4    charge:   14.2215    magn:   -1.5892    constr:    0.0000
     atom:    5    charge:   14.2594    magn:   -0.0049    constr:    0.0000
     atom:    6    charge:   14.2656    magn:   -1.1875    constr:    0.0000
     atom:    7    charge:   14.1221    magn:    2.3335    constr:    0.0000
     atom:    8    charge:   14.1558    magn:   -2.2169    constr:    0.0000
     atom:    9    charge:   14.1395    magn:    2.1644    constr:    0.0000
     atom:   10    charge:   14.1430    magn:   -2.3009    constr:    0.0000
     atom:   11    charge:   14.2442    magn:    1.1935    constr:    0.0000
     atom:   12    charge:   14.2728    magn:   -0.7502    constr:    0.0000
     atom:   13    charge:   14.2419    magn:    1.0638    constr:    0.0000
     atom:   14    charge:   14.2613    magn:   -1.2428    constr:    0.0000
     atom:   15    charge:   14.1204    magn:    2.3080    constr:    0.0000
     atom:   16    charge:   14.1522    magn:   -2.2186    constr:    0.0000
     atom:   17    charge:   14.1322    magn:    2.2301    constr:    0.0000
     atom:   18    charge:   14.1431    magn:   -2.3027    constr:    0.0000
     atom:   19    charge:   14.2366    magn:    1.3039    constr:    0.0000
     atom:   20    charge:   14.2731    magn:   -0.7402    constr:    0.0000
     atom:   21    charge:   14.2440    magn:    1.0381    constr:    0.0000
     atom:   22    charge:   14.2614    magn:   -1.2425    constr:    0.0000
     atom:   23    charge:   14.1283    magn:    2.2628    constr:    0.0000
     atom:   24    charge:   14.1521    magn:   -2.2177    constr:    0.0000
     atom:   25    charge:   14.1402    magn:    2.1613    constr:    0.0000
     atom:   26    charge:   14.1313    magn:   -2.3868    constr:    0.0000
     atom:   27    charge:   14.2448    magn:    1.1935    constr:    0.0000
     atom:   28    charge:   14.2217    magn:   -1.5889    constr:    0.0000
     atom:   29    charge:   14.2418    magn:    1.0634    constr:    0.0000
     atom:   30    charge:   14.2661    magn:   -1.1846    constr:    0.0000
     atom:   31    charge:   14.1204    magn:    2.3074    constr:    0.0000
     atom:   32    charge:   14.1560    magn:   -2.2168    constr:    0.0000
     atom:   33    charge:   14.1358    magn:    2.1687    constr:    0.0000
     atom:   34    charge:   14.1433    magn:   -2.3006    constr:    0.0000
     atom:   35    charge:   14.2388    magn:    1.2937    constr:    0.0000
     atom:   36    charge:   14.2697    magn:   -1.0305    constr:    0.0000
     atom:   37    charge:   14.2524    magn:    0.6983    constr:    0.0000
     atom:   38    charge:   14.2622    magn:   -1.2453    constr:    0.0000
     atom:   39    charge:   14.1196    magn:    2.3143    constr:    0.0000
     atom:   40    charge:   14.1578    magn:   -2.1936    constr:    0.0000
     atom:   41    charge:   14.1518    magn:    2.1228    constr:    0.0000
     atom:   42    charge:   14.1457    magn:   -2.2848    constr:    0.0000
     atom:   43    charge:   14.2398    magn:    1.2961    constr:    0.0000
     atom:   44    charge:   14.2724    magn:   -0.8776    constr:    0.0000
     atom:   45    charge:   14.2454    magn:    0.9686    constr:    0.0000
     atom:   46    charge:   14.2630    magn:   -1.2273    constr:    0.0000
     atom:   47    charge:   14.1240    magn:    2.2920    constr:    0.0000
     atom:   48    charge:   14.1524    magn:   -2.2217    constr:    0.0000
     atom:   49    charge:   14.1341    magn:    2.2140    constr:    0.0000
     atom:   50    charge:   14.1454    magn:   -2.2847    constr:    0.0000
     atom:   51    charge:   14.2433    magn:    1.1925    constr:    0.0000
     atom:   52    charge:   14.2722    magn:   -0.8837    constr:    0.0000
     atom:   53    charge:   14.2455    magn:    1.0033    constr:    0.0000
     atom:   54    charge:   14.2630    magn:   -1.2277    constr:    0.0000
     atom:   55    charge:   14.1251    magn:    2.2798    constr:    0.0000
     atom:   56    charge:   14.1523    magn:   -2.2218    constr:    0.0000
     atom:   57    charge:   14.1528    magn:    2.1210    constr:    0.0000
     atom:   58    charge:   14.1435    magn:   -2.2998    constr:    0.0000
     atom:   59    charge:   14.2400    magn:    1.2969    constr:    0.0000
     atom:   60    charge:   14.2698    magn:   -1.0219    constr:    0.0000
     atom:   61    charge:   14.2457    magn:    0.9644    constr:    0.0000
     atom:   62    charge:   14.2625    magn:   -1.2435    constr:    0.0000
     atom:   63    charge:   14.1240    magn:    2.2924    constr:    0.0000
     atom:   64    charge:   14.1583    magn:   -2.1916    constr:    0.0000
     atom:   65    charge:   14.1342    magn:    2.2173    constr:    0.0000
     atom:   66    charge:   14.1427    magn:   -2.3016    constr:    0.0000
     atom:   67    charge:   14.2387    magn:    1.2965    constr:    0.0000
     atom:   68    charge:   14.2674    magn:   -0.9261    constr:    0.0000
     atom:   69    charge:   14.2457    magn:    0.9944    constr:    0.0000
     atom:   70    charge:   14.2625    magn:   -1.2429    constr:    0.0000
     atom:   71    charge:   14.1199    magn:    2.3144    constr:    0.0000
     atom:   72    charge:   14.1556    magn:   -2.2029    constr:    0.0000
     atom:   73    charge:   14.1309    magn:    2.2229    constr:    0.0000
     atom:   74    charge:   14.1459    magn:   -2.2852    constr:    0.0000
     atom:   75    charge:   14.2401    magn:    1.2950    constr:    0.0000
     atom:   76    charge:   14.2688    magn:   -0.9865    constr:    0.0000
     atom:   77    charge:   14.2472    magn:    0.9705    constr:    0.0000
     atom:   78    charge:   14.2630    magn:   -1.2279    constr:    0.0000
     atom:   79    charge:   14.1239    magn:    2.2922    constr:    0.0000
     atom:   80    charge:   14.1537    magn:   -2.2153    constr:    0.0000
     atom:   81    charge:   14.1391    magn:    2.1833    constr:    0.0000
     atom:   82    charge:   14.1457    magn:   -2.2849    constr:    0.0000
     atom:   83    charge:   14.2432    magn:    1.1926    constr:    0.0000
     atom:   84    charge:   14.2689    magn:   -0.9849    constr:    0.0000
     atom:   85    charge:   14.2449    magn:    1.0382    constr:    0.0000
     atom:   86    charge:   14.2630    magn:   -1.2280    constr:    0.0000
     atom:   87    charge:   14.1252    magn:    2.2799    constr:    0.0000
     atom:   88    charge:   14.1538    magn:   -2.2150    constr:    0.0000
     atom:   89    charge:   14.1308    magn:    2.2230    constr:    0.0000
     atom:   90    charge:   14.1428    magn:   -2.3012    constr:    0.0000
     atom:   91    charge:   14.2403    magn:    1.2966    constr:    0.0000
     atom:   92    charge:   14.2676    magn:   -0.9286    constr:    0.0000
     atom:   93    charge:   14.2473    magn:    0.9684    constr:    0.0000
     atom:   94    charge:   14.2626    magn:   -1.2442    constr:    0.0000
     atom:   95    charge:   14.1239    magn:    2.2924    constr:    0.0000
     atom:   96    charge:   14.1557    magn:   -2.2019    constr:    0.0000
     atom:   97    charge:   14.1361    magn:    2.1669    constr:    0.0000
     atom:   98    charge:   14.1311    magn:   -2.3859    constr:    0.0000
     atom:   99    charge:   14.1945    magn:    1.7189    constr:    0.0000
     atom:  100    charge:   14.2698    magn:   -1.0295    constr:    0.0000
     atom:  101    charge:   14.2527    magn:    0.7032    constr:    0.0000
     atom:  102    charge:   14.2655    magn:   -1.1842    constr:    0.0000
     atom:  103    charge:   14.1226    magn:    2.3334    constr:    0.0000
     atom:  104    charge:   14.1581    magn:   -2.1924    constr:    0.0000
     atom:  105    charge:   14.1525    magn:    2.1209    constr:    0.0000
     atom:  106    charge:   14.1433    magn:   -2.3002    constr:    0.0000
     atom:  107    charge:   14.2448    magn:    1.1972    constr:    0.0000
     atom:  108    charge:   14.2724    magn:   -0.8786    constr:    0.0000
     atom:  109    charge:   14.2455    magn:    0.9647    constr:    0.0000
     atom:  110    charge:   14.2613    magn:   -1.2432    constr:    0.0000
     atom:  111    charge:   14.1200    magn:    2.3083    constr:    0.0000
     atom:  112    charge:   14.1524    magn:   -2.2224    constr:    0.0000
     atom:  113    charge:   14.1342    magn:    2.2140    constr:    0.0000
     atom:  114    charge:   14.1436    magn:   -2.3015    constr:    0.0000
     atom:  115    charge:   14.2365    magn:    1.3029    constr:    0.0000
     atom:  116    charge:   14.2722    magn:   -0.8791    constr:    0.0000
     atom:  117    charge:   14.2456    magn:    1.0032    constr:    0.0000
     atom:  118    charge:   14.2615    magn:   -1.2418    constr:    0.0000
     atom:  119    charge:   14.1282    magn:    2.2629    constr:    0.0000
     atom:  120    charge:   14.1525    magn:   -2.2211    constr:    0.0000
     atom:  121    charge:   14.1526    magn:    2.1189    constr:    0.0000
     atom:  122    charge:   14.1307    magn:   -2.3867    constr:    0.0000
     atom:  123    charge:   14.2455    magn:    1.1968    constr:    0.0000
     atom:  124    charge:   14.2698    magn:   -1.0233    constr:    0.0000
     atom:  125    charge:   14.2457    magn:    0.9631    constr:    0.0000
     atom:  126    charge:   14.2660    magn:   -1.1852    constr:    0.0000
     atom:  127    charge:   14.1200    magn:    2.3074    constr:    0.0000
     atom:  128    charge:   14.1580    magn:   -2.1927    constr:    0.0000

     total cpu time spent up to now is     2315.4 secs

     End of self-consistent calculation

 ------ SPIN UP ------------


          k = 0.0000 0.0000 0.0000 ( 91909 PWs)   bands (ev):

   -80.4544 -80.4540 -80.4197 -80.4191 -80.3999 -80.3996 -80.3992 -80.3989
   -80.3893 -80.3889 -80.3887 -80.3882 -80.3776 -80.3770 -80.3663 -80.3656
   -80.3131 -80.3095 -80.3094 -80.3084 -80.3083 -80.3017 -80.2913 -80.2751
   -80.2729 -80.2669 -80.2657 -80.2571 -80.2558 -80.2557 -80.2544 -80.1319
   -80.1315 -79.7955 -79.7948 -79.7941 -79.7937 -79.7934 -79.7933 -79.7924
   -79.7918 -79.7325 -79.7324 -79.7300 -79.7296 -79.7235 -79.7224 -79.6197
   -79.6197 -79.6104 -79.6068 -79.5861 -79.5860 -79.5768 -79.5601 -79.5593
   -79.5588 -79.5571 -79.5569 -79.5560 -79.3940 -79.3908 -78.9293 -78.5698
   -78.5644 -78.5030 -78.5027 -78.5021 -78.4998 -78.4705 -78.4692 -78.4441
   -78.4432 -78.4334 -78.4327 -78.4294 -78.4286 -78.3492 -78.3485 -78.3477
   -78.3465 -78.3328 -78.3326 -78.3321 -78.3318 -78.3263 -78.3258 -78.3255
   -78.3253 -78.3219 -78.3218 -78.3211 -78.3205 -78.1277 -78.1275 -77.7813
   -77.7810 -77.7806 -77.7801 -77.7737 -77.7732 -77.7681 -77.7678 -77.7678
   -77.7673 -77.7646 -77.7645 -77.7644 -77.7644 -77.7642 -77.7641 -77.7640
   -77.7639 -77.7623 -77.7619 -77.7618 -77.7610 -77.7588 -77.7586 -77.7566
   -77.7559 -77.7556 -77.7552 -77.7220 -77.7218 -77.7215 -77.7214 -64.0792
   -46.6156 -46.6142 -46.5757 -46.5731 -46.5564 -46.5562 -46.5535 -46.5533
   -46.5472 -46.5467 -46.5442 -46.5438 -46.5340 -46.5310 -46.5227 -46.5197
   -46.4853 -46.4846 -46.4741 -46.4709 -46.4706 -46.4703 -46.4699 -46.4691
   -46.4665 -46.4654 -46.4613 -46.4610 -46.4607 -46.4606 -46.4495 -46.4485
   -46.4484 -46.4480 -46.4478 -46.4476 -46.4473 -46.4431 -46.4400 -46.4391
   -46.4390 -46.4389 -46.4369 -46.4288 -46.4286 -46.4197 -46.4185 -46.4182
   -46.4171 -46.3985 -46.3926 -46.3851 -46.3811 -46.3798 -46.3765 -46.3759
   -46.3732 -46.3730 -46.3727 -46.3669 -46.3667 -46.3634 -46.3629 -46.3596
   -46.3576 -46.3572 -46.3523 -46.3469 -46.3466 -46.3447 -46.3417 -46.3357
   -46.3335 -46.3321 -46.3240 -46.3230 -46.3226 -46.3216 -46.2955 -46.2879
   -46.2870 -46.2858 -46.2844 -46.2796 -46.2716 -46.2714 -46.2686 -46.2549
   -46.2533 -46.2497 -46.2486 -46.2461 -46.2448 -46.2355 -46.2338 -46.1993
   -46.1987 -46.0721 -46.0713 -45.8958 -45.8887 -45.8880 -45.8875 -45.8813
   -45.8803 -45.8799 -45.8755 -45.8739 -45.8715 -45.8709 -45.8696 -45.8671
   -45.8664 -45.8653 -45.8632 -45.8378 -45.8361 -45.8351 -45.8342 -45.8327
   -45.8305 -45.8273 -45.8266 -45.8243 -45.8234 -45.8232 -45.8227 -45.8213
   -45.8205 -45.8021 -45.8015 -45.7998 -45.7990 -45.7942 -45.7922 -45.7917
   -45.7901 -45.7873 -45.7866 -45.7865 -45.7788 -45.6771 -45.6761 -45.6682
   -45.6675 -45.6670 -45.6651 -45.6609 -45.6604 -45.6477 -45.6467 -45.6413
   -45.6404 -45.6359 -45.6311 -45.6307 -45.6298 -45.6289 -45.6263 -45.6218
   -45.6195 -45.6184 -45.6179 -45.6173 -45.6127 -45.6121 -45.6105 -45.6094
   -45.6071 -45.6066 -45.6055 -45.5985 -45.5978 -45.5942 -45.5827 -45.5816
   -45.5766 -45.5749 -45.5744 -45.5734 -45.4998 -45.4970 -45.4428 -45.4400
   -45.4291 -45.4257 -45.0680 -45.0274 -44.9621 -44.7015 -44.6956 -44.6700
   -44.6645 -44.6316 -44.6270 -44.6264 -44.6261 -44.6244 -44.6223 -44.6155
   -44.6149 -44.6120 -44.6108 -44.5911 -44.5893 -44.5886 -44.5848 -44.5841
   -44.5825 -44.5800 -44.5785 -44.5691 -44.5666 -44.5656 -44.5636 -44.5632
   -44.5613 -44.5610 -44.5598 -44.5577 -44.5560 -44.5462 -44.5451 -44.5426
   -44.5411 -44.5408 -44.5406 -44.5395 -44.5364 -44.5361 -44.5344 -44.4706
   -44.4676 -44.4668 -44.4647 -44.4598 -44.4574 -44.4496 -44.4484 -44.4466
   -44.4452 -44.4428 -44.4426 -44.4410 -44.4400 -44.4371 -44.4366 -44.4310
   -44.4295 -44.4265 -44.4256 -44.4081 -44.4078 -44.4068 -44.4063 -44.4052
   -44.4039 -44.4024 -44.4017 -44.3977 -44.3957 -44.3954 -44.3945 -44.3911
   -44.3882 -44.3862 -44.3816 -44.3802 -44.3784 -44.3765 -44.3759 -44.3753
   -44.3743 -44.3739 -44.3732 -44.3690 -44.3683 -44.3666 -44.3646 -44.2365
   -44.2354 -44.2117 -44.2109 -44.1867 -44.1856 -43.9511 -43.9505 -43.9498
   -43.9493 -43.9449 -43.9442 -43.9406 -43.9395 -43.9391 -43.9382 -43.9354
   -43.9346 -43.9342 -43.9338 -43.9296 -43.9280 -43.9266 -43.9263 -43.9234
   -43.9226 -43.9221 -43.9214 -43.9212 -43.9202 -43.9193 -43.9191 -43.9189
   -43.9180 -43.8846 -43.8840 -43.8837 -43.8832 -43.8737 -43.8732 -43.8727
   -43.8721 -43.8625 -43.8618 -43.8593 -43.8588 -43.8571 -43.8569 -43.8563
   -43.8560 -43.8553 -43.8546 -43.8541 -43.8532 -43.8529 -43.8520 -43.8519
   -43.8515 -43.8512 -43.8508 -43.8505 -43.8499 -43.8428 -43.8417 -43.8405
   -43.8403 -43.8098 -43.8095 -43.8093 -43.8090 -43.8040 -43.8031 -43.8001
   -43.8000 -43.7998 -43.7996 -43.7961 -43.7961 -43.7960 -43.7946 -43.7938
   -43.7934 -43.7930 -43.7926 -43.7902 -43.7896 -43.7890 -43.7880 -43.7864
   -43.7861 -43.7851 -43.7845 -43.7830 -43.7825 -43.7793 -43.7791 -43.7737
   -43.7727 -43.7638 -43.7635 -43.7607 -43.7607 -34.1277 -34.0780 -34.0364
    -0.2889   0.4746   0.4873   0.5506   0.5720   1.2317   1.2348   1.2399
     1.2616   1.3789   2.0656   2.0804   2.1359   2.1665   2.2948   2.4759
     2.5853   2.6060   2.6136   2.6211   2.6277   2.6703   2.8229   2.8367
     2.8831   2.8983   2.9607   2.9611   2.9689   2.9796   2.9893   3.0240
     3.2402   3.2483   3.3562   3.3652   3.3949   3.4116   3.4262   3.4297
     3.4381   3.4439   3.4522   3.4777   3.5042   3.5766   3.5814   3.5837
[...]
     3.5747   3.5874   3.5949   3.5986   3.6196   3.6241   3.6412   3.6463
     3.6533   3.6647   3.7064   3.7080   3.7089   3.7139   3.7537   3.7793
     3.7855   3.7874   3.8110   3.8201   3.8243   3.8786   3.8884   3.8910
     3.8911   3.9052   3.9065   3.9068   3.9382   3.9417   3.9449   3.9695
     3.9754   4.0071   4.0120   4.0122   4.1247   4.1336   4.1462   4.1552
     4.1653   4.1680   4.1708   4.1722   4.1758   4.1784   4.1853   4.1950
     4.2317   4.2363   4.2460   4.2520   4.2574   4.2628   4.2650   4.2657
     4.2742   4.2844   4.2904   4.2905   4.2934   4.2993   4.3105   4.3121
     4.3145   4.3187   4.3238   4.3294   4.3297   4.3351   4.3428   4.3484
     4.3487   4.3576   4.3704   4.3709   4.3769   4.3822   4.3843   4.4035
     4.4124   4.4314   4.4329   4.4506   4.4836   4.4886   4.4924   4.4978
     4.5032   4.5086   4.5167   4.5176   4.5322   4.5374   4.5611   4.5743
     4.6074   4.6141   4.6157   4.6215   4.6564   4.6587   4.6680   4.6699
     4.6836   4.6920   4.6950   4.6990   4.7060   4.7066   4.7132   4.7171
     4.7185   4.7260   4.7520   4.7533   4.7564   4.7572   4.7652   4.7715
     4.7738   4.7862   4.7949   4.7964   4.7975   4.8041   4.8150   4.8163
     4.8298   4.8338   4.8387   4.8493   4.8945   4.8963   4.9030   4.9044
     4.9047   4.9118   4.9352   4.9413   4.9432   4.9477   4.9718   5.0311
     5.0385   5.0645   5.0746   5.0797   5.0855   5.1106   5.1113   5.1248
     5.1277   5.1841   5.1985   5.2004   5.2622   5.2649   5.2850   5.3017
     5.3211   5.3337   5.3401   5.3407   5.3547   5.3618   5.3631   5.3730
     5.3811   5.3831   5.3882   5.4089   5.4105   5.4439   5.4496   5.4525
     5.4531   5.4803   5.4872   5.4881   5.5008   5.5224   5.5313   5.5358
     5.5434   5.5472   5.5555   5.5620   5.5809   5.5839   5.5889   5.5902
     5.5993   5.6031   5.6077   5.6133   5.6159   5.6169   5.6182   5.6203
     5.6233   5.6271   5.6325   5.6333   5.6358   5.6364   5.6749   5.6770
     5.7330   5.7403   5.7503   5.7518   5.7760   5.7784   5.7894   5.8030
     5.8096   5.8120   5.8131   5.8210   5.8236   5.8256   5.8356   5.8379
     5.8537   5.8679   5.8684   5.9021   5.9038   5.9248   5.9572   5.9633
     5.9763   5.9932   6.0605   6.0725   6.0817   6.1010   6.1033   6.1041
     6.1069   6.1273   6.1280   6.1287   6.1446   6.1543   6.1613   6.1629
     6.1695   6.1698   6.1802   6.1812   6.1817   6.1913   6.1923   6.1943
     6.2056   6.2058   6.2059   6.2061   6.2104   6.2324   6.2359   6.2403
     6.2496   6.2600   6.2647   6.2712   6.2846   6.2912   6.3034   6.3053
     6.3657   6.3776   6.3872   6.3937   6.4033   6.4114   6.4267   6.4285
     6.4355   6.4396   6.4436   6.4441   6.4498   6.4507   6.4519   6.4553
     6.4631   6.4634   6.4702   6.4760   6.4769   6.4792   6.4908   6.5020
     6.5040   6.5041   6.5054   6.5076   6.5092   6.5126   6.5135   6.5171
     6.5236   6.5339   6.5461   6.5558   6.5577   6.5630   6.5647   6.5773
     6.5917   6.6023   6.6191   6.6204   6.6314   6.6334   6.6518   6.6583
     6.6662   6.6720   6.6759   6.6887   6.6993   6.7023   6.7101   6.7137
     6.7176   6.7187   6.7346   6.7450   6.7479   6.7491   6.7576   6.7658
     6.7684   6.7744   6.7791   6.7864   6.7869   6.7945   6.7997   6.8007
     6.8380   6.8465   6.8556   6.8641   6.8661   6.8664   6.8795   6.8943
     6.8955   6.8973   6.9087   6.9113   6.9228   6.9297   6.9445   6.9463
     6.9624   6.9704   6.9730   6.9736   6.9888   7.0103   7.0135   7.0241
     7.0320   7.0763   7.0765   7.0867   7.0898   7.0927   7.0933   7.1028
     7.1089   7.1101   7.1173   7.1287   7.1382   7.1602   7.1623   7.1628
     7.1686   7.1789   7.1811   7.2355   7.2515   7.2689   7.2738   7.3170
     7.3429   7.3534   7.3727   7.3835   7.3937   7.4057   7.4148   7.4158
     7.4263   7.4287   7.4370   7.4452   7.4503   7.4512   7.4522   7.4553
     7.4669   7.4716   7.4760   7.5135   7.5230   7.5252   7.5321   7.5451
     7.5510   7.5815   7.5860   7.6262   7.6298   7.6377   7.6401   7.6462
     7.6565   7.6605   7.6613   7.6789   7.6866   7.6916   7.6991   7.7264
     7.7411   7.7506   7.7617   7.7931   7.8083   7.8098   7.8141   7.8246
     7.8362   7.8411   7.8418   7.8450   7.8501   7.8633   7.8827   7.8827
     7.8889   7.8912   7.9184   7.9219   7.9240   7.9404   7.9475   7.9615
     7.9726   7.9805   7.9819   8.0317   8.0474   8.0487   8.0510   8.0605
     8.0741   8.0753   8.0781   8.0873   8.0933   8.1013   8.1064   8.1312
     8.1355   8.1370   8.1425   8.1447   8.1941   8.2035   8.2039   8.2083
     8.2312   8.2476   8.2533   8.2692   8.2829   8.2929   8.3112   8.3293
     8.3486   8.3546   8.3678   8.3698   8.4032   8.4043   8.4398   8.4405
     8.4494   8.4884   8.4996   8.5299   8.5408   8.5429   8.5560   8.5761
     8.5842   8.5898   8.5923   8.5973   8.6162   8.6347   8.6538   8.6629
     8.6751   8.6765   8.6767   8.6811   8.6833   8.6838   8.6873   8.6908
     8.6967   8.7007   8.7033   8.7038   8.7132   8.7142   8.7171   8.7174
     8.7177   8.7192   8.7252   8.7252   8.7294   8.7307   8.7308   8.7375
     8.7393   8.7436   8.7464   8.7490   8.7526   8.7575   8.7641   8.7694
     8.7882   8.7893   8.7953   8.7999   8.8074   8.8154   8.8162   8.8176
     8.8193   8.8293   8.8370   8.8540   8.8554   8.8680   8.8689   8.8790
     8.8795   8.8892   8.8909   8.9033   8.9050   8.9067   8.9138   8.9143
     8.9295   8.9422   8.9523   8.9544   8.9557   8.9601   8.9718   8.9730
     8.9737   8.9750   8.9833   8.9853   9.0065   9.0078   9.0313   9.0451
     9.0499   9.0529   9.0592   9.0665   9.0711   9.0768   9.0777   9.0796
     9.0833   9.0844   9.0869   9.0950   9.0968   9.1296   9.1375   9.1409
     9.1498   9.1556   9.1576   9.1601   9.1615   9.1672   9.1697   9.1763
     9.1774   9.1796   9.1811   9.2012   9.2021   9.2023   9.2046   9.2319
     9.2389   9.2415   9.2479   9.2619   9.2707   9.2825   9.2828   9.2933
     9.2992   9.3017   9.3019   9.3022   9.3086   9.3195   9.3206   9.3278
     9.3291   9.3464   9.3529   9.3543   9.3760   9.3870   9.4151   9.4241
     9.4339   9.4527   9.4888   9.4957   9.5016   9.5056   9.5353   9.5420
     9.6281   9.6791   9.8821   9.8968  10.1117  10.2028  10.2223  10.3275
    10.3461  10.3872  10.4226  10.4391  10.4453  10.4624  10.4976  10.5185
    10.5337  10.5364  10.5742  10.6311  10.6339

     the Fermi energy is     8.0859 ev

!    total energy              =  -42242.29757157 Ry

     total all-electron energy =   -332342.469468 Ry
     estimated scf accuracy    <          8.5E-09 Ry
     smearing contrib. (-TS)   =       0.01855975 Ry
     internal energy E=F+TS    =  -42242.31613132 Ry

     The total energy is F=E-TS. E is the sum of the following terms:
     one-electron contribution =  -98066.19984742 Ry
     hartree contribution      =   49534.96590237 Ry
     xc contribution           =   -3545.93058967 Ry
     ewald contribution        =   20586.80039168 Ry
     one-center paw contrib.   =  -10751.95198828 Ry

     total magnetization       =    -3.68 Bohr mag/cell
     absolute magnetization    =   228.65 Bohr mag/cell

     convergence has been achieved in 100 iterations

     negative rho (up, down):  1.165E-03 1.300E-03

     Forces acting on atoms (cartesian axes, Ry/au):

     atom    1 type  3   force =    -0.00003279   -0.00004105    0.04971430
     atom    2 type  2   force =    -0.01117131   -0.01309756    0.00004855
     atom    3 type  1   force =    -0.01326995    0.00000496   -0.01517542
     atom    4 type  2   force =    -0.00000465   -0.00823617   -0.00773691
     atom    5 type  1   force =    -0.00003508   -0.00002047    0.00079040
     atom    6 type  2   force =    -0.00092652   -0.00008084   -0.00099672
     atom    7 type  1   force =     0.00109628   -0.00000634   -0.00044161
     atom    8 type  2   force =     0.00001760   -0.00008441   -0.00133182
     atom    9 type  1   force =     0.00001222   -0.00122477   -0.00426195
     atom   10 type  2   force =     0.00022967    0.00104271    0.00004041
     atom   11 type  1   force =    -0.00044135   -0.00071263    0.00138219
     atom   12 type  2   force =     0.00000916    0.00017438   -0.00010248
     atom   13 type  1   force =     0.00000089    0.00153145    0.00025666
     atom   14 type  2   force =    -0.00008958    0.00027882    0.00011539
     atom   15 type  1   force =     0.00009524    0.00015737    0.00036253
     atom   16 type  2   force =     0.00001785   -0.00055820   -0.00040246
     atom   17 type  1   force =    -0.00000183   -0.00000585   -0.00037663
     atom   18 type  2   force =     0.00025099   -0.00103251    0.00003194
     atom   19 type  1   force =     0.00003746   -0.00000507   -0.00004767
     atom   20 type  2   force =     0.00000297   -0.00014605   -0.00010615
     atom   21 type  1   force =     0.00000476    0.00000202   -0.00001585
     atom   22 type  2   force =    -0.00009939   -0.00027802    0.00011992
     atom   23 type  1   force =    -0.00030332   -0.00000037    0.00030896
     atom   24 type  2   force =     0.00001001    0.00056174   -0.00038665
     atom   25 type  1   force =    -0.00000616    0.00122579   -0.00426312
     atom   26 type  2   force =    -0.01113529    0.01312722    0.00008318
     atom   27 type  1   force =    -0.00043415    0.00072214    0.00136803
     atom   28 type  2   force =    -0.00001087    0.00824196   -0.00769172
     atom   29 type  1   force =    -0.00001798   -0.00159188    0.00026792
     atom   30 type  2   force =    -0.00090317    0.00011548   -0.00102041
     atom   31 type  1   force =     0.00009355   -0.00013205    0.00034079
     atom   32 type  2   force =     0.00001383    0.00004479   -0.00139515
     atom   33 type  1   force =    -0.00385992    0.00001619   -0.00357859
     atom   34 type  2   force =     0.00054722   -0.00000213    0.00019774
     atom   35 type  1   force =    -0.00059192    0.00000983   -0.00010019
     atom   36 type  2   force =     0.00118604   -0.00006478    0.00136457
     atom   37 type  1   force =     0.00282815    0.00000678    0.00137147
     atom   38 type  2   force =    -0.00005630    0.00055898   -0.00018491
     atom   39 type  1   force =    -0.00088814    0.00001458   -0.00004986
     atom   40 type  2   force =     0.00053822    0.00058202    0.00096658
     atom   41 type  1   force =     0.00001127    0.00065634   -0.00232678
     atom   42 type  2   force =     0.00030371    0.00003072    0.00018758
     atom   43 type  1   force =     0.00023162    0.00012094    0.00036286
     atom   44 type  2   force =     0.00018225    0.00043188    0.00027940
     atom   45 type  1   force =    -0.00015470    0.00000672    0.00013979
     atom   46 type  2   force =    -0.00026889   -0.00021041    0.00019008
     atom   47 type  1   force =    -0.00001308   -0.00045671   -0.00001654
     atom   48 type  2   force =    -0.00020255   -0.00025770   -0.00020728
     atom   49 type  1   force =     0.00015532   -0.00002382    0.00028135
     atom   50 type  2   force =     0.00029517   -0.00000809    0.00016866
     atom   51 type  1   force =     0.00036459   -0.00000835    0.00063623
     atom   52 type  2   force =     0.00018857   -0.00044478    0.00030737
     atom   53 type  1   force =     0.00005996   -0.00001221    0.00040432
     atom   54 type  2   force =    -0.00026382    0.00020482    0.00020051
     atom   55 type  1   force =    -0.00044855   -0.00000755    0.00011433
     atom   56 type  2   force =    -0.00021061    0.00027373   -0.00020836
     atom   57 type  1   force =     0.00003463   -0.00064885   -0.00234936
     atom   58 type  2   force =     0.00054139    0.00003599    0.00020891
     atom   59 type  1   force =     0.00025888   -0.00013390    0.00036347
     atom   60 type  2   force =     0.00123759    0.00001683    0.00139642
     atom   61 type  1   force =    -0.00014129   -0.00002317    0.00016478
     atom   62 type  2   force =    -0.00004019   -0.00055092   -0.00016867
     atom   63 type  1   force =    -0.00000830    0.00045012   -0.00003390
     atom   64 type  2   force =     0.00054676   -0.00056931    0.00093859
     atom   65 type  1   force =    -0.00001474    0.00001913   -0.00026471
     atom   66 type  2   force =    -0.00057273   -0.00001857    0.00020243
     atom   67 type  1   force =     0.00060094    0.00002093   -0.00011699
     atom   68 type  2   force =    -0.00002085    0.00011445    0.00008314
     atom   69 type  1   force =     0.00001406    0.00000431   -0.00070235
     atom   70 type  2   force =     0.00002877    0.00056266   -0.00020187
     atom   71 type  1   force =     0.00093448    0.00000428   -0.00004669
     atom   72 type  2   force =     0.00003307   -0.00012862   -0.00002753
     atom   73 type  1   force =    -0.00000931    0.00013763    0.00031648
     atom   74 type  2   force =    -0.00030229    0.00001764    0.00018387
     atom   75 type  1   force =    -0.00026372    0.00013252    0.00035242
     atom   76 type  2   force =     0.00000248    0.00013068    0.00034878
     atom   77 type  1   force =     0.00000818   -0.00002361    0.00030187
     atom   78 type  2   force =     0.00025835   -0.00021446    0.00020260
     atom   79 type  1   force =     0.00001593   -0.00047645    0.00001273
     atom   80 type  2   force =     0.00000036   -0.00044888   -0.00005298
     atom   81 type  1   force =     0.00000865    0.00000806    0.00040896
     atom   82 type  2   force =    -0.00028306    0.00000601    0.00016581
     atom   83 type  1   force =    -0.00037003   -0.00000394    0.00064771
     atom   84 type  2   force =    -0.00000164   -0.00012720    0.00033646
     atom   85 type  1   force =    -0.00000457   -0.00001781    0.00041214
     atom   86 type  2   force =     0.00025780    0.00020292    0.00019820
     atom   87 type  1   force =     0.00045364   -0.00002166    0.00012676
     atom   88 type  2   force =    -0.00000542    0.00041607   -0.00004585
     atom   89 type  1   force =    -0.00000037   -0.00014158    0.00032322
     atom   90 type  2   force =    -0.00056380    0.00004345    0.00021787
     atom   91 type  1   force =    -0.00024814   -0.00013310    0.00034196
     atom   92 type  2   force =    -0.00000399   -0.00010493    0.00010045
     atom   93 type  1   force =     0.00002012    0.00001378    0.00029351
     atom   94 type  2   force =     0.00001298   -0.00057069   -0.00019971
     atom   95 type  1   force =     0.00000245    0.00042808   -0.00000462
     atom   96 type  2   force =     0.00001227    0.00015098    0.00000763
     atom   97 type  1   force =     0.00381431    0.00001312   -0.00363104
     atom   98 type  2   force =     0.01122320   -0.01309808    0.00009287
     atom   99 type  1   force =     0.01333187    0.00000753   -0.01516223
     atom  100 type  2   force =    -0.00118919   -0.00001507    0.00135726
     atom  101 type  1   force =    -0.00288657   -0.00001427    0.00141398
     atom  102 type  2   force =     0.00094792   -0.00006938   -0.00100306
     atom  103 type  1   force =    -0.00109713   -0.00000784   -0.00043509
     atom  104 type  2   force =    -0.00055601    0.00058694    0.00094749
     atom  105 type  1   force =     0.00000631    0.00063300   -0.00234556
     atom  106 type  2   force =    -0.00023337    0.00104182    0.00005664
     atom  107 type  1   force =     0.00044238   -0.00067060    0.00138740
     atom  108 type  2   force =    -0.00018821    0.00044172    0.00028337
     atom  109 type  1   force =     0.00013746    0.00000322    0.00013866
     atom  110 type  2   force =     0.00009169    0.00027062    0.00013820
     atom  111 type  1   force =    -0.00011848    0.00014681    0.00037708
     atom  112 type  2   force =     0.00019890   -0.00027359   -0.00021445
     atom  113 type  1   force =    -0.00016890   -0.00001374    0.00028609
     atom  114 type  2   force =    -0.00025699   -0.00104686    0.00007079
     atom  115 type  1   force =    -0.00004161   -0.00000760   -0.00003561
     atom  116 type  2   force =    -0.00018228   -0.00043344    0.00030697
     atom  117 type  1   force =    -0.00005817   -0.00001445    0.00040398
     atom  118 type  2   force =     0.00009235   -0.00029357    0.00013186
     atom  119 type  1   force =     0.00031002   -0.00002172    0.00033733
     atom  120 type  2   force =     0.00019442    0.00024490   -0.00023151
     atom  121 type  1   force =     0.00002693   -0.00059579   -0.00239248
     atom  122 type  2   force =     0.01123922    0.01318241    0.00019759
     atom  123 type  1   force =     0.00044852    0.00071343    0.00138497
     atom  124 type  2   force =    -0.00124203   -0.00002137    0.00137114
     atom  125 type  1   force =     0.00012497   -0.00002289    0.00013745
     atom  126 type  2   force =     0.00092224    0.00009868   -0.00105016
     atom  127 type  1   force =    -0.00014605   -0.00014111    0.00034014
     atom  128 type  2   force =    -0.00055971   -0.00057526    0.00091918

     Total force =     0.070288     Total SCF correction =     0.000267


     Computing stress (Cartesian axis) and pressure


     negative rho (up, down):  1.165E-03 1.300E-03
          total   stress  (Ry/bohr**3)                   (kbar)     P=      -22.27
  -0.00016143  -0.00000000   0.00000005          -23.75       -0.00        0.01
  -0.00000000  -0.00011678   0.00000028           -0.00      -17.18        0.04
   0.00000005   0.00000028  -0.00017603            0.01        0.04      -25.89


     Writing output data file /scratch/bxp912/feruslab2.save/
 
     init_run     :      9.21s CPU      9.71s WALL (       1 calls)
     electrons    :   2250.61s CPU   2305.04s WALL (       1 calls)
     forces       :      5.25s CPU      5.42s WALL (       1 calls)
     stress       :    113.41s CPU    114.04s WALL (       1 calls)

     Called by init_run:
     wfcinit      :      5.77s CPU      6.03s WALL (       1 calls)
     potinit      :      1.06s CPU      1.12s WALL (       1 calls)
     hinit0       :      1.54s CPU      1.61s WALL (       1 calls)

     Called by electrons:
     c_bands      :   1872.60s CPU   1908.29s WALL (     100 calls)
     sum_band     :    262.55s CPU    272.26s WALL (     100 calls)
     v_of_rho     :     14.50s CPU     15.57s WALL (     101 calls)
     newd         :     28.29s CPU     34.24s WALL (     101 calls)
     PAW_pot      :     61.19s CPU     62.46s WALL (     101 calls)
     mix_rho      :      9.41s CPU     10.11s WALL (     100 calls)

     Called by c_bands:
     init_us_2    :      9.87s CPU     10.00s WALL (     406 calls)
     regterg      :   1836.36s CPU   1870.72s WALL (     200 calls)

     Called by *egterg:
     rdiaghg      :    198.90s CPU    201.19s WALL (     975 calls)
     h_psi        :    744.48s CPU    754.67s WALL (     977 calls)
     s_psi        :    142.44s CPU    145.60s WALL (     977 calls)
     g_psi        :      2.77s CPU      2.80s WALL (     775 calls)

     Called by h_psi:
     h_psi:calbec :    183.73s CPU    184.95s WALL (     977 calls)
     vloc_psi     :    407.66s CPU    412.45s WALL (     977 calls)
     add_vuspsi   :    147.47s CPU    151.60s WALL (     977 calls)

     General routines
     calbec       :    269.94s CPU    271.71s WALL (    1187 calls)
     fft          :     13.58s CPU     13.81s WALL (    2148 calls)
     ffts         :      4.51s CPU      4.60s WALL (    2201 calls)
     fftw         :    415.89s CPU    420.54s WALL (  665676 calls)
     interpolate  :      2.20s CPU      2.25s WALL (     202 calls)
 
     Parallel routines
     fft_scatt_xy :     53.29s CPU     53.70s WALL (  670025 calls)
     fft_scatt_yz :    283.78s CPU    287.44s WALL (  670025 calls)
 
     PWSCF        :  39m42.04s CPU  40m39.16s WALL

 
   This run was terminated on:  15: 8: 4  29May2022            

=------------------------------------------------------------------------------=
   JOB DONE.
=------------------------------------------------------------------------------=
