
     Program PWSCF v.6.7MaX starts on 29May2022 at 14:47:22 

     This program is part of the open-source Quantum ESPRESSO suite
     for quantum simulation of materials; please cite
         "P. Giannozzi et al., J. Phys.:Condens. Matter 21 395502 (2009);
         "P. Giannozzi et al., J. Phys.:Condens. Matter 29 465901 (2017);
          URL http://www.quantum-espresso.org", 
     in publications or presentations arising from this work. More details at
     http://www.quantum-espresso.org/quote

     Parallel version (MPI & OpenMP), running on      72 processor cores
     Number of MPI processes:                72
     Threads/MPI process:                     1

     MPI processes distributed on     1 nodes
     R & G space division:  proc/nbgrp/npool/nimage =      72
     Reading input from feruslabE.in
Warning: card &CELL ignored
Warning: card CELL_DYNAMICS = 'BFGS', ignored
Warning: card CELL_FACTOR = 2.0, ignored
Warning: card PRESS = 0.0, ignored
Warning: card / ignored

     Current dimensions of program PWSCF are:
     Max number of different atomic species (ntypx) = 10
     Max number of k-points (npk) =  40000
     Max angular momentum in pseudopotentials (lmaxx) =  3
     file Fe.pbe-spn-kjpaw_psl.1.0.0.UPF: wavefunction(s)  3P 3D renormalized
     file Fe.pbe-spn-kjpaw_psl.1.0.0.UPF: wavefunction(s)  3P 3D renormalized
     file Ru.pbe-spn-kjpaw_psl.1.0.0.UPF: wavefunction(s)  4D renormalized

     gamma-point specific algorithms are used

     Subspace diagonalization in iterative solution of the eigenvalue problem:
     one sub-group per band group will be used
     ELPA distributed-memory algorithm (size of sub-group:  8*  8 procs)

 
     Parallelization info
     --------------------
     sticks:   dense  smooth     PW     G-vecs:    dense   smooth      PW
     Min         333     220     53                38016    20412    2546
     Max         336     222     56                38038    20426    2560
     Sum       24049   15899   3985              2738239  1469969  183817
 


     bravais-lattice index     =            0
     lattice parameter (alat)  =      25.8600  a.u.
     unit-cell volume          =   18186.5006 (a.u.)^3
     number of atoms/cell      =          128
     number of atomic types    =            3
     number of electrons       =      2048.00
     number of Kohn-Sham states=         1229
     kinetic-energy cutoff     =      71.0000  Ry
     charge density cutoff     =     430.0000  Ry
     scf convergence threshold =      1.0E-08
     mixing beta               =       0.3000
     number of iterations used =           10  local-TF  mixing
     Exchange-correlation= SLA  PW   PBX  PBC
                           (   1   4   3   4   0   0   0)

     celldm(1)=  25.860000  celldm(2)=   0.000000  celldm(3)=   0.000000
     celldm(4)=   0.000000  celldm(5)=   0.000000  celldm(6)=   0.000000

     crystal axes: (cart. coord. in units of alat)
               a(1) = (   1.000000   0.000000   0.000000 )  
               a(2) = (   0.000000   1.051631   0.000000 )  
               a(3) = (   0.000000   0.000000   1.000000 )  

     reciprocal axes: (cart. coord. in units 2 pi/alat)
               b(1) = (  1.000000  0.000000  0.000000 )  
               b(2) = (  0.000000  0.950903  0.000000 )  
               b(3) = (  0.000000  0.000000  1.000000 )  


     PseudoPot. # 1 for Fe read from file:
     /rds/homes/b/bxp912/pp/Fe.pbe-spn-kjpaw_psl.1.0.0.UPF
     MD5 check sum: 42f43b795421b414b0dc916aa790dbcb
     Pseudo is Projector augmented-wave + core cor, Zval = 16.0
     Generated using &quot;atomic&quot; code by A. Dal Corso  v.6.3
     Shape of augmentation charge: PSQ
     Using radial grid of 1191 points,  6 beta functions with: 
                l(1) =   0
                l(2) =   0
                l(3) =   1
                l(4) =   1
                l(5) =   2
                l(6) =   2
     Q(r) pseudized with 0 coefficients 


     PseudoPot. # 2 for Fe read from file:
     /rds/homes/b/bxp912/pp/Fe.pbe-spn-kjpaw_psl.1.0.0.UPF
     MD5 check sum: 42f43b795421b414b0dc916aa790dbcb
     Pseudo is Projector augmented-wave + core cor, Zval = 16.0
     Generated using &quot;atomic&quot; code by A. Dal Corso  v.6.3
     Shape of augmentation charge: PSQ
     Using radial grid of 1191 points,  6 beta functions with: 
                l(1) =   0
                l(2) =   0
                l(3) =   1
                l(4) =   1
                l(5) =   2
                l(6) =   2
     Q(r) pseudized with 0 coefficients 


     PseudoPot. # 3 for Ru read from file:
     /rds/homes/b/bxp912/pp/Ru.pbe-spn-kjpaw_psl.1.0.0.UPF
     MD5 check sum: 0ae1f594dea09af7be8575c3a481d1ae
     Pseudo is Projector augmented-wave + core cor, Zval = 16.0
     Generated using "atomic" code by A. Dal Corso  v.5.1
     Shape of augmentation charge: PSQ
     Using radial grid of 1233 points,  6 beta functions with: 
                l(1) =   0
                l(2) =   0
                l(3) =   1
                l(4) =   1
                l(5) =   2
                l(6) =   2
     Q(r) pseudized with 0 coefficients 


     atomic species   valence    mass     pseudopotential
        Fe1           16.00    55.84500     Fe( 1.00)
        Fe2           16.00    55.84500     Fe( 1.00)
        Ru            16.00   101.07000     Ru( 1.00)

     Starting magnetic structure 
     atomic species   magnetization
        Fe1          0.100
        Fe2         -0.100
        Ru           0.001

     No symmetry found



   Cartesian axes

     site n.     atom                  positions (alat units)
         1           Ru  tau(   1) = (   0.0625059   0.0657779   0.2910260  )
         2           Fe2 tau(   2) = (   0.1918897   0.2014172   0.3118918  )
         3           Fe1 tau(   3) = (   0.1882328   0.0656869   0.4358379  )
         4           Fe2 tau(   4) = (   0.0624775   0.1970719   0.4359471  )
         5           Fe1 tau(   5) = (   0.0624549   0.0656597   0.5661003  )
         6           Fe2 tau(   6) = (   0.1871430   0.1965451   0.5642273  )
         7           Fe1 tau(   7) = (   0.1889127   0.0656324   0.6868723  )
         8           Fe2 tau(   8) = (   0.0625044   0.1953941   0.6845946  )
         9           Fe1 tau(   9) = (   0.0624492   0.3290082   0.3162931  )
        10           Fe2 tau(  10) = (   0.1878214   0.4592247   0.3140372  )
        11           Fe1 tau(  11) = (   0.1883843   0.3293589   0.4358220  )
        12           Fe2 tau(  12) = (   0.0624760   0.4596378   0.4342728  )
        13           Fe1 tau(  13) = (   0.0624920   0.3282674   0.5642399  )
        14           Fe2 tau(  14) = (   0.1874818   0.4600075   0.5644807  )
        15           Fe1 tau(  15) = (   0.1868970   0.3281618   0.6858748  )
        16           Fe2 tau(  16) = (   0.0624936   0.4605212   0.6849404  )
        17           Fe1 tau(  17) = (   0.0625024   0.5915716   0.3157343  )
        18           Fe2 tau(  18) = (   0.1879142   0.7239319   0.3139752  )
        19           Fe1 tau(  19) = (   0.1872820   0.5915469   0.4358293  )
        20           Fe2 tau(  20) = (   0.0624835   0.7235138   0.4342323  )
        21           Fe1 tau(  21) = (   0.0624907   0.5915302   0.5645538  )
        22           Fe2 tau(  22) = (   0.1874919   0.7231202   0.5644793  )
        23           Fe1 tau(  23) = (   0.1874063   0.5915279   0.6856542  )
        24           Fe2 tau(  24) = (   0.0625142   0.7225942   0.6849283  )
        25           Fe1 tau(  25) = (   0.0624543   0.8539987   0.3163316  )
        26           Fe2 tau(  26) = (   0.1918142   0.9816207   0.3118943  )
        27           Fe1 tau(  27) = (   0.1884013   0.8536921   0.4358345  )
        28           Fe2 tau(  28) = (   0.0624649   0.9860452   0.4359182  )
        29           Fe1 tau(  29) = (   0.0624985   0.8547814   0.5642264  )
        30           Fe2 tau(  30) = (   0.1871332   0.9865130   0.5642305  )
        31           Fe1 tau(  31) = (   0.1869002   0.8548778   0.6858783  )
        32           Fe2 tau(  32) = (   0.0624558   0.9876052   0.6846415  )
        33           Fe1 tau(  33) = (   0.3125283   0.0656767   0.3153241  )
        34           Fe2 tau(  34) = (   0.4366043   0.1971699   0.3142072  )
        35           Fe1 tau(  35) = (   0.4374422   0.0657131   0.4355769  )
        36           Fe2 tau(  36) = (   0.3125894   0.1975774   0.4358271  )
        37           Fe1 tau(  37) = (   0.3120225   0.0656827   0.5647659  )
        38           Ru  tau(  38) = (   0.4378242   0.1969597   0.5645465  )
        39           Fe1 tau(  39) = (   0.4382670   0.0656506   0.6865253  )
        40           Fe2 tau(  40) = (   0.3128280   0.1968527   0.6838988  )
        41           Fe1 tau(  41) = (   0.3143566   0.3300848   0.3168881  )
        42           Fe2 tau(  42) = (   0.4380142   0.4607661   0.3143143  )
        43           Fe1 tau(  43) = (   0.4381801   0.3288131   0.4365576  )
        44           Fe2 tau(  44) = (   0.3127566   0.4604807   0.4354136  )
        45           Fe1 tau(  45) = (   0.3125129   0.3287898   0.5653541  )
        46           Fe2 tau(  46) = (   0.4375258   0.4601913   0.5648721  )
        47           Fe1 tau(  47) = (   0.4372527   0.3286868   0.6863403  )
        48           Fe2 tau(  48) = (   0.3121639   0.4602999   0.6850825  )
        49           Fe1 tau(  49) = (   0.3122461   0.5915191   0.3156420  )
        50           Fe2 tau(  50) = (   0.4379749   0.7223781   0.3143454  )
        51           Fe1 tau(  51) = (   0.4374235   0.5915294   0.4359555  )
        52           Fe2 tau(  52) = (   0.3127687   0.7226645   0.4354242  )
        53           Fe1 tau(  53) = (   0.3124200   0.5915220   0.5650306  )
        54           Fe2 tau(  54) = (   0.4375286   0.7229381   0.5648768  )
        55           Fe1 tau(  55) = (   0.4377002   0.5915143   0.6861050  )
        56           Fe2 tau(  56) = (   0.3121736   0.7228110   0.6850814  )
        57           Fe1 tau(  57) = (   0.3144103   0.8531069   0.3169355  )
        58           Fe2 tau(  58) = (   0.4366715   0.9859647   0.3142091  )
        59           Fe1 tau(  59) = (   0.4382063   0.8542513   0.4365853  )
        60           Fe2 tau(  60) = (   0.3125895   0.9855573   0.4358131  )
        61           Fe1 tau(  61) = (   0.3125265   0.8542407   0.5653611  )
        62           Fe2 tau(  62) = (   0.4378325   0.9861451   0.5645420  )
        63           Fe1 tau(  63) = (   0.4372699   0.8543597   0.6863681  )
        64           Fe2 tau(  64) = (   0.3128304   0.9861935   0.6838849  )
        65           Fe1 tau(  65) = (   0.5625142   0.0657518   0.3155197  )
        66           Fe2 tau(  66) = (   0.6884275   0.1972393   0.3141685  )
        67           Fe1 tau(  67) = (   0.6875814   0.0657202   0.4355947  )
        68           Fe2 tau(  68) = (   0.5624869   0.1971116   0.4346219  )
        69           Fe1 tau(  69) = (   0.5624665   0.0657032   0.5650370  )
        70           Fe2 tau(  70) = (   0.6871792   0.1969761   0.5645671  )
        71           Fe1 tau(  71) = (   0.6867500   0.0657180   0.6864988  )
        72           Fe2 tau(  72) = (   0.5624490   0.1974414   0.6850771  )
        73           Fe1 tau(  73) = (   0.5624717   0.3284063   0.3152410  )
        74           Fe2 tau(  74) = (   0.6870449   0.4607425   0.3143349  )
        75           Fe1 tau(  75) = (   0.6868481   0.3288285   0.4365528  )
        76           Fe2 tau(  76) = (   0.5624858   0.4602011   0.4356304  )
        77           Fe1 tau(  77) = (   0.5624696   0.3286445   0.5657893  )
        78           Fe2 tau(  78) = (   0.6875184   0.4601922   0.5648814  )
        79           Fe1 tau(  79) = (   0.6877528   0.3286750   0.6863519  )
        80           Fe2 tau(  80) = (   0.5624904   0.4601740   0.6852254  )
        81           Fe1 tau(  81) = (   0.5625021   0.5915534   0.3157218  )
        82           Fe2 tau(  82) = (   0.6870476   0.7223925   0.3143659  )
        83           Fe1 tau(  83) = (   0.6876222   0.5915305   0.4359579  )
        84           Fe2 tau(  84) = (   0.5624842   0.7229418   0.4356372  )
        85           Fe1 tau(  85) = (   0.5624854   0.5915252   0.5649611  )
        86           Fe2 tau(  86) = (   0.6875119   0.7229386   0.5648756  )
        87           Fe1 tau(  87) = (   0.6873472   0.5915288   0.6861004  )
        88           Fe2 tau(  88) = (   0.5624894   0.7229340   0.6852333  )
        89           Fe1 tau(  89) = (   0.5624839   0.8546681   0.3152447  )
        90           Fe2 tau(  90) = (   0.6883906   0.9859399   0.3141765  )
        91           Fe1 tau(  91) = (   0.6868257   0.8542599   0.4365795  )
        92           Fe2 tau(  92) = (   0.5624906   0.9860592   0.4346384  )
        93           Fe1 tau(  93) = (   0.5624785   0.8543838   0.5658206  )
        94           Fe2 tau(  94) = (   0.6872127   0.9861528   0.5645641  )
        95           Fe1 tau(  95) = (   0.6877739   0.8543440   0.6863827  )
        96           Fe2 tau(  96) = (   0.5625026   0.9856437   0.6850466  )
        97           Fe1 tau(  97) = (   0.8124175   0.0656983   0.3153522  )
        98           Fe2 tau(  98) = (   0.9330675   0.2013798   0.3119115  )
        99           Fe1 tau(  99) = (   0.9367576   0.0657035   0.4358350  )
       100           Fe2 tau( 100) = (   0.8123431   0.1975886   0.4358514  )
       101           Fe1 tau( 101) = (   0.8129413   0.0657175   0.5647536  )
       102           Fe2 tau( 102) = (   0.9378744   0.1965738   0.5642378  )
       103           Fe1 tau( 103) = (   0.9360334   0.0657117   0.6868729  )
       104           Fe2 tau( 104) = (   0.8121472   0.1969087   0.6839032  )
       105           Fe1 tau( 105) = (   0.8107129   0.3301075   0.3169261  )
       106           Fe2 tau( 106) = (   0.9371901   0.4592594   0.3140454  )
       107           Fe1 tau( 107) = (   0.9366242   0.3293580   0.4358643  )
       108           Fe2 tau( 108) = (   0.8122145   0.4604953   0.4354371  )
       109           Fe1 tau( 109) = (   0.8124339   0.3288010   0.5653806  )
       110           Fe2 tau( 110) = (   0.9375603   0.4600078   0.5644969  )
       111           Fe1 tau( 111) = (   0.9381634   0.3281476   0.6858955  )
       112           Fe2 tau( 112) = (   0.8128228   0.4602923   0.6850926  )
       113           Fe1 tau( 113) = (   0.8127453   0.5915450   0.3156492  )
       114           Fe2 tau( 114) = (   0.9371598   0.7238976   0.3139999  )
       115           Fe1 tau( 115) = (   0.9377646   0.5915458   0.4358419  )
       116           Fe2 tau( 116) = (   0.8122153   0.7226557   0.4354428  )
       117           Fe1 tau( 117) = (   0.8125580   0.5915265   0.5650413  )
       118           Fe2 tau( 118) = (   0.9375705   0.7231224   0.5644911  )
       119           Fe1 tau( 119) = (   0.9376433   0.5915402   0.6856562  )
       120           Fe2 tau( 120) = (   0.8128215   0.7228073   0.6850820  )
       121           Fe1 tau( 121) = (   0.8106770   0.8530522   0.3170121  )
       122           Fe2 tau( 122) = (   0.9331251   0.9816405   0.3118907  )
       123           Fe1 tau( 123) = (   0.9366253   0.8537026   0.4358875  )
       124           Fe2 tau( 124) = (   0.8123694   0.9855677   0.4358403  )
       125           Fe1 tau( 125) = (   0.8124209   0.8542355   0.5653886  )
       126           Fe2 tau( 126) = (   0.9378693   0.9865197   0.5642632  )
       127           Fe1 tau( 127) = (   0.9381364   0.8548433   0.6858883  )
       128           Fe2 tau( 128) = (   0.8121443   0.9862056   0.6839159  )

     number of k points=     1  Marzari-Vanderbilt smearing, width (Ry)=  0.0400
                       cart. coord. in units 2pi/alat
        k(    1) = (   0.0000000   0.0000000   0.0000000), wk =   1.0000000

     Dense  grid:  1369120 G-vectors     FFT dimensions: ( 180, 180, 180)

     Smooth grid:   734985 G-vectors     FFT dimensions: ( 144, 150, 144)

     Estimated max dynamical RAM per process >     316.28 MB

     Estimated total dynamical RAM >      22.24 GB

     Check: negative core charge=   -0.000004
     Generating pointlists ...
     new r_m :   0.0710 (alat units)  1.8364 (a.u.) for type    1
     new r_m :   0.0713 (alat units)  1.8431 (a.u.) for type    2
     new r_m :   0.0713 (alat units)  1.8436 (a.u.) for type    3

     Initial potential from superposition of free atoms

     starting charge 2047.94359, renormalised to 2048.00000

     negative rho (up, down):  2.059E-04 2.051E-04
     Starting wfcs are 1280 randomized atomic wfcs
     Checking if some PAW data can be deallocated... 

     total cpu time spent up to now is       13.1 secs

     Self-consistent Calculation

     iteration #  1     ecut=    71.00 Ry     beta= 0.30
     Davidson diagonalization with overlap
     ethr =  1.00E-02,  avg # of iterations =  6.5

     negative rho (up, down):  1.869E-01 4.959E+00

     total cpu time spent up to now is       44.3 secs

     total energy              =  -42321.76752824 Ry
     estimated scf accuracy    <    1143.64104740 Ry

     total magnetization       =    -8.58 Bohr mag/cell
     absolute magnetization    =   281.92 Bohr mag/cell

     iteration #  2     ecut=    71.00 Ry     beta= 0.30
     Davidson diagonalization with overlap
     ethr =  1.00E-02,  avg # of iterations =  3.0

     negative rho (up, down):  1.576E-01 4.422E+00

     total cpu time spent up to now is       65.8 secs

     total energy              =  -42326.11422087 Ry
     estimated scf accuracy    <     205.59191552 Ry

     total magnetization       =    -7.29 Bohr mag/cell
     absolute magnetization    =   180.67 Bohr mag/cell

     iteration #  3     ecut=    71.00 Ry     beta= 0.30
     Davidson diagonalization with overlap
     ethr =  1.00E-02,  avg # of iterations =  1.0

     negative rho (up, down):  1.260E-01 4.184E+00

     total cpu time spent up to now is       83.9 secs

     total energy              =  -42338.73882572 Ry
     estimated scf accuracy    <     345.52502588 Ry

     total magnetization       =    -5.23 Bohr mag/cell
     absolute magnetization    =   200.00 Bohr mag/cell

     iteration #  4     ecut=    71.00 Ry     beta= 0.30
     Davidson diagonalization with overlap
     ethr =  1.00E-02,  avg # of iterations =  1.5

     negative rho (up, down):  8.577E-02 3.368E+00

     total cpu time spent up to now is      102.7 secs

     total energy              =  -42342.50277905 Ry
     estimated scf accuracy    <      91.17002287 Ry

     total magnetization       =    -5.71 Bohr mag/cell
     absolute magnetization    =   201.30 Bohr mag/cell

     iteration #  5     ecut=    71.00 Ry     beta= 0.30
     Davidson diagonalization with overlap
     ethr =  4.45E-03,  avg # of iterations =  2.5

     negative rho (up, down):  7.524E-02 3.029E+00

     total cpu time spent up to now is      122.0 secs

     total energy              =  -42343.59825104 Ry
     estimated scf accuracy    <     100.44637805 Ry

     total magnetization       =    -3.00 Bohr mag/cell
     absolute magnetization    =   200.71 Bohr mag/cell

     iteration #  6     ecut=    71.00 Ry     beta= 0.30
     Davidson diagonalization with overlap
     ethr =  4.45E-03,  avg # of iterations =  1.0

     negative rho (up, down):  3.573E-02 1.360E+00

     total cpu time spent up to now is      139.4 secs

     total energy              =  -42344.91025972 Ry
     estimated scf accuracy    <      83.45835438 Ry

     total magnetization       =    -3.34 Bohr mag/cell
     absolute magnetization    =   202.81 Bohr mag/cell

     iteration #  7     ecut=    71.00 Ry     beta= 0.30
     Davidson diagonalization with overlap
     ethr =  4.08E-03,  avg # of iterations =  2.0

     negative rho (up, down):  2.696E-03 2.340E+00

     total cpu time spent up to now is      160.1 secs

     total energy              =  -42340.22198774 Ry
     estimated scf accuracy    <      46.62611480 Ry

     total magnetization       =    -3.15 Bohr mag/cell
     absolute magnetization    =   208.69 Bohr mag/cell

     iteration #  8     ecut=    71.00 Ry     beta= 0.30
     Davidson diagonalization with overlap
     ethr =  2.28E-03,  avg # of iterations =  3.5

     negative rho (up, down):  2.815E-03 2.615E+00

     total cpu time spent up to now is      181.5 secs

     total energy              =  -42343.14121042 Ry
     estimated scf accuracy    <     115.00133953 Ry

     total magnetization       =    -2.26 Bohr mag/cell
     absolute magnetization    =   244.87 Bohr mag/cell

     iteration #  9     ecut=    71.00 Ry     beta= 0.30
     Davidson diagonalization with overlap
     ethr =  2.28E-03,  avg # of iterations =  2.0

     negative rho (up, down):  2.853E-03 2.392E+00

     total cpu time spent up to now is      200.6 secs

     total energy              =  -42343.50476736 Ry
     estimated scf accuracy    <     214.74068737 Ry

     total magnetization       =    -2.84 Bohr mag/cell
     absolute magnetization    =   251.65 Bohr mag/cell

     iteration # 10     ecut=    71.00 Ry     beta= 0.30
     Davidson diagonalization with overlap
     ethr =  2.28E-03,  avg # of iterations =  1.5

     negative rho (up, down):  2.325E-03 2.231E+00

     total cpu time spent up to now is      219.8 secs

     total energy              =  -42343.22293615 Ry
     estimated scf accuracy    <     221.44373156 Ry

     total magnetization       =    -3.07 Bohr mag/cell
     absolute magnetization    =   251.91 Bohr mag/cell

     iteration # 11     ecut=    71.00 Ry     beta= 0.30
     Davidson diagonalization with overlap
     ethr =  2.28E-03,  avg # of iterations =  1.5

     negative rho (up, down):  5.844E-04 8.578E-01

     total cpu time spent up to now is      238.8 secs

     total energy              =  -42341.57175302 Ry
     estimated scf accuracy    <     116.09628914 Ry

     total magnetization       =    -2.33 Bohr mag/cell
     absolute magnetization    =   246.75 Bohr mag/cell

     iteration # 12     ecut=    71.00 Ry     beta= 0.30
     Davidson diagonalization with overlap
     ethr =  2.28E-03,  avg # of iterations =  3.5

     negative rho (up, down):  7.772E-04 3.178E-01

     total cpu time spent up to now is      259.5 secs

     total energy              =  -42344.61028686 Ry
     estimated scf accuracy    <      14.79716068 Ry

     total magnetization       =    -1.53 Bohr mag/cell
     absolute magnetization    =   228.65 Bohr mag/cell

     iteration # 13     ecut=    71.00 Ry     beta= 0.30
     Davidson diagonalization with overlap
     ethr =  7.23E-04,  avg # of iterations =  2.5

     negative rho (up, down):  8.479E-04 2.681E-01

     total cpu time spent up to now is      280.5 secs

     total energy              =  -42344.92351836 Ry
     estimated scf accuracy    <       6.21361471 Ry

     total magnetization       =    -1.99 Bohr mag/cell
     absolute magnetization    =   226.99 Bohr mag/cell

     iteration # 14     ecut=    71.00 Ry     beta= 0.30
     Davidson diagonalization with overlap
     ethr =  3.03E-04,  avg # of iterations =  6.5

     negative rho (up, down):  1.174E-03 5.781E-01

     total cpu time spent up to now is      302.1 secs

     total energy              =  -42344.77157587 Ry
     estimated scf accuracy    <       4.64838108 Ry

     total magnetization       =    -2.08 Bohr mag/cell
     absolute magnetization    =   226.99 Bohr mag/cell

     iteration # 15     ecut=    71.00 Ry     beta= 0.30
     Davidson diagonalization with overlap
     ethr =  2.27E-04,  avg # of iterations =  5.5

     negative rho (up, down):  1.307E-03 1.133E+00

     total cpu time spent up to now is      324.0 secs

     total energy              =  -42344.59044313 Ry
     estimated scf accuracy    <       7.50980268 Ry

     total magnetization       =    -1.85 Bohr mag/cell
     absolute magnetization    =   228.80 Bohr mag/cell

     iteration # 16     ecut=    71.00 Ry     beta= 0.30
     Davidson diagonalization with overlap
     ethr =  2.27E-04,  avg # of iterations =  5.0

     negative rho (up, down):  1.292E-03 1.312E+00

     total cpu time spent up to now is      345.6 secs

     total energy              =  -42344.70857864 Ry
     estimated scf accuracy    <      16.25906995 Ry

     total magnetization       =    -2.03 Bohr mag/cell
     absolute magnetization    =   230.20 Bohr mag/cell

     iteration # 17     ecut=    71.00 Ry     beta= 0.30
     Davidson diagonalization with overlap
     ethr =  2.27E-04,  avg # of iterations =  2.0

     negative rho (up, down):  1.023E-03 2.292E+00

     total cpu time spent up to now is      366.1 secs

     total energy              =  -42344.51951063 Ry
     estimated scf accuracy    <      19.44893906 Ry

     total magnetization       =    -2.51 Bohr mag/cell
     absolute magnetization    =   229.99 Bohr mag/cell

     iteration # 18     ecut=    71.00 Ry     beta= 0.30
     Davidson diagonalization with overlap
     ethr =  2.27E-04,  avg # of iterations =  3.0

     negative rho (up, down):  6.025E-04 2.935E+00

     total cpu time spent up to now is      387.2 secs

     total energy              =  -42344.32382019 Ry
     estimated scf accuracy    <      43.30466783 Ry

     total magnetization       =    -2.57 Bohr mag/cell
     absolute magnetization    =   230.68 Bohr mag/cell

     iteration # 19     ecut=    71.00 Ry     beta= 0.30
     Davidson diagonalization with overlap
     ethr =  2.27E-04,  avg # of iterations =  2.5

     negative rho (up, down):  5.630E-04 2.882E+00

     total cpu time spent up to now is      407.7 secs

     total energy              =  -42344.72548414 Ry
     estimated scf accuracy    <      64.19023060 Ry

     total magnetization       =    -2.63 Bohr mag/cell
     absolute magnetization    =   230.08 Bohr mag/cell

     iteration # 20     ecut=    71.00 Ry     beta= 0.30
     Davidson diagonalization with overlap
     ethr =  2.27E-04,  avg # of iterations =  1.5

     negative rho (up, down):  4.955E-04 2.889E+00

     total cpu time spent up to now is      426.8 secs

     total energy              =  -42344.73265413 Ry
     estimated scf accuracy    <      62.54313349 Ry

     total magnetization       =    -3.08 Bohr mag/cell
     absolute magnetization    =   229.80 Bohr mag/cell

     iteration # 21     ecut=    71.00 Ry     beta= 0.30
     Davidson diagonalization with overlap
     ethr =  2.27E-04,  avg # of iterations =  1.0

     negative rho (up, down):  5.585E-04 1.264E+00

     total cpu time spent up to now is      444.7 secs

     total energy              =  -42344.84219652 Ry
     estimated scf accuracy    <      62.82621058 Ry

     total magnetization       =    -3.07 Bohr mag/cell
     absolute magnetization    =   229.14 Bohr mag/cell

     iteration # 22     ecut=    71.00 Ry     beta= 0.30
     Davidson diagonalization with overlap
     ethr =  2.27E-04,  avg # of iterations =  3.0

     negative rho (up, down):  7.414E-04 2.139E-02

     total cpu time spent up to now is      465.3 secs

     total energy              =  -42344.74154962 Ry
     estimated scf accuracy    <      18.61678703 Ry

     total magnetization       =    -2.87 Bohr mag/cell
     absolute magnetization    =   228.47 Bohr mag/cell

     iteration # 23     ecut=    71.00 Ry     beta= 0.30
     Davidson diagonalization with overlap
     ethr =  2.27E-04,  avg # of iterations =  2.5

     negative rho (up, down):  6.342E-04 1.797E-02

     total cpu time spent up to now is      486.1 secs

     total energy              =  -42344.77532345 Ry
     estimated scf accuracy    <       1.31541038 Ry

     total magnetization       =    -3.62 Bohr mag/cell
     absolute magnetization    =   226.26 Bohr mag/cell

     iteration # 24     ecut=    71.00 Ry     beta= 0.30
     Davidson diagonalization with overlap
     ethr =  6.42E-05,  avg # of iterations = 15.5

     negative rho (up, down):  3.691E-04 9.709E-03

     total cpu time spent up to now is      511.5 secs

     total energy              =  -42344.74042080 Ry
     estimated scf accuracy    <       0.80262353 Ry

     total magnetization       =    -3.98 Bohr mag/cell
     absolute magnetization    =   225.28 Bohr mag/cell

     iteration # 25     ecut=    71.00 Ry     beta= 0.30
     Davidson diagonalization with overlap
     ethr =  3.92E-05,  avg # of iterations =  2.0

     negative rho (up, down):  3.223E-04 9.025E-03

     total cpu time spent up to now is      531.7 secs

     total energy              =  -42344.70803640 Ry
     estimated scf accuracy    <       0.82232001 Ry

     total magnetization       =    -3.98 Bohr mag/cell
     absolute magnetization    =   224.33 Bohr mag/cell

     iteration # 26     ecut=    71.00 Ry     beta= 0.30
     Davidson diagonalization with overlap
     ethr =  3.92E-05,  avg # of iterations =  1.0

     negative rho (up, down):  7.411E-04 5.551E-04

     total cpu time spent up to now is      549.3 secs

     total energy              =  -42344.65988402 Ry
     estimated scf accuracy    <       0.44401624 Ry

     total magnetization       =    -4.19 Bohr mag/cell
     absolute magnetization    =   224.44 Bohr mag/cell

     iteration # 27     ecut=    71.00 Ry     beta= 0.30
     Davidson diagonalization with overlap
     ethr =  2.17E-05,  avg # of iterations =  2.0

     negative rho (up, down):  2.547E-03 2.696E-03

     total cpu time spent up to now is      570.0 secs

     total energy              =  -42344.64040885 Ry
     estimated scf accuracy    <       0.33754030 Ry

     total magnetization       =    -4.42 Bohr mag/cell
     absolute magnetization    =   224.72 Bohr mag/cell

     iteration # 28     ecut=    71.00 Ry     beta= 0.30
     Davidson diagonalization with overlap
     ethr =  1.65E-05,  avg # of iterations =  3.0

     negative rho (up, down):  1.899E-03 1.735E-03

     total cpu time spent up to now is      590.5 secs

     total energy              =  -42344.63645994 Ry
     estimated scf accuracy    <       0.21027122 Ry

     total magnetization       =    -4.38 Bohr mag/cell
     absolute magnetization    =   224.68 Bohr mag/cell

     iteration # 29     ecut=    71.00 Ry     beta= 0.30
     Davidson diagonalization with overlap
     ethr =  1.03E-05,  avg # of iterations =  2.0

     negative rho (up, down):  2.940E-04 3.701E-04

     total cpu time spent up to now is      611.1 secs

     total energy              =  -42344.64447506 Ry
     estimated scf accuracy    <       0.18488574 Ry

     total magnetization       =    -4.31 Bohr mag/cell
     absolute magnetization    =   224.26 Bohr mag/cell

     iteration # 30     ecut=    71.00 Ry     beta= 0.30
     Davidson diagonalization with overlap
     ethr =  9.03E-06,  avg # of iterations =  2.0

     negative rho (up, down):  2.993E-04 4.055E-04

     total cpu time spent up to now is      631.6 secs

     total energy              =  -42344.64114783 Ry
     estimated scf accuracy    <       0.14662354 Ry

     total magnetization       =    -4.19 Bohr mag/cell
     absolute magnetization    =   224.92 Bohr mag/cell

     iteration # 31     ecut=    71.00 Ry     beta= 0.30
     Davidson diagonalization with overlap
     ethr =  7.16E-06,  avg # of iterations =  2.0

     negative rho (up, down):  5.250E-03 6.811E-03

     total cpu time spent up to now is      651.8 secs

     total energy              =  -42344.62295060 Ry
     estimated scf accuracy    <       0.12357235 Ry

     total magnetization       =    -4.10 Bohr mag/cell
     absolute magnetization    =   224.97 Bohr mag/cell

     iteration # 32     ecut=    71.00 Ry     beta= 0.30
     Davidson diagonalization with overlap
     c_bands:  1 eigenvalues not converged
     ethr =  6.03E-06,  avg # of iterations = 11.0

     negative rho (up, down):  2.059E-02 2.236E-02

     total cpu time spent up to now is      675.9 secs

     total energy              =  -42344.62152603 Ry
     estimated scf accuracy    <       0.07747239 Ry

     total magnetization       =    -3.99 Bohr mag/cell
     absolute magnetization    =   225.02 Bohr mag/cell

     iteration # 33     ecut=    71.00 Ry     beta= 0.30
     Davidson diagonalization with overlap
     ethr =  3.78E-06,  avg # of iterations =  8.5

     negative rho (up, down):  2.789E-02 2.748E-02

     total cpu time spent up to now is      701.2 secs

     total energy              =  -42344.63575612 Ry
     estimated scf accuracy    <       0.04571216 Ry

     total magnetization       =    -4.09 Bohr mag/cell
     absolute magnetization    =   224.94 Bohr mag/cell

     iteration # 34     ecut=    71.00 Ry     beta= 0.30
     Davidson diagonalization with overlap
     ethr =  2.23E-06,  avg # of iterations =  2.0

     negative rho (up, down):  2.754E-02 2.680E-02

     total cpu time spent up to now is      722.0 secs

     total energy              =  -42344.64443080 Ry
     estimated scf accuracy    <       0.03013084 Ry

     total magnetization       =    -4.06 Bohr mag/cell
     absolute magnetization    =   225.39 Bohr mag/cell

     iteration # 35     ecut=    71.00 Ry     beta= 0.30
     Davidson diagonalization with overlap
     ethr =  1.47E-06,  avg # of iterations =  2.0

     negative rho (up, down):  5.478E-03 5.339E-03

     total cpu time spent up to now is      742.5 secs

     total energy              =  -42344.65522383 Ry
     estimated scf accuracy    <       0.01428660 Ry

     total magnetization       =    -4.03 Bohr mag/cell
     absolute magnetization    =   225.48 Bohr mag/cell

     iteration # 36     ecut=    71.00 Ry     beta= 0.30
     Davidson diagonalization with overlap
     ethr =  6.98E-07,  avg # of iterations =  2.0

     negative rho (up, down):  2.397E-03 2.401E-03

     total cpu time spent up to now is      763.0 secs

     total energy              =  -42344.66203390 Ry
     estimated scf accuracy    <       0.00816273 Ry

     total magnetization       =    -3.94 Bohr mag/cell
     absolute magnetization    =   225.74 Bohr mag/cell

     iteration # 37     ecut=    71.00 Ry     beta= 0.30
     Davidson diagonalization with overlap
     ethr =  3.99E-07,  avg # of iterations =  2.0

     negative rho (up, down):  3.857E-04 4.719E-04

     total cpu time spent up to now is      783.7 secs

     total energy              =  -42344.67043480 Ry
     estimated scf accuracy    <       0.00591236 Ry

     total magnetization       =    -3.91 Bohr mag/cell
     absolute magnetization    =   225.95 Bohr mag/cell

     iteration # 38     ecut=    71.00 Ry     beta= 0.30
     Davidson diagonalization with overlap
     ethr =  2.89E-07,  avg # of iterations =  4.0

     negative rho (up, down):  3.166E-04 4.100E-04

     total cpu time spent up to now is      806.5 secs

     total energy              =  -42344.67308959 Ry
     estimated scf accuracy    <       0.00297578 Ry

     total magnetization       =    -3.85 Bohr mag/cell
     absolute magnetization    =   226.24 Bohr mag/cell

     iteration # 39     ecut=    71.00 Ry     beta= 0.30
     Davidson diagonalization with overlap
     ethr =  1.45E-07,  avg # of iterations =  2.0

     negative rho (up, down):  3.118E-04 4.117E-04

     total cpu time spent up to now is      827.2 secs

     total energy              =  -42344.67420645 Ry
     estimated scf accuracy    <       0.00148663 Ry

     total magnetization       =    -3.81 Bohr mag/cell
     absolute magnetization    =   226.39 Bohr mag/cell

     iteration # 40     ecut=    71.00 Ry     beta= 0.30
     Davidson diagonalization with overlap
     ethr =  7.26E-08,  avg # of iterations =  2.0

     negative rho (up, down):  3.200E-04 4.241E-04

     total cpu time spent up to now is      847.8 secs

     total energy              =  -42344.67520140 Ry
     estimated scf accuracy    <       0.00104122 Ry

     total magnetization       =    -3.78 Bohr mag/cell
     absolute magnetization    =   226.48 Bohr mag/cell

     iteration # 41     ecut=    71.00 Ry     beta= 0.30
     Davidson diagonalization with overlap
     ethr =  5.08E-08,  avg # of iterations =  2.0

     negative rho (up, down):  3.491E-04 4.556E-04

     total cpu time spent up to now is      868.6 secs

     total energy              =  -42344.67569978 Ry
     estimated scf accuracy    <       0.00053774 Ry

     total magnetization       =    -3.78 Bohr mag/cell
     absolute magnetization    =   226.55 Bohr mag/cell

     iteration # 42     ecut=    71.00 Ry     beta= 0.30
     Davidson diagonalization with overlap
     ethr =  2.63E-08,  avg # of iterations =  5.0

     negative rho (up, down):  4.442E-04 5.549E-04

     total cpu time spent up to now is      890.2 secs

     total energy              =  -42344.67623662 Ry
     estimated scf accuracy    <       0.00039749 Ry

     total magnetization       =    -3.77 Bohr mag/cell
     absolute magnetization    =   226.62 Bohr mag/cell

     iteration # 43     ecut=    71.00 Ry     beta= 0.30
     Davidson diagonalization with overlap
     ethr =  1.94E-08,  avg # of iterations =  3.0

     negative rho (up, down):  8.647E-04 9.962E-04

     total cpu time spent up to now is      911.9 secs

     total energy              =  -42344.67669356 Ry
     estimated scf accuracy    <       0.00034911 Ry

     total magnetization       =    -3.75 Bohr mag/cell
     absolute magnetization    =   226.71 Bohr mag/cell

     iteration # 44     ecut=    71.00 Ry     beta= 0.30
     Davidson diagonalization with overlap
     ethr =  1.70E-08,  avg # of iterations =  4.5

     negative rho (up, down):  1.198E-03 1.343E-03

     total cpu time spent up to now is      935.3 secs

     total energy              =  -42344.67690040 Ry
     estimated scf accuracy    <       0.00028288 Ry

     total magnetization       =    -3.72 Bohr mag/cell
     absolute magnetization    =   226.81 Bohr mag/cell

     iteration # 45     ecut=    71.00 Ry     beta= 0.30
     Davidson diagonalization with overlap
     ethr =  1.38E-08,  avg # of iterations =  2.5

     negative rho (up, down):  1.550E-03 1.707E-03

     total cpu time spent up to now is      956.4 secs

     total energy              =  -42344.67705305 Ry
     estimated scf accuracy    <       0.00023066 Ry

     total magnetization       =    -3.71 Bohr mag/cell
     absolute magnetization    =   226.86 Bohr mag/cell

     iteration # 46     ecut=    71.00 Ry     beta= 0.30
     Davidson diagonalization with overlap
     ethr =  1.13E-08,  avg # of iterations =  5.0

     negative rho (up, down):  1.805E-03 1.967E-03

     total cpu time spent up to now is      979.7 secs

     total energy              =  -42344.67718453 Ry
     estimated scf accuracy    <       0.00022055 Ry

     total magnetization       =    -3.69 Bohr mag/cell
     absolute magnetization    =   226.94 Bohr mag/cell

     iteration # 47     ecut=    71.00 Ry     beta= 0.30
     Davidson diagonalization with overlap
     ethr =  1.08E-08,  avg # of iterations =  2.0

     negative rho (up, down):  2.129E-03 2.294E-03

     total cpu time spent up to now is     1000.6 secs

     total energy              =  -42344.67728431 Ry
     estimated scf accuracy    <       0.00018916 Ry

     total magnetization       =    -3.67 Bohr mag/cell
     absolute magnetization    =   226.97 Bohr mag/cell

     iteration # 48     ecut=    71.00 Ry     beta= 0.30
     Davidson diagonalization with overlap
     ethr =  9.24E-09,  avg # of iterations =  5.0

     negative rho (up, down):  2.353E-03 2.516E-03

     total cpu time spent up to now is     1026.3 secs

     total energy              =  -42344.67741724 Ry
     estimated scf accuracy    <       0.00019982 Ry

     total magnetization       =    -3.63 Bohr mag/cell
     absolute magnetization    =   227.07 Bohr mag/cell

     iteration # 49     ecut=    71.00 Ry     beta= 0.30
     Davidson diagonalization with overlap
     ethr =  9.24E-09,  avg # of iterations =  5.0

     negative rho (up, down):  2.723E-03 2.883E-03

     total cpu time spent up to now is     1053.9 secs

     total energy              =  -42344.67749894 Ry
     estimated scf accuracy    <       0.00014520 Ry

     total magnetization       =    -3.58 Bohr mag/cell
     absolute magnetization    =   227.21 Bohr mag/cell

     iteration # 50     ecut=    71.00 Ry     beta= 0.30
     Davidson diagonalization with overlap
     ethr =  7.09E-09,  avg # of iterations =  7.0

     negative rho (up, down):  2.189E-03 2.336E-03

     total cpu time spent up to now is     1087.2 secs

     total energy              =  -42344.67796717 Ry
     estimated scf accuracy    <       0.00015338 Ry

     total magnetization       =    -3.51 Bohr mag/cell
     absolute magnetization    =   227.39 Bohr mag/cell

     iteration # 51     ecut=    71.00 Ry     beta= 0.30
     Davidson diagonalization with overlap
     ethr =  7.09E-09,  avg # of iterations =  5.0

     negative rho (up, down):  1.612E-03 1.753E-03

     total cpu time spent up to now is     1115.1 secs

     total energy              =  -42344.67826255 Ry
     estimated scf accuracy    <       0.00011341 Ry

     total magnetization       =    -3.46 Bohr mag/cell
     absolute magnetization    =   227.50 Bohr mag/cell

     iteration # 52     ecut=    71.00 Ry     beta= 0.30
     Davidson diagonalization with overlap
     ethr =  5.54E-09,  avg # of iterations =  2.0

     negative rho (up, down):  1.681E-03 1.821E-03

     total cpu time spent up to now is     1136.1 secs

     total energy              =  -42344.67822913 Ry
     estimated scf accuracy    <       0.00006954 Ry

     total magnetization       =    -3.46 Bohr mag/cell
     absolute magnetization    =   227.48 Bohr mag/cell

     iteration # 53     ecut=    71.00 Ry     beta= 0.30
     Davidson diagonalization with overlap
     ethr =  3.40E-09,  avg # of iterations =  5.5

     negative rho (up, down):  1.024E-03 1.152E-03

     total cpu time spent up to now is     1164.8 secs

     total energy              =  -42344.67833528 Ry
     estimated scf accuracy    <       0.00008985 Ry

     total magnetization       =    -3.43 Bohr mag/cell
     absolute magnetization    =   227.55 Bohr mag/cell

     iteration # 54     ecut=    71.00 Ry     beta= 0.30
     Davidson diagonalization with overlap
     ethr =  3.40E-09,  avg # of iterations =  5.0

     negative rho (up, down):  8.901E-04 1.015E-03

     total cpu time spent up to now is     1192.6 secs

     total energy              =  -42344.67842926 Ry
     estimated scf accuracy    <       0.00003769 Ry

     total magnetization       =    -3.41 Bohr mag/cell
     absolute magnetization    =   227.56 Bohr mag/cell

     iteration # 55     ecut=    71.00 Ry     beta= 0.30
     Davidson diagonalization with overlap
     ethr =  1.84E-09,  avg # of iterations =  5.0

     negative rho (up, down):  8.346E-04 9.578E-04

     total cpu time spent up to now is     1218.7 secs

     total energy              =  -42344.67846505 Ry
     estimated scf accuracy    <       0.00002560 Ry

     total magnetization       =    -3.39 Bohr mag/cell
     absolute magnetization    =   227.57 Bohr mag/cell

     iteration # 56     ecut=    71.00 Ry     beta= 0.30
     Davidson diagonalization with overlap
     ethr =  1.25E-09,  avg # of iterations =  4.5

     negative rho (up, down):  7.966E-04 9.195E-04

     total cpu time spent up to now is     1243.4 secs

     total energy              =  -42344.67848096 Ry
     estimated scf accuracy    <       0.00002032 Ry

     total magnetization       =    -3.38 Bohr mag/cell
     absolute magnetization    =   227.57 Bohr mag/cell

     iteration # 57     ecut=    71.00 Ry     beta= 0.30
     Davidson diagonalization with overlap
     ethr =  9.92E-10,  avg # of iterations =  2.0

     negative rho (up, down):  8.232E-04 9.465E-04

     total cpu time spent up to now is     1264.3 secs

     total energy              =  -42344.67848609 Ry
     estimated scf accuracy    <       0.00001860 Ry

     total magnetization       =    -3.39 Bohr mag/cell
     absolute magnetization    =   227.54 Bohr mag/cell

     iteration # 58     ecut=    71.00 Ry     beta= 0.30
     Davidson diagonalization with overlap
     ethr =  9.08E-10,  avg # of iterations =  5.0

     negative rho (up, down):  7.733E-04 8.958E-04

     total cpu time spent up to now is     1289.7 secs

     total energy              =  -42344.67849428 Ry
     estimated scf accuracy    <       0.00001124 Ry

     total magnetization       =    -3.38 Bohr mag/cell
     absolute magnetization    =   227.54 Bohr mag/cell

     iteration # 59     ecut=    71.00 Ry     beta= 0.30
     Davidson diagonalization with overlap
     ethr =  5.49E-10,  avg # of iterations =  3.5

     negative rho (up, down):  8.499E-04 9.739E-04

     total cpu time spent up to now is     1314.2 secs

     total energy              =  -42344.67849796 Ry
     estimated scf accuracy    <       0.00001746 Ry

     total magnetization       =    -3.39 Bohr mag/cell
     absolute magnetization    =   227.49 Bohr mag/cell

     iteration # 60     ecut=    71.00 Ry     beta= 0.30
     Davidson diagonalization with overlap
     ethr =  5.49E-10,  avg # of iterations =  5.5

     negative rho (up, down):  8.484E-04 9.733E-04

     total cpu time spent up to now is     1341.5 secs

     total energy              =  -42344.67851875 Ry
     estimated scf accuracy    <       0.00001019 Ry

     total magnetization       =    -3.37 Bohr mag/cell
     absolute magnetization    =   227.53 Bohr mag/cell

     iteration # 61     ecut=    71.00 Ry     beta= 0.30
     Davidson diagonalization with overlap
     ethr =  4.98E-10,  avg # of iterations =  4.0

     negative rho (up, down):  8.733E-04 9.992E-04

     total cpu time spent up to now is     1365.6 secs

     total energy              =  -42344.67852797 Ry
     estimated scf accuracy    <       0.00000768 Ry

     total magnetization       =    -3.38 Bohr mag/cell
     absolute magnetization    =   227.49 Bohr mag/cell

     iteration # 62     ecut=    71.00 Ry     beta= 0.30
     Davidson diagonalization with overlap
     ethr =  3.75E-10,  avg # of iterations =  1.5

     negative rho (up, down):  9.593E-04 1.089E-03

     total cpu time spent up to now is     1385.4 secs

     total energy              =  -42344.67853257 Ry
     estimated scf accuracy    <       0.00000685 Ry

     total magnetization       =    -3.38 Bohr mag/cell
     absolute magnetization    =   227.49 Bohr mag/cell

     iteration # 63     ecut=    71.00 Ry     beta= 0.30
     Davidson diagonalization with overlap
     ethr =  3.35E-10,  avg # of iterations =  5.5

     negative rho (up, down):  1.077E-03 1.211E-03

     total cpu time spent up to now is     1414.5 secs

     total energy              =  -42344.67854906 Ry
     estimated scf accuracy    <       0.00000645 Ry

     total magnetization       =    -3.39 Bohr mag/cell
     absolute magnetization    =   227.46 Bohr mag/cell

     iteration # 64     ecut=    71.00 Ry     beta= 0.30
     Davidson diagonalization with overlap
     ethr =  3.15E-10,  avg # of iterations =  4.5

     negative rho (up, down):  1.091E-03 1.225E-03

     total cpu time spent up to now is     1441.3 secs

     total energy              =  -42344.67855698 Ry
     estimated scf accuracy    <       0.00000493 Ry

     total magnetization       =    -3.39 Bohr mag/cell
     absolute magnetization    =   227.43 Bohr mag/cell

     iteration # 65     ecut=    71.00 Ry     beta= 0.30
     Davidson diagonalization with overlap
     ethr =  2.41E-10,  avg # of iterations =  2.0

     negative rho (up, down):  1.164E-03 1.301E-03

     total cpu time spent up to now is     1461.9 secs

     total energy              =  -42344.67855850 Ry
     estimated scf accuracy    <       0.00000466 Ry

     total magnetization       =    -3.39 Bohr mag/cell
     absolute magnetization    =   227.43 Bohr mag/cell

     iteration # 66     ecut=    71.00 Ry     beta= 0.30
     Davidson diagonalization with overlap
     ethr =  2.27E-10,  avg # of iterations =  5.0

     negative rho (up, down):  1.184E-03 1.320E-03

     total cpu time spent up to now is     1489.8 secs

     total energy              =  -42344.67856378 Ry
     estimated scf accuracy    <       0.00000361 Ry

     total magnetization       =    -3.40 Bohr mag/cell
     absolute magnetization    =   227.41 Bohr mag/cell

     iteration # 67     ecut=    71.00 Ry     beta= 0.30
     Davidson diagonalization with overlap
     ethr =  1.76E-10,  avg # of iterations =  4.0

     negative rho (up, down):  1.221E-03 1.358E-03

     total cpu time spent up to now is     1515.4 secs

     total energy              =  -42344.67855935 Ry
     estimated scf accuracy    <       0.00000401 Ry

     total magnetization       =    -3.40 Bohr mag/cell
     absolute magnetization    =   227.39 Bohr mag/cell

     iteration # 68     ecut=    71.00 Ry     beta= 0.30
     Davidson diagonalization with overlap
     ethr =  1.76E-10,  avg # of iterations =  6.5

     negative rho (up, down):  1.260E-03 1.398E-03

     total cpu time spent up to now is     1549.9 secs

     total energy              =  -42344.67856806 Ry
     estimated scf accuracy    <       0.00000251 Ry

     total magnetization       =    -3.41 Bohr mag/cell
     absolute magnetization    =   227.36 Bohr mag/cell

     iteration # 69     ecut=    71.00 Ry     beta= 0.30
     Davidson diagonalization with overlap
     ethr =  1.23E-10,  avg # of iterations =  5.5

     negative rho (up, down):  1.245E-03 1.382E-03

     total cpu time spent up to now is     1583.7 secs

     total energy              =  -42344.67857481 Ry
     estimated scf accuracy    <       0.00000195 Ry

     total magnetization       =    -3.42 Bohr mag/cell
     absolute magnetization    =   227.33 Bohr mag/cell

     iteration # 70     ecut=    71.00 Ry     beta= 0.30
     Davidson diagonalization with overlap
     ethr =  9.50E-11,  avg # of iterations =  5.0

     negative rho (up, down):  1.221E-03 1.357E-03

     total cpu time spent up to now is     1610.4 secs

     total energy              =  -42344.67857486 Ry
     estimated scf accuracy    <       0.00000124 Ry

     total magnetization       =    -3.43 Bohr mag/cell
     absolute magnetization    =   227.32 Bohr mag/cell

     iteration # 71     ecut=    71.00 Ry     beta= 0.30
     Davidson diagonalization with overlap
     ethr =  6.03E-11,  avg # of iterations =  6.0

     negative rho (up, down):  1.202E-03 1.337E-03

     total cpu time spent up to now is     1645.2 secs

     total energy              =  -42344.67857964 Ry
     estimated scf accuracy    <       0.00000086 Ry

     total magnetization       =    -3.43 Bohr mag/cell
     absolute magnetization    =   227.31 Bohr mag/cell

     iteration # 72     ecut=    71.00 Ry     beta= 0.30
     Davidson diagonalization with overlap
     ethr =  4.21E-11,  avg # of iterations =  5.0

     negative rho (up, down):  1.173E-03 1.308E-03

     total cpu time spent up to now is     1668.0 secs

     total energy              =  -42344.67858007 Ry
     estimated scf accuracy    <       0.00000072 Ry

     total magnetization       =    -3.44 Bohr mag/cell
     absolute magnetization    =   227.30 Bohr mag/cell

     iteration # 73     ecut=    71.00 Ry     beta= 0.30
     Davidson diagonalization with overlap
     ethr =  3.54E-11,  avg # of iterations =  5.0

     negative rho (up, down):  1.141E-03 1.275E-03

     total cpu time spent up to now is     1696.2 secs

     total energy              =  -42344.67857762 Ry
     estimated scf accuracy    <       0.00000063 Ry

     total magnetization       =    -3.44 Bohr mag/cell
     absolute magnetization    =   227.30 Bohr mag/cell

     iteration # 74     ecut=    71.00 Ry     beta= 0.30
     Davidson diagonalization with overlap
     ethr =  3.08E-11,  avg # of iterations =  6.0

     negative rho (up, down):  1.128E-03 1.262E-03

     total cpu time spent up to now is     1734.2 secs

     total energy              =  -42344.67858181 Ry
     estimated scf accuracy    <       0.00000059 Ry

     total magnetization       =    -3.45 Bohr mag/cell
     absolute magnetization    =   227.28 Bohr mag/cell

     iteration # 75     ecut=    71.00 Ry     beta= 0.30
     Davidson diagonalization with overlap
     ethr =  2.86E-11,  avg # of iterations =  3.5

     negative rho (up, down):  1.119E-03 1.254E-03

     total cpu time spent up to now is     1758.2 secs

     total energy              =  -42344.67858209 Ry
     estimated scf accuracy    <       0.00000039 Ry

     total magnetization       =    -3.45 Bohr mag/cell
     absolute magnetization    =   227.27 Bohr mag/cell

     iteration # 76     ecut=    71.00 Ry     beta= 0.30
     Davidson diagonalization with overlap
     ethr =  1.89E-11,  avg # of iterations =  5.0

     negative rho (up, down):  1.107E-03 1.242E-03

     total cpu time spent up to now is     1786.1 secs

     total energy              =  -42344.67858246 Ry
     estimated scf accuracy    <       0.00000031 Ry

     total magnetization       =    -3.45 Bohr mag/cell
     absolute magnetization    =   227.27 Bohr mag/cell

     iteration # 77     ecut=    71.00 Ry     beta= 0.30
     Davidson diagonalization with overlap
     ethr =  1.49E-11,  avg # of iterations =  2.0

     negative rho (up, down):  1.109E-03 1.244E-03

     total cpu time spent up to now is     1809.3 secs

     total energy              =  -42344.67858142 Ry
     estimated scf accuracy    <       0.00000031 Ry

     total magnetization       =    -3.45 Bohr mag/cell
     absolute magnetization    =   227.27 Bohr mag/cell

     iteration # 78     ecut=    71.00 Ry     beta= 0.30
     Davidson diagonalization with overlap
     ethr =  1.49E-11,  avg # of iterations =  5.5

     negative rho (up, down):  1.109E-03 1.244E-03

     total cpu time spent up to now is     1844.9 secs

     total energy              =  -42344.67858298 Ry
     estimated scf accuracy    <       0.00000028 Ry

     total magnetization       =    -3.46 Bohr mag/cell
     absolute magnetization    =   227.26 Bohr mag/cell

     iteration # 79     ecut=    71.00 Ry     beta= 0.30
     Davidson diagonalization with overlap
     ethr =  1.36E-11,  avg # of iterations =  3.0

     negative rho (up, down):  1.105E-03 1.239E-03

     total cpu time spent up to now is     1868.1 secs

     total energy              =  -42344.67858214 Ry
     estimated scf accuracy    <       0.00000025 Ry

     total magnetization       =    -3.46 Bohr mag/cell
     absolute magnetization    =   227.26 Bohr mag/cell

     iteration # 80     ecut=    71.00 Ry     beta= 0.30
     Davidson diagonalization with overlap
     ethr =  1.22E-11,  avg # of iterations =  6.0

     negative rho (up, down):  1.110E-03 1.244E-03

     total cpu time spent up to now is     1904.1 secs

     total energy              =  -42344.67858352 Ry
     estimated scf accuracy    <       0.00000014 Ry

     total magnetization       =    -3.47 Bohr mag/cell
     absolute magnetization    =   227.26 Bohr mag/cell

     iteration # 81     ecut=    71.00 Ry     beta= 0.30
     Davidson diagonalization with overlap
     ethr =  6.70E-12,  avg # of iterations =  2.0

     negative rho (up, down):  1.118E-03 1.253E-03

     total cpu time spent up to now is     1927.9 secs

     total energy              =  -42344.67858370 Ry
     estimated scf accuracy    <       0.00000010 Ry

     total magnetization       =    -3.47 Bohr mag/cell
     absolute magnetization    =   227.26 Bohr mag/cell

     iteration # 82     ecut=    71.00 Ry     beta= 0.30
     Davidson diagonalization with overlap
     ethr =  5.05E-12,  avg # of iterations =  5.0

     negative rho (up, down):  1.139E-03 1.274E-03

     total cpu time spent up to now is     1958.1 secs

     total energy              =  -42344.67858382 Ry
     estimated scf accuracy    <       0.00000010 Ry

     total magnetization       =    -3.47 Bohr mag/cell
     absolute magnetization    =   227.26 Bohr mag/cell

     iteration # 83     ecut=    71.00 Ry     beta= 0.30
     Davidson diagonalization with overlap
     ethr =  5.05E-12,  avg # of iterations =  5.0

     negative rho (up, down):  1.142E-03 1.277E-03

     total cpu time spent up to now is     1992.2 secs

     total energy              =  -42344.67858411 Ry
     estimated scf accuracy    <       0.00000006 Ry

     total magnetization       =    -3.47 Bohr mag/cell
     absolute magnetization    =   227.26 Bohr mag/cell

     iteration # 84     ecut=    71.00 Ry     beta= 0.30
     Davidson diagonalization with overlap
     ethr =  2.77E-12,  avg # of iterations =  5.0

     negative rho (up, down):  1.149E-03 1.285E-03

     total cpu time spent up to now is     2021.9 secs

     total energy              =  -42344.67858424 Ry
     estimated scf accuracy    <       0.00000005 Ry

     total magnetization       =    -3.47 Bohr mag/cell
     absolute magnetization    =   227.26 Bohr mag/cell

     iteration # 85     ecut=    71.00 Ry     beta= 0.30
     Davidson diagonalization with overlap
     ethr =  2.66E-12,  avg # of iterations =  4.0

     negative rho (up, down):  1.154E-03 1.290E-03

     total cpu time spent up to now is     2047.7 secs

     total energy              =  -42344.67858433 Ry
     estimated scf accuracy    <       0.00000004 Ry

     total magnetization       =    -3.47 Bohr mag/cell
     absolute magnetization    =   227.26 Bohr mag/cell

     iteration # 86     ecut=    71.00 Ry     beta= 0.30
     Davidson diagonalization with overlap
     ethr =  1.81E-12,  avg # of iterations =  2.5

     negative rho (up, down):  1.157E-03 1.293E-03

     total cpu time spent up to now is     2070.3 secs

     total energy              =  -42344.67858434 Ry
     estimated scf accuracy    <       0.00000003 Ry

     total magnetization       =    -3.47 Bohr mag/cell
     absolute magnetization    =   227.26 Bohr mag/cell

     iteration # 87     ecut=    71.00 Ry     beta= 0.30
     Davidson diagonalization with overlap
     ethr =  1.50E-12,  avg # of iterations =  5.0

     negative rho (up, down):  1.161E-03 1.297E-03

     total cpu time spent up to now is     2100.2 secs

     total energy              =  -42344.67858437 Ry
     estimated scf accuracy    <       0.00000003 Ry

     total magnetization       =    -3.47 Bohr mag/cell
     absolute magnetization    =   227.26 Bohr mag/cell

     iteration # 88     ecut=    71.00 Ry     beta= 0.30
     Davidson diagonalization with overlap
     ethr =  1.50E-12,  avg # of iterations =  4.0

     negative rho (up, down):  1.164E-03 1.300E-03

     total cpu time spent up to now is     2126.4 secs

     total energy              =  -42344.67858441 Ry
     estimated scf accuracy    <       0.00000003 Ry

     total magnetization       =    -3.47 Bohr mag/cell
     absolute magnetization    =   227.26 Bohr mag/cell

     iteration # 89     ecut=    71.00 Ry     beta= 0.30
     Davidson diagonalization with overlap
     ethr =  1.32E-12,  avg # of iterations =  5.0

     negative rho (up, down):  1.174E-03 1.311E-03

     total cpu time spent up to now is     2155.2 secs

     total energy              =  -42344.67858434 Ry
     estimated scf accuracy    <       0.00000003 Ry

     total magnetization       =    -3.47 Bohr mag/cell
     absolute magnetization    =   227.26 Bohr mag/cell

     iteration # 90     ecut=    71.00 Ry     beta= 0.30
     Davidson diagonalization with overlap
     ethr =  1.24E-12,  avg # of iterations =  5.5

     negative rho (up, down):  1.173E-03 1.309E-03

     total cpu time spent up to now is     2191.0 secs

     total energy              =  -42344.67858448 Ry
     estimated scf accuracy    <       0.00000001 Ry

     total magnetization       =    -3.47 Bohr mag/cell
     absolute magnetization    =   227.26 Bohr mag/cell

     iteration # 91     ecut=    71.00 Ry     beta= 0.30
     Davidson diagonalization with overlap
     ethr =  5.38E-13,  avg # of iterations =  4.5

     negative rho (up, down):  1.172E-03 1.308E-03

     total cpu time spent up to now is     2218.6 secs

     total energy              =  -42344.67858450 Ry
     estimated scf accuracy    <       0.00000001 Ry

     total magnetization       =    -3.47 Bohr mag/cell
     absolute magnetization    =   227.25 Bohr mag/cell

     iteration # 92     ecut=    71.00 Ry     beta= 0.30
     Davidson diagonalization with overlap
     ethr =  4.98E-13,  avg # of iterations =  4.0

     negative rho (up, down):  1.156E-03 1.292E-03
 
     Magnetic moment per site:
     atom:    1    charge:   12.9834    magn:   -0.2574    constr:    0.0000
     atom:    2    charge:   14.1310    magn:   -2.3941    constr:    0.0000
     atom:    3    charge:   14.1946    magn:    1.7092    constr:    0.0000
     atom:    4    charge:   14.2212    magn:   -1.5920    constr:    0.0000
     atom:    5    charge:   14.2592    magn:   -0.0107    constr:    0.0000
     atom:    6    charge:   14.2675    magn:   -1.0873    constr:    0.0000
     atom:    7    charge:   14.1224    magn:    2.3299    constr:    0.0000
     atom:    8    charge:   14.1549    magn:   -2.2198    constr:    0.0000
     atom:    9    charge:   14.1394    magn:    2.1668    constr:    0.0000
     atom:   10    charge:   14.1434    magn:   -2.2949    constr:    0.0000
     atom:   11    charge:   14.2447    magn:    1.1759    constr:    0.0000
     atom:   12    charge:   14.2725    magn:   -0.7778    constr:    0.0000
     atom:   13    charge:   14.2417    magn:    1.0597    constr:    0.0000
     atom:   14    charge:   14.2620    magn:   -1.2216    constr:    0.0000
     atom:   15    charge:   14.1205    magn:    2.3067    constr:    0.0000
     atom:   16    charge:   14.1520    magn:   -2.2213    constr:    0.0000
     atom:   17    charge:   14.1321    magn:    2.2310    constr:    0.0000
     atom:   18    charge:   14.1432    magn:   -2.3003    constr:    0.0000
     atom:   19    charge:   14.2367    magn:    1.3017    constr:    0.0000
     atom:   20    charge:   14.2729    magn:   -0.7462    constr:    0.0000
     atom:   21    charge:   14.2438    magn:    1.0440    constr:    0.0000
     atom:   22    charge:   14.2616    magn:   -1.2327    constr:    0.0000
     atom:   23    charge:   14.1284    magn:    2.2610    constr:    0.0000
     atom:   24    charge:   14.1521    magn:   -2.2176    constr:    0.0000
     atom:   25    charge:   14.1402    magn:    2.1622    constr:    0.0000
     atom:   26    charge:   14.1315    magn:   -2.3835    constr:    0.0000
     atom:   27    charge:   14.2449    magn:    1.1904    constr:    0.0000
     atom:   28    charge:   14.2215    magn:   -1.5919    constr:    0.0000
     atom:   29    charge:   14.2416    magn:    1.0718    constr:    0.0000
     atom:   30    charge:   14.2667    magn:   -1.1697    constr:    0.0000
     atom:   31    charge:   14.1206    magn:    2.3056    constr:    0.0000
     atom:   32    charge:   14.1560    magn:   -2.2179    constr:    0.0000
     atom:   33    charge:   14.1353    magn:    2.1787    constr:    0.0000
     atom:   34    charge:   14.1448    magn:   -2.2817    constr:    0.0000
     atom:   35    charge:   14.2572    magn:    1.1748    constr:    0.0000
     atom:   36    charge:   14.2873    magn:   -1.1513    constr:    0.0000
     atom:   37    charge:   14.2697    magn:    0.6847    constr:    0.0000
     atom:   38    charge:   13.1013    magn:   -0.1136    constr:    0.0000
     atom:   39    charge:   14.1430    magn:    2.2383    constr:    0.0000
     atom:   40    charge:   14.1826    magn:   -2.1837    constr:    0.0000
     atom:   41    charge:   14.1513    magn:    2.1324    constr:    0.0000
     atom:   42    charge:   14.1465    magn:   -2.2788    constr:    0.0000
     atom:   43    charge:   14.2584    magn:    1.1740    constr:    0.0000
     atom:   44    charge:   14.2715    magn:   -0.9385    constr:    0.0000
     atom:   45    charge:   14.2629    magn:    0.9339    constr:    0.0000
     atom:   46    charge:   14.2631    magn:   -1.2452    constr:    0.0000
     atom:   47    charge:   14.1469    magn:    2.2184    constr:    0.0000
     atom:   48    charge:   14.1518    magn:   -2.2405    constr:    0.0000
     atom:   49    charge:   14.1339    magn:    2.2184    constr:    0.0000
     atom:   50    charge:   14.1457    magn:   -2.2810    constr:    0.0000
     atom:   51    charge:   14.2436    magn:    1.1812    constr:    0.0000
     atom:   52    charge:   14.2722    magn:   -0.8768    constr:    0.0000
     atom:   53    charge:   14.2457    magn:    0.9968    constr:    0.0000
     atom:   54    charge:   14.2627    magn:   -1.2317    constr:    0.0000
     atom:   55    charge:   14.1256    magn:    2.2717    constr:    0.0000
     atom:   56    charge:   14.1521    magn:   -2.2227    constr:    0.0000
     atom:   57    charge:   14.1525    magn:    2.1259    constr:    0.0000
     atom:   58    charge:   14.1441    magn:   -2.2956    constr:    0.0000
     atom:   59    charge:   14.2403    magn:    1.2878    constr:    0.0000
     atom:   60    charge:   14.2690    magn:   -1.0608    constr:    0.0000
     atom:   61    charge:   14.2458    magn:    0.9573    constr:    0.0000
     atom:   62    charge:   14.2626    magn:   -1.2591    constr:    0.0000
     atom:   63    charge:   14.1245    magn:    2.2848    constr:    0.0000
     atom:   64    charge:   14.1577    magn:   -2.2090    constr:    0.0000
     atom:   65    charge:   14.1337    magn:    2.2247    constr:    0.0000
     atom:   66    charge:   14.1433    magn:   -2.3066    constr:    0.0000
     atom:   67    charge:   14.2392    magn:    1.2831    constr:    0.0000
     atom:   68    charge:   14.2843    magn:   -1.0852    constr:    0.0000
     atom:   69    charge:   14.2639    magn:    0.9630    constr:    0.0000
     atom:   70    charge:   14.2645    magn:   -1.1539    constr:    0.0000
     atom:   71    charge:   14.1200    magn:    2.3134    constr:    0.0000
     atom:   72    charge:   14.1798    magn:   -2.1951    constr:    0.0000
     atom:   73    charge:   14.1304    magn:    2.2304    constr:    0.0000
     atom:   74    charge:   14.1463    magn:   -2.2794    constr:    0.0000
     atom:   75    charge:   14.2407    magn:    1.2801    constr:    0.0000
     atom:   76    charge:   14.2679    magn:   -1.0374    constr:    0.0000
     atom:   77    charge:   14.2652    magn:    0.9312    constr:    0.0000
     atom:   78    charge:   14.2636    magn:   -1.2072    constr:    0.0000
     atom:   79    charge:   14.1239    magn:    2.2910    constr:    0.0000
     atom:   80    charge:   14.1532    magn:   -2.2337    constr:    0.0000
     atom:   81    charge:   14.1389    magn:    2.1882    constr:    0.0000
     atom:   82    charge:   14.1458    magn:   -2.2824    constr:    0.0000
     atom:   83    charge:   14.2433    magn:    1.1898    constr:    0.0000
     atom:   84    charge:   14.2689    magn:   -0.9793    constr:    0.0000
     atom:   85    charge:   14.2451    magn:    1.0324    constr:    0.0000
     atom:   86    charge:   14.2632    magn:   -1.2173    constr:    0.0000
     atom:   87    charge:   14.1253    magn:    2.2782    constr:    0.0000
     atom:   88    charge:   14.1535    magn:   -2.2162    constr:    0.0000
     atom:   89    charge:   14.1306    magn:    2.2275    constr:    0.0000
     atom:   90    charge:   14.1432    magn:   -2.2964    constr:    0.0000
     atom:   91    charge:   14.2404    magn:    1.2948    constr:    0.0000
     atom:   92    charge:   14.2667    magn:   -0.9743    constr:    0.0000
     atom:   93    charge:   14.2475    magn:    0.9606    constr:    0.0000
     atom:   94    charge:   14.2632    magn:   -1.2273    constr:    0.0000
     atom:   95    charge:   14.1240    magn:    2.2907    constr:    0.0000
     atom:   96    charge:   14.1552    magn:   -2.2209    constr:    0.0000
     atom:   97    charge:   14.1360    magn:    2.1691    constr:    0.0000
     atom:   98    charge:   14.1315    magn:   -2.3845    constr:    0.0000
     atom:   99    charge:   14.1945    magn:    1.7193    constr:    0.0000
     atom:  100    charge:   14.2694    magn:   -1.0531    constr:    0.0000
     atom:  101    charge:   14.2526    magn:    0.6934    constr:    0.0000
     atom:  102    charge:   14.2657    magn:   -1.1767    constr:    0.0000
     atom:  103    charge:   14.1226    magn:    2.3316    constr:    0.0000
     atom:  104    charge:   14.1573    magn:   -2.1966    constr:    0.0000
     atom:  105    charge:   14.1524    magn:    2.1229    constr:    0.0000
     atom:  106    charge:   14.1437    magn:   -2.2970    constr:    0.0000
     atom:  107    charge:   14.2449    magn:    1.1957    constr:    0.0000
     atom:  108    charge:   14.2720    magn:   -0.9015    constr:    0.0000
     atom:  109    charge:   14.2455    magn:    0.9559    constr:    0.0000
     atom:  110    charge:   14.2616    magn:   -1.2292    constr:    0.0000
     atom:  111    charge:   14.1201    magn:    2.3066    constr:    0.0000
     atom:  112    charge:   14.1522    magn:   -2.2251    constr:    0.0000
     atom:  113    charge:   14.1341    magn:    2.2150    constr:    0.0000
     atom:  114    charge:   14.1437    magn:   -2.3003    constr:    0.0000
     atom:  115    charge:   14.2367    magn:    1.2984    constr:    0.0000
     atom:  116    charge:   14.2721    magn:   -0.8847    constr:    0.0000
     atom:  117    charge:   14.2454    magn:    1.0102    constr:    0.0000
     atom:  118    charge:   14.2615    magn:   -1.2441    constr:    0.0000
     atom:  119    charge:   14.1283    magn:    2.2609    constr:    0.0000
     atom:  120    charge:   14.1525    magn:   -2.2209    constr:    0.0000
     atom:  121    charge:   14.1525    magn:    2.1196    constr:    0.0000
     atom:  122    charge:   14.1308    magn:   -2.3858    constr:    0.0000
     atom:  123    charge:   14.2456    magn:    1.1917    constr:    0.0000
     atom:  124    charge:   14.2695    magn:   -1.0353    constr:    0.0000
     atom:  125    charge:   14.2455    magn:    0.9718    constr:    0.0000
     atom:  126    charge:   14.2662    magn:   -1.1767    constr:    0.0000
     atom:  127    charge:   14.1202    magn:    2.3055    constr:    0.0000
     atom:  128    charge:   14.1579    magn:   -2.1944    constr:    0.0000

     total cpu time spent up to now is     2243.7 secs

     End of self-consistent calculation

 ------ SPIN UP ------------


          k = 0.0000 0.0000 0.0000 ( 91909 PWs)   bands (ev):

   -80.4057 -80.4016 -80.3699 -80.3517 -80.3510 -80.3502 -80.3501 -80.3408
   -80.3393 -80.3358 -80.3290 -80.3237 -80.3178 -80.3169 -80.2931 -80.2744
   -80.2687 -80.2683 -80.2673 -80.2669 -80.2665 -80.2638 -80.2506 -80.2330
   -80.2329 -80.2279 -80.2239 -80.2231 -80.2149 -80.2132 -80.2093 -80.0854
   -80.0766 -79.7473 -79.7458 -79.7453 -79.7411 -79.7376 -79.7354 -79.6850
   -79.6827 -79.6812 -79.6745 -79.6712 -79.6685 -79.6638 -79.6633 -79.5799
   -79.5706 -79.5655 -79.5598 -79.5453 -79.5350 -79.5166 -79.5138 -79.5067
   -79.5054 -79.5048 -79.4939 -79.4905 -79.3412 -79.3393 -78.8799 -78.5209
   -78.5048 -78.4574 -78.4537 -78.4458 -78.4288 -78.4031 -78.4009 -78.3817
   -78.3747 -78.3736 -78.3707 -78.3577 -78.3523 -78.3254 -78.3187 -78.3067
   -78.3053 -78.3049 -78.2924 -78.2910 -78.2868 -78.2863 -78.2851 -78.2840
   -78.2799 -78.2784 -78.2777 -78.2685 -78.0825 -78.0806 -77.7676 -77.7580
   -77.7381 -77.7340 -77.7305 -77.7233 -77.7219 -77.7219 -77.7208 -77.7195
   -77.7187 -77.7184 -77.7178 -77.7175 -77.7173 -77.7168 -77.7162 -77.7157
   -77.7153 -77.7148 -77.7146 -77.7128 -77.7125 -77.7123 -77.7103 -77.7090
   -77.7049 -77.7007 -77.6755 -77.6749 -77.6747 -77.6668 -64.9048 -64.0331
   -46.5665 -46.5617 -46.5240 -46.5078 -46.5076 -46.5047 -46.5043 -46.4976
   -46.4953 -46.4925 -46.4845 -46.4792 -46.4743 -46.4712 -46.4543 -46.4365
   -46.4362 -46.4327 -46.4315 -46.4310 -46.4299 -46.4292 -46.4265 -46.4227
   -46.4214 -46.4143 -46.4128 -46.4124 -46.4119 -46.4116 -46.4089 -46.4040
   -46.4000 -46.3989 -46.3967 -46.3940 -46.3934 -46.3920 -46.3913 -46.3880
   -46.3862 -46.3846 -46.3804 -46.3796 -46.3774 -46.3752 -46.3723 -46.3461
   -46.3439 -46.3405 -46.3396 -46.3367 -46.3353 -46.3315 -46.3298 -46.3244
   -46.3240 -46.3191 -46.3183 -46.3178 -46.3142 -46.3116 -46.3114 -46.3078
   -46.3047 -46.3032 -46.2998 -46.2977 -46.2969 -46.2932 -46.2918 -46.2903
   -46.2890 -46.2873 -46.2821 -46.2803 -46.2763 -46.2604 -46.2513 -46.2479
   -46.2445 -46.2437 -46.2415 -46.2406 -46.2295 -46.2294 -46.2254 -46.2144
   -46.2096 -46.2091 -46.2049 -46.2038 -46.1999 -46.1889 -46.1812 -46.1525
   -46.1426 -46.0265 -46.0223 -45.8475 -45.8405 -45.8385 -45.8312 -45.8277
   -45.8229 -45.8228 -45.8215 -45.8183 -45.8156 -45.8123 -45.8070 -45.7892
   -45.7875 -45.7861 -45.7859 -45.7835 -45.7796 -45.7790 -45.7769 -45.7765
   -45.7714 -45.7710 -45.7700 -45.7657 -45.7605 -45.7539 -45.7517 -45.7509
   -45.7459 -45.7444 -45.7419 -45.7413 -45.7391 -45.7389 -45.7385 -45.7370
   -45.7345 -45.7315 -45.7275 -45.7119 -45.7098 -45.6377 -45.6270 -45.6251
   -45.6228 -45.6198 -45.6183 -45.6169 -45.6119 -45.6006 -45.6004 -45.5903
   -45.5899 -45.5873 -45.5855 -45.5799 -45.5779 -45.5772 -45.5743 -45.5738
   -45.5698 -45.5683 -45.5673 -45.5650 -45.5618 -45.5610 -45.5588 -45.5557
   -45.5546 -45.5531 -45.5471 -45.5464 -45.5423 -45.5343 -45.5280 -45.5242
   -45.5233 -45.5230 -45.5068 -45.5024 -45.4504 -45.4490 -45.3899 -45.3833
   -45.3778 -45.3749 -45.0193 -44.9784 -44.9127 -44.6527 -44.6351 -44.6212
   -44.6076 -44.5824 -44.5817 -44.5777 -44.5697 -44.5689 -44.5682 -44.5659
   -44.5590 -44.5515 -44.5448 -44.5364 -44.5350 -44.5285 -44.5267 -44.5228
   -44.5213 -44.5191 -44.5162 -44.5156 -44.5126 -44.5080 -44.5071 -44.5051
   -44.5035 -44.5011 -44.4962 -44.4935 -44.4905 -44.4891 -44.4858 -44.4839
   -44.4828 -44.4806 -44.4794 -44.4731 -44.4631 -44.4604 -44.4441 -44.4304
   -44.4273 -44.4254 -44.4231 -44.4211 -44.4166 -44.4154 -44.4099 -44.4058
   -44.4037 -44.4027 -44.4001 -44.3993 -44.3966 -44.3961 -44.3911 -44.3847
   -44.3779 -44.3667 -44.3654 -44.3648 -44.3645 -44.3640 -44.3617 -44.3601
   -44.3592 -44.3573 -44.3524 -44.3501 -44.3493 -44.3467 -44.3455 -44.3423
   -44.3404 -44.3377 -44.3359 -44.3343 -44.3331 -44.3316 -44.3311 -44.3296
   -44.3276 -44.3252 -44.3230 -44.3196 -44.1925 -44.1898 -44.1678 -44.1647
   -44.1412 -44.1386 -43.9195 -43.9115 -43.9054 -43.9029 -43.8993 -43.8984
   -43.8943 -43.8941 -43.8928 -43.8920 -43.8901 -43.8890 -43.8877 -43.8857
   -43.8849 -43.8834 -43.8815 -43.8813 -43.8806 -43.8776 -43.8765 -43.8764
   -43.8756 -43.8751 -43.8747 -43.8740 -43.8735 -43.8718 -43.8703 -43.8679
   -43.8381 -43.8377 -43.8371 -43.8324 -43.8321 -43.8265 -43.8222 -43.8191
   -43.8130 -43.8124 -43.8106 -43.8103 -43.8097 -43.8089 -43.8085 -43.8077
   -43.8068 -43.8062 -43.8059 -43.8057 -43.8052 -43.8049 -43.8045 -43.8030
   -43.8022 -43.7999 -43.7973 -43.7958 -43.7939 -43.7926 -43.7884 -43.7861
   -43.7631 -43.7624 -43.7619 -43.7571 -43.7551 -43.7534 -43.7532 -43.7520
   -43.7515 -43.7503 -43.7501 -43.7495 -43.7477 -43.7459 -43.7444 -43.7441
   -43.7438 -43.7431 -43.7410 -43.7394 -43.7383 -43.7377 -43.7374 -43.7372
   -43.7353 -43.7343 -43.7337 -43.7316 -43.7314 -43.7270 -43.7169 -43.7154
   -43.7139 -43.7077 -34.9533 -34.9344 -34.9310 -34.0820 -34.0320 -33.9901
    -0.2458   0.5200   0.5327   0.5960   0.6176   1.2708   1.2816   1.2858
     1.3069   1.4236   2.1057   2.1213   2.1757   2.2075   2.3431   2.4849
     2.6039   2.6224   2.6304   2.6465   2.6625   2.6978   2.8010   2.8679
     2.8726   2.9190   2.9766   2.9812   2.9925   2.9935   3.0141   3.0385
     3.1683   3.2069   3.2635   3.2933   3.3045   3.3434   3.4022   3.4082
     3.4249   3.4586   3.4652   3.4898   3.4955   3.5003   3.5563   3.5794
     3.6022   3.6273   3.6372   3.6390   3.6488   3.6534   3.6741   3.6765
     3.6819   3.7141   3.7389   3.7493   3.7548   3.7721   3.7746   3.7889
     3.8004   3.8181   3.8449   3.8518   3.8719   3.8768   3.8879   3.9027
     3.9170   3.9304   3.9462   3.9537   3.9640   3.9687   3.9716   3.9800
     3.9965   4.0213   4.0327   4.0813   4.0968   4.1048   4.1095   4.1204
     4.1886   4.2000   4.2173   4.2251   4.2275   4.2312   4.2385   4.2451
     4.2528   4.2633   4.2901   4.2940   4.3019   4.3090   4.3134   4.3172
     4.3221   4.3264   4.3277   4.3347   4.3399   4.3505   4.3511   4.3572
     4.3599   4.3660   4.3761   4.3798   4.3858   4.3882   4.3931   4.4019
     4.4050   4.4072   4.4176   4.4246   4.4257   4.4371   4.4409   4.4679
     4.4715   4.4899   4.4980   4.5049   4.5194   4.5370   4.5457   4.5554
     4.5605   4.5729   4.5778   4.5855   4.5930   4.6076   4.6240   4.6361
     4.6548   4.6577   4.6706   4.6835   4.7003   4.7101   4.7228   4.7258
     4.7351   4.7384   4.7431   4.7474   4.7523   4.7548   4.7644   4.7703
     4.7750   4.7798   4.7845   4.7971   4.8072   4.8072   4.8166   4.8306
     4.8360   4.8485   4.8504   4.8620   4.8694   4.8743   4.8749   4.8786
     4.8919   4.9100   4.9176   4.9221   4.9378   4.9492   4.9546   4.9574
     4.9719   4.9773   4.9884   4.9925   5.0061   5.0102   5.0209   5.0737
     5.0881   5.0961   5.1325   5.1406   5.1442   5.1549   5.1771   5.1875
     5.1913   5.2566   5.2713   5.2779   5.2938   5.3202   5.3238   5.3348
     5.3381   5.3559   5.3901   5.3940   5.4110   5.4190   5.4310   5.4379
     5.4415   5.4463   5.4595   5.4728   5.4844   5.4992   5.5144   5.5241
     5.5275   5.5322   5.5424   5.5450   5.5547   5.5734   5.5925   5.6041
     5.6072   5.6131   5.6164   5.6219   5.6286   5.6399   5.6452   5.6460
     5.6485   5.6597   5.6621   5.6654   5.6671   5.6727   5.6736   5.6791
     5.6820   5.6834   5.6944   5.7091   5.7108   5.7416   5.7443   5.7727
     5.7799   5.7961   5.8043   5.8124   5.8338   5.8490   5.8516   5.8690
     5.8728   5.8754   5.8814   5.8871   5.8917   5.9036   5.9103   5.9205
     5.9239   5.9445   5.9533   5.9840   6.0162   6.0189   6.0283   6.0460
     6.0522   6.0527   6.1198   6.1306   6.1465   6.1515   6.1654   6.1723
     6.1876   6.1907   6.1923   6.1961   6.2057   6.2082   6.2174   6.2232
     6.2262   6.2312   6.2336   6.2338   6.2387   6.2416   6.2468   6.2490
     6.2554   6.2598   6.2659   6.2767   6.2817   6.2840   6.2922   6.3168
     6.3274   6.3338   6.3426   6.3553   6.3593   6.3756   6.4099   6.4223
     6.4534   6.4584   6.4597   6.4637   6.4696   6.4835   6.4887   6.4912
     6.4928   6.4957   6.4981   6.5003   6.5047   6.5077   6.5130   6.5222
     6.5285   6.5387   6.5401   6.5405   6.5468   6.5476   6.5513   6.5556
     6.5582   6.5601   6.5636   6.5688   6.5694   6.5706   6.5872   6.5965
     6.6004   6.6124   6.6171   6.6206   6.6267   6.6296   6.6323   6.6435
     6.6589   6.6699   6.6791   6.6888   6.6940   6.7044   6.7101   6.7149
     6.7166   6.7280   6.7464   6.7491   6.7573   6.7657   6.7686   6.7782
     6.7900   6.7945   6.7960   6.8146   6.8171   6.8193   6.8277   6.8420
     6.8440   6.8459   6.8508   6.8577   6.8630   6.8704   6.8765   6.8799
     6.8951   6.9065   6.9120   6.9198   6.9299   6.9380   6.9445   6.9535
     6.9637   6.9720   6.9755   6.9889   6.9903   7.0006   7.0105   7.0155
     7.0221   7.0462   7.0523   7.0643   7.0662   7.0838   7.0893   7.1195
     7.1315   7.1385   7.1463   7.1517   7.1540   7.1650   7.1671   7.1830
     7.1915   7.1932   7.2003   7.2179   7.2205   7.2229   7.2370   7.2450
     7.2523   7.2627   7.2938   7.3129   7.3162   7.3471   7.3578   7.4103
     7.4204   7.4443   7.4493   7.4602   7.4670   7.4694   7.4728   7.4825
     7.4884   7.4989   7.5072   7.5163   7.5255   7.5280   7.5308   7.5360
     7.5442   7.5582   7.5794   7.5814   7.5987   7.6006   7.6188   7.6521
     7.6561   7.6639   7.6740   7.6775   7.6998   7.7179   7.7254   7.7297
[...]
     3.6028   3.6111   3.6238   3.6318   3.6505   3.6586   3.6616   3.6719
     3.6834   3.7005   3.7126   3.7223   3.7422   3.7454   3.7627   3.7651
     3.7887   3.8188   3.8312   3.8362   3.8547   3.8642   3.8820   3.8838
     3.9243   3.9262   3.9408   3.9478   3.9620   3.9719   3.9733   3.9862
     3.9919   3.9956   4.0301   4.0507   4.0557   4.1339   4.1527   4.1733
     4.1796   4.1881   4.2005   4.2051   4.2115   4.2154   4.2185   4.2239
     4.2355   4.2397   4.2594   4.2747   4.2784   4.2848   4.2958   4.2987
     4.3093   4.3105   4.3132   4.3224   4.3264   4.3334   4.3415   4.3425
     4.3482   4.3573   4.3638   4.3653   4.3704   4.3731   4.3780   4.3870
     4.3892   4.3916   4.4079   4.4122   4.4169   4.4202   4.4253   4.4337
     4.4495   4.4625   4.4712   4.4859   4.5177   4.5199   4.5256   4.5330
     4.5388   4.5510   4.5534   4.5596   4.5673   4.5777   4.5927   4.6090
     4.6253   4.6400   4.6530   4.6629   4.6889   4.6950   4.6989   4.7069
     4.7140   4.7191   4.7308   4.7348   4.7430   4.7440   4.7504   4.7530
     4.7598   4.7674   4.7823   4.7849   4.7981   4.7994   4.8055   4.8094
     4.8104   4.8216   4.8302   4.8324   4.8366   4.8400   4.8517   4.8559
     4.8688   4.8752   4.8764   4.8863   4.9190   4.9352   4.9392   4.9424
     4.9451   4.9537   4.9682   4.9733   4.9857   4.9869   5.0097   5.0675
     5.0779   5.1028   5.1122   5.1177   5.1232   5.1436   5.1464   5.1519
     5.1739   5.2204   5.2369   5.2403   5.2793   5.3111   5.3223   5.3385
     5.3539   5.3628   5.3688   5.3735   5.3831   5.3957   5.4030   5.4146
     5.4164   5.4269   5.4271   5.4477   5.4531   5.4856   5.4873   5.4878
     5.4956   5.5050   5.5197   5.5262   5.5381   5.5555   5.5682   5.5693
     5.5824   5.5877   5.5968   5.6055   5.6179   5.6238   5.6271   5.6279
     5.6359   5.6427   5.6454   5.6484   5.6498   5.6558   5.6590   5.6623
     5.6630   5.6671   5.6736   5.6762   5.6778   5.6788   5.7162   5.7197
     5.7666   5.7837   5.7926   5.7980   5.8155   5.8205   5.8317   5.8362
     5.8436   5.8501   5.8539   5.8626   5.8677   5.8705   5.8769   5.8795
     5.8973   5.9026   5.9131   5.9388   5.9472   5.9611   5.9998   6.0060
     6.0131   6.0311   6.1018   6.1091   6.1285   6.1413   6.1459   6.1479
     6.1519   6.1675   6.1684   6.1735   6.1879   6.1984   6.2023   6.2051
     6.2100   6.2132   6.2199   6.2239   6.2261   6.2289   6.2330   6.2373
     6.2449   6.2465   6.2479   6.2499   6.2653   6.2734   6.2781   6.2799
     6.2896   6.3015   6.3042   6.3123   6.3235   6.3329   6.3447   6.3468
     6.4169   6.4198   6.4249   6.4355   6.4441   6.4515   6.4656   6.4714
     6.4765   6.4802   6.4826   6.4867   6.4920   6.4938   6.4955   6.4996
     6.5005   6.5066   6.5145   6.5195   6.5211   6.5218   6.5345   6.5417
     6.5447   6.5478   6.5497   6.5510   6.5526   6.5550   6.5565   6.5595
     6.5675   6.5748   6.5850   6.5942   6.6002   6.6036   6.6068   6.6247
     6.6313   6.6433   6.6583   6.6625   6.6708   6.6763   6.6915   6.6983
     6.7041   6.7136   6.7229   6.7312   6.7388   6.7437   6.7511   6.7549
     6.7588   6.7655   6.7780   6.7891   6.7914   6.7923   6.8004   6.8080
     6.8097   6.8189   6.8211   6.8287   6.8317   6.8368   6.8439   6.8508
     6.8839   6.8877   6.9071   6.9074   6.9099   6.9133   6.9239   6.9364
     6.9389   6.9432   6.9535   6.9578   6.9625   6.9755   6.9875   6.9941
     7.0110   7.0151   7.0199   7.0241   7.0273   7.0502   7.0576   7.0689
     7.0819   7.1172   7.1188   7.1323   7.1340   7.1384   7.1442   7.1477
     7.1514   7.1575   7.1648   7.1782   7.1879   7.2033   7.2063   7.2113
     7.2160   7.2202   7.2297   7.2814   7.3127   7.3180   7.3260   7.3619
     7.3895   7.4020   7.4182   7.4295   7.4364   7.4476   7.4530   7.4585
     7.4677   7.4746   7.4846   7.4918   7.4965   7.4983   7.5030   7.5056
     7.5154   7.5204   7.5393   7.5589   7.5686   7.5748   7.5779   7.5974
     7.6003   7.6234   7.6341   7.6730   7.6740   7.6822   7.6848   7.6923
     7.7022   7.7091   7.7181   7.7205   7.7318   7.7372   7.7500   7.7804
     7.7870   7.7968   7.8054   7.8369   7.8529   7.8606   7.8628   7.8702
     7.8803   7.8858   7.8895   7.8912   7.8934   7.9100   7.9251   7.9320
     7.9386   7.9437   7.9646   7.9661   7.9775   7.9892   7.9993   8.0084
     8.0238   8.0286   8.0431   8.0727   8.0845   8.0907   8.0943   8.1074
     8.1107   8.1240   8.1262   8.1331   8.1377   8.1439   8.1499   8.1760
     8.1817   8.1826   8.1940   8.1992   8.2302   8.2448   8.2566   8.2603
     8.2777   8.2901   8.2960   8.3157   8.3431   8.3496   8.3561   8.3801
     8.3908   8.4027   8.4090   8.4229   8.4530   8.4612   8.4784   8.4858
     8.4996   8.5294   8.5443   8.5682   8.5884   8.5942   8.6052   8.6228
     8.6307   8.6375   8.6422   8.6441   8.6598   8.6837   8.6971   8.7088
     8.7166   8.7212   8.7247   8.7260   8.7276   8.7316   8.7325   8.7383
     8.7434   8.7475   8.7506   8.7543   8.7559   8.7576   8.7621   8.7636
     8.7673   8.7679   8.7697   8.7707   8.7764   8.7783   8.7855   8.7875
     8.7884   8.7906   8.7931   8.8018   8.8059   8.8125   8.8157   8.8235
     8.8411   8.8422   8.8445   8.8508   8.8561   8.8589   8.8635   8.8702
     8.8758   8.8832   8.8968   8.9044   8.9157   8.9169   8.9210   8.9326
     8.9345   8.9387   8.9447   8.9469   8.9504   8.9542   8.9614   8.9753
     8.9876   8.9955   8.9979   9.0013   9.0059   9.0106   9.0176   9.0221
     9.0290   9.0333   9.0457   9.0521   9.0556   9.0575   9.0802   9.0981
     9.1049   9.1085   9.1118   9.1163   9.1228   9.1267   9.1292   9.1301
     9.1379   9.1402   9.1442   9.1509   9.1593   9.1803   9.1871   9.1923
     9.1976   9.1999   9.2047   9.2067   9.2140   9.2171   9.2235   9.2260
     9.2335   9.2408   9.2431   9.2505   9.2583   9.2682   9.2720   9.2861
     9.2876   9.3073   9.3123   9.3212   9.3316   9.3364   9.3411   9.3435
     9.3461   9.3510   9.3588   9.3682   9.3734   9.3792   9.3914   9.3982
     9.4073   9.4130   9.4221   9.4294   9.4413   9.4490   9.4672   9.4913
     9.4967   9.5138   9.5387   9.5482   9.5570   9.5783   9.5870   9.6103
     9.6933   9.7289   9.9417   9.9601  10.1624  10.2619  10.2819  10.3802
    10.4184  10.4759  10.4885  10.5051  10.5237  10.5356  10.5424  10.5649
    10.5799  10.6450  10.6484  10.6785  10.7034

     the Fermi energy is     8.1320 ev

!    total energy              =  -42344.67858451 Ry

     total all-electron energy =   -338859.066146 Ry
     estimated scf accuracy    <          8.6E-09 Ry
     smearing contrib. (-TS)   =       0.01666135 Ry
     internal energy E=F+TS    =  -42344.69524586 Ry

     The total energy is F=E-TS. E is the sum of the following terms:
     one-electron contribution =  -97966.27762224 Ry
     hartree contribution      =   49488.65025783 Ry
     xc contribution           =   -3547.54381670 Ry
     ewald contribution        =   20586.80039168 Ry
     one-center paw contrib.   =  -10906.32445642 Ry

     total magnetization       =    -3.47 Bohr mag/cell
     absolute magnetization    =   227.25 Bohr mag/cell

     convergence has been achieved in  92 iterations

     negative rho (up, down):  1.156E-03 1.292E-03

     Forces acting on atoms (cartesian axes, Ry/au):

     atom    1 type  3   force =    -0.00017402   -0.00012271    0.04974219
     atom    2 type  2   force =    -0.01166705   -0.01279458   -0.00138279
     atom    3 type  1   force =    -0.01417316    0.00007018   -0.01524629
     atom    4 type  2   force =     0.00049896   -0.00818359   -0.00753250
     atom    5 type  1   force =     0.00028115   -0.00001980    0.00069178
     atom    6 type  2   force =    -0.00228011   -0.00002706    0.00004080
     atom    7 type  1   force =     0.00016472   -0.00036533   -0.00061511
     atom    8 type  2   force =     0.00060769   -0.00005041   -0.00107073
     atom    9 type  1   force =    -0.00009446   -0.00121456   -0.00441906
     atom   10 type  2   force =     0.00023827    0.00094794    0.00030573
     atom   11 type  1   force =    -0.00138126   -0.00073153    0.00107759
     atom   12 type  2   force =     0.00020927    0.00014698    0.00015877
     atom   13 type  1   force =     0.00030528    0.00139480    0.00023710
     atom   14 type  2   force =    -0.00088558    0.00114123   -0.00034710
     atom   15 type  1   force =    -0.00095772    0.00037531    0.00025608
     atom   16 type  2   force =     0.00005485   -0.00079298   -0.00035048
     atom   17 type  1   force =     0.00006170    0.00007134   -0.00050217
     atom   18 type  2   force =     0.00021553   -0.00104356    0.00024394
     atom   19 type  1   force =    -0.00026725    0.00018460   -0.00019902
     atom   20 type  2   force =     0.00003900   -0.00018889   -0.00010607
     atom   21 type  1   force =     0.00030490   -0.00017299   -0.00006806
     atom   22 type  2   force =    -0.00005376   -0.00028821    0.00021765
     atom   23 type  1   force =    -0.00050923    0.00023557    0.00016189
     atom   24 type  2   force =    -0.00009449    0.00056680   -0.00022672
     atom   25 type  1   force =     0.00006027    0.00125070   -0.00427064
     atom   26 type  2   force =    -0.01113767    0.01313476    0.00026610
     atom   27 type  1   force =    -0.00076674    0.00062086    0.00121916
     atom   28 type  2   force =     0.00016015    0.00835193   -0.00765515
     atom   29 type  1   force =     0.00026232   -0.00138508    0.00013657
     atom   30 type  2   force =    -0.00194087   -0.00090919   -0.00136216
     atom   31 type  1   force =    -0.00007335   -0.00032659    0.00022551
     atom   32 type  2   force =     0.00008751    0.00034656   -0.00135597
     atom   33 type  1   force =    -0.00419616   -0.00011350   -0.00475207
     atom   34 type  2   force =     0.00059225   -0.00002076   -0.00092343
     atom   35 type  1   force =    -0.00069775   -0.01194485   -0.01147694
     atom   36 type  2   force =    -0.01983803    0.00001749   -0.01745011
     atom   37 type  1   force =    -0.01124226   -0.01560499    0.00087926
     atom   38 type  3   force =     0.00040148    0.00050358   -0.00288585
     atom   39 type  1   force =    -0.00084254   -0.01343077    0.01131048
     atom   40 type  2   force =    -0.02848471    0.00061324    0.02626163
     atom   41 type  1   force =    -0.00038089    0.00087491   -0.00372857
     atom   42 type  2   force =     0.00025646   -0.00040418    0.00057755
     atom   43 type  1   force =     0.00015471    0.01244883   -0.01134480
     atom   44 type  2   force =     0.00040279    0.00029288    0.00071593
     atom   45 type  1   force =    -0.01407428    0.01530073   -0.00030711
     atom   46 type  2   force =    -0.00030900    0.00076230   -0.00115090
     atom   47 type  1   force =    -0.00003925    0.01275140    0.01100579
     atom   48 type  2   force =    -0.00081314   -0.00015335    0.00064721
     atom   49 type  1   force =     0.00015157    0.00041546   -0.00014387
     atom   50 type  2   force =     0.00031227   -0.00000286    0.00064028
     atom   51 type  1   force =     0.00037926    0.00029562    0.00047206
     atom   52 type  2   force =     0.00033766   -0.00047916    0.00034731
     atom   53 type  1   force =     0.00011767    0.00009824    0.00036586
     atom   54 type  2   force =    -0.00026118    0.00019833    0.00040191
     atom   55 type  1   force =    -0.00044509    0.00037920    0.00008511
     atom   56 type  2   force =    -0.00027361    0.00027937   -0.00016385
     atom   57 type  1   force =     0.00005045   -0.00100559   -0.00269010
     atom   58 type  2   force =     0.00060587    0.00044989    0.00054347
     atom   59 type  1   force =     0.00023956   -0.00038106    0.00023099
     atom   60 type  2   force =     0.00144782    0.00020548    0.00162378
     atom   61 type  1   force =    -0.00006502   -0.00004088    0.00008692
     atom   62 type  2   force =     0.00005243   -0.00169488   -0.00141322
     atom   63 type  1   force =    -0.00005747    0.00010945   -0.00007288
     atom   64 type  2   force =    -0.00013030   -0.00080157    0.00181941
     atom   65 type  1   force =     0.00043702   -0.00041059   -0.00171014
     atom   66 type  2   force =    -0.00012970   -0.00005057   -0.00115965
     atom   67 type  1   force =     0.00149640   -0.00011538   -0.00045364
     atom   68 type  2   force =     0.02075493    0.00018773   -0.01797984
     atom   69 type  1   force =     0.01430775   -0.01596865   -0.00128891
     atom   70 type  2   force =     0.00141335    0.00065625    0.00062339
     atom   71 type  1   force =     0.00203738   -0.00034180    0.00005312
     atom   72 type  2   force =     0.02803256   -0.00014190    0.02459629
     atom   73 type  1   force =     0.00040867    0.00052803   -0.00113193
     atom   74 type  2   force =    -0.00028987   -0.00008926    0.00041064
     atom   75 type  1   force =     0.00068901    0.00028775   -0.00001776
     atom   76 type  2   force =    -0.00022349   -0.00022005    0.00068832
     atom   77 type  1   force =     0.01424802    0.01603430   -0.00013962
     atom   78 type  2   force =     0.00111174    0.00063703   -0.00018829
     atom   79 type  1   force =     0.00110105   -0.00016504   -0.00000744
     atom   80 type  2   force =     0.00062565   -0.00037107    0.00079607
     atom   81 type  1   force =     0.00001301    0.00041161   -0.00001587
     atom   82 type  2   force =    -0.00025040    0.00000480    0.00036672
     atom   83 type  1   force =    -0.00006449    0.00016447    0.00050527
     atom   84 type  2   force =    -0.00016244   -0.00012994    0.00039276
     atom   85 type  1   force =    -0.00003637    0.00008712    0.00035066
     atom   86 type  2   force =     0.00019537    0.00020171    0.00031300
     atom   87 type  1   force =     0.00065333    0.00022628   -0.00002942
     atom   88 type  2   force =     0.00004897    0.00043531   -0.00000048
     atom   89 type  1   force =     0.00001414   -0.00052366   -0.00004380
     atom   90 type  2   force =    -0.00059657    0.00014721    0.00043759
     atom   91 type  1   force =     0.00007762   -0.00026325    0.00018754
     atom   92 type  2   force =    -0.00017960    0.00017845    0.00041027
     atom   93 type  1   force =    -0.00003866   -0.00005610    0.00021729
     atom   94 type  2   force =     0.00086807   -0.00147250   -0.00060951
     atom   95 type  1   force =     0.00021429    0.00016625   -0.00014434
     atom   96 type  2   force =     0.00065445   -0.00002995    0.00092967
     atom   97 type  1   force =     0.00385283   -0.00011700   -0.00376788
     atom   98 type  2   force =     0.01133251   -0.01310164    0.00032776
     atom   99 type  1   force =     0.01339829    0.00006956   -0.01514341
     atom  100 type  2   force =    -0.00172848   -0.00001523    0.00177065
     atom  101 type  1   force =    -0.00315694   -0.00006827    0.00146442
     atom  102 type  2   force =     0.00088525   -0.00007526   -0.00137974
     atom  103 type  1   force =    -0.00110961    0.00004283   -0.00063405
     atom  104 type  2   force =    -0.00113966    0.00059385    0.00115379
     atom  105 type  1   force =     0.00006644    0.00071458   -0.00256217
     atom  106 type  2   force =    -0.00020642    0.00106700    0.00012411
     atom  107 type  1   force =     0.00052765   -0.00080023    0.00134039
     atom  108 type  2   force =    -0.00038352    0.00035382    0.00055589
     atom  109 type  1   force =    -0.00011619   -0.00003530    0.00017624
     atom  110 type  2   force =     0.00010832    0.00017472    0.00019660
     atom  111 type  1   force =    -0.00011605    0.00008843    0.00017922
     atom  112 type  2   force =     0.00015521   -0.00052958   -0.00016898
     atom  113 type  1   force =    -0.00024638    0.00003854    0.00016584
     atom  114 type  2   force =    -0.00025781   -0.00105115    0.00018688
     atom  115 type  1   force =    -0.00004626    0.00001818   -0.00013142
     atom  116 type  2   force =    -0.00020617   -0.00045208    0.00030358
     atom  117 type  1   force =    -0.00037560   -0.00020132    0.00030798
     atom  118 type  2   force =     0.00009840   -0.00029438    0.00011359
     atom  119 type  1   force =     0.00032503    0.00000906    0.00032977
     atom  120 type  2   force =     0.00030712    0.00024531   -0.00006823
     atom  121 type  1   force =    -0.00007518   -0.00061920   -0.00246329
     atom  122 type  2   force =     0.01127622    0.01320439    0.00023724
     atom  123 type  1   force =     0.00047235    0.00070196    0.00130066
     atom  124 type  2   force =    -0.00142027    0.00007933    0.00155120
     atom  125 type  1   force =    -0.00017098    0.00015926    0.00003420
     atom  126 type  2   force =     0.00084542    0.00010899   -0.00099021
     atom  127 type  1   force =    -0.00016004   -0.00017301    0.00037906
     atom  128 type  2   force =    -0.00061319   -0.00028133    0.00097027

     Total force =     0.110789     Total SCF correction =     0.000312


     Computing stress (Cartesian axis) and pressure


     negative rho (up, down):  1.156E-03 1.292E-03
          total   stress  (Ry/bohr**3)                   (kbar)     P=      -18.09
  -0.00012873   0.00000006  -0.00000005          -18.94        0.01       -0.01
   0.00000006  -0.00009203   0.00000002            0.01      -13.54        0.00
  -0.00000005   0.00000002  -0.00014812           -0.01        0.00      -21.79


     Writing output data file /scratch/bxp912/feruslab5.save/
 
     init_run     :      8.92s CPU      9.43s WALL (       1 calls)
     electrons    :   2178.93s CPU   2230.75s WALL (       1 calls)
     forces       :      5.10s CPU      5.27s WALL (       1 calls)
     stress       :    112.35s CPU    113.03s WALL (       1 calls)

     Called by init_run:
     wfcinit      :      5.72s CPU      6.00s WALL (       1 calls)
     potinit      :      1.02s CPU      1.10s WALL (       1 calls)
     hinit0       :      1.21s CPU      1.24s WALL (       1 calls)

     Called by electrons:
     c_bands      :   1831.36s CPU   1865.79s WALL (      92 calls)
     sum_band     :    241.29s CPU    250.40s WALL (      92 calls)
     v_of_rho     :     13.55s CPU     14.60s WALL (      93 calls)
     newd         :     26.46s CPU     31.94s WALL (      93 calls)
     PAW_pot      :     55.70s CPU     56.92s WALL (      93 calls)
     mix_rho      :      9.12s CPU      9.65s WALL (      92 calls)

     Called by c_bands:
     init_us_2    :      8.93s CPU      9.07s WALL (     374 calls)
     regterg      :   1798.27s CPU   1831.48s WALL (     184 calls)

     Called by *egterg:
     rdiaghg      :    196.57s CPU    198.79s WALL (     895 calls)
     h_psi        :    720.22s CPU    730.37s WALL (     897 calls)
     s_psi        :    135.79s CPU    139.25s WALL (     897 calls)
     g_psi        :      2.81s CPU      2.83s WALL (     711 calls)

     Called by h_psi:
     h_psi:calbec :    177.69s CPU    178.87s WALL (     897 calls)
     vloc_psi     :    396.31s CPU    401.15s WALL (     897 calls)
     add_vuspsi   :    140.74s CPU    144.85s WALL (     897 calls)

     General routines
     calbec       :    256.50s CPU    258.24s WALL (    1091 calls)
     fft          :     13.15s CPU     13.40s WALL (    1980 calls)
     ffts         :      4.16s CPU      4.25s WALL (    1995 calls)
     fftw         :    411.15s CPU    416.04s WALL (  641022 calls)
     interpolate  :      1.57s CPU      1.61s WALL (     186 calls)
 
     Parallel routines
     fft_scatt_xy :     52.88s CPU     53.37s WALL (  644997 calls)
     fft_scatt_yz :    281.81s CPU    285.63s WALL (  644997 calls)
 
     PWSCF        :  38m31.83s CPU  39m26.70s WALL

 
   This run was terminated on:  15:26:48  29May2022            

=------------------------------------------------------------------------------=
   JOB DONE.
=------------------------------------------------------------------------------=
