
     Program PWSCF v.6.7MaX starts on 29May2022 at 13:53:45 

     This program is part of the open-source Quantum ESPRESSO suite
     for quantum simulation of materials; please cite
         "P. Giannozzi et al., J. Phys.:Condens. Matter 21 395502 (2009);
         "P. Giannozzi et al., J. Phys.:Condens. Matter 29 465901 (2017);
          URL http://www.quantum-espresso.org", 
     in publications or presentations arising from this work. More details at
     http://www.quantum-espresso.org/quote

     Parallel version (MPI & OpenMP), running on      72 processor cores
     Number of MPI processes:                72
     Threads/MPI process:                     1

     MPI processes distributed on     1 nodes
     R & G space division:  proc/nbgrp/npool/nimage =      72
     Reading input from feruslabDr3.in
Warning: card &CELL ignored
Warning: card CELL_DYNAMICS = 'BFGS', ignored
Warning: card CELL_FACTOR = 2.0, ignored
Warning: card PRESS = 0.0, ignored
Warning: card / ignored

     Current dimensions of program PWSCF are:
     Max number of different atomic species (ntypx) = 10
     Max number of k-points (npk) =  40000
     Max angular momentum in pseudopotentials (lmaxx) =  3
     file Fe.pbe-spn-kjpaw_psl.1.0.0.UPF: wavefunction(s)  3P 3D renormalized
     file Fe.pbe-spn-kjpaw_psl.1.0.0.UPF: wavefunction(s)  3P 3D renormalized
     file Ru.pbe-spn-kjpaw_psl.1.0.0.UPF: wavefunction(s)  4D renormalized

     gamma-point specific algorithms are used

     Subspace diagonalization in iterative solution of the eigenvalue problem:
     one sub-group per band group will be used
     ELPA distributed-memory algorithm (size of sub-group:  8*  8 procs)

 
     Parallelization info
     --------------------
     sticks:   dense  smooth     PW     G-vecs:    dense   smooth      PW
     Min         333     220     53                38016    20412    2546
     Max         336     222     56                38038    20426    2560
     Sum       24049   15899   3985              2738239  1469969  183817
 


     bravais-lattice index     =            0
     lattice parameter (alat)  =      25.8600  a.u.
     unit-cell volume          =   18186.5006 (a.u.)^3
     number of atoms/cell      =          129
     number of atomic types    =            3
     number of electrons       =      2064.00
     number of Kohn-Sham states=         1238
     kinetic-energy cutoff     =      71.0000  Ry
     charge density cutoff     =     430.0000  Ry
     scf convergence threshold =      1.0E-08
     mixing beta               =       0.3000
     number of iterations used =           10  local-TF  mixing
     Exchange-correlation= SLA  PW   PBX  PBC
                           (   1   4   3   4   0   0   0)

     celldm(1)=  25.860000  celldm(2)=   0.000000  celldm(3)=   0.000000
     celldm(4)=   0.000000  celldm(5)=   0.000000  celldm(6)=   0.000000

     crystal axes: (cart. coord. in units of alat)
               a(1) = (   1.000000   0.000000   0.000000 )  
               a(2) = (   0.000000   1.051631   0.000000 )  
               a(3) = (   0.000000   0.000000   1.000000 )  

     reciprocal axes: (cart. coord. in units 2 pi/alat)
               b(1) = (  1.000000  0.000000  0.000000 )  
               b(2) = (  0.000000  0.950903  0.000000 )  
               b(3) = (  0.000000  0.000000  1.000000 )  


     PseudoPot. # 1 for Fe read from file:
     /rds/homes/b/bxp912/pp/Fe.pbe-spn-kjpaw_psl.1.0.0.UPF
     MD5 check sum: 42f43b795421b414b0dc916aa790dbcb
     Pseudo is Projector augmented-wave + core cor, Zval = 16.0
     Generated using &quot;atomic&quot; code by A. Dal Corso  v.6.3
     Shape of augmentation charge: PSQ
     Using radial grid of 1191 points,  6 beta functions with: 
                l(1) =   0
                l(2) =   0
                l(3) =   1
                l(4) =   1
                l(5) =   2
                l(6) =   2
     Q(r) pseudized with 0 coefficients 


     PseudoPot. # 2 for Fe read from file:
     /rds/homes/b/bxp912/pp/Fe.pbe-spn-kjpaw_psl.1.0.0.UPF
     MD5 check sum: 42f43b795421b414b0dc916aa790dbcb
     Pseudo is Projector augmented-wave + core cor, Zval = 16.0
     Generated using &quot;atomic&quot; code by A. Dal Corso  v.6.3
     Shape of augmentation charge: PSQ
     Using radial grid of 1191 points,  6 beta functions with: 
                l(1) =   0
                l(2) =   0
                l(3) =   1
                l(4) =   1
                l(5) =   2
                l(6) =   2
     Q(r) pseudized with 0 coefficients 


     PseudoPot. # 3 for Ru read from file:
     /rds/homes/b/bxp912/pp/Ru.pbe-spn-kjpaw_psl.1.0.0.UPF
     MD5 check sum: 0ae1f594dea09af7be8575c3a481d1ae
     Pseudo is Projector augmented-wave + core cor, Zval = 16.0
     Generated using "atomic" code by A. Dal Corso  v.5.1
     Shape of augmentation charge: PSQ
     Using radial grid of 1233 points,  6 beta functions with: 
                l(1) =   0
                l(2) =   0
                l(3) =   1
                l(4) =   1
                l(5) =   2
                l(6) =   2
     Q(r) pseudized with 0 coefficients 


     atomic species   valence    mass     pseudopotential
        Fe1           16.00    55.84500     Fe( 1.00)
        Fe2           16.00    55.84500     Fe( 1.00)
        Ru            16.00   101.07000     Ru( 1.00)

     Starting magnetic structure 
     atomic species   magnetization
        Fe1          0.100
        Fe2         -0.100
        Ru           0.001

     No symmetry found



   Cartesian axes

     site n.     atom                  positions (alat units)
         1           Ru  tau(   1) = (   0.1394683   0.1107793   0.1744294  )
         2           Fe1 tau(   2) = (   0.0587515   0.0653881   0.3211198  )
         3           Fe2 tau(   3) = (   0.1884265   0.2002713   0.3214448  )
         4           Fe1 tau(   4) = (   0.1868213   0.0655646   0.4421276  )
         5           Fe2 tau(   5) = (   0.0624952   0.1980629   0.4424469  )
         6           Fe1 tau(   6) = (   0.0623234   0.0655267   0.5697271  )
         7           Fe2 tau(   7) = (   0.1876610   0.1975943   0.5698145  )
         8           Fe1 tau(   8) = (   0.1882185   0.0650035   0.6879009  )
         9           Fe2 tau(   9) = (   0.0616632   0.1980291   0.6879420  )
        10           Fe1 tau(  10) = (   0.0653597   0.3265762   0.3172267  )
        11           Fe2 tau(  11) = (   0.1877413   0.4579090   0.3175394  )
        12           Fe1 tau(  12) = (   0.1881227   0.3296492   0.4412225  )
        13           Fe2 tau(  13) = (   0.0633903   0.4595175   0.4385688  )
        14           Fe1 tau(  14) = (   0.0628268   0.3296102   0.5678640  )
        15           Fe2 tau(  15) = (   0.1885537   0.4615096   0.5682187  )
        16           Fe1 tau(  16) = (   0.1887326   0.3305664   0.6874596  )
        17           Fe2 tau(  17) = (   0.0603308   0.4618776   0.6862421  )
        18           Fe1 tau(  18) = (   0.0648519   0.5907106   0.3145093  )
        19           Fe2 tau(  19) = (   0.1847510   0.7238107   0.3145456  )
        20           Fe1 tau(  20) = (   0.1863681   0.5909977   0.4371267  )
        21           Fe2 tau(  21) = (   0.0633682   0.7236125   0.4371464  )
        22           Fe1 tau(  22) = (   0.0615849   0.5918936   0.5662034  )
        23           Fe2 tau(  23) = (   0.1882586   0.7226899   0.5660552  )
        24           Fe1 tau(  24) = (   0.1887997   0.5925453   0.6861716  )
        25           Fe2 tau(  25) = (   0.0613274   0.7219977   0.6862125  )
        26           Fe1 tau(  26) = (   0.0618357   0.8560935   0.3172000  )
        27           Fe2 tau(  27) = (   0.1829530   0.9895025   0.3139428  )
        28           Fe1 tau(  28) = (   0.1862919   0.8555747   0.4379183  )
        29           Fe2 tau(  29) = (   0.0618572   0.9855343   0.4406165  )
        30           Fe1 tau(  30) = (   0.0613876   0.8531658   0.5679772  )
        31           Fe2 tau(  31) = (   0.1869233   0.9851356   0.5677120  )
        32           Fe1 tau(  32) = (   0.1896322   0.8527645   0.6860337  )
        33           Fe2 tau(  33) = (   0.0612834   0.9839846   0.6875207  )
        34           Fe1 tau(  34) = (   0.3076371   0.0696373   0.3122286  )
        35           Fe2 tau(  35) = (   0.4357117   0.1980603   0.3171939  )
        36           Fe1 tau(  36) = (   0.4341488   0.0657210   0.4341951  )
        37           Fe2 tau(  37) = (   0.3121648   0.1978698   0.4418603  )
        38           Fe1 tau(  38) = (   0.3124073   0.0653502   0.5666112  )
        39           Fe2 tau(  39) = (   0.4385533   0.1968925   0.5660486  )
        40           Fe1 tau(  40) = (   0.4380091   0.0657438   0.6859902  )
        41           Fe2 tau(  41) = (   0.3146724   0.1973275   0.6859048  )
        42           Fe1 tau(  42) = (   0.3112557   0.3275738   0.3170910  )
        43           Fe2 tau(  43) = (   0.4354886   0.4597974   0.3147106  )
        44           Fe1 tau(  44) = (   0.4374791   0.3293042   0.4369893  )
        45           Fe2 tau(  45) = (   0.3125364   0.4604356   0.4366549  )
        46           Fe1 tau(  46) = (   0.3141732   0.3293478   0.5679259  )
        47           Fe2 tau(  47) = (   0.4390386   0.4604040   0.5632767  )
        48           Fe1 tau(  48) = (   0.4403086   0.3292951   0.6845898  )
        49           Fe2 tau(  49) = (   0.3159177   0.4625217   0.6855273  )
        50           Fe1 tau(  50) = (   0.3083587   0.5903099   0.3147277  )
        51           Fe2 tau(  51) = (   0.4339295   0.7233087   0.3130231  )
        52           Fe1 tau(  52) = (   0.4358847   0.5924128   0.4322183  )
        53           Fe2 tau(  53) = (   0.3104159   0.7228918   0.4334436  )
        54           Fe1 tau(  54) = (   0.3142966   0.5918280   0.5641361  )
        55           Fe2 tau(  55) = (   0.4385180   0.7234213   0.5598951  )
        56           Fe1 tau(  56) = (   0.4419191   0.5923939   0.6824908  )
        57           Fe2 tau(  57) = (   0.3162141   0.7223454   0.6842751  )
        58           Fe1 tau(  58) = (   0.3074024   0.8548895   0.3147790  )
        59           Fe2 tau(  59) = (   0.4344514   0.9868630   0.3150403  )
        60           Fe1 tau(  60) = (   0.4356335   0.8547100   0.4315209  )
        61           Fe2 tau(  61) = (   0.3101231   0.9863643   0.4363794  )
        62           Fe1 tau(  62) = (   0.3137980   0.8546705   0.5632611  )
        63           Fe2 tau(  63) = (   0.4377077   0.9869231   0.5623578  )
        64           Fe1 tau(  64) = (   0.4393286   0.8535281   0.6828982  )
        65           Fe2 tau(  65) = (   0.3147963   0.9849942   0.6859368  )
        66           Fe1 tau(  66) = (   0.5616138   0.0664335   0.3146916  )
        67           Fe2 tau(  67) = (   0.6884049   0.1964824   0.3148346  )
        68           Fe1 tau(  68) = (   0.6885681   0.0663159   0.4352684  )
        69           Fe2 tau(  69) = (   0.5611411   0.1964240   0.4352748  )
        70           Fe1 tau(  70) = (   0.5619820   0.0659448   0.5635482  )
        71           Fe2 tau(  71) = (   0.6874432   0.1968268   0.5641102  )
        72           Fe1 tau(  72) = (   0.6855858   0.0654998   0.6850881  )
        73           Fe2 tau(  73) = (   0.5638040   0.1972169   0.6852842  )
        74           Fe1 tau(  74) = (   0.5607509   0.3265340   0.3139843  )
        75           Fe2 tau(  75) = (   0.6872354   0.4585088   0.3123752  )
        76           Fe1 tau(  76) = (   0.6875594   0.3276299   0.4335896  )
        77           Fe2 tau(  77) = (   0.5625961   0.4595520   0.4321368  )
        78           Fe1 tau(  78) = (   0.5632705   0.3282677   0.5635703  )
        79           Fe2 tau(  79) = (   0.6879817   0.4596075   0.5599214  )
        80           Fe1 tau(  80) = (   0.6882353   0.3288574   0.6849967  )
        81           Fe2 tau(  81) = (   0.5651853   0.4612490   0.6822433  )
        82           Fe1 tau(  82) = (   0.5612595   0.5916576   0.3122746  )
        83           Fe2 tau(  83) = (   0.6887743   0.7228831   0.3123244  )
        84           Fe1 tau(  84) = (   0.6883236   0.5904996   0.4294597  )
        85           Fe2 tau(  85) = (   0.5615383   0.7241508   0.4293434  )
        86           Fe1 tau(  86) = (   0.5630264   0.5915132   0.5576529  )
        87           Fe2 tau(  87) = (   0.6867405   0.7231521   0.5577775  )
        88           Fe1 tau(  88) = (   0.6857902   0.5920076   0.6805737  )
        89           Fe2 tau(  89) = (   0.5637901   0.7227363   0.6805291  )
        90           Fe1 tau(  90) = (   0.5626362   0.8561046   0.3121969  )
        91           Fe2 tau(  91) = (   0.6891343   0.9880418   0.3141519  )
        92           Fe1 tau(  92) = (   0.6872507   0.8551077   0.4321071  )
        93           Fe2 tau(  93) = (   0.5618631   0.9869943   0.4333065  )
        94           Fe1 tau(  94) = (   0.5617368   0.8550051   0.5596739  )
        95           Fe2 tau(  95) = (   0.6864801   0.9862486   0.5634570  )
        96           Fe1 tau(  96) = (   0.6844995   0.8533385   0.6820773  )
        97           Fe2 tau(  97) = (   0.5612864   0.9855678   0.6846505  )
        98           Fe1 tau(  98) = (   0.8145252   0.0648759   0.3171186  )
        99           Fe2 tau(  99) = (   0.9402188   0.1950601   0.3164839  )
       100           Fe1 tau( 100) = (   0.9374832   0.0651983   0.4423127  )
       101           Fe2 tau( 101) = (   0.8144773   0.1972618   0.4355587  )
       102           Fe1 tau( 102) = (   0.8110658   0.0658411   0.5663854  )
       103           Fe2 tau( 103) = (   0.9371201   0.1977054   0.5670544  )
       104           Fe1 tau( 104) = (   0.9352792   0.0655246   0.6857716  )
       105           Fe2 tau( 105) = (   0.8116171   0.1969980   0.6862948  )
       106           Fe1 tau( 106) = (   0.8150804   0.3280317   0.3151113  )
       107           Fe2 tau( 107) = (   0.9421429   0.4596402   0.3151684  )
       108           Fe1 tau( 108) = (   0.9387564   0.3287418   0.4373695  )
       109           Fe2 tau( 109) = (   0.8139475   0.4599326   0.4319884  )
       110           Fe1 tau( 110) = (   0.8116104   0.3277501   0.5631183  )
       111           Fe2 tau( 111) = (   0.9358814   0.4600430   0.5637519  )
       112           Fe1 tau( 112) = (   0.9349587   0.3296020   0.6860215  )
       113           Fe2 tau( 113) = (   0.8102864   0.4611700   0.6833021  )
       114           Fe1 tau( 114) = (   0.8159084   0.5911864   0.3130823  )
       115           Fe2 tau( 115) = (   0.9412610   0.7242602   0.3148148  )
       116           Fe1 tau( 116) = (   0.9393584   0.5917595   0.4337111  )
       117           Fe2 tau( 117) = (   0.8139347   0.7222047   0.4324709  )
       118           Fe1 tau( 118) = (   0.8112426   0.5912370   0.5601288  )
       119           Fe2 tau( 119) = (   0.9356265   0.7227141   0.5643328  )
       120           Fe1 tau( 120) = (   0.9336551   0.5923087   0.6844350  )
       121           Fe2 tau( 121) = (   0.8078635   0.7222525   0.6825759  )
       122           Fe1 tau( 122) = (   0.8143703   0.8548553   0.3146769  )
       123           Fe2 tau( 123) = (   0.9388847   0.9870538   0.3171989  )
       124           Fe1 tau( 124) = (   0.9373427   0.8541441   0.4366752  )
       125           Fe2 tau( 125) = (   0.8125994   0.9853090   0.4370552  )
       126           Fe1 tau( 126) = (   0.8108362   0.8541803   0.5632913  )
       127           Fe2 tau( 127) = (   0.9358746   0.9851837   0.5680012  )
       128           Fe1 tau( 128) = (   0.9341019   0.8520056   0.6853792  )
       129           Fe2 tau( 129) = (   0.8094919   0.9851394   0.6846363  )

     number of k points=     1  Marzari-Vanderbilt smearing, width (Ry)=  0.0400
                       cart. coord. in units 2pi/alat
        k(    1) = (   0.0000000   0.0000000   0.0000000), wk =   1.0000000

     Dense  grid:  1369120 G-vectors     FFT dimensions: ( 180, 180, 180)

     Smooth grid:   734985 G-vectors     FFT dimensions: ( 144, 150, 144)

     Estimated max dynamical RAM per process >     318.56 MB

     Estimated total dynamical RAM >      22.40 GB

     Check: negative core charge=   -0.000004
     Generating pointlists ...
     new r_m :   0.0707 (alat units)  1.8289 (a.u.) for type    1
     new r_m :   0.0709 (alat units)  1.8345 (a.u.) for type    2
     new r_m :   0.0716 (alat units)  1.8505 (a.u.) for type    3

     Initial potential from superposition of free atoms

     starting charge 2063.94336, renormalised to 2064.00000

     negative rho (up, down):  1.761E-04 1.760E-04
     Starting wfcs are 1290 randomized atomic wfcs
     Checking if some PAW data can be deallocated... 

     total cpu time spent up to now is       13.2 secs

     Self-consistent Calculation

     iteration #  1     ecut=    71.00 Ry     beta= 0.30
     Davidson diagonalization with overlap
     ethr =  1.00E-02,  avg # of iterations =  6.5

     negative rho (up, down):  1.088E+00 2.716E+00

     total cpu time spent up to now is       44.5 secs

     total energy              =  -42548.44020162 Ry
     estimated scf accuracy    <     700.38613808 Ry

     total magnetization       =    -2.98 Bohr mag/cell
     absolute magnetization    =   266.92 Bohr mag/cell

     iteration #  2     ecut=    71.00 Ry     beta= 0.30
     Davidson diagonalization with overlap
     ethr =  1.00E-02,  avg # of iterations =  3.5

     negative rho (up, down):  8.601E-01 2.100E+00

     total cpu time spent up to now is       66.8 secs

     total energy              =  -42559.05364582 Ry
     estimated scf accuracy    <     211.05117003 Ry

     total magnetization       =     1.54 Bohr mag/cell
     absolute magnetization    =   175.43 Bohr mag/cell

     iteration #  3     ecut=    71.00 Ry     beta= 0.30
     Davidson diagonalization with overlap
     ethr =  1.00E-02,  avg # of iterations =  1.5

     negative rho (up, down):  7.460E-01 1.824E+00

     total cpu time spent up to now is       86.2 secs

     total energy              =  -42570.04139449 Ry
     estimated scf accuracy    <     238.47757156 Ry

     total magnetization       =     0.60 Bohr mag/cell
     absolute magnetization    =   198.23 Bohr mag/cell

     iteration #  4     ecut=    71.00 Ry     beta= 0.30
     Davidson diagonalization with overlap
     ethr =  1.00E-02,  avg # of iterations =  1.0

     negative rho (up, down):  5.429E-01 1.328E+00

     total cpu time spent up to now is      103.6 secs

     total energy              =  -42571.13481258 Ry
     estimated scf accuracy    <      73.96261961 Ry

     total magnetization       =     0.12 Bohr mag/cell
     absolute magnetization    =   201.15 Bohr mag/cell

     iteration #  5     ecut=    71.00 Ry     beta= 0.30
     Davidson diagonalization with overlap
     ethr =  3.58E-03,  avg # of iterations =  1.0

     negative rho (up, down):  3.346E-01 8.046E-01

     total cpu time spent up to now is      121.7 secs

     total energy              =  -42571.37282544 Ry
     estimated scf accuracy    <      70.46278002 Ry

     total magnetization       =    -1.15 Bohr mag/cell
     absolute magnetization    =   206.19 Bohr mag/cell

     iteration #  6     ecut=    71.00 Ry     beta= 0.30
     Davidson diagonalization with overlap
     ethr =  3.41E-03,  avg # of iterations =  1.0

     negative rho (up, down):  4.603E-02 1.064E-01

     total cpu time spent up to now is      139.3 secs

     total energy              =  -42571.42048031 Ry
     estimated scf accuracy    <      43.36484566 Ry

     total magnetization       =    -1.29 Bohr mag/cell
     absolute magnetization    =   210.16 Bohr mag/cell

     iteration #  7     ecut=    71.00 Ry     beta= 0.30
     Davidson diagonalization with overlap
     ethr =  2.10E-03,  avg # of iterations =  1.5

     negative rho (up, down):  8.581E-03 1.652E-02

     total cpu time spent up to now is      158.5 secs

     total energy              =  -42571.54757955 Ry
     estimated scf accuracy    <      27.25422069 Ry

     total magnetization       =    -0.55 Bohr mag/cell
     absolute magnetization    =   217.67 Bohr mag/cell

     iteration #  8     ecut=    71.00 Ry     beta= 0.30
     Davidson diagonalization with overlap
     ethr =  1.32E-03,  avg # of iterations =  1.5

     negative rho (up, down):  1.009E-01 2.380E-01

     total cpu time spent up to now is      177.8 secs

     total energy              =  -42571.06450492 Ry
     estimated scf accuracy    <      10.62681558 Ry

     total magnetization       =    -1.23 Bohr mag/cell
     absolute magnetization    =   224.67 Bohr mag/cell

     iteration #  9     ecut=    71.00 Ry     beta= 0.30
     Davidson diagonalization with overlap
     ethr =  5.15E-04,  avg # of iterations =  4.5

     negative rho (up, down):  9.973E-02 2.349E-01

     total cpu time spent up to now is      199.4 secs

     total energy              =  -42571.27786728 Ry
     estimated scf accuracy    <       5.51660332 Ry

     total magnetization       =    -0.66 Bohr mag/cell
     absolute magnetization    =   229.55 Bohr mag/cell

     iteration # 10     ecut=    71.00 Ry     beta= 0.30
     Davidson diagonalization with overlap
     ethr =  2.67E-04,  avg # of iterations =  5.0

     negative rho (up, down):  3.386E-02 7.317E-02

     total cpu time spent up to now is      220.9 secs

     total energy              =  -42571.50927615 Ry
     estimated scf accuracy    <       3.60544537 Ry

     total magnetization       =    -0.31 Bohr mag/cell
     absolute magnetization    =   230.08 Bohr mag/cell

     iteration # 11     ecut=    71.00 Ry     beta= 0.30
     Davidson diagonalization with overlap
     ethr =  1.75E-04,  avg # of iterations =  6.0

     negative rho (up, down):  2.760E-03 3.501E-03

     total cpu time spent up to now is      243.1 secs

     total energy              =  -42571.59840693 Ry
     estimated scf accuracy    <       2.12278081 Ry

     total magnetization       =    -0.13 Bohr mag/cell
     absolute magnetization    =   228.62 Bohr mag/cell

     iteration # 12     ecut=    71.00 Ry     beta= 0.30
     Davidson diagonalization with overlap
     c_bands:  4 eigenvalues not converged
     ethr =  1.03E-04,  avg # of iterations = 11.0

     negative rho (up, down):  1.263E-03 1.424E-03

     total cpu time spent up to now is      266.5 secs

     total energy              =  -42571.59342542 Ry
     estimated scf accuracy    <       1.08142927 Ry

     total magnetization       =     0.18 Bohr mag/cell
     absolute magnetization    =   227.39 Bohr mag/cell

     iteration # 13     ecut=    71.00 Ry     beta= 0.30
     Davidson diagonalization with overlap
     c_bands:  1 eigenvalues not converged
     ethr =  5.24E-05,  avg # of iterations = 13.0

     negative rho (up, down):  1.232E-03 1.425E-03

     total cpu time spent up to now is      290.5 secs

     total energy              =  -42571.52647267 Ry
     estimated scf accuracy    <       0.80328320 Ry

     total magnetization       =     0.65 Bohr mag/cell
     absolute magnetization    =   227.37 Bohr mag/cell

     iteration # 14     ecut=    71.00 Ry     beta= 0.30
     Davidson diagonalization with overlap
     ethr =  3.89E-05,  avg # of iterations = 12.0

     negative rho (up, down):  4.281E-03 5.251E-03

     total cpu time spent up to now is      314.4 secs

     total energy              =  -42571.44016951 Ry
     estimated scf accuracy    <       0.63463640 Ry

     total magnetization       =     0.60 Bohr mag/cell
     absolute magnetization    =   228.44 Bohr mag/cell

     iteration # 15     ecut=    71.00 Ry     beta= 0.30
     Davidson diagonalization with overlap
     c_bands:  1 eigenvalues not converged
     c_bands:  3 eigenvalues not converged
     ethr =  3.07E-05,  avg # of iterations = 20.0

     negative rho (up, down):  6.032E-03 6.862E-03

     total cpu time spent up to now is      341.1 secs

     total energy              =  -42571.41522024 Ry
     estimated scf accuracy    <       0.49847586 Ry

     total magnetization       =     0.78 Bohr mag/cell
     absolute magnetization    =   228.96 Bohr mag/cell

     iteration # 16     ecut=    71.00 Ry     beta= 0.30
     Davidson diagonalization with overlap
     ethr =  2.42E-05,  avg # of iterations =  2.0

     negative rho (up, down):  1.189E-03 1.288E-03

     total cpu time spent up to now is      361.9 secs

     total energy              =  -42571.40573639 Ry
     estimated scf accuracy    <       0.43390965 Ry

     total magnetization       =     1.06 Bohr mag/cell
     absolute magnetization    =   229.05 Bohr mag/cell

     iteration # 17     ecut=    71.00 Ry     beta= 0.30
     Davidson diagonalization with overlap
     ethr =  2.10E-05,  avg # of iterations =  1.0

     negative rho (up, down):  4.782E-03 4.618E-03

     total cpu time spent up to now is      379.4 secs

     total energy              =  -42571.37935611 Ry
     estimated scf accuracy    <       0.28483033 Ry

     total magnetization       =     0.98 Bohr mag/cell
     absolute magnetization    =   228.57 Bohr mag/cell

     iteration # 18     ecut=    71.00 Ry     beta= 0.30
     Davidson diagonalization with overlap
     ethr =  1.38E-05,  avg # of iterations =  2.0

     negative rho (up, down):  5.309E-02 5.086E-02

     total cpu time spent up to now is      399.8 secs

     total energy              =  -42571.32694937 Ry
     estimated scf accuracy    <       0.23744656 Ry

     total magnetization       =     0.76 Bohr mag/cell
     absolute magnetization    =   228.71 Bohr mag/cell

     iteration # 19     ecut=    71.00 Ry     beta= 0.30
     Davidson diagonalization with overlap
     ethr =  1.15E-05,  avg # of iterations = 12.5

     negative rho (up, down):  6.865E-03 6.307E-03

     total cpu time spent up to now is      425.2 secs

     total energy              =  -42571.35573379 Ry
     estimated scf accuracy    <       0.19877798 Ry

     total magnetization       =     0.83 Bohr mag/cell
     absolute magnetization    =   228.33 Bohr mag/cell

     iteration # 20     ecut=    71.00 Ry     beta= 0.30
     Davidson diagonalization with overlap
     ethr =  9.63E-06,  avg # of iterations =  2.0

     negative rho (up, down):  9.846E-02 9.729E-02

     total cpu time spent up to now is      446.1 secs

     total energy              =  -42571.35126234 Ry
     estimated scf accuracy    <       0.18242955 Ry

     total magnetization       =     0.91 Bohr mag/cell
     absolute magnetization    =   228.31 Bohr mag/cell

     iteration # 21     ecut=    71.00 Ry     beta= 0.30
     Davidson diagonalization with overlap
     ethr =  8.84E-06,  avg # of iterations = 11.0

     negative rho (up, down):  7.860E-02 7.806E-02

     total cpu time spent up to now is      469.7 secs

     total energy              =  -42571.36026141 Ry
     estimated scf accuracy    <       0.07143641 Ry

     total magnetization       =     0.89 Bohr mag/cell
     absolute magnetization    =   228.37 Bohr mag/cell

     iteration # 22     ecut=    71.00 Ry     beta= 0.30
     Davidson diagonalization with overlap
     ethr =  3.46E-06,  avg # of iterations =  6.0

     negative rho (up, down):  5.350E-02 5.362E-02

     total cpu time spent up to now is      491.6 secs

     total energy              =  -42571.37217928 Ry
     estimated scf accuracy    <       0.04642155 Ry

     total magnetization       =     0.80 Bohr mag/cell
     absolute magnetization    =   228.49 Bohr mag/cell

     iteration # 23     ecut=    71.00 Ry     beta= 0.30
     Davidson diagonalization with overlap
     ethr =  2.25E-06,  avg # of iterations =  3.5

     negative rho (up, down):  3.314E-02 3.373E-02

     total cpu time spent up to now is      512.9 secs

     total energy              =  -42571.38312112 Ry
     estimated scf accuracy    <       0.03515156 Ry

     total magnetization       =     0.86 Bohr mag/cell
     absolute magnetization    =   228.67 Bohr mag/cell

     iteration # 24     ecut=    71.00 Ry     beta= 0.30
     Davidson diagonalization with overlap
     ethr =  1.70E-06,  avg # of iterations =  2.0

     negative rho (up, down):  1.997E-02 2.114E-02

     total cpu time spent up to now is      533.7 secs

     total energy              =  -42571.39510830 Ry
     estimated scf accuracy    <       0.01658934 Ry

     total magnetization       =     0.90 Bohr mag/cell
     absolute magnetization    =   228.82 Bohr mag/cell

     iteration # 25     ecut=    71.00 Ry     beta= 0.30
     Davidson diagonalization with overlap
     ethr =  8.04E-07,  avg # of iterations =  2.0

     negative rho (up, down):  1.645E-02 1.817E-02

     total cpu time spent up to now is      554.4 secs

     total energy              =  -42571.40519515 Ry
     estimated scf accuracy    <       0.00987893 Ry

     total magnetization       =     0.95 Bohr mag/cell
     absolute magnetization    =   229.00 Bohr mag/cell

     iteration # 26     ecut=    71.00 Ry     beta= 0.30
     Davidson diagonalization with overlap
     ethr =  4.79E-07,  avg # of iterations =  2.5

     negative rho (up, down):  1.550E-02 1.745E-02

     total cpu time spent up to now is      576.0 secs

     total energy              =  -42571.40872762 Ry
     estimated scf accuracy    <       0.00622915 Ry

     total magnetization       =     0.98 Bohr mag/cell
     absolute magnetization    =   229.19 Bohr mag/cell

     iteration # 27     ecut=    71.00 Ry     beta= 0.30
     Davidson diagonalization with overlap
     ethr =  3.02E-07,  avg # of iterations =  3.0

     negative rho (up, down):  1.350E-02 1.541E-02

     total cpu time spent up to now is      597.8 secs

     total energy              =  -42571.41041529 Ry
     estimated scf accuracy    <       0.00544241 Ry

     total magnetization       =     1.06 Bohr mag/cell
     absolute magnetization    =   229.32 Bohr mag/cell

     iteration # 28     ecut=    71.00 Ry     beta= 0.30
     Davidson diagonalization with overlap
     ethr =  2.64E-07,  avg # of iterations =  2.0

     negative rho (up, down):  1.213E-02 1.396E-02

     total cpu time spent up to now is      618.3 secs

     total energy              =  -42571.41114683 Ry
     estimated scf accuracy    <       0.00259929 Ry

     total magnetization       =     1.10 Bohr mag/cell
     absolute magnetization    =   229.44 Bohr mag/cell

     iteration # 29     ecut=    71.00 Ry     beta= 0.30
     Davidson diagonalization with overlap
     ethr =  1.26E-07,  avg # of iterations =  2.0

     negative rho (up, down):  1.278E-02 1.471E-02

     total cpu time spent up to now is      639.2 secs

     total energy              =  -42571.41230953 Ry
     estimated scf accuracy    <       0.00157630 Ry

     total magnetization       =     1.10 Bohr mag/cell
     absolute magnetization    =   229.52 Bohr mag/cell

     iteration # 30     ecut=    71.00 Ry     beta= 0.30
     Davidson diagonalization with overlap
     ethr =  7.64E-08,  avg # of iterations =  2.0

     negative rho (up, down):  9.881E-03 1.158E-02

     total cpu time spent up to now is      660.6 secs

     total energy              =  -42571.41255814 Ry
     estimated scf accuracy    <       0.00117754 Ry

     total magnetization       =     1.15 Bohr mag/cell
     absolute magnetization    =   229.66 Bohr mag/cell

     iteration # 31     ecut=    71.00 Ry     beta= 0.30
     Davidson diagonalization with overlap
     ethr =  5.71E-08,  avg # of iterations =  3.0

     negative rho (up, down):  9.530E-03 1.117E-02

     total cpu time spent up to now is      681.8 secs

     total energy              =  -42571.41294636 Ry
     estimated scf accuracy    <       0.00116854 Ry

     total magnetization       =     1.19 Bohr mag/cell
     absolute magnetization    =   229.78 Bohr mag/cell

     iteration # 32     ecut=    71.00 Ry     beta= 0.30
     Davidson diagonalization with overlap
     ethr =  5.66E-08,  avg # of iterations =  2.0

     negative rho (up, down):  9.182E-03 1.050E-02

     total cpu time spent up to now is      702.1 secs

     total energy              =  -42571.41310123 Ry
     estimated scf accuracy    <       0.00084106 Ry

     total magnetization       =     1.22 Bohr mag/cell
     absolute magnetization    =   229.87 Bohr mag/cell

     iteration # 33     ecut=    71.00 Ry     beta= 0.30
     Davidson diagonalization with overlap
     ethr =  4.07E-08,  avg # of iterations =  5.0

     negative rho (up, down):  1.124E-02 1.256E-02

     total cpu time spent up to now is      726.2 secs

     total energy              =  -42571.41330532 Ry
     estimated scf accuracy    <       0.00069110 Ry

     total magnetization       =     1.27 Bohr mag/cell
     absolute magnetization    =   230.03 Bohr mag/cell

     iteration # 34     ecut=    71.00 Ry     beta= 0.30
     Davidson diagonalization with overlap
     ethr =  3.35E-08,  avg # of iterations =  2.0

     negative rho (up, down):  9.909E-03 1.098E-02

     total cpu time spent up to now is      747.0 secs

     total energy              =  -42571.41324801 Ry
     estimated scf accuracy    <       0.00055470 Ry

     total magnetization       =     1.29 Bohr mag/cell
     absolute magnetization    =   230.07 Bohr mag/cell

     iteration # 35     ecut=    71.00 Ry     beta= 0.30
     Davidson diagonalization with overlap
     ethr =  2.69E-08,  avg # of iterations =  2.0

     negative rho (up, down):  1.223E-02 1.316E-02

     total cpu time spent up to now is      767.8 secs

     total energy              =  -42571.41333550 Ry
     estimated scf accuracy    <       0.00044373 Ry

     total magnetization       =     1.31 Bohr mag/cell
     absolute magnetization    =   230.12 Bohr mag/cell

     iteration # 36     ecut=    71.00 Ry     beta= 0.30
     Davidson diagonalization with overlap
     ethr =  2.15E-08,  avg # of iterations =  2.0

     negative rho (up, down):  1.268E-02 1.330E-02

     total cpu time spent up to now is      789.2 secs

     total energy              =  -42571.41332527 Ry
     estimated scf accuracy    <       0.00042740 Ry

     total magnetization       =     1.32 Bohr mag/cell
     absolute magnetization    =   230.19 Bohr mag/cell

     iteration # 37     ecut=    71.00 Ry     beta= 0.30
     Davidson diagonalization with overlap
     ethr =  2.07E-08,  avg # of iterations =  4.0

     negative rho (up, down):  1.092E-02 1.144E-02

     total cpu time spent up to now is      812.4 secs

     total energy              =  -42571.41335743 Ry
     estimated scf accuracy    <       0.00028010 Ry

     total magnetization       =     1.37 Bohr mag/cell
     absolute magnetization    =   230.29 Bohr mag/cell

     iteration # 38     ecut=    71.00 Ry     beta= 0.30
     Davidson diagonalization with overlap
     ethr =  1.36E-08,  avg # of iterations =  2.0

     negative rho (up, down):  1.010E-02 1.054E-02

     total cpu time spent up to now is      833.4 secs

     total energy              =  -42571.41332136 Ry
     estimated scf accuracy    <       0.00020325 Ry

     total magnetization       =     1.38 Bohr mag/cell
     absolute magnetization    =   230.31 Bohr mag/cell

     iteration # 39     ecut=    71.00 Ry     beta= 0.30
     Davidson diagonalization with overlap
     ethr =  9.85E-09,  avg # of iterations =  2.0

     negative rho (up, down):  5.840E-03 6.116E-03

     total cpu time spent up to now is      854.0 secs

     total energy              =  -42571.41318984 Ry
     estimated scf accuracy    <       0.00016413 Ry

     total magnetization       =     1.38 Bohr mag/cell
     absolute magnetization    =   230.33 Bohr mag/cell

     iteration # 40     ecut=    71.00 Ry     beta= 0.30
     Davidson diagonalization with overlap
     ethr =  7.95E-09,  avg # of iterations =  4.5

     negative rho (up, down):  4.227E-03 4.451E-03

     total cpu time spent up to now is      877.3 secs

     total energy              =  -42571.41322291 Ry
     estimated scf accuracy    <       0.00012690 Ry

     total magnetization       =     1.40 Bohr mag/cell
     absolute magnetization    =   230.35 Bohr mag/cell

     iteration # 41     ecut=    71.00 Ry     beta= 0.30
     Davidson diagonalization with overlap
     ethr =  6.15E-09,  avg # of iterations =  2.0

     negative rho (up, down):  3.526E-03 3.729E-03

     total cpu time spent up to now is      898.6 secs

     total energy              =  -42571.41325525 Ry
     estimated scf accuracy    <       0.00005578 Ry

     total magnetization       =     1.40 Bohr mag/cell
     absolute magnetization    =   230.35 Bohr mag/cell

     iteration # 42     ecut=    71.00 Ry     beta= 0.30
     Davidson diagonalization with overlap
     ethr =  2.70E-09,  avg # of iterations =  4.0

     negative rho (up, down):  2.801E-03 2.988E-03

     total cpu time spent up to now is      919.9 secs

     total energy              =  -42571.41329457 Ry
     estimated scf accuracy    <       0.00004052 Ry

     total magnetization       =     1.40 Bohr mag/cell
     absolute magnetization    =   230.35 Bohr mag/cell

     iteration # 43     ecut=    71.00 Ry     beta= 0.30
     Davidson diagonalization with overlap
     ethr =  1.96E-09,  avg # of iterations =  4.0

     negative rho (up, down):  1.993E-03 2.170E-03

     total cpu time spent up to now is      941.9 secs

     total energy              =  -42571.41334823 Ry
     estimated scf accuracy    <       0.00003458 Ry

     total magnetization       =     1.40 Bohr mag/cell
     absolute magnetization    =   230.34 Bohr mag/cell

     iteration # 44     ecut=    71.00 Ry     beta= 0.30
     Davidson diagonalization with overlap
     ethr =  1.68E-09,  avg # of iterations =  4.0

     negative rho (up, down):  1.772E-03 1.944E-03

     total cpu time spent up to now is      965.6 secs

     total energy              =  -42571.41336678 Ry
     estimated scf accuracy    <       0.00002167 Ry

     total magnetization       =     1.39 Bohr mag/cell
     absolute magnetization    =   230.32 Bohr mag/cell

     iteration # 45     ecut=    71.00 Ry     beta= 0.30
     Davidson diagonalization with overlap
     ethr =  1.05E-09,  avg # of iterations =  3.0

     negative rho (up, down):  1.531E-03 1.700E-03

     total cpu time spent up to now is      987.6 secs

     total energy              =  -42571.41337230 Ry
     estimated scf accuracy    <       0.00001242 Ry

     total magnetization       =     1.39 Bohr mag/cell
     absolute magnetization    =   230.30 Bohr mag/cell

     iteration # 46     ecut=    71.00 Ry     beta= 0.30
     Davidson diagonalization with overlap
     ethr =  6.02E-10,  avg # of iterations =  5.0

     negative rho (up, down):  1.504E-03 1.672E-03

     total cpu time spent up to now is     1013.3 secs

     total energy              =  -42571.41337873 Ry
     estimated scf accuracy    <       0.00001036 Ry

     total magnetization       =     1.38 Bohr mag/cell
     absolute magnetization    =   230.28 Bohr mag/cell

     iteration # 47     ecut=    71.00 Ry     beta= 0.30
     Davidson diagonalization with overlap
     ethr =  5.02E-10,  avg # of iterations =  2.0

     negative rho (up, down):  1.582E-03 1.753E-03

     total cpu time spent up to now is     1033.7 secs

     total energy              =  -42571.41338535 Ry
     estimated scf accuracy    <       0.00000730 Ry

     total magnetization       =     1.38 Bohr mag/cell
     absolute magnetization    =   230.27 Bohr mag/cell

     iteration # 48     ecut=    71.00 Ry     beta= 0.30
     Davidson diagonalization with overlap
     ethr =  3.54E-10,  avg # of iterations =  3.0

     negative rho (up, down):  1.662E-03 1.834E-03

     total cpu time spent up to now is     1054.9 secs

     total energy              =  -42571.41339067 Ry
     estimated scf accuracy    <       0.00000515 Ry

     total magnetization       =     1.38 Bohr mag/cell
     absolute magnetization    =   230.27 Bohr mag/cell

     iteration # 49     ecut=    71.00 Ry     beta= 0.30
     Davidson diagonalization with overlap
     ethr =  2.49E-10,  avg # of iterations =  4.0

     negative rho (up, down):  1.664E-03 1.836E-03

     total cpu time spent up to now is     1077.3 secs

     total energy              =  -42571.41339364 Ry
     estimated scf accuracy    <       0.00000405 Ry

     total magnetization       =     1.38 Bohr mag/cell
     absolute magnetization    =   230.27 Bohr mag/cell

     iteration # 50     ecut=    71.00 Ry     beta= 0.30
     Davidson diagonalization with overlap
     ethr =  1.96E-10,  avg # of iterations =  2.0

     negative rho (up, down):  1.762E-03 1.938E-03

     total cpu time spent up to now is     1098.7 secs

     total energy              =  -42571.41339545 Ry
     estimated scf accuracy    <       0.00000304 Ry

     total magnetization       =     1.38 Bohr mag/cell
     absolute magnetization    =   230.26 Bohr mag/cell

     iteration # 51     ecut=    71.00 Ry     beta= 0.30
     Davidson diagonalization with overlap
     ethr =  1.47E-10,  avg # of iterations =  4.0

     negative rho (up, down):  1.791E-03 1.968E-03

     total cpu time spent up to now is     1121.7 secs

     total energy              =  -42571.41339680 Ry
     estimated scf accuracy    <       0.00000224 Ry

     total magnetization       =     1.38 Bohr mag/cell
     absolute magnetization    =   230.26 Bohr mag/cell

     iteration # 52     ecut=    71.00 Ry     beta= 0.30
     Davidson diagonalization with overlap
     ethr =  1.09E-10,  avg # of iterations =  3.5

     negative rho (up, down):  1.779E-03 1.956E-03

     total cpu time spent up to now is     1146.1 secs

     total energy              =  -42571.41339856 Ry
     estimated scf accuracy    <       0.00000167 Ry

     total magnetization       =     1.38 Bohr mag/cell
     absolute magnetization    =   230.25 Bohr mag/cell

     iteration # 53     ecut=    71.00 Ry     beta= 0.30
     Davidson diagonalization with overlap
     ethr =  8.09E-11,  avg # of iterations =  3.5

     negative rho (up, down):  1.785E-03 1.963E-03

     total cpu time spent up to now is     1168.4 secs

     total energy              =  -42571.41339917 Ry
     estimated scf accuracy    <       0.00000117 Ry

     total magnetization       =     1.38 Bohr mag/cell
     absolute magnetization    =   230.25 Bohr mag/cell

     iteration # 54     ecut=    71.00 Ry     beta= 0.30
     Davidson diagonalization with overlap
     ethr =  5.68E-11,  avg # of iterations =  2.5

     negative rho (up, down):  1.784E-03 1.962E-03

     total cpu time spent up to now is     1189.8 secs

     total energy              =  -42571.41339971 Ry
     estimated scf accuracy    <       0.00000103 Ry

     total magnetization       =     1.38 Bohr mag/cell
     absolute magnetization    =   230.24 Bohr mag/cell

     iteration # 55     ecut=    71.00 Ry     beta= 0.30
     Davidson diagonalization with overlap
     ethr =  4.98E-11,  avg # of iterations =  5.0

     negative rho (up, down):  1.770E-03 1.948E-03

     total cpu time spent up to now is     1213.8 secs

     total energy              =  -42571.41340033 Ry
     estimated scf accuracy    <       0.00000062 Ry

     total magnetization       =     1.38 Bohr mag/cell
     absolute magnetization    =   230.24 Bohr mag/cell

     iteration # 56     ecut=    71.00 Ry     beta= 0.30
     Davidson diagonalization with overlap
     ethr =  3.02E-11,  avg # of iterations =  2.0

     negative rho (up, down):  1.749E-03 1.927E-03

     total cpu time spent up to now is     1234.9 secs

     total energy              =  -42571.41340084 Ry
     estimated scf accuracy    <       0.00000062 Ry

     total magnetization       =     1.38 Bohr mag/cell
     absolute magnetization    =   230.24 Bohr mag/cell

     iteration # 57     ecut=    71.00 Ry     beta= 0.30
     Davidson diagonalization with overlap
     ethr =  2.99E-11,  avg # of iterations =  3.0

     negative rho (up, down):  1.726E-03 1.903E-03

     total cpu time spent up to now is     1256.6 secs

     total energy              =  -42571.41340147 Ry
     estimated scf accuracy    <       0.00000046 Ry

     total magnetization       =     1.38 Bohr mag/cell
     absolute magnetization    =   230.24 Bohr mag/cell

     iteration # 58     ecut=    71.00 Ry     beta= 0.30
     Davidson diagonalization with overlap
     ethr =  2.25E-11,  avg # of iterations =  5.0

     negative rho (up, down):  1.706E-03 1.882E-03

     total cpu time spent up to now is     1280.5 secs

     total energy              =  -42571.41340196 Ry
     estimated scf accuracy    <       0.00000043 Ry

     total magnetization       =     1.38 Bohr mag/cell
     absolute magnetization    =   230.24 Bohr mag/cell

     iteration # 59     ecut=    71.00 Ry     beta= 0.30
     Davidson diagonalization with overlap
     ethr =  2.07E-11,  avg # of iterations =  3.0

     negative rho (up, down):  1.670E-03 1.845E-03

     total cpu time spent up to now is     1302.2 secs

     total energy              =  -42571.41340223 Ry
     estimated scf accuracy    <       0.00000031 Ry

     total magnetization       =     1.38 Bohr mag/cell
     absolute magnetization    =   230.24 Bohr mag/cell

     iteration # 60     ecut=    71.00 Ry     beta= 0.30
     Davidson diagonalization with overlap
     ethr =  1.53E-11,  avg # of iterations =  5.0

     negative rho (up, down):  1.668E-03 1.843E-03

     total cpu time spent up to now is     1330.7 secs

     total energy              =  -42571.41340255 Ry
     estimated scf accuracy    <       0.00000027 Ry

     total magnetization       =     1.39 Bohr mag/cell
     absolute magnetization    =   230.23 Bohr mag/cell

     iteration # 61     ecut=    71.00 Ry     beta= 0.30
     Davidson diagonalization with overlap
     ethr =  1.31E-11,  avg # of iterations =  2.0

     negative rho (up, down):  1.647E-03 1.820E-03

     total cpu time spent up to now is     1353.1 secs

     total energy              =  -42571.41340255 Ry
     estimated scf accuracy    <       0.00000026 Ry

     total magnetization       =     1.39 Bohr mag/cell
     absolute magnetization    =   230.23 Bohr mag/cell

     iteration # 62     ecut=    71.00 Ry     beta= 0.30
     Davidson diagonalization with overlap
     ethr =  1.28E-11,  avg # of iterations =  5.0

     negative rho (up, down):  1.628E-03 1.800E-03

     total cpu time spent up to now is     1380.1 secs

     total energy              =  -42571.41340246 Ry
     estimated scf accuracy    <       0.00000018 Ry

     total magnetization       =     1.39 Bohr mag/cell
     absolute magnetization    =   230.23 Bohr mag/cell

     iteration # 63     ecut=    71.00 Ry     beta= 0.30
     Davidson diagonalization with overlap
     ethr =  8.68E-12,  avg # of iterations =  4.5

     negative rho (up, down):  1.623E-03 1.795E-03

     total cpu time spent up to now is     1406.6 secs

     total energy              =  -42571.41340255 Ry
     estimated scf accuracy    <       0.00000013 Ry

     total magnetization       =     1.39 Bohr mag/cell
     absolute magnetization    =   230.23 Bohr mag/cell

     iteration # 64     ecut=    71.00 Ry     beta= 0.30
     Davidson diagonalization with overlap
     ethr =  6.12E-12,  avg # of iterations =  5.0

     negative rho (up, down):  1.625E-03 1.797E-03

     total cpu time spent up to now is     1433.2 secs

     total energy              =  -42571.41340267 Ry
     estimated scf accuracy    <       0.00000013 Ry

     total magnetization       =     1.39 Bohr mag/cell
     absolute magnetization    =   230.23 Bohr mag/cell

     iteration # 65     ecut=    71.00 Ry     beta= 0.30
     Davidson diagonalization with overlap
     ethr =  6.12E-12,  avg # of iterations =  2.5

     negative rho (up, down):  1.632E-03 1.804E-03

     total cpu time spent up to now is     1456.1 secs

     total energy              =  -42571.41340285 Ry
     estimated scf accuracy    <       0.00000009 Ry

     total magnetization       =     1.39 Bohr mag/cell
     absolute magnetization    =   230.23 Bohr mag/cell

     iteration # 66     ecut=    71.00 Ry     beta= 0.30
     Davidson diagonalization with overlap
     ethr =  4.53E-12,  avg # of iterations =  4.5

     negative rho (up, down):  1.633E-03 1.805E-03

     total cpu time spent up to now is     1481.0 secs

     total energy              =  -42571.41340293 Ry
     estimated scf accuracy    <       0.00000008 Ry

     total magnetization       =     1.39 Bohr mag/cell
     absolute magnetization    =   230.23 Bohr mag/cell

     iteration # 67     ecut=    71.00 Ry     beta= 0.30
     Davidson diagonalization with overlap
     ethr =  3.83E-12,  avg # of iterations =  3.5

     negative rho (up, down):  1.645E-03 1.818E-03

     total cpu time spent up to now is     1504.0 secs

     total energy              =  -42571.41340314 Ry
     estimated scf accuracy    <       0.00000008 Ry

     total magnetization       =     1.39 Bohr mag/cell
     absolute magnetization    =   230.23 Bohr mag/cell

     iteration # 68     ecut=    71.00 Ry     beta= 0.30
     Davidson diagonalization with overlap
     ethr =  3.70E-12,  avg # of iterations =  4.5

     negative rho (up, down):  1.656E-03 1.829E-03

     total cpu time spent up to now is     1527.4 secs

     total energy              =  -42571.41340327 Ry
     estimated scf accuracy    <       0.00000007 Ry

     total magnetization       =     1.40 Bohr mag/cell
     absolute magnetization    =   230.24 Bohr mag/cell

     iteration # 69     ecut=    71.00 Ry     beta= 0.30
     Davidson diagonalization with overlap
     ethr =  3.15E-12,  avg # of iterations =  9.5

     negative rho (up, down):  1.682E-03 1.855E-03

     total cpu time spent up to now is     1563.9 secs

     total energy              =  -42571.41340347 Ry
     estimated scf accuracy    <       0.00000006 Ry

     total magnetization       =     1.40 Bohr mag/cell
     absolute magnetization    =   230.23 Bohr mag/cell

     iteration # 70     ecut=    71.00 Ry     beta= 0.30
     Davidson diagonalization with overlap
     ethr =  3.10E-12,  avg # of iterations =  5.0

     negative rho (up, down):  1.686E-03 1.860E-03

     total cpu time spent up to now is     1597.1 secs

     total energy              =  -42571.41340370 Ry
     estimated scf accuracy    <       0.00000004 Ry

     total magnetization       =     1.40 Bohr mag/cell
     absolute magnetization    =   230.23 Bohr mag/cell

     iteration # 71     ecut=    71.00 Ry     beta= 0.30
     Davidson diagonalization with overlap
     ethr =  1.87E-12,  avg # of iterations =  5.0

     negative rho (up, down):  1.693E-03 1.867E-03

     total cpu time spent up to now is     1625.3 secs

     total energy              =  -42571.41340372 Ry
     estimated scf accuracy    <       0.00000003 Ry

     total magnetization       =     1.40 Bohr mag/cell
     absolute magnetization    =   230.23 Bohr mag/cell

     iteration # 72     ecut=    71.00 Ry     beta= 0.30
     Davidson diagonalization with overlap
     ethr =  1.44E-12,  avg # of iterations =  5.0

     negative rho (up, down):  1.694E-03 1.868E-03

     total cpu time spent up to now is     1657.7 secs

     total energy              =  -42571.41340379 Ry
     estimated scf accuracy    <       0.00000002 Ry

     total magnetization       =     1.40 Bohr mag/cell
     absolute magnetization    =   230.23 Bohr mag/cell

     iteration # 73     ecut=    71.00 Ry     beta= 0.30
     Davidson diagonalization with overlap
     ethr =  1.14E-12,  avg # of iterations =  5.0

     negative rho (up, down):  1.697E-03 1.871E-03

     total cpu time spent up to now is     1685.0 secs

     total energy              =  -42571.41340382 Ry
     estimated scf accuracy    <       0.00000002 Ry

     total magnetization       =     1.40 Bohr mag/cell
     absolute magnetization    =   230.23 Bohr mag/cell

     iteration # 74     ecut=    71.00 Ry     beta= 0.30
     Davidson diagonalization with overlap
     ethr =  1.02E-12,  avg # of iterations =  2.5

     negative rho (up, down):  1.697E-03 1.871E-03

     total cpu time spent up to now is     1708.2 secs

     total energy              =  -42571.41340382 Ry
     estimated scf accuracy    <       0.00000002 Ry

     total magnetization       =     1.40 Bohr mag/cell
     absolute magnetization    =   230.23 Bohr mag/cell

     iteration # 75     ecut=    71.00 Ry     beta= 0.30
     Davidson diagonalization with overlap
     ethr =  8.03E-13,  avg # of iterations =  5.0

     negative rho (up, down):  1.697E-03 1.871E-03

     total cpu time spent up to now is     1741.1 secs

     total energy              =  -42571.41340385 Ry
     estimated scf accuracy    <       0.00000002 Ry

     total magnetization       =     1.40 Bohr mag/cell
     absolute magnetization    =   230.23 Bohr mag/cell

     iteration # 76     ecut=    71.00 Ry     beta= 0.30
     Davidson diagonalization with overlap
     ethr =  8.03E-13,  avg # of iterations =  4.5

     negative rho (up, down):  1.696E-03 1.870E-03

     total cpu time spent up to now is     1767.1 secs

     total energy              =  -42571.41340387 Ry
     estimated scf accuracy    <       0.00000001 Ry

     total magnetization       =     1.40 Bohr mag/cell
     absolute magnetization    =   230.23 Bohr mag/cell

     iteration # 77     ecut=    71.00 Ry     beta= 0.30
     Davidson diagonalization with overlap
     ethr =  4.96E-13,  avg # of iterations =  3.0

     negative rho (up, down):  1.693E-03 1.867E-03
 
     Magnetic moment per site:
     atom:    1    charge:   13.0314    magn:    1.1700    constr:    0.0000
     atom:    2    charge:   14.1798    magn:    1.6004    constr:    0.0000
     atom:    3    charge:   14.1831    magn:   -1.3964    constr:    0.0000
     atom:    4    charge:   14.2028    magn:    1.4350    constr:    0.0000
     atom:    5    charge:   14.2292    magn:   -1.4459    constr:    0.0000
     atom:    6    charge:   14.2305    magn:    0.9274    constr:    0.0000
     atom:    7    charge:   14.2511    magn:   -0.8420    constr:    0.0000
     atom:    8    charge:   14.1000    magn:    2.3099    constr:    0.0000
     atom:    9    charge:   14.1156    magn:   -2.3186    constr:    0.0000
     atom:   10    charge:   14.1058    magn:    2.2505    constr:    0.0000
     atom:   11    charge:   14.1394    magn:   -2.1530    constr:    0.0000
     atom:   12    charge:   14.2252    magn:    1.1583    constr:    0.0000
     atom:   13    charge:   14.2376    magn:   -1.2487    constr:    0.0000
     atom:   14    charge:   14.2248    magn:    0.9648    constr:    0.0000
     atom:   15    charge:   14.2423    magn:   -0.9016    constr:    0.0000
     atom:   16    charge:   14.0987    magn:    2.3153    constr:    0.0000
     atom:   17    charge:   14.1157    magn:   -2.3041    constr:    0.0000
     atom:   18    charge:   14.1108    magn:    2.2176    constr:    0.0000
     atom:   19    charge:   14.1293    magn:   -2.2098    constr:    0.0000
     atom:   20    charge:   14.2183    magn:    1.2053    constr:    0.0000
     atom:   21    charge:   14.2375    magn:   -1.1991    constr:    0.0000
     atom:   22    charge:   14.2170    magn:    1.0393    constr:    0.0000
     atom:   23    charge:   14.2350    magn:   -1.0568    constr:    0.0000
     atom:   24    charge:   14.1025    magn:    2.2815    constr:    0.0000
     atom:   25    charge:   14.1184    magn:   -2.2879    constr:    0.0000
     atom:   26    charge:   14.1208    magn:    2.1594    constr:    0.0000
     atom:   27    charge:   14.0999    magn:   -2.2614    constr:    0.0000
     atom:   28    charge:   14.2154    magn:    1.2515    constr:    0.0000
     atom:   29    charge:   14.2360    magn:   -1.3035    constr:    0.0000
     atom:   30    charge:   14.2216    magn:    0.9417    constr:    0.0000
     atom:   31    charge:   14.2440    magn:   -0.9496    constr:    0.0000
     atom:   32    charge:   14.0999    magn:    2.2946    constr:    0.0000
     atom:   33    charge:   14.1146    magn:   -2.3231    constr:    0.0000
     atom:   34    charge:   14.0748    magn:    2.3407    constr:    0.0000
     atom:   35    charge:   14.1338    magn:   -2.2208    constr:    0.0000
     atom:   36    charge:   14.2185    magn:    0.8492    constr:    0.0000
     atom:   37    charge:   14.2344    magn:   -1.3675    constr:    0.0000
     atom:   38    charge:   14.2272    magn:    1.0809    constr:    0.0000
     atom:   39    charge:   14.2468    magn:   -1.1090    constr:    0.0000
     atom:   40    charge:   14.1094    magn:    2.2233    constr:    0.0000
     atom:   41    charge:   14.1282    magn:   -2.2632    constr:    0.0000
     atom:   42    charge:   14.1093    magn:    2.2435    constr:    0.0000
     atom:   43    charge:   14.1236    magn:   -2.2634    constr:    0.0000
     atom:   44    charge:   14.2226    magn:    1.0591    constr:    0.0000
     atom:   45    charge:   14.2406    magn:   -1.1998    constr:    0.0000
     atom:   46    charge:   14.2277    magn:    1.0032    constr:    0.0000
     atom:   47    charge:   14.2423    magn:   -1.0828    constr:    0.0000
     atom:   48    charge:   14.1132    magn:    2.2273    constr:    0.0000
     atom:   49    charge:   14.1239    magn:   -2.2706    constr:    0.0000
     atom:   50    charge:   14.1102    magn:    2.2414    constr:    0.0000
     atom:   51    charge:   14.1212    magn:   -2.2928    constr:    0.0000
     atom:   52    charge:   14.2248    magn:    0.9728    constr:    0.0000
     atom:   53    charge:   14.2402    magn:   -1.0469    constr:    0.0000
     atom:   54    charge:   14.2195    magn:    1.0827    constr:    0.0000
     atom:   55    charge:   14.2357    magn:   -1.1981    constr:    0.0000
     atom:   56    charge:   14.1146    magn:    2.1968    constr:    0.0000
     atom:   57    charge:   14.1232    magn:   -2.2491    constr:    0.0000
     atom:   58    charge:   14.1058    magn:    2.2660    constr:    0.0000
     atom:   59    charge:   14.1180    magn:   -2.2949    constr:    0.0000
     atom:   60    charge:   14.2224    magn:    0.9367    constr:    0.0000
     atom:   61    charge:   14.2279    magn:   -1.2252    constr:    0.0000
     atom:   62    charge:   14.2150    magn:    1.1946    constr:    0.0000
     atom:   63    charge:   14.2340    magn:   -1.2065    constr:    0.0000
     atom:   64    charge:   14.1121    magn:    2.1953    constr:    0.0000
     atom:   65    charge:   14.1194    magn:   -2.2724    constr:    0.0000
     atom:   66    charge:   14.1008    magn:    2.2993    constr:    0.0000
     atom:   67    charge:   14.1178    magn:   -2.2886    constr:    0.0000
     atom:   68    charge:   14.2192    magn:    1.0682    constr:    0.0000
     atom:   69    charge:   14.2374    magn:   -1.1019    constr:    0.0000
     atom:   70    charge:   14.2154    magn:    1.1871    constr:    0.0000
     atom:   71    charge:   14.2379    magn:   -1.1188    constr:    0.0000
     atom:   72    charge:   14.1144    magn:    2.2022    constr:    0.0000
     atom:   73    charge:   14.1290    magn:   -2.2251    constr:    0.0000
     atom:   74    charge:   14.1042    magn:    2.2717    constr:    0.0000
     atom:   75    charge:   14.1153    magn:   -2.3154    constr:    0.0000
     atom:   76    charge:   14.2166    magn:    1.0687    constr:    0.0000
     atom:   77    charge:   14.2408    magn:   -1.0632    constr:    0.0000
     atom:   78    charge:   14.2203    magn:    1.1619    constr:    0.0000
     atom:   79    charge:   14.2352    magn:   -1.2515    constr:    0.0000
     atom:   80    charge:   14.1069    magn:    2.2297    constr:    0.0000
     atom:   81    charge:   14.1321    magn:   -2.1925    constr:    0.0000
     atom:   82    charge:   14.1018    magn:    2.3061    constr:    0.0000
     atom:   83    charge:   14.1187    magn:   -2.3046    constr:    0.0000
     atom:   84    charge:   14.2269    magn:    0.8995    constr:    0.0000
     atom:   85    charge:   14.2453    magn:   -0.9163    constr:    0.0000
     atom:   86    charge:   14.2158    magn:    1.2966    constr:    0.0000
     atom:   87    charge:   14.2355    magn:   -1.2814    constr:    0.0000
     atom:   88    charge:   14.1213    magn:    2.1426    constr:    0.0000
     atom:   89    charge:   14.1381    magn:   -2.1461    constr:    0.0000
     atom:   90    charge:   14.0976    magn:    2.3209    constr:    0.0000
     atom:   91    charge:   14.1217    magn:   -2.2677    constr:    0.0000
     atom:   92    charge:   14.2215    magn:    1.0630    constr:    0.0000
     atom:   93    charge:   14.2351    magn:   -1.0779    constr:    0.0000
     atom:   94    charge:   14.2157    magn:    1.2571    constr:    0.0000
     atom:   95    charge:   14.2399    magn:   -1.1328    constr:    0.0000
     atom:   96    charge:   14.1159    magn:    2.1863    constr:    0.0000
     atom:   97    charge:   14.1230    magn:   -2.2333    constr:    0.0000
     atom:   98    charge:   14.1135    magn:    2.2385    constr:    0.0000
     atom:   99    charge:   14.1173    magn:   -2.2731    constr:    0.0000
     atom:  100    charge:   14.2248    magn:    1.2410    constr:    0.0000
     atom:  101    charge:   14.2403    magn:   -1.0108    constr:    0.0000
     atom:  102    charge:   14.2270    magn:    1.1573    constr:    0.0000
     atom:  103    charge:   14.2482    magn:   -1.0314    constr:    0.0000
     atom:  104    charge:   14.1125    magn:    2.2520    constr:    0.0000
     atom:  105    charge:   14.1246    magn:   -2.2444    constr:    0.0000
     atom:  106    charge:   14.1028    magn:    2.2819    constr:    0.0000
     atom:  107    charge:   14.1262    magn:   -2.2454    constr:    0.0000
     atom:  108    charge:   14.2192    magn:    1.1231    constr:    0.0000
     atom:  109    charge:   14.2416    magn:   -0.9714    constr:    0.0000
     atom:  110    charge:   14.2173    magn:    1.1967    constr:    0.0000
     atom:  111    charge:   14.2357    magn:   -1.1658    constr:    0.0000
     atom:  112    charge:   14.1033    magn:    2.2660    constr:    0.0000
     atom:  113    charge:   14.1277    magn:   -2.2089    constr:    0.0000
     atom:  114    charge:   14.1041    magn:    2.2917    constr:    0.0000
     atom:  115    charge:   14.1282    magn:   -2.2334    constr:    0.0000
     atom:  116    charge:   14.2210    magn:    1.0577    constr:    0.0000
     atom:  117    charge:   14.2430    magn:   -1.0017    constr:    0.0000
     atom:  118    charge:   14.2168    magn:    1.1965    constr:    0.0000
     atom:  119    charge:   14.2392    magn:   -1.0561    constr:    0.0000
     atom:  120    charge:   14.1066    magn:    2.2480    constr:    0.0000
     atom:  121    charge:   14.1308    magn:   -2.2051    constr:    0.0000
     atom:  122    charge:   14.1063    magn:    2.2628    constr:    0.0000
     atom:  123    charge:   14.1272    magn:   -2.2398    constr:    0.0000
     atom:  124    charge:   14.2216    magn:    1.1696    constr:    0.0000
     atom:  125    charge:   14.2404    magn:   -1.0926    constr:    0.0000
     atom:  126    charge:   14.2230    magn:    1.0899    constr:    0.0000
     atom:  127    charge:   14.2470    magn:   -0.9735    constr:    0.0000
     atom:  128    charge:   14.1079    magn:    2.2633    constr:    0.0000
     atom:  129    charge:   14.1286    magn:   -2.2412    constr:    0.0000

     total cpu time spent up to now is     1788.5 secs

     End of self-consistent calculation

 ------ SPIN UP ------------


          k = 0.0000 0.0000 0.0000 ( 91909 PWs)   bands (ev):

   -80.3327 -80.2869 -80.2827 -80.2806 -80.2789 -80.2763 -80.2686 -80.2680
   -80.2641 -80.2600 -80.2568 -80.2523 -80.2500 -80.2498 -80.2465 -80.2457
   -80.2401 -80.2390 -80.2327 -80.2311 -80.2286 -80.2142 -80.2137 -80.2132
   -80.2058 -80.1929 -80.1901 -80.1871 -80.1865 -80.1793 -80.1534 -79.8459
   -79.7865 -79.6791 -79.6486 -79.6427 -79.6213 -79.6167 -79.6108 -79.6075
   -79.6028 -79.6013 -79.5961 -79.5904 -79.5862 -79.5835 -79.5569 -79.5377
   -79.5319 -79.5308 -79.5220 -79.5183 -79.5168 -79.5141 -79.5102 -79.4937
   -79.4781 -79.4565 -79.4510 -79.4321 -79.4317 -79.4281 -79.4076 -79.3737
   -78.4035 -78.3726 -78.3673 -78.3476 -78.3412 -78.3399 -78.3295 -78.3287
   -78.3097 -78.3055 -78.2969 -78.2966 -78.2900 -78.2900 -78.2877 -78.2842
   -78.2798 -78.2682 -78.2605 -78.2544 -78.2431 -78.2319 -78.2284 -78.2264
   -78.2259 -78.2064 -78.2060 -78.1998 -78.1904 -78.1888 -78.1874 -78.1558
   -78.1367 -77.6926 -77.6900 -77.6825 -77.6733 -77.6732 -77.6677 -77.6672
   -77.6631 -77.6607 -77.6605 -77.6574 -77.6554 -77.6551 -77.6526 -77.6521
   -77.6510 -77.6501 -77.6471 -77.6437 -77.6420 -77.6405 -77.6360 -77.6345
   -77.6328 -77.6314 -77.6294 -77.6291 -77.6288 -77.6259 -77.6202 -77.6195
   -64.2720 -46.4453 -46.4403 -46.4390 -46.4371 -46.4360 -46.4286 -46.4264
   -46.4217 -46.4208 -46.4171 -46.4146 -46.4142 -46.4073 -46.4043 -46.4038
   -46.4019 -46.4011 -46.3991 -46.3977 -46.3900 -46.3884 -46.3866 -46.3769
   -46.3727 -46.3688 -46.3622 -46.3498 -46.3485 -46.3478 -46.3463 -46.3456
   -46.3443 -46.3430 -46.3416 -46.3411 -46.3387 -46.3370 -46.3361 -46.3278
   -46.3264 -46.3220 -46.3205 -46.3203 -46.3142 -46.3142 -46.3130 -46.3085
   -46.3068 -46.3041 -46.3023 -46.2990 -46.2976 -46.2926 -46.2784 -46.2771
   -46.2739 -46.2689 -46.2613 -46.2581 -46.2565 -46.2562 -46.2550 -46.2540
   -46.2514 -46.2512 -46.2500 -46.2461 -46.2427 -46.2373 -46.2347 -46.2297
   -46.2253 -46.2238 -46.2231 -46.2217 -46.2206 -46.2187 -46.2175 -46.2174
   -46.2119 -46.2075 -46.2051 -46.2048 -46.1964 -46.1929 -46.1889 -46.1873
   -46.1757 -46.1724 -46.1666 -46.1644 -46.1576 -46.1397 -46.0026 -45.9415
   -45.9219 -45.8643 -45.8379 -45.7677 -45.7652 -45.7567 -45.7512 -45.7454
   -45.7316 -45.7284 -45.7259 -45.7215 -45.7186 -45.7158 -45.7113 -45.7110
   -45.7105 -45.7099 -45.7079 -45.7056 -45.7024 -45.7003 -45.6976 -45.6967
   -45.6908 -45.6867 -45.6835 -45.6803 -45.6780 -45.6772 -45.6750 -45.6741
   -45.6739 -45.6713 -45.6696 -45.6663 -45.6623 -45.6549 -45.6530 -45.6524
   -45.6487 -45.6473 -45.6419 -45.6407 -45.6378 -45.6343 -45.6294 -45.6233
   -45.6013 -45.5963 -45.5953 -45.5868 -45.5851 -45.5779 -45.5762 -45.5736
   -45.5692 -45.5637 -45.5619 -45.5614 -45.5573 -45.5536 -45.5520 -45.5455
   -45.5441 -45.5403 -45.5329 -45.5322 -45.5288 -45.5151 -45.5130 -45.5100
   -45.5087 -45.5069 -45.5055 -45.5043 -45.5038 -45.5029 -45.5015 -45.5013
   -45.4942 -45.4869 -45.4844 -45.4842 -45.4800 -45.4761 -45.4696 -45.4585
   -45.4569 -45.4563 -45.4510 -45.4447 -45.4417 -45.4403 -45.4231 -45.4207
   -45.3897 -44.5318 -44.5120 -44.4928 -44.4906 -44.4890 -44.4865 -44.4800
   -44.4764 -44.4708 -44.4694 -44.4689 -44.4665 -44.4657 -44.4593 -44.4584
   -44.4576 -44.4570 -44.4541 -44.4533 -44.4480 -44.4451 -44.4438 -44.4412
   -44.4403 -44.4399 -44.4388 -44.4362 -44.4353 -44.4336 -44.4317 -44.4295
   -44.4267 -44.4254 -44.4251 -44.4248 -44.4187 -44.4127 -44.4108 -44.4094
   -44.4085 -44.4054 -44.4037 -44.4021 -44.3992 -44.3968 -44.3948 -44.3933
   -44.3925 -44.3841 -44.3766 -44.3743 -44.3721 -44.3704 -44.3511 -44.3462
   -44.3408 -44.3373 -44.3327 -44.3219 -44.3167 -44.3153 -44.3145 -44.3139
   -44.3125 -44.3102 -44.3095 -44.3037 -44.3019 -44.2991 -44.2936 -44.2906
   -44.2902 -44.2898 -44.2866 -44.2863 -44.2818 -44.2806 -44.2758 -44.2728
   -44.2710 -44.2684 -44.2677 -44.2647 -44.2641 -44.2635 -44.2615 -44.2588
   -44.2571 -44.2457 -44.2447 -44.2436 -44.2422 -44.2421 -44.2399 -44.2325
   -44.2286 -44.2042 -44.1294 -44.0939 -43.8714 -43.8678 -43.8476 -43.8446
   -43.8438 -43.8372 -43.8348 -43.8342 -43.8297 -43.8297 -43.8265 -43.8244
   -43.8238 -43.8187 -43.8168 -43.8161 -43.8158 -43.8138 -43.8094 -43.8059
   -43.8056 -43.7990 -43.7974 -43.7971 -43.7919 -43.7910 -43.7906 -43.7902
   -43.7830 -43.7800 -43.7789 -43.7780 -43.7722 -43.7659 -43.7628 -43.7596
   -43.7590 -43.7572 -43.7498 -43.7490 -43.7460 -43.7456 -43.7442 -43.7427
   -43.7411 -43.7404 -43.7372 -43.7363 -43.7362 -43.7342 -43.7316 -43.7301
   -43.7288 -43.7261 -43.7230 -43.7215 -43.7209 -43.7200 -43.7179 -43.7167
   -43.7165 -43.7101 -43.7083 -43.7030 -43.7001 -43.6913 -43.6896 -43.6862
   -43.6853 -43.6852 -43.6824 -43.6819 -43.6815 -43.6807 -43.6796 -43.6787
   -43.6774 -43.6753 -43.6751 -43.6745 -43.6719 -43.6710 -43.6690 -43.6674
   -43.6656 -43.6645 -43.6642 -43.6620 -43.6608 -43.6604 -43.6597 -43.6589
   -43.6557 -34.4718 -34.3081 -34.1956  -0.1895   0.5784   0.5834   0.6599
     0.6619   1.3393   1.3412   1.3443   1.3460   1.4781   2.1666   2.1834
     2.2461   2.2560   2.3907   2.5781   2.6986   2.6999   2.7186   2.7316
     2.7361   2.7396   2.9259   2.9300   2.9915   2.9943   3.0674   3.0678
     3.0705   3.0713   3.1053   3.1158   3.3463   3.3498   3.4551   3.4724
     3.4964   3.5236   3.5324   3.5376   3.5438   3.5471   3.5552   3.5913
     3.5956   3.6548   3.6856   3.6884   3.6917   3.6951   3.7040   3.7094
     3.7303   3.7398   3.7471   3.7548   3.7683   3.7755   3.8114   3.8188
     3.8288   3.8329   3.8723   3.8842   3.8918   3.8977   3.9215   3.9255
     3.9314   3.9973   4.0083   4.0097   4.0152   4.0205   4.0214   4.0245
     4.0251   4.0363   4.0545   4.0806   4.0840   4.0992   4.1263   4.2002
     4.2293   4.2396   4.2566   4.2707   4.2715   4.2770   4.2881   4.2897
     4.2913   4.2933   4.2971   4.3073   4.3441   4.3505   4.3596   4.3633
     4.3739   4.3786   4.3818   4.3854   4.3929   4.3975   4.4010   4.4044
     4.4057   4.4094   4.4200   4.4295   4.4354   4.4386   4.4426   4.4483
     4.4561   4.4583   4.4621   4.4673   4.4729   4.4752   4.4814   4.4834
     4.4879   4.4904   4.4938   4.5164   4.5229   4.5378   4.5453   4.5759
     4.5926   4.5964   4.6001   4.6024   4.6134   4.6310   4.6376   4.6401
     4.6431   4.6479   4.6858   4.6927   4.7253   4.7330   4.7367   4.7506
     4.7833   4.7845   4.7892   4.7926   4.7998   4.8017   4.8092   4.8143
     4.8189   4.8234   4.8285   4.8329   4.8409   4.8445   4.8579   4.8667
     4.8728   4.8766   4.8792   4.8900   4.8940   4.9041   4.9116   4.9185
     4.9221   4.9254   4.9288   4.9346   4.9377   4.9518   4.9557   4.9609
     5.0096   5.0140   5.0191   5.0249   5.0278   5.0316   5.0444   5.0539
     5.0598   5.0763   5.0793   5.1376   5.1538   5.1844   5.1882   5.1929
     5.2001   5.2280   5.2289   5.2333   5.2754   5.2767   5.3037   5.3209
     5.3775   5.3989   5.4057   5.4096   5.4188   5.4414   5.4489   5.4557
     5.4607   5.4663   5.4754   5.4782   5.4936   5.4978   5.5098   5.5192
     5.5272   5.5604   5.5636   5.5744   5.5801   5.5930   5.5972   5.6065
     5.6157   5.6350   5.6363   5.6410   5.6469   5.6661   5.6723   5.6838
     5.6903   5.6931   5.7005   5.7045   5.7071   5.7142   5.7187   5.7192
     5.7249   5.7263   5.7311   5.7351   5.7385   5.7396   5.7448   5.7501
     5.7509   5.7555   5.7847   5.7911   5.8214   5.8581   5.8625   5.8661
     5.8769   5.8799   5.8910   5.8963   5.9061   5.9093   5.9200   5.9262
     5.9337   5.9403   5.9409   5.9469   5.9629   5.9834   6.0029   6.0048
     6.0140   6.0187   6.0435   6.0659   6.0852   6.0948   6.1194   6.1577
     6.1734   6.2066   6.2187   6.2263   6.2365   6.2453   6.2549   6.2611
     6.2713   6.2748   6.2792   6.2843   6.2908   6.2965   6.2992   6.3037
     6.3053   6.3067   6.3094   6.3124   6.3153   6.3156   6.3212   6.3253
     6.3255   6.3290   6.3322   6.3415   6.3446   6.3471   6.3538   6.3876
     6.4003   6.4051   6.4177   6.4339   6.4357   6.4617   6.4915   6.5157
     6.5214   6.5281   6.5349   6.5395   6.5418   6.5491   6.5538   6.5573
     6.5600   6.5636   6.5675   6.5703   6.5748   6.5781   6.5835   6.5846
     6.5895   6.6044   6.6119   6.6135   6.6188   6.6209   6.6217   6.6249
     6.6291   6.6331   6.6375   6.6424   6.6460   6.6542   6.6550   6.6593
     6.6687   6.6725   6.6784   6.6817   6.6946   6.7038   6.7213   6.7336
     6.7410   6.7462   6.7504   6.7574   6.7650   6.7669   6.7772   6.7881
     6.7984   6.8015   6.8052   6.8209   6.8249   6.8267   6.8315   6.8415
     6.8436   6.8565   6.8603   6.8664   6.8749   6.8811   6.8904   6.8967
     6.8989   6.9023   6.9050   6.9158   6.9192   6.9258   6.9368   6.9547
     6.9635   6.9787   6.9820   6.9919   6.9952   7.0017   7.0030   7.0070
     7.0203   7.0260   7.0297   7.0440   7.0493   7.0599   7.0666   7.0819
     7.0862   7.0933   7.1070   7.1247   7.1353   7.1443   7.1708   7.1791
     7.1818   7.1916   7.1987   7.2073   7.2149   7.2225   7.2300   7.2357
     7.2443   7.2623   7.2687   7.2729   7.2771   7.2840   7.2894   7.2929
     7.3072   7.3249   7.3411   7.3500   7.3787   7.3934   7.4026   7.4387
     7.4470   7.4905   7.5143   7.5236   7.5266   7.5300   7.5382   7.5506
     7.5557   7.5583   7.5642   7.5711   7.5810   7.5871   7.5922   7.5935
     7.6045   7.6090   7.6219   7.6310   7.6504   7.6569   7.6669   7.6699
     7.6809   7.6873   7.7387   7.7416   7.7467   7.7546   7.7759   7.7833
     7.7874   7.7931   7.7991   7.8089   7.8176   7.8239   7.8430   7.8484
     7.8545   7.8697   7.9034   7.9179   7.9296   7.9367   7.9557   7.9625
     7.9681   7.9826   7.9844   7.9871   7.9940   8.0015   8.0052   8.0162
     8.0308   8.0357   8.0554   8.0636   8.0707   8.0833   8.0847   8.0952
     8.0955   8.1081   8.1405   8.1463   8.1552   8.1604   8.1659   8.1826
     8.1840   8.1934   8.2031   8.2039   8.2149   8.2232   8.2275   8.2348
     8.2540   8.2876   8.3008   8.3060   8.3092   8.3155   8.3269   8.3337
     8.3567   8.3671   8.3821   8.3984   8.4145   8.4458   8.4559   8.4570
     8.4663   8.4773   8.4877   8.4942   8.5075   8.5222   8.5280   8.5430
     8.5614   8.6041   8.6161   8.6307   8.6637   8.6881   8.6967   8.7055
     8.7081   8.7127   8.7212   8.7273   8.7641   8.7721   8.7849   8.7934
     8.7968   8.7986   8.7997   8.8017   8.8039   8.8077   8.8078   8.8142
     8.8182   8.8220   8.8271   8.8276   8.8294   8.8359   8.8393   8.8417
     8.8435   8.8451   8.8459   8.8484   8.8521   8.8548   8.8567   8.8607
     8.8657   8.8668   8.8695   8.8735   8.8795   8.8821   8.8844   8.8845
     8.8896   8.8941   8.9023   8.9178   8.9190   8.9256   8.9307   8.9359
     8.9436   8.9477   8.9496   8.9563   8.9750   8.9878   8.9929   8.9941
     8.9947   9.0004   9.0040   9.0069   9.0179   9.0284   9.0331   9.0354
     9.0431   9.0662   9.0709   9.0744   9.0772   9.0801   9.0853   9.0887
     9.0909   9.0922   9.0935   9.0967   9.1027   9.1355   9.1466   9.1666
     9.1735   9.1793   9.1857   9.1904   9.1923   9.1959   9.1994   9.2016
     9.2029   9.2095   9.2103   9.2146   9.2194   9.2304   9.2457   9.2510
     9.2666   9.2668   9.2737   9.2744   9.2782   9.2842   9.2850   9.2864
     9.2890   9.2957   9.2990   9.3048   9.3065   9.3200   9.3259   9.3387
     9.3423   9.3553   9.3724   9.3819   9.3852   9.3929   9.4072   9.4122
     9.4183   9.4217   9.4228   9.4245   9.4286   9.4305   9.4324   9.4404
     9.4426   9.4519   9.4625   9.4675   9.4768   9.4919   9.5050   9.5225
     9.5427   9.5599   9.5762   9.5984   9.6086   9.6225   9.6455   9.6484
     9.6554   9.7585   9.7818   9.8361  10.0122  10.0481  10.3142  10.3241
    10.4363  10.4637  10.4984  10.5328  10.5405  10.5575  10.5644  10.5786
    10.5869  10.6460  10.6582  10.6620  10.7334  10.7493

 ------ SPIN DOWN ----------


          k = 0.0000 0.0000 0.0000 ( 91909 PWs)   bands (ev):

   -80.2900 -80.2897 -80.2807 -80.2796 -80.2759 -80.2757 -80.2670 -80.2664
   -80.2660 -80.2639 -80.2607 -80.2517 -80.2515 -80.2509 -80.2472 -80.2437
   -80.2350 -80.2341 -80.2325 -80.2258 -80.2254 -80.2204 -80.2171 -80.2169
   -80.2154 -80.1994 -80.1991 -80.1971 -80.1905 -80.1602 -80.1556 -79.8121
   -79.7707 -79.7322 -79.6907 -79.6676 -79.6486 -79.6433 -79.6285 -79.6160
   -79.6130 -79.6083 -79.6068 -79.5824 -79.5675 -79.5614 -79.5503 -79.5386
   -79.5359 -79.5327 -79.5215 -79.5152 -79.5127 -79.5091 -79.4997 -79.4986
   -79.4798 -79.4743 -79.4564 -79.4544 -79.4367 -79.4183 -79.4059 -79.3702
   -78.4024 -78.3749 -78.3613 -78.3576 -78.3514 -78.3450 -78.3409 -78.3295
   -78.3101 -78.2975 -78.2967 -78.2955 -78.2930 -78.2892 -78.2870 -78.2846
   -78.2781 -78.2654 -78.2521 -78.2515 -78.2442 -78.2426 -78.2334 -78.2289
   -78.2272 -78.2253 -78.2232 -78.1977 -78.1939 -78.1899 -78.1832 -78.1317
   -77.9905 -77.7004 -77.6920 -77.6747 -77.6739 -77.6705 -77.6680 -77.6672
   -77.6593 -77.6586 -77.6572 -77.6560 -77.6529 -77.6513 -77.6508 -77.6507
   -77.6491 -77.6449 -77.6435 -77.6424 -77.6388 -77.6370 -77.6367 -77.6334
   -77.6324 -77.6321 -77.6321 -77.6297 -77.6292 -77.6222 -77.6194 -77.6176
   -63.3193 -46.4481 -46.4467 -46.4367 -46.4322 -46.4306 -46.4295 -46.4264
   -46.4206 -46.4178 -46.4122 -46.4120 -46.4110 -46.4097 -46.4033 -46.3998
   -46.3963 -46.3946 -46.3935 -46.3885 -46.3882 -46.3866 -46.3811 -46.3807
   -46.3759 -46.3715 -46.3675 -46.3567 -46.3556 -46.3532 -46.3504 -46.3485
   -46.3485 -46.3425 -46.3413 -46.3372 -46.3333 -46.3301 -46.3285 -46.3261
   -46.3254 -46.3227 -46.3183 -46.3171 -46.3132 -46.3109 -46.3108 -46.3087
   -46.2994 -46.2984 -46.2925 -46.2894 -46.2876 -46.2868 -46.2841 -46.2817
   -46.2742 -46.2678 -46.2653 -46.2622 -46.2608 -46.2601 -46.2552 -46.2510
   -46.2494 -46.2482 -46.2455 -46.2414 -46.2399 -46.2339 -46.2335 -46.2295
   -46.2281 -46.2275 -46.2258 -46.2251 -46.2251 -46.2238 -46.2152 -46.2132
   -46.2094 -46.2068 -46.2047 -46.1994 -46.1974 -46.1957 -46.1931 -46.1891
   -46.1816 -46.1804 -46.1780 -46.1705 -46.1474 -46.1416 -45.9909 -45.9366
   -45.8970 -45.8388 -45.8320 -45.8052 -45.7872 -45.7719 -45.7662 -45.7597
   -45.7584 -45.7567 -45.7524 -45.7498 -45.7428 -45.7386 -45.7236 -45.7233
   -45.7210 -45.7202 -45.7153 -45.7130 -45.7096 -45.7079 -45.7032 -45.7010
   -45.7005 -45.6967 -45.6904 -45.6865 -45.6858 -45.6838 -45.6790 -45.6782
   -45.6774 -45.6759 -45.6738 -45.6718 -45.6701 -45.6689 -45.6499 -45.6492
   -45.6476 -45.6416 -45.6392 -45.6358 -45.6327 -45.6294 -45.6263 -45.6151
   -45.6000 -45.5968 -45.5953 -45.5879 -45.5821 -45.5789 -45.5769 -45.5740
   -45.5733 -45.5683 -45.5618 -45.5590 -45.5560 -45.5546 -45.5510 -45.5476
   -45.5417 -45.5352 -45.5325 -45.5319 -45.5296 -45.5276 -45.5160 -45.5148
   -45.5134 -45.5128 -45.5106 -45.5092 -45.5085 -45.5063 -45.5053 -45.4981
   -45.4926 -45.4920 -45.4898 -45.4866 -45.4824 -45.4697 -45.4693 -45.4663
   -45.4659 -45.4618 -45.4601 -45.4561 -45.4476 -45.4307 -45.4227 -45.4134
   -45.3952 -44.5209 -44.5119 -44.4977 -44.4956 -44.4863 -44.4832 -44.4816
   -44.4809 -44.4786 -44.4748 -44.4729 -44.4724 -44.4719 -44.4674 -44.4607
   -44.4595 -44.4590 -44.4581 -44.4549 -44.4498 -44.4476 -44.4460 -44.4455
   -44.4437 -44.4431 -44.4415 -44.4404 -44.4340 -44.4323 -44.4279 -44.4268
   -44.4218 -44.4202 -44.4157 -44.4155 -44.4125 -44.4117 -44.4108 -44.4086
   -44.4067 -44.4048 -44.4036 -44.4013 -44.4000 -44.3987 -44.3976 -44.3967
   -44.3947 -44.3817 -44.3757 -44.3682 -44.3596 -44.3589 -44.3564 -44.3428
   -44.3383 -44.3382 -44.3367 -44.3342 -44.3257 -44.3187 -44.3124 -44.3113
   -44.3082 -44.3077 -44.3054 -44.3037 -44.3024 -44.3014 -44.2981 -44.2931
   -44.2912 -44.2897 -44.2876 -44.2867 -44.2849 -44.2784 -44.2775 -44.2763
   -44.2738 -44.2708 -44.2679 -44.2668 -44.2658 -44.2651 -44.2613 -44.2596
   -44.2579 -44.2542 -44.2471 -44.2440 -44.2397 -44.2335 -44.2313 -44.2199
   -44.1870 -44.1297 -44.0564 -43.9598 -43.8813 -43.8711 -43.8482 -43.8477
   -43.8399 -43.8393 -43.8388 -43.8300 -43.8295 -43.8288 -43.8216 -43.8207
   -43.8205 -43.8200 -43.8154 -43.8146 -43.8123 -43.8098 -43.8062 -43.8038
   -43.8015 -43.7989 -43.7972 -43.7953 -43.7926 -43.7920 -43.7917 -43.7904
   -43.7805 -43.7797 -43.7785 -43.7778 -43.7776 -43.7609 -43.7588 -43.7579
   -43.7575 -43.7559 -43.7528 -43.7464 -43.7416 -43.7415 -43.7409 -43.7405
   -43.7383 -43.7371 -43.7358 -43.7348 -43.7319 -43.7306 -43.7306 -43.7288
   -43.7278 -43.7270 -43.7237 -43.7219 -43.7210 -43.7206 -43.7195 -43.7129
[...]
     3.8292   3.8332   3.8698   3.8834   3.8900   3.8955   3.9209   3.9279
     3.9301   3.9945   4.0037   4.0098   4.0164   4.0175   4.0225   4.0236
     4.0266   4.0392   4.0552   4.0805   4.0862   4.0946   4.1248   4.2122
     4.2229   4.2401   4.2598   4.2681   4.2709   4.2763   4.2831   4.2869
     4.2901   4.2947   4.2975   4.3030   4.3414   4.3543   4.3605   4.3653
     4.3726   4.3804   4.3810   4.3863   4.3898   4.3975   4.3987   4.4008
     4.4067   4.4081   4.4210   4.4263   4.4353   4.4382   4.4402   4.4485
     4.4573   4.4617   4.4655   4.4695   4.4714   4.4730   4.4818   4.4842
     4.4863   4.4915   4.4923   4.5185   4.5254   4.5327   4.5424   4.5768
     4.5925   4.5961   4.6003   4.6011   4.6160   4.6363   4.6387   4.6406
     4.6438   4.6473   4.6897   4.6954   4.7238   4.7321   4.7410   4.7508
     4.7841   4.7861   4.7889   4.7938   4.8034   4.8062   4.8110   4.8146
     4.8197   4.8226   4.8308   4.8380   4.8404   4.8462   4.8567   4.8653
     4.8726   4.8765   4.8798   4.8945   4.8973   4.9033   4.9165   4.9212
     4.9227   4.9267   4.9288   4.9329   4.9393   4.9498   4.9595   4.9648
     5.0110   5.0141   5.0190   5.0222   5.0287   5.0387   5.0452   5.0580
     5.0620   5.0754   5.0802   5.1421   5.1544   5.1802   5.1894   5.1962
     5.1980   5.2276   5.2285   5.2293   5.2715   5.2876   5.3207   5.3240
     5.3922   5.3980   5.4106   5.4157   5.4253   5.4441   5.4496   5.4563
     5.4631   5.4714   5.4763   5.4848   5.4918   5.5016   5.5149   5.5219
     5.5362   5.5643   5.5699   5.5756   5.5841   5.5976   5.6022   5.6104
     5.6285   5.6356   5.6414   5.6452   5.6512   5.6656   5.6770   5.6823
     5.6889   5.6940   5.6991   5.7036   5.7076   5.7121   5.7168   5.7217
     5.7268   5.7295   5.7343   5.7389   5.7391   5.7444   5.7459   5.7510
     5.7533   5.7557   5.7849   5.7901   5.8552   5.8610   5.8749   5.8768
     5.8817   5.8848   5.8982   5.9005   5.9066   5.9165   5.9287   5.9332
     5.9352   5.9415   5.9427   5.9620   5.9762   6.0010   6.0065   6.0079
     6.0165   6.0539   6.0748   6.0830   6.0901   6.1133   6.1372   6.1792
     6.2036   6.2192   6.2262   6.2434   6.2472   6.2546   6.2622   6.2676
     6.2762   6.2773   6.2811   6.2911   6.2935   6.2963   6.3002   6.3043
     6.3085   6.3091   6.3120   6.3137   6.3149   6.3210   6.3231   6.3280
     6.3302   6.3346   6.3365   6.3377   6.3418   6.3461   6.3715   6.3971
     6.4031   6.4142   6.4242   6.4450   6.4700   6.5031   6.5087   6.5178
     6.5219   6.5295   6.5389   6.5433   6.5453   6.5502   6.5562   6.5583
     6.5631   6.5652   6.5695   6.5744   6.5799   6.5813   6.5860   6.5943
     6.6054   6.6065   6.6116   6.6162   6.6190   6.6204   6.6220   6.6243
     6.6300   6.6350   6.6403   6.6431   6.6485   6.6549   6.6594   6.6614
     6.6688   6.6691   6.6847   6.6884   6.7098   6.7240   6.7353   6.7378
     6.7452   6.7535   6.7598   6.7660   6.7753   6.7789   6.7959   6.7988
     6.8103   6.8132   6.8208   6.8232   6.8280   6.8327   6.8461   6.8500
     6.8556   6.8631   6.8760   6.8812   6.8921   6.8947   6.8989   6.9015
     6.9045   6.9090   6.9146   6.9180   6.9239   6.9501   6.9591   6.9759
     6.9828   6.9885   6.9930   6.9984   7.0019   7.0098   7.0141   7.0248
     7.0276   7.0400   7.0557   7.0600   7.0648   7.0735   7.0806   7.0903
     7.0983   7.1234   7.1340   7.1405   7.1476   7.1765   7.1812   7.1890
     7.1912   7.2039   7.2131   7.2219   7.2258   7.2299   7.2398   7.2464
     7.2610   7.2688   7.2725   7.2754   7.2829   7.2881   7.2957   7.3041
     7.3367   7.3709   7.3746   7.3934   7.3998   7.4192   7.4654   7.4754
     7.4845   7.4917   7.5202   7.5245   7.5287   7.5406   7.5432   7.5477
     7.5580   7.5759   7.5778   7.5869   7.5890   7.5925   7.6067   7.6162
     7.6219   7.6375   7.6506   7.6613   7.6624   7.6662   7.6798   7.6857
     7.6965   7.7301   7.7415   7.7492   7.7585   7.7728   7.7802   7.7876
     7.7927   7.8009   7.8035   7.8140   7.8157   7.8432   7.8505   7.8566
     7.8975   7.9024   7.9110   7.9300   7.9395   7.9433   7.9617   7.9736
     7.9802   7.9882   7.9930   7.9960   8.0065   8.0143   8.0278   8.0433
     8.0532   8.0623   8.0661   8.0718   8.0813   8.0914   8.0983   8.1131
     8.1341   8.1405   8.1530   8.1578   8.1654   8.1753   8.1796   8.1902
     8.1910   8.2024   8.2091   8.2158   8.2231   8.2326   8.2610   8.2683
     8.2999   8.3050   8.3100   8.3143   8.3233   8.3315   8.3435   8.3611
     8.3752   8.3890   8.4067   8.4256   8.4474   8.4593   8.4693   8.4759
     8.4857   8.4887   8.4944   8.5038   8.5107   8.5280   8.5702   8.5774
     8.5821   8.6212   8.6293   8.6370   8.6923   8.7011   8.7056   8.7118
     8.7189   8.7204   8.7308   8.7403   8.7877   8.7926   8.7973   8.8000
     8.8009   8.8039   8.8040   8.8074   8.8113   8.8166   8.8180   8.8225
     8.8252   8.8264   8.8302   8.8326   8.8361   8.8373   8.8419   8.8457
     8.8480   8.8487   8.8501   8.8556   8.8579   8.8581   8.8621   8.8660
     8.8715   8.8755   8.8773   8.8794   8.8834   8.8848   8.8878   8.8911
     8.8939   8.9076   8.9183   8.9189   8.9263   8.9354   8.9425   8.9469
     8.9487   8.9583   8.9620   8.9728   8.9873   8.9929   8.9949   8.9997
     9.0043   9.0061   9.0136   9.0197   9.0302   9.0329   9.0392   9.0426
     9.0532   9.0688   9.0738   9.0784   9.0811   9.0839   9.0862   9.0899
     9.0908   9.0928   9.0965   9.1034   9.1084   9.1407   9.1472   9.1714
     9.1812   9.1838   9.1895   9.1946   9.1973   9.1985   9.2015   9.2048
     9.2108   9.2141   9.2188   9.2253   9.2297   9.2367   9.2481   9.2608
     9.2661   9.2721   9.2727   9.2760   9.2802   9.2857   9.2870   9.2896
     9.2958   9.2989   9.3006   9.3036   9.3158   9.3214   9.3264   9.3409
     9.3422   9.3593   9.3724   9.3816   9.3915   9.3985   9.4071   9.4183
     9.4191   9.4230   9.4236   9.4300   9.4324   9.4358   9.4409   9.4418
     9.4532   9.4580   9.4659   9.4759   9.4923   9.4948   9.5166   9.5247
     9.5470   9.5588   9.5820   9.6015   9.6178   9.6458   9.6489   9.6531
     9.6672   9.7675   9.7877   9.9220  10.0183  10.0905  10.3242  10.3288
    10.4499  10.4674  10.5046  10.5373  10.5388  10.5546  10.5732  10.5757
    10.6169  10.6459  10.6595  10.6776  10.7300  10.7663

     the Fermi energy is     8.2021 ev

!    total energy              =  -42571.41340388 Ry

     total all-electron energy =   -334887.881834 Ry
     estimated scf accuracy    <          8.0E-09 Ry
     smearing contrib. (-TS)   =       0.01814759 Ry
     internal energy E=F+TS    =  -42571.43155147 Ry

     The total energy is F=E-TS. E is the sum of the following terms:
     one-electron contribution =  -98095.72112663 Ry
     hartree contribution      =   49562.51044713 Ry
     xc contribution           =   -3573.59914890 Ry
     ewald contribution        =   20370.13090006 Ry
     one-center paw contrib.   =  -10834.75262314 Ry

     total magnetization       =     1.40 Bohr mag/cell
     absolute magnetization    =   230.23 Bohr mag/cell

     convergence has been achieved in  77 iterations

     negative rho (up, down):  1.693E-03 1.867E-03

     Forces acting on atoms (cartesian axes, Ry/au):

     atom    1 type  3   force =     0.01450356   -0.00723274    0.10712014
     atom    2 type  1   force =     0.02753140    0.00999444   -0.04154729
     atom    3 type  2   force =    -0.01720430   -0.02308690   -0.03803401
     atom    4 type  1   force =    -0.00165004    0.00571951   -0.00304289
     atom    5 type  2   force =     0.00304182   -0.00301692   -0.00241092
     atom    6 type  1   force =     0.00144657   -0.00067936    0.00023705
     atom    7 type  2   force =    -0.00140055    0.00112537    0.00077735
     atom    8 type  1   force =     0.00226136    0.00016834    0.00076210
     atom    9 type  2   force =    -0.00232566    0.00030169    0.00086142
     atom   10 type  1   force =     0.00040338   -0.00201085   -0.00513849
     atom   11 type  2   force =    -0.00386619    0.00197259   -0.00238784
     atom   12 type  1   force =     0.00043109   -0.00137582   -0.00086867
     atom   13 type  2   force =    -0.00022628   -0.00025130   -0.00114019
     atom   14 type  1   force =    -0.00191600    0.00154954    0.00399109
     atom   15 type  2   force =    -0.00230004    0.00034195   -0.00042047
     atom   16 type  1   force =     0.00013113   -0.00012391    0.00020204
     atom   17 type  2   force =     0.00052946   -0.00065252   -0.00030373
     atom   18 type  1   force =    -0.00008204   -0.00001991   -0.00000251
     atom   19 type  2   force =     0.00002784   -0.00007609    0.00000834
     atom   20 type  1   force =     0.00266390    0.00172042    0.00267560
     atom   21 type  2   force =    -0.00267730   -0.00171604    0.00279434
     atom   22 type  1   force =     0.00121300   -0.00009046    0.00124305
     atom   23 type  2   force =    -0.00108622    0.00027591    0.00094340
     atom   24 type  1   force =    -0.00009650   -0.00107667   -0.00234316
     atom   25 type  2   force =    -0.00008323    0.00118981   -0.00207302
     atom   26 type  1   force =     0.00431140   -0.00054252   -0.00270134
     atom   27 type  2   force =     0.00045565    0.00841193   -0.01515560
     atom   28 type  1   force =    -0.00035872    0.00082945   -0.00189263
     atom   29 type  2   force =     0.00040595    0.00189990    0.00010317
     atom   30 type  1   force =     0.00258457    0.00006447   -0.00080092
     atom   31 type  2   force =     0.00202266   -0.00134338    0.00303072
     atom   32 type  1   force =    -0.00058964    0.00087903   -0.00030187
     atom   33 type  2   force =    -0.00014401   -0.00002914    0.00046120
     atom   34 type  1   force =    -0.00933005   -0.00052967   -0.01700968
     atom   35 type  2   force =    -0.00050140   -0.00357655   -0.00082949
     atom   36 type  1   force =     0.00258180    0.00116943   -0.00069874
     atom   37 type  2   force =    -0.00222154   -0.00089919   -0.00773352
     atom   38 type  1   force =     0.00028539   -0.00069913    0.00317478
     atom   39 type  2   force =     0.00180081    0.00049756   -0.00088756
     atom   40 type  1   force =     0.00433996   -0.00094391    0.00009105
     atom   41 type  2   force =     0.00028706    0.00155527    0.00574517
     atom   42 type  1   force =    -0.00726113   -0.00449870   -0.00017917
     atom   43 type  2   force =    -0.00004899   -0.00105293   -0.00200965
     atom   44 type  1   force =    -0.00057836   -0.00322334   -0.00375456
     atom   45 type  2   force =    -0.00037144   -0.00230226    0.00274497
     atom   46 type  1   force =    -0.00435651    0.00202795   -0.00157044
     atom   47 type  2   force =    -0.00046414    0.00102351    0.00020338
     atom   48 type  1   force =     0.00082228    0.00205303    0.00480876
     atom   49 type  2   force =     0.00124461   -0.00188428    0.00172573
     atom   50 type  1   force =     0.00087377    0.00284393   -0.00265757
     atom   51 type  2   force =     0.00020072    0.00173317   -0.00323524
     atom   52 type  1   force =     0.00254858   -0.00253658   -0.00046601
     atom   53 type  2   force =     0.00144328    0.00132048    0.00395238
     atom   54 type  1   force =    -0.00341366    0.00176685    0.00142407
     atom   55 type  2   force =    -0.00246444   -0.00088953    0.00287558
     atom   56 type  1   force =    -0.00072679   -0.00002872   -0.00023039
     atom   57 type  2   force =    -0.00004325    0.00019192   -0.00066787
     atom   58 type  1   force =     0.00079401    0.00451912   -0.00132924
     atom   59 type  2   force =    -0.00177335    0.00206313   -0.00080756
     atom   60 type  1   force =     0.00223277    0.00173584    0.00017409
     atom   61 type  2   force =    -0.00097664    0.00252631   -0.00469046
     atom   62 type  1   force =    -0.00373895   -0.00215049    0.00267194
     atom   63 type  2   force =    -0.00208772   -0.00334217    0.00050635
     atom   64 type  1   force =     0.00135430   -0.00015111    0.00049194
     atom   65 type  2   force =     0.00108459   -0.00107274    0.00038692
     atom   66 type  1   force =    -0.00103275   -0.00013789    0.00101855
     atom   67 type  2   force =     0.00087236    0.00018060    0.00130451
     atom   68 type  1   force =    -0.00390220   -0.00060708   -0.00179027
     atom   69 type  2   force =     0.00379018    0.00075152   -0.00180204
     atom   70 type  1   force =    -0.00097131   -0.00159406   -0.00173328
     atom   71 type  2   force =     0.00008506    0.00180948   -0.00089843
     atom   72 type  1   force =    -0.00005689   -0.00060188    0.00165216
     atom   73 type  2   force =    -0.00060680    0.00059737    0.00160636
     atom   74 type  1   force =     0.00117094    0.00260254    0.00044504
     atom   75 type  2   force =     0.00214814    0.00006762    0.00004797
     atom   76 type  1   force =     0.00089191    0.00051710   -0.00263101
     atom   77 type  2   force =    -0.00175293    0.00014128   -0.00029385
     atom   78 type  1   force =     0.00296881    0.00141329   -0.00069342
     atom   79 type  2   force =    -0.00013348    0.00101789    0.00190088
     atom   80 type  1   force =    -0.00303231    0.00060455   -0.00141533
     atom   81 type  2   force =    -0.00143449   -0.00200942    0.00161497
     atom   82 type  1   force =    -0.00016266   -0.00061238   -0.00022848
     atom   83 type  2   force =     0.00018328    0.00075752   -0.00007638
     atom   84 type  1   force =    -0.00169776    0.00318142    0.00160795
     atom   85 type  2   force =     0.00159523   -0.00297857    0.00152333
     atom   86 type  1   force =     0.00013928    0.00120321    0.00379730
     atom   87 type  2   force =    -0.00043042   -0.00115873    0.00361488
     atom   88 type  1   force =     0.00112433   -0.00059388    0.00089842
     atom   89 type  2   force =    -0.00134112    0.00065798    0.00094404
     atom   90 type  1   force =    -0.00210853    0.00000494   -0.00013530
     atom   91 type  2   force =    -0.00086926   -0.00218226    0.00046824
     atom   92 type  1   force =     0.00159604   -0.00015067   -0.00034153
     atom   93 type  2   force =    -0.00097688   -0.00052311   -0.00277649
     atom   94 type  1   force =    -0.00015042   -0.00078829    0.00179679
     atom   95 type  2   force =    -0.00311588   -0.00160611   -0.00064610
     atom   96 type  1   force =     0.00116451    0.00233816    0.00144788
     atom   97 type  2   force =     0.00242736   -0.00060726   -0.00153695
     atom   98 type  1   force =     0.00161319    0.00366001   -0.00066950
     atom   99 type  2   force =     0.00195840    0.00170680   -0.00649796
     atom  100 type  1   force =    -0.00861388    0.00140684    0.00185366
     atom  101 type  2   force =    -0.00143859   -0.00089493   -0.00141716
     atom  102 type  1   force =    -0.00039930   -0.00042524   -0.00255002
     atom  103 type  2   force =    -0.00118652    0.00049543    0.00360413
     atom  104 type  1   force =     0.00002680   -0.00152580    0.00558001
     atom  105 type  2   force =    -0.00469553    0.00112712    0.00088874
     atom  106 type  1   force =     0.00110027   -0.00133777   -0.00009161
     atom  107 type  2   force =    -0.00201178   -0.00358407   -0.00089021
     atom  108 type  1   force =    -0.00087913   -0.00308245   -0.00381651
     atom  109 type  2   force =    -0.00252420   -0.00105726    0.00076044
     atom  110 type  1   force =     0.00152755    0.00343375    0.00116249
     atom  111 type  2   force =     0.00318548    0.00251987    0.00338297
     atom  112 type  1   force =    -0.00104127    0.00105308    0.00034382
     atom  113 type  2   force =    -0.00164538    0.00028100    0.00073386
     atom  114 type  1   force =    -0.00026259   -0.00143152   -0.00329928
     atom  115 type  2   force =    -0.00110023   -0.00296150   -0.00233932
     atom  116 type  1   force =    -0.00164427   -0.00090886    0.00415588
     atom  117 type  2   force =    -0.00267819    0.00286838   -0.00066753
     atom  118 type  1   force =     0.00235193    0.00103159    0.00305546
     atom  119 type  2   force =     0.00346303   -0.00147634    0.00138445
     atom  120 type  1   force =    -0.00001444    0.00008226   -0.00071251
     atom  121 type  2   force =     0.00072009    0.00017038   -0.00010876
     atom  122 type  1   force =    -0.00009520    0.00105167   -0.00192478
     atom  123 type  2   force =     0.00407781    0.00293097   -0.00056183
     atom  124 type  1   force =     0.00101218    0.00258256    0.00198047
     atom  125 type  2   force =     0.00116144    0.00298127   -0.00396025
     atom  126 type  1   force =     0.00024405   -0.00101416    0.00026062
     atom  127 type  2   force =     0.00379544   -0.00165569   -0.00187665
     atom  128 type  1   force =    -0.00096928    0.00204631    0.00165535
     atom  129 type  2   force =    -0.00091276   -0.00213463    0.00502572

     Total force =     0.137499     Total SCF correction =     0.000404


     Computing stress (Cartesian axis) and pressure


     negative rho (up, down):  1.693E-03 1.867E-03
          total   stress  (Ry/bohr**3)                   (kbar)     P=      -21.14
  -0.00015404   0.00000174  -0.00000661          -22.66        0.26       -0.97
   0.00000174  -0.00010743   0.00000418            0.26      -15.80        0.62
  -0.00000661   0.00000418  -0.00016956           -0.97        0.62      -24.94


     Writing output data file /scratch/bxp912/feruslab4r3.save/
 
     init_run     :      9.00s CPU      9.52s WALL (       1 calls)
     electrons    :   1733.02s CPU   1775.50s WALL (       1 calls)
     forces       :      5.46s CPU      5.68s WALL (       1 calls)
     stress       :    113.29s CPU    114.10s WALL (       1 calls)

     Called by init_run:
     wfcinit      :      5.90s CPU      6.18s WALL (       1 calls)
     potinit      :      1.02s CPU      1.08s WALL (       1 calls)
     hinit0       :      1.12s CPU      1.15s WALL (       1 calls)

     Called by electrons:
     c_bands      :   1448.43s CPU   1476.62s WALL (      77 calls)
     sum_band     :    196.55s CPU    203.89s WALL (      77 calls)
     v_of_rho     :     11.69s CPU     12.46s WALL (      78 calls)
     newd         :     21.73s CPU     26.36s WALL (      78 calls)
     PAW_pot      :     46.17s CPU     47.23s WALL (      78 calls)
     mix_rho      :      7.31s CPU      7.83s WALL (      77 calls)

     Called by c_bands:
     init_us_2    :      7.75s CPU      7.86s WALL (     314 calls)
     regterg      :   1420.48s CPU   1447.49s WALL (     154 calls)

     Called by *egterg:
     rdiaghg      :    151.52s CPU    153.27s WALL (     791 calls)
     h_psi        :    569.30s CPU    576.86s WALL (     793 calls)
     s_psi        :    110.22s CPU    113.27s WALL (     793 calls)
     g_psi        :      2.12s CPU      2.14s WALL (     637 calls)

     Called by h_psi:
     h_psi:calbec :    142.03s CPU    142.85s WALL (     793 calls)
     vloc_psi     :    306.21s CPU    309.73s WALL (     793 calls)
     add_vuspsi   :    116.73s CPU    119.92s WALL (     793 calls)

     General routines
     calbec       :    209.24s CPU    210.49s WALL (     957 calls)
     fft          :     11.00s CPU     11.19s WALL (    1665 calls)
     ffts         :      3.14s CPU      3.22s WALL (    1612 calls)
     fftw         :    319.38s CPU    322.92s WALL (  514040 calls)
     interpolate  :      1.32s CPU      1.34s WALL (     156 calls)
 
     Parallel routines
     fft_scatt_xy :     43.17s CPU     43.53s WALL (  517317 calls)
     fft_scatt_yz :    215.93s CPU    218.65s WALL (  517317 calls)
 
     PWSCF        :  31m 8.29s CPU  31m53.96s WALL

 
   This run was terminated on:  14:25:39  29May2022            

=------------------------------------------------------------------------------=
   JOB DONE.
=------------------------------------------------------------------------------=
