
     Program PWSCF v.6.7MaX starts on 29May2022 at 13:48:47 

     This program is part of the open-source Quantum ESPRESSO suite
     for quantum simulation of materials; please cite
         "P. Giannozzi et al., J. Phys.:Condens. Matter 21 395502 (2009);
         "P. Giannozzi et al., J. Phys.:Condens. Matter 29 465901 (2017);
          URL http://www.quantum-espresso.org", 
     in publications or presentations arising from this work. More details at
     http://www.quantum-espresso.org/quote

     Parallel version (MPI & OpenMP), running on      72 processor cores
     Number of MPI processes:                72
     Threads/MPI process:                     1

     MPI processes distributed on     1 nodes
     R & G space division:  proc/nbgrp/npool/nimage =      72
     Reading input from feruslabA.in
Warning: card &CELL ignored
Warning: card CELL_DYNAMICS = 'BFGS', ignored
Warning: card CELL_FACTOR = 2.0, ignored
Warning: card PRESS = 0.0, ignored
Warning: card / ignored

     Current dimensions of program PWSCF are:
     Max number of different atomic species (ntypx) = 10
     Max number of k-points (npk) =  40000
     Max angular momentum in pseudopotentials (lmaxx) =  3
     file Fe.pbe-spn-kjpaw_psl.1.0.0.UPF: wavefunction(s)  3P 3D renormalized
     file Fe.pbe-spn-kjpaw_psl.1.0.0.UPF: wavefunction(s)  3P 3D renormalized
     file Ru.pbe-spn-kjpaw_psl.1.0.0.UPF: wavefunction(s)  4D renormalized

     gamma-point specific algorithms are used

     Subspace diagonalization in iterative solution of the eigenvalue problem:
     one sub-group per band group will be used
     ELPA distributed-memory algorithm (size of sub-group:  8*  8 procs)

 
     Parallelization info
     --------------------
     sticks:   dense  smooth     PW     G-vecs:    dense   smooth      PW
     Min         333     220     53                38016    20412    2546
     Max         336     222     56                38038    20426    2560
     Sum       24049   15899   3985              2738239  1469969  183817
 


     bravais-lattice index     =            0
     lattice parameter (alat)  =      25.8600  a.u.
     unit-cell volume          =   18186.5006 (a.u.)^3
     number of atoms/cell      =          128
     number of atomic types    =            3
     number of electrons       =      2048.00
     number of Kohn-Sham states=         1229
     kinetic-energy cutoff     =      71.0000  Ry
     charge density cutoff     =     430.0000  Ry
     scf convergence threshold =      1.0E-08
     mixing beta               =       0.3000
     number of iterations used =           10  local-TF  mixing
     Exchange-correlation= SLA  PW   PBX  PBC
                           (   1   4   3   4   0   0   0)

     celldm(1)=  25.860000  celldm(2)=   0.000000  celldm(3)=   0.000000
     celldm(4)=   0.000000  celldm(5)=   0.000000  celldm(6)=   0.000000

     crystal axes: (cart. coord. in units of alat)
               a(1) = (   1.000000   0.000000   0.000000 )  
               a(2) = (   0.000000   1.051631   0.000000 )  
               a(3) = (   0.000000   0.000000   1.000000 )  

     reciprocal axes: (cart. coord. in units 2 pi/alat)
               b(1) = (  1.000000  0.000000  0.000000 )  
               b(2) = (  0.000000  0.950903  0.000000 )  
               b(3) = (  0.000000  0.000000  1.000000 )  


     PseudoPot. # 1 for Fe read from file:
     /rds/homes/b/bxp912/pp/Fe.pbe-spn-kjpaw_psl.1.0.0.UPF
     MD5 check sum: 42f43b795421b414b0dc916aa790dbcb
     Pseudo is Projector augmented-wave + core cor, Zval = 16.0
     Generated using &quot;atomic&quot; code by A. Dal Corso  v.6.3
     Shape of augmentation charge: PSQ
     Using radial grid of 1191 points,  6 beta functions with: 
                l(1) =   0
                l(2) =   0
                l(3) =   1
                l(4) =   1
                l(5) =   2
                l(6) =   2
     Q(r) pseudized with 0 coefficients 


     PseudoPot. # 2 for Fe read from file:
     /rds/homes/b/bxp912/pp/Fe.pbe-spn-kjpaw_psl.1.0.0.UPF
     MD5 check sum: 42f43b795421b414b0dc916aa790dbcb
     Pseudo is Projector augmented-wave + core cor, Zval = 16.0
     Generated using &quot;atomic&quot; code by A. Dal Corso  v.6.3
     Shape of augmentation charge: PSQ
     Using radial grid of 1191 points,  6 beta functions with: 
                l(1) =   0
                l(2) =   0
                l(3) =   1
                l(4) =   1
                l(5) =   2
                l(6) =   2
     Q(r) pseudized with 0 coefficients 


     PseudoPot. # 3 for Ru read from file:
     /rds/homes/b/bxp912/pp/Ru.pbe-spn-kjpaw_psl.1.0.0.UPF
     MD5 check sum: 0ae1f594dea09af7be8575c3a481d1ae
     Pseudo is Projector augmented-wave + core cor, Zval = 16.0
     Generated using "atomic" code by A. Dal Corso  v.5.1
     Shape of augmentation charge: PSQ
     Using radial grid of 1233 points,  6 beta functions with: 
                l(1) =   0
                l(2) =   0
                l(3) =   1
                l(4) =   1
                l(5) =   2
                l(6) =   2
     Q(r) pseudized with 0 coefficients 


     atomic species   valence    mass     pseudopotential
        Fe1           16.00    55.84500     Fe( 1.00)
        Fe2           16.00    55.84500     Fe( 1.00)
        Ru            16.00   101.07000     Ru( 1.00)

     Starting magnetic structure 
     atomic species   magnetization
        Fe1          0.100
        Fe2         -0.100
        Ru           0.001

     No symmetry found



   Cartesian axes

     site n.     atom                  positions (alat units)
         1           Fe1 tau(   1) = (   0.0624969   0.0661319   0.3164225  )
         2           Fe2 tau(   2) = (   0.1869237   0.1974229   0.3130776  )
         3           Fe1 tau(   3) = (   0.1894797   0.0665422   0.4348823  )
         4           Fe2 tau(   4) = (   0.0625134   0.1968947   0.4358772  )
         5           Fe1 tau(   5) = (   0.0624335   0.0655576   0.5662940  )
         6           Fe2 tau(   6) = (   0.1878217   0.1968289   0.5642123  )
         7           Fe1 tau(   7) = (   0.1938646   0.0682321   0.6887592  )
         8           Fe2 tau(   8) = (   0.0624692   0.1929224   0.6835365  )
         9           Fe1 tau(   9) = (   0.0625249   0.3286747   0.3166289  )
        10           Fe2 tau(  10) = (   0.1869608   0.4599777   0.3130659  )
        11           Fe1 tau(  11) = (   0.1875652   0.3286624   0.4360324  )
        12           Fe2 tau(  12) = (   0.0624903   0.4604699   0.4358751  )
        13           Fe1 tau(  13) = (   0.0624956   0.3286044   0.5657096  )
        14           Fe2 tau(  14) = (   0.1878185   0.4605001   0.5642303  )
        15           Fe1 tau(  15) = (   0.1862075   0.3285793   0.6872624  )
        16           Fe2 tau(  16) = (   0.0624707   0.4642573   0.6836264  )
        17           Fe1 tau(  17) = (   0.0624808   0.5911143   0.3163949  )
        18           Fe2 tau(  18) = (   0.1874772   0.7221831   0.3127873  )
        19           Fe1 tau(  19) = (   0.1895002   0.5907292   0.4348365  )
        20           Fe2 tau(  20) = (   0.0624407   0.7201086   0.4332314  )
        21           Fe1 tau(  21) = (   0.0624345   0.5915586   0.5662601  )
        22           Fe2 tau(  22) = (   0.1897921   0.7189299   0.5651579  )
        23           Fe1 tau(  23) = (   0.1937961   0.5891127   0.6887728  )
        24           Fe2 tau(  24) = (   0.0624104   0.7130697   0.6907427  )
        25           Fe1 tau(  25) = (   0.0624129   0.8544182   0.3159221  )
        26           Fe2 tau(  26) = (   0.1875193   0.9867801   0.3127985  )
        27           Fe1 tau(  27) = (   0.1903254   0.8543936   0.4315791  )
        28           Fe2 tau(  28) = (   0.0624439   0.9886517   0.4332169  )
        29           Ru  tau(  29) = (   0.0624871   0.8544220   0.5705122  )
        30           Fe2 tau(  30) = (   0.1898007   0.9898523   0.5651521  )
        31           Fe1 tau(  31) = (   0.1998953   0.8543052   0.6955483  )
        32           Fe2 tau(  32) = (   0.0624178   0.9957619   0.6907576  )
        33           Fe1 tau(  33) = (   0.3134985   0.0663472   0.3145578  )
        34           Fe2 tau(  34) = (   0.4381314   0.1979486   0.3127148  )
        35           Fe1 tau(  35) = (   0.4381270   0.0661549   0.4351677  )
        36           Fe2 tau(  36) = (   0.3128578   0.1976699   0.4340081  )
        37           Fe1 tau(  37) = (   0.3141486   0.0665893   0.5642993  )
        38           Fe2 tau(  38) = (   0.4382527   0.1979178   0.5634274  )
        39           Fe1 tau(  39) = (   0.4381837   0.0663132   0.6870850  )
        40           Fe2 tau(  40) = (   0.3140866   0.1987057   0.6835268  )
        41           Fe1 tau(  41) = (   0.3122480   0.3286625   0.3155511  )
        42           Fe2 tau(  42) = (   0.4381067   0.4594567   0.3127185  )
        43           Fe1 tau(  43) = (   0.4374543   0.3286534   0.4355984  )
        44           Fe2 tau(  44) = (   0.3128743   0.4597280   0.4340447  )
        45           Fe1 tau(  45) = (   0.3120871   0.3286228   0.5650213  )
        46           Fe2 tau(  46) = (   0.4382270   0.4594035   0.5634612  )
        47           Fe1 tau(  47) = (   0.4375159   0.3286156   0.6865699  )
        48           Fe2 tau(  48) = (   0.3140400   0.4585826   0.6835848  )
        49           Fe1 tau(  49) = (   0.3135215   0.5910151   0.3144987  )
        50           Fe2 tau(  50) = (   0.4388297   0.7229706   0.3129125  )
        51           Fe1 tau(  51) = (   0.4381373   0.5911424   0.4351347  )
        52           Fe2 tau(  52) = (   0.3128686   0.7225087   0.4337943  )
        53           Fe1 tau(  53) = (   0.3141728   0.5906588   0.5643308  )
        54           Fe2 tau(  54) = (   0.4381575   0.7232299   0.5638341  )
        55           Fe1 tau(  55) = (   0.4382642   0.5908155   0.6871160  )
        56           Fe2 tau(  56) = (   0.3144294   0.7199947   0.6841395  )
        57           Fe1 tau(  57) = (   0.3136811   0.8544604   0.3149203  )
        58           Fe2 tau(  58) = (   0.4388186   0.9861544   0.3129265  )
        59           Fe1 tau(  59) = (   0.4373828   0.8544568   0.4355654  )
        60           Fe2 tau(  60) = (   0.3128559   0.9864419   0.4338014  )
        61           Fe1 tau(  61) = (   0.3114253   0.8543724   0.5630580  )
        62           Fe2 tau(  62) = (   0.4381324   0.9856802   0.5638637  )
        63           Fe1 tau(  63) = (   0.4324178   0.8543673   0.6872621  )
        64           Fe2 tau(  64) = (   0.3143652   0.9887187   0.6841538  )
        65           Fe1 tau(  65) = (   0.5624996   0.0660803   0.3148278  )
        66           Fe2 tau(  66) = (   0.6869064   0.1979526   0.3126857  )
        67           Fe1 tau(  67) = (   0.6869331   0.0661679   0.4351348  )
        68           Fe2 tau(  68) = (   0.5624761   0.1975030   0.4342749  )
        69           Fe1 tau(  69) = (   0.5625207   0.0658006   0.5652382  )
        70           Fe2 tau(  70) = (   0.6867896   0.1979267   0.5634112  )
        71           Fe1 tau(  71) = (   0.6869626   0.0663642   0.6870877  )
        72           Fe2 tau(  72) = (   0.5624961   0.1982779   0.6843351  )
        73           Fe1 tau(  73) = (   0.5624783   0.3286727   0.3154316  )
        74           Fe2 tau(  74) = (   0.6868791   0.4594156   0.3126908  )
        75           Fe1 tau(  75) = (   0.6875724   0.3286470   0.4355671  )
        76           Fe2 tau(  76) = (   0.5624773   0.4598878   0.4343126  )
        77           Fe1 tau(  77) = (   0.5624887   0.3286151   0.5649362  )
        78           Fe2 tau(  78) = (   0.6868263   0.4593808   0.5634388  )
        79           Fe1 tau(  79) = (   0.6875468   0.3285842   0.6865646  )
        80           Fe2 tau(  80) = (   0.5625350   0.4589317   0.6843414  )
        81           Fe1 tau(  81) = (   0.5624772   0.5912489   0.3147763  )
        82           Fe2 tau(  82) = (   0.6861049   0.7229535   0.3128473  )
        83           Fe1 tau(  83) = (   0.6869206   0.5911359   0.4351048  )
        84           Fe2 tau(  84) = (   0.5624862   0.7232274   0.4350203  )
        85           Fe1 tau(  85) = (   0.5625176   0.5913881   0.5652172  )
        86           Fe2 tau(  86) = (   0.6868882   0.7232295   0.5638319  )
        87           Fe1 tau(  87) = (   0.6869055   0.5908288   0.6871074  )
        88           Fe2 tau(  88) = (   0.5625066   0.7255423   0.6844540  )
        89           Fe1 tau(  89) = (   0.5624572   0.8544935   0.3153881  )
        90           Fe2 tau(  90) = (   0.6861491   0.9860888   0.3128709  )
        91           Fe1 tau(  91) = (   0.6876629   0.8544504   0.4355219  )
        92           Fe2 tau(  92) = (   0.5624926   0.9857650   0.4350374  )
        93           Fe1 tau(  93) = (   0.5624859   0.8543910   0.5670988  )
        94           Fe2 tau(  94) = (   0.6869203   0.9856764   0.5638452  )
        95           Fe1 tau(  95) = (   0.6926407   0.8543808   0.6872807  )
        96           Fe2 tau(  96) = (   0.5625159   0.9832306   0.6844414  )
        97           Fe1 tau(  97) = (   0.8114913   0.0663513   0.3144693  )
        98           Fe2 tau(  98) = (   0.9381890   0.1974677   0.3130413  )
        99           Fe1 tau(  99) = (   0.9354632   0.0665812   0.4348395  )
       100           Fe2 tau( 100) = (   0.8120969   0.1976972   0.4339418  )
       101           Fe1 tau( 101) = (   0.8108958   0.0665984   0.5642501  )
       102           Fe2 tau( 102) = (   0.9372292   0.1968625   0.5641392  )
       103           Fe1 tau( 103) = (   0.9310966   0.0682623   0.6887767  )
       104           Fe2 tau( 104) = (   0.8109742   0.1987788   0.6834339  )
       105           Fe1 tau( 105) = (   0.8127506   0.3286648   0.3155273  )
       106           Fe2 tau( 106) = (   0.9381297   0.4599812   0.3130276  )
       107           Fe1 tau( 107) = (   0.9375044   0.3286619   0.4359903  )
       108           Fe2 tau( 108) = (   0.8120897   0.4597118   0.4339703  )
       109           Fe1 tau( 109) = (   0.8128900   0.3286302   0.5649536  )
       110           Fe2 tau( 110) = (   0.9372200   0.4604521   0.5641824  )
       111           Fe1 tau( 111) = (   0.9388182   0.3285235   0.6872453  )
       112           Fe2 tau( 112) = (   0.8110163   0.4585047   0.6835539  )
       113           Fe1 tau( 113) = (   0.8114246   0.5909811   0.3143866  )
       114           Fe2 tau( 114) = (   0.9375435   0.7221354   0.3127565  )
       115           Fe1 tau( 115) = (   0.9353975   0.5907111   0.4347984  )
       116           Fe2 tau( 116) = (   0.8120375   0.7225176   0.4337022  )
       117           Fe1 tau( 117) = (   0.8108805   0.5906394   0.5642947  )
       118           Fe2 tau( 118) = (   0.9351067   0.7189729   0.5650863  )
       119           Fe1 tau( 119) = (   0.9311873   0.5890739   0.6887757  )
       120           Fe2 tau( 120) = (   0.8106211   0.7200417   0.6841525  )
       121           Fe1 tau( 121) = (   0.8113573   0.8544331   0.3148011  )
       122           Fe2 tau( 122) = (   0.9375632   0.9868209   0.3127664  )
       123           Fe1 tau( 123) = (   0.9345094   0.8544084   0.4315909  )
       124           Fe2 tau( 124) = (   0.8120595   0.9864507   0.4336968  )
       125           Fe1 tau( 125) = (   0.8135241   0.8543985   0.5630824  )
       126           Fe2 tau( 126) = (   0.9351183   0.9898420   0.5650991  )
       127           Fe1 tau( 127) = (   0.9251503   0.8543279   0.6955549  )
       128           Fe2 tau( 128) = (   0.8106743   0.9886827   0.6841793  )

     number of k points=     1  Marzari-Vanderbilt smearing, width (Ry)=  0.0400
                       cart. coord. in units 2pi/alat
        k(    1) = (   0.0000000   0.0000000   0.0000000), wk =   1.0000000

     Dense  grid:  1369120 G-vectors     FFT dimensions: ( 180, 180, 180)

     Smooth grid:   734985 G-vectors     FFT dimensions: ( 144, 150, 144)

     Estimated max dynamical RAM per process >     316.28 MB

     Estimated total dynamical RAM >      22.24 GB

     Check: negative core charge=   -0.000004
     Generating pointlists ...
     new r_m :   0.0700 (alat units)  1.8105 (a.u.) for type    1
     new r_m :   0.0711 (alat units)  1.8374 (a.u.) for type    2
     new r_m :   0.0765 (alat units)  1.9795 (a.u.) for type    3

     Initial potential from superposition of free atoms

     starting charge 2047.94379, renormalised to 2048.00000

     negative rho (up, down):  1.856E-04 1.888E-04
     Starting wfcs are 1280 randomized atomic wfcs
     Checking if some PAW data can be deallocated... 

     total cpu time spent up to now is       13.4 secs

     Self-consistent Calculation

     iteration #  1     ecut=    71.00 Ry     beta= 0.30
     Davidson diagonalization with overlap
     ethr =  1.00E-02,  avg # of iterations =  6.0

     negative rho (up, down):  1.757E-01 4.994E+00

     total cpu time spent up to now is       43.9 secs

     total energy              =  -42218.98072163 Ry
     estimated scf accuracy    <    1141.80807753 Ry

     total magnetization       =    -8.77 Bohr mag/cell
     absolute magnetization    =   284.57 Bohr mag/cell

     iteration #  2     ecut=    71.00 Ry     beta= 0.30
     Davidson diagonalization with overlap
     ethr =  1.00E-02,  avg # of iterations =  2.5

     negative rho (up, down):  1.502E-01 4.316E+00

     total cpu time spent up to now is       65.3 secs

     total energy              =  -42223.48395156 Ry
     estimated scf accuracy    <     216.43227229 Ry

     total magnetization       =   -10.07 Bohr mag/cell
     absolute magnetization    =   179.34 Bohr mag/cell

     iteration #  3     ecut=    71.00 Ry     beta= 0.30
     Davidson diagonalization with overlap
     ethr =  1.00E-02,  avg # of iterations =  1.0

     negative rho (up, down):  1.196E-01 3.896E+00

     total cpu time spent up to now is       83.1 secs

     total energy              =  -42236.64056476 Ry
     estimated scf accuracy    <     351.81395389 Ry

     total magnetization       =    -4.77 Bohr mag/cell
     absolute magnetization    =   196.88 Bohr mag/cell

     iteration #  4     ecut=    71.00 Ry     beta= 0.30
     Davidson diagonalization with overlap
     ethr =  1.00E-02,  avg # of iterations =  2.0

     negative rho (up, down):  8.519E-02 3.155E+00

     total cpu time spent up to now is      102.1 secs

     total energy              =  -42240.64856495 Ry
     estimated scf accuracy    <      98.70352004 Ry

     total magnetization       =    -5.38 Bohr mag/cell
     absolute magnetization    =   201.28 Bohr mag/cell

     iteration #  5     ecut=    71.00 Ry     beta= 0.30
     Davidson diagonalization with overlap
     ethr =  4.82E-03,  avg # of iterations =  2.0

     negative rho (up, down):  6.213E-02 2.552E+00

     total cpu time spent up to now is      121.4 secs

     total energy              =  -42241.62769271 Ry
     estimated scf accuracy    <      95.97136314 Ry

     total magnetization       =    -2.26 Bohr mag/cell
     absolute magnetization    =   202.48 Bohr mag/cell

     iteration #  6     ecut=    71.00 Ry     beta= 0.30
     Davidson diagonalization with overlap
     ethr =  4.69E-03,  avg # of iterations =  1.0

     negative rho (up, down):  1.925E-02 9.973E-01

     total cpu time spent up to now is      139.2 secs

     total energy              =  -42242.42033865 Ry
     estimated scf accuracy    <      73.03048874 Ry

     total magnetization       =    -2.33 Bohr mag/cell
     absolute magnetization    =   206.33 Bohr mag/cell

     iteration #  7     ecut=    71.00 Ry     beta= 0.30
     Davidson diagonalization with overlap
     ethr =  3.57E-03,  avg # of iterations =  2.0

     negative rho (up, down):  1.318E-03 7.698E-01

     total cpu time spent up to now is      159.7 secs

     total energy              =  -42240.79120287 Ry
     estimated scf accuracy    <      36.04707143 Ry

     total magnetization       =    -2.40 Bohr mag/cell
     absolute magnetization    =   213.58 Bohr mag/cell

     iteration #  8     ecut=    71.00 Ry     beta= 0.30
     Davidson diagonalization with overlap
     ethr =  1.76E-03,  avg # of iterations =  2.0

     negative rho (up, down):  3.018E-03 1.203E+00

     total cpu time spent up to now is      180.5 secs

     total energy              =  -42241.01435123 Ry
     estimated scf accuracy    <      22.27717006 Ry

     total magnetization       =     0.31 Bohr mag/cell
     absolute magnetization    =   227.86 Bohr mag/cell

     iteration #  9     ecut=    71.00 Ry     beta= 0.30
     Davidson diagonalization with overlap
     ethr =  1.09E-03,  avg # of iterations =  2.0

     negative rho (up, down):  3.691E-03 1.052E+00

     total cpu time spent up to now is      200.8 secs

     total energy              =  -42241.54466486 Ry
     estimated scf accuracy    <      22.24768208 Ry

     total magnetization       =     0.60 Bohr mag/cell
     absolute magnetization    =   232.26 Bohr mag/cell

     iteration # 10     ecut=    71.00 Ry     beta= 0.30
     Davidson diagonalization with overlap
     ethr =  1.09E-03,  avg # of iterations =  1.0

     negative rho (up, down):  2.626E-03 2.772E-01

     total cpu time spent up to now is      218.7 secs

     total energy              =  -42242.38465733 Ry
     estimated scf accuracy    <      15.89723203 Ry

     total magnetization       =    -0.60 Bohr mag/cell
     absolute magnetization    =   232.30 Bohr mag/cell

     iteration # 11     ecut=    71.00 Ry     beta= 0.30
     Davidson diagonalization with overlap
     ethr =  7.76E-04,  avg # of iterations =  2.0

     negative rho (up, down):  2.454E-03 9.862E-02

     total cpu time spent up to now is      239.6 secs

     total energy              =  -42242.51690120 Ry
     estimated scf accuracy    <       4.42732609 Ry

     total magnetization       =    -1.79 Bohr mag/cell
     absolute magnetization    =   228.49 Bohr mag/cell

     iteration # 12     ecut=    71.00 Ry     beta= 0.30
     Davidson diagonalization with overlap
     ethr =  2.16E-04,  avg # of iterations = 15.0

     negative rho (up, down):  1.240E-03 6.766E-02

     total cpu time spent up to now is      264.9 secs

     total energy              =  -42242.55294020 Ry
     estimated scf accuracy    <       1.90998710 Ry

     total magnetization       =    -1.51 Bohr mag/cell
     absolute magnetization    =   228.04 Bohr mag/cell

     iteration # 13     ecut=    71.00 Ry     beta= 0.30
     Davidson diagonalization with overlap
     ethr =  9.33E-05,  avg # of iterations =  2.0

     negative rho (up, down):  1.337E-03 1.332E-02

     total cpu time spent up to now is      285.4 secs

     total energy              =  -42242.45549253 Ry
     estimated scf accuracy    <       1.74392120 Ry

     total magnetization       =    -1.93 Bohr mag/cell
     absolute magnetization    =   226.25 Bohr mag/cell

     iteration # 14     ecut=    71.00 Ry     beta= 0.30
     Davidson diagonalization with overlap
     ethr =  8.52E-05,  avg # of iterations =  1.5

     negative rho (up, down):  1.399E-03 1.674E-03

     total cpu time spent up to now is      304.7 secs

     total energy              =  -42242.39195117 Ry
     estimated scf accuracy    <       1.16500714 Ry

     total magnetization       =    -1.99 Bohr mag/cell
     absolute magnetization    =   228.28 Bohr mag/cell

     iteration # 15     ecut=    71.00 Ry     beta= 0.30
     Davidson diagonalization with overlap
     ethr =  5.69E-05,  avg # of iterations =  2.0

     negative rho (up, down):  1.262E-03 9.760E-04

     total cpu time spent up to now is      325.7 secs

     total energy              =  -42242.37365519 Ry
     estimated scf accuracy    <       0.76234944 Ry

     total magnetization       =    -2.03 Bohr mag/cell
     absolute magnetization    =   229.41 Bohr mag/cell

     iteration # 16     ecut=    71.00 Ry     beta= 0.30
     Davidson diagonalization with overlap
     ethr =  3.72E-05,  avg # of iterations =  2.0

     negative rho (up, down):  1.065E-03 1.051E-03

     total cpu time spent up to now is      346.0 secs

     total energy              =  -42242.35469792 Ry
     estimated scf accuracy    <       0.64450485 Ry

     total magnetization       =    -1.88 Bohr mag/cell
     absolute magnetization    =   229.57 Bohr mag/cell

     iteration # 17     ecut=    71.00 Ry     beta= 0.30
     Davidson diagonalization with overlap
     ethr =  3.15E-05,  avg # of iterations =  2.0

     negative rho (up, down):  1.297E-03 7.829E-04

     total cpu time spent up to now is      367.3 secs

     total energy              =  -42242.30231121 Ry
     estimated scf accuracy    <       0.52517203 Ry

     total magnetization       =    -2.35 Bohr mag/cell
     absolute magnetization    =   229.48 Bohr mag/cell

     iteration # 18     ecut=    71.00 Ry     beta= 0.30
     Davidson diagonalization with overlap
     c_bands:  4 eigenvalues not converged
     ethr =  2.56E-05,  avg # of iterations = 11.0

     negative rho (up, down):  1.980E-03 1.279E-03

     total cpu time spent up to now is      391.2 secs

     total energy              =  -42242.27295821 Ry
     estimated scf accuracy    <       0.42146932 Ry

     total magnetization       =    -2.52 Bohr mag/cell
     absolute magnetization    =   229.64 Bohr mag/cell

     iteration # 19     ecut=    71.00 Ry     beta= 0.30
     Davidson diagonalization with overlap
     c_bands:  1 eigenvalues not converged
     ethr =  2.06E-05,  avg # of iterations = 18.0

     negative rho (up, down):  3.148E-03 2.258E-03

     total cpu time spent up to now is      416.8 secs

     total energy              =  -42242.25841126 Ry
     estimated scf accuracy    <       0.31781609 Ry

     total magnetization       =    -2.47 Bohr mag/cell
     absolute magnetization    =   229.39 Bohr mag/cell

     iteration # 20     ecut=    71.00 Ry     beta= 0.30
     Davidson diagonalization with overlap
     ethr =  1.55E-05,  avg # of iterations =  2.0

     negative rho (up, down):  1.209E-02 1.035E-02

     total cpu time spent up to now is      437.0 secs

     total energy              =  -42242.22821894 Ry
     estimated scf accuracy    <       0.21702331 Ry

     total magnetization       =    -2.66 Bohr mag/cell
     absolute magnetization    =   229.29 Bohr mag/cell

     iteration # 21     ecut=    71.00 Ry     beta= 0.30
     Davidson diagonalization with overlap
     ethr =  1.06E-05,  avg # of iterations =  4.0

     negative rho (up, down):  1.518E-02 1.326E-02

     total cpu time spent up to now is      458.8 secs

     total energy              =  -42242.22622046 Ry
     estimated scf accuracy    <       0.16823311 Ry

     total magnetization       =    -3.00 Bohr mag/cell
     absolute magnetization    =   229.18 Bohr mag/cell

     iteration # 22     ecut=    71.00 Ry     beta= 0.30
     Davidson diagonalization with overlap
     ethr =  8.21E-06,  avg # of iterations =  2.0

     negative rho (up, down):  7.381E-03 6.247E-03

     total cpu time spent up to now is      479.6 secs

     total energy              =  -42242.23743420 Ry
     estimated scf accuracy    <       0.11858571 Ry

     total magnetization       =    -2.84 Bohr mag/cell
     absolute magnetization    =   229.24 Bohr mag/cell

     iteration # 23     ecut=    71.00 Ry     beta= 0.30
     Davidson diagonalization with overlap
     ethr =  5.79E-06,  avg # of iterations =  9.5

     negative rho (up, down):  2.283E-02 2.082E-02

     total cpu time spent up to now is      502.8 secs

     total energy              =  -42242.22493479 Ry
     estimated scf accuracy    <       0.11208540 Ry

     total magnetization       =    -2.75 Bohr mag/cell
     absolute magnetization    =   228.58 Bohr mag/cell

     iteration # 24     ecut=    71.00 Ry     beta= 0.30
     Davidson diagonalization with overlap
     ethr =  5.47E-06,  avg # of iterations =  2.0

     negative rho (up, down):  2.932E-02 2.748E-02

     total cpu time spent up to now is      523.1 secs

     total energy              =  -42242.24827363 Ry
     estimated scf accuracy    <       0.07689203 Ry

     total magnetization       =    -3.08 Bohr mag/cell
     absolute magnetization    =   228.46 Bohr mag/cell

     iteration # 25     ecut=    71.00 Ry     beta= 0.30
     Davidson diagonalization with overlap
     ethr =  3.75E-06,  avg # of iterations =  2.0

     negative rho (up, down):  3.030E-02 2.857E-02

     total cpu time spent up to now is      544.2 secs

     total energy              =  -42242.26356451 Ry
     estimated scf accuracy    <       0.04088417 Ry

     total magnetization       =    -2.99 Bohr mag/cell
     absolute magnetization    =   227.96 Bohr mag/cell

     iteration # 26     ecut=    71.00 Ry     beta= 0.30
     Davidson diagonalization with overlap
     c_bands:  2 eigenvalues not converged
     ethr =  2.00E-06,  avg # of iterations = 11.0

     negative rho (up, down):  1.119E-02 1.036E-02

     total cpu time spent up to now is      568.2 secs

     total energy              =  -42242.27342707 Ry
     estimated scf accuracy    <       0.01262323 Ry

     total magnetization       =    -2.95 Bohr mag/cell
     absolute magnetization    =   227.72 Bohr mag/cell

     iteration # 27     ecut=    71.00 Ry     beta= 0.30
     Davidson diagonalization with overlap
     ethr =  6.16E-07,  avg # of iterations =  2.5

     negative rho (up, down):  6.864E-03 6.281E-03

     total cpu time spent up to now is      589.4 secs

     total energy              =  -42242.27781205 Ry
     estimated scf accuracy    <       0.00890974 Ry

     total magnetization       =    -2.85 Bohr mag/cell
     absolute magnetization    =   227.92 Bohr mag/cell

     iteration # 28     ecut=    71.00 Ry     beta= 0.30
     Davidson diagonalization with overlap
     ethr =  4.35E-07,  avg # of iterations =  2.0

     negative rho (up, down):  1.507E-03 1.188E-03

     total cpu time spent up to now is      609.8 secs

     total energy              =  -42242.28522697 Ry
     estimated scf accuracy    <       0.00423688 Ry

     total magnetization       =    -2.85 Bohr mag/cell
     absolute magnetization    =   228.03 Bohr mag/cell

     iteration # 29     ecut=    71.00 Ry     beta= 0.30
     Davidson diagonalization with overlap
     ethr =  2.07E-07,  avg # of iterations =  6.0

     negative rho (up, down):  1.061E-03 7.477E-04

     total cpu time spent up to now is      634.1 secs

     total energy              =  -42242.28836131 Ry
     estimated scf accuracy    <       0.00215103 Ry

     total magnetization       =    -2.83 Bohr mag/cell
     absolute magnetization    =   228.33 Bohr mag/cell

     iteration # 30     ecut=    71.00 Ry     beta= 0.30
     Davidson diagonalization with overlap
     ethr =  1.05E-07,  avg # of iterations =  4.0

     negative rho (up, down):  1.008E-03 6.952E-04

     total cpu time spent up to now is      656.2 secs

     total energy              =  -42242.28999735 Ry
     estimated scf accuracy    <       0.00131363 Ry

     total magnetization       =    -2.79 Bohr mag/cell
     absolute magnetization    =   228.52 Bohr mag/cell

     iteration # 31     ecut=    71.00 Ry     beta= 0.30
     Davidson diagonalization with overlap
     ethr =  6.41E-08,  avg # of iterations =  2.0

     negative rho (up, down):  1.007E-03 6.948E-04

     total cpu time spent up to now is      676.9 secs

     total energy              =  -42242.29117327 Ry
     estimated scf accuracy    <       0.00082262 Ry

     total magnetization       =    -2.78 Bohr mag/cell
     absolute magnetization    =   228.60 Bohr mag/cell

     iteration # 32     ecut=    71.00 Ry     beta= 0.30
     Davidson diagonalization with overlap
     ethr =  4.02E-08,  avg # of iterations =  3.5

     negative rho (up, down):  1.028E-03 7.174E-04

     total cpu time spent up to now is      698.6 secs

     total energy              =  -42242.29190270 Ry
     estimated scf accuracy    <       0.00054352 Ry

     total magnetization       =    -2.76 Bohr mag/cell
     absolute magnetization    =   228.74 Bohr mag/cell

     iteration # 33     ecut=    71.00 Ry     beta= 0.30
     Davidson diagonalization with overlap
     ethr =  2.65E-08,  avg # of iterations =  4.0

     negative rho (up, down):  1.035E-03 7.265E-04

     total cpu time spent up to now is      721.2 secs

     total energy              =  -42242.29205950 Ry
     estimated scf accuracy    <       0.00038168 Ry

     total magnetization       =    -2.75 Bohr mag/cell
     absolute magnetization    =   228.83 Bohr mag/cell

     iteration # 34     ecut=    71.00 Ry     beta= 0.30
     Davidson diagonalization with overlap
     ethr =  1.86E-08,  avg # of iterations =  2.0

     negative rho (up, down):  1.159E-03 8.584E-04

     total cpu time spent up to now is      741.9 secs

     total energy              =  -42242.29249032 Ry
     estimated scf accuracy    <       0.00031380 Ry

     total magnetization       =    -2.76 Bohr mag/cell
     absolute magnetization    =   228.85 Bohr mag/cell

     iteration # 35     ecut=    71.00 Ry     beta= 0.30
     Davidson diagonalization with overlap
     ethr =  1.53E-08,  avg # of iterations =  5.0

     negative rho (up, down):  1.621E-03 1.334E-03

     total cpu time spent up to now is      765.7 secs

     total energy              =  -42242.29281044 Ry
     estimated scf accuracy    <       0.00031002 Ry

     total magnetization       =    -2.76 Bohr mag/cell
     absolute magnetization    =   228.94 Bohr mag/cell

     iteration # 36     ecut=    71.00 Ry     beta= 0.30
     Davidson diagonalization with overlap
     ethr =  1.51E-08,  avg # of iterations =  4.5

     negative rho (up, down):  1.856E-03 1.572E-03

     total cpu time spent up to now is      788.3 secs

     total energy              =  -42242.29291958 Ry
     estimated scf accuracy    <       0.00014216 Ry

     total magnetization       =    -2.76 Bohr mag/cell
     absolute magnetization    =   228.99 Bohr mag/cell

     iteration # 37     ecut=    71.00 Ry     beta= 0.30
     Davidson diagonalization with overlap
     ethr =  6.94E-09,  avg # of iterations =  3.5

     negative rho (up, down):  2.307E-03 2.029E-03

     total cpu time spent up to now is      810.7 secs

     total energy              =  -42242.29297809 Ry
     estimated scf accuracy    <       0.00015707 Ry

     total magnetization       =    -2.76 Bohr mag/cell
     absolute magnetization    =   229.01 Bohr mag/cell

     iteration # 38     ecut=    71.00 Ry     beta= 0.30
     Davidson diagonalization with overlap
     ethr =  6.94E-09,  avg # of iterations =  4.0

     negative rho (up, down):  2.659E-03 2.383E-03

     total cpu time spent up to now is      832.9 secs

     total energy              =  -42242.29302676 Ry
     estimated scf accuracy    <       0.00012861 Ry

     total magnetization       =    -2.76 Bohr mag/cell
     absolute magnetization    =   229.01 Bohr mag/cell

     iteration # 39     ecut=    71.00 Ry     beta= 0.30
     Davidson diagonalization with overlap
     ethr =  6.28E-09,  avg # of iterations =  3.5

     negative rho (up, down):  2.882E-03 2.608E-03

     total cpu time spent up to now is      854.5 secs

     total energy              =  -42242.29306749 Ry
     estimated scf accuracy    <       0.00011913 Ry

     total magnetization       =    -2.77 Bohr mag/cell
     absolute magnetization    =   229.02 Bohr mag/cell

     iteration # 40     ecut=    71.00 Ry     beta= 0.30
     Davidson diagonalization with overlap
     ethr =  5.82E-09,  avg # of iterations =  5.0

     negative rho (up, down):  3.252E-03 2.979E-03

     total cpu time spent up to now is      876.5 secs

     total energy              =  -42242.29310706 Ry
     estimated scf accuracy    <       0.00011591 Ry

     total magnetization       =    -2.77 Bohr mag/cell
     absolute magnetization    =   229.03 Bohr mag/cell

     iteration # 41     ecut=    71.00 Ry     beta= 0.30
     Davidson diagonalization with overlap
     ethr =  5.66E-09,  avg # of iterations =  5.0

     negative rho (up, down):  2.982E-03 2.707E-03

     total cpu time spent up to now is      904.0 secs

     total energy              =  -42242.29327351 Ry
     estimated scf accuracy    <       0.00010860 Ry

     total magnetization       =    -2.78 Bohr mag/cell
     absolute magnetization    =   229.05 Bohr mag/cell

     iteration # 42     ecut=    71.00 Ry     beta= 0.30
     Davidson diagonalization with overlap
     ethr =  5.30E-09,  avg # of iterations =  5.0

     negative rho (up, down):  3.263E-03 2.989E-03

     total cpu time spent up to now is      929.3 secs

     total energy              =  -42242.29250051 Ry
     estimated scf accuracy    <       0.00011232 Ry

     total magnetization       =    -2.79 Bohr mag/cell
     absolute magnetization    =   229.05 Bohr mag/cell

     iteration # 43     ecut=    71.00 Ry     beta= 0.30
     Davidson diagonalization with overlap
     ethr =  5.30E-09,  avg # of iterations =  7.0

     negative rho (up, down):  2.757E-03 2.484E-03

     total cpu time spent up to now is      971.0 secs

     total energy              =  -42242.29381254 Ry
     estimated scf accuracy    <       0.00006512 Ry

     total magnetization       =    -2.83 Bohr mag/cell
     absolute magnetization    =   229.12 Bohr mag/cell

     iteration # 44     ecut=    71.00 Ry     beta= 0.30
     Davidson diagonalization with overlap
     ethr =  3.18E-09,  avg # of iterations =  5.0

     negative rho (up, down):  2.575E-03 2.304E-03

     total cpu time spent up to now is      994.1 secs

     total energy              =  -42242.29384843 Ry
     estimated scf accuracy    <       0.00006748 Ry

     total magnetization       =    -2.85 Bohr mag/cell
     absolute magnetization    =   229.11 Bohr mag/cell

     iteration # 45     ecut=    71.00 Ry     beta= 0.30
     Davidson diagonalization with overlap
     ethr =  3.18E-09,  avg # of iterations =  5.0

     negative rho (up, down):  2.379E-03 2.110E-03

     total cpu time spent up to now is     1021.0 secs

     total energy              =  -42242.29386852 Ry
     estimated scf accuracy    <       0.00004963 Ry

     total magnetization       =    -2.86 Bohr mag/cell
     absolute magnetization    =   229.09 Bohr mag/cell

     iteration # 46     ecut=    71.00 Ry     beta= 0.30
     Davidson diagonalization with overlap
     ethr =  2.42E-09,  avg # of iterations =  5.5

     negative rho (up, down):  2.116E-03 1.847E-03

     total cpu time spent up to now is     1052.6 secs

     total energy              =  -42242.29402413 Ry
     estimated scf accuracy    <       0.00004654 Ry

     total magnetization       =    -2.88 Bohr mag/cell
     absolute magnetization    =   229.10 Bohr mag/cell

     iteration # 47     ecut=    71.00 Ry     beta= 0.30
     Davidson diagonalization with overlap
     ethr =  2.27E-09,  avg # of iterations =  5.0

     negative rho (up, down):  2.252E-03 1.990E-03

     total cpu time spent up to now is     1078.4 secs

     total energy              =  -42242.29377395 Ry
     estimated scf accuracy    <       0.00003493 Ry

     total magnetization       =    -2.90 Bohr mag/cell
     absolute magnetization    =   229.09 Bohr mag/cell

     iteration # 48     ecut=    71.00 Ry     beta= 0.30
     Davidson diagonalization with overlap
     ethr =  1.71E-09,  avg # of iterations =  8.0

     negative rho (up, down):  1.954E-03 1.692E-03

     total cpu time spent up to now is     1120.0 secs

     total energy              =  -42242.29417498 Ry
     estimated scf accuracy    <       0.00002774 Ry

     total magnetization       =    -2.94 Bohr mag/cell
     absolute magnetization    =   229.11 Bohr mag/cell

     iteration # 49     ecut=    71.00 Ry     beta= 0.30
     Davidson diagonalization with overlap
     ethr =  1.35E-09,  avg # of iterations =  4.0

     negative rho (up, down):  1.899E-03 1.638E-03

     total cpu time spent up to now is     1142.5 secs

     total energy              =  -42242.29418030 Ry
     estimated scf accuracy    <       0.00003149 Ry

     total magnetization       =    -2.96 Bohr mag/cell
     absolute magnetization    =   229.05 Bohr mag/cell

     iteration # 50     ecut=    71.00 Ry     beta= 0.30
     Davidson diagonalization with overlap
     ethr =  1.35E-09,  avg # of iterations =  5.0

     negative rho (up, down):  1.839E-03 1.579E-03

     total cpu time spent up to now is     1168.6 secs

     total energy              =  -42242.29419365 Ry
     estimated scf accuracy    <       0.00001761 Ry

     total magnetization       =    -2.98 Bohr mag/cell
     absolute magnetization    =   229.04 Bohr mag/cell

     iteration # 51     ecut=    71.00 Ry     beta= 0.30
     Davidson diagonalization with overlap
     ethr =  8.60E-10,  avg # of iterations =  5.0

     negative rho (up, down):  1.731E-03 1.472E-03

     total cpu time spent up to now is     1199.0 secs

     total energy              =  -42242.29418531 Ry
     estimated scf accuracy    <       0.00001314 Ry

     total magnetization       =    -3.00 Bohr mag/cell
     absolute magnetization    =   229.01 Bohr mag/cell

     iteration # 52     ecut=    71.00 Ry     beta= 0.30
     Davidson diagonalization with overlap
     ethr =  6.42E-10,  avg # of iterations =  8.0

     negative rho (up, down):  1.601E-03 1.342E-03

     total cpu time spent up to now is     1234.9 secs

     total energy              =  -42242.29422743 Ry
     estimated scf accuracy    <       0.00001489 Ry

     total magnetization       =    -3.03 Bohr mag/cell
     absolute magnetization    =   229.00 Bohr mag/cell

     iteration # 53     ecut=    71.00 Ry     beta= 0.30
     Davidson diagonalization with overlap
     ethr =  6.42E-10,  avg # of iterations =  6.0

     negative rho (up, down):  1.596E-03 1.337E-03

     total cpu time spent up to now is     1266.8 secs

     total energy              =  -42242.29425957 Ry
     estimated scf accuracy    <       0.00000710 Ry

     total magnetization       =    -3.05 Bohr mag/cell
     absolute magnetization    =   228.95 Bohr mag/cell

     iteration # 54     ecut=    71.00 Ry     beta= 0.30
     Davidson diagonalization with overlap
     ethr =  3.47E-10,  avg # of iterations =  5.0

     negative rho (up, down):  1.616E-03 1.359E-03

     total cpu time spent up to now is     1294.9 secs

     total energy              =  -42242.29425941 Ry
     estimated scf accuracy    <       0.00000584 Ry

     total magnetization       =    -3.07 Bohr mag/cell
     absolute magnetization    =   228.92 Bohr mag/cell

     iteration # 55     ecut=    71.00 Ry     beta= 0.30
     Davidson diagonalization with overlap
     ethr =  2.85E-10,  avg # of iterations =  5.0

     negative rho (up, down):  1.656E-03 1.400E-03

     total cpu time spent up to now is     1327.1 secs

     total energy              =  -42242.29428056 Ry
     estimated scf accuracy    <       0.00000468 Ry

     total magnetization       =    -3.09 Bohr mag/cell
     absolute magnetization    =   228.92 Bohr mag/cell

     iteration # 56     ecut=    71.00 Ry     beta= 0.30
     Davidson diagonalization with overlap
     ethr =  2.29E-10,  avg # of iterations =  5.0

     negative rho (up, down):  1.752E-03 1.497E-03

     total cpu time spent up to now is     1353.9 secs

     total energy              =  -42242.29429126 Ry
     estimated scf accuracy    <       0.00000397 Ry

     total magnetization       =    -3.09 Bohr mag/cell
     absolute magnetization    =   228.91 Bohr mag/cell

     iteration # 57     ecut=    71.00 Ry     beta= 0.30
     Davidson diagonalization with overlap
     ethr =  1.94E-10,  avg # of iterations =  4.5

     negative rho (up, down):  1.812E-03 1.558E-03

     total cpu time spent up to now is     1378.3 secs

     total energy              =  -42242.29429564 Ry
     estimated scf accuracy    <       0.00000315 Ry

     total magnetization       =    -3.10 Bohr mag/cell
     absolute magnetization    =   228.90 Bohr mag/cell

     iteration # 58     ecut=    71.00 Ry     beta= 0.30
     Davidson diagonalization with overlap
     ethr =  1.54E-10,  avg # of iterations =  4.0

     negative rho (up, down):  1.817E-03 1.564E-03

     total cpu time spent up to now is     1400.1 secs

     total energy              =  -42242.29429399 Ry
     estimated scf accuracy    <       0.00000330 Ry

     total magnetization       =    -3.10 Bohr mag/cell
     absolute magnetization    =   228.89 Bohr mag/cell

     iteration # 59     ecut=    71.00 Ry     beta= 0.30
     Davidson diagonalization with overlap
     ethr =  1.54E-10,  avg # of iterations =  5.5

     negative rho (up, down):  1.894E-03 1.642E-03

     total cpu time spent up to now is     1430.4 secs

     total energy              =  -42242.29430058 Ry
     estimated scf accuracy    <       0.00000318 Ry

     total magnetization       =    -3.11 Bohr mag/cell
     absolute magnetization    =   228.88 Bohr mag/cell

     iteration # 60     ecut=    71.00 Ry     beta= 0.30
     Davidson diagonalization with overlap
     ethr =  1.54E-10,  avg # of iterations =  4.0

     negative rho (up, down):  1.947E-03 1.695E-03

     total cpu time spent up to now is     1455.4 secs

     total energy              =  -42242.29430293 Ry
     estimated scf accuracy    <       0.00000212 Ry

     total magnetization       =    -3.11 Bohr mag/cell
     absolute magnetization    =   228.86 Bohr mag/cell

     iteration # 61     ecut=    71.00 Ry     beta= 0.30
     Davidson diagonalization with overlap
     ethr =  1.03E-10,  avg # of iterations =  5.0

     negative rho (up, down):  1.959E-03 1.708E-03

     total cpu time spent up to now is     1480.9 secs

     total energy              =  -42242.29430253 Ry
     estimated scf accuracy    <       0.00000235 Ry

     total magnetization       =    -3.11 Bohr mag/cell
     absolute magnetization    =   228.84 Bohr mag/cell

     iteration # 62     ecut=    71.00 Ry     beta= 0.30
     Davidson diagonalization with overlap
     ethr =  1.03E-10,  avg # of iterations =  5.0

     negative rho (up, down):  1.985E-03 1.734E-03

     total cpu time spent up to now is     1510.8 secs

     total energy              =  -42242.29430422 Ry
     estimated scf accuracy    <       0.00000190 Ry

     total magnetization       =    -3.12 Bohr mag/cell
     absolute magnetization    =   228.82 Bohr mag/cell

     iteration # 63     ecut=    71.00 Ry     beta= 0.30
     Davidson diagonalization with overlap
     ethr =  9.30E-11,  avg # of iterations =  5.0

     negative rho (up, down):  1.963E-03 1.712E-03

     total cpu time spent up to now is     1540.8 secs

     total energy              =  -42242.29430935 Ry
     estimated scf accuracy    <       0.00000142 Ry

     total magnetization       =    -3.13 Bohr mag/cell
     absolute magnetization    =   228.80 Bohr mag/cell

     iteration # 64     ecut=    71.00 Ry     beta= 0.30
     Davidson diagonalization with overlap
     ethr =  6.92E-11,  avg # of iterations =  2.0

     negative rho (up, down):  1.988E-03 1.737E-03

     total cpu time spent up to now is     1562.1 secs

     total energy              =  -42242.29430426 Ry
     estimated scf accuracy    <       0.00000145 Ry

     total magnetization       =    -3.13 Bohr mag/cell
     absolute magnetization    =   228.79 Bohr mag/cell

     iteration # 65     ecut=    71.00 Ry     beta= 0.30
     Davidson diagonalization with overlap
     ethr =  6.92E-11,  avg # of iterations =  8.0

     negative rho (up, down):  1.979E-03 1.729E-03

     total cpu time spent up to now is     1597.7 secs

     total energy              =  -42242.29431174 Ry
     estimated scf accuracy    <       0.00000104 Ry

     total magnetization       =    -3.13 Bohr mag/cell
     absolute magnetization    =   228.75 Bohr mag/cell

     iteration # 66     ecut=    71.00 Ry     beta= 0.30
     Davidson diagonalization with overlap
     ethr =  5.09E-11,  avg # of iterations =  5.0

     negative rho (up, down):  1.963E-03 1.713E-03

     total cpu time spent up to now is     1625.0 secs

     total energy              =  -42242.29431260 Ry
     estimated scf accuracy    <       0.00000097 Ry

     total magnetization       =    -3.14 Bohr mag/cell
     absolute magnetization    =   228.74 Bohr mag/cell

     iteration # 67     ecut=    71.00 Ry     beta= 0.30
     Davidson diagonalization with overlap
     ethr =  4.73E-11,  avg # of iterations =  5.0

     negative rho (up, down):  1.955E-03 1.705E-03

     total cpu time spent up to now is     1652.2 secs

     total energy              =  -42242.29431046 Ry
     estimated scf accuracy    <       0.00000077 Ry

     total magnetization       =    -3.14 Bohr mag/cell
     absolute magnetization    =   228.73 Bohr mag/cell

     iteration # 68     ecut=    71.00 Ry     beta= 0.30
     Davidson diagonalization with overlap
     ethr =  3.75E-11,  avg # of iterations =  6.0

     negative rho (up, down):  1.955E-03 1.706E-03

     total cpu time spent up to now is     1689.3 secs

     total energy              =  -42242.29431439 Ry
     estimated scf accuracy    <       0.00000069 Ry

     total magnetization       =    -3.14 Bohr mag/cell
     absolute magnetization    =   228.70 Bohr mag/cell

     iteration # 69     ecut=    71.00 Ry     beta= 0.30
     Davidson diagonalization with overlap
     ethr =  3.37E-11,  avg # of iterations =  5.0

     negative rho (up, down):  1.950E-03 1.700E-03

     total cpu time spent up to now is     1718.8 secs

     total energy              =  -42242.29431610 Ry
     estimated scf accuracy    <       0.00000036 Ry

     total magnetization       =    -3.13 Bohr mag/cell
     absolute magnetization    =   228.68 Bohr mag/cell

     iteration # 70     ecut=    71.00 Ry     beta= 0.30
     Davidson diagonalization with overlap
     ethr =  1.76E-11,  avg # of iterations =  5.0

     negative rho (up, down):  1.928E-03 1.678E-03

     total cpu time spent up to now is     1741.8 secs

     total energy              =  -42242.29431560 Ry
     estimated scf accuracy    <       0.00000033 Ry

     total magnetization       =    -3.13 Bohr mag/cell
     absolute magnetization    =   228.67 Bohr mag/cell

     iteration # 71     ecut=    71.00 Ry     beta= 0.30
     Davidson diagonalization with overlap
     ethr =  1.59E-11,  avg # of iterations =  6.0

     negative rho (up, down):  1.940E-03 1.690E-03

     total cpu time spent up to now is     1776.9 secs

     total energy              =  -42242.29431659 Ry
     estimated scf accuracy    <       0.00000023 Ry

     total magnetization       =    -3.12 Bohr mag/cell
     absolute magnetization    =   228.67 Bohr mag/cell

     iteration # 72     ecut=    71.00 Ry     beta= 0.30
     Davidson diagonalization with overlap
     ethr =  1.10E-11,  avg # of iterations =  5.0

     negative rho (up, down):  1.930E-03 1.680E-03

     total cpu time spent up to now is     1805.4 secs

     total energy              =  -42242.29431709 Ry
     estimated scf accuracy    <       0.00000023 Ry

     total magnetization       =    -3.12 Bohr mag/cell
     absolute magnetization    =   228.66 Bohr mag/cell

     iteration # 73     ecut=    71.00 Ry     beta= 0.30
     Davidson diagonalization with overlap
     ethr =  1.10E-11,  avg # of iterations =  5.0

     negative rho (up, down):  1.934E-03 1.684E-03

     total cpu time spent up to now is     1830.6 secs

     total energy              =  -42242.29431729 Ry
     estimated scf accuracy    <       0.00000016 Ry

     total magnetization       =    -3.12 Bohr mag/cell
     absolute magnetization    =   228.66 Bohr mag/cell

     iteration # 74     ecut=    71.00 Ry     beta= 0.30
     Davidson diagonalization with overlap
     ethr =  7.92E-12,  avg # of iterations =  2.0

     negative rho (up, down):  1.949E-03 1.699E-03

     total cpu time spent up to now is     1851.5 secs

     total energy              =  -42242.29431717 Ry
     estimated scf accuracy    <       0.00000016 Ry

     total magnetization       =    -3.12 Bohr mag/cell
     absolute magnetization    =   228.66 Bohr mag/cell

     iteration # 75     ecut=    71.00 Ry     beta= 0.30
     Davidson diagonalization with overlap
     ethr =  7.74E-12,  avg # of iterations =  5.0

     negative rho (up, down):  1.956E-03 1.707E-03

     total cpu time spent up to now is     1881.8 secs

     total energy              =  -42242.29431753 Ry
     estimated scf accuracy    <       0.00000015 Ry

     total magnetization       =    -3.12 Bohr mag/cell
     absolute magnetization    =   228.65 Bohr mag/cell

     iteration # 76     ecut=    71.00 Ry     beta= 0.30
     Davidson diagonalization with overlap
     ethr =  7.45E-12,  avg # of iterations =  3.5

     negative rho (up, down):  1.958E-03 1.709E-03

     total cpu time spent up to now is     1905.4 secs

     total energy              =  -42242.29431760 Ry
     estimated scf accuracy    <       0.00000012 Ry

     total magnetization       =    -3.11 Bohr mag/cell
     absolute magnetization    =   228.64 Bohr mag/cell

     iteration # 77     ecut=    71.00 Ry     beta= 0.30
     Davidson diagonalization with overlap
     ethr =  5.64E-12,  avg # of iterations =  5.0

     negative rho (up, down):  1.977E-03 1.727E-03

     total cpu time spent up to now is     1934.1 secs

     total energy              =  -42242.29431715 Ry
     estimated scf accuracy    <       0.00000013 Ry

     total magnetization       =    -3.11 Bohr mag/cell
     absolute magnetization    =   228.64 Bohr mag/cell

     iteration # 78     ecut=    71.00 Ry     beta= 0.30
     Davidson diagonalization with overlap
     ethr =  5.64E-12,  avg # of iterations =  7.0

     negative rho (up, down):  1.986E-03 1.736E-03

     total cpu time spent up to now is     1970.3 secs

     total energy              =  -42242.29431751 Ry
     estimated scf accuracy    <       0.00000009 Ry

     total magnetization       =    -3.11 Bohr mag/cell
     absolute magnetization    =   228.63 Bohr mag/cell

     iteration # 79     ecut=    71.00 Ry     beta= 0.30
     Davidson diagonalization with overlap
     ethr =  4.59E-12,  avg # of iterations =  7.0

     negative rho (up, down):  1.979E-03 1.730E-03

     total cpu time spent up to now is     2005.4 secs

     total energy              =  -42242.29431795 Ry
     estimated scf accuracy    <       0.00000007 Ry

     total magnetization       =    -3.10 Bohr mag/cell
     absolute magnetization    =   228.62 Bohr mag/cell

     iteration # 80     ecut=    71.00 Ry     beta= 0.30
     Davidson diagonalization with overlap
     ethr =  3.47E-12,  avg # of iterations =  4.0

     negative rho (up, down):  1.975E-03 1.725E-03

     total cpu time spent up to now is     2028.9 secs

     total energy              =  -42242.29431802 Ry
     estimated scf accuracy    <       0.00000005 Ry

     total magnetization       =    -3.10 Bohr mag/cell
     absolute magnetization    =   228.62 Bohr mag/cell

     iteration # 81     ecut=    71.00 Ry     beta= 0.30
     Davidson diagonalization with overlap
     ethr =  2.68E-12,  avg # of iterations =  5.0

     negative rho (up, down):  1.962E-03 1.712E-03

     total cpu time spent up to now is     2055.1 secs

     total energy              =  -42242.29431812 Ry
     estimated scf accuracy    <       0.00000004 Ry

     total magnetization       =    -3.10 Bohr mag/cell
     absolute magnetization    =   228.62 Bohr mag/cell

     iteration # 82     ecut=    71.00 Ry     beta= 0.30
     Davidson diagonalization with overlap
     ethr =  2.18E-12,  avg # of iterations =  5.0

     negative rho (up, down):  1.945E-03 1.695E-03

     total cpu time spent up to now is     2083.5 secs

     total energy              =  -42242.29431824 Ry
     estimated scf accuracy    <       0.00000004 Ry

     total magnetization       =    -3.10 Bohr mag/cell
     absolute magnetization    =   228.61 Bohr mag/cell

     iteration # 83     ecut=    71.00 Ry     beta= 0.30
     Davidson diagonalization with overlap
     ethr =  1.93E-12,  avg # of iterations =  4.0

     negative rho (up, down):  1.940E-03 1.690E-03

     total cpu time spent up to now is     2109.0 secs

     total energy              =  -42242.29431827 Ry
     estimated scf accuracy    <       0.00000001 Ry

     total magnetization       =    -3.09 Bohr mag/cell
     absolute magnetization    =   228.61 Bohr mag/cell

     iteration # 84     ecut=    71.00 Ry     beta= 0.30
     Davidson diagonalization with overlap
     ethr =  7.00E-13,  avg # of iterations =  5.0

     negative rho (up, down):  1.937E-03 1.687E-03

     total cpu time spent up to now is     2140.4 secs

     total energy              =  -42242.29431831 Ry
     estimated scf accuracy    <       0.00000001 Ry

     total magnetization       =    -3.09 Bohr mag/cell
     absolute magnetization    =   228.61 Bohr mag/cell

     iteration # 85     ecut=    71.00 Ry     beta= 0.30
     Davidson diagonalization with overlap
     ethr =  6.04E-13,  avg # of iterations =  2.0

     negative rho (up, down):  1.937E-03 1.687E-03

     total cpu time spent up to now is     2161.4 secs

     total energy              =  -42242.29431830 Ry
     estimated scf accuracy    <       0.00000001 Ry

     total magnetization       =    -3.09 Bohr mag/cell
     absolute magnetization    =   228.61 Bohr mag/cell

     iteration # 86     ecut=    71.00 Ry     beta= 0.30
     Davidson diagonalization with overlap
     ethr =  5.28E-13,  avg # of iterations =  5.5

     negative rho (up, down):  1.926E-03 1.676E-03
 
     Magnetic moment per site:
     atom:    1    charge:   14.0708    magn:    2.0854    constr:    0.0000
     atom:    2    charge:   14.1218    magn:   -2.3282    constr:    0.0000
     atom:    3    charge:   14.1497    magn:    1.3785    constr:    0.0000
     atom:    4    charge:   14.2460    magn:   -0.9352    constr:    0.0000
     atom:    5    charge:   14.1573    magn:   -0.6443    constr:    0.0000
     atom:    6    charge:   14.2389    magn:   -1.3067    constr:    0.0000
     atom:    7    charge:   14.0458    magn:    2.3287    constr:    0.0000
     atom:    8    charge:   14.1437    magn:   -2.1710    constr:    0.0000
     atom:    9    charge:   14.0664    magn:    2.1315    constr:    0.0000
     atom:   10    charge:   14.1217    magn:   -2.3280    constr:    0.0000
     atom:   11    charge:   14.1495    magn:    1.3544    constr:    0.0000
     atom:   12    charge:   14.2461    magn:   -0.9336    constr:    0.0000
     atom:   13    charge:   14.1518    magn:    1.1121    constr:    0.0000
     atom:   14    charge:   14.2388    magn:   -1.3094    constr:    0.0000
     atom:   15    charge:   14.0312    magn:    2.3869    constr:    0.0000
     atom:   16    charge:   14.1430    magn:   -2.1740    constr:    0.0000
     atom:   17    charge:   14.0711    magn:    2.0834    constr:    0.0000
     atom:   18    charge:   14.1227    magn:   -2.3345    constr:    0.0000
     atom:   19    charge:   14.1500    magn:    1.3767    constr:    0.0000
     atom:   20    charge:   14.2411    magn:   -0.7554    constr:    0.0000
     atom:   21    charge:   14.1576    magn:   -0.6444    constr:    0.0000
     atom:   22    charge:   14.2186    magn:   -1.5359    constr:    0.0000
     atom:   23    charge:   14.0461    magn:    2.3275    constr:    0.0000
     atom:   24    charge:   14.0984    magn:   -2.4012    constr:    0.0000
     atom:   25    charge:   14.0589    magn:    2.1913    constr:    0.0000
     atom:   26    charge:   14.1228    magn:   -2.3350    constr:    0.0000
     atom:   27    charge:   14.1476    magn:    1.3605    constr:    0.0000
     atom:   28    charge:   14.2410    magn:   -0.7559    constr:    0.0000
     atom:   29    charge:   13.6119    magn:    0.0082    constr:    0.0000
     atom:   30    charge:   14.2181    magn:   -1.5391    constr:    0.0000
     atom:   31    charge:   14.0017    magn:    2.5116    constr:    0.0000
     atom:   32    charge:   14.0974    magn:   -2.4042    constr:    0.0000
     atom:   33    charge:   14.0604    magn:    2.1853    constr:    0.0000
     atom:   34    charge:   14.1244    magn:   -2.3143    constr:    0.0000
     atom:   35    charge:   14.1505    magn:    1.3439    constr:    0.0000
     atom:   36    charge:   14.2523    magn:   -0.7848    constr:    0.0000
     atom:   37    charge:   14.1694    magn:    0.7306    constr:    0.0000
     atom:   38    charge:   14.2430    magn:   -1.3374    constr:    0.0000
     atom:   39    charge:   14.0404    magn:    2.3296    constr:    0.0000
     atom:   40    charge:   14.1531    magn:   -2.1096    constr:    0.0000
     atom:   41    charge:   14.0633    magn:    2.1621    constr:    0.0000
     atom:   42    charge:   14.1244    magn:   -2.3137    constr:    0.0000
     atom:   43    charge:   14.1538    magn:    1.3066    constr:    0.0000
     atom:   44    charge:   14.2520    magn:   -0.7934    constr:    0.0000
     atom:   45    charge:   14.1629    magn:    0.7213    constr:    0.0000
     atom:   46    charge:   14.2427    magn:   -1.3352    constr:    0.0000
     atom:   47    charge:   14.0513    magn:    2.2805    constr:    0.0000
     atom:   48    charge:   14.1520    magn:   -2.1125    constr:    0.0000
     atom:   49    charge:   14.0601    magn:    2.1854    constr:    0.0000
     atom:   50    charge:   14.1232    magn:   -2.3180    constr:    0.0000
     atom:   51    charge:   14.1504    magn:    1.3451    constr:    0.0000
     atom:   52    charge:   14.2521    magn:   -0.6822    constr:    0.0000
     atom:   53    charge:   14.1694    magn:    0.7159    constr:    0.0000
     atom:   54    charge:   14.2370    magn:   -1.3764    constr:    0.0000
     atom:   55    charge:   14.0405    magn:    2.3290    constr:    0.0000
     atom:   56    charge:   14.1669    magn:   -1.9726    constr:    0.0000
     atom:   57    charge:   14.0664    magn:    2.1857    constr:    0.0000
     atom:   58    charge:   14.1231    magn:   -2.3185    constr:    0.0000
     atom:   59    charge:   14.1496    magn:    1.3158    constr:    0.0000
     atom:   60    charge:   14.2521    magn:   -0.6886    constr:    0.0000
     atom:   61    charge:   14.1479    magn:    1.2310    constr:    0.0000
     atom:   62    charge:   14.2367    magn:   -1.3755    constr:    0.0000
     atom:   63    charge:   14.0386    magn:    2.3420    constr:    0.0000
     atom:   64    charge:   14.1664    magn:   -1.9756    constr:    0.0000
     atom:   65    charge:   14.0637    magn:    2.1535    constr:    0.0000
     atom:   66    charge:   14.1247    magn:   -2.3147    constr:    0.0000
     atom:   67    charge:   14.1505    magn:    1.3445    constr:    0.0000
     atom:   68    charge:   14.2545    magn:   -0.8628    constr:    0.0000
     atom:   69    charge:   14.1551    magn:    0.9715    constr:    0.0000
     atom:   70    charge:   14.2434    magn:   -1.3376    constr:    0.0000
     atom:   71    charge:   14.0402    magn:    2.3309    constr:    0.0000
     atom:   72    charge:   14.1440    magn:   -2.1661    constr:    0.0000
     atom:   73    charge:   14.0681    magn:    2.1278    constr:    0.0000
     atom:   74    charge:   14.1245    magn:   -2.3141    constr:    0.0000
     atom:   75    charge:   14.1539    magn:    1.3062    constr:    0.0000
     atom:   76    charge:   14.2542    magn:   -0.8640    constr:    0.0000
     atom:   77    charge:   14.1682    magn:    0.6766    constr:    0.0000
     atom:   78    charge:   14.2429    magn:   -1.3376    constr:    0.0000
     atom:   79    charge:   14.0513    magn:    2.2804    constr:    0.0000
     atom:   80    charge:   14.1440    magn:   -2.1648    constr:    0.0000
     atom:   81    charge:   14.0635    magn:    2.1543    constr:    0.0000
     atom:   82    charge:   14.1234    magn:   -2.3192    constr:    0.0000
     atom:   83    charge:   14.1503    magn:    1.3458    constr:    0.0000
     atom:   84    charge:   14.2492    magn:   -0.9930    constr:    0.0000
     atom:   85    charge:   14.1554    magn:    0.9691    constr:    0.0000
     atom:   86    charge:   14.2371    magn:   -1.3785    constr:    0.0000
     atom:   87    charge:   14.0403    magn:    2.3298    constr:    0.0000
     atom:   88    charge:   14.1331    magn:   -2.2326    constr:    0.0000
     atom:   89    charge:   14.0652    magn:    2.1156    constr:    0.0000
     atom:   90    charge:   14.1233    magn:   -2.3197    constr:    0.0000
     atom:   91    charge:   14.1494    magn:    1.3150    constr:    0.0000
     atom:   92    charge:   14.2490    magn:   -0.9936    constr:    0.0000
     atom:   93    charge:   14.1621    magn:    0.1345    constr:    0.0000
     atom:   94    charge:   14.2367    magn:   -1.3787    constr:    0.0000
     atom:   95    charge:   14.0387    magn:    2.3420    constr:    0.0000
     atom:   96    charge:   14.1328    magn:   -2.2337    constr:    0.0000
     atom:   97    charge:   14.0601    magn:    2.1870    constr:    0.0000
     atom:   98    charge:   14.1214    magn:   -2.3288    constr:    0.0000
     atom:   99    charge:   14.1501    magn:    1.3788    constr:    0.0000
     atom:  100    charge:   14.2523    magn:   -0.7791    constr:    0.0000
     atom:  101    charge:   14.1694    magn:    0.7417    constr:    0.0000
     atom:  102    charge:   14.2394    magn:   -1.3070    constr:    0.0000
     atom:  103    charge:   14.0463    magn:    2.3281    constr:    0.0000
     atom:  104    charge:   14.1533    magn:   -2.1052    constr:    0.0000
     atom:  105    charge:   14.0635    magn:    2.1619    constr:    0.0000
     atom:  106    charge:   14.1214    magn:   -2.3285    constr:    0.0000
     atom:  107    charge:   14.1496    magn:    1.3536    constr:    0.0000
     atom:  108    charge:   14.2522    magn:   -0.7859    constr:    0.0000
     atom:  109    charge:   14.1633    magn:    0.7136    constr:    0.0000
     atom:  110    charge:   14.2391    magn:   -1.3109    constr:    0.0000
     atom:  111    charge:   14.0313    magn:    2.3855    constr:    0.0000
     atom:  112    charge:   14.1526    magn:   -2.1108    constr:    0.0000
     atom:  113    charge:   14.0599    magn:    2.1868    constr:    0.0000
     atom:  114    charge:   14.1229    magn:   -2.3338    constr:    0.0000
     atom:  115    charge:   14.1502    magn:    1.3766    constr:    0.0000
     atom:  116    charge:   14.2524    magn:   -0.6785    constr:    0.0000
     atom:  117    charge:   14.1694    magn:    0.7281    constr:    0.0000
     atom:  118    charge:   14.2189    magn:   -1.5384    constr:    0.0000
     atom:  119    charge:   14.0465    magn:    2.3265    constr:    0.0000
     atom:  120    charge:   14.1669    magn:   -1.9705    constr:    0.0000
     atom:  121    charge:   14.0660    magn:    2.1866    constr:    0.0000
     atom:  122    charge:   14.1230    magn:   -2.3342    constr:    0.0000
     atom:  123    charge:   14.1476    magn:    1.3630    constr:    0.0000
     atom:  124    charge:   14.2521    magn:   -0.6834    constr:    0.0000
     atom:  125    charge:   14.1485    magn:    1.2258    constr:    0.0000
     atom:  126    charge:   14.2182    magn:   -1.5409    constr:    0.0000
     atom:  127    charge:   14.0023    magn:    2.5107    constr:    0.0000
     atom:  128    charge:   14.1663    magn:   -1.9733    constr:    0.0000

     total cpu time spent up to now is     2190.1 secs

     End of self-consistent calculation

 ------ SPIN UP ------------


          k = 0.0000 0.0000 0.0000 ( 91909 PWs)   bands (ev):

   -80.5571 -80.5566 -80.4680 -80.4678 -80.4671 -80.4666 -80.4654 -80.4644
   -80.4482 -80.4479 -80.4265 -80.4264 -80.4258 -80.4256 -80.3997 -80.3991
   -80.2679 -80.2678 -80.2671 -80.2671 -80.2663 -80.2645 -80.2640 -80.2602
   -80.2599 -80.2523 -80.2521 -80.2388 -80.2351 -80.2344 -80.1983 -80.1970
   -79.8521 -79.8514 -79.8513 -79.8507 -79.8330 -79.8326 -79.8236 -79.8234
   -79.8226 -79.8225 -79.8181 -79.8162 -79.8037 -79.8035 -79.8033 -79.8026
   -79.7204 -79.7173 -79.6239 -79.5445 -79.5431 -79.4121 -79.4049 -79.4036
   -79.3958 -79.3938 -79.3894 -79.3685 -79.0045 -78.5866 -78.5846 -78.5837
   -78.5810 -78.5338 -78.5308 -78.5300 -78.5262 -78.5197 -78.5192 -78.5071
   -78.5066 -78.4968 -78.4960 -78.4498 -78.4488 -78.4211 -78.4205 -78.2814
   -78.2807 -78.2793 -78.2784 -78.2776 -78.2768 -78.2766 -78.2763 -78.2532
   -78.2529 -78.2520 -78.2514 -78.1433 -78.1423 -78.1410 -78.1404 -77.8613
   -77.8605 -77.8597 -77.8587 -77.8025 -77.8003 -77.7994 -77.7986 -77.7699
   -77.7692 -77.7519 -77.7518 -77.7515 -77.7513 -77.7502 -77.7497 -77.7496
   -77.7491 -77.7463 -77.7458 -77.7457 -77.7452 -77.7408 -77.7407 -77.7405
   -77.7403 -77.7376 -77.7358 -77.7246 -77.7240 -77.5998 -77.5981 -64.7004
   -46.7119 -46.7114 -46.6218 -46.6199 -46.6197 -46.6192 -46.6187 -46.6183
   -46.5991 -46.5986 -46.5973 -46.5959 -46.5837 -46.5836 -46.5813 -46.5812
   -46.5579 -46.5558 -46.5256 -46.5247 -46.5237 -46.5227 -46.5030 -46.5024
   -46.5015 -46.5005 -46.4997 -46.4990 -46.4810 -46.4807 -46.4801 -46.4801
   -46.4587 -46.4586 -46.4560 -46.4557 -46.4487 -46.4485 -46.4372 -46.4351
   -46.4326 -46.4324 -46.4309 -46.4308 -46.4290 -46.4238 -46.4238 -46.4234
   -46.4222 -46.4208 -46.4144 -46.4142 -46.4091 -46.4008 -46.3992 -46.3975
   -46.3972 -46.3969 -46.3917 -46.3915 -46.3782 -46.3729 -46.3620 -46.3609
   -46.3498 -46.3415 -46.3410 -46.3409 -46.3403 -46.3346 -46.3343 -46.3325
   -46.3320 -46.3238 -46.3233 -46.3128 -46.3045 -46.3031 -46.2730 -46.2718
   -46.2617 -46.2550 -46.2536 -46.2531 -46.2530 -46.2511 -46.2510 -46.2463
   -46.2446 -46.2387 -46.2383 -46.2279 -46.2245 -46.2221 -46.1957 -46.1946
   -45.9399 -45.9386 -45.9367 -45.9362 -45.9251 -45.9236 -45.9171 -45.9158
   -45.9144 -45.9141 -45.9117 -45.9100 -45.9083 -45.9078 -45.9071 -45.9058
   -45.9052 -45.9041 -45.9020 -45.8989 -45.8972 -45.8971 -45.8955 -45.8912
   -45.8892 -45.8885 -45.8860 -45.8832 -45.8821 -45.8815 -45.8813 -45.8787
   -45.8558 -45.8551 -45.8514 -45.8505 -45.8455 -45.8448 -45.8415 -45.8405
   -45.8400 -45.8379 -45.8371 -45.8366 -45.8364 -45.8329 -45.8209 -45.8149
   -45.7793 -45.7759 -45.7300 -45.7254 -45.7187 -45.7151 -45.6902 -45.6832
   -45.6261 -45.6211 -45.6201 -45.5979 -45.5963 -45.5647 -45.5637 -45.5051
   -45.4989 -45.4978 -45.4912 -45.4862 -45.4821 -45.4715 -45.4701 -45.4643
   -45.4633 -45.4564 -45.4474 -45.4440 -45.4430 -45.4371 -45.4347 -45.4319
   -45.4271 -45.4246 -45.4212 -45.4022 -45.1327 -45.0961 -45.0359 -44.7131
   -44.7110 -44.7101 -44.7072 -44.6797 -44.6782 -44.6760 -44.6742 -44.6732
   -44.6726 -44.6640 -44.6631 -44.6557 -44.6527 -44.6516 -44.6478 -44.6473
   -44.6449 -44.6441 -44.6422 -44.6410 -44.6373 -44.6370 -44.6344 -44.6297
   -44.6273 -44.6256 -44.6226 -44.6192 -44.6182 -44.6082 -44.6070 -44.6037
   -44.6013 -44.6006 -44.5969 -44.5738 -44.5728 -44.5725 -44.5708 -44.5685
   -44.5673 -44.5568 -44.5559 -44.5465 -44.5441 -44.5398 -44.5380 -44.5351
   -44.5309 -44.5155 -44.5137 -44.5130 -44.5127 -44.3868 -44.3849 -44.3823
   -44.3812 -44.3804 -44.3796 -44.3768 -44.3762 -44.3713 -44.3704 -44.3698
   -44.3695 -44.3677 -44.3670 -44.3653 -44.3647 -44.3609 -44.3596 -44.3539
   -44.3535 -44.3474 -44.3454 -44.3449 -44.3441 -44.3397 -44.3390 -44.3360
   -44.3331 -44.3328 -44.3314 -44.3284 -44.3245 -44.3177 -44.3173 -44.3141
   -44.3095 -44.2723 -44.2712 -44.2702 -44.2692 -44.2331 -44.2324 -44.2309
   -44.2297 -44.2113 -44.2092 -44.2052 -44.2034 -44.0595 -44.0584 -44.0579
   -44.0567 -43.9827 -43.9803 -43.9791 -43.9781 -43.9423 -43.9410 -43.9385
   -43.9379 -43.9365 -43.9358 -43.9152 -43.9130 -43.9121 -43.9118 -43.9114
   -43.9112 -43.9104 -43.9091 -43.9063 -43.9049 -43.9040 -43.9037 -43.9022
   -43.9013 -43.8998 -43.8992 -43.8931 -43.8922 -43.8907 -43.8895 -43.8892
   -43.8885 -43.8869 -43.8860 -43.8603 -43.8594 -43.8450 -43.8430 -43.8416
   -43.8397 -43.8391 -43.8385 -43.8380 -43.8374 -43.8366 -43.8358 -43.8336
   -43.8330 -43.8320 -43.8315 -43.8283 -43.8275 -43.8263 -43.8262 -43.8252
   -43.8246 -43.8240 -43.8233 -43.8163 -43.8156 -43.7985 -43.7969 -43.7964
   -43.7953 -43.7953 -43.7949 -43.7946 -43.7940 -43.7921 -43.7916 -43.7914
   -43.7909 -43.7908 -43.7902 -43.7875 -43.7871 -43.7867 -43.7863 -43.7833
   -43.7832 -43.7782 -43.7775 -43.7438 -43.7424 -43.7418 -43.7406 -43.7397
   -43.7379 -43.7174 -43.7151 -43.6438 -43.6429 -34.7219 -34.7096 -34.6837
    -0.2641   0.4982   0.5128   0.5671   0.6167   1.2380   1.2574   1.2770
     1.3177   1.3813   2.0649   2.0860   2.1313   2.1719   2.3161   2.5018
     2.6076   2.6109   2.6265   2.6281   2.6304   2.6771   2.8273   2.8848
     2.8862   2.9271   2.9595   2.9880   2.9889   3.0117   3.0245   3.0402
     3.2289   3.2548   3.3351   3.3833   3.3921   3.4102   3.4234   3.4243
     3.4430   3.4666   3.4884   3.4913   3.5069   3.5683   3.5691   3.5769
     3.5770   3.5837   3.6051   3.6209   3.6250   3.6359   3.6533   3.6705
     3.6818   3.6915   3.6977   3.7136   3.7454   3.7505   3.7752   3.7814
     3.8219   3.8223   3.8270   3.8420   3.8521   3.8818   3.8869   3.8898
     3.9128   3.9185   3.9295   3.9521   3.9534   3.9708   3.9724   3.9763
     4.0028   4.0067   4.0315   4.0591   4.0810   4.1547   4.1661   4.1750
     4.1849   4.1856   4.1858   4.1876   4.1960   4.2033   4.2037   4.2379
     4.2451   4.2513   4.2522   4.2560   4.2588   4.2674   4.2784   4.2793
     4.2908   4.3006   4.3032   4.3054   4.3080   4.3119   4.3165   4.3176
     4.3211   4.3361   4.3464   4.3502   4.3504   4.3613   4.3676   4.3722
     4.3857   4.3871   4.3895   4.3961   4.4039   4.4167   4.4279   4.4351
     4.4409   4.4490   4.4570   4.4758   4.4946   4.5046   4.5196   4.5211
     4.5326   4.5408   4.5412   4.5549   4.5599   4.5702   4.5901   4.5960
     4.6094   4.6141   4.6408   4.6465   4.6475   4.6684   4.6813   4.6903
     4.6937   4.7025   4.7127   4.7153   4.7177   4.7246   4.7291   4.7307
     4.7327   4.7549   4.7681   4.7684   4.7763   4.7875   4.7923   4.7974
     4.8081   4.8175   4.8186   4.8238   4.8281   4.8298   4.8448   4.8541
     4.8638   4.8703   4.8754   4.8828   4.8940   4.9065   4.9203   4.9276
     4.9352   4.9354   4.9459   4.9551   4.9627   4.9638   4.9826   5.0325
     5.0826   5.0885   5.0919   5.0931   5.1227   5.1298   5.1458   5.1526
     5.1572   5.2018   5.2133   5.2339   5.2357   5.2459   5.2884   5.2987
     5.3269   5.3680   5.3742   5.3898   5.3956   5.3962   5.3986   5.4056
     5.4060   5.4208   5.4394   5.4415   5.4621   5.4671   5.4732   5.4807
     5.5044   5.5073   5.5109   5.5197   5.5326   5.5387   5.5524   5.5550
     5.5666   5.5719   5.5801   5.5885   5.5917   5.5972   5.6058   5.6093
     5.6104   5.6148   5.6209   5.6263   5.6349   5.6385   5.6393   5.6403
     5.6487   5.6545   5.6677   5.6681   5.6695   5.6957   5.7034   5.7104
     5.7156   5.7193   5.7243   5.7705   5.7968   5.8190   5.8230   5.8290
     5.8291   5.8302   5.8313   5.8385   5.8446   5.8515   5.8656   5.8744
     5.8945   5.9057   5.9216   5.9548   5.9656   5.9702   5.9773   6.0221
     6.0253   6.0342   6.0578   6.0703   6.0896   6.1073   6.1185   6.1205
     6.1230   6.1232   6.1268   6.1325   6.1411   6.1435   6.1492   6.1626
     6.1685   6.1818   6.1862   6.1952   6.2080   6.2119   6.2125   6.2215
     6.2374   6.2417   6.2549   6.2565   6.2566   6.2579   6.2846   6.2901
     6.2963   6.3071   6.3146   6.3177   6.3297   6.3355   6.3396   6.3568
     6.3844   6.4065   6.4166   6.4255   6.4257   6.4270   6.4382   6.4433
     6.4448   6.4547   6.4586   6.4595   6.4665   6.4692   6.4838   6.4916
     6.4929   6.4935   6.5002   6.5075   6.5084   6.5106   6.5163   6.5185
     6.5277   6.5296   6.5301   6.5381   6.5394   6.5446   6.5498   6.5677
     6.5974   6.6033   6.6061   6.6077   6.6102   6.6268   6.6282   6.6378
     6.6422   6.6516   6.6552   6.6608   6.6680   6.6777   6.6859   6.6860
     6.6925   6.6949   6.7093   6.7221   6.7341   6.7344   6.7383   6.7500
     6.7569   6.7607   6.7751   6.7866   6.7977   6.7982   6.8061   6.8086
     6.8152   6.8162   6.8258   6.8266   6.8301   6.8346   6.8370   6.8774
     6.8822   6.8899   6.8916   6.8980   6.9047   6.9086   6.9112   6.9158
     6.9239   6.9364   6.9424   6.9461   6.9543   6.9642   6.9646   6.9812
     6.9816   7.0020   7.0327   7.0456   7.0473   7.0640   7.0646   7.0726
     7.0890   7.1033   7.1075   7.1096   7.1154   7.1230   7.1363   7.1460
     7.1629   7.1639   7.1687   7.1878   7.1972   7.2015   7.2059   7.2119
     7.2143   7.2454   7.2462   7.2728   7.2920   7.3064   7.3463   7.3821
     7.4177   7.4249   7.4305   7.4320   7.4330   7.4414   7.4471   7.4507
     7.4560   7.4592   7.4699   7.4707   7.4841   7.4894   7.5070   7.5206
     7.5246   7.5301   7.5332   7.5372   7.5562   7.5564   7.5913   7.6056
     7.6331   7.6368   7.6517   7.6518   7.6628   7.6628   7.6787   7.6845
     7.6950   7.7028   7.7089   7.7132   7.7232   7.7484   7.7598   7.7633
     7.7652   7.7928   7.8042   7.8243   7.8250   7.8308   7.8377   7.8388
     7.8394   7.8435   7.8542   7.8982   7.9049   7.9138   7.9179   7.9267
     7.9288   7.9419   7.9628   7.9754   7.9866   8.0068   8.0107   8.0234
     8.0260   8.0473   8.0553   8.0590   8.0837   8.0940   8.1031   8.1106
     8.1135   8.1172   8.1256   8.1308   8.1321   8.1394   8.1438   8.1497
     8.1754   8.1993   8.2006   8.2089   8.2440   8.2519   8.2530   8.2570
     8.2746   8.2765   8.2936   8.3073   8.3105   8.3293   8.3506   8.3589
     8.3883   8.4255   8.4340   8.4523   8.4565   8.4704   8.4744   8.4922
     8.5165   8.5395   8.5778   8.5840   8.5906   8.5956   8.6113   8.6290
     8.6337   8.6437   8.6601   8.6793   8.6828   8.6868   8.6898   8.6931
     8.6973   8.6993   8.6997   8.7026   8.7075   8.7101   8.7116   8.7225
     8.7226   8.7265   8.7289   8.7311   8.7329   8.7378   8.7381   8.7394
     8.7435   8.7465   8.7496   8.7548   8.7556   8.7582   8.7657   8.7659
     8.7759   8.7780   8.7889   8.7902   8.7939   8.8206   8.8219   8.8311
     8.8340   8.8389   8.8432   8.8452   8.8537   8.8542   8.8652   8.8665
     8.8682   8.8784   8.8869   8.8879   8.8914   8.8955   8.9050   8.9069
     8.9149   8.9162   8.9182   8.9225   8.9291   8.9478   8.9544   8.9659
     8.9661   8.9787   8.9838   8.9844   8.9903   9.0071   9.0135   9.0193
     9.0328   9.0396   9.0497   9.0516   9.0533   9.0584   9.0722   9.0722
     9.0726   9.0762   9.0886   9.0896   9.0934   9.1002   9.1115   9.1271
     9.1299   9.1379   9.1416   9.1460   9.1506   9.1700   9.1725   9.1742
     9.1782   9.1785   9.1829   9.1916   9.1923   9.1989   9.2018   9.2099
     9.2115   9.2293   9.2296   9.2370   9.2412   9.2460   9.2484   9.2646
     9.2748   9.2802   9.2974   9.3066   9.3159   9.3212   9.3356   9.3392
     9.3405   9.3431   9.3582   9.3618   9.3730   9.3734   9.3809   9.3824
     9.3843   9.3865   9.3872   9.3941   9.4041   9.4175   9.4399   9.4717
     9.4941   9.4982   9.5162   9.5362   9.5369   9.5388   9.5416   9.5829
     9.6384   9.7140   9.8888   9.9581  10.1111  10.2206  10.2473  10.3399
    10.3867  10.3886  10.4001  10.4519  10.4736  10.5158  10.5349  10.5621
    10.6023  10.6058  10.6258  10.6385  10.6409

 ------ SPIN DOWN ----------


          k = 0.0000 0.0000 0.0000 ( 91909 PWs)   bands (ev):

   -80.4278 -80.4275 -80.4271 -80.4269 -80.4157 -80.4153 -80.4148 -80.4144
   -80.4130 -80.4127 -80.4119 -80.4117 -80.4098 -80.4091 -80.4091 -80.4083
   -80.3668 -80.3648 -80.2925 -80.2917 -80.2549 -80.2540 -80.2354 -80.2338
   -80.2209 -80.2197 -80.2192 -80.2164 -80.1192 -80.1176 -80.1175 -80.1160
   -79.9221 -79.9210 -79.9205 -79.9191 -79.8413 -79.8409 -79.8399 -79.8389
   -79.8187 -79.8185 -79.8183 -79.8169 -79.7924 -79.7912 -79.7902 -79.7896
[...]
     3.5886   3.5948   3.6036   3.6077   3.6107   3.6338   3.6427   3.6499
     3.6552   3.6579   3.6923   3.7016   3.7226   3.7450   3.7653   3.7816
     3.7891   3.8028   3.8132   3.8324   3.8354   3.8446   3.8753   3.9024
     3.9089   3.9171   3.9281   3.9342   3.9483   3.9636   3.9733   3.9782
     3.9799   3.9884   4.0206   4.0349   4.0890   4.0943   4.0952   4.1378
     4.1487   4.1622   4.1728   4.1743   4.1776   4.1799   4.1844   4.2028
     4.2063   4.2228   4.2370   4.2575   4.2633   4.2650   4.2678   4.2828
     4.2886   4.2897   4.2946   4.2957   4.2979   4.3008   4.3063   4.3100
     4.3203   4.3362   4.3371   4.3436   4.3487   4.3580   4.3607   4.3642
     4.3714   4.3797   4.3882   4.3889   4.3954   4.3988   4.4095   4.4181
     4.4224   4.4396   4.4421   4.4749   4.5020   4.5103   4.5117   4.5192
     4.5295   4.5334   4.5391   4.5522   4.5633   4.5636   4.5935   4.6140
     4.6171   4.6306   4.6368   4.6436   4.6612   4.6665   4.6685   4.6782
     4.6844   4.7010   4.7118   4.7150   4.7214   4.7285   4.7373   4.7399
     4.7410   4.7468   4.7554   4.7641   4.7656   4.7736   4.7761   4.7833
     4.7886   4.7928   4.8038   4.8207   4.8223   4.8249   4.8264   4.8337
     4.8374   4.8550   4.8655   4.8782   4.8971   4.9081   4.9132   4.9267
     4.9286   4.9359   4.9486   4.9493   4.9526   4.9830   4.9883   5.0373
     5.0553   5.0594   5.0943   5.1097   5.1111   5.1227   5.1322   5.1330
     5.1649   5.2086   5.2170   5.2350   5.2376   5.2641   5.2751   5.3074
     5.3182   5.3240   5.3252   5.3491   5.3595   5.3786   5.3795   5.3930
     5.4014   5.4065   5.4157   5.4324   5.4488   5.4565   5.4622   5.4689
     5.4719   5.4864   5.4947   5.4960   5.5080   5.5119   5.5289   5.5323
     5.5598   5.5604   5.5733   5.5752   5.5923   5.5938   5.6014   5.6023
     5.6033   5.6038   5.6194   5.6231   5.6239   5.6319   5.6324   5.6354
     5.6389   5.6402   5.6449   5.6462   5.6737   5.6813   5.6950   5.7193
     5.7240   5.7264   5.7447   5.7643   5.7805   5.7858   5.8168   5.8193
     5.8279   5.8323   5.8369   5.8403   5.8652   5.8678   5.8731   5.8799
     5.8822   5.8950   5.9169   5.9390   5.9596   5.9628   5.9779   5.9790
     5.9803   5.9989   6.0311   6.0759   6.0873   6.0935   6.0981   6.1094
     6.1246   6.1252   6.1287   6.1310   6.1369   6.1407   6.1472   6.1485
     6.1652   6.1715   6.1776   6.1997   6.2006   6.2034   6.2135   6.2154
     6.2236   6.2265   6.2273   6.2329   6.2414   6.2470   6.2570   6.2771
     6.2868   6.2872   6.2966   6.3024   6.3130   6.3132   6.3382   6.3421
     6.3900   6.3989   6.3995   6.4147   6.4249   6.4277   6.4333   6.4344
     6.4430   6.4480   6.4529   6.4561   6.4614   6.4645   6.4722   6.4768
     6.4818   6.4838   6.4839   6.4879   6.5004   6.5065   6.5092   6.5115
     6.5184   6.5244   6.5249   6.5254   6.5318   6.5336   6.5338   6.5397
     6.5603   6.5609   6.5671   6.5671   6.5775   6.5803   6.5992   6.6060
     6.6091   6.6211   6.6230   6.6233   6.6505   6.6529   6.6571   6.6634
     6.6691   6.6766   6.6796   6.6855   6.7005   6.7019   6.7101   6.7302
     6.7446   6.7476   6.7626   6.7641   6.7649   6.7685   6.7725   6.7826
     6.7849   6.7868   6.7957   6.8015   6.8089   6.8166   6.8186   6.8378
     6.8411   6.8483   6.8487   6.8528   6.8701   6.8792   6.8898   6.8964
     6.8969   6.9029   6.9174   6.9448   6.9520   6.9564   6.9748   6.9752
     6.9808   6.9889   6.9899   6.9978   7.0171   7.0284   7.0287   7.0457
     7.0623   7.0714   7.0756   7.0941   7.0973   7.1074   7.1134   7.1172
     7.1239   7.1418   7.1437   7.1589   7.1602   7.1636   7.1668   7.1685
     7.1890   7.1965   7.2248   7.2541   7.2701   7.2788   7.2895   7.3605
     7.3614   7.3657   7.3713   7.4021   7.4026   7.4087   7.4120   7.4197
     7.4227   7.4264   7.4382   7.4448   7.4607   7.4631   7.4650   7.4797
     7.4827   7.4924   7.5022   7.5058   7.5072   7.5357   7.5462   7.5633
     7.6024   7.6056   7.6170   7.6213   7.6237   7.6271   7.6308   7.6372
     7.6407   7.6791   7.6837   7.6953   7.6961   7.6987   7.7032   7.7160
     7.7370   7.7571   7.7630   7.7709   7.8069   7.8094   7.8135   7.8312
     7.8348   7.8425   7.8537   7.8693   7.8743   7.8837   7.9053   7.9061
     7.9175   7.9195   7.9475   7.9542   7.9735   7.9754   7.9757   7.9846
     7.9882   7.9916   7.9977   8.0247   8.0319   8.0481   8.0486   8.0679
     8.0792   8.0854   8.0892   8.0960   8.1062   8.1131   8.1242   8.1266
     8.1376   8.1380   8.1544   8.1650   8.1679   8.1910   8.2219   8.2324
     8.2385   8.2496   8.2611   8.2750   8.2801   8.2836   8.2850   8.3260
     8.3549   8.3605   8.4052   8.4282   8.4451   8.4581   8.4694   8.4748
     8.4968   8.5254   8.5469   8.5583   8.5604   8.5733   8.5858   8.6088
     8.6115   8.6178   8.6219   8.6225   8.6439   8.6520   8.6582   8.6638
     8.6659   8.6690   8.6697   8.6883   8.6886   8.6945   8.6965   8.6969
     8.7038   8.7051   8.7074   8.7085   8.7153   8.7187   8.7203   8.7221
     8.7233   8.7302   8.7343   8.7365   8.7397   8.7461   8.7544   8.7545
     8.7563   8.7638   8.7658   8.7676   8.7851   8.7886   8.7901   8.7934
     8.7959   8.8016   8.8018   8.8160   8.8218   8.8246   8.8248   8.8298
     8.8331   8.8420   8.8423   8.8549   8.8604   8.8706   8.8717   8.8802
     8.8854   8.8914   8.8941   8.8945   8.9003   8.9069   8.9155   8.9162
     8.9333   8.9414   8.9611   8.9613   8.9669   8.9690   8.9794   8.9813
     8.9940   9.0012   9.0016   9.0107   9.0188   9.0195   9.0288   9.0432
     9.0466   9.0624   9.0640   9.0661   9.0809   9.0824   9.0831   9.0914
     9.0951   9.0988   9.1004   9.1104   9.1185   9.1301   9.1426   9.1516
     9.1537   9.1653   9.1673   9.1732   9.1739   9.1813   9.1842   9.1860
     9.1892   9.2008   9.2030   9.2055   9.2106   9.2164   9.2233   9.2419
     9.2425   9.2571   9.2623   9.2730   9.2737   9.2798   9.2875   9.2916
     9.3003   9.3084   9.3127   9.3161   9.3338   9.3373   9.3401   9.3442
     9.3487   9.3569   9.3786   9.3797   9.3830   9.3909   9.4377   9.4453
     9.4513   9.4590   9.4935   9.5065   9.5083   9.5218   9.5245   9.5897
     9.6373   9.6996   9.8635   9.9550  10.1027  10.1948  10.2337  10.3391
    10.3508  10.3960  10.4113  10.4150  10.4749  10.4934  10.5282  10.5307
    10.5312  10.5397  10.5786  10.6118  10.6457

     the Fermi energy is     8.0931 ev

!    total energy              =  -42242.29431834 Ry

     total all-electron energy =   -332342.466215 Ry
     estimated scf accuracy    <          9.3E-09 Ry
     smearing contrib. (-TS)   =       0.03855238 Ry
     internal energy E=F+TS    =  -42242.33287072 Ry

     The total energy is F=E-TS. E is the sum of the following terms:
     one-electron contribution =  -97551.54057656 Ry
     hartree contribution      =   49278.39536682 Ry
     xc contribution           =   -3546.01153764 Ry
     ewald contribution        =   20328.76560313 Ry
     one-center paw contrib.   =  -10751.94172647 Ry

     total magnetization       =    -3.09 Bohr mag/cell
     absolute magnetization    =   228.61 Bohr mag/cell

     convergence has been achieved in  86 iterations

     negative rho (up, down):  1.926E-03 1.676E-03

     Forces acting on atoms (cartesian axes, Ry/au):

     atom    1 type  1   force =     0.00000301    0.00137762   -0.00158425
     atom    2 type  2   force =    -0.00000079    0.00027744   -0.00012425
     atom    3 type  1   force =    -0.00231788   -0.00243910    0.00121991
     atom    4 type  2   force =    -0.00001990   -0.00025990   -0.00002096
     atom    5 type  1   force =    -0.00000767    0.00215695    0.00148549
     atom    6 type  2   force =     0.00018959   -0.00026987   -0.00015720
     atom    7 type  1   force =    -0.00043091   -0.00089274   -0.00101956
     atom    8 type  2   force =    -0.00001785   -0.00017299    0.00072139
     atom    9 type  1   force =     0.00000800    0.00002576   -0.00039449
     atom   10 type  2   force =    -0.00001185   -0.00027094   -0.00008935
     atom   11 type  1   force =    -0.00029911   -0.00000363   -0.00009774
     atom   12 type  2   force =    -0.00000478    0.00028255   -0.00000096
     atom   13 type  1   force =    -0.00000873    0.00001520   -0.00015039
     atom   14 type  2   force =     0.00020671    0.00029781   -0.00012972
     atom   15 type  1   force =     0.00003258   -0.00001891    0.00008676
     atom   16 type  2   force =     0.00000232    0.00017519    0.00071622
     atom   17 type  1   force =    -0.00000518   -0.00134638   -0.00155333
     atom   18 type  2   force =     0.00007151   -0.00054230   -0.00052189
     atom   19 type  1   force =    -0.00229363    0.00238792    0.00118468
     atom   20 type  2   force =    -0.00002398    0.00916922    0.00867265
     atom   21 type  1   force =    -0.00005016   -0.00208857    0.00152200
     atom   22 type  2   force =    -0.00752456    0.00702489   -0.00142701
     atom   23 type  1   force =    -0.00036917    0.00090795   -0.00099115
     atom   24 type  2   force =    -0.00000265    0.01159782   -0.01039530
     atom   25 type  1   force =     0.00004275   -0.00000807   -0.00004825
     atom   26 type  2   force =     0.00006190    0.00049767   -0.00046827
     atom   27 type  1   force =    -0.01033377    0.00006066    0.01339398
     atom   28 type  2   force =    -0.00000676   -0.00918991    0.00867390
     atom   29 type  3   force =    -0.00005198   -0.00008369    0.01811306
     atom   30 type  2   force =    -0.00746256   -0.00695978   -0.00143185
     atom   31 type  1   force =    -0.01272437    0.00001744   -0.00964887
     atom   32 type  2   force =     0.00005729   -0.01153759   -0.01040965
     atom   33 type  1   force =    -0.00014526   -0.00025302    0.00056599
     atom   34 type  2   force =    -0.00000723    0.00009594    0.00007381
     atom   35 type  1   force =    -0.00021981   -0.00034482   -0.00004585
     atom   36 type  2   force =     0.00029336    0.00009207    0.00029170
     atom   37 type  1   force =     0.00274924    0.00253800   -0.00087391
     atom   38 type  2   force =    -0.00092630   -0.00068527   -0.00023582
     atom   39 type  1   force =     0.00004706   -0.00015718   -0.00008765
     atom   40 type  2   force =     0.00027123    0.00016268   -0.00003173
     atom   41 type  1   force =     0.00037286   -0.00000712   -0.00035751
     atom   42 type  2   force =    -0.00000824   -0.00008611    0.00006942
     atom   43 type  1   force =     0.00009352    0.00000275   -0.00031170
     atom   44 type  2   force =     0.00030394   -0.00011257    0.00027633
     atom   45 type  1   force =     0.00043357   -0.00002982   -0.00018251
     atom   46 type  2   force =    -0.00090541    0.00067563   -0.00024906
     atom   47 type  1   force =     0.00117772   -0.00001740   -0.00027530
     atom   48 type  2   force =     0.00021349   -0.00021767   -0.00006271
     atom   49 type  1   force =    -0.00009415    0.00029957    0.00055834
     atom   50 type  2   force =     0.00019600    0.00001397   -0.00029767
     atom   51 type  1   force =    -0.00021223    0.00033480   -0.00005276
     atom   52 type  2   force =     0.00026261   -0.00055285   -0.00009909
     atom   53 type  1   force =     0.00273074   -0.00260729   -0.00091360
     atom   54 type  2   force =    -0.00016644   -0.00028626    0.00001033
     atom   55 type  1   force =     0.00005842    0.00015987   -0.00007587
     atom   56 type  2   force =     0.00128044   -0.00156403    0.00036492
     atom   57 type  1   force =     0.00293797    0.00001539   -0.00454984
     atom   58 type  2   force =     0.00016660   -0.00008642   -0.00029629
     atom   59 type  1   force =    -0.00047929    0.00004697    0.00017803
     atom   60 type  2   force =     0.00020600    0.00063079   -0.00007689
     atom   61 type  1   force =    -0.00017371   -0.00001651    0.00068383
     atom   62 type  2   force =    -0.00019524    0.00026568   -0.00000101
     atom   63 type  1   force =    -0.00005654   -0.00003273   -0.00045691
     atom   64 type  2   force =     0.00123347    0.00158192    0.00034735
     atom   65 type  1   force =    -0.00001081    0.00035219   -0.00025084
     atom   66 type  2   force =     0.00000455    0.00010802    0.00006069
     atom   67 type  1   force =     0.00021226   -0.00032797   -0.00005604
     atom   68 type  2   force =     0.00000251   -0.00023251   -0.00011767
     atom   69 type  1   force =    -0.00002127   -0.00013363   -0.00020748
     atom   70 type  2   force =     0.00095469   -0.00071360   -0.00023724
     atom   71 type  1   force =    -0.00009007   -0.00015892   -0.00010333
     atom   72 type  2   force =    -0.00000153    0.00000812    0.00001359
     atom   73 type  1   force =    -0.00002761    0.00001666   -0.00052466
     atom   74 type  2   force =     0.00000496   -0.00008398    0.00008360
     atom   75 type  1   force =    -0.00007800    0.00000785   -0.00032982
     atom   76 type  2   force =     0.00000027    0.00024724   -0.00015149
     atom   77 type  1   force =     0.00002672    0.00001228   -0.00059493
     atom   78 type  2   force =     0.00092970    0.00069077   -0.00023610
     atom   79 type  1   force =    -0.00105371   -0.00000007   -0.00028332
     atom   80 type  2   force =     0.00001107    0.00001850    0.00003481
     atom   81 type  1   force =     0.00000002   -0.00032604   -0.00025429
     atom   82 type  2   force =    -0.00019457    0.00001496   -0.00025501
     atom   83 type  1   force =     0.00020937    0.00031925   -0.00003409
     atom   84 type  2   force =    -0.00000442    0.00007962    0.00009671
     atom   85 type  1   force =    -0.00000384    0.00013731   -0.00022540
     atom   86 type  2   force =     0.00026864   -0.00029470    0.00001928
     atom   87 type  1   force =    -0.00008924    0.00014702   -0.00009251
     atom   88 type  2   force =     0.00002597   -0.00018317   -0.00005757
     atom   89 type  1   force =     0.00000639    0.00005141    0.00035428
     atom   90 type  2   force =    -0.00023646   -0.00005065   -0.00027485
     atom   91 type  1   force =     0.00050002    0.00002816    0.00014558
     atom   92 type  2   force =     0.00000431   -0.00003526    0.00015414
     atom   93 type  1   force =     0.00005669   -0.00000013   -0.00046471
     atom   94 type  2   force =     0.00024438    0.00028174    0.00003944
     atom   95 type  1   force =     0.00004544   -0.00002856   -0.00043293
     atom   96 type  2   force =     0.00003596    0.00019804   -0.00008187
     atom   97 type  1   force =     0.00014377   -0.00028895    0.00052277
     atom   98 type  2   force =    -0.00003545    0.00026605   -0.00010091
     atom   99 type  1   force =     0.00233853   -0.00244272    0.00118727
     atom  100 type  2   force =    -0.00030703    0.00008384    0.00026332
     atom  101 type  1   force =    -0.00281170    0.00252220   -0.00092880
     atom  102 type  2   force =    -0.00018153   -0.00031724   -0.00013987
     atom  103 type  1   force =     0.00037153   -0.00090749   -0.00098703
     atom  104 type  2   force =    -0.00019483    0.00006995   -0.00001961
     atom  105 type  1   force =    -0.00037184    0.00004225   -0.00037913
     atom  106 type  2   force =     0.00000239   -0.00028996   -0.00009813
     atom  107 type  1   force =     0.00028443    0.00000748   -0.00011986
     atom  108 type  2   force =    -0.00030952   -0.00008551    0.00025965
     atom  109 type  1   force =    -0.00043730   -0.00002804   -0.00023689
     atom  110 type  2   force =    -0.00017393    0.00030454   -0.00013377
     atom  111 type  1   force =    -0.00008254    0.00002201    0.00008745
     atom  112 type  2   force =    -0.00022178   -0.00021239   -0.00006686
     atom  113 type  1   force =     0.00013218    0.00028455    0.00054292
     atom  114 type  2   force =    -0.00009030   -0.00051689   -0.00053316
     atom  115 type  1   force =     0.00233644    0.00240925    0.00119598
     atom  116 type  2   force =    -0.00026620   -0.00059272   -0.00007567
     atom  117 type  1   force =    -0.00279978   -0.00262855   -0.00098791
     atom  118 type  2   force =     0.00746488    0.00695436   -0.00143196
     atom  119 type  1   force =     0.00031083    0.00089700   -0.00091647
     atom  120 type  2   force =    -0.00118479   -0.00161230    0.00036204
     atom  121 type  1   force =    -0.00308477    0.00003130   -0.00461275
     atom  122 type  2   force =    -0.00005992    0.00047045   -0.00050113
     atom  123 type  1   force =     0.01054616    0.00001002    0.01337533
     atom  124 type  2   force =    -0.00025702    0.00067062   -0.00005754
     atom  125 type  1   force =     0.00017466   -0.00002626    0.00061417
     atom  126 type  2   force =     0.00746127   -0.00694217   -0.00146617
     atom  127 type  1   force =     0.01263274    0.00003087   -0.00966724
     atom  128 type  2   force =    -0.00120778    0.00161788    0.00030204

     Total force =     0.053701     Total SCF correction =     0.000234


     Computing stress (Cartesian axis) and pressure


     negative rho (up, down):  1.926E-03 1.676E-03
          total   stress  (Ry/bohr**3)                   (kbar)     P=      -22.02
  -0.00015266  -0.00000000  -0.00000018          -22.46       -0.00       -0.03
  -0.00000000  -0.00011622   0.00000090           -0.00      -17.10        0.13
  -0.00000018   0.00000090  -0.00018012           -0.03        0.13      -26.50


     Writing output data file /scratch/bxp912/feruslab1.save/
 
     init_run     :      9.32s CPU      9.92s WALL (       1 calls)
     electrons    :   2126.19s CPU   2176.97s WALL (       1 calls)
     forces       :      5.16s CPU      5.33s WALL (       1 calls)
     stress       :    112.69s CPU    113.27s WALL (       1 calls)

     Called by init_run:
     wfcinit      :      6.37s CPU      6.73s WALL (       1 calls)
     potinit      :      1.04s CPU      1.12s WALL (       1 calls)
     hinit0       :      1.10s CPU      1.15s WALL (       1 calls)

     Called by electrons:
     c_bands      :   1800.86s CPU   1835.90s WALL (      86 calls)
     sum_band     :    224.80s CPU    233.11s WALL (      86 calls)
     v_of_rho     :     12.69s CPU     13.63s WALL (      87 calls)
     newd         :     24.62s CPU     29.78s WALL (      87 calls)
     PAW_pot      :     53.22s CPU     54.03s WALL (      87 calls)
     mix_rho      :      8.35s CPU      8.88s WALL (      86 calls)

     Called by c_bands:
     init_us_2    :      8.51s CPU      8.65s WALL (     350 calls)
     regterg      :   1769.66s CPU   1803.37s WALL (     172 calls)

     Called by *egterg:
     rdiaghg      :    204.59s CPU    207.00s WALL (     961 calls)
     h_psi        :    692.92s CPU    702.70s WALL (     963 calls)
     s_psi        :    133.19s CPU    136.96s WALL (     963 calls)
     g_psi        :      2.71s CPU      2.74s WALL (     789 calls)

     Called by h_psi:
     h_psi:calbec :    171.55s CPU    172.82s WALL (     963 calls)
     vloc_psi     :    378.57s CPU    382.96s WALL (     963 calls)
     add_vuspsi   :    137.58s CPU    141.67s WALL (     963 calls)

     General routines
     calbec       :    244.80s CPU    246.53s WALL (    1145 calls)
     fft          :     11.94s CPU     12.15s WALL (    1854 calls)
     ffts         :      3.94s CPU      4.01s WALL (    1821 calls)
     fftw         :    386.63s CPU    390.93s WALL (  609964 calls)
     interpolate  :      1.68s CPU      1.72s WALL (     174 calls)
 
     Parallel routines
     fft_scatt_xy :     50.03s CPU     50.47s WALL (  613639 calls)
     fft_scatt_yz :    263.99s CPU    267.26s WALL (  613639 calls)
 
     PWSCF        :  37m39.44s CPU  38m33.59s WALL

 
   This run was terminated on:  14:27:21  29May2022            

=------------------------------------------------------------------------------=
   JOB DONE.
=------------------------------------------------------------------------------=
