
     Program PWSCF v.6.7MaX starts on  2Jan2022 at 21:10:33 

     This program is part of the open-source Quantum ESPRESSO suite
     for quantum simulation of materials; please cite
         "P. Giannozzi et al., J. Phys.:Condens. Matter 21 395502 (2009);
         "P. Giannozzi et al., J. Phys.:Condens. Matter 29 465901 (2017);
          URL http://www.quantum-espresso.org", 
     in publications or presentations arising from this work. More details at
     http://www.quantum-espresso.org/quote

     Parallel version (MPI & OpenMP), running on      72 processor cores
     Number of MPI processes:                72
     Threads/MPI process:                     1

     MPI processes distributed on     1 nodes
     R & G space division:  proc/nbgrp/npool/nimage =      72
     Reading input from ru_100_1.in
Warning: card &CELL ignored
Warning: card CELL_DYNAMICS = 'BFGS', ignored
Warning: card CELL_FACTOR = 2.0, ignored
Warning: card PRESS = 0.0, ignored
Warning: card / ignored

     Current dimensions of program PWSCF are:
     Max number of different atomic species (ntypx) = 10
     Max number of k-points (npk) =  40000
     Max angular momentum in pseudopotentials (lmaxx) =  3
     file Ru.pbe-spn-kjpaw_psl.1.0.0.UPF: wavefunction(s)  4D renormalized

     Subspace diagonalization in iterative solution of the eigenvalue problem:
     one sub-group per band group will be used
     ELPA distributed-memory algorithm (size of sub-group:  8*  8 procs)

     Message from routine setup:
     using ibrav=0 with symmetry is DISCOURAGED, use correct ibrav instead
 
     Parallelization info
     --------------------
     sticks:   dense  smooth     PW     G-vecs:    dense   smooth      PW
     Min          98      65     17                 6240     3351     475
     Max          99      66     18                 6245     3355     482
     Sum        7113    4693   1281               449479   241377   34457
 


     bravais-lattice index     =            0
     lattice parameter (alat)  =      14.4007  a.u.
     unit-cell volume          =    2986.4454 (a.u.)^3
     number of atoms/cell      =           33
     number of atomic types    =            1
     number of electrons       =       528.00
     number of Kohn-Sham states=          317
     kinetic-energy cutoff     =      71.0000  Ry
     charge density cutoff     =     430.0000  Ry
     scf convergence threshold =      1.0E-06
     mixing beta               =       0.1000
     number of iterations used =           10  TF        mixing
     Exchange-correlation= SLA  PW   PBX  PBC
                           (   1   4   3   4   0   0   0)

     celldm(1)=  14.400742  celldm(2)=   0.000000  celldm(3)=   0.000000
     celldm(4)=   0.000000  celldm(5)=   0.000000  celldm(6)=   0.000000

     crystal axes: (cart. coord. in units of alat)
               a(1) = (   1.000000   0.000000   0.000000 )  
               a(2) = (   0.000000   1.000000   0.000000 )  
               a(3) = (   0.000000   0.000000   1.000000 )  

     reciprocal axes: (cart. coord. in units 2 pi/alat)
               b(1) = (  1.000000  0.000000  0.000000 )  
               b(2) = (  0.000000  1.000000  0.000000 )  
               b(3) = (  0.000000  0.000000  1.000000 )  


     PseudoPot. # 1 for Ru read from file:
     /rds/homes/b/bxp912/pp/Ru.pbe-spn-kjpaw_psl.1.0.0.UPF
     MD5 check sum: 0ae1f594dea09af7be8575c3a481d1ae
     Pseudo is Projector augmented-wave + core cor, Zval = 16.0
     Generated using "atomic" code by A. Dal Corso  v.5.1
     Shape of augmentation charge: PSQ
     Using radial grid of 1233 points,  6 beta functions with: 
                l(1) =   0
                l(2) =   0
                l(3) =   1
                l(4) =   1
                l(5) =   2
                l(6) =   2
     Q(r) pseudized with 0 coefficients 


     atomic species   valence    mass     pseudopotential
        Ru            16.00   101.07000     Ru( 1.00)

     16 Sym. Ops., with inversion, found (14 have fractional translation)



   Cartesian axes

     site n.     atom                  positions (alat units)
         1           Ru  tau(   1) = (   0.0000000   0.0000000   0.0000000  )
         2           Ru  tau(   2) = (   0.2500000   0.2500000   0.0000000  )
         3           Ru  tau(   3) = (   0.2500000   0.0000000   0.2500000  )
         4           Ru  tau(   4) = (   0.0000000   0.1000000   0.2500000  )
         5           Ru  tau(   5) = (   0.0000000   0.4000000   0.2500000  )
         6           Ru  tau(   6) = (   0.0000000   0.0000000   0.5000000  )
         7           Ru  tau(   7) = (   0.2500000   0.2500000   0.5000000  )
         8           Ru  tau(   8) = (   0.2500000   0.0000000   0.7500000  )
         9           Ru  tau(   9) = (   0.0000000   0.2500000   0.7500000  )
        10           Ru  tau(  10) = (   0.0000000   0.5000000   0.0000000  )
        11           Ru  tau(  11) = (   0.2500000   0.7500000   0.0000000  )
        12           Ru  tau(  12) = (   0.2500000   0.5000000   0.2500000  )
        13           Ru  tau(  13) = (   0.0000000   0.7500000   0.2500000  )
        14           Ru  tau(  14) = (   0.0000000   0.5000000   0.5000000  )
        15           Ru  tau(  15) = (   0.2500000   0.7500000   0.5000000  )
        16           Ru  tau(  16) = (   0.2500000   0.5000000   0.7500000  )
        17           Ru  tau(  17) = (   0.0000000   0.7500000   0.7500000  )
        18           Ru  tau(  18) = (   0.5000000   0.0000000   0.0000000  )
        19           Ru  tau(  19) = (   0.7500000   0.2500000   0.0000000  )
        20           Ru  tau(  20) = (   0.7500000   0.0000000   0.2500000  )
        21           Ru  tau(  21) = (   0.5000000   0.2500000   0.2500000  )
        22           Ru  tau(  22) = (   0.5000000   0.0000000   0.5000000  )
        23           Ru  tau(  23) = (   0.7500000   0.2500000   0.5000000  )
        24           Ru  tau(  24) = (   0.7500000   0.0000000   0.7500000  )
        25           Ru  tau(  25) = (   0.5000000   0.2500000   0.7500000  )
        26           Ru  tau(  26) = (   0.5000000   0.5000000   0.0000000  )
        27           Ru  tau(  27) = (   0.7500000   0.7500000   0.0000000  )
        28           Ru  tau(  28) = (   0.7500000   0.5000000   0.2500000  )
        29           Ru  tau(  29) = (   0.5000000   0.7500000   0.2500000  )
        30           Ru  tau(  30) = (   0.5000000   0.5000000   0.5000000  )
        31           Ru  tau(  31) = (   0.7500000   0.7500000   0.5000000  )
        32           Ru  tau(  32) = (   0.7500000   0.5000000   0.7500000  )
        33           Ru  tau(  33) = (   0.5000000   0.7500000   0.7500000  )

     number of k points=    75  Marzari-Vanderbilt smearing, width (Ry)=  0.0400
                       cart. coord. in units 2pi/alat
        k(    1) = (   0.0555556   0.0555556   0.0555556), wk =   0.0219479
        k(    2) = (   0.0555556   0.0555556   0.1666667), wk =   0.0438957
        k(    3) = (   0.0555556   0.0555556   0.2777778), wk =   0.0438957
        k(    4) = (   0.0555556   0.0555556   0.3888889), wk =   0.0438957
        k(    5) = (   0.0555556   0.0555556  -0.5000000), wk =   0.0219479
        k(    6) = (   0.0555556   0.1666667   0.1666667), wk =   0.0438957
        k(    7) = (   0.0555556   0.1666667   0.2777778), wk =   0.0438957
        k(    8) = (   0.0555556   0.1666667   0.3888889), wk =   0.0438957
        k(    9) = (   0.0555556   0.1666667  -0.5000000), wk =   0.0219479
        k(   10) = (   0.0555556   0.2777778   0.2777778), wk =   0.0438957
        k(   11) = (   0.0555556   0.2777778   0.3888889), wk =   0.0438957
        k(   12) = (   0.0555556   0.2777778  -0.5000000), wk =   0.0219479
        k(   13) = (   0.0555556   0.3888889   0.3888889), wk =   0.0438957
        k(   14) = (   0.0555556   0.3888889  -0.5000000), wk =   0.0219479
        k(   15) = (   0.0555556  -0.5000000  -0.5000000), wk =   0.0109739
        k(   16) = (   0.1666667   0.1666667   0.1666667), wk =   0.0219479
        k(   17) = (   0.1666667   0.1666667   0.2777778), wk =   0.0438957
        k(   18) = (   0.1666667   0.1666667   0.3888889), wk =   0.0438957
        k(   19) = (   0.1666667   0.1666667  -0.5000000), wk =   0.0219479
        k(   20) = (   0.1666667   0.2777778   0.2777778), wk =   0.0438957
        k(   21) = (   0.1666667   0.2777778   0.3888889), wk =   0.0438957
        k(   22) = (   0.1666667   0.2777778  -0.5000000), wk =   0.0219479
        k(   23) = (   0.1666667   0.3888889   0.3888889), wk =   0.0438957
        k(   24) = (   0.1666667   0.3888889  -0.5000000), wk =   0.0219479
        k(   25) = (   0.1666667  -0.5000000  -0.5000000), wk =   0.0109739
        k(   26) = (   0.2777778   0.2777778   0.2777778), wk =   0.0219479
        k(   27) = (   0.2777778   0.2777778   0.3888889), wk =   0.0438957
        k(   28) = (   0.2777778   0.2777778  -0.5000000), wk =   0.0219479
        k(   29) = (   0.2777778   0.3888889   0.3888889), wk =   0.0438957
        k(   30) = (   0.2777778   0.3888889  -0.5000000), wk =   0.0219479
        k(   31) = (   0.2777778  -0.5000000  -0.5000000), wk =   0.0109739
        k(   32) = (   0.3888889   0.3888889   0.3888889), wk =   0.0219479
        k(   33) = (   0.3888889   0.3888889  -0.5000000), wk =   0.0219479
        k(   34) = (   0.3888889  -0.5000000  -0.5000000), wk =   0.0109739
        k(   35) = (  -0.5000000  -0.5000000  -0.5000000), wk =   0.0027435
        k(   36) = (   0.0555556   0.1666667   0.0555556), wk =   0.0219479
        k(   37) = (   0.0555556   0.2777778   0.0555556), wk =   0.0219479
        k(   38) = (   0.0555556   0.3888889   0.0555556), wk =   0.0219479
        k(   39) = (   0.0555556  -0.5000000   0.0555556), wk =   0.0109739
        k(   40) = (   0.1666667   0.0555556   0.1666667), wk =   0.0219479
        k(   41) = (   0.1666667   0.2777778   0.0555556), wk =   0.0438957
        k(   42) = (   0.2777778   0.0555556   0.1666667), wk =   0.0438957
        k(   43) = (   0.1666667   0.3888889   0.0555556), wk =   0.0438957
        k(   44) = (   0.3888889   0.0555556   0.1666667), wk =   0.0438957
        k(   45) = (   0.1666667  -0.5000000   0.0555556), wk =   0.0219479
        k(   46) = (  -0.5000000   0.0555556   0.1666667), wk =   0.0219479
        k(   47) = (   0.2777778   0.0555556   0.2777778), wk =   0.0219479
        k(   48) = (   0.2777778   0.3888889   0.0555556), wk =   0.0438957
        k(   49) = (   0.3888889   0.0555556   0.2777778), wk =   0.0438957
        k(   50) = (   0.2777778  -0.5000000   0.0555556), wk =   0.0219479
        k(   51) = (  -0.5000000   0.0555556   0.2777778), wk =   0.0219479
        k(   52) = (   0.3888889   0.0555556   0.3888889), wk =   0.0219479
        k(   53) = (   0.3888889  -0.5000000   0.0555556), wk =   0.0219479
        k(   54) = (  -0.5000000   0.0555556   0.3888889), wk =   0.0219479
        k(   55) = (  -0.5000000   0.0555556  -0.5000000), wk =   0.0054870
        k(   56) = (   0.1666667   0.2777778   0.1666667), wk =   0.0219479
        k(   57) = (   0.1666667   0.3888889   0.1666667), wk =   0.0219479
        k(   58) = (   0.1666667  -0.5000000   0.1666667), wk =   0.0109739
        k(   59) = (   0.2777778   0.1666667   0.2777778), wk =   0.0219479
        k(   60) = (   0.2777778   0.3888889   0.1666667), wk =   0.0438957
        k(   61) = (   0.3888889   0.1666667   0.2777778), wk =   0.0438957
        k(   62) = (   0.2777778  -0.5000000   0.1666667), wk =   0.0219479
        k(   63) = (  -0.5000000   0.1666667   0.2777778), wk =   0.0219479
        k(   64) = (   0.3888889   0.1666667   0.3888889), wk =   0.0219479
        k(   65) = (   0.3888889  -0.5000000   0.1666667), wk =   0.0219479
        k(   66) = (  -0.5000000   0.1666667   0.3888889), wk =   0.0219479
        k(   67) = (  -0.5000000   0.1666667  -0.5000000), wk =   0.0054870
        k(   68) = (   0.2777778   0.3888889   0.2777778), wk =   0.0219479
        k(   69) = (   0.2777778  -0.5000000   0.2777778), wk =   0.0109739
        k(   70) = (   0.3888889   0.2777778   0.3888889), wk =   0.0219479
        k(   71) = (   0.3888889  -0.5000000   0.2777778), wk =   0.0219479
        k(   72) = (  -0.5000000   0.2777778   0.3888889), wk =   0.0219479
        k(   73) = (  -0.5000000   0.2777778  -0.5000000), wk =   0.0054870
        k(   74) = (   0.3888889  -0.5000000   0.3888889), wk =   0.0109739
        k(   75) = (  -0.5000000   0.3888889  -0.5000000), wk =   0.0054870

     Dense  grid:   449479 G-vectors     FFT dimensions: (  96,  96,  96)

     Smooth grid:   241377 G-vectors     FFT dimensions: (  80,  80,  80)

     Estimated max dynamical RAM per process >     190.86 MB

     Estimated total dynamical RAM >      13.42 GB

     Check: negative core charge=   -0.000002

     Initial potential from superposition of free atoms

     starting charge  527.97896, renormalised to  528.00000
     Starting wfcs are  330 randomized atomic wfcs
     Checking if some PAW data can be deallocated... 

     total cpu time spent up to now is       24.2 secs

     Self-consistent Calculation

     iteration #  1     ecut=    71.00 Ry     beta= 0.10
     Davidson diagonalization with overlap
     ethr =  1.00E-02,  avg # of iterations =  4.1

     Threshold (ethr) on eigenvalues was too large:
     Diagonalizing with lowered threshold

     Davidson diagonalization with overlap
     ethr =  3.19E-04,  avg # of iterations =  4.7

     total cpu time spent up to now is      166.2 secs

     total energy              =  -14243.82826098 Ry
     estimated scf accuracy    <       1.84631192 Ry

     iteration #  2     ecut=    71.00 Ry     beta= 0.10
     Davidson diagonalization with overlap
     ethr =  3.50E-04,  avg # of iterations =  1.1

     total cpu time spent up to now is      219.7 secs

     total energy              =  -14243.66726988 Ry
     estimated scf accuracy    <       1.07850023 Ry

     iteration #  3     ecut=    71.00 Ry     beta= 0.10
     Davidson diagonalization with overlap
     ethr =  2.04E-04,  avg # of iterations =  1.7

     total cpu time spent up to now is      274.4 secs

     total energy              =  -14243.65663752 Ry
     estimated scf accuracy    <       0.20989295 Ry

     iteration #  4     ecut=    71.00 Ry     beta= 0.10
     Davidson diagonalization with overlap
     c_bands:  1 eigenvalues not converged
     c_bands:  2 eigenvalues not converged
     ethr =  3.98E-05,  avg # of iterations =  4.2

     total cpu time spent up to now is      338.2 secs

     total energy              =  -14243.66171805 Ry
     estimated scf accuracy    <       0.06031185 Ry

     iteration #  5     ecut=    71.00 Ry     beta= 0.10
     Davidson diagonalization with overlap
     ethr =  1.14E-05,  avg # of iterations =  4.7

     total cpu time spent up to now is      401.6 secs

     total energy              =  -14243.65430347 Ry
     estimated scf accuracy    <       0.03264408 Ry

     iteration #  6     ecut=    71.00 Ry     beta= 0.10
     Davidson diagonalization with overlap
     ethr =  6.18E-06,  avg # of iterations =  3.6

     total cpu time spent up to now is      469.4 secs

     total energy              =  -14243.65912334 Ry
     estimated scf accuracy    <       0.00506150 Ry

     iteration #  7     ecut=    71.00 Ry     beta= 0.10
     Davidson diagonalization with overlap
     ethr =  9.59E-07,  avg # of iterations =  4.7

     total cpu time spent up to now is      547.0 secs

     total energy              =  -14243.65723875 Ry
     estimated scf accuracy    <       0.01026537 Ry

     iteration #  8     ecut=    71.00 Ry     beta= 0.10
     Davidson diagonalization with overlap
     ethr =  9.59E-07,  avg # of iterations =  2.0

     total cpu time spent up to now is      614.4 secs

     total energy              =  -14243.65636513 Ry
     estimated scf accuracy    <       0.00327507 Ry

     iteration #  9     ecut=    71.00 Ry     beta= 0.10
     Davidson diagonalization with overlap
     ethr =  6.20E-07,  avg # of iterations =  2.0

     total cpu time spent up to now is      683.4 secs

     total energy              =  -14243.65675713 Ry
     estimated scf accuracy    <       0.00024741 Ry

     iteration # 10     ecut=    71.00 Ry     beta= 0.10
     Davidson diagonalization with overlap
     ethr =  4.69E-08,  avg # of iterations =  2.5

     total cpu time spent up to now is      754.4 secs

     total energy              =  -14243.65672390 Ry
     estimated scf accuracy    <       0.00015628 Ry

     iteration # 11     ecut=    71.00 Ry     beta= 0.10
     Davidson diagonalization with overlap
     ethr =  2.96E-08,  avg # of iterations =  2.0

     total cpu time spent up to now is      823.5 secs

     total energy              =  -14243.65674174 Ry
     estimated scf accuracy    <       0.00003614 Ry

     iteration # 12     ecut=    71.00 Ry     beta= 0.10
     Davidson diagonalization with overlap
     ethr =  6.85E-09,  avg # of iterations =  2.0

     total cpu time spent up to now is      884.0 secs

     total energy              =  -14243.65674124 Ry
     estimated scf accuracy    <       0.00001000 Ry

     iteration # 13     ecut=    71.00 Ry     beta= 0.10
     Davidson diagonalization with overlap
     ethr =  1.89E-09,  avg # of iterations =  2.0

     total cpu time spent up to now is      953.6 secs

     total energy              =  -14243.65674380 Ry
     estimated scf accuracy    <       0.00000290 Ry

     iteration # 14     ecut=    71.00 Ry     beta= 0.10
     Davidson diagonalization with overlap
     ethr =  5.50E-10,  avg # of iterations =  1.7

     total cpu time spent up to now is     1011.0 secs

     total energy              =  -14243.65674280 Ry
     estimated scf accuracy    <       0.00000249 Ry

     iteration # 15     ecut=    71.00 Ry     beta= 0.10
     Davidson diagonalization with overlap
     ethr =  4.73E-10,  avg # of iterations =  2.0

     total cpu time spent up to now is     1081.1 secs

     End of self-consistent calculation

          k = 0.0556 0.0556 0.0556 ( 30224 PWs)   bands (ev):

   -50.9043 -50.7551 -49.1396 -49.1396 -49.1354 -49.1354 -49.1030 -49.0979
   -49.0184 -48.9747 -48.8643 -48.8093 -48.7867 -48.7825 -48.7679 -48.7664
   -48.7641 -48.7519 -48.7434 -48.7420 -48.7401 -48.7400 -48.7295 -48.7118
   -48.7117 -48.7102 -48.7017 -48.6864 -48.6795 -48.6681 -48.6558 -48.6558
   -48.6433 -22.1615 -22.1615 -22.0724 -22.0724 -21.6323 -20.8928 -19.5703
   -19.5252 -19.4594 -19.3741 -19.3733 -19.3631 -19.2944 -19.2726 -19.2316
   -19.2303 -19.2224 -19.1817 -19.1808 -19.1182 -19.1155 -19.1141 -19.1017
   -19.0948 -19.0822 -19.0785 -19.0750 -19.0554 -19.0274 -19.0225 -18.9888
   -18.9824 -18.9747 -18.9725 -18.9687 -18.9546 -18.9334 -18.9294 -18.9158
   -18.8753 -18.8706 -18.8526 -18.8444 -18.8429 -18.8304 -18.8148 -18.8118
   -18.7995 -18.7928 -18.7646 -18.7645 -18.7601 -18.7138 -18.7099 -18.7040
   -18.6997 -18.6927 -18.6916 -18.6902 -18.6877 -18.6837 -18.6668 -18.6647
   -18.6385 -18.6280 -18.6220 -18.6184 -18.5645 -18.5624 -18.5577 -18.5545
   -18.5482 -18.5305 -18.5274 -18.5242 -18.5214 -18.5173 -18.5172 -18.4843
   -18.4810 -18.4767 -18.4753 -18.4691 -18.4664 -18.4648 -18.4591 -18.4578
   -18.4513 -18.4495 -18.4467 -18.4454 -18.4420 -18.3843 -18.3819 -18.3594
   -18.3065 -18.3058 -18.2916 -18.2891  15.8806  15.9328  16.2110  16.2995
    16.5192  16.5213  16.7609  17.3764  17.5257  17.5332  17.7331  17.8655
    17.9051  17.9562  18.0930  18.3077  18.3444  18.3451  18.3927  18.5691
    18.6041  18.6465  18.7284  18.7442  18.7966  18.9359  19.1002  19.1130
    19.2111  19.2916  19.3125  19.4505  19.4801  19.5519  19.6072  19.6239
    19.6375  19.7060  19.7664  19.7885  19.8065  19.8975  19.9058  19.9807
    19.9808  20.0413  20.0662  20.0939  20.2141  20.2876  20.3317  20.3323
    20.3774  20.3885  20.4115  20.4252  20.4532  20.4714  20.5045  20.5332
    20.5570  20.6158  20.6298  20.7053  20.7215  20.7304  20.7585  20.7935
    20.8170  20.8369  20.8383  20.8656  20.9095  20.9311  20.9671  20.9791
    21.0725  21.1209  21.1665  21.1716  21.3566  21.3834  21.3958  21.4064
    21.4141  21.4333  21.4770  21.7228  21.8538  21.8907  21.9872  22.0202
    22.0494  22.1609  22.2160  22.3817  22.4382  22.6105  22.6191  22.7028
    22.7417  22.7480  22.7516  22.8405  22.8569  22.8570  22.8797  22.8813
    22.9532  23.0023  23.0286  23.0329  23.1282  23.1781  23.2965  23.3324
    23.3732  23.4001  23.4326  23.4590  23.4785  23.5109  23.5186  23.5438
    23.5759  23.6064  23.6226  23.6792  23.7012  23.7449  23.7570  23.8296
    23.8307  23.8613  23.9406  24.1240  24.2095  24.3041  24.3287  24.3952
    24.4328  24.5814  24.6520  24.6524  24.7360  24.8049  24.8074  24.8509
    25.1677  25.2141  25.3429  25.4250  25.5057  25.5149  25.5654  25.6374
    25.6441  25.6924  25.6937  25.8072  25.8519  25.8559  25.9298  26.0531
    26.0978  26.1350  26.1460  26.2043  26.2107  26.2369  26.2508  26.3265
    26.3373  26.4986  26.5228  26.6483  27.5152  27.5528  27.6697  27.6998
    27.7411  27.9621  27.9663  28.1752  28.1903

          k = 0.0556 0.0556 0.1667 ( 30207 PWs)   bands (ev):

   -50.9043 -50.7551 -49.1414 -49.1396 -49.1358 -49.1354 -49.1021 -49.0976
   -49.0164 -48.9742 -48.8649 -48.8091 -48.7880 -48.7849 -48.7694 -48.7662
   -48.7646 -48.7507 -48.7436 -48.7401 -48.7398 -48.7379 -48.7290 -48.7119
   -48.7108 -48.7093 -48.7018 -48.6875 -48.6811 -48.6678 -48.6561 -48.6552
   -48.6440 -22.1615 -22.1614 -22.0733 -22.0724 -21.6323 -20.8916 -19.5650
   -19.5319 -19.4497 -19.3657 -19.3634 -19.3552 -19.2969 -19.2781 -19.2291
   -19.2252 -19.2117 -19.1996 -19.1859 -19.1361 -19.1339 -19.1204 -19.1146
   -19.1021 -19.0878 -19.0777 -19.0684 -19.0402 -19.0226 -19.0120 -18.9995
   -18.9946 -18.9857 -18.9803 -18.9623 -18.9518 -18.9365 -18.9344 -18.8951
   -18.8824 -18.8734 -18.8609 -18.8558 -18.8488 -18.8380 -18.8171 -18.8085
   -18.7873 -18.7783 -18.7704 -18.7686 -18.7473 -18.7141 -18.6954 -18.6936
   -18.6908 -18.6866 -18.6838 -18.6812 -18.6808 -18.6773 -18.6608 -18.6480
   -18.6428 -18.6251 -18.6214 -18.6025 -18.5770 -18.5712 -18.5684 -18.5617
   -18.5514 -18.5406 -18.5288 -18.5220 -18.5169 -18.5089 -18.5031 -18.4977
   -18.4844 -18.4802 -18.4753 -18.4714 -18.4684 -18.4656 -18.4611 -18.4579
   -18.4548 -18.4486 -18.4479 -18.4453 -18.4404 -18.3902 -18.3816 -18.3666
   -18.3078 -18.3046 -18.2916 -18.2884  15.9065  15.9443  16.2802  16.2940
    16.4784  16.5237  16.7887  17.3589  17.5387  17.5636  17.7924  17.8303
    17.9741  18.0038  18.1519  18.1803  18.3972  18.4072  18.4657  18.5099
    18.6351  18.6792  18.7158  18.7655  18.8148  18.9349  19.0216  19.1382
    19.1810  19.2499  19.3192  19.3368  19.4640  19.5136  19.5355  19.5587
    19.5652  19.5872  19.6932  19.7199  19.7674  19.7876  19.8432  19.8591
    19.9677  20.0164  20.0194  20.0662  20.0813  20.1355  20.1741  20.2604
    20.2879  20.3325  20.3805  20.4040  20.4354  20.4691  20.5047  20.5803
    20.5891  20.6390  20.6885  20.7064  20.7361  20.7778  20.7985  20.8316
    20.8487  20.9116  20.9253  20.9436  21.0107  21.0759  21.0837  21.1436
    21.1828  21.2404  21.2530  21.2877  21.3307  21.3771  21.4064  21.4440
    21.4622  21.4901  21.5874  21.6440  21.8170  21.8773  21.9182  22.0334
    22.0490  22.1493  22.2155  22.3026  22.3708  22.4640  22.5022  22.5528
    22.6161  22.6697  22.7676  22.7839  22.8518  22.9026  22.9405  22.9841
    23.0038  23.0237  23.0762  23.1070  23.1821  23.2483  23.2558  23.3160
    23.3991  23.4346  23.4544  23.4971  23.5185  23.5702  23.5841  23.6569
    23.6880  23.7207  23.7429  23.7590  23.8121  23.8817  23.8991  23.9742
    24.0143  24.0749  24.1002  24.1087  24.1554  24.1685  24.2353  24.3157
    24.3426  24.4746  24.4935  24.6370  24.6726  24.7924  24.9057  24.9486
    25.1128  25.1735  25.2417  25.2484  25.3135  25.4108  25.4564  25.4711
    25.5545  25.5947  25.6587  25.7158  25.7637  25.7957  25.9145  25.9822
    26.0495  26.0638  26.0854  26.1298  26.1883  26.2448  26.2569  26.4063
    26.5487  26.6152  26.7867  26.9517  27.0560  27.1766  27.4044  27.5187
    27.5830  27.7104  28.1621  28.2018  28.2795

          k = 0.0556 0.0556 0.2778 ( 30183 PWs)   bands (ev):

   -50.9043 -50.7551 -49.1440 -49.1396 -49.1366 -49.1354 -49.1011 -49.0973
   -49.0134 -48.9735 -48.8660 -48.8088 -48.7921 -48.7847 -48.7711 -48.7673
   -48.7651 -48.7502 -48.7445 -48.7401 -48.7384 -48.7312 -48.7283 -48.7120
   -48.7110 -48.7064 -48.7020 -48.6896 -48.6837 -48.6672 -48.6567 -48.6541
   -48.6451 -22.1615 -22.1611 -22.0747 -22.0724 -21.6324 -20.8899 -19.5566
   -19.5418 -19.4319 -19.3498 -19.3464 -19.3400 -19.2999 -19.2818 -19.2381
   -19.2297 -19.2151 -19.2034 -19.1919 -19.1661 -19.1560 -19.1268 -19.1154
   -19.1104 -19.0976 -19.0716 -19.0636 -19.0409 -19.0291 -19.0106 -19.0095
   -18.9954 -18.9944 -18.9724 -18.9569 -18.9535 -18.9326 -18.9240 -18.9034
   -18.8920 -18.8882 -18.8755 -18.8573 -18.8441 -18.8344 -18.8240 -18.8120
   -18.8074 -18.7858 -18.7616 -18.7519 -18.7198 -18.7047 -18.6966 -18.6916
   -18.6810 -18.6769 -18.6714 -18.6656 -18.6599 -18.6568 -18.6410 -18.6282
   -18.6241 -18.6182 -18.6140 -18.6010 -18.5865 -18.5829 -18.5770 -18.5699
   -18.5545 -18.5489 -18.5365 -18.5301 -18.5258 -18.5055 -18.5020 -18.4945
   -18.4889 -18.4796 -18.4764 -18.4738 -18.4729 -18.4683 -18.4665 -18.4586
   -18.4548 -18.4513 -18.4491 -18.4435 -18.4375 -18.4054 -18.3825 -18.3773
   -18.3176 -18.3066 -18.2908 -18.2769  15.9416  15.9624  16.2857  16.4006
    16.4459  16.5288  16.8326  17.3329  17.5611  17.6090  17.7721  17.8032
    17.9089  18.1034  18.2004  18.2691  18.4730  18.4989  18.5332  18.6239
    18.6886  18.7081  18.7111  18.7749  18.8537  18.8720  18.9308  19.0586
    19.1119  19.1403  19.1895  19.2574  19.3526  19.3699  19.4162  19.4651
    19.4919  19.5310  19.5658  19.6403  19.6524  19.7165  19.7856  19.8192
    19.8725  19.9176  19.9696  19.9953  20.0958  20.1387  20.1588  20.2291
    20.2681  20.3188  20.3517  20.3626  20.3895  20.4208  20.4541  20.5165
    20.5470  20.5918  20.6318  20.6536  20.7396  20.7963  20.8081  20.8583
    20.8816  20.9332  21.0001  21.0598  21.0852  21.1368  21.1683  21.2253
    21.3161  21.3359  21.3498  21.3609  21.4367  21.4736  21.5481  21.5580
    21.6992  21.7366  21.7490  21.7757  21.8167  21.8271  21.9449  21.9783
    21.9885  22.0838  22.1591  22.1862  22.2743  22.2916  22.3167  22.3696
    22.3990  22.6843  22.7762  22.8330  22.9198  22.9675  22.9886  23.0607
    23.1051  23.1190  23.1731  23.2203  23.2502  23.3372  23.3634  23.3796
    23.4023  23.4563  23.4973  23.5592  23.5842  23.6048  23.6354  23.6555
    23.6766  23.7211  23.7522  23.7811  23.8303  23.8610  23.9009  23.9605
    24.0118  24.1024  24.2092  24.2435  24.2750  24.3326  24.3754  24.4375
    24.4670  24.5572  24.5888  24.5990  24.6977  24.7344  24.9310  24.9451
    25.0036  25.0587  25.1031  25.1603  25.2260  25.2962  25.3631  25.3863
    25.4590  25.4986  25.5892  25.5953  25.6330  25.6623  25.7841  25.8004
    25.8633  25.8795  26.0666  26.1192  26.2008  26.2461  26.2493  26.4479
    26.5670  26.6066  26.8766  26.8856  26.9347  27.0911  27.1645  27.2224
    27.4559  27.5925  28.0724  28.1180  28.6179

          k = 0.0556 0.0556 0.3889 ( 30161 PWs)   bands (ev):

   -50.9042 -50.7551 -49.1461 -49.1395 -49.1372 -49.1353 -49.1002 -49.0970
   -49.0107 -48.9729 -48.8670 -48.8086 -48.7952 -48.7836 -48.7733 -48.7682
   -48.7656 -48.7501 -48.7452 -48.7401 -48.7374 -48.7276 -48.7241 -48.7121
   -48.7112 -48.7044 -48.7015 -48.6921 -48.6863 -48.6667 -48.6573 -48.6529
   -48.6464 -22.1615 -22.1609 -22.0758 -22.0724 -21.6324 -20.8883 -19.5507
   -19.5484 -19.4108 -19.3306 -19.3287 -19.3201 -19.3026 -19.2834 -19.2682
   -19.2449 -19.2154 -19.2113 -19.1890 -19.1859 -19.1777 -19.1303 -19.1162
   -19.1064 -19.0997 -19.0699 -19.0647 -19.0565 -19.0384 -19.0098 -19.0046
   -19.0022 -18.9949 -18.9639 -18.9584 -18.9430 -18.9295 -18.9229 -18.9091
   -18.8933 -18.8889 -18.8841 -18.8608 -18.8548 -18.8485 -18.8422 -18.8234
   -18.7972 -18.7816 -18.7632 -18.7377 -18.7048 -18.6979 -18.6918 -18.6824
   -18.6748 -18.6633 -18.6604 -18.6512 -18.6440 -18.6356 -18.6330 -18.6229
   -18.6092 -18.6073 -18.6002 -18.5981 -18.5925 -18.5792 -18.5762 -18.5654
   -18.5603 -18.5521 -18.5473 -18.5412 -18.5355 -18.5148 -18.5094 -18.5006
   -18.4961 -18.4880 -18.4817 -18.4720 -18.4691 -18.4673 -18.4582 -18.4579
   -18.4539 -18.4508 -18.4482 -18.4434 -18.4382 -18.4293 -18.3921 -18.3836
   -18.3250 -18.3072 -18.2916 -18.2654  15.9691  15.9787  16.2786  16.3705
    16.5329  16.6313  16.8949  17.3083  17.4148  17.5800  17.6508  17.7731
    18.0754  18.2638  18.3782  18.4331  18.4823  18.5657  18.6264  18.6472
    18.6978  18.7157  18.7375  18.7931  18.8404  18.8633  18.8842  18.9796
    18.9933  19.0025  19.0695  19.1206  19.1874  19.2386  19.3044  19.3529
    19.3892  19.4879  19.5267  19.5766  19.6090  19.6873  19.7336  19.7995
    19.8640  19.9693  19.9907  20.0148  20.0643  20.0842  20.1335  20.1953
    20.2135  20.2493  20.2783  20.3317  20.3609  20.3840  20.4652  20.4956
    20.5275  20.5750  20.6044  20.7076  20.7408  20.7736  20.8166  20.8795
    20.9265  20.9578  21.0086  21.0336  21.0786  21.1084  21.1279  21.2238
    21.2636  21.3498  21.4067  21.5261  21.5902  21.6298  21.6393  21.6957
    21.7278  21.7573  21.8343  21.8682  21.9226  21.9277  21.9713  22.0117
    22.0145  22.0991  22.1471  22.1788  22.2879  22.2973  22.3245  22.4239
    22.4651  22.6561  22.8062  22.8362  22.8813  22.9438  23.0544  23.1038
    23.1456  23.1635  23.2008  23.2431  23.2716  23.3011  23.3073  23.3536
    23.4073  23.4227  23.4526  23.4847  23.5115  23.5284  23.5572  23.5736
    23.5909  23.6517  23.7590  23.8050  23.8190  23.8775  23.9457  24.0100
    24.1340  24.1807  24.2320  24.3402  24.3936  24.4293  24.5371  24.6617
    24.7027  24.7330  24.7505  24.7788  24.7939  24.8945  24.9336  24.9643
    25.0215  25.0334  25.1380  25.1705  25.1992  25.2661  25.3122  25.3233
    25.3608  25.4103  25.4488  25.4541  25.5288  25.5813  25.6155  25.6701
    25.6863  25.7664  25.9993  26.0956  26.1096  26.1660  26.2112  26.2453
    26.2469  26.3078  26.4505  26.6033  26.9325  27.1529  27.3275  27.4516
    27.5361  27.7979  27.9215  28.0318  28.4697

          k = 0.0556 0.0556-0.5000 ( 30178 PWs)   bands (ev):

   -50.9042 -50.7551 -49.1469 -49.1395 -49.1374 -49.1353 -49.0999 -49.0969
   -49.0096 -48.9727 -48.8674 -48.8085 -48.7962 -48.7830 -48.7745 -48.7684
   -48.7658 -48.7501 -48.7455 -48.7401 -48.7371 -48.7274 -48.7209 -48.7121
   -48.7114 -48.7047 -48.7004 -48.6935 -48.6875 -48.6665 -48.6575 -48.6523
   -48.6471 -22.1615 -22.1608 -22.0763 -22.0724 -21.6324 -20.8877 -19.5534
   -19.5459 -19.3995 -19.3203 -19.3196 -19.3082 -19.3051 -19.2838 -19.2834
   -19.2540 -19.2196 -19.2163 -19.2038 -19.1870 -19.1724 -19.1389 -19.1105
   -19.1023 -19.0961 -19.0783 -19.0683 -19.0612 -19.0369 -19.0116 -19.0056
   -19.0020 -18.9910 -18.9611 -18.9598 -18.9544 -18.9285 -18.9099 -18.8987
   -18.8950 -18.8935 -18.8747 -18.8746 -18.8658 -18.8566 -18.8450 -18.8299
   -18.8018 -18.7687 -18.7654 -18.7323 -18.7011 -18.6983 -18.6900 -18.6732
   -18.6680 -18.6611 -18.6597 -18.6455 -18.6342 -18.6313 -18.6207 -18.6155
   -18.6149 -18.6052 -18.5993 -18.5968 -18.5935 -18.5910 -18.5724 -18.5616
   -18.5554 -18.5474 -18.5423 -18.5375 -18.5338 -18.5279 -18.5139 -18.5065
   -18.5002 -18.4967 -18.4821 -18.4716 -18.4681 -18.4625 -18.4608 -18.4586
   -18.4569 -18.4522 -18.4489 -18.4472 -18.4380 -18.4277 -18.4034 -18.3841
   -18.3270 -18.3074 -18.2919 -18.2610  15.9794  15.9852  16.2759  16.3539
    16.5347  16.7430  17.0740  17.0773  17.3070  17.5870  17.6679  17.7665
    18.2538  18.3008  18.4295  18.4879  18.5754  18.5887  18.6316  18.6470
    18.6659  18.6693  18.7446  18.7856  18.8064  18.8313  18.8501  18.9427
    18.9686  19.0026  19.0634  19.1192  19.1551  19.1814  19.2241  19.2783
    19.3080  19.3844  19.4995  19.5730  19.6096  19.6704  19.8020  19.8303
    19.8764  19.9260  20.0028  20.0772  20.0787  20.0866  20.0952  20.1374
    20.1556  20.2007  20.2064  20.3135  20.3527  20.4264  20.4573  20.5179
    20.5445  20.5815  20.6519  20.6980  20.7266  20.8128  20.8504  20.8521
    20.9205  20.9336  20.9641  20.9877  21.0337  21.0864  21.1308  21.1875
    21.3684  21.3844  21.4831  21.5198  21.5759  21.6106  21.6905  21.7375
    21.7664  21.7706  21.8472  21.8596  21.8898  21.9046  21.9466  21.9872
    22.0606  22.1120  22.1141  22.1534  22.3913  22.4642  22.5931  22.6973
    22.7550  22.7659  22.7718  22.7855  22.8227  22.8631  22.8738  22.9358
    23.0423  23.0668  23.0909  23.1888  23.2293  23.2990  23.3484  23.3579
    23.3676  23.3943  23.4625  23.4796  23.4909  23.5139  23.5303  23.5364
    23.5568  23.6908  23.7120  23.7733  23.7819  23.8079  23.9547  24.1121
    24.1420  24.1753  24.3518  24.4471  24.5064  24.6140  24.6680  24.7173
    24.7427  24.7589  24.8213  24.8383  24.9196  24.9615  25.0181  25.0267
    25.0599  25.0706  25.1102  25.1130  25.1378  25.2410  25.2520  25.2777
    25.3461  25.4163  25.4469  25.4793  25.5019  25.5361  25.5825  25.6267
    25.6905  25.7754  25.8166  25.9833  25.9987  26.0042  26.1069  26.1703
    26.2137  26.2447  26.2472  26.3304  27.0895  27.1692  27.3195  27.6687
    27.7202  27.7326  27.7508  28.1876  28.2837

          k = 0.0556 0.1667 0.1667 ( 30215 PWs)   bands (ev):

   -50.9041 -50.7552 -49.1411 -49.1393 -49.1362 -49.1356 -49.1019 -49.0979
   -49.0142 -48.9768 -48.8635 -48.8137 -48.7885 -48.7849 -48.7691 -48.7662
   -48.7596 -48.7498 -48.7442 -48.7417 -48.7412 -48.7369 -48.7290 -48.7105
   -48.7101 -48.7074 -48.7031 -48.6883 -48.6811 -48.6678 -48.6564 -48.6555
   -48.6445 -22.1610 -22.1610 -22.0737 -22.0730 -21.6379 -20.8824 -19.5632
   -19.5335 -19.4415 -19.3565 -19.3551 -19.3493 -19.3053 -19.2784 -19.2247
   -19.2209 -19.2052 -19.1967 -19.1877 -19.1500 -19.1389 -19.1184 -19.1130
   -19.1097 -19.0952 -19.0876 -19.0762 -19.0570 -19.0326 -19.0232 -19.0121
   -19.0070 -18.9992 -18.9834 -18.9746 -18.9632 -18.9476 -18.9124 -18.8882
   -18.8748 -18.8690 -18.8603 -18.8471 -18.8423 -18.8312 -18.8113 -18.7951
   -18.7824 -18.7753 -18.7680 -18.7540 -18.7431 -18.7011 -18.6930 -18.6927
   -18.6902 -18.6825 -18.6795 -18.6730 -18.6719 -18.6648 -18.6595 -18.6517
   -18.6346 -18.6273 -18.6206 -18.6095 -18.5803 -18.5732 -18.5711 -18.5567
   -18.5478 -18.5380 -18.5289 -18.5193 -18.5157 -18.5112 -18.5072 -18.4952
   -18.4887 -18.4860 -18.4837 -18.4755 -18.4745 -18.4674 -18.4653 -18.4618
   -18.4529 -18.4474 -18.4469 -18.4455 -18.4309 -18.4016 -18.3871 -18.3736
   -18.3184 -18.3124 -18.2830 -18.2777  15.9550  16.0060  16.2817  16.3558
    16.4640  16.5046  16.8170  17.3241  17.6039  17.6393  17.6998  17.8495
    18.0248  18.0688  18.1413  18.2011  18.2534  18.4488  18.4834  18.5563
    18.6627  18.6918  18.7323  18.7891  18.8501  18.9621  19.0260  19.0860
    19.1565  19.2643  19.2925  19.3347  19.3535  19.3583  19.4179  19.4607
    19.5168  19.5924  19.6052  19.6235  19.6681  19.7788  19.7817  19.8637
    19.9179  19.9457  19.9720  19.9943  20.0090  20.0936  20.1330  20.1525
    20.1909  20.2861  20.3117  20.3728  20.4160  20.4446  20.5008  20.5747
    20.6185  20.6830  20.6926  20.7406  20.7467  20.8134  20.8312  20.8610
    20.9297  20.9445  21.0067  21.0416  21.1135  21.1313  21.1801  21.2644
    21.2702  21.3112  21.3186  21.3388  21.3656  21.4001  21.4499  21.4867
    21.5026  21.5135  21.5781  21.7025  21.7648  21.8355  21.9682  22.0124
    22.0712  22.1954  22.2259  22.2639  22.3379  22.3644  22.4995  22.5439
    22.6066  22.6710  22.7317  22.7426  22.7890  22.7978  22.8158  22.8866
    22.9475  22.9760  23.0510  23.1014  23.1906  23.2616  23.3155  23.3473
    23.3803  23.4149  23.5385  23.5616  23.5878  23.6278  23.6791  23.7059
    23.7425  23.7718  23.8051  23.8436  23.8998  23.9482  23.9589  24.0026
    24.0591  24.1571  24.1643  24.1860  24.2302  24.2926  24.3233  24.3529
    24.3733  24.4608  24.5319  24.6349  24.7031  24.8710  24.9166  24.9566
    24.9986  25.0446  25.1172  25.1420  25.2251  25.2985  25.3741  25.4503
    25.4590  25.5441  25.6666  25.7108  25.7671  25.7848  25.8550  25.8942
    25.9541  26.0297  26.0497  26.1048  26.1297  26.1459  26.1638  26.3370
    26.5293  26.7209  26.8278  26.9932  27.0222  27.1723  27.2515  27.5307
    27.6961  27.9922  28.1363  28.2943  28.5776

          k = 0.0556 0.1667 0.2778 ( 30157 PWs)   bands (ev):

   -50.9041 -50.7552 -49.1435 -49.1393 -49.1370 -49.1356 -49.1008 -49.0975
   -49.0113 -48.9759 -48.8644 -48.8136 -48.7917 -48.7858 -48.7718 -48.7671
   -48.7594 -48.7506 -48.7449 -48.7417 -48.7374 -48.7305 -48.7282 -48.7108
   -48.7104 -48.7059 -48.7026 -48.6903 -48.6837 -48.6672 -48.6570 -48.6545
   -48.6456 -22.1610 -22.1610 -22.0748 -22.0730 -21.6379 -20.8809 -19.5557
   -19.5424 -19.4250 -19.3448 -19.3400 -19.3312 -19.3061 -19.2801 -19.2347
   -19.2280 -19.2101 -19.2053 -19.1832 -19.1638 -19.1611 -19.1377 -19.1284
   -19.1142 -19.1004 -19.0907 -19.0731 -19.0476 -19.0409 -19.0289 -19.0174
   -19.0054 -18.9955 -18.9805 -18.9714 -18.9494 -18.9353 -18.9117 -18.8889
   -18.8822 -18.8805 -18.8596 -18.8510 -18.8439 -18.8320 -18.8229 -18.8033
   -18.7987 -18.7866 -18.7495 -18.7403 -18.7219 -18.7027 -18.6916 -18.6900
   -18.6793 -18.6717 -18.6699 -18.6668 -18.6570 -18.6463 -18.6451 -18.6344
   -18.6286 -18.6172 -18.6074 -18.6044 -18.5892 -18.5825 -18.5736 -18.5639
   -18.5533 -18.5503 -18.5330 -18.5318 -18.5194 -18.5149 -18.5086 -18.5001
   -18.4926 -18.4869 -18.4807 -18.4801 -18.4768 -18.4693 -18.4666 -18.4614
   -18.4542 -18.4488 -18.4446 -18.4436 -18.4271 -18.4167 -18.3880 -18.3751
   -18.3193 -18.3144 -18.2803 -18.2762  15.9715  16.0392  16.2753  16.4032
    16.5062  16.5099  16.8555  17.3053  17.6101  17.6662  17.6831  17.8530
    17.9644  18.1515  18.2209  18.3031  18.3081  18.5478  18.5729  18.5941
    18.7020  18.7294  18.7394  18.7798  18.8771  18.9057  18.9318  19.0715
    19.0831  19.1360  19.1653  19.1989  19.2197  19.2730  19.3227  19.3858
    19.4061  19.4613  19.5399  19.5756  19.6255  19.6779  19.7877  19.8021
    19.8544  19.9032  19.9095  19.9797  20.0091  20.0324  20.0648  20.1346
    20.1758  20.2393  20.3033  20.3381  20.3847  20.4265  20.4756  20.5376
    20.5720  20.5952  20.6560  20.7297  20.7828  20.9056  20.9429  20.9573
    21.0396  21.0577  21.0745  21.1128  21.1752  21.2072  21.2153  21.2615
    21.3176  21.3612  21.3990  21.4230  21.5064  21.5265  21.5417  21.5717
    21.6410  21.6771  21.7308  21.7406  21.7960  21.8605  21.9080  21.9855
    22.0625  22.1072  22.1540  22.1750  22.2351  22.2902  22.3922  22.4341
    22.4622  22.6324  22.6639  22.6686  22.7808  22.8385  22.8965  22.9839
    23.0105  23.0650  23.0851  23.1839  23.1933  23.2498  23.3533  23.3894
    23.3950  23.4603  23.4770  23.5245  23.5658  23.6122  23.6476  23.7119
    23.7209  23.7833  23.8157  23.8770  23.9240  23.9434  24.0325  24.1080
    24.1170  24.1562  24.2271  24.2662  24.2993  24.3721  24.4464  24.5049
    24.5289  24.5396  24.6233  24.6473  24.7254  24.7502  24.8522  24.9417
    24.9762  25.0342  25.1215  25.1841  25.2233  25.3018  25.3216  25.3624
    25.4260  25.4512  25.5213  25.5985  25.6436  25.7089  25.7591  25.8106
    25.8430  25.9010  25.9856  26.0716  26.1075  26.1353  26.1472  26.2129
    26.4799  26.5375  26.7932  26.9313  27.0429  27.1592  27.4177  27.5030
    27.6111  27.6457  27.8929  28.5826  28.8785

          k = 0.0556 0.1667 0.3889 ( 30138 PWs)   bands (ev):

   -50.9041 -50.7552 -49.1456 -49.1393 -49.1377 -49.1356 -49.1000 -49.0972
   -49.0087 -48.9752 -48.8653 -48.8135 -48.7945 -48.7854 -48.7744 -48.7677
   -48.7592 -48.7513 -48.7454 -48.7418 -48.7349 -48.7276 -48.7239 -48.7111
   -48.7106 -48.7051 -48.7014 -48.6925 -48.6865 -48.6667 -48.6575 -48.6533
   -48.6469 -22.1611 -22.1609 -22.0757 -22.0730 -21.6378 -20.8796 -19.5523
   -19.5465 -19.4054 -19.3326 -19.3239 -19.3089 -19.3066 -19.2818 -19.2609
   -19.2396 -19.2145 -19.2021 -19.1911 -19.1846 -19.1721 -19.1543 -19.1238
   -19.1120 -19.1055 -19.0929 -19.0782 -19.0625 -19.0394 -19.0337 -19.0158
   -19.0007 -18.9985 -18.9740 -18.9515 -18.9375 -18.9187 -18.9114 -18.9005
   -18.8910 -18.8795 -18.8740 -18.8650 -18.8627 -18.8355 -18.8264 -18.8138
   -18.7960 -18.7804 -18.7487 -18.7312 -18.7061 -18.6976 -18.6923 -18.6818
   -18.6744 -18.6656 -18.6596 -18.6546 -18.6437 -18.6394 -18.6319 -18.6235
   -18.6097 -18.6031 -18.5972 -18.5942 -18.5894 -18.5836 -18.5792 -18.5674
   -18.5585 -18.5563 -18.5436 -18.5384 -18.5289 -18.5196 -18.5164 -18.5090
   -18.4989 -18.4914 -18.4886 -18.4834 -18.4757 -18.4709 -18.4675 -18.4647
   -18.4562 -18.4497 -18.4446 -18.4394 -18.4273 -18.4144 -18.3893 -18.3836
   -18.3219 -18.3185 -18.2799 -18.2686  15.9864  16.0649  16.2699  16.3627
    16.5141  16.6967  16.9156  17.2833  17.4792  17.6177  17.6658  17.7231
    18.1296  18.3078  18.3770  18.4533  18.4662  18.5442  18.6573  18.6683
    18.6770  18.7061  18.7592  18.7775  18.8285  18.8544  18.8930  18.9220
    18.9880  19.0144  19.0600  19.0791  19.1398  19.1559  19.2381  19.2720
    19.3694  19.3915  19.4565  19.5669  19.6077  19.6849  19.7157  19.7447
    19.8098  19.8668  19.9139  19.9526  20.0122  20.0581  20.0720  20.0948
    20.1935  20.2184  20.2358  20.2713  20.2962  20.3516  20.4755  20.5326
    20.6031  20.6644  20.7092  20.7549  20.8060  20.9033  20.9105  20.9215
    21.0253  21.0620  21.0999  21.1262  21.1722  21.2016  21.2760  21.2951
    21.3140  21.3718  21.5101  21.5595  21.5829  21.5864  21.6256  21.6850
    21.7522  21.7737  21.7804  21.8776  21.8943  21.9370  21.9675  22.0186
    22.0317  22.0940  22.1671  22.2055  22.2391  22.2807  22.3211  22.4125
    22.4364  22.5556  22.6430  22.7273  22.7847  22.8421  22.8696  22.9420
    23.0037  23.0716  23.0780  23.1377  23.1878  23.2270  23.2732  23.3115
    23.3557  23.4057  23.4506  23.4634  23.5627  23.5793  23.6281  23.6896
    23.7333  23.7744  23.8321  23.8645  23.9292  23.9519  24.0242  24.1442
    24.1678  24.1982  24.2623  24.3254  24.3687  24.3981  24.4979  24.6308
    24.6874  24.6962  24.7404  24.8268  24.8513  24.8673  24.8947  24.9611
    24.9992  25.0483  25.0772  25.1400  25.2044  25.2631  25.3196  25.3272
    25.3960  25.4608  25.4966  25.5509  25.5623  25.6126  25.6675  25.7021
    25.8126  25.8671  25.8857  26.0455  26.0697  26.1005  26.1143  26.1376
    26.2243  26.5014  26.6376  26.6902  26.9295  27.0357  27.1570  27.3677
    27.5412  27.9076  28.2879  28.4456  28.9550

          k = 0.0556 0.1667-0.5000 ( 30170 PWs)   bands (ev):

   -50.9041 -50.7552 -49.1463 -49.1393 -49.1380 -49.1356 -49.0997 -49.0971
   -49.0077 -48.9749 -48.8657 -48.8135 -48.7956 -48.7850 -48.7756 -48.7679
   -48.7591 -48.7515 -48.7457 -48.7418 -48.7340 -48.7274 -48.7210 -48.7112
   -48.7107 -48.7051 -48.7009 -48.6934 -48.6878 -48.6665 -48.6578 -48.6527
   -48.6476 -22.1611 -22.1609 -22.0761 -22.0730 -21.6378 -20.8791 -19.5544
   -19.5447 -19.3948 -19.3269 -19.3172 -19.3099 -19.2911 -19.2862 -19.2699
   -19.2472 -19.2166 -19.2058 -19.2056 -19.1860 -19.1690 -19.1641 -19.1158
   -19.1143 -19.0981 -19.0934 -19.0905 -19.0709 -19.0402 -19.0317 -19.0113
   -19.0048 -19.0039 -18.9570 -18.9444 -18.9323 -18.9209 -18.9062 -18.9003
   -18.8916 -18.8826 -18.8780 -18.8777 -18.8749 -18.8355 -18.8273 -18.8226
   -18.7984 -18.7667 -18.7546 -18.7229 -18.7035 -18.6955 -18.6925 -18.6757
   -18.6706 -18.6623 -18.6611 -18.6498 -18.6485 -18.6271 -18.6176 -18.6118
   -18.6071 -18.6051 -18.6019 -18.5968 -18.5888 -18.5860 -18.5755 -18.5684
   -18.5518 -18.5447 -18.5395 -18.5355 -18.5319 -18.5307 -18.5226 -18.5182
   -18.5051 -18.4990 -18.4967 -18.4829 -18.4776 -18.4726 -18.4697 -18.4663
   -18.4590 -18.4503 -18.4443 -18.4372 -18.4191 -18.4061 -18.3967 -18.3897
   -18.3235 -18.3191 -18.2801 -18.2649  15.9924  16.0745  16.2678  16.3466
    16.5159  16.7899  17.0742  17.1473  17.3219  17.6200  17.6553  17.7402
    18.3071  18.3538  18.4648  18.5150  18.5219  18.5759  18.6369  18.6495
    18.6912  18.7244  18.7301  18.7750  18.7784  18.7862  18.8611  18.8911
    18.8921  18.9523  19.0523  19.0732  19.0756  19.1670  19.2041  19.2598
    19.3135  19.4005  19.4220  19.5259  19.5761  19.5941  19.7160  19.7912
    19.8065  19.8900  19.9544  19.9682  19.9758  20.0265  20.0748  20.1311
    20.1360  20.1566  20.2169  20.2688  20.3168  20.3310  20.4106  20.5433
    20.7061  20.7208  20.7247  20.7908  20.8399  20.8544  20.8758  20.9383
    20.9534  21.0243  21.0254  21.1146  21.1306  21.2368  21.2916  21.3013
    21.3955  21.4394  21.4833  21.5228  21.5746  21.6532  21.6924  21.7122
    21.7636  21.7868  21.8671  21.8867  21.9580  21.9634  21.9836  21.9945
    22.0556  22.0747  22.0894  22.1475  22.3421  22.4506  22.5085  22.5329
    22.5702  22.6131  22.6218  22.6553  22.7308  22.7716  22.7982  22.8490
    22.9301  22.9799  22.9903  23.0743  23.0968  23.2106  23.3096  23.3464
    23.3467  23.3837  23.4289  23.4318  23.4858  23.5501  23.6241  23.7002
    23.7044  23.7770  23.8010  23.9501  23.9732  24.0078  24.0244  24.1211
    24.1408  24.2555  24.2569  24.3553  24.3749  24.4776  24.5529  24.6628
    24.7299  24.7575  24.7670  24.8536  24.9072  24.9330  24.9878  25.0652
    25.0653  25.1175  25.1435  25.1510  25.1979  25.2032  25.2113  25.2523
    25.3079  25.3312  25.3950  25.4679  25.6002  25.6420  25.6701  25.6968
    25.8115  25.8786  26.0401  26.0510  26.1008  26.1293  26.1319  26.1958
    26.2211  26.2928  26.3937  26.4334  26.7254  26.9522  27.2611  27.3484
    27.4676  28.1829  28.2477  28.6708  28.6947

          k = 0.0556 0.2778 0.2778 ( 30150 PWs)   bands (ev):

   -50.9039 -50.7554 -49.1427 -49.1388 -49.1378 -49.1361 -49.1004 -49.0979
   -49.0075 -48.9803 -48.8616 -48.8206 -48.7910 -48.7861 -48.7732 -48.7661
   -48.7549 -48.7495 -48.7460 -48.7431 -48.7354 -48.7299 -48.7282 -48.7099
   -48.7086 -48.7062 -48.7025 -48.6916 -48.6838 -48.6672 -48.6575 -48.6551
   -48.6464 -22.1609 -22.1601 -22.0749 -22.0739 -21.6461 -20.8674 -19.5539
   -19.5438 -19.4115 -19.3420 -19.3262 -19.3186 -19.3143 -19.2699 -19.2328
   -19.2279 -19.2094 -19.1989 -19.1815 -19.1717 -19.1617 -19.1431 -19.1380
   -19.1237 -19.1113 -19.1086 -19.0885 -19.0645 -19.0569 -19.0483 -19.0336
   -19.0236 -19.0020 -18.9890 -18.9685 -18.9427 -18.9332 -18.9032 -18.9013
   -18.8771 -18.8629 -18.8551 -18.8394 -18.8296 -18.8277 -18.8003 -18.7947
   -18.7820 -18.7751 -18.7480 -18.7262 -18.7244 -18.6987 -18.6936 -18.6884
   -18.6805 -18.6758 -18.6676 -18.6572 -18.6508 -18.6464 -18.6358 -18.6291
   -18.6213 -18.6184 -18.6090 -18.5949 -18.5858 -18.5801 -18.5720 -18.5604
   -18.5498 -18.5487 -18.5468 -18.5336 -18.5301 -18.5211 -18.5132 -18.5088
   -18.5027 -18.4932 -18.4852 -18.4844 -18.4778 -18.4733 -18.4707 -18.4647
   -18.4552 -18.4500 -18.4438 -18.4360 -18.4277 -18.4089 -18.3976 -18.3766
   -18.3291 -18.3140 -18.2778 -18.2689  15.9871  16.2250  16.2582  16.3905
    16.4830  16.6482  16.8954  17.2608  17.4498  17.6848  17.8086  17.9160
    17.9827  18.0731  18.2492  18.3619  18.3790  18.5967  18.6239  18.6490
    18.7139  18.7496  18.7876  18.8322  18.8622  18.8932  18.9139  18.9435
    19.0063  19.0291  19.0709  19.1019  19.1640  19.2209  19.2693  19.2905
    19.3479  19.4463  19.4812  19.5348  19.5595  19.5984  19.6386  19.6901
    19.7238  19.8287  19.8515  19.8808  19.9322  19.9706  20.0248  20.0694
    20.1536  20.2072  20.2649  20.3241  20.3570  20.4104  20.4609  20.5301
    20.5857  20.6442  20.7513  20.7944  20.9356  20.9700  20.9827  21.0209
    21.0467  21.1007  21.1503  21.1927  21.2410  21.2610  21.3441  21.3870
    21.4138  21.4282  21.5138  21.5389  21.5504  21.5862  21.6200  21.6370
    21.6677  21.7219  21.7323  21.7723  21.7946  21.8941  21.9340  22.0456
    22.0883  22.0919  22.1297  22.1935  22.2233  22.2833  22.3782  22.4048
    22.4824  22.5208  22.5693  22.6523  22.6795  22.7142  22.7363  22.8134
    22.9033  22.9396  23.0569  23.0867  23.1060  23.1338  23.2186  23.3100
    23.3504  23.3932  23.4557  23.4705  23.5781  23.6390  23.6758  23.7683
    23.8271  23.8665  23.9410  24.0000  24.0253  24.0709  24.1125  24.1484
    24.1903  24.2387  24.2865  24.3297  24.3421  24.4180  24.5072  24.5146
    24.5673  24.6276  24.6454  24.7176  24.7776  24.7986  24.8854  24.9050
    24.9369  25.0546  25.1126  25.1483  25.2668  25.3148  25.3333  25.4084
    25.4535  25.5419  25.5638  25.5728  25.6432  25.6737  25.7399  25.7823
    25.8211  25.8704  25.8961  25.9472  25.9655  25.9958  26.0761  26.2738
    26.3335  26.4410  26.7322  26.7551  26.9200  27.0202  27.2838  27.8896
    28.0773  28.2216  28.2293  28.4664  28.7875

          k = 0.0556 0.2778 0.3889 ( 30193 PWs)   bands (ev):

   -50.9039 -50.7554 -49.1445 -49.1388 -49.1387 -49.1361 -49.0997 -49.0975
   -49.0051 -48.9792 -48.8623 -48.8209 -48.7934 -48.7863 -48.7764 -48.7665
   -48.7538 -48.7508 -48.7463 -48.7434 -48.7315 -48.7276 -48.7237 -48.7106
   -48.7087 -48.7063 -48.7017 -48.6931 -48.6867 -48.6667 -48.6580 -48.6539
   -48.6477 -22.1613 -22.1601 -22.0754 -22.0739 -21.6460 -20.8664 -19.5534
   -19.5451 -19.3946 -19.3332 -19.3220 -19.3085 -19.2967 -19.2707 -19.2476
   -19.2368 -19.2109 -19.2007 -19.1933 -19.1823 -19.1676 -19.1611 -19.1440
   -19.1253 -19.1142 -19.1113 -19.0929 -19.0772 -19.0688 -19.0449 -19.0343
   -19.0066 -19.0033 -18.9751 -18.9515 -18.9330 -18.9197 -18.9084 -18.9013
   -18.8854 -18.8666 -18.8647 -18.8518 -18.8396 -18.8197 -18.8057 -18.8023
   -18.7814 -18.7739 -18.7345 -18.7279 -18.7041 -18.6999 -18.6967 -18.6842
   -18.6816 -18.6671 -18.6607 -18.6503 -18.6471 -18.6398 -18.6335 -18.6285
   -18.6100 -18.6076 -18.5961 -18.5866 -18.5843 -18.5782 -18.5749 -18.5649
   -18.5620 -18.5570 -18.5524 -18.5401 -18.5292 -18.5230 -18.5180 -18.5139
   -18.5116 -18.4968 -18.4926 -18.4872 -18.4852 -18.4793 -18.4754 -18.4725
   -18.4625 -18.4543 -18.4437 -18.4224 -18.4136 -18.4006 -18.3980 -18.3782
   -18.3291 -18.3152 -18.2749 -18.2696  15.9995  16.2467  16.2554  16.3511
    16.4875  16.8176  16.9522  17.2641  17.4343  17.6205  17.6834  17.8434
    18.0964  18.2366  18.3924  18.4816  18.5279  18.6166  18.6355  18.6562
    18.6608  18.7241  18.7593  18.7850  18.7988  18.8535  18.8824  18.9122
    18.9653  19.0089  19.0328  19.0637  19.0902  19.1357  19.1558  19.2278
    19.2561  19.3464  19.4537  19.5031  19.5254  19.5715  19.6121  19.6456
    19.7123  19.7356  19.7854  19.8436  19.8727  19.9251  19.9843  20.0179
    20.0904  20.1714  20.2520  20.3058  20.3990  20.4648  20.5091  20.5244
    20.6937  20.7601  20.7982  20.8084  20.9093  20.9325  21.0310  21.0443
    21.0979  21.1714  21.2602  21.3054  21.3296  21.3487  21.3757  21.4044
    21.4240  21.4900  21.5259  21.5446  21.5902  21.6224  21.6716  21.7412
    21.7558  21.7993  21.8261  21.8576  21.8909  21.9476  22.0097  22.0497
    22.0807  22.0991  22.1229  22.1574  22.2457  22.2778  22.3426  22.3932
    22.4093  22.4265  22.5010  22.5092  22.6129  22.6398  22.7244  22.7810
    22.8071  22.8507  22.9351  22.9929  23.0393  23.0856  23.1804  23.2133
    23.2434  23.3283  23.3784  23.4700  23.5507  23.5979  23.6227  23.7203
    23.8407  23.8892  23.9369  23.9843  24.0160  24.0518  24.1284  24.2010
    24.2505  24.2831  24.3635  24.4355  24.4631  24.5240  24.5770  24.6356
    24.6530  24.7177  24.7349  24.8318  24.8793  24.9285  24.9386  25.0065
    25.0504  25.0661  25.1261  25.1566  25.2076  25.2289  25.2591  25.3141
    25.3554  25.3729  25.5001  25.5223  25.5621  25.6552  25.6845  25.8280
    25.8555  25.8704  25.8998  25.9425  25.9857  26.0222  26.0406  26.2508
    26.3022  26.4148  26.5328  26.8003  26.8075  26.9531  27.2504  27.6217
    27.7498  28.4677  28.6786  29.0300  29.0544

          k = 0.0556 0.2778-0.5000 ( 30164 PWs)   bands (ev):

   -50.9039 -50.7554 -49.1452 -49.1391 -49.1388 -49.1361 -49.0994 -49.0974
   -49.0042 -48.9788 -48.8626 -48.8210 -48.7943 -48.7863 -48.7776 -48.7666
   -48.7529 -48.7518 -48.7464 -48.7435 -48.7300 -48.7273 -48.7212 -48.7106
   -48.7087 -48.7060 -48.7022 -48.6934 -48.6882 -48.6665 -48.6582 -48.6533
   -48.6484 -22.1615 -22.1601 -22.0756 -22.0739 -21.6459 -20.8661 -19.5553
   -19.5434 -19.3854 -19.3292 -19.3206 -19.3091 -19.2868 -19.2698 -19.2492
   -19.2412 -19.2111 -19.2080 -19.1966 -19.1870 -19.1806 -19.1624 -19.1425
   -19.1222 -19.1145 -19.1050 -19.1001 -19.0864 -19.0735 -19.0427 -19.0333
   -19.0071 -18.9994 -18.9639 -18.9437 -18.9337 -18.9194 -18.9080 -18.8970
   -18.8807 -18.8776 -18.8703 -18.8624 -18.8445 -18.8149 -18.8111 -18.8038
   -18.7799 -18.7605 -18.7451 -18.7123 -18.7114 -18.7013 -18.6934 -18.6868
   -18.6741 -18.6674 -18.6586 -18.6508 -18.6441 -18.6360 -18.6233 -18.6215
   -18.6125 -18.5983 -18.5963 -18.5936 -18.5811 -18.5799 -18.5735 -18.5658
   -18.5624 -18.5579 -18.5503 -18.5377 -18.5330 -18.5212 -18.5201 -18.5196
   -18.5175 -18.5020 -18.5003 -18.4894 -18.4869 -18.4838 -18.4756 -18.4728
   -18.4651 -18.4558 -18.4432 -18.4183 -18.4024 -18.4005 -18.3898 -18.3889
   -18.3290 -18.3168 -18.2723 -18.2701  16.0044  16.2543  16.2555  16.3353
    16.4892  16.8659  17.0821  17.2832  17.3421  17.4734  17.6771  17.8583
    18.2283  18.4295  18.4439  18.4554  18.5436  18.5634  18.5811  18.6198
    18.6898  18.7214  18.7409  18.7892  18.7935  18.8192  18.8471  18.9125
    18.9347  18.9594  19.0136  19.0556  19.0725  19.1317  19.1650  19.2197
    19.2978  19.3454  19.3743  19.3891  19.5234  19.5404  19.5524  19.6446
    19.7010  19.7285  19.7916  19.8429  19.8566  19.9591  19.9883  20.0020
    20.0095  20.1068  20.1831  20.4168  20.4194  20.5353  20.5718  20.6046
    20.6551  20.6662  20.8119  20.8579  20.8931  20.9316  21.0024  21.0515
    21.0725  21.1516  21.2879  21.2912  21.3015  21.3830  21.4128  21.4608
    21.4889  21.5421  21.5513  21.5780  21.6426  21.6530  21.7108  21.7506
    21.8311  21.8639  21.8743  21.9068  21.9267  21.9660  21.9781  21.9797
    22.1026  22.1034  22.1355  22.2034  22.2376  22.2768  22.3111  22.3479
    22.3638  22.4361  22.5156  22.5384  22.5637  22.5646  22.6747  22.6910
    22.8260  22.8619  22.9139  22.9414  22.9538  23.0992  23.1200  23.2541
    23.2633  23.3220  23.3864  23.3942  23.4363  23.4607  23.5169  23.6136
    23.9487  23.9552  23.9761  23.9776  24.0303  24.0581  24.1369  24.2271
    24.2624  24.2989  24.3607  24.4663  24.5381  24.5795  24.6706  24.6995
    24.7535  24.7886  24.7890  24.8565  24.9036  24.9223  24.9405  25.0013
    25.0872  25.0939  25.1260  25.1760  25.2439  25.2594  25.2667  25.2777
    25.3232  25.3313  25.3442  25.4085  25.6135  25.6156  25.6473  25.7238
    25.8527  25.8676  25.8755  25.9019  25.9522  26.0237  26.1696  26.2428
    26.3281  26.3545  26.7998  26.8075  26.8734  26.9606  27.0140  27.2563
    27.6208  28.7464  28.8798  29.1315  29.2177

          k = 0.0556 0.3889 0.3889 ( 30175 PWs)   bands (ev):

   -50.9038 -50.7556 -49.1432 -49.1401 -49.1382 -49.1367 -49.0992 -49.0980
   -49.0006 -48.9841 -48.8588 -48.8276 -48.7922 -48.7866 -48.7784 -48.7651
   -48.7538 -48.7492 -48.7460 -48.7433 -48.7283 -48.7275 -48.7235 -48.7108
   -48.7072 -48.7064 -48.7027 -48.6937 -48.6869 -48.6668 -48.6584 -48.6545
   -48.6484 -22.1615 -22.1594 -22.0752 -22.0747 -21.6529 -20.8550 -19.5539
   -19.5444 -19.3787 -19.3391 -19.3322 -19.2916 -19.2879 -19.2526 -19.2425
   -19.2387 -19.2129 -19.2063 -19.1939 -19.1703 -19.1681 -19.1584 -19.1535
   -19.1379 -19.1305 -19.1157 -19.1019 -19.0981 -19.0836 -19.0703 -19.0371
   -19.0265 -19.0060 -18.9680 -18.9522 -18.9449 -18.9333 -18.9095 -18.8849
   -18.8758 -18.8687 -18.8593 -18.8332 -18.8086 -18.8014 -18.7884 -18.7840
   -18.7653 -18.7598 -18.7370 -18.7279 -18.7186 -18.7027 -18.6937 -18.6899
   -18.6842 -18.6686 -18.6664 -18.6514 -18.6456 -18.6365 -18.6314 -18.6252
   -18.6181 -18.6004 -18.5960 -18.5915 -18.5855 -18.5772 -18.5722 -18.5666
   -18.5621 -18.5582 -18.5524 -18.5447 -18.5320 -18.5253 -18.5233 -18.5172
   -18.5132 -18.5062 -18.4968 -18.4925 -18.4859 -18.4836 -18.4757 -18.4748
   -18.4652 -18.4590 -18.4432 -18.4142 -18.4083 -18.4038 -18.3879 -18.3771
   -18.3358 -18.3082 -18.2818 -18.2633  16.0123  16.2412  16.3383  16.4646
    16.4966  16.9252  17.0176  17.2079  17.2649  17.6280  17.8056  17.8630
    17.9787  18.3257  18.3866  18.4849  18.5220  18.5847  18.6215  18.6701
    18.7172  18.7402  18.7527  18.7741  18.8175  18.8551  18.8881  18.8959
    18.9379  18.9970  19.0708  19.0804  19.1208  19.1447  19.1722  19.1964
    19.2175  19.2936  19.3452  19.4080  19.4296  19.4436  19.5122  19.5247
    19.5785  19.6021  19.7207  19.7276  19.8038  19.8106  19.9278  19.9878
    20.0874  20.1069  20.2471  20.3215  20.4682  20.4932  20.5964  20.6220
    20.7043  20.7550  20.7947  20.9079  20.9724  21.0428  21.1196  21.2115
    21.2410  21.2580  21.2996  21.3379  21.3696  21.3920  21.4830  21.4936
    21.5103  21.5277  21.5581  21.6637  21.6896  21.6981  21.7284  21.8070
    21.8275  21.8662  21.8890  21.9462  21.9748  21.9899  22.0247  22.0795
    22.0985  22.1104  22.1427  22.1668  22.1974  22.2365  22.2570  22.2760
    22.3296  22.3488  22.3686  22.4500  22.4724  22.5263  22.5503  22.5964
    22.6935  22.7544  22.7707  22.8730  22.8940  22.9572  23.0386  23.1259
    23.1552  23.2189  23.2351  23.3369  23.4273  23.5221  23.5475  23.6949
    23.8994  23.9166  24.0371  24.1080  24.1446  24.1859  24.2960  24.3118
    24.3743  24.4018  24.4889  24.4996  24.5339  24.5658  24.6737  24.7502
    24.7620  24.7905  24.8623  24.8800  24.9081  24.9560  24.9647  25.0299
    25.0927  25.1117  25.1661  25.1886  25.2350  25.2408  25.2819  25.3174
    25.3664  25.4051  25.4483  25.4701  25.5334  25.5438  25.5545  25.6075
    25.6846  25.7284  25.8534  25.8862  25.9431  25.9635  26.1149  26.2223
    26.3175  26.4481  26.4658  26.7782  26.9549  27.1802  27.2800  28.0710
    28.3205  28.4196  28.7738  29.1030  29.1995

          k = 0.0556 0.3889-0.5000 ( 30172 PWs)   bands (ev):

   -50.9038 -50.7556 -49.1438 -49.1405 -49.1382 -49.1367 -49.0989 -49.0978
   -48.9998 -48.9836 -48.8590 -48.8279 -48.7930 -48.7868 -48.7796 -48.7652
   -48.7537 -48.7493 -48.7461 -48.7432 -48.7275 -48.7265 -48.7214 -48.7093
   -48.7071 -48.7069 -48.7043 -48.6934 -48.6885 -48.6665 -48.6586 -48.6539
   -48.6491 -22.1618 -22.1594 -22.0753 -22.0747 -21.6528 -20.8547 -19.5559
   -19.5426 -19.3717 -19.3366 -19.3289 -19.2945 -19.2851 -19.2482 -19.2419
   -19.2392 -19.2145 -19.2066 -19.2038 -19.1707 -19.1680 -19.1646 -19.1562
   -19.1360 -19.1357 -19.1064 -19.1029 -19.1014 -19.0973 -19.0770 -19.0354
   -19.0124 -19.0083 -18.9577 -18.9504 -18.9465 -18.9287 -18.9131 -18.8941
   -18.8849 -18.8620 -18.8523 -18.8389 -18.8075 -18.8012 -18.7876 -18.7709
   -18.7578 -18.7515 -18.7414 -18.7353 -18.7287 -18.7037 -18.6971 -18.6815
   -18.6739 -18.6697 -18.6568 -18.6507 -18.6497 -18.6434 -18.6352 -18.6210
   -18.6182 -18.6101 -18.5957 -18.5849 -18.5848 -18.5838 -18.5810 -18.5695
   -18.5595 -18.5558 -18.5484 -18.5458 -18.5320 -18.5223 -18.5190 -18.5172
   -18.5124 -18.5065 -18.5036 -18.4931 -18.4914 -18.4840 -18.4785 -18.4764
   -18.4693 -18.4620 -18.4436 -18.4154 -18.4044 -18.3913 -18.3862 -18.3785
   -18.3356 -18.3075 -18.2821 -18.2636  16.0162  16.2413  16.3253  16.4663
    16.5004  16.9255  17.0767  17.2235  17.4427  17.4701  17.7326  17.9292
    17.9931  18.1614  18.5109  18.5401  18.5635  18.5779  18.6385  18.6810
    18.7048  18.7223  18.7631  18.7852  18.8066  18.8084  18.8996  18.9358
    18.9711  19.0126  19.0215  19.0312  19.0884  19.1008  19.1548  19.1809
    19.2050  19.3321  19.3590  19.3791  19.4192  19.4289  19.4647  19.5021
    19.5375  19.5867  19.6470  19.6865  19.6929  19.8444  19.9224  19.9834
    20.0238  20.1039  20.1572  20.3722  20.4481  20.6292  20.6320  20.7159
    20.7290  20.8301  20.8475  20.9128  21.0196  21.0333  21.1324  21.1349
    21.1424  21.2820  21.3656  21.3919  21.4084  21.4813  21.5270  21.5521
    21.5618  21.6485  21.6669  21.6887  21.7333  21.7637  21.8080  21.8156
    21.8497  21.8558  21.9170  21.9372  21.9467  21.9666  21.9818  21.9942
    22.0718  22.0824  22.0900  22.1156  22.1474  22.2387  22.2747  22.2984
    22.3242  22.3516  22.3566  22.3809  22.4489  22.4612  22.5876  22.6845
    22.6871  22.6901  22.7680  22.7703  22.8094  22.8301  22.9254  22.9553
    22.9796  23.1401  23.1985  23.3975  23.4250  23.4573  23.5917  23.6784
    23.8745  24.0085  24.0375  24.1928  24.2210  24.2297  24.2685  24.2863
    24.4009  24.4065  24.5355  24.5578  24.6511  24.6752  24.7017  24.7443
    24.7867  24.8384  24.8497  24.9293  24.9705  24.9820  25.0519  25.0608
    25.0759  25.0982  25.2069  25.2108  25.2120  25.2317  25.2953  25.3435
    25.3564  25.3798  25.3901  25.4185  25.4782  25.5203  25.5478  25.6161
    25.6310  25.6744  25.7110  25.8198  25.8732  25.9441  26.1006  26.2235
    26.3499  26.4255  26.4509  26.7527  27.0557  27.3960  27.6937  27.6998
    28.0348  28.8346  29.0741  29.1276  29.2626

          k = 0.0556-0.5000-0.5000 ( 30184 PWs)   bands (ev):

   -50.9037 -50.7557 -49.1422 -49.1421 -49.1375 -49.1374 -49.0985 -49.0983
   -48.9971 -48.9864 -48.8572 -48.8309 -48.7923 -48.7869 -48.7805 -48.7646
   -48.7540 -48.7501 -48.7455 -48.7419 -48.7274 -48.7253 -48.7215 -48.7079
   -48.7074 -48.7065 -48.7061 -48.6934 -48.6886 -48.6665 -48.6587 -48.6541
   -48.6493 -22.1619 -22.1590 -22.0751 -22.0751 -21.6555 -20.8503 -19.5561
   -19.5424 -19.3551 -19.3543 -19.3284 -19.2839 -19.2805 -19.2583 -19.2392
   -19.2375 -19.2052 -19.2037 -19.1993 -19.1861 -19.1552 -19.1531 -19.1531
   -19.1494 -19.1443 -19.1157 -19.1097 -19.1066 -19.1029 -19.0816 -19.0361
   -19.0295 -19.0081 -18.9548 -18.9477 -18.9392 -18.9335 -18.9325 -18.8886
   -18.8870 -18.8583 -18.8504 -18.8227 -18.7828 -18.7782 -18.7733 -18.7694
   -18.7576 -18.7472 -18.7441 -18.7439 -18.7390 -18.7018 -18.6998 -18.6738
   -18.6731 -18.6730 -18.6707 -18.6581 -18.6565 -18.6432 -18.6240 -18.6181
   -18.6171 -18.6070 -18.6067 -18.6007 -18.5915 -18.5879 -18.5775 -18.5677
   -18.5670 -18.5426 -18.5409 -18.5392 -18.5303 -18.5290 -18.5222 -18.5168
   -18.5148 -18.5090 -18.5006 -18.4957 -18.4921 -18.4882 -18.4755 -18.4735
   -18.4723 -18.4656 -18.4356 -18.4298 -18.3991 -18.3874 -18.3854 -18.3750
   -18.3378 -18.2999 -18.2898 -18.2613  16.0212  16.2358  16.3213  16.4591
    16.6971  16.9195  16.9574  17.1970  17.5098  17.6167  17.7363  17.7633
    17.9978  18.0576  18.4676  18.5489  18.6359  18.6650  18.6726  18.6906
    18.7048  18.7271  18.7581  18.7718  18.7981  18.8753  18.8786  18.9057
    18.9397  18.9962  19.0521  19.0677  19.0921  19.1661  19.1835  19.1971
    19.2073  19.2326  19.2976  19.3008  19.3618  19.4168  19.4243  19.4885
    19.5600  19.5793  19.5895  19.5898  19.6243  19.7148  19.9166  19.9186
    20.0224  20.2209  20.2607  20.2663  20.2731  20.6784  20.6925  20.7003
    20.8562  20.8755  20.9060  21.0055  21.0226  21.1060  21.1562  21.1848
    21.2608  21.3432  21.4108  21.4133  21.4404  21.4797  21.5292  21.5462
    21.5648  21.6096  21.6270  21.6774  21.6997  21.7554  21.8356  21.8390
    21.8902  21.9073  21.9382  21.9560  21.9897  22.0020  22.0606  22.1291
    22.1455  22.1660  22.1706  22.1963  22.1993  22.2127  22.2277  22.2401
    22.2539  22.2606  22.2934  22.3897  22.3963  22.4719  22.4980  22.5137
    22.5876  22.6007  22.6010  22.6450  22.7158  22.7741  22.7791  22.8281
    22.8873  23.1174  23.1627  23.3948  23.4628  23.4657  23.5415  23.8017
    23.8280  23.9601  24.0426  24.2676  24.2856  24.3205  24.4083  24.4265
    24.4487  24.5060  24.5131  24.5217  24.5580  24.6735  24.6812  24.6854
    24.8050  24.9522  24.9702  24.9825  25.0161  25.0375  25.1197  25.1268
    25.2044  25.2052  25.2136  25.2236  25.2677  25.2907  25.3062  25.3148
    25.3519  25.3679  25.3919  25.4190  25.4309  25.4436  25.4629  25.4649
    25.4965  25.5599  25.6171  25.6857  25.8458  25.9590  26.1491  26.1876
    26.2458  26.3717  26.4704  26.7324  27.0296  27.7859  28.2097  28.2493
    28.4235  28.4301  28.5482  28.5863  29.0453

          k = 0.1667 0.1667 0.1667 ( 30217 PWs)   bands (ev):

   -50.9041 -50.7552 -49.1411 -49.1410 -49.1362 -49.1361 -49.1010 -49.0976
   -49.0124 -48.9763 -48.8638 -48.8135 -48.7888 -48.7881 -48.7714 -48.7660
   -48.7605 -48.7502 -48.7419 -48.7410 -48.7389 -48.7359 -48.7277 -48.7108
   -48.7096 -48.7071 -48.7031 -48.6894 -48.6827 -48.6674 -48.6560 -48.6557
   -48.6451 -22.1610 -22.1610 -22.0737 -22.0737 -21.6379 -20.8815 -19.5574
   -19.5387 -19.4331 -19.3493 -19.3487 -19.3397 -19.3069 -19.2791 -19.2267
   -19.2140 -19.2128 -19.1978 -19.1833 -19.1664 -19.1471 -19.1323 -19.1211
   -19.1142 -19.1024 -19.0911 -19.0726 -19.0586 -19.0397 -19.0346 -19.0082
   -19.0055 -19.0041 -18.9710 -18.9675 -18.9603 -18.9595 -18.9024 -18.8835
   -18.8754 -18.8748 -18.8568 -18.8517 -18.8434 -18.8401 -18.7886 -18.7879
   -18.7792 -18.7733 -18.7566 -18.7527 -18.7525 -18.7031 -18.7024 -18.6967
   -18.6897 -18.6784 -18.6780 -18.6700 -18.6641 -18.6628 -18.6461 -18.6351
   -18.6345 -18.6266 -18.6075 -18.6068 -18.5859 -18.5829 -18.5732 -18.5619
   -18.5566 -18.5421 -18.5241 -18.5205 -18.5145 -18.5081 -18.5054 -18.4996
   -18.4925 -18.4881 -18.4822 -18.4819 -18.4783 -18.4744 -18.4707 -18.4646
   -18.4536 -18.4469 -18.4370 -18.4359 -18.4292 -18.4145 -18.3826 -18.3769
   -18.3175 -18.3096 -18.2869 -18.2761  15.9635  16.0258  16.2758  16.4248
    16.4653  16.4729  16.8433  17.3159  17.5976  17.6640  17.6741  17.9060
    18.0874  18.1264  18.1680  18.2513  18.2576  18.3921  18.5285  18.5398
    18.6502  18.6960  18.7126  18.8227  18.8838  18.9618  18.9814  19.1461
    19.1519  19.1887  19.2098  19.2101  19.3052  19.3516  19.3984  19.4004
    19.4780  19.5146  19.6024  19.6242  19.6733  19.6747  19.7363  19.7380
    19.7953  19.8756  19.9120  19.9286  19.9945  20.0321  20.0778  20.1178
    20.1645  20.2516  20.3210  20.3976  20.4917  20.5556  20.5696  20.6297
    20.6683  20.6830  20.7307  20.7721  20.7805  20.8477  20.8581  20.8844
    20.8867  21.0335  21.0408  21.0729  21.1383  21.2094  21.2597  21.2777
    21.3140  21.3240  21.3332  21.3756  21.4016  21.4222  21.4806  21.5220
    21.5272  21.5471  21.6381  21.6783  21.7467  21.8816  21.9477  22.0153
    22.1047  22.1649  22.2236  22.2510  22.2849  22.2961  22.5001  22.5250
    22.5426  22.6295  22.6315  22.6761  22.6950  22.7591  22.8995  22.9647
    22.9715  23.0146  23.0580  23.1084  23.1411  23.2845  23.2909  23.3704
    23.4257  23.4595  23.4986  23.5131  23.5568  23.6036  23.6360  23.6637
    23.6714  23.7458  23.7590  23.7978  23.9232  24.0033  24.0197  24.0409
    24.1741  24.1886  24.2922  24.3001  24.3193  24.3741  24.3853  24.4737
    24.4849  24.5672  24.5781  24.6069  24.6885  24.8307  24.8730  24.9080
    25.0123  25.0200  25.0628  25.1093  25.1773  25.2360  25.3725  25.4139
    25.4438  25.4754  25.5701  25.6335  25.6954  25.7031  25.7680  25.8783
    25.9418  25.9874  26.0121  26.0401  26.0831  26.1259  26.2633  26.2741
    26.5537  26.5679  26.5746  27.0450  27.0752  27.3076  27.3689  27.9573
    27.9741  28.1640  28.2181  28.2391  28.3606

          k = 0.1667 0.1667 0.2778 ( 30175 PWs)   bands (ev):

   -50.9041 -50.7552 -49.1435 -49.1410 -49.1370 -49.1362 -49.0999 -49.0972
   -49.0097 -48.9754 -48.8645 -48.8133 -48.7924 -48.7887 -48.7731 -48.7676
   -48.7606 -48.7518 -48.7416 -48.7382 -48.7375 -48.7303 -48.7258 -48.7111
   -48.7096 -48.7059 -48.7028 -48.6913 -48.6855 -48.6669 -48.6565 -48.6548
   -48.6463 -22.1610 -22.1610 -22.0748 -22.0737 -21.6379 -20.8800 -19.5500
   -19.5448 -19.4178 -19.3392 -19.3342 -19.3235 -19.3076 -19.2799 -19.2360
   -19.2244 -19.2152 -19.1986 -19.1828 -19.1707 -19.1657 -19.1438 -19.1408
   -19.1213 -19.1086 -19.0901 -19.0779 -19.0593 -19.0531 -19.0471 -19.0162
   -19.0073 -18.9851 -18.9792 -18.9647 -18.9486 -18.9374 -18.8975 -18.8965
   -18.8879 -18.8766 -18.8623 -18.8546 -18.8344 -18.8213 -18.8027 -18.7935
   -18.7833 -18.7740 -18.7485 -18.7443 -18.7278 -18.7100 -18.6968 -18.6923
   -18.6862 -18.6773 -18.6675 -18.6614 -18.6591 -18.6505 -18.6396 -18.6262
   -18.6239 -18.6159 -18.6068 -18.5932 -18.5903 -18.5800 -18.5792 -18.5734
   -18.5568 -18.5502 -18.5389 -18.5244 -18.5183 -18.5130 -18.5115 -18.5069
   -18.4987 -18.4935 -18.4872 -18.4831 -18.4802 -18.4706 -18.4656 -18.4614
   -18.4562 -18.4470 -18.4347 -18.4318 -18.4292 -18.4215 -18.3839 -18.3790
   -18.3215 -18.3088 -18.2838 -18.2747  15.9769  16.0531  16.2671  16.4105
    16.4730  16.5797  16.8839  17.3042  17.5979  17.6413  17.6924  17.8973
    18.0172  18.2148  18.2494  18.3360  18.3515  18.3875  18.6170  18.6363
    18.6848  18.7047  18.7497  18.8041  18.8766  18.9274  18.9406  19.0316
    19.0466  19.0684  19.0949  19.1685  19.2267  19.3079  19.3234  19.3953
    19.4162  19.4656  19.5054  19.5403  19.5577  19.5963  19.6919  19.7144
    19.7629  19.7948  19.8222  19.8880  19.9470  20.0449  20.0563  20.0851
    20.2209  20.2663  20.3541  20.3965  20.4365  20.4815  20.5121  20.5393
    20.5867  20.7181  20.7618  20.7853  20.8655  20.8826  20.9395  20.9593
    21.0118  21.0619  21.0799  21.1574  21.1896  21.2117  21.2751  21.3180
    21.3473  21.3701  21.4069  21.4899  21.5324  21.5504  21.5566  21.5902
    21.6331  21.6768  21.7205  21.7840  21.8171  21.8417  21.9455  21.9964
    22.0165  22.1028  22.1417  22.1697  22.2450  22.3304  22.3793  22.4356
    22.4490  22.5540  22.6014  22.6665  22.6909  22.8101  22.8999  22.9244
    22.9826  23.0972  23.1147  23.1558  23.1795  23.1924  23.2920  23.3311
    23.3390  23.3926  23.4244  23.4858  23.5221  23.5727  23.6042  23.6643
    23.7072  23.7208  23.7711  23.8252  23.8736  23.9892  24.1035  24.1364
    24.1702  24.2388  24.2722  24.3038  24.3626  24.4354  24.4792  24.5644
    24.5757  24.6187  24.6888  24.7455  24.7679  24.7978  24.8622  24.9450
    24.9955  25.0668  25.1404  25.1620  25.2297  25.2982  25.3103  25.3501
    25.4204  25.4695  25.5209  25.5738  25.6055  25.6746  25.7174  25.7779
    25.8395  25.8953  25.9044  26.0033  26.0378  26.0465  26.1732  26.2599
    26.2987  26.3605  26.5796  27.0692  27.2018  27.5340  27.5634  27.6162
    27.9147  27.9698  28.1170  28.2381  28.6925

          k = 0.1667 0.1667 0.3889 ( 30171 PWs)   bands (ev):

   -50.9041 -50.7552 -49.1455 -49.1410 -49.1377 -49.1362 -49.0991 -49.0969
   -49.0072 -48.9747 -48.8651 -48.8131 -48.7954 -48.7888 -48.7745 -48.7691
   -48.7602 -48.7534 -48.7417 -48.7382 -48.7351 -48.7244 -48.7236 -48.7114
   -48.7100 -48.7051 -48.7020 -48.6937 -48.6884 -48.6663 -48.6570 -48.6537
   -48.6476 -22.1611 -22.1610 -22.0757 -22.0737 -21.6378 -20.8788 -19.5542
   -19.5391 -19.4000 -19.3293 -19.3182 -19.3106 -19.3009 -19.2808 -19.2556
   -19.2373 -19.2201 -19.1988 -19.1915 -19.1835 -19.1657 -19.1621 -19.1330
   -19.1272 -19.1135 -19.0972 -19.0863 -19.0748 -19.0525 -19.0452 -19.0231
   -19.0059 -18.9860 -18.9814 -18.9568 -18.9309 -18.9190 -18.9119 -18.9039
   -18.8794 -18.8734 -18.8651 -18.8565 -18.8360 -18.8316 -18.8198 -18.8049
   -18.7773 -18.7723 -18.7542 -18.7296 -18.7068 -18.7030 -18.6933 -18.6885
   -18.6757 -18.6751 -18.6613 -18.6514 -18.6471 -18.6390 -18.6268 -18.6209
   -18.6151 -18.6111 -18.6018 -18.5955 -18.5865 -18.5806 -18.5761 -18.5730
   -18.5623 -18.5563 -18.5452 -18.5289 -18.5281 -18.5246 -18.5209 -18.5160
   -18.5087 -18.5034 -18.4962 -18.4806 -18.4791 -18.4705 -18.4648 -18.4583
   -18.4565 -18.4430 -18.4357 -18.4311 -18.4273 -18.4158 -18.3901 -18.3837
   -18.3238 -18.3120 -18.2816 -18.2690  15.9891  16.0753  16.2598  16.3691
    16.4773  16.7728  16.9452  17.2924  17.5167  17.6108  17.6411  17.7120
    18.1761  18.3623  18.3735  18.4484  18.4726  18.5094  18.6156  18.6772
    18.7060  18.7397  18.7424  18.7744  18.7940  18.8814  18.8926  18.9020
    18.9457  19.0155  19.0402  19.0979  19.1577  19.1605  19.2516  19.2949
    19.3655  19.3933  19.4496  19.4729  19.5304  19.6023  19.6328  19.7011
    19.7430  19.8029  19.8682  19.8992  19.9288  20.0484  20.0820  20.1134
    20.1767  20.2384  20.2694  20.3140  20.3609  20.3949  20.4790  20.5330
    20.6184  20.7099  20.7576  20.8348  20.8709  20.9063  20.9357  20.9813
    21.0300  21.0562  21.1546  21.1839  21.2386  21.2754  21.2852  21.3232
    21.3698  21.3941  21.4601  21.5755  21.6061  21.6228  21.6902  21.7180
    21.7309  21.7719  21.8226  21.8465  21.9041  21.9212  21.9713  21.9988
    22.0233  22.0826  22.1718  22.1869  22.2755  22.3257  22.3521  22.3681
    22.3783  22.4437  22.5759  22.6246  22.6859  22.7492  22.8380  22.8957
    22.9547  23.0000  23.0600  23.0900  23.1532  23.2068  23.2823  23.3244
    23.3391  23.3649  23.4241  23.4515  23.4926  23.5324  23.5563  23.6206
    23.6549  23.7007  23.7647  23.8405  23.8895  23.9263  24.0768  24.1370
    24.1978  24.2501  24.2779  24.3891  24.4406  24.4793  24.5736  24.6182
    24.7215  24.7420  24.7534  24.7967  24.8403  24.8588  24.9169  24.9973
    25.0090  25.1049  25.1221  25.1556  25.2214  25.2781  25.3008  25.4124
    25.4231  25.4652  25.4986  25.5555  25.6085  25.6601  25.7035  25.7349
    25.7745  25.7901  25.9469  25.9896  26.0340  26.0361  26.0490  26.1633
    26.2699  26.3852  26.5271  26.9371  27.0423  27.1605  27.3830  27.6136
    27.7486  27.9640  28.0838  28.6448  29.3707

          k = 0.1667 0.1667-0.5000 ( 30122 PWs)   bands (ev):

   -50.9041 -50.7552 -49.1463 -49.1410 -49.1380 -49.1362 -49.0988 -49.0967
   -49.0063 -48.9744 -48.8653 -48.8130 -48.7965 -48.7887 -48.7751 -48.7697
   -48.7599 -48.7541 -48.7418 -48.7382 -48.7342 -48.7237 -48.7206 -48.7115
   -48.7100 -48.7052 -48.7015 -48.6947 -48.6898 -48.6661 -48.6572 -48.6530
   -48.6482 -22.1611 -22.1610 -22.0760 -22.0737 -21.6378 -20.8782 -19.5566
   -19.5359 -19.3907 -19.3253 -19.3121 -19.3093 -19.2892 -19.2825 -19.2630
   -19.2452 -19.2218 -19.2098 -19.1943 -19.1830 -19.1753 -19.1574 -19.1306
   -19.1231 -19.1126 -19.1065 -19.0950 -19.0766 -19.0564 -19.0398 -19.0273
   -18.9991 -18.9925 -18.9797 -18.9586 -18.9240 -18.9220 -18.9135 -18.8784
   -18.8764 -18.8732 -18.8684 -18.8574 -18.8535 -18.8414 -18.8264 -18.8076
   -18.7760 -18.7705 -18.7528 -18.7214 -18.7049 -18.6960 -18.6915 -18.6865
   -18.6740 -18.6731 -18.6648 -18.6438 -18.6385 -18.6267 -18.6225 -18.6151
   -18.6130 -18.6112 -18.6020 -18.5989 -18.5879 -18.5825 -18.5777 -18.5693
   -18.5594 -18.5521 -18.5451 -18.5365 -18.5362 -18.5263 -18.5196 -18.5194
   -18.5131 -18.5123 -18.5074 -18.4808 -18.4761 -18.4715 -18.4694 -18.4588
   -18.4549 -18.4375 -18.4345 -18.4331 -18.4216 -18.4090 -18.4002 -18.3860
   -18.3236 -18.3138 -18.2817 -18.2657  15.9940  16.0839  16.2569  16.3531
    16.4790  16.8548  17.1005  17.2142  17.3296  17.6146  17.6207  17.7183
    18.3341  18.3955  18.4803  18.5081  18.5113  18.5470  18.6294  18.6654
    18.6769  18.6990  18.7070  18.7409  18.7795  18.8003  18.8585  18.9207
    18.9592  19.0007  19.0019  19.0707  19.0984  19.1613  19.2090  19.2427
    19.3266  19.3664  19.4334  19.4373  19.5230  19.5298  19.6319  19.7043
    19.7951  19.8464  19.8688  19.9358  20.0080  20.0135  20.0635  20.0764
    20.1648  20.1799  20.2490  20.2520  20.3160  20.4014  20.4668  20.5223
    20.7123  20.7287  20.7942  20.8378  20.8594  20.8664  20.8969  20.9259
    21.0404  21.0575  21.1206  21.1828  21.2333  21.3170  21.3196  21.3690
    21.4357  21.4563  21.4982  21.5197  21.5805  21.6228  21.7004  21.7432
    21.7860  21.7874  21.8889  21.9159  21.9346  21.9739  21.9958  22.0083
    22.0614  22.0952  22.1084  22.2320  22.2901  22.3710  22.3790  22.4268
    22.4729  22.4767  22.6051  22.6074  22.6173  22.7075  22.7547  22.7672
    22.9004  22.9069  22.9668  23.0082  23.1066  23.1630  23.3299  23.3451
    23.3615  23.3747  23.4046  23.4804  23.4953  23.5142  23.5545  23.5951
    23.6187  23.6407  23.7851  23.8796  23.9264  23.9319  23.9845  24.1063
    24.1231  24.3127  24.3641  24.4670  24.5253  24.5495  24.6013  24.6717
    24.6740  24.7181  24.7631  24.8172  24.9132  24.9319  24.9457  25.0446
    25.1075  25.1381  25.1442  25.1784  25.1828  25.2306  25.2623  25.3040
    25.3361  25.3675  25.4925  25.5419  25.5617  25.5810  25.6101  25.6907
    25.7578  25.9639  26.0306  26.0420  26.0729  26.1045  26.2197  26.2419
    26.3987  26.4964  26.5152  26.5747  26.6929  26.7956  27.3704  27.7546
    27.8088  27.8872  27.9937  29.1363  29.1382

          k = 0.1667 0.2778 0.2778 ( 30156 PWs)   bands (ev):

   -50.9039 -50.7554 -49.1427 -49.1404 -49.1378 -49.1368 -49.0996 -49.0976
   -49.0060 -48.9796 -48.8616 -48.8204 -48.7915 -48.7887 -48.7737 -48.7693
   -48.7566 -48.7511 -48.7420 -48.7378 -48.7354 -48.7295 -48.7258 -48.7100
   -48.7091 -48.7055 -48.7031 -48.6926 -48.6855 -48.6669 -48.6570 -48.6554
   -48.6470 -22.1609 -22.1604 -22.0749 -22.0743 -21.6460 -20.8668 -19.5507
   -19.5437 -19.4054 -19.3385 -19.3245 -19.3163 -19.3058 -19.2695 -19.2343
   -19.2290 -19.2181 -19.1963 -19.1883 -19.1722 -19.1597 -19.1464 -19.1401
   -19.1345 -19.1203 -19.1143 -19.0843 -19.0763 -19.0684 -19.0558 -19.0316
   -19.0158 -19.0121 -18.9819 -18.9519 -18.9467 -18.9259 -18.8980 -18.8765
   -18.8741 -18.8672 -18.8596 -18.8340 -18.8258 -18.8173 -18.8052 -18.7953
   -18.7726 -18.7668 -18.7456 -18.7359 -18.7255 -18.7046 -18.7001 -18.6960
   -18.6883 -18.6700 -18.6658 -18.6607 -18.6517 -18.6415 -18.6363 -18.6337
   -18.6245 -18.6158 -18.6102 -18.5899 -18.5845 -18.5802 -18.5664 -18.5616
   -18.5601 -18.5516 -18.5496 -18.5383 -18.5283 -18.5274 -18.5179 -18.5145
   -18.5043 -18.4951 -18.4904 -18.4888 -18.4829 -18.4734 -18.4658 -18.4624
   -18.4489 -18.4399 -18.4341 -18.4307 -18.4275 -18.4126 -18.3907 -18.3800
   -18.3230 -18.3140 -18.2818 -18.2690  15.9910  16.2353  16.2521  16.3953
    16.4511  16.7200  16.9129  17.2700  17.4308  17.6738  17.8019  17.9587
    18.0144  18.1207  18.3104  18.3768  18.3989  18.4331  18.6155  18.6924
    18.7159  18.7608  18.7891  18.8001  18.8433  18.8660  18.9070  18.9304
    18.9531  19.0629  19.0865  19.1168  19.1590  19.2240  19.2932  19.3470
    19.3619  19.3979  19.4480  19.4730  19.4984  19.5471  19.5916  19.6850
    19.6958  19.7509  19.7774  19.8056  19.8724  19.9506  20.0098  20.0506
    20.2102  20.2968  20.3251  20.3990  20.4276  20.4569  20.5121  20.5693
    20.5932  20.6994  20.7923  20.8226  20.8703  20.9075  20.9566  20.9920
    21.0513  21.0916  21.1405  21.1825  21.2606  21.3344  21.3612  21.4129
    21.4353  21.4741  21.5297  21.5645  21.5956  21.6360  21.6560  21.6709
    21.6861  21.7233  21.7744  21.7855  21.8392  21.8753  21.9582  22.0290
    22.0713  22.0890  22.1178  22.1690  22.1949  22.2595  22.2718  22.3867
    22.4565  22.4701  22.5091  22.6382  22.6843  22.7407  22.7887  22.8565
    22.8656  23.0122  23.0430  23.0656  23.1384  23.1558  23.1810  23.2510
    23.2866  23.3356  23.3876  23.4945  23.5291  23.5682  23.6006  23.7087
    23.7312  23.7692  23.8065  23.8499  23.8801  23.9547  24.0278  24.0674
    24.1153  24.2313  24.2939  24.3152  24.3861  24.4672  24.5218  24.5678
    24.6532  24.7147  24.8277  24.8360  24.8938  24.9209  24.9473  24.9805
    25.0126  25.0414  25.0957  25.2578  25.2759  25.2964  25.3558  25.3762
    25.4820  25.5097  25.5591  25.5696  25.6222  25.6859  25.6939  25.7732
    25.7831  25.8274  25.8548  25.8950  25.9356  25.9690  26.0990  26.2035
    26.2254  26.4401  26.6297  27.0278  27.3938  27.4924  27.6084  27.9551
    28.1210  28.2228  28.4106  28.5231  28.6784

          k = 0.1667 0.2778 0.3889 ( 30187 PWs)   bands (ev):

   -50.9039 -50.7554 -49.1445 -49.1404 -49.1387 -49.1368 -49.0988 -49.0972
   -49.0038 -48.9786 -48.8620 -48.8204 -48.7941 -48.7890 -48.7765 -48.7700
   -48.7561 -48.7530 -48.7420 -48.7377 -48.7317 -48.7244 -48.7233 -48.7107
   -48.7088 -48.7060 -48.7023 -48.6943 -48.6886 -48.6663 -48.6575 -48.6543
   -48.6483 -22.1613 -22.1604 -22.0754 -22.0743 -21.6459 -20.8658 -19.5551
   -19.5379 -19.3900 -19.3317 -19.3227 -19.3033 -19.2922 -19.2705 -19.2443
   -19.2391 -19.2175 -19.2095 -19.1903 -19.1826 -19.1671 -19.1524 -19.1439
   -19.1398 -19.1252 -19.1120 -19.0977 -19.0848 -19.0722 -19.0678 -19.0330
   -19.0042 -18.9946 -18.9742 -18.9555 -18.9282 -18.9124 -18.8990 -18.8891
   -18.8697 -18.8650 -18.8538 -18.8453 -18.8296 -18.8225 -18.8181 -18.8004
   -18.7692 -18.7646 -18.7426 -18.7279 -18.7133 -18.7017 -18.6951 -18.6880
   -18.6817 -18.6690 -18.6625 -18.6558 -18.6479 -18.6398 -18.6373 -18.6311
   -18.6158 -18.6081 -18.6017 -18.5897 -18.5880 -18.5836 -18.5729 -18.5698
   -18.5638 -18.5572 -18.5533 -18.5484 -18.5344 -18.5272 -18.5228 -18.5203
[...]
    17.9807  18.1775  18.1940  18.3164  18.4478  18.4978  18.5919  18.6546
    18.7144  18.7565  18.7725  18.8400  18.8626  18.8711  18.9280  18.9387
    19.0137  19.0141  19.0436  19.0925  19.1295  19.1613  19.2002  19.2145
    19.2986  19.3012  19.3448  19.4521  19.4678  19.4796  19.5016  19.5771
    19.6082  19.6355  19.7789  19.8153  19.8631  19.8858  19.9710  20.0178
    20.0615  20.1734  20.1794  20.3003  20.3290  20.3844  20.4175  20.5627
    20.6630  20.7985  20.8178  20.8713  20.9950  21.0566  21.0685  21.1522
    21.1680  21.2104  21.4233  21.4995  21.5534  21.5673  21.5898  21.5983
    21.6679  21.6963  21.7200  21.7298  21.7581  21.7700  21.7793  21.8055
    21.8073  21.8341  21.8440  21.8613  21.8705  21.9017  21.9335  21.9442
    21.9558  21.9861  22.0622  22.1605  22.1616  22.2637  22.2643  22.2920
    22.2946  22.3822  22.3835  22.4211  22.5211  22.5246  22.5327  22.5531
    22.6197  22.6766  22.7033  22.8154  22.9428  22.9566  23.0366  23.0661
    23.0830  23.2159  23.2276  23.3160  23.3395  23.4938  23.5104  23.5557
    23.6274  23.6644  23.6863  23.7514  23.8350  23.8872  23.9176  23.9681
    24.0016  24.0271  24.0328  24.0908  24.1669  24.4309  24.4605  24.5433
    24.5563  24.5835  24.6140  24.7401  24.8157  24.8694  24.9416  25.2043
    25.3843  25.3858  25.4228  25.4382  25.4729  25.5581  25.5654  25.5914
    25.6057  25.6066  25.6452  25.6559  25.6801  25.7596  25.7633  25.7751
    25.7885  25.7887  25.8445  25.8594  26.0814  26.1344  26.3284  26.6420
    26.7212  27.3572  27.3693  27.7557  27.7619  27.9069  27.9885  28.0109
    28.1628  28.9474  29.0050  29.1090  29.1960

          k =-0.5000 0.2778 0.3889 ( 30178 PWs)   bands (ev):

   -50.9039 -50.7554 -49.1451 -49.1444 -49.1391 -49.1387 -49.0965 -49.0960
   -48.9992 -48.9764 -48.8611 -48.8186 -48.7975 -48.7966 -48.7772 -48.7762
   -48.7603 -48.7579 -48.7321 -48.7305 -48.7272 -48.7159 -48.7134 -48.7120
   -48.7068 -48.7063 -48.7055 -48.7002 -48.6987 -48.6648 -48.6557 -48.6547
   -48.6516 -22.1614 -22.1613 -22.0757 -22.0755 -21.6456 -20.8638 -19.5636
   -19.5086 -19.3704 -19.3270 -19.3253 -19.2755 -19.2732 -19.2670 -19.2573
   -19.2527 -19.2267 -19.2149 -19.2039 -19.1762 -19.1654 -19.1616 -19.1548
   -19.1454 -19.1450 -19.1288 -19.1236 -19.1141 -19.0780 -19.0601 -19.0475
   -19.0353 -18.9914 -18.9655 -18.9363 -18.9208 -18.9194 -18.8821 -18.8713
   -18.8538 -18.8377 -18.8369 -18.8272 -18.8129 -18.7996 -18.7864 -18.7701
   -18.7487 -18.7397 -18.7327 -18.7273 -18.7127 -18.7099 -18.7008 -18.6987
   -18.6944 -18.6876 -18.6722 -18.6710 -18.6578 -18.6511 -18.6489 -18.6404
   -18.6400 -18.6253 -18.6150 -18.5979 -18.5956 -18.5950 -18.5816 -18.5795
   -18.5735 -18.5718 -18.5701 -18.5644 -18.5624 -18.5504 -18.5430 -18.5290
   -18.5026 -18.4983 -18.4947 -18.4648 -18.4639 -18.4508 -18.4436 -18.4415
   -18.4410 -18.4312 -18.4204 -18.4140 -18.4082 -18.4042 -18.3936 -18.3869
   -18.3172 -18.3153 -18.2758 -18.2740  16.0051  16.2184  16.2851  16.3565
    16.3743  16.9751  17.2610  17.3927  17.5488  17.5850  17.6722  17.6822
    17.9792  18.1093  18.2087  18.4317  18.4498  18.4679  18.6200  18.6489
    18.7406  18.7674  18.8374  18.8446  18.8901  18.9100  18.9201  18.9444
    19.0080  19.0208  19.0799  19.1228  19.1594  19.1662  19.1897  19.2407
    19.2959  19.3809  19.3900  19.4226  19.4656  19.4786  19.5059  19.5696
    19.6053  19.7074  19.7437  19.7758  19.8193  19.9185  19.9771  19.9799
    20.1471  20.1942  20.2434  20.2703  20.4166  20.4414  20.4459  20.5838
    20.6167  20.7329  20.8408  20.9005  20.9452  20.9549  21.0745  21.0902
    21.2090  21.3036  21.3732  21.4061  21.5575  21.5618  21.5887  21.6276
    21.6544  21.6778  21.6999  21.7525  21.7560  21.7805  21.7827  21.7983
    21.8037  21.8448  21.8491  21.8705  21.8795  21.8937  21.9554  21.9560
    22.0079  22.0266  22.0292  22.0751  22.1665  22.2320  22.2509  22.2611
    22.2836  22.2985  22.3482  22.4159  22.4774  22.4839  22.5486  22.5689
    22.6392  22.6654  22.7197  22.7676  22.9054  22.9505  22.9561  22.9613
    23.0016  23.1685  23.2517  23.3085  23.3612  23.5642  23.5700  23.6257
    23.6460  23.6933  23.7340  23.8149  23.8511  23.8941  23.9053  23.9631
    24.0083  24.0876  24.1082  24.1232  24.1445  24.2859  24.3414  24.3541
    24.6660  24.6802  24.7556  24.8045  24.9308  24.9563  25.0695  25.2613
    25.3037  25.3299  25.3620  25.4123  25.4865  25.4888  25.5054  25.5738
    25.5857  25.5988  25.6145  25.6627  25.6814  25.7261  25.7449  25.7516
    25.7952  25.8315  25.8372  25.8595  26.0542  26.0634  26.3902  26.4809
    27.0794  27.0989  27.2475  27.4864  27.6975  27.8347  27.9338  28.0105
    28.2638  29.0245  29.1035  29.1400  29.2946

          k =-0.5000 0.2778-0.5000 ( 30148 PWs)   bands (ev):

   -50.9039 -50.7554 -49.1451 -49.1451 -49.1390 -49.1390 -49.0961 -49.0958
   -48.9985 -48.9760 -48.8609 -48.8182 -48.7980 -48.7980 -48.7771 -48.7771
   -48.7611 -48.7583 -48.7305 -48.7305 -48.7262 -48.7126 -48.7122 -48.7103
   -48.7068 -48.7068 -48.7057 -48.7021 -48.7021 -48.6645 -48.6549 -48.6549
   -48.6524 -22.1614 -22.1614 -22.0757 -22.0757 -21.6455 -20.8635 -19.5648
   -19.5032 -19.3678 -19.3278 -19.3243 -19.2710 -19.2710 -19.2611 -19.2611
   -19.2588 -19.2247 -19.2115 -19.2115 -19.1768 -19.1626 -19.1612 -19.1526
   -19.1492 -19.1492 -19.1368 -19.1236 -19.1236 -19.0716 -19.0500 -19.0494
   -19.0494 -18.9784 -18.9605 -18.9605 -18.9281 -18.9176 -18.8853 -18.8665
   -18.8498 -18.8315 -18.8315 -18.8214 -18.7980 -18.7980 -18.7584 -18.7559
   -18.7559 -18.7333 -18.7300 -18.7237 -18.7149 -18.7149 -18.7111 -18.7004
   -18.7004 -18.6872 -18.6801 -18.6717 -18.6717 -18.6600 -18.6538 -18.6538
   -18.6412 -18.6237 -18.6114 -18.5932 -18.5918 -18.5898 -18.5898 -18.5878
   -18.5731 -18.5721 -18.5704 -18.5704 -18.5576 -18.5525 -18.5525 -18.5354
   -18.4981 -18.4981 -18.4880 -18.4580 -18.4580 -18.4537 -18.4389 -18.4379
   -18.4379 -18.4364 -18.4206 -18.4100 -18.4100 -18.4088 -18.3885 -18.3859
   -18.3173 -18.3173 -18.2742 -18.2742  16.0053  16.2137  16.2904  16.3592
    16.3592  16.9808  17.2795  17.4378  17.6131  17.6131  17.6689  17.8054
    17.8054  17.9263  18.2069  18.4293  18.4293  18.4556  18.7071  18.7071
    18.7816  18.8157  18.8324  18.8324  18.8486  18.8738  18.9104  18.9104
    18.9578  18.9844  19.1159  19.1598  19.1598  19.1998  19.2456  19.2624
    19.2624  19.3793  19.3948  19.3948  19.5375  19.5489  19.5784  19.6009
    19.6009  19.7054  19.7059  19.7059  19.8258  19.8780  19.8780  19.8783
    20.1884  20.2400  20.2713  20.2968  20.2968  20.4574  20.4574  20.5343
    20.7035  20.7477  20.7746  20.8905  20.8905  21.0294  21.0686  21.0686
    21.3403  21.4298  21.4298  21.4637  21.5115  21.5469  21.5469  21.6761
    21.6818  21.6908  21.6908  21.7570  21.7638  21.7887  21.7887  21.7930
    21.8422  21.8452  21.8452  21.9355  21.9402  21.9476  21.9707  22.0188
    22.0273  22.0273  22.0669  22.0669  22.1218  22.1665  22.1665  22.2066
    22.2740  22.3038  22.3038  22.3447  22.4032  22.4833  22.4833  22.5848
    22.5982  22.5982  22.6106  22.7311  22.7828  22.8806  22.9409  22.9409
    22.9805  23.1650  23.1791  23.2849  23.2849  23.5696  23.6203  23.6203
    23.8176  23.8322  23.8322  23.8333  23.8629  23.9200  23.9301  23.9928
    23.9928  24.0207  24.0849  24.0849  24.1032  24.1168  24.1988  24.1988
    24.6668  24.6962  24.6962  24.7025  24.9820  24.9820  25.0532  25.2627
    25.3504  25.3504  25.3824  25.4109  25.5493  25.5717  25.5717  25.5936
    25.6061  25.6497  25.6529  25.6989  25.6989  25.7261  25.7261  25.7424
    25.8185  25.8313  25.8653  25.8653  26.0554  26.0554  26.3839  26.5268
    27.2345  27.2888  27.2953  27.2953  27.4015  28.4819  28.5436  28.5436
    28.5952  28.7095  28.7095  28.7267  28.8462

          k = 0.3889-0.5000 0.3889 ( 30162 PWs)   bands (ev):

   -50.9037 -50.7557 -49.1416 -49.1416 -49.1415 -49.1415 -49.0965 -49.0965
   -48.9939 -48.9831 -48.8560 -48.8284 -48.7936 -48.7933 -48.7816 -48.7808
   -48.7596 -48.7528 -48.7289 -48.7283 -48.7262 -48.7178 -48.7158 -48.7104
   -48.7100 -48.7073 -48.7042 -48.6997 -48.6961 -48.6652 -48.6564 -48.6557
   -48.6519 -22.1616 -22.1616 -22.0752 -22.0752 -21.6549 -20.8494 -19.5614
   -19.5146 -19.3521 -19.3519 -19.3298 -19.2782 -19.2744 -19.2663 -19.2597
   -19.2451 -19.2142 -19.2120 -19.2072 -19.1759 -19.1662 -19.1639 -19.1574
   -19.1571 -19.1484 -19.1397 -19.1368 -19.1366 -19.0682 -19.0447 -19.0372
   -19.0157 -18.9723 -18.9529 -18.9046 -18.9034 -18.8993 -18.8759 -18.8648
   -18.8582 -18.8416 -18.8358 -18.8157 -18.8144 -18.8002 -18.7934 -18.7788
   -18.7646 -18.7637 -18.7438 -18.7373 -18.7266 -18.7141 -18.7005 -18.6919
   -18.6889 -18.6885 -18.6845 -18.6709 -18.6599 -18.6580 -18.6576 -18.6388
   -18.6388 -18.6185 -18.6179 -18.6176 -18.6123 -18.6109 -18.5951 -18.5839
   -18.5805 -18.5749 -18.5709 -18.5643 -18.5543 -18.5500 -18.5464 -18.5463
   -18.4943 -18.4927 -18.4832 -18.4648 -18.4609 -18.4585 -18.4299 -18.4238
   -18.4225 -18.4171 -18.4143 -18.4100 -18.4081 -18.3994 -18.3965 -18.3950
   -18.3063 -18.3052 -18.2888 -18.2797  16.0136  16.2101  16.3486  16.3566
    16.7089  16.9087  16.9371  17.3981  17.5942  17.5954  17.7703  17.8996
    18.0015  18.0154  18.1827  18.2145  18.3139  18.4123  18.6613  18.7030
    18.7445  18.8147  18.8209  18.8217  18.8286  18.8568  18.9086  18.9427
    18.9523  18.9835  18.9899  19.1185  19.1514  19.1981  19.2677  19.2696
    19.2927  19.3434  19.3937  19.4633  19.5108  19.5262  19.5760  19.6898
    19.7179  19.7192  19.8848  19.8985  19.9080  19.9273  19.9375  19.9734
    20.0579  20.0756  20.1711  20.1940  20.2530  20.2975  20.3677  20.5510
    20.5963  20.6636  20.8226  20.8353  20.9178  21.1565  21.1576  21.1673
    21.2476  21.2607  21.4618  21.4755  21.5768  21.6003  21.6539  21.6616
    21.6881  21.7051  21.7376  21.7478  21.7480  21.7726  21.7883  21.8006
    21.8268  21.8463  21.8575  21.8813  21.8864  21.9071  21.9179  21.9525
    21.9563  21.9724  22.0353  22.0446  22.1185  22.2157  22.2665  22.3086
    22.3174  22.3206  22.3360  22.3782  22.3817  22.4234  22.5700  22.5841
    22.6002  22.6364  22.6986  22.8296  23.0354  23.0459  23.0564  23.0682
    23.1411  23.1791  23.2484  23.2950  23.3417  23.3653  23.4832  23.5288
    23.5309  23.5661  23.6121  23.6539  23.6656  23.6977  23.7574  23.7834
    23.8729  23.8967  23.9074  23.9618  24.0389  24.2688  24.2894  24.3177
    24.3287  24.6592  24.6864  24.7068  24.7270  24.7690  24.9727  25.3168
    25.4640  25.4879  25.4916  25.5458  25.5522  25.6649  25.6721  25.6861
    25.7105  25.7229  25.7398  25.7650  25.7876  25.8046  25.8155  25.8386
    25.8479  25.8675  25.8904  25.9013  26.1249  26.1536  26.3583  26.7107
    26.8687  28.0455  28.0509  28.0751  28.1740  28.2379  28.3749  28.6218
    28.6487  28.7644  28.7762  29.1092  29.1265

          k =-0.5000 0.3889-0.5000 ( 30188 PWs)   bands (ev):

   -50.9037 -50.7556 -49.1437 -49.1437 -49.1405 -49.1405 -49.0961 -49.0959
   -48.9949 -48.9798 -48.8574 -48.8248 -48.7958 -48.7958 -48.7812 -48.7812
   -48.7609 -48.7545 -48.7269 -48.7269 -48.7264 -48.7125 -48.7123 -48.7102
   -48.7081 -48.7081 -48.7052 -48.7022 -48.7022 -48.6647 -48.6553 -48.6553
   -48.6533 -22.1618 -22.1618 -22.0753 -22.0753 -21.6521 -20.8531 -19.5637
   -19.5051 -19.3600 -19.3389 -19.3283 -19.2760 -19.2760 -19.2633 -19.2633
   -19.2507 -19.2138 -19.2138 -19.2135 -19.1727 -19.1699 -19.1641 -19.1607
   -19.1501 -19.1501 -19.1497 -19.1345 -19.1345 -19.0746 -19.0527 -19.0257
   -19.0257 -18.9454 -18.9293 -18.9240 -18.9240 -18.9062 -18.8715 -18.8542
   -18.8433 -18.8433 -18.8380 -18.8176 -18.8152 -18.8152 -18.7818 -18.7667
   -18.7667 -18.7450 -18.7304 -18.7280 -18.7205 -18.7028 -18.7028 -18.7013
   -18.7013 -18.6983 -18.6796 -18.6796 -18.6764 -18.6564 -18.6564 -18.6545
   -18.6545 -18.6464 -18.6164 -18.6096 -18.6037 -18.6037 -18.5887 -18.5886
   -18.5764 -18.5764 -18.5764 -18.5645 -18.5635 -18.5576 -18.5576 -18.5427
   -18.4937 -18.4937 -18.4724 -18.4534 -18.4534 -18.4494 -18.4290 -18.4290
   -18.4245 -18.4241 -18.4060 -18.4060 -18.4058 -18.4006 -18.3971 -18.3959
   -18.3082 -18.3082 -18.2820 -18.2820  16.0101  16.2062  16.3472  16.3472
    16.5204  16.9453  17.0830  17.4850  17.6365  17.6365  17.7256  17.8875
    17.8875  18.0208  18.0523  18.3079  18.3079  18.3148  18.7331  18.7331
    18.7944  18.7944  18.8169  18.8427  18.8553  18.8553  18.8823  18.8958
    18.9202  18.9364  19.0123  19.1691  19.1830  19.1830  19.2718  19.2718
    19.3134  19.3930  19.3930  19.5196  19.5314  19.6133  19.7419  19.7419
    19.7571  19.7791  19.7791  19.8332  19.8473  19.8624  19.9687  19.9687
    20.1017  20.1193  20.1663  20.1757  20.1757  20.4148  20.4148  20.4476
    20.5577  20.7094  20.7457  20.7457  20.7611  21.1835  21.1900  21.1900
    21.3247  21.4106  21.4106  21.5038  21.5672  21.6076  21.6076  21.6840
    21.6840  21.6863  21.7320  21.7565  21.7591  21.7888  21.7888  21.8758
    21.8878  21.8944  21.8946  21.8946  21.9294  21.9352  21.9383  21.9770
    21.9833  21.9833  22.0000  22.0000  22.0985  22.1318  22.1318  22.1447
    22.1855  22.2809  22.3394  22.3394  22.4285  22.4285  22.4656  22.6030
    22.6715  22.7504  22.7504  22.9373  22.9585  22.9775  22.9916  23.0648
    23.0648  23.1033  23.1655  23.1655  23.2195  23.4694  23.5272  23.5272
    23.5586  23.6145  23.6145  23.6304  23.6489  23.7859  23.8269  23.8326
    23.8819  23.8837  23.8837  23.9482  23.9482  23.9547  24.0751  24.0751
    24.4036  24.6204  24.6612  24.6612  24.8516  24.8516  25.0873  25.4221
    25.4221  25.4252  25.4730  25.5587  25.6734  25.6910  25.6937  25.6937
    25.7162  25.7240  25.7388  25.8096  25.8096  25.8377  25.8571  25.8571
    25.8904  25.9006  25.9006  25.9183  26.1573  26.1573  26.3554  26.6395
    27.1006  28.0737  28.0867  28.0867  28.3081  28.7894  28.8405  28.8405
    28.8863  28.9807  28.9807  29.0112  29.1178

     the Fermi energy is    24.1201 ev

!    total energy              =  -14243.65674433 Ry

     total all-electron energy =   -299050.559282 Ry
     estimated scf accuracy    <       0.00000007 Ry
     smearing contrib. (-TS)   =       0.01857354 Ry
     internal energy E=F+TS    =  -14243.67531787 Ry

     The total energy is F=E-TS. E is the sum of the following terms:
     one-electron contribution =   -1061.33746789 Ry
     hartree contribution      =     977.78384600 Ry
     xc contribution           =    -959.86735195 Ry
     ewald contribution        =   -5373.52820564 Ry
     one-center paw contrib.   =   -7826.72613839 Ry

     convergence has been achieved in  15 iterations

     Forces acting on atoms (cartesian axes, Ry/au):

     atom    1 type  1   force =     0.00000000   -0.14453223   -0.41814758
     atom    2 type  1   force =     0.01302442    0.00000000   -0.01302442
     atom    3 type  1   force =     0.41814758   -0.14453223    0.00000000
     atom    4 type  1   force =     0.00000000    0.47049089    0.00000000
     atom    5 type  1   force =    -0.00000000   -0.47049089    0.00000000
     atom    6 type  1   force =     0.00000000   -0.14453223    0.41814758
     atom    7 type  1   force =     0.01302442    0.00000000    0.01302442
     atom    8 type  1   force =    -0.00277483   -0.00334693    0.00000000
     atom    9 type  1   force =     0.00000000    0.00000000    0.00000000
     atom   10 type  1   force =     0.00000000    0.14453223   -0.41814758
     atom   11 type  1   force =     0.01999596    0.00000000   -0.01999596
     atom   12 type  1   force =     0.41814758    0.14453223   -0.00000000
     atom   13 type  1   force =     0.00000000    0.00000000    0.00000000
     atom   14 type  1   force =     0.00000000    0.14453223    0.41814758
     atom   15 type  1   force =     0.01999596    0.00000000    0.01999596
     atom   16 type  1   force =    -0.00277483    0.00334693    0.00000000
     atom   17 type  1   force =     0.00000000    0.00000000    0.00000000
     atom   18 type  1   force =     0.00000000   -0.00334693    0.00277483
     atom   19 type  1   force =    -0.01302442    0.00000000   -0.01302442
     atom   20 type  1   force =    -0.41814758   -0.14453223   -0.00000000
     atom   21 type  1   force =     0.00000000    0.00000000    0.00000000
     atom   22 type  1   force =    -0.00000000   -0.00334693   -0.00277483
     atom   23 type  1   force =    -0.01302442    0.00000000    0.01302442
     atom   24 type  1   force =     0.00277483   -0.00334693    0.00000000
     atom   25 type  1   force =     0.00000000    0.00000000    0.00000000
     atom   26 type  1   force =     0.00000000    0.00334693    0.00277483
     atom   27 type  1   force =    -0.01999596    0.00000000   -0.01999596
     atom   28 type  1   force =    -0.41814758    0.14453223    0.00000000
     atom   29 type  1   force =     0.00000000    0.00000000    0.00000000
     atom   30 type  1   force =     0.00000000    0.00334693   -0.00277483
     atom   31 type  1   force =    -0.01999596    0.00000000    0.01999596
     atom   32 type  1   force =     0.00277483    0.00334693    0.00000000
     atom   33 type  1   force =     0.00000000    0.00000000    0.00000000

     Total force =     1.418917     Total SCF correction =     0.000961


     Computing stress (Cartesian axis) and pressure

          total   stress  (Ry/bohr**3)                   (kbar)     P=      283.83
   0.00215265   0.00000000   0.00000000          316.67        0.00        0.00
   0.00000000   0.00148310   0.00000000            0.00      218.17        0.00
   0.00000000   0.00000000   0.00215265            0.00        0.00      316.67


     Writing output data file /scratch/ru1001.save/
 
     init_run     :     21.36s CPU     21.97s WALL (       1 calls)
     electrons    :   1044.23s CPU   1056.94s WALL (       1 calls)
     forces       :     12.07s CPU     12.18s WALL (       1 calls)
     stress       :     72.91s CPU     73.52s WALL (       1 calls)

     Called by init_run:
     wfcinit      :     20.63s CPU     21.12s WALL (       1 calls)
     potinit      :      0.17s CPU      0.18s WALL (       1 calls)
     hinit0       :      0.28s CPU      0.33s WALL (       1 calls)

     Called by electrons:
     c_bands      :    916.29s CPU    926.51s WALL (      16 calls)
     sum_band     :    125.69s CPU    127.88s WALL (      16 calls)
     v_of_rho     :      0.23s CPU      0.25s WALL (      16 calls)
     newd         :      0.34s CPU      0.53s WALL (      16 calls)
     PAW_pot      :      1.45s CPU      1.52s WALL (      16 calls)
     mix_rho      :      0.07s CPU      0.08s WALL (      16 calls)

     Called by c_bands:
     init_us_2    :      4.85s CPU      4.95s WALL (    2625 calls)
     cegterg      :    897.57s CPU    907.14s WALL (    1200 calls)

     Called by *egterg:
     cdiaghg      :    102.47s CPU    103.00s WALL (    4503 calls)
     h_psi        :    507.12s CPU    514.47s WALL (    4653 calls)
     s_psi        :     41.36s CPU     41.64s WALL (    4653 calls)
     g_psi        :      1.04s CPU      1.06s WALL (    3378 calls)

     Called by h_psi:
     h_psi:calbec :     77.91s CPU     78.51s WALL (    4653 calls)
     vloc_psi     :    386.89s CPU    393.03s WALL (    4653 calls)
     add_vuspsi   :     39.55s CPU     40.11s WALL (    4653 calls)

     General routines
     calbec       :    126.89s CPU    127.78s WALL (    6228 calls)
     fft          :      0.50s CPU      0.53s WALL (     232 calls)
     ffts         :      0.03s CPU      0.03s WALL (      32 calls)
     fftw         :    453.79s CPU    460.90s WALL ( 2157092 calls)
     interpolate  :      0.13s CPU      0.14s WALL (      16 calls)
 
     Parallel routines
     fft_scatt_xy :     37.58s CPU     38.17s WALL ( 2157356 calls)
     fft_scatt_yz :    352.65s CPU    358.22s WALL ( 2157356 calls)
 
     PWSCF        :  19m27.31s CPU  19m45.16s WALL

 
   This run was terminated on:  21:30:19   2Jan2022            

=------------------------------------------------------------------------------=
   JOB DONE.
=------------------------------------------------------------------------------=
