
     Program PWSCF v.6.7MaX starts on  2Jan2022 at 21:46:25 

     This program is part of the open-source Quantum ESPRESSO suite
     for quantum simulation of materials; please cite
         "P. Giannozzi et al., J. Phys.:Condens. Matter 21 395502 (2009);
         "P. Giannozzi et al., J. Phys.:Condens. Matter 29 465901 (2017);
          URL http://www.quantum-espresso.org", 
     in publications or presentations arising from this work. More details at
     http://www.quantum-espresso.org/quote

     Parallel version (MPI & OpenMP), running on      72 processor cores
     Number of MPI processes:                72
     Threads/MPI process:                     1

     MPI processes distributed on     1 nodes
     R & G space division:  proc/nbgrp/npool/nimage =      72
     Reading input from ru_111_1.in
Warning: card &CELL ignored
Warning: card CELL_DYNAMICS = 'BFGS', ignored
Warning: card CELL_FACTOR = 2.0, ignored
Warning: card PRESS = 0.0, ignored
Warning: card / ignored

     Current dimensions of program PWSCF are:
     Max number of different atomic species (ntypx) = 10
     Max number of k-points (npk) =  40000
     Max angular momentum in pseudopotentials (lmaxx) =  3
     file Ru.pbe-spn-kjpaw_psl.1.0.0.UPF: wavefunction(s)  4D renormalized

     Subspace diagonalization in iterative solution of the eigenvalue problem:
     one sub-group per band group will be used
     ELPA distributed-memory algorithm (size of sub-group:  8*  8 procs)

     Message from routine setup:
     using ibrav=0 with symmetry is DISCOURAGED, use correct ibrav instead
 
     Parallelization info
     --------------------
     sticks:   dense  smooth     PW     G-vecs:    dense   smooth      PW
     Min          98      65     17                 6240     3351     475
     Max          99      66     18                 6245     3355     482
     Sum        7113    4693   1281               449479   241377   34457
 


     bravais-lattice index     =            0
     lattice parameter (alat)  =      14.4007  a.u.
     unit-cell volume          =    2986.4454 (a.u.)^3
     number of atoms/cell      =           33
     number of atomic types    =            1
     number of electrons       =       528.00
     number of Kohn-Sham states=          317
     kinetic-energy cutoff     =      71.0000  Ry
     charge density cutoff     =     430.0000  Ry
     scf convergence threshold =      1.0E-06
     mixing beta               =       0.1000
     number of iterations used =           10  TF        mixing
     Exchange-correlation= SLA  PW   PBX  PBC
                           (   1   4   3   4   0   0   0)

     celldm(1)=  14.400742  celldm(2)=   0.000000  celldm(3)=   0.000000
     celldm(4)=   0.000000  celldm(5)=   0.000000  celldm(6)=   0.000000

     crystal axes: (cart. coord. in units of alat)
               a(1) = (   1.000000   0.000000   0.000000 )  
               a(2) = (   0.000000   1.000000   0.000000 )  
               a(3) = (   0.000000   0.000000   1.000000 )  

     reciprocal axes: (cart. coord. in units 2 pi/alat)
               b(1) = (  1.000000  0.000000  0.000000 )  
               b(2) = (  0.000000  1.000000  0.000000 )  
               b(3) = (  0.000000  0.000000  1.000000 )  


     PseudoPot. # 1 for Ru read from file:
     /rds/homes/b/bxp912/pp/Ru.pbe-spn-kjpaw_psl.1.0.0.UPF
     MD5 check sum: 0ae1f594dea09af7be8575c3a481d1ae
     Pseudo is Projector augmented-wave + core cor, Zval = 16.0
     Generated using "atomic" code by A. Dal Corso  v.5.1
     Shape of augmentation charge: PSQ
     Using radial grid of 1233 points,  6 beta functions with: 
                l(1) =   0
                l(2) =   0
                l(3) =   1
                l(4) =   1
                l(5) =   2
                l(6) =   2
     Q(r) pseudized with 0 coefficients 


     atomic species   valence    mass     pseudopotential
        Ru            16.00   101.07000     Ru( 1.00)

     12 Sym. Ops., with inversion, found



   Cartesian axes

     site n.     atom                  positions (alat units)
         1           Ru  tau(   1) = (   0.1250000   0.1250000   0.1250000  )
         2           Ru  tau(   2) = (   0.8750000   0.8750000   0.8750000  )
         3           Ru  tau(   3) = (   0.2500000   0.2500000   0.0000000  )
         4           Ru  tau(   4) = (   0.2500000   0.0000000   0.2500000  )
         5           Ru  tau(   5) = (   0.0000000   0.2500000   0.2500000  )
         6           Ru  tau(   6) = (   0.0000000   0.0000000   0.5000000  )
         7           Ru  tau(   7) = (   0.2500000   0.2500000   0.5000000  )
         8           Ru  tau(   8) = (   0.2500000   0.0000000   0.7500000  )
         9           Ru  tau(   9) = (   0.0000000   0.2500000   0.7500000  )
        10           Ru  tau(  10) = (   0.0000000   0.5000000   0.0000000  )
        11           Ru  tau(  11) = (   0.2500000   0.7500000   0.0000000  )
        12           Ru  tau(  12) = (   0.2500000   0.5000000   0.2500000  )
        13           Ru  tau(  13) = (   0.0000000   0.7500000   0.2500000  )
        14           Ru  tau(  14) = (   0.0000000   0.5000000   0.5000000  )
        15           Ru  tau(  15) = (   0.2500000   0.7500000   0.5000000  )
        16           Ru  tau(  16) = (   0.2500000   0.5000000   0.7500000  )
        17           Ru  tau(  17) = (   0.0000000   0.7500000   0.7500000  )
        18           Ru  tau(  18) = (   0.5000000   0.0000000   0.0000000  )
        19           Ru  tau(  19) = (   0.7500000   0.2500000   0.0000000  )
        20           Ru  tau(  20) = (   0.7500000   0.0000000   0.2500000  )
        21           Ru  tau(  21) = (   0.5000000   0.2500000   0.2500000  )
        22           Ru  tau(  22) = (   0.5000000   0.0000000   0.5000000  )
        23           Ru  tau(  23) = (   0.7500000   0.2500000   0.5000000  )
        24           Ru  tau(  24) = (   0.7500000   0.0000000   0.7500000  )
        25           Ru  tau(  25) = (   0.5000000   0.2500000   0.7500000  )
        26           Ru  tau(  26) = (   0.5000000   0.5000000   0.0000000  )
        27           Ru  tau(  27) = (   0.7500000   0.7500000   0.0000000  )
        28           Ru  tau(  28) = (   0.7500000   0.5000000   0.2500000  )
        29           Ru  tau(  29) = (   0.5000000   0.7500000   0.2500000  )
        30           Ru  tau(  30) = (   0.5000000   0.5000000   0.5000000  )
        31           Ru  tau(  31) = (   0.7500000   0.7500000   0.5000000  )
        32           Ru  tau(  32) = (   0.7500000   0.5000000   0.7500000  )
        33           Ru  tau(  33) = (   0.5000000   0.7500000   0.7500000  )

     number of k points=    85  Marzari-Vanderbilt smearing, width (Ry)=  0.0400
                       cart. coord. in units 2pi/alat
        k(    1) = (   0.0555556   0.0555556   0.0555556), wk =   0.0054870
        k(    2) = (   0.0555556   0.0555556   0.1666667), wk =   0.0164609
        k(    3) = (   0.0555556   0.0555556   0.2777778), wk =   0.0164609
        k(    4) = (   0.0555556   0.0555556   0.3888889), wk =   0.0164609
        k(    5) = (   0.0555556   0.0555556  -0.5000000), wk =   0.0164609
        k(    6) = (   0.0555556   0.1666667   0.1666667), wk =   0.0164609
        k(    7) = (   0.0555556   0.1666667   0.2777778), wk =   0.0329218
        k(    8) = (   0.0555556   0.1666667   0.3888889), wk =   0.0329218
        k(    9) = (   0.0555556   0.1666667  -0.5000000), wk =   0.0329218
        k(   10) = (   0.0555556   0.2777778   0.2777778), wk =   0.0164609
        k(   11) = (   0.0555556   0.2777778   0.3888889), wk =   0.0329218
        k(   12) = (   0.0555556   0.2777778  -0.5000000), wk =   0.0329218
        k(   13) = (   0.0555556   0.3888889   0.3888889), wk =   0.0164609
        k(   14) = (   0.0555556   0.3888889  -0.5000000), wk =   0.0329218
        k(   15) = (   0.0555556  -0.5000000  -0.5000000), wk =   0.0164609
        k(   16) = (   0.1666667   0.1666667   0.1666667), wk =   0.0054870
        k(   17) = (   0.1666667   0.1666667   0.2777778), wk =   0.0164609
        k(   18) = (   0.1666667   0.1666667   0.3888889), wk =   0.0164609
        k(   19) = (   0.1666667   0.1666667  -0.5000000), wk =   0.0164609
        k(   20) = (   0.1666667   0.2777778   0.2777778), wk =   0.0164609
        k(   21) = (   0.1666667   0.2777778   0.3888889), wk =   0.0329218
        k(   22) = (   0.1666667   0.2777778  -0.5000000), wk =   0.0329218
        k(   23) = (   0.1666667   0.3888889   0.3888889), wk =   0.0164609
        k(   24) = (   0.1666667   0.3888889  -0.5000000), wk =   0.0329218
        k(   25) = (   0.1666667  -0.5000000  -0.5000000), wk =   0.0164609
        k(   26) = (   0.2777778   0.2777778   0.2777778), wk =   0.0054870
        k(   27) = (   0.2777778   0.2777778   0.3888889), wk =   0.0164609
        k(   28) = (   0.2777778   0.2777778  -0.5000000), wk =   0.0164609
        k(   29) = (   0.2777778   0.3888889   0.3888889), wk =   0.0164609
        k(   30) = (   0.2777778   0.3888889  -0.5000000), wk =   0.0329218
        k(   31) = (   0.2777778  -0.5000000  -0.5000000), wk =   0.0164609
        k(   32) = (   0.3888889   0.3888889   0.3888889), wk =   0.0054870
        k(   33) = (   0.3888889   0.3888889  -0.5000000), wk =   0.0164609
        k(   34) = (   0.3888889  -0.5000000  -0.5000000), wk =   0.0164609
        k(   35) = (  -0.5000000  -0.5000000  -0.5000000), wk =   0.0027435
        k(   36) = (  -0.0555556   0.0555556   0.0555556), wk =   0.0164609
        k(   37) = (  -0.0555556   0.1666667   0.0555556), wk =   0.0329218
        k(   38) = (   0.0555556  -0.1666667   0.0555556), wk =   0.0164609
        k(   39) = (  -0.0555556   0.2777778   0.0555556), wk =   0.0329218
        k(   40) = (   0.0555556  -0.2777778   0.0555556), wk =   0.0164609
        k(   41) = (  -0.0555556   0.3888889   0.0555556), wk =   0.0329218
        k(   42) = (   0.0555556  -0.3888889   0.0555556), wk =   0.0164609
        k(   43) = (  -0.0555556  -0.5000000   0.0555556), wk =   0.0164609
        k(   44) = (  -0.0555556   0.1666667   0.1666667), wk =   0.0164609
        k(   45) = (   0.0555556   0.1666667  -0.1666667), wk =   0.0329218
        k(   46) = (  -0.0555556   0.2777778   0.1666667), wk =   0.0329218
        k(   47) = (   0.0555556   0.2777778  -0.1666667), wk =   0.0329218
        k(   48) = (   0.0555556  -0.2777778   0.1666667), wk =   0.0329218
        k(   49) = (  -0.0555556   0.3888889   0.1666667), wk =   0.0329218
        k(   50) = (   0.0555556   0.3888889  -0.1666667), wk =   0.0329218
        k(   51) = (   0.0555556  -0.3888889   0.1666667), wk =   0.0329218
        k(   52) = (  -0.0555556  -0.5000000   0.1666667), wk =   0.0329218
        k(   53) = (  -0.0555556   0.2777778   0.2777778), wk =   0.0164609
        k(   54) = (   0.0555556   0.2777778  -0.2777778), wk =   0.0329218
        k(   55) = (  -0.0555556   0.3888889   0.2777778), wk =   0.0329218
        k(   56) = (   0.0555556   0.3888889  -0.2777778), wk =   0.0329218
        k(   57) = (   0.0555556  -0.3888889   0.2777778), wk =   0.0329218
        k(   58) = (  -0.0555556  -0.5000000   0.2777778), wk =   0.0329218
        k(   59) = (  -0.0555556   0.3888889   0.3888889), wk =   0.0164609
        k(   60) = (   0.0555556   0.3888889  -0.3888889), wk =   0.0329218
        k(   61) = (  -0.0555556  -0.5000000   0.3888889), wk =   0.0329218
        k(   62) = (  -0.1666667   0.1666667   0.1666667), wk =   0.0164609
        k(   63) = (  -0.1666667   0.2777778   0.1666667), wk =   0.0329218
        k(   64) = (   0.1666667  -0.2777778   0.1666667), wk =   0.0164609
        k(   65) = (  -0.1666667   0.3888889   0.1666667), wk =   0.0329218
        k(   66) = (   0.1666667  -0.3888889   0.1666667), wk =   0.0164609
        k(   67) = (  -0.1666667  -0.5000000   0.1666667), wk =   0.0164609
        k(   68) = (  -0.1666667   0.2777778   0.2777778), wk =   0.0164609
        k(   69) = (   0.1666667   0.2777778  -0.2777778), wk =   0.0329218
        k(   70) = (  -0.1666667   0.3888889   0.2777778), wk =   0.0329218
        k(   71) = (   0.1666667   0.3888889  -0.2777778), wk =   0.0329218
        k(   72) = (   0.1666667  -0.3888889   0.2777778), wk =   0.0329218
        k(   73) = (  -0.1666667  -0.5000000   0.2777778), wk =   0.0329218
        k(   74) = (  -0.1666667   0.3888889   0.3888889), wk =   0.0164609
        k(   75) = (   0.1666667   0.3888889  -0.3888889), wk =   0.0329218
        k(   76) = (  -0.1666667  -0.5000000   0.3888889), wk =   0.0329218
        k(   77) = (  -0.2777778   0.2777778   0.2777778), wk =   0.0164609
        k(   78) = (  -0.2777778   0.3888889   0.2777778), wk =   0.0329218
        k(   79) = (   0.2777778  -0.3888889   0.2777778), wk =   0.0164609
        k(   80) = (  -0.2777778  -0.5000000   0.2777778), wk =   0.0164609
        k(   81) = (  -0.2777778   0.3888889   0.3888889), wk =   0.0164609
        k(   82) = (   0.2777778   0.3888889  -0.3888889), wk =   0.0329218
        k(   83) = (  -0.2777778  -0.5000000   0.3888889), wk =   0.0329218
        k(   84) = (  -0.3888889   0.3888889   0.3888889), wk =   0.0164609
        k(   85) = (  -0.3888889  -0.5000000   0.3888889), wk =   0.0164609

     Dense  grid:   449479 G-vectors     FFT dimensions: (  96,  96,  96)

     Smooth grid:   241377 G-vectors     FFT dimensions: (  80,  80,  80)

     Estimated max dynamical RAM per process >     211.12 MB

     Estimated total dynamical RAM >      14.84 GB

     Check: negative core charge=   -0.000002

     Initial potential from superposition of free atoms

     starting charge  527.97896, renormalised to  528.00000
     Starting wfcs are  330 randomized atomic wfcs
     Checking if some PAW data can be deallocated... 

     total cpu time spent up to now is       26.9 secs

     Self-consistent Calculation

     iteration #  1     ecut=    71.00 Ry     beta= 0.10
     Davidson diagonalization with overlap
     ethr =  1.00E-02,  avg # of iterations =  4.4

     Threshold (ethr) on eigenvalues was too large:
     Diagonalizing with lowered threshold

     Davidson diagonalization with overlap
     ethr =  6.25E-04,  avg # of iterations =  2.5

     total cpu time spent up to now is      186.9 secs

     total energy              =  -14240.03449931 Ry
     estimated scf accuracy    <       3.57206224 Ry

     iteration #  2     ecut=    71.00 Ry     beta= 0.10
     Davidson diagonalization with overlap
     ethr =  6.77E-04,  avg # of iterations =  1.1

     total cpu time spent up to now is      246.9 secs

     total energy              =  -14239.55599388 Ry
     estimated scf accuracy    <       2.28177121 Ry

     iteration #  3     ecut=    71.00 Ry     beta= 0.10
     Davidson diagonalization with overlap
     ethr =  4.32E-04,  avg # of iterations =  3.7

     total cpu time spent up to now is      317.3 secs

     total energy              =  -14239.73519016 Ry
     estimated scf accuracy    <       0.35002527 Ry

     iteration #  4     ecut=    71.00 Ry     beta= 0.10
     Davidson diagonalization with overlap
     ethr =  6.63E-05,  avg # of iterations =  6.4

     total cpu time spent up to now is      392.4 secs

     total energy              =  -14239.66217326 Ry
     estimated scf accuracy    <       0.37348401 Ry

     iteration #  5     ecut=    71.00 Ry     beta= 0.10
     Davidson diagonalization with overlap
     ethr =  6.63E-05,  avg # of iterations =  3.9

     total cpu time spent up to now is      464.9 secs

     total energy              =  -14239.67828654 Ry
     estimated scf accuracy    <       0.08526316 Ry

     iteration #  6     ecut=    71.00 Ry     beta= 0.10
     Davidson diagonalization with overlap
     c_bands:  1 eigenvalues not converged
     c_bands:  1 eigenvalues not converged
     ethr =  1.61E-05,  avg # of iterations =  4.2

     total cpu time spent up to now is      536.7 secs

     total energy              =  -14239.68013715 Ry
     estimated scf accuracy    <       0.02885444 Ry

     iteration #  7     ecut=    71.00 Ry     beta= 0.10
     Davidson diagonalization with overlap
     c_bands:  1 eigenvalues not converged
     ethr =  5.46E-06,  avg # of iterations =  4.8

     total cpu time spent up to now is      608.2 secs

     total energy              =  -14239.67575331 Ry
     estimated scf accuracy    <       0.01680159 Ry

     iteration #  8     ecut=    71.00 Ry     beta= 0.10
     Davidson diagonalization with overlap
     ethr =  3.18E-06,  avg # of iterations =  4.9

     total cpu time spent up to now is      686.2 secs

     total energy              =  -14239.67784519 Ry
     estimated scf accuracy    <       0.00810721 Ry

     iteration #  9     ecut=    71.00 Ry     beta= 0.10
     Davidson diagonalization with overlap
     ethr =  1.54E-06,  avg # of iterations =  2.0

     total cpu time spent up to now is      753.0 secs

     total energy              =  -14239.67634947 Ry
     estimated scf accuracy    <       0.00731662 Ry

     iteration # 10     ecut=    71.00 Ry     beta= 0.10
     Davidson diagonalization with overlap
     ethr =  1.39E-06,  avg # of iterations =  2.3

     total cpu time spent up to now is      822.2 secs

     total energy              =  -14239.67676378 Ry
     estimated scf accuracy    <       0.00046331 Ry

     iteration # 11     ecut=    71.00 Ry     beta= 0.10
     Davidson diagonalization with overlap
     ethr =  8.77E-08,  avg # of iterations =  2.0

     total cpu time spent up to now is      901.3 secs

     total energy              =  -14239.67680157 Ry
     estimated scf accuracy    <       0.00028603 Ry

     iteration # 12     ecut=    71.00 Ry     beta= 0.10
     Davidson diagonalization with overlap
     ethr =  5.42E-08,  avg # of iterations =  2.1

     total cpu time spent up to now is      973.7 secs

     total energy              =  -14239.67676152 Ry
     estimated scf accuracy    <       0.00042586 Ry

     iteration # 13     ecut=    71.00 Ry     beta= 0.10
     Davidson diagonalization with overlap
     ethr =  5.42E-08,  avg # of iterations =  2.0

     total cpu time spent up to now is     1040.7 secs

     total energy              =  -14239.67679775 Ry
     estimated scf accuracy    <       0.00001708 Ry

     iteration # 14     ecut=    71.00 Ry     beta= 0.10
     Davidson diagonalization with overlap
     ethr =  3.24E-09,  avg # of iterations =  3.0

     total cpu time spent up to now is     1123.4 secs

     total energy              =  -14239.67679739 Ry
     estimated scf accuracy    <       0.00001969 Ry

     iteration # 15     ecut=    71.00 Ry     beta= 0.10
     Davidson diagonalization with overlap
     ethr =  3.24E-09,  avg # of iterations =  2.0

     total cpu time spent up to now is     1191.9 secs

     total energy              =  -14239.67679866 Ry
     estimated scf accuracy    <       0.00000325 Ry

     iteration # 16     ecut=    71.00 Ry     beta= 0.10
     Davidson diagonalization with overlap
     ethr =  6.16E-10,  avg # of iterations =  2.0

     total cpu time spent up to now is     1264.2 secs

     End of self-consistent calculation

          k = 0.0556 0.0556 0.0556 ( 30224 PWs)   bands (ev):

   -55.7241 -55.7233 -50.3474 -50.3474 -50.3472 -50.3472 -48.8039 -48.7269
   -48.7269 -48.7097 -48.7097 -48.6810 -48.6801 -48.6757 -48.6757 -48.6663
   -48.6602 -48.6404 -48.6200 -48.6200 -48.6144 -48.6144 -48.5928 -48.5676
   -48.5676 -48.5663 -48.5612 -48.5612 -48.5556 -48.5348 -48.5346 -48.5346
   -48.5274 -28.3130 -28.3130 -28.3120 -28.3120 -24.9080 -24.8917 -20.0035
   -19.9656 -19.8738 -19.8738 -19.7890 -19.7890 -19.7085 -19.7085 -19.6993
   -19.6993 -19.4753 -19.4467 -19.1820 -19.1272 -19.1272 -19.1056 -19.0717
   -19.0511 -19.0511 -18.9345 -18.9345 -18.9230 -18.9101 -18.9030 -18.9030
   -18.8869 -18.8743 -18.8743 -18.8622 -18.8459 -18.8459 -18.8347 -18.8347
   -18.8148 -18.7551 -18.7486 -18.7486 -18.6929 -18.6929 -18.6825 -18.6669
   -18.6604 -18.6604 -18.6374 -18.6374 -18.6298 -18.6221 -18.6221 -18.6038
   -18.6038 -18.6029 -18.5778 -18.5778 -18.5763 -18.5711 -18.5631 -18.5631
   -18.5513 -18.5043 -18.4900 -18.4900 -18.4532 -18.4532 -18.4411 -18.4372
   -18.4372 -18.4261 -18.4261 -18.4166 -18.4166 -18.3840 -18.3784 -18.3784
   -18.3703 -18.3681 -18.3681 -18.3622 -18.3564 -18.3422 -18.3422 -18.3219
   -18.3219 -18.3216 -18.3158 -18.3043 -18.2423 -18.2423 -18.2105 -18.1583
   -16.6073 -16.6073 -16.6014 -16.6014  12.3699  12.3699  12.4596  12.4596
    13.9068  14.1321  14.1321  14.2294  14.3429  14.3429  16.1475  17.6908
    17.9662  17.9662  18.1875  18.2885  18.3220  18.3316  18.3316  18.5146
    18.5554  18.5554  18.6563  18.6563  18.8079  18.8079  18.9303  18.9882
    19.2506  19.2506  19.4366  19.5576  19.5576  19.5709  19.6530  19.7663
    19.7896  19.7896  19.8430  19.8430  19.9193  19.9193  19.9522  20.0167
    20.0167  20.0615  20.1495  20.1495  20.1574  20.2060  20.2060  20.3086
    20.3223  20.4586  20.4630  20.4630  20.5449  20.5932  20.5932  20.6474
    20.6474  20.6787  20.7175  20.7175  20.7300  20.7300  20.8227  20.8227
    20.8421  20.9114  20.9114  20.9559  20.9951  21.0175  21.0175  21.1121
    21.1200  21.1747  21.2133  21.2133  21.3127  21.3127  21.5296  21.5331
    21.5331  21.7879  21.7879  21.8281  21.8281  21.9015  21.9015  21.9266
    21.9648  22.0003  22.0003  22.1091  22.3569  22.5181  22.5181  22.5698
    22.5698  22.8584  22.8584  22.9093  22.9381  22.9869  22.9869  23.0896
    23.1083  23.1083  23.1153  23.1487  23.2520  23.2520  23.3795  23.3795
    23.4168  23.4474  23.4698  23.4698  23.4940  23.5600  23.5600  23.6223
    23.6223  23.7445  23.7566  23.7566  23.7930  23.7930  23.8625  23.8642
    24.0811  24.1415  24.1415  24.2357  24.3997  24.3997  24.4038  24.4431
    24.5939  24.5939  24.6581  24.6581  24.7880  24.8311  24.8311  25.1169
    25.1468  25.2993  25.2993  25.4120  25.4120  25.7392  25.7392  25.7460
    25.7983  25.8590  25.8590  25.9461  26.0076  26.0607  26.0607  26.2256
    26.3058  26.3157  26.3157  26.3818  26.5968  26.5968  27.0951  27.0951
    27.4081  27.4081  27.5958  27.7578  27.7578  27.8382  27.9114  27.9114
    27.9706  28.4613  28.4990  28.4991  28.5487

          k = 0.0556 0.0556 0.1667 ( 30207 PWs)   bands (ev):

   -55.7241 -55.7233 -50.3474 -50.3473 -50.3472 -50.3471 -48.8013 -48.7347
   -48.7264 -48.7096 -48.7046 -48.6832 -48.6803 -48.6768 -48.6754 -48.6670
   -48.6587 -48.6371 -48.6214 -48.6207 -48.6137 -48.6126 -48.5935 -48.5707
   -48.5678 -48.5678 -48.5612 -48.5587 -48.5538 -48.5352 -48.5345 -48.5344
   -48.5277 -28.3130 -28.3129 -28.3120 -28.3120 -24.9081 -24.8916 -20.0010
   -19.9672 -19.8720 -19.8708 -19.7925 -19.7901 -19.7117 -19.7107 -19.6967
   -19.6965 -19.4770 -19.4475 -19.1715 -19.1227 -19.1226 -19.0966 -19.0663
   -19.0527 -19.0484 -18.9488 -18.9420 -18.9396 -18.9334 -18.9087 -18.9041
   -18.9015 -18.8855 -18.8727 -18.8674 -18.8553 -18.8487 -18.8249 -18.8122
   -18.8039 -18.7551 -18.7492 -18.7420 -18.7065 -18.6986 -18.6857 -18.6843
   -18.6825 -18.6492 -18.6458 -18.6295 -18.6278 -18.6252 -18.6089 -18.5999
   -18.5987 -18.5941 -18.5635 -18.5614 -18.5593 -18.5552 -18.5513 -18.5471
   -18.5374 -18.5055 -18.4890 -18.4882 -18.4570 -18.4538 -18.4450 -18.4418
   -18.4358 -18.4326 -18.4299 -18.4157 -18.4124 -18.3916 -18.3858 -18.3786
   -18.3745 -18.3729 -18.3686 -18.3635 -18.3605 -18.3450 -18.3427 -18.3232
   -18.3212 -18.3170 -18.3117 -18.3087 -18.2486 -18.2462 -18.2079 -18.1623
   -16.6079 -16.6073 -16.6014 -16.6009  12.3729  12.3738  12.4562  12.4564
    13.9190  14.1217  14.1346  14.2225  14.3419  14.3518  16.2256  17.7127
    18.0027  18.0262  18.0975  18.3315  18.3648  18.3719  18.3837  18.4807
    18.5508  18.6181  18.6549  18.7294  18.8258  18.8680  18.9547  18.9925
    19.1888  19.2328  19.3241  19.4051  19.4773  19.4834  19.5413  19.5935
    19.6980  19.7382  19.7744  19.8196  19.8295  19.8634  19.9189  19.9885
    20.0090  20.0335  20.0425  20.0851  20.1030  20.2256  20.2319  20.2672
    20.2705  20.3293  20.4023  20.4765  20.4869  20.5492  20.5680  20.6261
    20.6431  20.7052  20.7164  20.7512  20.7628  20.7884  20.8996  20.9315
    20.9361  20.9558  20.9782  21.0247  21.0367  21.0970  21.1499  21.1535
    21.2371  21.2460  21.2494  21.2963  21.3137  21.4162  21.4998  21.5423
    21.6309  21.7265  21.7590  21.8035  21.8482  21.8643  21.9013  21.9307
    21.9617  21.9817  22.1424  22.2043  22.3506  22.4475  22.4650  22.4967
    22.5715  22.7323  22.8089  22.8119  22.8936  22.9808  23.0201  23.0433
    23.0443  23.0560  23.1045  23.1480  23.2708  23.2859  23.3700  23.3900
    23.4806  23.4916  23.5216  23.5323  23.5650  23.6515  23.6705  23.7102
    23.7350  23.7700  23.8092  23.9065  23.9091  24.0112  24.0266  24.0808
    24.1334  24.1402  24.2227  24.2227  24.2935  24.2971  24.3141  24.5044
    24.5167  24.5866  24.7103  24.7314  24.7518  24.7949  24.8695  24.9034
    25.1058  25.2251  25.2504  25.3524  25.3527  25.4841  25.4882  25.6971
    25.7104  25.7632  25.9139  25.9230  25.9525  26.0370  26.1767  26.1873
    26.2671  26.3328  26.3650  26.5610  26.7248  26.8046  26.9769  27.0032
    27.1794  27.3000  27.3263  27.4649  27.6573  27.7395  27.8772  28.0841
    28.2688  28.3425  28.4860  28.7769  28.8277

          k = 0.0556 0.0556 0.2778 ( 30183 PWs)   bands (ev):

   -55.7241 -55.7233 -50.3475 -50.3473 -50.3472 -50.3471 -48.7963 -48.7448
   -48.7257 -48.7092 -48.7009 -48.6848 -48.6810 -48.6781 -48.6753 -48.6675
   -48.6563 -48.6326 -48.6228 -48.6209 -48.6140 -48.6108 -48.5939 -48.5738
   -48.5699 -48.5680 -48.5612 -48.5563 -48.5518 -48.5358 -48.5344 -48.5342
   -48.5280 -28.3129 -28.3129 -28.3121 -28.3121 -24.9082 -24.8915 -19.9962
   -19.9706 -19.8688 -19.8635 -19.8012 -19.7924 -19.7147 -19.7118 -19.6948
   -19.6944 -19.4782 -19.4514 -19.1507 -19.1133 -19.1126 -19.0785 -19.0614
   -19.0436 -19.0414 -18.9924 -18.9657 -18.9602 -18.9389 -18.9325 -18.9187
   -18.9033 -18.8913 -18.8809 -18.8726 -18.8503 -18.8427 -18.8163 -18.8019
   -18.7872 -18.7703 -18.7521 -18.7371 -18.7268 -18.7119 -18.7058 -18.6966
   -18.6691 -18.6550 -18.6481 -18.6268 -18.6264 -18.6156 -18.6082 -18.5916
   -18.5894 -18.5794 -18.5474 -18.5436 -18.5377 -18.5374 -18.5288 -18.5189
   -18.5062 -18.5052 -18.4883 -18.4852 -18.4643 -18.4575 -18.4512 -18.4446
   -18.4410 -18.4397 -18.4283 -18.4146 -18.4125 -18.4055 -18.3970 -18.3867
   -18.3789 -18.3766 -18.3743 -18.3654 -18.3606 -18.3486 -18.3380 -18.3255
   -18.3238 -18.3158 -18.3129 -18.3049 -18.2644 -18.2535 -18.2019 -18.1661
   -16.6083 -16.6071 -16.6014 -16.6010  12.3806  12.3808  12.4479  12.4502
    13.9360  14.1065  14.1394  14.2141  14.3391  14.3629  16.3817  17.6206
    17.9339  18.1402  18.1435  18.4059  18.4132  18.4406  18.4968  18.5407
    18.5782  18.7028  18.7233  18.8391  18.8765  18.8769  18.9505  18.9999
    19.0366  19.1074  19.1356  19.2742  19.3167  19.4137  19.4195  19.4510
    19.5313  19.6276  19.6628  19.7023  19.7216  19.8321  19.8342  19.8750
    19.9062  20.0091  20.0366  20.0580  20.1244  20.1699  20.2005  20.2320
    20.2617  20.3151  20.4096  20.4194  20.4657  20.5151  20.5345  20.6027
    20.6066  20.6725  20.7004  20.7460  20.8100  20.8132  20.8822  20.9595
    20.9799  20.9894  21.0508  21.1161  21.1191  21.1439  21.1633  21.2167
    21.3049  21.3332  21.4015  21.4611  21.4914  21.4918  21.5264  21.6447
    21.7075  21.7609  21.7670  21.7952  21.8719  21.8949  21.9144  21.9924
    22.0052  22.0500  22.1758  22.2211  22.3728  22.3974  22.4340  22.4847
    22.4986  22.6427  22.6796  22.7084  22.8129  22.9469  22.9977  23.0301
    23.0499  23.1111  23.1336  23.2584  23.2973  23.3389  23.4089  23.4591
    23.4699  23.5316  23.5873  23.5902  23.6039  23.6670  23.6760  23.7549
    23.7892  23.8401  23.8952  23.9156  23.9684  24.0204  24.0596  24.1024
    24.1516  24.1526  24.2357  24.3151  24.3727  24.4541  24.4867  24.5308
    24.5671  24.5785  24.6880  24.8312  24.8619  24.8819  24.9488  24.9685
    25.0146  25.0781  25.2384  25.2589  25.2704  25.3578  25.3735  25.5529
    25.5819  25.6026  25.7677  25.8338  25.8358  25.9653  25.9716  26.2845
    26.3278  26.3865  26.4184  26.5193  26.6600  26.7112  26.7745  26.7823
    27.0374  27.3124  27.3556  27.4849  27.5779  27.6811  27.8023  28.0847
    28.1464  28.5382  28.5936  28.9493  29.0103

          k = 0.0556 0.0556 0.3889 ( 30161 PWs)   bands (ev):

   -55.7241 -55.7233 -50.3476 -50.3473 -50.3473 -50.3470 -48.7902 -48.7544
   -48.7252 -48.7088 -48.6995 -48.6852 -48.6822 -48.6789 -48.6754 -48.6677
   -48.6542 -48.6285 -48.6236 -48.6207 -48.6155 -48.6096 -48.5937 -48.5763
   -48.5714 -48.5682 -48.5612 -48.5546 -48.5505 -48.5365 -48.5345 -48.5338
   -48.5282 -28.3128 -28.3128 -28.3122 -28.3121 -24.9084 -24.8913 -19.9901
   -19.9757 -19.8656 -19.8528 -19.8134 -19.7949 -19.7170 -19.7121 -19.6939
   -19.6934 -19.4782 -19.4567 -19.1213 -19.1038 -19.1005 -19.0556 -19.0517
   -19.0366 -19.0314 -19.0242 -18.9886 -18.9863 -18.9774 -18.9390 -18.9315
   -18.9016 -18.8945 -18.8892 -18.8666 -18.8418 -18.8343 -18.8113 -18.8020
   -18.7938 -18.7810 -18.7531 -18.7364 -18.7321 -18.7321 -18.7130 -18.7014
   -18.6607 -18.6544 -18.6540 -18.6334 -18.6289 -18.6119 -18.5966 -18.5805
   -18.5757 -18.5682 -18.5350 -18.5305 -18.5257 -18.5203 -18.5120 -18.5002
   -18.4979 -18.4898 -18.4837 -18.4702 -18.4651 -18.4629 -18.4546 -18.4520
   -18.4438 -18.4418 -18.4285 -18.4263 -18.4184 -18.4061 -18.4025 -18.4000
   -18.3838 -18.3767 -18.3757 -18.3672 -18.3590 -18.3536 -18.3394 -18.3296
   -18.3265 -18.3217 -18.3111 -18.2964 -18.2828 -18.2625 -18.1958 -18.1678
   -16.6083 -16.6069 -16.6014 -16.6013  12.3886  12.3923  12.4354  12.4434
    13.9500  14.0937  14.1443  14.2082  14.3356  14.3709  16.6070  17.3004
    18.0422  18.2649  18.2998  18.4367  18.4476  18.5295  18.5717  18.6386
    18.6704  18.7451  18.7492  18.7776  18.8689  18.9371  18.9387  18.9695
    18.9727  19.0458  19.1026  19.1169  19.2206  19.2470  19.2845  19.3730
    19.4070  19.4683  19.5575  19.6655  19.6882  19.7288  19.7599  19.7936
    19.8615  19.9441  20.0030  20.0415  20.1236  20.1559  20.1891  20.2262
    20.2466  20.2978  20.3740  20.3799  20.4178  20.4618  20.5439  20.5646
    20.6587  20.6679  20.6936  20.7792  20.8441  20.8761  20.8824  20.9374
    20.9659  21.0185  21.0335  21.0910  21.1198  21.1644  21.1718  21.2426
    21.3043  21.4412  21.4514  21.5007  21.5668  21.5787  21.7425  21.7580
    21.7623  21.7986  21.8492  21.8688  21.9050  21.9381  21.9390  22.0832
    22.0866  22.1034  22.2071  22.2282  22.2744  22.3364  22.4625  22.4859
    22.5405  22.6365  22.7179  22.7631  22.7670  22.9385  22.9559  23.0790
    23.1023  23.1449  23.1474  23.2382  23.2604  23.3375  23.3413  23.3690
    23.4892  23.4896  23.5723  23.5834  23.5897  23.6253  23.6430  23.6993
    23.7554  23.7556  23.7937  23.9007  23.9445  24.0328  24.1274  24.1302
    24.2149  24.2647  24.3160  24.3974  24.4639  24.5174  24.6547  24.6584
    24.7645  24.7773  24.8238  24.8988  24.9152  24.9867  25.0462  25.0786
    25.1032  25.1319  25.1503  25.2520  25.2875  25.3038  25.3706  25.4360
    25.5108  25.5123  25.6197  25.6323  25.7249  25.7923  25.8647  25.9940
    26.2176  26.2856  26.2980  26.3153  26.3467  26.5453  26.8512  26.9195
    27.0208  27.3382  27.4555  27.5492  27.5857  27.6464  27.7990  27.9205
    28.0285  28.6552  28.7891  29.0007  29.0700

          k = 0.0556 0.0556-0.5000 ( 30178 PWs)   bands (ev):

   -55.7241 -55.7233 -50.3476 -50.3473 -50.3473 -50.3470 -48.7864 -48.7593
   -48.7250 -48.7084 -48.7004 -48.6843 -48.6834 -48.6788 -48.6755 -48.6675
   -48.6528 -48.6286 -48.6220 -48.6204 -48.6172 -48.6093 -48.5929 -48.5776
   -48.5719 -48.5683 -48.5611 -48.5541 -48.5502 -48.5368 -48.5346 -48.5335
   -48.5282 -28.3129 -28.3127 -28.3122 -28.3121 -24.9084 -24.8913 -19.9835
   -19.9821 -19.8640 -19.8406 -19.8266 -19.7964 -19.7176 -19.7115 -19.6942
   -19.6937 -19.4761 -19.4617 -19.1015 -19.0929 -19.0878 -19.0740 -19.0378
   -19.0253 -19.0246 -19.0174 -19.0134 -18.9982 -18.9977 -18.9519 -18.9301
   -18.9030 -18.8963 -18.8924 -18.8577 -18.8370 -18.8298 -18.8087 -18.8084
   -18.7998 -18.7865 -18.7724 -18.7394 -18.7294 -18.7287 -18.7110 -18.7016
   -18.6596 -18.6546 -18.6491 -18.6406 -18.6343 -18.6122 -18.5949 -18.5719
   -18.5706 -18.5603 -18.5340 -18.5339 -18.5143 -18.5070 -18.5064 -18.4994
   -18.4889 -18.4832 -18.4775 -18.4744 -18.4682 -18.4657 -18.4619 -18.4567
   -18.4500 -18.4355 -18.4280 -18.4223 -18.4192 -18.4130 -18.3998 -18.3876
   -18.3808 -18.3772 -18.3751 -18.3727 -18.3597 -18.3583 -18.3531 -18.3347
   -18.3271 -18.3155 -18.3123 -18.2957 -18.2905 -18.2682 -18.1922 -18.1668
   -16.6079 -16.6067 -16.6020 -16.6015  12.3928  12.4065  12.4207  12.4397
    13.9533  14.0884  14.1471  14.2084  14.3331  14.3731  16.8322  17.0264
    18.2101  18.3134  18.3330  18.4221  18.4529  18.5139  18.6000  18.6216
    18.6716  18.7006  18.8033  18.8216  18.8700  18.9145  18.9287  18.9360
    18.9871  19.1008  19.1222  19.1306  19.1532  19.2080  19.2419  19.3032
    19.3883  19.3887  19.5188  19.6039  19.6061  19.7358  19.7753  19.8012
    19.8186  19.8943  20.0170  20.0227  20.0439  20.1545  20.1976  20.2706
    20.2771  20.2823  20.3004  20.3751  20.3947  20.4222  20.4952  20.5593
    20.6053  20.6944  20.7795  20.8423  20.8620  20.8873  20.9039  20.9208
    20.9812  21.0059  21.0480  21.0702  21.1181  21.1384  21.1590  21.2343
    21.2804  21.3892  21.5416  21.5482  21.5961  21.6775  21.7362  21.7620
    21.7724  21.8492  21.9063  21.9085  21.9697  22.0122  22.0169  22.0360
    22.0716  22.1271  22.1437  22.2589  22.3062  22.3693  22.3971  22.5596
    22.5785  22.6981  22.7482  22.7673  22.8560  22.9309  22.9468  23.0642
    23.1016  23.1101  23.1326  23.1414  23.2058  23.2412  23.3219  23.3238
    23.4198  23.4700  23.4868  23.5383  23.5926  23.5985  23.6447  23.6523
    23.7592  23.7716  23.8298  23.8749  23.8864  24.0778  24.1144  24.1429
    24.2745  24.3033  24.3895  24.5369  24.5787  24.6101  24.6329  24.6398
    24.7446  24.8719  24.9042  24.9773  24.9903  25.0109  25.0409  25.0706
    25.0736  25.1380  25.2215  25.2456  25.2626  25.3771  25.4083  25.4759
    25.5340  25.5546  25.5764  25.6114  25.6807  25.7425  25.8248  25.8281
    25.9412  25.9779  26.1799  26.2593  26.3295  26.6889  26.8038  27.0586
    27.0885  27.2695  27.3587  27.5435  27.5741  27.6293  27.7539  27.8973
    28.1582  28.7114  28.8780  28.9567  29.0774

          k = 0.0556 0.1667 0.1667 ( 30215 PWs)   bands (ev):

   -55.7241 -55.7233 -50.3475 -50.3474 -50.3472 -50.3471 -48.7990 -48.7368
   -48.7306 -48.7077 -48.7014 -48.6867 -48.6799 -48.6776 -48.6740 -48.6682
   -48.6579 -48.6337 -48.6223 -48.6217 -48.6123 -48.6117 -48.5946 -48.5711
   -48.5709 -48.5686 -48.5605 -48.5567 -48.5523 -48.5352 -48.5350 -48.5342
   -48.5281 -28.3129 -28.3128 -28.3121 -28.3121 -24.9082 -24.8915 -19.9989
   -19.9682 -19.8708 -19.8694 -19.7928 -19.7918 -19.7142 -19.7127 -19.6945
   -19.6937 -19.4801 -19.4457 -19.1621 -19.1206 -19.1193 -19.0897 -19.0587
   -19.0570 -19.0473 -18.9617 -18.9501 -18.9472 -18.9368 -18.9336 -18.9125
   -18.9045 -18.9024 -18.8864 -18.8679 -18.8573 -18.8320 -18.8114 -18.8086
   -18.7977 -18.7527 -18.7439 -18.7390 -18.7212 -18.7037 -18.6948 -18.6870
   -18.6666 -18.6574 -18.6429 -18.6266 -18.6265 -18.6173 -18.6014 -18.6002
   -18.5929 -18.5889 -18.5599 -18.5563 -18.5523 -18.5439 -18.5439 -18.5321
   -18.5233 -18.5064 -18.4861 -18.4851 -18.4577 -18.4512 -18.4489 -18.4441
   -18.4419 -18.4393 -18.4336 -18.4110 -18.4104 -18.4034 -18.3894 -18.3861
   -18.3772 -18.3746 -18.3684 -18.3658 -18.3639 -18.3502 -18.3402 -18.3218
   -18.3206 -18.3152 -18.3120 -18.3082 -18.2536 -18.2448 -18.2090 -18.1667
   -16.6088 -16.6075 -16.6014 -16.6000  12.3731  12.3773  12.4523  12.4569
    13.9317  14.1192  14.1303  14.2148  14.3455  14.3568  16.2994  17.7266
    18.0533  18.0675  18.1127  18.3497  18.3687  18.4094  18.4302  18.4430
    18.5620  18.6466  18.6970  18.7548  18.8650  18.8906  18.9837  18.9923
    19.1427  19.2065  19.2870  19.3177  19.3434  19.3983  19.4443  19.4987
    19.5651  19.5882  19.6934  19.7577  19.8047  19.8243  19.8734  19.8862
    19.9832  19.9893  20.0649  20.0671  20.0746  20.1232  20.2415  20.2703
    20.3126  20.3524  20.3537  20.4046  20.4680  20.5066  20.5188  20.5496
    20.6947  20.7571  20.7701  20.8161  20.8198  20.8832  20.9101  20.9788
    20.9885  21.0096  21.0410  21.0624  21.1427  21.1825  21.1942  21.2071
    21.2385  21.2707  21.3362  21.3462  21.3820  21.4339  21.4594  21.5834
    21.6474  21.7271  21.7626  21.8349  21.8457  21.8971  21.9035  21.9171
    22.0144  22.0602  22.1128  22.1932  22.3348  22.3665  22.4408  22.4711
    22.5129  22.7173  22.7705  22.7954  22.8956  22.9000  22.9392  22.9644
    22.9979  23.0382  23.0829  23.1428  23.2434  23.3053  23.3720  23.4073
    23.4934  23.5098  23.5993  23.6117  23.6787  23.7081  23.7248  23.7638
    23.7880  23.8451  23.9287  23.9580  24.0430  24.0880  24.0897  24.1095
    24.1526  24.1985  24.2431  24.2693  24.3135  24.3338  24.3356  24.4912
    24.5181  24.6299  24.6479  24.6919  24.7567  24.8299  24.8966  24.9246
    25.1362  25.1396  25.1965  25.2430  25.2775  25.4135  25.4269  25.4838
    25.6471  25.7757  25.7936  25.8510  25.9297  26.0300  26.0691  26.1541
    26.2110  26.3079  26.5115  26.5324  26.8337  26.8396  26.9673  27.0412
    27.1759  27.2577  27.2817  27.4435  27.4847  27.6382  27.9488  28.1057
    28.2770  28.4170  28.6427  28.7700  29.0315

          k = 0.0556 0.1667 0.2778 ( 30157 PWs)   bands (ev):

   -55.7241 -55.7233 -50.3475 -50.3474 -50.3472 -50.3470 -48.7942 -48.7444
   -48.7312 -48.7074 -48.6986 -48.6890 -48.6804 -48.6788 -48.6727 -48.6692
   -48.6558 -48.6298 -48.6234 -48.6218 -48.6124 -48.6102 -48.5950 -48.5739
   -48.5723 -48.5694 -48.5606 -48.5543 -48.5504 -48.5359 -48.5349 -48.5340
   -48.5284 -28.3128 -28.3128 -28.3122 -28.3121 -24.9083 -24.8913 -19.9947
   -19.9709 -19.8679 -19.8640 -19.7992 -19.7938 -19.7169 -19.7134 -19.6934
   -19.6916 -19.4824 -19.4476 -19.1432 -19.1126 -19.1095 -19.0737 -19.0595
   -19.0478 -19.0362 -18.9949 -18.9780 -18.9541 -18.9499 -18.9408 -18.9237
   -18.9189 -18.9140 -18.8982 -18.8759 -18.8450 -18.8236 -18.8088 -18.7990
   -18.7860 -18.7663 -18.7493 -18.7384 -18.7300 -18.7152 -18.6980 -18.6868
   -18.6669 -18.6466 -18.6441 -18.6243 -18.6216 -18.6153 -18.6075 -18.5859
   -18.5844 -18.5780 -18.5511 -18.5424 -18.5393 -18.5325 -18.5211 -18.5170
   -18.5048 -18.5005 -18.4841 -18.4793 -18.4617 -18.4582 -18.4523 -18.4478
   -18.4467 -18.4424 -18.4337 -18.4227 -18.4092 -18.4081 -18.3997 -18.3894
   -18.3836 -18.3794 -18.3732 -18.3697 -18.3629 -18.3540 -18.3354 -18.3292
   -18.3237 -18.3164 -18.3050 -18.3024 -18.2651 -18.2504 -18.2053 -18.1693
   -16.6095 -16.6075 -16.6015 -16.5995  12.3775  12.3843  12.4454  12.4527
    13.9473  14.1071  14.1338  14.2077  14.3429  14.3666  16.4499  17.6735
    17.9466  18.1678  18.1995  18.3662  18.4332  18.4654  18.5137  18.5578
    18.5968  18.7278  18.7457  18.8273  18.8762  18.9088  18.9652  18.9959
    19.0267  19.0810  19.1324  19.1816  19.2836  19.3004  19.3212  19.3922
    19.4541  19.5222  19.5669  19.6674  19.6752  19.7293  19.7595  19.8408
    19.8728  19.9467  19.9825  20.0392  20.0856  20.1310  20.2237  20.2842
    20.3055  20.3245  20.3541  20.4403  20.4662  20.4807  20.5145  20.5426
    20.6610  20.6787  20.7386  20.8322  20.8509  20.9248  20.9346  21.0080
    21.0566  21.0715  21.0929  21.1329  21.1550  21.2202  21.2636  21.3024
    21.3298  21.3444  21.3856  21.4071  21.4579  21.5380  21.6094  21.6859
    21.7477  21.7624  21.7902  21.8252  21.8697  21.9051  21.9460  21.9651
    22.0297  22.0678  22.1643  22.2275  22.3255  22.3701  22.4004  22.4681
    22.5361  22.5805  22.6378  22.6783  22.8346  22.8514  22.8713  22.9562
    22.9876  23.0408  23.0660  23.1695  23.2606  23.3391  23.3856  23.4452
    23.4529  23.5395  23.5759  23.6244  23.6803  23.7167  23.7783  23.8074
    23.8174  23.8521  23.9109  23.9736  23.9783  24.0862  24.1370  24.1533
    24.2274  24.2638  24.2970  24.3605  24.3950  24.4255  24.4658  24.5209
    24.6083  24.6951  24.7259  24.7699  24.8433  24.8769  24.9305  24.9546
    25.0172  25.0949  25.1897  25.2139  25.3527  25.3876  25.4128  25.5012
    25.5512  25.5858  25.7171  25.7574  25.8449  25.9075  25.9799  26.0860
    26.1571  26.1901  26.3927  26.4965  26.6066  26.7549  26.8843  26.9478
    27.2135  27.3036  27.3478  27.4426  27.5825  27.6374  28.0149  28.1961
    28.2758  28.4539  28.6773  28.9317  29.1491

          k = 0.0556 0.1667 0.3889 ( 30138 PWs)   bands (ev):

   -55.7241 -55.7233 -50.3476 -50.3473 -50.3472 -50.3470 -48.7882 -48.7532
   -48.7307 -48.7072 -48.6987 -48.6892 -48.6820 -48.6788 -48.6718 -48.6695
   -48.6532 -48.6279 -48.6233 -48.6213 -48.6139 -48.6090 -48.5943 -48.5763
   -48.5736 -48.5698 -48.5607 -48.5525 -48.5493 -48.5368 -48.5347 -48.5338
   -48.5286 -28.3128 -28.3127 -28.3122 -28.3121 -24.9084 -24.8912 -19.9894
   -19.9753 -19.8647 -19.8552 -19.8097 -19.7962 -19.7190 -19.7129 -19.6934
   -19.6909 -19.4833 -19.4519 -19.1165 -19.1020 -19.0960 -19.0569 -19.0504
   -19.0370 -19.0330 -19.0177 -18.9995 -18.9798 -18.9755 -18.9437 -18.9376
   -18.9235 -18.9170 -18.9021 -18.8759 -18.8363 -18.8204 -18.8157 -18.7982
   -18.7852 -18.7811 -18.7524 -18.7395 -18.7250 -18.7176 -18.7015 -18.6904
   -18.6680 -18.6477 -18.6443 -18.6291 -18.6267 -18.6126 -18.5965 -18.5763
   -18.5734 -18.5650 -18.5401 -18.5325 -18.5288 -18.5208 -18.5126 -18.5019
   -18.4975 -18.4814 -18.4784 -18.4721 -18.4695 -18.4613 -18.4558 -18.4513
   -18.4493 -18.4420 -18.4339 -18.4301 -18.4212 -18.4063 -18.4036 -18.3974
   -18.3871 -18.3824 -18.3766 -18.3727 -18.3613 -18.3585 -18.3508 -18.3285
   -18.3196 -18.3172 -18.3016 -18.2947 -18.2788 -18.2605 -18.1995 -18.1693
   -16.6096 -16.6074 -16.6015 -16.5996  12.3853  12.3928  12.4365  12.4455
    13.9581  14.0950  14.1397  14.2050  14.3381  14.3739  16.6680  17.3781
    18.0149  18.2853  18.3407  18.4339  18.4942  18.5293  18.5870  18.6332
    18.6976  18.7399  18.7680  18.7716  18.8567  18.9049  18.9288  18.9449
    19.0162  19.0274  19.0490  19.0830  19.1534  19.2000  19.2696  19.3264
    19.3509  19.4322  19.5233  19.5854  19.6246  19.6796  19.7138  19.7515
    19.7769  19.8775  19.9515  20.0153  20.0836  20.1183  20.1657  20.2158
    20.2843  20.2889  20.3670  20.4146  20.4498  20.4794  20.5290  20.5929
    20.6487  20.7063  20.7376  20.8254  20.8643  20.9124  20.9462  21.0140
    21.0460  21.0648  21.1099  21.1385  21.1527  21.2429  21.2595  21.3303
    21.3836  21.4332  21.4828  21.5688  21.6055  21.6359  21.7229  21.7337
    21.7794  21.8075  21.8578  21.8806  21.9003  21.9265  21.9881  22.0235
    22.1059  22.1441  22.2203  22.2477  22.2873  22.3273  22.3983  22.4373
    22.5394  22.6176  22.6372  22.7154  22.7702  22.8033  22.8252  22.9156
    22.9748  23.0303  23.0889  23.1172  23.1860  23.2361  23.2808  23.3698
    23.4036  23.5149  23.5512  23.5754  23.6452  23.6587  23.6728  23.7568
    23.8309  23.8489  23.9117  24.0151  24.0590  24.1058  24.1757  24.2227
    24.2535  24.2706  24.3376  24.4106  24.4592  24.5237  24.5439  24.5721
    24.7329  24.7974  24.8590  24.8889  24.9432  24.9487  24.9804  25.0753
    25.1256  25.1582  25.1864  25.2468  25.2604  25.3651  25.4037  25.4783
    25.5158  25.5552  25.6263  25.6852  25.7171  25.7898  25.9395  26.0586
    26.1322  26.1772  26.2039  26.2726  26.5121  26.5999  26.6501  26.7852
    27.0095  27.3436  27.5101  27.5219  27.5885  27.9151  27.9906  28.0982
    28.3284  28.5897  28.7552  29.0855  29.2130

          k = 0.0556 0.1667-0.5000 ( 30170 PWs)   bands (ev):

   -55.7241 -55.7233 -50.3476 -50.3473 -50.3473 -50.3470 -48.7843 -48.7580
   -48.7306 -48.7068 -48.7012 -48.6876 -48.6835 -48.6783 -48.6715 -48.6690
   -48.6510 -48.6299 -48.6218 -48.6198 -48.6160 -48.6088 -48.5926 -48.5779
   -48.5741 -48.5698 -48.5608 -48.5518 -48.5492 -48.5373 -48.5346 -48.5336
   -48.5285 -28.3129 -28.3127 -28.3123 -28.3120 -24.9085 -24.8912 -19.9838
   -19.9809 -19.8628 -19.8441 -19.8222 -19.7979 -19.7195 -19.7115 -19.6947
   -19.6916 -19.4818 -19.4571 -19.0964 -19.0918 -19.0819 -19.0680 -19.0415
   -19.0340 -19.0204 -19.0130 -19.0098 -19.0017 -18.9903 -18.9492 -18.9396
   -18.9296 -18.9145 -18.9035 -18.8698 -18.8350 -18.8239 -18.8162 -18.8105
   -18.7950 -18.7868 -18.7527 -18.7356 -18.7261 -18.7109 -18.6986 -18.6908
   -18.6629 -18.6546 -18.6439 -18.6358 -18.6356 -18.6145 -18.5896 -18.5746
   -18.5682 -18.5556 -18.5348 -18.5317 -18.5214 -18.5124 -18.5103 -18.5001
   -18.4965 -18.4876 -18.4794 -18.4724 -18.4678 -18.4626 -18.4559 -18.4472
   -18.4446 -18.4431 -18.4305 -18.4276 -18.4177 -18.4075 -18.4058 -18.3927
   -18.3898 -18.3823 -18.3810 -18.3766 -18.3686 -18.3620 -18.3510 -18.3329
   -18.3207 -18.3079 -18.3046 -18.2962 -18.2835 -18.2687 -18.1945 -18.1667
   -16.6092 -16.6073 -16.6014 -16.6003  12.3922  12.4020  12.4259  12.4401
    13.9581  14.0895  14.1435  14.2088  14.3342  14.3752  16.8939  17.0995
    18.1484  18.3078  18.3857  18.4435  18.5001  18.5127  18.5876  18.6383
    18.6920  18.7039  18.7959  18.8175  18.8466  18.8603  18.9292  18.9563
    18.9808  18.9960  19.0877  19.1081  19.1342  19.1808  19.2556  19.3025
    19.3426  19.4095  19.4735  19.5626  19.6047  19.6434  19.6713  19.7588
    19.7779  19.8380  19.9542  20.0017  20.0553  20.0870  20.1396  20.1775
    20.2516  20.2907  20.3202  20.3504  20.4281  20.4893  20.5190  20.5867
    20.6819  20.7624  20.7944  20.8256  20.8814  20.9159  20.9343  21.0175
    21.0294  21.0578  21.1026  21.1397  21.1864  21.2162  21.2570  21.3318
    21.4115  21.4728  21.5269  21.5996  21.6245  21.7186  21.7308  21.7761
    21.8212  21.8381  21.9208  21.9322  21.9907  22.0002  22.0584  22.0645
    22.1071  22.1111  22.1842  22.1980  22.2676  22.3145  22.3735  22.4906
    22.5859  22.6242  22.7018  22.7234  22.7880  22.8002  22.8098  22.9125
    22.9312  22.9800  22.9899  23.0457  23.0833  23.1797  23.2613  23.2993
    23.3495  23.4331  23.4708  23.5320  23.5777  23.6641  23.7416  23.7825
    23.8370  23.8513  23.9305  23.9672  24.0906  24.1360  24.1599  24.2204
    24.2232  24.2735  24.3766  24.4332  24.5116  24.5829  24.6384  24.6872
    24.7473  24.8433  24.9074  24.9397  24.9555  24.9976  25.0331  25.0869
    25.1306  25.1929  25.2198  25.2355  25.2523  25.3531  25.3858  25.4214
    25.4924  25.5359  25.5790  25.6718  25.6792  25.8344  25.9052  25.9552
    26.1858  26.2081  26.2536  26.2795  26.3965  26.4268  26.5400  26.8359
    26.8735  27.2925  27.5358  27.5969  27.7138  27.7758  27.8994  28.1342
    28.5123  28.7197  28.8342  29.1039  29.1672

          k = 0.0556 0.2778 0.2778 ( 30150 PWs)   bands (ev):

   -55.7241 -55.7233 -50.3476 -50.3474 -50.3472 -50.3470 -48.7899 -48.7457
   -48.7367 -48.7076 -48.6961 -48.6924 -48.6802 -48.6802 -48.6706 -48.6696
   -48.6538 -48.6280 -48.6237 -48.6217 -48.6109 -48.6101 -48.5952 -48.5751
   -48.5743 -48.5709 -48.5608 -48.5516 -48.5488 -48.5362 -48.5358 -48.5336
   -48.5289 -28.3128 -28.3127 -28.3122 -28.3121 -24.9085 -24.8912 -19.9918
   -19.9726 -19.8658 -19.8607 -19.8012 -19.7970 -19.7195 -19.7138 -19.6933
   -19.6892 -19.4859 -19.4473 -19.1282 -19.1059 -19.0989 -19.0621 -19.0578
   -19.0446 -19.0230 -19.0100 -18.9863 -18.9762 -18.9491 -18.9471 -18.9403
   -18.9381 -18.9261 -18.9174 -18.8878 -18.8303 -18.8132 -18.8077 -18.7904
   -18.7876 -18.7720 -18.7648 -18.7419 -18.7245 -18.7122 -18.6984 -18.6628
   -18.6575 -18.6443 -18.6388 -18.6243 -18.6195 -18.6186 -18.5871 -18.5870
   -18.5737 -18.5720 -18.5517 -18.5445 -18.5321 -18.5306 -18.5215 -18.5105
   -18.5009 -18.4861 -18.4813 -18.4699 -18.4685 -18.4619 -18.4602 -18.4498
   -18.4486 -18.4422 -18.4409 -18.4297 -18.4067 -18.4045 -18.4044 -18.3950
   -18.3878 -18.3829 -18.3756 -18.3733 -18.3691 -18.3595 -18.3436 -18.3295
   -18.3238 -18.3130 -18.2970 -18.2940 -18.2746 -18.2498 -18.2055 -18.1707
   -16.6104 -16.6078 -16.6015 -16.5984  12.3784  12.3903  12.4393  12.4524
    13.9595  14.1028  14.1320  14.2039  14.3412  14.3741  16.5921  17.7200
    17.9950  18.0041  18.2942  18.3809  18.4628  18.5462  18.5713  18.6110
    18.6822  18.7861  18.7923  18.8148  18.8505  18.8846  18.9097  18.9761
    19.0013  19.0358  19.0563  19.1585  19.1678  19.2521  19.2583  19.2719
    19.3692  19.4821  19.5318  19.5430  19.6290  19.6308  19.6928  19.6980
    19.7972  19.8199  19.8276  19.9856  20.1045  20.1333  20.2101  20.2375
    20.2639  20.3608  20.4238  20.4515  20.4521  20.4676  20.5357  20.6209
    20.6506  20.6814  20.7527  20.8555  20.9452  20.9730  21.0303  21.0644
    21.0644  21.1171  21.1243  21.1681  21.2518  21.2880  21.2880  21.3504
    21.3548  21.4188  21.4712  21.5055  21.5889  21.6551  21.6964  21.7351
    21.7556  21.8223  21.8282  21.8404  21.8681  21.9218  21.9683  22.0220
    22.1145  22.1161  22.1564  22.2625  22.2679  22.3412  22.3823  22.4043
    22.4526  22.5302  22.5497  22.6860  22.7085  22.7171  22.8278  22.9012
    22.9019  22.9635  23.0261  23.0882  23.1766  23.2285  23.2772  23.4072
    23.4495  23.5121  23.5819  23.6637  23.6778  23.6942  23.7050  23.7478
    23.8177  23.8816  23.9881  24.0467  24.0579  24.1070  24.1731  24.2281
    24.2837  24.3291  24.3618  24.4066  24.4318  24.5363  24.6040  24.6217
    24.6626  24.7174  24.7491  24.8121  24.8380  24.8926  24.9621  24.9781
    25.0274  25.1071  25.1917  25.2158  25.3569  25.4542  25.4756  25.5930
    25.5935  25.6289  25.6557  25.6901  25.7300  25.8785  25.9354  25.9384
    26.0005  26.0959  26.2643  26.3716  26.4240  26.7113  26.7211  26.8923
    27.3130  27.3360  27.3818  27.6457  27.8266  27.9421  28.0074  28.2209
    28.3450  28.7068  28.7091  28.8971  29.2702

          k = 0.0556 0.2778 0.3889 ( 30193 PWs)   bands (ev):

   -55.7241 -55.7233 -50.3476 -50.3474 -50.3472 -50.3470 -48.7842 -48.7515
   -48.7381 -48.7083 -48.6970 -48.6924 -48.6819 -48.6798 -48.6711 -48.6675
   -48.6510 -48.6287 -48.6238 -48.6199 -48.6119 -48.6091 -48.5939 -48.5772
   -48.5756 -48.5716 -48.5612 -48.5494 -48.5477 -48.5374 -48.5356 -48.5334
   -48.5291 -28.3130 -28.3127 -28.3123 -28.3120 -24.9086 -24.8911 -19.9879
   -19.9756 -19.8629 -19.8545 -19.8086 -19.7993 -19.7217 -19.7128 -19.6943
   -19.6883 -19.4878 -19.4499 -19.1072 -19.0957 -19.0828 -19.0570 -19.0486
   -19.0339 -19.0283 -19.0098 -19.0046 -18.9849 -18.9668 -18.9635 -18.9525
   -18.9424 -18.9336 -18.9206 -18.8923 -18.8299 -18.8195 -18.8143 -18.8036
   -18.7851 -18.7719 -18.7599 -18.7336 -18.7282 -18.6950 -18.6939 -18.6672
   -18.6570 -18.6451 -18.6322 -18.6302 -18.6231 -18.6071 -18.5907 -18.5744
   -18.5680 -18.5583 -18.5485 -18.5375 -18.5291 -18.5228 -18.5150 -18.5075
   -18.4952 -18.4901 -18.4829 -18.4781 -18.4692 -18.4661 -18.4606 -18.4478
   -18.4460 -18.4443 -18.4334 -18.4256 -18.4178 -18.4068 -18.4043 -18.3974
   -18.3894 -18.3875 -18.3815 -18.3789 -18.3728 -18.3652 -18.3493 -18.3312
   -18.3189 -18.3119 -18.2907 -18.2880 -18.2826 -18.2565 -18.2016 -18.1698
   -16.6109 -16.6081 -16.6013 -16.5982  12.3829  12.3970  12.4327  12.4483
    13.9664  14.0944  14.1365  14.2051  14.3354  14.3804  16.7987  17.5104
    18.0014  18.0801  18.4114  18.4537  18.5047  18.5788  18.6138  18.6596
    18.7168  18.7246  18.7972  18.8201  18.8294  18.8653  18.8709  18.9420
    18.9983  19.0137  19.0604  19.0867  19.1456  19.1833  19.2103  19.2749
    19.3100  19.4101  19.4587  19.5058  19.5266  19.5665  19.6074  19.6741
    19.7109  19.7419  19.8173  19.9338  20.0293  20.0993  20.1315  20.1949
    20.2390  20.3084  20.3981  20.4200  20.4756  20.5247  20.5950  20.6589
    20.6807  20.7406  20.8125  20.8654  20.8714  21.0028  21.0449  21.0533
    21.0870  21.1102  21.1851  21.2113  21.2532  21.3904  21.4214  21.4403
    21.4731  21.5175  21.5697  21.5814  21.6332  21.7231  21.7319  21.7943
    21.8462  21.8540  21.8988  21.9149  21.9222  21.9458  21.9777  22.0761
    22.1264  22.1625  22.1879  22.2444  22.2698  22.2933  22.3533  22.3926
    22.4466  22.4939  22.5232  22.5928  22.6373  22.7093  22.7137  22.8142
    22.8539  22.9053  22.9661  23.0140  23.0959  23.1248  23.1987  23.2429
    23.3354  23.4147  23.4677  23.5823  23.6348  23.6565  23.6892  23.7477
    23.8709  23.8891  23.9664  24.0090  24.0957  24.1522  24.2325  24.2459
    24.3238  24.4330  24.4673  24.4964  24.5277  24.6185  24.6633  24.7004
    24.7557  24.7722  24.8409  24.9095  24.9437  25.0043  25.0467  25.0797
    25.1390  25.1733  25.1842  25.2869  25.3554  25.3678  25.3920  25.4252
    25.4504  25.4943  25.5536  25.6786  25.7227  25.8043  25.9341  25.9510
    26.0684  26.1552  26.1727  26.3241  26.4023  26.4823  26.5857  26.8573
    27.1497  27.3051  27.5496  27.6352  27.9476  28.0384  28.2145  28.3273
    28.5904  28.6405  28.8330  29.1242  29.4097

          k = 0.0556 0.2778-0.5000 ( 30164 PWs)   bands (ev):

   -55.7241 -55.7233 -50.3476 -50.3473 -50.3472 -50.3470 -48.7803 -48.7556
   -48.7384 -48.7086 -48.6999 -48.6904 -48.6834 -48.6790 -48.6707 -48.6667
   -48.6483 -48.6315 -48.6232 -48.6180 -48.6140 -48.6086 -48.5917 -48.5788
   -48.5763 -48.5714 -48.5615 -48.5484 -48.5475 -48.5385 -48.5352 -48.5333
   -48.5290 -28.3131 -28.3126 -28.3123 -28.3119 -24.9086 -24.8911 -19.9838
   -19.9795 -19.8607 -19.8461 -19.8188 -19.8008 -19.7223 -19.7109 -19.6963
   -19.6889 -19.4872 -19.4539 -19.0905 -19.0859 -19.0701 -19.0592 -19.0421
   -19.0384 -19.0186 -19.0133 -19.0068 -18.9895 -18.9847 -18.9604 -18.9579
   -18.9453 -18.9374 -18.9180 -18.8889 -18.8513 -18.8260 -18.8178 -18.8106
   -18.7863 -18.7811 -18.7439 -18.7276 -18.7210 -18.6898 -18.6785 -18.6735
   -18.6585 -18.6492 -18.6435 -18.6363 -18.6263 -18.6095 -18.5904 -18.5707
   -18.5625 -18.5526 -18.5379 -18.5360 -18.5284 -18.5195 -18.5145 -18.5085
   -18.4990 -18.4950 -18.4872 -18.4754 -18.4675 -18.4588 -18.4535 -18.4498
   -18.4463 -18.4408 -18.4284 -18.4244 -18.4204 -18.4100 -18.4051 -18.3984
   -18.3943 -18.3921 -18.3827 -18.3799 -18.3725 -18.3664 -18.3475 -18.3359
   -18.3144 -18.3079 -18.3017 -18.2890 -18.2740 -18.2672 -18.1963 -18.1671
   -16.6106 -16.6083 -16.6010 -16.5986  12.3893  12.4019  12.4273  12.4425
    13.9643  14.0896  14.1408  14.2109  14.3309  14.3813  17.0184  17.2368
    18.0479  18.1919  18.4116  18.4590  18.4976  18.5382  18.6091  18.6582
    18.6740  18.7302  18.7547  18.7937  18.8456  18.8773  18.9336  18.9501
    19.0023  19.0162  19.0687  19.1060  19.1484  19.1580  19.2547  19.2947
    19.3263  19.3666  19.4204  19.4708  19.5118  19.5364  19.6073  19.6368
    19.6562  19.7456  19.8294  19.9176  19.9387  20.0568  20.1074  20.1667
    20.2132  20.3007  20.3617  20.4028  20.4734  20.5353  20.5695  20.6661
    20.6990  20.7535  20.8800  20.8919  20.8993  20.9502  21.0239  21.0498
    21.0911  21.1242  21.1831  21.2659  21.3215  21.3716  21.4432  21.5234
    21.5626  21.5789  21.6058  21.6825  21.7130  21.7327  21.7584  21.7955
    21.8280  21.8595  21.9140  21.9520  21.9642  22.0139  22.0423  22.0872
    22.0901  22.1232  22.1656  22.2212  22.2548  22.2897  22.3409  22.3697
    22.4755  22.5275  22.5673  22.6131  22.6191  22.6724  22.7246  22.7489
    22.8164  22.8675  22.9029  22.9444  22.9840  23.0984  23.1180  23.1884
    23.2118  23.3207  23.4155  23.4814  23.5514  23.6130  23.7320  23.7402
    23.8461  23.8922  23.9654  24.0509  24.1304  24.1996  24.2348  24.2740
    24.4311  24.5026  24.5058  24.5217  24.6148  24.6216  24.7110  24.7528
    24.7960  24.8187  24.8711  24.9269  24.9617  24.9766  25.0748  25.1146
    25.1838  25.1988  25.2081  25.2538  25.3188  25.3414  25.4049  25.4384
    25.4641  25.4962  25.5341  25.6179  25.6590  25.7604  25.8330  25.9528
    25.9886  26.0634  26.1553  26.3418  26.4622  26.5657  26.6205  26.9032
    27.0351  27.2545  27.5782  27.6728  27.8809  28.0332  28.3399  28.3503
    28.6437  28.7959  29.0416  29.2739  29.4830

          k = 0.0556 0.3889 0.3889 ( 30175 PWs)   bands (ev):

   -55.7241 -55.7233 -50.3477 -50.3474 -50.3472 -50.3470 -48.7790 -48.7516
   -48.7440 -48.7103 -48.6961 -48.6942 -48.6816 -48.6808 -48.6719 -48.6645
   -48.6482 -48.6307 -48.6243 -48.6181 -48.6105 -48.6097 -48.5924 -48.5791
   -48.5766 -48.5728 -48.5617 -48.5467 -48.5465 -48.5385 -48.5363 -48.5330
   -48.5295 -28.3131 -28.3126 -28.3124 -28.3119 -24.9086 -24.8911 -19.9858
   -19.9766 -19.8610 -19.8506 -19.8114 -19.8024 -19.7238 -19.7116 -19.6961
   -19.6868 -19.4905 -19.4504 -19.0929 -19.0865 -19.0652 -19.0576 -19.0463
   -19.0376 -19.0148 -19.0070 -19.0002 -18.9894 -18.9819 -18.9776 -18.9667
   -18.9471 -18.9435 -18.9303 -18.9015 -18.8551 -18.8179 -18.8164 -18.7974
   -18.7905 -18.7708 -18.7600 -18.7303 -18.7184 -18.6864 -18.6704 -18.6570
   -18.6566 -18.6496 -18.6325 -18.6207 -18.6137 -18.5999 -18.5753 -18.5706
   -18.5644 -18.5535 -18.5495 -18.5434 -18.5355 -18.5246 -18.5169 -18.5137
   -18.5072 -18.4994 -18.4906 -18.4807 -18.4751 -18.4694 -18.4533 -18.4498
   -18.4408 -18.4381 -18.4304 -18.4225 -18.4147 -18.4100 -18.4061 -18.4024
   -18.3936 -18.3936 -18.3831 -18.3798 -18.3715 -18.3704 -18.3459 -18.3353
   -18.3197 -18.3103 -18.2976 -18.2805 -18.2741 -18.2574 -18.2006 -18.1693
   -16.6115 -16.6088 -16.6009 -16.5974  12.3835  12.4012  12.4285  12.4482
    13.9708  14.0904  14.1386  14.2086  14.3290  14.3867  16.9878  17.6172
    17.8284  17.9953  18.3242  18.5219  18.5832  18.5990  18.6328  18.6966
    18.7085  18.7322  18.7744  18.7799  18.8365  18.8705  18.8901  18.9759
    18.9872  19.0364  19.0837  19.1202  19.1332  19.1920  19.2419  19.2674
    19.3095  19.3374  19.3552  19.3989  19.4601  19.4753  19.5100  19.5784
    19.5828  19.7016  19.7832  19.8217  19.9563  20.0210  20.1062  20.1717
    20.2635  20.3254  20.3647  20.3938  20.5138  20.5463  20.5479  20.7104
    20.7177  20.8129  20.8886  20.9654  20.9714  21.0108  21.0242  21.1306
    21.1600  21.2081  21.2472  21.2901  21.3529  21.3878  21.4761  21.5396
    21.5768  21.6474  21.6478  21.7266  21.7526  21.7746  21.7822  21.8191
    21.8688  21.8804  21.9084  21.9878  22.0053  22.0317  22.0593  22.1148
    22.1275  22.1333  22.1622  22.2137  22.2515  22.2635  22.2923  22.3164
    22.3216  22.3713  22.4441  22.4655  22.5483  22.5791  22.6275  22.6675
    22.8123  22.8380  22.9259  22.9526  22.9560  23.0475  23.0488  23.1328
    23.1636  23.2797  23.3010  23.4955  23.6200  23.6532  23.7265  23.7421
    23.8085  23.8922  23.9026  24.0398  24.1888  24.2280  24.3348  24.3485
    24.3945  24.4966  24.5338  24.6389  24.6498  24.6997  24.7132  24.8348
    24.8665  24.9304  24.9600  24.9774  25.0261  25.0316  25.0340  25.1036
    25.1737  25.2511  25.2615  25.3057  25.3073  25.3426  25.4160  25.4214
    25.4359  25.4397  25.4860  25.5479  25.6460  25.7082  25.7377  25.7899
    25.8455  26.0245  26.1153  26.1915  26.3054  26.7498  26.7588  26.9962
    27.2692  27.4659  27.6191  27.7580  28.0498  28.0643  28.4327  28.5056
    28.5494  28.8100  29.1702  29.2191  29.6526

          k = 0.0556 0.3889-0.5000 ( 30172 PWs)   bands (ev):

   -55.7241 -55.7233 -50.3477 -50.3474 -50.3472 -50.3469 -48.7754 -48.7536
   -48.7457 -48.7114 -48.6981 -48.6926 -48.6827 -48.6801 -48.6717 -48.6635
   -48.6455 -48.6334 -48.6241 -48.6170 -48.6118 -48.6089 -48.5902 -48.5807
   -48.5772 -48.5727 -48.5622 -48.5464 -48.5449 -48.5400 -48.5361 -48.5329
   -48.5294 -28.3132 -28.3126 -28.3124 -28.3118 -24.9086 -24.8910 -19.9836
   -19.9785 -19.8592 -19.8452 -19.8179 -19.8038 -19.7245 -19.7098 -19.6982
   -19.6869 -19.4908 -19.4527 -19.0835 -19.0763 -19.0598 -19.0510 -19.0446
   -19.0315 -19.0206 -19.0106 -19.0081 -18.9876 -18.9808 -18.9732 -18.9701
   -18.9562 -18.9438 -18.9285 -18.9023 -18.8819 -18.8262 -18.8171 -18.8055
   -18.7868 -18.7715 -18.7488 -18.7296 -18.7124 -18.6748 -18.6687 -18.6539
   -18.6511 -18.6457 -18.6308 -18.6277 -18.6150 -18.6037 -18.5903 -18.5660
   -18.5630 -18.5498 -18.5441 -18.5365 -18.5284 -18.5262 -18.5224 -18.5146
   -18.5124 -18.5018 -18.4897 -18.4847 -18.4788 -18.4704 -18.4594 -18.4441
   -18.4373 -18.4346 -18.4295 -18.4243 -18.4135 -18.4112 -18.4064 -18.4026
   -18.4002 -18.3960 -18.3846 -18.3745 -18.3711 -18.3668 -18.3431 -18.3397
   -18.3166 -18.3132 -18.3054 -18.2769 -18.2670 -18.2646 -18.1967 -18.1679
   -16.6116 -16.6091 -16.6006 -16.5974  12.3866  12.4034  12.4263  12.4453
    13.9690  14.0875  14.1415  14.2138  14.3246  14.3881  17.1925  17.4125
    17.8496  18.0146  18.2855  18.5119  18.5478  18.5826  18.6358  18.6658
    18.7288  18.7420  18.7749  18.8031  18.8139  18.8873  18.9345  18.9717
    19.0151  19.0616  19.0686  19.1534  19.1907  19.2244  19.2608  19.2776
    19.2828  19.3299  19.3538  19.3760  19.4055  19.4279  19.5129  19.5613
    19.5655  19.6479  19.6937  19.7721  19.8565  20.0461  20.0952  20.1413
    20.2200  20.3081  20.3487  20.4501  20.4994  20.5554  20.6365  20.7103
    20.7473  20.8220  20.8459  20.9066  20.9384  21.0348  21.0735  21.1731
    21.1900  21.2608  21.3020  21.3860  21.4372  21.4726  21.5444  21.5700
    21.6126  21.6502  21.6886  21.7102  21.7748  21.7976  21.8310  21.8419
    21.8938  21.9108  21.9604  21.9753  22.0104  22.0365  22.0518  22.0718
    22.1356  22.1387  22.1603  22.2156  22.2376  22.2590  22.2910  22.3181
    22.3514  22.3645  22.4123  22.5183  22.5354  22.5540  22.5881  22.6725
    22.6901  22.7437  22.8215  22.8389  22.8874  22.9021  22.9918  23.0238
    23.1238  23.1870  23.2816  23.4670  23.5076  23.6742  23.7199  23.7932
    23.8164  23.8740  24.0157  24.0295  24.1337  24.3412  24.3662  24.3847
    24.4734  24.5332  24.5561  24.6522  24.6713  24.7698  24.7825  24.8293
    24.8709  24.9264  24.9805  24.9963  25.0557  25.0851  25.1206  25.1747
    25.2058  25.2422  25.2469  25.2882  25.3156  25.3846  25.3859  25.4264
    25.4525  25.4887  25.5100  25.5328  25.5896  25.6495  25.6641  25.6912
    25.7603  25.8531  26.0195  26.0720  26.2841  26.8213  26.9305  27.1790
    27.2573  27.4966  27.7624  27.8145  27.9947  28.2192  28.2949  28.5286
    28.8238  29.0474  29.1377  29.3070  29.4616

          k = 0.0556-0.5000-0.5000 ( 30184 PWs)   bands (ev):

   -55.7241 -55.7233 -50.3477 -50.3474 -50.3472 -50.3469 -48.7725 -48.7536
   -48.7483 -48.7132 -48.6972 -48.6936 -48.6814 -48.6814 -48.6718 -48.6623
   -48.6437 -48.6349 -48.6244 -48.6169 -48.6104 -48.6096 -48.5887 -48.5822
   -48.5774 -48.5729 -48.5628 -48.5458 -48.5428 -48.5416 -48.5366 -48.5326
   -48.5296 -28.3132 -28.3126 -28.3123 -28.3117 -24.9087 -24.8910 -19.9835
   -19.9782 -19.8588 -19.8426 -19.8196 -19.8050 -19.7253 -19.7094 -19.6991
   -19.6864 -19.4919 -19.4531 -19.0784 -19.0712 -19.0565 -19.0455 -19.0412
   -19.0327 -19.0273 -19.0046 -19.0031 -18.9939 -18.9886 -18.9772 -18.9657
   -18.9488 -18.9482 -18.9292 -18.9089 -18.9049 -18.8260 -18.8213 -18.8052
   -18.7857 -18.7559 -18.7537 -18.7385 -18.7121 -18.6723 -18.6624 -18.6571
   -18.6386 -18.6383 -18.6245 -18.6185 -18.6128 -18.6098 -18.5775 -18.5744
   -18.5528 -18.5458 -18.5454 -18.5402 -18.5338 -18.5297 -18.5261 -18.5227
   -18.5153 -18.5072 -18.4911 -18.4889 -18.4840 -18.4757 -18.4634 -18.4364
   -18.4331 -18.4329 -18.4273 -18.4243 -18.4191 -18.4136 -18.4054 -18.4018
   -18.4005 -18.3992 -18.3827 -18.3715 -18.3695 -18.3610 -18.3437 -18.3348
   -18.3264 -18.3184 -18.3064 -18.2695 -18.2666 -18.2635 -18.1954 -18.1685
   -16.6119 -16.6095 -16.6005 -16.5970  12.3858  12.4045  12.4253  12.4464
    13.9700  14.0862  14.1424  14.2160  14.3213  14.3906  17.3678  17.4502
    17.7595  17.8496  18.2695  18.5569  18.5680  18.5778  18.6292  18.6420
    18.7395  18.7484  18.7924  18.7925  18.8716  18.8777  18.9302  18.9729
    18.9940  19.0968  19.1163  19.1896  19.2179  19.2243  19.2438  19.2668
    19.2754  19.3211  19.3544  19.3627  19.3724  19.4179  19.4417  19.4860
    19.5224  19.6462  19.6600  19.6870  19.8176  20.0527  20.1271  20.1391
    20.2014  20.2415  20.2623  20.4518  20.5426  20.6015  20.6778  20.7553
    20.8009  20.8495  20.8566  20.9418  20.9577  21.0471  21.1487  21.2146
    21.2152  21.2760  21.2921  21.3538  21.4154  21.5037  21.5456  21.6008
    21.6681  21.6860  21.7258  21.7940  21.8116  21.8213  21.8849  21.8854
    21.9171  21.9290  22.0120  22.0253  22.0584  22.0653  22.0698  22.0803
    22.1372  22.1420  22.1869  22.1994  22.2246  22.2363  22.2887  22.3062
    22.3446  22.3620  22.3722  22.3965  22.4565  22.5213  22.5435  22.5557
    22.6005  22.6895  22.7018  22.7481  22.8096  22.8336  22.8632  23.0702
    23.1133  23.1401  23.3116  23.4284  23.5236  23.7073  23.7416  23.7737
    23.8030  23.8914  23.9451  24.0509  24.1832  24.3124  24.3838  24.4388
    24.5121  24.5357  24.6246  24.6326  24.6843  24.8099  24.8266  24.8626
    24.9166  24.9712  25.0672  25.0795  25.0877  25.1003  25.1371  25.2483
    25.2543  25.2668  25.2669  25.3245  25.3524  25.3793  25.3997  25.4166
    25.4228  25.4898  25.5076  25.5114  25.5325  25.5780  25.5994  25.6431
    25.6669  25.7098  25.8119  25.9820  26.2605  26.8937  27.1609  27.1842
    27.2692  27.6930  27.8788  27.9469  28.2132  28.2317  28.3807  28.4811
    28.8107  28.8956  28.9115  29.1877  29.6932

          k = 0.1667 0.1667 0.1667 ( 30217 PWs)   bands (ev):

   -55.7241 -55.7233 -50.3475 -50.3475 -50.3471 -50.3471 -48.7968 -48.7362
   -48.7362 -48.7022 -48.7022 -48.6912 -48.6790 -48.6753 -48.6753 -48.6702
   -48.6572 -48.6302 -48.6228 -48.6228 -48.6107 -48.6107 -48.5964 -48.5728
   -48.5713 -48.5713 -48.5568 -48.5568 -48.5511 -48.5355 -48.5346 -48.5346
   -48.5286 -28.3128 -28.3128 -28.3122 -28.3122 -24.9083 -24.8914 -19.9971
   -19.9689 -19.8697 -19.8697 -19.7922 -19.7922 -19.7153 -19.7153 -19.6918
   -19.6918 -19.4838 -19.4419 -19.1534 -19.1193 -19.1193 -19.0834 -19.0576
   -19.0576 -19.0471 -18.9717 -18.9569 -18.9569 -18.9511 -18.9324 -18.9324
   -18.9098 -18.9098 -18.9053 -18.8588 -18.8588 -18.8244 -18.7998 -18.7998
   -18.7943 -18.7497 -18.7497 -18.7342 -18.7136 -18.6943 -18.6943 -18.6787
   -18.6752 -18.6752 -18.6299 -18.6267 -18.6267 -18.6046 -18.6046 -18.5984
   -18.5876 -18.5876 -18.5532 -18.5528 -18.5471 -18.5471 -18.5310 -18.5310
   -18.5061 -18.5049 -18.4821 -18.4821 -18.4547 -18.4547 -18.4499 -18.4499
   -18.4439 -18.4414 -18.4414 -18.4077 -18.4067 -18.4067 -18.3995 -18.3995
   -18.3822 -18.3792 -18.3714 -18.3644 -18.3644 -18.3433 -18.3433 -18.3327
   -18.3139 -18.3116 -18.3116 -18.3052 -18.2481 -18.2481 -18.2145 -18.1704
   -16.6088 -16.6088 -16.6001 -16.6001  12.3760  12.3760  12.4540  12.4540
    13.9450  14.1221  14.1221  14.2063  14.3555  14.3555  16.3679  17.7270
    18.1071  18.1274  18.1274  18.3994  18.4214  18.4214  18.4717  18.4717
    18.4984  18.6046  18.7675  18.7675  18.9080  18.9080  18.9810  19.0165
    19.1449  19.1449  19.1581  19.2412  19.2412  19.3261  19.4490  19.5073
    19.5073  19.5292  19.5694  19.5694  19.7881  19.7881  19.7930  19.8136
    19.8136  19.9177  20.0608  20.0608  20.1027  20.1074  20.2019  20.2019
    20.3238  20.3331  20.3331  20.4250  20.4848  20.4848  20.6086  20.6814
    20.7201  20.7201  20.7923  20.7923  20.8621  20.8621  20.9688  20.9688
    21.0336  21.1071  21.1263  21.1263  21.1684  21.1684  21.2722  21.3085
    21.3085  21.3192  21.3951  21.4079  21.4079  21.4103  21.4111  21.6538
    21.6538  21.7721  21.7721  21.8136  21.9165  21.9165  21.9179  22.0035
    22.0035  22.0182  22.1411  22.1411  22.2935  22.2935  22.3641  22.4834
    22.4834  22.6831  22.6831  22.7271  22.7287  22.9179  22.9783  22.9998
    22.9998  23.0561  23.1637  23.1637  23.2630  23.2630  23.3530  23.3530
    23.5262  23.5692  23.5827  23.5827  23.6647  23.7448  23.7448  23.7974
    23.8737  23.8737  23.8777  23.9566  23.9566  24.0658  24.0658  24.0838
    24.2275  24.2275  24.3036  24.3762  24.4666  24.4666  24.4885  24.5814
    24.5814  24.6836  24.6889  24.6889  24.7518  24.9116  24.9116  24.9478
    25.0752  25.0752  25.2345  25.2498  25.2498  25.2527  25.4335  25.4335
    25.4799  25.6018  25.6018  25.7899  25.9141  26.0468  26.0468  26.1448
    26.1582  26.3236  26.3236  26.7305  26.7627  26.7627  27.0740  27.0740
    27.2472  27.3294  27.3294  27.4832  27.4832  27.8230  27.9202  27.9202
    27.9967  28.5837  28.5837  28.9009  29.2129

          k = 0.1667 0.1667 0.2778 ( 30175 PWs)   bands (ev):

   -55.7241 -55.7233 -50.3475 -50.3474 -50.3472 -50.3471 -48.7923 -48.7440
   -48.7352 -48.7031 -48.6995 -48.6940 -48.6791 -48.6763 -48.6729 -48.6717
   -48.6551 -48.6268 -48.6237 -48.6227 -48.6109 -48.6091 -48.5971 -48.5753
   -48.5737 -48.5716 -48.5567 -48.5539 -48.5495 -48.5360 -48.5348 -48.5345
   -48.5290 -28.3127 -28.3127 -28.3123 -28.3122 -24.9085 -24.8912 -19.9936
   -19.9710 -19.8673 -19.8660 -19.7968 -19.7940 -19.7180 -19.7149 -19.6910
   -19.6901 -19.4867 -19.4424 -19.1358 -19.1120 -19.1117 -19.0679 -19.0613
   -19.0529 -19.0311 -18.9956 -18.9900 -18.9641 -18.9580 -18.9467 -18.9323
   -18.9272 -18.9206 -18.9166 -18.8664 -18.8482 -18.8136 -18.8056 -18.7880
   -18.7767 -18.7709 -18.7547 -18.7229 -18.7179 -18.7016 -18.6989 -18.6884
   -18.6687 -18.6492 -18.6333 -18.6303 -18.6170 -18.6123 -18.6049 -18.5840
   -18.5809 -18.5775 -18.5470 -18.5408 -18.5402 -18.5343 -18.5211 -18.5193
   -18.5051 -18.4871 -18.4818 -18.4756 -18.4646 -18.4592 -18.4587 -18.4526
   -18.4461 -18.4382 -18.4374 -18.4257 -18.4169 -18.4044 -18.4016 -18.4009
   -18.3879 -18.3842 -18.3778 -18.3700 -18.3635 -18.3508 -18.3450 -18.3284
   -18.3162 -18.3100 -18.3040 -18.2996 -18.2546 -18.2544 -18.2129 -18.1716
   -16.6098 -16.6085 -16.6004 -16.5994  12.3790  12.3821  12.4485  12.4507
    13.9591  14.1090  14.1284  14.2008  14.3504  14.3667  16.5112  17.7012
    17.9709  18.2133  18.2360  18.4016  18.4449  18.5127  18.5459  18.5536
    18.5982  18.6509  18.7987  18.8404  18.8517  18.9443  18.9703  18.9894
    19.0007  19.0645  19.0958  19.1148  19.1985  19.2632  19.3108  19.3685
    19.4698  19.4775  19.4985  19.5554  19.5757  19.6551  19.7243  19.7382
    19.7599  19.8180  20.0091  20.0141  20.0791  20.0872  20.1703  20.2102
    20.3411  20.3619  20.3810  20.4776  20.4803  20.5501  20.5958  20.6027
    20.6622  20.7641  20.7744  20.8270  20.8304  20.8999  20.9671  21.0208
    21.0651  21.1112  21.1705  21.1999  21.2246  21.2710  21.2972  21.3325
    21.3538  21.3619  21.4209  21.4439  21.4877  21.5626  21.6670  21.7005
    21.7765  21.7968  21.8135  21.8487  21.8756  21.9454  21.9785  21.9822
    22.0232  22.0741  22.0937  22.2456  22.2949  22.3258  22.3389  22.4303
    22.5191  22.5499  22.5634  22.6566  22.6701  22.7899  22.9154  22.9373
    23.0367  23.0549  23.1693  23.1758  23.2456  23.3126  23.3486  23.4178
    23.4192  23.4679  23.4749  23.6204  23.6225  23.7013  23.7279  23.7912
    23.8579  23.8851  23.9022  23.9711  23.9779  24.0278  24.0606  24.1350
    24.2677  24.2762  24.3271  24.3682  24.4771  24.4796  24.6016  24.6724
    24.7009  24.7514  24.7627  24.8733  24.9423  24.9490  24.9633  24.9761
    25.0582  25.0607  25.2507  25.2801  25.3216  25.3662  25.4024  25.4508
    25.4700  25.4775  25.6387  25.6785  25.7666  25.8220  26.0097  26.0126
    26.0768  26.1416  26.1856  26.4918  26.8133  26.8212  27.0621  27.0759
    27.2206  27.3575  27.3736  27.5283  27.5911  27.7529  27.9047  28.1852
    28.2614  28.3317  28.8138  28.8651  29.3334

          k = 0.1667 0.1667 0.3889 ( 30171 PWs)   bands (ev):

   -55.7241 -55.7233 -50.3476 -50.3474 -50.3472 -50.3470 -48.7865 -48.7522
   -48.7343 -48.7037 -48.7015 -48.6930 -48.6805 -48.6762 -48.6722 -48.6711
   -48.6522 -48.6272 -48.6223 -48.6218 -48.6127 -48.6080 -48.5959 -48.5769
   -48.5760 -48.5718 -48.5567 -48.5521 -48.5484 -48.5368 -48.5346 -48.5345
   -48.5292 -28.3128 -28.3126 -28.3123 -28.3121 -24.9085 -24.8911 -19.9891
   -19.9747 -19.8644 -19.8586 -19.8056 -19.7965 -19.7201 -19.7135 -19.6918
   -19.6898 -19.4880 -19.4462 -19.1106 -19.0999 -19.0990 -19.0613 -19.0446
   -19.0435 -19.0338 -19.0104 -19.0073 -18.9899 -18.9665 -18.9557 -18.9430
   -18.9318 -18.9316 -18.9199 -18.8664 -18.8414 -18.8190 -18.8091 -18.7876
   -18.7846 -18.7625 -18.7591 -18.7314 -18.7088 -18.7023 -18.6999 -18.6951
   -18.6699 -18.6402 -18.6372 -18.6305 -18.6212 -18.6173 -18.5987 -18.5724
   -18.5714 -18.5612 -18.5410 -18.5332 -18.5299 -18.5211 -18.5146 -18.5020
   -18.4999 -18.4851 -18.4819 -18.4743 -18.4733 -18.4643 -18.4577 -18.4566
   -18.4505 -18.4387 -18.4338 -18.4291 -18.4236 -18.4076 -18.4021 -18.3994
   -18.3922 -18.3904 -18.3827 -18.3750 -18.3704 -18.3627 -18.3460 -18.3182
   -18.3155 -18.3105 -18.2983 -18.2932 -18.2687 -18.2629 -18.2060 -18.1702
   -16.6102 -16.6081 -16.6007 -16.5994  12.3860  12.3893  12.4421  12.4430
    13.9665  14.0972  14.1356  14.2016  14.3437  14.3739  16.7194  17.4481
    17.9854  18.3084  18.3827  18.4668  18.5055  18.5350  18.6157  18.6457
    18.6868  18.7124  18.7553  18.7759  18.8224  18.9109  18.9477  18.9619
    18.9630  18.9957  19.0497  19.0625  19.1630  19.1734  19.2613  19.2979
    19.3612  19.3869  19.4401  19.5232  19.5831  19.6168  19.6271  19.6986
    19.7069  19.7450  19.9034  19.9687  20.0509  20.0820  20.1319  20.2232
    20.3088  20.3407  20.4271  20.4357  20.4831  20.5215  20.6133  20.6300
    20.6836  20.7425  20.7611  20.8598  20.8708  20.9204  20.9306  20.9449
    21.0639  21.1358  21.2122  21.2193  21.2271  21.2513  21.3243  21.4096
    21.4151  21.4668  21.5398  21.5767  21.6305  21.6629  21.7207  21.7675
    21.8254  21.8299  21.8371  21.9030  21.9136  21.9255  22.0263  22.0767
    22.0867  22.1420  22.2302  22.2325  22.2855  22.3031  22.4075  22.4198
    22.4675  22.5394  22.5426  22.6240  22.6541  22.7495  22.8012  22.8312
    22.9481  23.0254  23.0407  23.0776  23.1516  23.2453  23.3514  23.3758
    23.3884  23.4762  23.4953  23.5621  23.5825  23.5930  23.6347  23.7321
    23.7445  23.7678  23.8944  24.0077  24.1071  24.1168  24.1573  24.2240
    24.2790  24.3265  24.3429  24.3994  24.4428  24.5614  24.6860  24.7229
    24.7871  24.8548  24.8615  24.8649  24.9686  24.9736  24.9781  25.0029
    25.0657  25.1648  25.1821  25.2760  25.3182  25.3745  25.4688  25.5064
    25.5366  25.6334  25.6347  25.7205  25.7700  25.8363  25.8367  25.9433
    25.9570  26.0953  26.2210  26.3190  26.5611  26.6791  26.8102  27.0610
    27.2385  27.3056  27.4116  27.5517  27.5886  27.8018  28.0164  28.2126
    28.5418  28.5549  28.7649  29.0147  29.5121

          k = 0.1667 0.1667-0.5000 ( 30122 PWs)   bands (ev):

   -55.7241 -55.7233 -50.3476 -50.3473 -50.3473 -50.3470 -48.7824 -48.7568
   -48.7340 -48.7054 -48.7036 -48.6907 -48.6822 -48.6754 -48.6716 -48.6703
   -48.6495 -48.6303 -48.6217 -48.6193 -48.6150 -48.6079 -48.5933 -48.5782
   -48.5768 -48.5719 -48.5566 -48.5516 -48.5483 -48.5373 -48.5351 -48.5339
   -48.5290 -28.3130 -28.3126 -28.3123 -28.3120 -24.9085 -24.8911 -19.9846
   -19.9791 -19.8625 -19.8484 -19.8172 -19.7985 -19.7207 -19.7113 -19.6939
   -19.6909 -19.4869 -19.4518 -19.0914 -19.0891 -19.0779 -19.0718 -19.0453
   -19.0380 -19.0241 -19.0109 -19.0106 -18.9971 -18.9852 -18.9510 -18.9456
   -18.9412 -18.9395 -18.9142 -18.8621 -18.8455 -18.8250 -18.8139 -18.7941
   -18.7928 -18.7699 -18.7588 -18.7269 -18.7150 -18.6959 -18.6942 -18.6865
   -18.6686 -18.6528 -18.6388 -18.6373 -18.6267 -18.6185 -18.5854 -18.5715
   -18.5680 -18.5580 -18.5324 -18.5295 -18.5250 -18.5186 -18.5087 -18.5080
   -18.4951 -18.4943 -18.4828 -18.4762 -18.4651 -18.4631 -18.4592 -18.4547
   -18.4502 -18.4433 -18.4287 -18.4243 -18.4209 -18.4096 -18.4026 -18.3981
   -18.3959 -18.3938 -18.3875 -18.3806 -18.3669 -18.3643 -18.3444 -18.3216
   -18.3199 -18.2995 -18.2990 -18.2867 -18.2863 -18.2688 -18.1985 -18.1669
   -16.6099 -16.6077 -16.6008 -16.5999  12.3940  12.3962  12.4320  12.4383
    13.9632  14.0916  14.1402  14.2087  14.3384  14.3745  16.9387  17.1728
    18.1011  18.3178  18.4198  18.4585  18.5038  18.5370  18.5627  18.6371
    18.6940  18.7261  18.7818  18.8071  18.8504  18.8515  18.8673  18.9621
    18.9847  19.0307  19.0573  19.1240  19.1267  19.1539  19.2712  19.2853
    19.3528  19.3638  19.4432  19.4841  19.5199  19.5548  19.6681  19.7094
    19.7445  19.7875  19.7929  19.9335  20.0216  20.0616  20.1218  20.2354
    20.2631  20.3100  20.3547  20.3792  20.4146  20.5474  20.6074  20.6637
    20.7395  20.7701  20.8064  20.8179  20.8853  20.9258  20.9661  20.9943
    21.0586  21.0894  21.1736  21.1939  21.2200  21.2396  21.3519  21.4645
    21.4873  21.5277  21.5725  21.6067  21.6858  21.7244  21.7750  21.8034
    21.8204  21.8645  21.9208  21.9657  21.9868  22.0398  22.0569  22.0909
    22.0985  22.1402  22.1679  22.1898  22.2340  22.2762  22.3663  22.4380
    22.5152  22.5481  22.5784  22.6451  22.6825  22.7050  22.7828  22.8084
    22.8918  22.9016  22.9179  23.0394  23.1029  23.2236  23.2511  23.3347
    23.3810  23.4349  23.4507  23.5347  23.5360  23.5890  23.6097  23.6620
    23.7222  23.7934  23.8360  24.0050  24.0129  24.1196  24.2084  24.2351
    24.3054  24.4242  24.4882  24.5044  24.5268  24.6300  24.6588  24.7139
    24.7781  24.8004  24.8095  24.8968  24.9079  25.0282  25.0565  25.0597
    25.0799  25.1886  25.2260  25.2605  25.2735  25.3317  25.3805  25.4241
    25.5327  25.5410  25.6239  25.7470  25.7721  25.9568  25.9608  26.0692
    26.1163  26.1200  26.2294  26.3080  26.3742  26.5161  26.6657  27.0910
    27.1706  27.3479  27.3675  27.6011  27.6708  27.7139  27.9063  28.2605
    28.7064  28.7384  28.9229  29.0765  29.4287

          k = 0.1667 0.2778 0.2778 ( 30156 PWs)   bands (ev):

   -55.7241 -55.7233 -50.3476 -50.3474 -50.3472 -50.3470 -48.7882 -48.7450
   -48.7394 -48.7034 -48.6983 -48.6981 -48.6784 -48.6761 -48.6737 -48.6704
   -48.6530 -48.6253 -48.6241 -48.6222 -48.6095 -48.6087 -48.5979 -48.5778
   -48.5745 -48.5732 -48.5557 -48.5516 -48.5480 -48.5362 -48.5356 -48.5343
   -48.5296 -28.3128 -28.3126 -28.3123 -28.3122 -24.9086 -24.8911 -19.9912
   -19.9722 -19.8655 -19.8641 -19.7975 -19.7970 -19.7194 -19.7153 -19.6909
   -19.6885 -19.4902 -19.4411 -19.1216 -19.1066 -19.1046 -19.0615 -19.0569
   -19.0503 -19.0163 -19.0095 -18.9931 -18.9923 -18.9691 -18.9536 -18.9434
   -18.9406 -18.9345 -18.9215 -18.8710 -18.8418 -18.8077 -18.8016 -18.7879
   -18.7775 -18.7677 -18.7548 -18.7298 -18.7138 -18.6971 -18.6859 -18.6671
   -18.6577 -18.6539 -18.6386 -18.6235 -18.6168 -18.6146 -18.5855 -18.5843
   -18.5763 -18.5743 -18.5511 -18.5444 -18.5321 -18.5316 -18.5174 -18.5171
   -18.5048 -18.4794 -18.4791 -18.4771 -18.4696 -18.4667 -18.4624 -18.4609
   -18.4479 -18.4454 -18.4284 -18.4261 -18.4195 -18.4173 -18.3997 -18.3987
   -18.3896 -18.3884 -18.3811 -18.3760 -18.3697 -18.3664 -18.3362 -18.3227
   -18.3147 -18.3054 -18.2991 -18.2928 -18.2621 -18.2523 -18.2146 -18.1720
   -16.6103 -16.6088 -16.6003 -16.5988  12.3805  12.3863  12.4439  12.4499
    13.9695  14.1070  14.1261  14.1987  14.3510  14.3707  16.6434  17.7309
    18.0266  18.0538  18.3183  18.4417  18.4625  18.5707  18.5852  18.5970
    18.6510  18.7432  18.7844  18.7895  18.8668  18.8900  18.9234  18.9456
    19.0164  19.0655  19.0703  19.1265  19.1413  19.2239  19.2301  19.2704
    19.3697  19.4299  19.4634  19.4855  19.5449  19.5889  19.5921  19.6238
    19.6514  19.7396  19.8981  20.0190  20.0220  20.0951  20.1438  20.2630
    20.2939  20.3464  20.4040  20.4607  20.5591  20.5710  20.6402  20.6718
    20.7008  20.7063  20.7750  20.8795  20.8948  20.9564  20.9625  21.0321
    21.0688  21.1103  21.1774  21.2001  21.2838  21.3311  21.3339  21.4253
    21.4441  21.4783  21.5139  21.5631  21.6155  21.6681  21.7260  21.7542
    21.7893  21.8223  21.8432  21.8715  21.8823  21.9857  22.0061  22.0339
    22.0695  22.0763  22.0962  22.2439  22.2694  22.3077  22.3437  22.3698
    22.4126  22.4660  22.4995  22.5816  22.6474  22.7388  22.8896  22.9212
    22.9699  23.0140  23.0206  23.1255  23.1904  23.1979  23.2639  23.3115
    23.4375  23.4584  23.4739  23.5659  23.6059  23.7009  23.7348  23.7911
    23.8033  23.8305  23.8468  23.9290  23.9849  24.0841  24.0931  24.1587
    24.1694  24.2417  24.3055  24.3708  24.4522  24.5670  24.6648  24.7017
    24.7725  24.8828  24.8833  24.9475  24.9767  24.9790  25.0695  25.1053
    25.1697  25.2109  25.2833  25.2846  25.3365  25.3724  25.3953  25.4559
    25.4568  25.5833  25.5850  25.6628  25.6970  25.8198  25.8737  25.9081
    25.9914  26.0649  26.1812  26.2882  26.7892  26.9059  26.9929  27.1606
    27.2994  27.3898  27.4458  27.6634  27.7725  27.9502  27.9895  28.2218
    28.2804  28.4087  28.7486  28.9832  29.2738

          k = 0.1667 0.2778 0.3889 ( 30187 PWs)   bands (ev):

[...]
    17.9393  17.9517  18.3103  18.3783  18.4056  18.4162  18.5737  18.6286
    18.6441  18.7541  18.7881  18.8272  18.8433  18.8850  18.9463  18.9522
    18.9795  19.0245  19.1323  19.1635  19.1653  19.2165  19.2424  19.2455
    19.3032  19.3333  19.3764  19.3971  19.4152  19.5402  19.6502  19.7039
    19.7333  19.7675  19.8346  19.8613  19.9154  19.9304  20.1298  20.1505
    20.2101  20.2650  20.2674  20.3362  20.4178  20.5793  20.6104  20.6775
    20.7047  20.7832  20.8671  20.8708  20.9650  21.0324  21.0972  21.1730
    21.2601  21.3100  21.3902  21.4451  21.4806  21.5142  21.5683  21.6025
    21.6218  21.6277  21.7041  21.7337  21.7385  21.8532  21.8562  21.8687
    21.8986  21.9196  21.9286  21.9508  21.9526  21.9879  21.9991  22.0425
    22.0783  22.1221  22.1350  22.1795  22.1961  22.2261  22.2279  22.2865
    22.3324  22.4177  22.4570  22.5221  22.5780  22.6267  22.6765  22.7148
    22.7529  22.8206  22.9457  22.9732  22.9775  23.0516  23.0797  23.1487
    23.1626  23.2706  23.3426  23.3810  23.4367  23.4925  23.5105  23.5861
    23.6083  23.6577  23.7265  23.7676  23.8174  23.9397  23.9908  23.9944
    24.1376  24.1645  24.2364  24.3026  24.3858  24.4087  24.4367  24.6160
    24.6262  24.6640  24.7223  24.8832  24.9714  24.9985  25.0349  25.1576
    25.2519  25.2931  25.3822  25.5188  25.5817  25.5993  25.6876  25.6955
    25.7103  25.7359  25.7609  25.7769  25.8291  25.8521  25.8769  26.0126
    26.1466  26.4844  26.5867  26.7557  26.9596  27.1453  27.4042  27.6063
    27.7094  27.7366  27.7670  27.8564  28.0241  28.2120  28.4987  28.5348
    28.8239  28.8523  29.0646  29.3063  29.3919

          k = 0.2778 0.3889-0.3889 ( 30147 PWs)   bands (ev):

   -55.7241 -55.7233 -50.3476 -50.3474 -50.3472 -50.3470 -48.7723 -48.7493
   -48.7462 -48.7194 -48.7028 -48.6989 -48.6782 -48.6772 -48.6682 -48.6641
   -48.6402 -48.6344 -48.6246 -48.6213 -48.6090 -48.6064 -48.5943 -48.5806
   -48.5799 -48.5766 -48.5510 -48.5470 -48.5451 -48.5395 -48.5370 -48.5345
   -48.5304 -28.3132 -28.3130 -28.3119 -28.3117 -24.9086 -24.8910 -19.9867
   -19.9747 -19.8585 -19.8484 -19.8163 -19.8051 -19.7196 -19.7115 -19.6963
   -19.6915 -19.4973 -19.4470 -19.0872 -19.0749 -19.0603 -19.0552 -19.0482
   -19.0296 -19.0247 -19.0157 -19.0112 -18.9999 -18.9875 -18.9821 -18.9613
   -18.9464 -18.9355 -18.9241 -18.9015 -18.8842 -18.8506 -18.8017 -18.7873
   -18.7666 -18.7482 -18.6992 -18.6957 -18.6922 -18.6801 -18.6693 -18.6590
   -18.6414 -18.6372 -18.6279 -18.6258 -18.6139 -18.6075 -18.5922 -18.5825
   -18.5810 -18.5717 -18.5564 -18.5483 -18.5383 -18.5296 -18.5241 -18.5169
   -18.5131 -18.5088 -18.5045 -18.4956 -18.4906 -18.4880 -18.4814 -18.4759
   -18.4662 -18.4641 -18.4566 -18.4290 -18.4236 -18.4121 -18.4055 -18.4013
   -18.3944 -18.3861 -18.3722 -18.3562 -18.3514 -18.3431 -18.3236 -18.3142
   -18.3035 -18.2941 -18.2866 -18.2799 -18.2782 -18.2676 -18.1899 -18.1718
   -16.6109 -16.6095 -16.5997 -16.5988  12.3944  12.3993  12.4307  12.4376
    13.9636  14.1050  14.1262  14.2296  14.3448  14.3651  17.2141  17.4839
    17.8885  18.2033  18.2110  18.3146  18.3557  18.4441  18.5695  18.6350
    18.6462  18.7616  18.8109  18.8411  18.8989  18.9300  18.9314  18.9766
    19.0036  19.0788  19.1061  19.1177  19.1480  19.1733  19.2161  19.2721
    19.2855  19.3246  19.3637  19.3771  19.4115  19.5453  19.5821  19.6604
    19.6937  19.7186  19.8243  19.8689  19.9360  20.0246  20.0545  20.1921
    20.2462  20.2552  20.3136  20.3434  20.4147  20.5014  20.5617  20.6559
    20.7922  20.8070  20.8522  20.9276  20.9763  21.0435  21.0772  21.1891
    21.2565  21.2983  21.3507  21.4242  21.4896  21.5367  21.5633  21.6195
    21.6440  21.7062  21.7477  21.7526  21.7718  21.8140  21.8175  21.8406
    21.8968  21.9207  21.9387  21.9636  21.9725  21.9921  22.0257  22.0573
    22.0688  22.0906  22.1210  22.1445  22.1741  22.1987  22.2347  22.3213
    22.3632  22.4271  22.4768  22.5224  22.5399  22.6206  22.6433  22.7140
    22.7312  22.7724  22.8794  22.9073  22.9417  23.0049  23.0865  23.1543
    23.1680  23.2829  23.3206  23.3951  23.4101  23.4805  23.5280  23.6096
    23.6572  23.7223  23.7972  23.8005  23.8869  23.9326  23.9545  24.0316
    24.1480  24.1874  24.2214  24.2876  24.3813  24.4083  24.5208  24.5437
    24.6269  24.7083  24.7603  24.8454  24.9790  25.0404  25.0875  25.1322
    25.2031  25.2728  25.4130  25.5107  25.5410  25.5855  25.6464  25.6720
    25.7040  25.7516  25.7835  25.8107  25.8316  25.8587  25.9068  26.0116
    26.1630  26.3379  26.6998  26.7779  26.9688  27.1303  27.2373  27.5124
    27.5985  27.6906  27.8270  27.9073  28.1814  28.2833  28.5400  28.5942
    28.6499  28.9350  29.0115  29.1266  29.3482

          k =-0.2778-0.5000 0.3889 ( 30178 PWs)   bands (ev):

   -55.7241 -55.7233 -50.3476 -50.3474 -50.3472 -50.3471 -48.7698 -48.7511
   -48.7457 -48.7209 -48.7025 -48.7005 -48.6779 -48.6776 -48.6679 -48.6630
   -48.6386 -48.6346 -48.6253 -48.6221 -48.6076 -48.6067 -48.5946 -48.5809
   -48.5794 -48.5773 -48.5514 -48.5460 -48.5430 -48.5410 -48.5376 -48.5344
   -48.5306 -28.3132 -28.3131 -28.3118 -28.3117 -24.9087 -24.8910 -19.9870
   -19.9741 -19.8579 -19.8484 -19.8159 -19.8064 -19.7182 -19.7135 -19.6959
   -19.6918 -19.4984 -19.4468 -19.0777 -19.0739 -19.0618 -19.0566 -19.0482
   -19.0357 -19.0324 -19.0131 -19.0059 -18.9988 -18.9925 -18.9727 -18.9576
   -18.9408 -18.9370 -18.9228 -18.9196 -18.8958 -18.8481 -18.7956 -18.7918
   -18.7677 -18.7302 -18.7083 -18.6988 -18.6853 -18.6724 -18.6587 -18.6512
   -18.6438 -18.6394 -18.6334 -18.6301 -18.6087 -18.5933 -18.5886 -18.5796
   -18.5717 -18.5675 -18.5664 -18.5618 -18.5460 -18.5358 -18.5248 -18.5207
   -18.5180 -18.5119 -18.5050 -18.4969 -18.4923 -18.4884 -18.4861 -18.4828
   -18.4744 -18.4684 -18.4559 -18.4253 -18.4247 -18.4108 -18.4044 -18.4023
   -18.3949 -18.3866 -18.3709 -18.3498 -18.3477 -18.3391 -18.3251 -18.3109
   -18.3000 -18.2975 -18.2908 -18.2761 -18.2721 -18.2698 -18.1854 -18.1757
   -16.6108 -16.6101 -16.5996 -16.5985  12.3930  12.4006  12.4296  12.4391
    13.9639  14.1061  14.1253  14.2322  14.3422  14.3667  17.3451  17.4613
    17.8139  18.0836  18.2750  18.3211  18.3614  18.4048  18.6076  18.6751
    18.6916  18.7431  18.7819  18.8252  18.8507  18.8772  18.9082  18.9894
    19.0237  19.0437  19.1335  19.1356  19.1672  19.1897  19.2291  19.2570
    19.2865  19.3303  19.3546  19.3780  19.4261  19.5001  19.6162  19.6507
    19.7194  19.7484  19.8146  19.9096  19.9157  20.0188  20.0688  20.1187
    20.1770  20.2365  20.2804  20.3333  20.4041  20.5717  20.5969  20.6702
    20.7568  20.8071  20.8380  20.9269  20.9690  21.0047  21.1256  21.1726
    21.2901  21.3689  21.4341  21.4369  21.5205  21.5673  21.6371  21.6505
    21.6575  21.6706  21.7188  21.7701  21.7783  21.8129  21.8220  21.8502
    21.8829  21.9089  21.9215  21.9341  21.9724  22.0074  22.0422  22.0641
    22.0922  22.1045  22.1594  22.1820  22.1938  22.2281  22.2572  22.3095
    22.3781  22.3932  22.4305  22.4808  22.5055  22.5703  22.6102  22.6624
    22.6872  22.7853  22.8235  22.9401  22.9614  22.9838  23.0681  23.1074
    23.1699  23.2471  23.3051  23.3608  23.4317  23.4993  23.5316  23.5966
    23.6230  23.6988  23.7642  23.8359  23.8573  23.8717  24.0193  24.0676
    24.1269  24.1707  24.2072  24.2530  24.3002  24.3513  24.4156  24.5229
    24.5724  24.6672  24.7584  24.8518  24.9148  24.9887  25.0191  25.1650
    25.2548  25.2971  25.4347  25.5759  25.6134  25.6768  25.6898  25.7293
    25.7477  25.7682  25.7867  25.8043  25.8236  25.8447  25.9320  25.9370
    26.1727  26.5421  26.7133  26.8228  27.0580  27.1582  27.3494  27.5251
    27.7174  27.7827  27.8121  27.9492  28.0878  28.3334  28.4235  28.7770
    28.8855  29.0175  29.1563  29.2591  29.4490

          k =-0.3889 0.3889 0.3889 ( 30196 PWs)   bands (ev):

   -55.7241 -55.7233 -50.3475 -50.3474 -50.3472 -50.3471 -48.7683 -48.7485
   -48.7481 -48.7218 -48.7037 -48.7022 -48.6802 -48.6767 -48.6641 -48.6640
   -48.6374 -48.6338 -48.6254 -48.6232 -48.6069 -48.6055 -48.5979 -48.5811
   -48.5797 -48.5777 -48.5470 -48.5458 -48.5448 -48.5394 -48.5385 -48.5355
   -48.5312 -28.3132 -28.3132 -28.3118 -28.3117 -24.9087 -24.8910 -19.9877
   -19.9730 -19.8582 -19.8520 -19.8128 -19.8062 -19.7170 -19.7131 -19.6949
   -19.6933 -19.5010 -19.4433 -19.0801 -19.0751 -19.0654 -19.0583 -19.0469
   -19.0383 -19.0288 -19.0206 -19.0113 -19.0049 -18.9925 -18.9856 -18.9524
   -18.9395 -18.9383 -18.9233 -18.9006 -18.8979 -18.8455 -18.7980 -18.7861
   -18.7497 -18.7243 -18.6945 -18.6832 -18.6733 -18.6619 -18.6545 -18.6475
   -18.6446 -18.6347 -18.6308 -18.6250 -18.6158 -18.6043 -18.5953 -18.5873
   -18.5802 -18.5723 -18.5596 -18.5560 -18.5505 -18.5449 -18.5357 -18.5318
   -18.5272 -18.5173 -18.5078 -18.5039 -18.4976 -18.4955 -18.4928 -18.4827
   -18.4821 -18.4720 -18.4696 -18.4266 -18.4230 -18.4055 -18.4023 -18.4001
   -18.3930 -18.3828 -18.3724 -18.3459 -18.3432 -18.3407 -18.3156 -18.3046
   -18.2981 -18.2849 -18.2813 -18.2801 -18.2769 -18.2692 -18.1877 -18.1757
   -16.6107 -16.6099 -16.5993 -16.5991  12.3963  12.3980  12.4324  12.4357
    13.9644  14.1143  14.1196  14.2362  14.3535  14.3546  17.2924  17.5475
    17.9707  18.0426  18.1997  18.2799  18.2996  18.3228  18.6173  18.6678
    18.7078  18.7533  18.8222  18.8799  18.8811  18.9164  18.9311  18.9320
    18.9699  19.0155  19.1026  19.1100  19.1831  19.1871  19.2194  19.2529
    19.2855  19.3019  19.3360  19.3531  19.4400  19.5868  19.6847  19.7235
    19.7465  19.7850  19.8335  19.8384  19.9177  19.9487  20.0538  20.1743
    20.2081  20.2380  20.2554  20.3308  20.3533  20.4831  20.5262  20.6458
    20.7731  20.8496  20.8516  20.9325  20.9885  21.0726  21.1932  21.2236
    21.3232  21.3544  21.3831  21.5050  21.5232  21.5760  21.6245  21.6444
    21.6922  21.7358  21.7477  21.7486  21.8035  21.8254  21.8731  21.9001
    21.9123  21.9254  21.9634  21.9746  21.9834  21.9963  22.0160  22.0497
    22.0587  22.0683  22.1117  22.1123  22.1323  22.1474  22.2690  22.2844
    22.2911  22.4034  22.4659  22.4974  22.5613  22.5891  22.5970  22.6383
    22.6424  22.7395  22.8472  22.9802  23.0028  23.0126  23.0890  23.1869
    23.2144  23.2263  23.2445  23.3758  23.4295  23.4918  23.5184  23.5232
    23.5377  23.6068  23.6765  23.7633  23.7773  23.8575  23.9113  23.9822
    24.0125  24.0471  24.0629  24.1907  24.2403  24.2997  24.4491  24.5161
    24.5333  24.5670  24.6390  24.7635  24.8921  24.9136  25.0462  25.1898
    25.2409  25.3626  25.4683  25.6657  25.6683  25.6937  25.7740  25.7831
    25.8260  25.8515  25.8760  25.8855  25.9159  25.9282  25.9537  26.0475
    26.2017  26.5808  26.7442  26.9663  27.2390  27.3565  27.6207  27.6974
    27.8317  27.9359  27.9829  28.2063  28.3849  28.4246  28.4669  28.6570
    28.7837  28.9631  28.9883  29.1063  29.3832

          k =-0.3889-0.5000 0.3889 ( 30162 PWs)   bands (ev):

   -55.7241 -55.7233 -50.3475 -50.3474 -50.3472 -50.3472 -48.7661 -48.7501
   -48.7477 -48.7223 -48.7038 -48.7037 -48.6813 -48.6762 -48.6640 -48.6627
   -48.6354 -48.6342 -48.6259 -48.6239 -48.6058 -48.6054 -48.5994 -48.5811
   -48.5797 -48.5782 -48.5465 -48.5452 -48.5421 -48.5413 -48.5388 -48.5360
   -48.5316 -28.3132 -28.3132 -28.3117 -28.3117 -24.9087 -24.8910 -19.9880
   -19.9723 -19.8578 -19.8535 -19.8112 -19.8069 -19.7148 -19.7147 -19.6946
   -19.6939 -19.5023 -19.4419 -19.0756 -19.0743 -19.0666 -19.0612 -19.0479
   -19.0420 -19.0314 -19.0212 -19.0163 -19.0007 -18.9968 -18.9844 -18.9473
   -18.9395 -18.9368 -18.9210 -18.9098 -18.8983 -18.8429 -18.7922 -18.7891
   -18.7468 -18.7103 -18.6876 -18.6718 -18.6704 -18.6611 -18.6563 -18.6435
   -18.6381 -18.6348 -18.6295 -18.6257 -18.6070 -18.5984 -18.5917 -18.5893
   -18.5835 -18.5773 -18.5710 -18.5677 -18.5515 -18.5484 -18.5409 -18.5408
   -18.5368 -18.5136 -18.5133 -18.5064 -18.5006 -18.4940 -18.4937 -18.4881
   -18.4873 -18.4787 -18.4716 -18.4243 -18.4232 -18.4027 -18.4015 -18.3988
   -18.3934 -18.3814 -18.3718 -18.3424 -18.3413 -18.3387 -18.3134 -18.3014
   -18.2958 -18.2834 -18.2829 -18.2751 -18.2736 -18.2721 -18.1865 -18.1777
   -16.6105 -16.6102 -16.5993 -16.5991  12.3961  12.3986  12.4321  12.4357
    13.9647  14.1154  14.1198  14.2388  14.3499  14.3571  17.3194  17.6165
    17.8901  18.0874  18.1828  18.2295  18.2770  18.2930  18.6528  18.7105
    18.7264  18.7580  18.8190  18.8361  18.8539  18.8921  18.9155  18.9273
    18.9765  19.0262  19.0754  19.1149  19.1772  19.2153  19.2572  19.2596
    19.2871  19.2988  19.3108  19.3273  19.5260  19.5485  19.6898  19.7149
    19.7601  19.8399  19.8444  19.8584  19.9614  19.9801  20.0214  20.0423
    20.1833  20.1979  20.2206  20.3188  20.4033  20.4565  20.5641  20.6042
    20.8312  20.8339  20.8705  20.8708  21.0361  21.0512  21.2042  21.2761
    21.3502  21.3789  21.4795  21.5064  21.5477  21.5666  21.6436  21.6607
    21.6673  21.7342  21.7604  21.7850  21.8073  21.8222  21.8787  21.8822
    21.8965  21.9338  21.9383  21.9874  21.9900  22.0143  22.0372  22.0654
    22.0685  22.1056  22.1313  22.1351  22.1632  22.2087  22.2340  22.2604
    22.2864  22.3275  22.3816  22.4298  22.4335  22.5791  22.5981  22.6443
    22.7251  22.7516  22.8399  22.8445  23.0581  23.1156  23.1250  23.1564
    23.1887  23.2205  23.2720  23.3010  23.3993  23.4154  23.4945  23.5281
    23.5727  23.6153  23.6370  23.7056  23.7516  23.8104  23.9371  23.9816
    24.0165  24.0545  24.0704  24.0969  24.1574  24.1964  24.3876  24.4025
    24.5291  24.5359  24.7150  24.7153  24.8093  24.8604  25.0531  25.2106
    25.2617  25.3964  25.4921  25.7029  25.7326  25.7850  25.7882  25.8381
    25.8416  25.8637  25.9031  25.9136  25.9500  25.9576  25.9999  26.0187
    26.2169  26.6873  26.6980  27.1085  27.2242  27.5674  27.6569  27.8226
    27.9080  28.0387  28.1257  28.1701  28.3568  28.6258  28.6586  28.6977
    28.8064  29.1147  29.1998  29.2253  29.3018

     the Fermi energy is    24.1930 ev

!    total energy              =  -14239.67679918 Ry

     total all-electron energy =   -299046.579336 Ry
     estimated scf accuracy    <       0.00000090 Ry
     smearing contrib. (-TS)   =       0.01194319 Ry
     internal energy E=F+TS    =  -14239.68874237 Ry

     The total energy is F=E-TS. E is the sum of the following terms:
     one-electron contribution =   -1196.57250125 Ry
     hartree contribution      =    1042.82208005 Ry
     xc contribution           =    -962.93851639 Ry
     ewald contribution        =   -5296.10085580 Ry
     one-center paw contrib.   =   -7826.89894898 Ry

     convergence has been achieved in  16 iterations

     Forces acting on atoms (cartesian axes, Ry/au):

     atom    1 type  1   force =    -1.19321910   -1.19321910   -1.19321910
     atom    2 type  1   force =     1.19321910    1.19321910    1.19321910
     atom    3 type  1   force =     1.19725653    1.19725653   -1.23012815
     atom    4 type  1   force =     1.19725653   -1.23012815    1.19725653
     atom    5 type  1   force =    -1.23012815    1.19725653    1.19725653
     atom    6 type  1   force =    -0.00000000   -0.00000000    0.00000000
     atom    7 type  1   force =     0.01074747    0.01074747    0.02306604
     atom    8 type  1   force =     0.01809367    0.00000000   -0.01809367
     atom    9 type  1   force =     0.00000000    0.01809367   -0.01809367
     atom   10 type  1   force =    -0.00000000    0.00000000    0.00000000
     atom   11 type  1   force =     0.01809367   -0.01809367   -0.00000000
     atom   12 type  1   force =     0.01074747    0.02306604    0.01074747
     atom   13 type  1   force =     0.00000000   -0.01809367    0.01809367
     atom   14 type  1   force =    -0.00000000   -0.00000000    0.00000000
     atom   15 type  1   force =     0.02121296   -0.02121296    0.00000000
     atom   16 type  1   force =     0.02121296    0.00000000   -0.02121296
     atom   17 type  1   force =     1.23012815   -1.19725653   -1.19725653
     atom   18 type  1   force =     0.00000000   -0.00000000    0.00000000
     atom   19 type  1   force =    -0.01809367    0.01809367    0.00000000
     atom   20 type  1   force =    -0.01809367   -0.00000000    0.01809367
     atom   21 type  1   force =     0.02306604    0.01074747    0.01074747
     atom   22 type  1   force =     0.00000000    0.00000000   -0.00000000
     atom   23 type  1   force =    -0.02121296    0.02121296    0.00000000
     atom   24 type  1   force =    -1.19725653    1.23012815   -1.19725653
     atom   25 type  1   force =    -0.00000000    0.02121296   -0.02121296
     atom   26 type  1   force =     0.00000000    0.00000000    0.00000000
     atom   27 type  1   force =    -1.19725653   -1.19725653    1.23012815
     atom   28 type  1   force =    -0.02121296   -0.00000000    0.02121296
     atom   29 type  1   force =    -0.00000000   -0.02121296    0.02121296
     atom   30 type  1   force =     0.00000000    0.00000000    0.00000000
     atom   31 type  1   force =    -0.01074747   -0.01074747   -0.02306604
     atom   32 type  1   force =    -0.01074747   -0.02306604   -0.01074747
     atom   33 type  1   force =    -0.02306604   -0.01074747   -0.01074747

     Total force =     5.902280     Total SCF correction =     0.002862


     Computing stress (Cartesian axis) and pressure

          total   stress  (Ry/bohr**3)                   (kbar)     P=      728.58
   0.00495280  -0.00148790  -0.00148790          728.58     -218.88     -218.88
  -0.00148790   0.00495280  -0.00148790         -218.88      728.58     -218.88
  -0.00148790  -0.00148790   0.00495280         -218.88     -218.88      728.58


     Writing output data file /scratch/ru1111.save/
 
     init_run     :     23.71s CPU     24.41s WALL (       1 calls)
     electrons    :   1218.76s CPU   1237.37s WALL (       1 calls)
     forces       :     13.45s CPU     13.56s WALL (       1 calls)
     stress       :     83.34s CPU     83.90s WALL (       1 calls)

     Called by init_run:
     wfcinit      :     23.18s CPU     23.75s WALL (       1 calls)
     potinit      :      0.22s CPU      0.26s WALL (       1 calls)
     hinit0       :      0.10s CPU      0.12s WALL (       1 calls)

     Called by electrons:
     c_bands      :   1067.34s CPU   1083.03s WALL (      17 calls)
     sum_band     :    149.34s CPU    151.94s WALL (      17 calls)
     v_of_rho     :      0.30s CPU      0.32s WALL (      17 calls)
     newd         :      0.39s CPU      0.55s WALL (      17 calls)
     PAW_pot      :      1.40s CPU      1.50s WALL (      17 calls)
     mix_rho      :      0.08s CPU      0.10s WALL (      17 calls)

     Called by c_bands:
     init_us_2    :      5.81s CPU      5.93s WALL (    3145 calls)
     cegterg      :   1044.73s CPU   1056.33s WALL (    1445 calls)

     Called by *egterg:
     cdiaghg      :    125.33s CPU    126.13s WALL (    5901 calls)
     h_psi        :    583.88s CPU    592.42s WALL (    6071 calls)
     s_psi        :     48.93s CPU     49.29s WALL (    6071 calls)
     g_psi        :      1.02s CPU      1.03s WALL (    4541 calls)

     Called by h_psi:
     h_psi:calbec :     89.23s CPU     89.89s WALL (    6071 calls)
     vloc_psi     :    444.62s CPU    451.91s WALL (    6071 calls)
     add_vuspsi   :     46.99s CPU     47.55s WALL (    6071 calls)

     General routines
     calbec       :    145.76s CPU    146.75s WALL (    7941 calls)
     fft          :      0.27s CPU      0.29s WALL (     245 calls)
     ffts         :      0.03s CPU      0.03s WALL (      34 calls)
     fftw         :    524.26s CPU    532.77s WALL ( 2493595 calls)
     interpolate  :      0.04s CPU      0.04s WALL (      17 calls)
 
     Parallel routines
     fft_scatt_xy :     43.77s CPU     44.49s WALL ( 2493874 calls)
     fft_scatt_yz :    406.77s CPU    413.47s WALL ( 2493874 calls)
 
     PWSCF        :  22m38.58s CPU  23m 2.56s WALL

 
   This run was terminated on:  22: 9:28   2Jan2022            

=------------------------------------------------------------------------------=
   JOB DONE.
=------------------------------------------------------------------------------=
