
     Program PWSCF v.6.7MaX starts on  3Jan2022 at 20:35:25 

     This program is part of the open-source Quantum ESPRESSO suite
     for quantum simulation of materials; please cite
         "P. Giannozzi et al., J. Phys.:Condens. Matter 21 395502 (2009);
         "P. Giannozzi et al., J. Phys.:Condens. Matter 29 465901 (2017);
          URL http://www.quantum-espresso.org", 
     in publications or presentations arising from this work. More details at
     http://www.quantum-espresso.org/quote

     Parallel version (MPI & OpenMP), running on      72 processor cores
     Number of MPI processes:                72
     Threads/MPI process:                     1

     MPI processes distributed on     1 nodes
     R & G space division:  proc/nbgrp/npool/nimage =      72
     Reading input from ru_110_2.in

     Current dimensions of program PWSCF are:
     Max number of different atomic species (ntypx) = 10
     Max number of k-points (npk) =  40000
     Max angular momentum in pseudopotentials (lmaxx) =  3
     file Ru.pbe-spn-kjpaw_psl.1.0.0.UPF: wavefunction(s)  4D renormalized

     Subspace diagonalization in iterative solution of the eigenvalue problem:
     one sub-group per band group will be used
     ELPA distributed-memory algorithm (size of sub-group:  8*  8 procs)

     Message from routine setup:
     using ibrav=0 with symmetry is DISCOURAGED, use correct ibrav instead
 
     Parallelization info
     --------------------
     sticks:   dense  smooth     PW     G-vecs:    dense   smooth      PW
     Min          98      65     17                 6240     3351     475
     Max          99      66     18                 6245     3355     482
     Sum        7113    4693   1281               449479   241377   34457
 


     bravais-lattice index     =            0
     lattice parameter (alat)  =      14.4007  a.u.
     unit-cell volume          =    2986.4454 (a.u.)^3
     number of atoms/cell      =           33
     number of atomic types    =            1
     number of electrons       =       528.00
     number of Kohn-Sham states=          317
     kinetic-energy cutoff     =      71.0000  Ry
     charge density cutoff     =     430.0000  Ry
     scf convergence threshold =      1.0E-06
     mixing beta               =       0.1000
     number of iterations used =           10  TF        mixing
     energy convergence thresh.=      1.0E-04
     force convergence thresh. =      1.0E-03
     press convergence thresh. =      5.0E-01
     Exchange-correlation= SLA  PW   PBX  PBC
                           (   1   4   3   4   0   0   0)
     nstep                     =           40


     celldm(1)=  14.400742  celldm(2)=   0.000000  celldm(3)=   0.000000
     celldm(4)=   0.000000  celldm(5)=   0.000000  celldm(6)=   0.000000

     crystal axes: (cart. coord. in units of alat)
               a(1) = (   1.000000   0.000000   0.000000 )  
               a(2) = (   0.000000   1.000000   0.000000 )  
               a(3) = (   0.000000   0.000000   1.000000 )  

     reciprocal axes: (cart. coord. in units 2 pi/alat)
               b(1) = (  1.000000  0.000000  0.000000 )  
               b(2) = (  0.000000  1.000000  0.000000 )  
               b(3) = (  0.000000  0.000000  1.000000 )  


     PseudoPot. # 1 for Ru read from file:
     /rds/homes/b/bxp912/pp/Ru.pbe-spn-kjpaw_psl.1.0.0.UPF
     MD5 check sum: 0ae1f594dea09af7be8575c3a481d1ae
     Pseudo is Projector augmented-wave + core cor, Zval = 16.0
     Generated using "atomic" code by A. Dal Corso  v.5.1
     Shape of augmentation charge: PSQ
     Using radial grid of 1233 points,  6 beta functions with: 
                l(1) =   0
                l(2) =   0
                l(3) =   1
                l(4) =   1
                l(5) =   2
                l(6) =   2
     Q(r) pseudized with 0 coefficients 


     atomic species   valence    mass     pseudopotential
        Ru            16.00   101.07000     Ru( 1.00)

      8 Sym. Ops., with inversion, found ( 4 have fractional translation)



   Cartesian axes

     site n.     atom                  positions (alat units)
         1           Ru  tau(   1) = (   0.0000000   0.0000000   0.0000000  )
         2           Ru  tau(   2) = (   0.2500000   0.2500000   0.0000000  )
         3           Ru  tau(   3) = (   0.2500000   0.0000000   0.2500000  )
         4           Ru  tau(   4) = (   0.0000000   0.1000000   0.1000000  )
         5           Ru  tau(   5) = (   0.0000000   0.4000000   0.4000000  )
         6           Ru  tau(   6) = (   0.0000000   0.0000000   0.5000000  )
         7           Ru  tau(   7) = (   0.2500000   0.2500000   0.5000000  )
         8           Ru  tau(   8) = (   0.2500000   0.0000000   0.7500000  )
         9           Ru  tau(   9) = (   0.0000000   0.2500000   0.7500000  )
        10           Ru  tau(  10) = (   0.0000000   0.5000000   0.0000000  )
        11           Ru  tau(  11) = (   0.2500000   0.7500000   0.0000000  )
        12           Ru  tau(  12) = (   0.2500000   0.5000000   0.2500000  )
        13           Ru  tau(  13) = (   0.0000000   0.7500000   0.2500000  )
        14           Ru  tau(  14) = (   0.0000000   0.5000000   0.5000000  )
        15           Ru  tau(  15) = (   0.2500000   0.7500000   0.5000000  )
        16           Ru  tau(  16) = (   0.2500000   0.5000000   0.7500000  )
        17           Ru  tau(  17) = (   0.0000000   0.7500000   0.7500000  )
        18           Ru  tau(  18) = (   0.5000000   0.0000000   0.0000000  )
        19           Ru  tau(  19) = (   0.7500000   0.2500000   0.0000000  )
        20           Ru  tau(  20) = (   0.7500000   0.0000000   0.2500000  )
        21           Ru  tau(  21) = (   0.5000000   0.2500000   0.2500000  )
        22           Ru  tau(  22) = (   0.5000000   0.0000000   0.5000000  )
        23           Ru  tau(  23) = (   0.7500000   0.2500000   0.5000000  )
        24           Ru  tau(  24) = (   0.7500000   0.0000000   0.7500000  )
        25           Ru  tau(  25) = (   0.5000000   0.2500000   0.7500000  )
        26           Ru  tau(  26) = (   0.5000000   0.5000000   0.0000000  )
        27           Ru  tau(  27) = (   0.7500000   0.7500000   0.0000000  )
        28           Ru  tau(  28) = (   0.7500000   0.5000000   0.2500000  )
        29           Ru  tau(  29) = (   0.5000000   0.7500000   0.2500000  )
        30           Ru  tau(  30) = (   0.5000000   0.5000000   0.5000000  )
        31           Ru  tau(  31) = (   0.7500000   0.7500000   0.5000000  )
        32           Ru  tau(  32) = (   0.7500000   0.5000000   0.7500000  )
        33           Ru  tau(  33) = (   0.5000000   0.7500000   0.7500000  )

     number of k points=   125  Marzari-Vanderbilt smearing, width (Ry)=  0.0400

     Number of k-points >= 100: set verbosity='high' to print them.

     Dense  grid:   449479 G-vectors     FFT dimensions: (  96,  96,  96)

     Smooth grid:   241377 G-vectors     FFT dimensions: (  80,  80,  80)

     Estimated max dynamical RAM per process >     293.86 MB

     Estimated total dynamical RAM >      20.66 GB

     Check: negative core charge=   -0.000002

     Initial potential from superposition of free atoms

     starting charge  527.97896, renormalised to  528.00000
     Starting wfcs are  330 randomized atomic wfcs
     Checking if some PAW data can be deallocated... 

     total cpu time spent up to now is       37.9 secs

     Self-consistent Calculation

     iteration #  1     ecut=    71.00 Ry     beta= 0.10
     Davidson diagonalization with overlap
     ethr =  1.00E-02,  avg # of iterations =  5.1

     total cpu time spent up to now is      175.3 secs

     total energy              =  -14224.59605423 Ry
     estimated scf accuracy    <       6.28967595 Ry

     iteration #  2     ecut=    71.00 Ry     beta= 0.10
     Davidson diagonalization with overlap
     ethr =  1.19E-03,  avg # of iterations =  1.2

     total cpu time spent up to now is      265.3 secs

     total energy              =  -14223.54164825 Ry
     estimated scf accuracy    <       4.22127469 Ry

     iteration #  3     ecut=    71.00 Ry     beta= 0.10
     Davidson diagonalization with overlap
     ethr =  7.99E-04,  avg # of iterations =  4.5

     total cpu time spent up to now is      373.5 secs

     total energy              =  -14223.96949533 Ry
     estimated scf accuracy    <       0.67457799 Ry

     iteration #  4     ecut=    71.00 Ry     beta= 0.10
     Davidson diagonalization with overlap
     ethr =  1.28E-04,  avg # of iterations =  5.7

     total cpu time spent up to now is      482.6 secs

     total energy              =  -14223.79618628 Ry
     estimated scf accuracy    <       0.45009395 Ry

     iteration #  5     ecut=    71.00 Ry     beta= 0.10
     Davidson diagonalization with overlap
     ethr =  8.52E-05,  avg # of iterations =  3.7

     total cpu time spent up to now is      591.4 secs

     total energy              =  -14223.85763191 Ry
     estimated scf accuracy    <       0.28793696 Ry

     iteration #  6     ecut=    71.00 Ry     beta= 0.10
     Davidson diagonalization with overlap
     ethr =  5.45E-05,  avg # of iterations =  2.2

     total cpu time spent up to now is      694.0 secs

     total energy              =  -14223.81568485 Ry
     estimated scf accuracy    <       0.35106735 Ry

     iteration #  7     ecut=    71.00 Ry     beta= 0.10
     Davidson diagonalization with overlap
     ethr =  5.45E-05,  avg # of iterations =  2.0

     total cpu time spent up to now is      793.4 secs

     total energy              =  -14223.83579531 Ry
     estimated scf accuracy    <       0.02367449 Ry

     iteration #  8     ecut=    71.00 Ry     beta= 0.10
     Davidson diagonalization with overlap
     c_bands:  1 eigenvalues not converged
     c_bands:  1 eigenvalues not converged
     c_bands:  1 eigenvalues not converged
     ethr =  4.48E-06,  avg # of iterations =  7.2

     total cpu time spent up to now is      913.4 secs

     total energy              =  -14223.83346054 Ry
     estimated scf accuracy    <       0.01289522 Ry

     iteration #  9     ecut=    71.00 Ry     beta= 0.10
     Davidson diagonalization with overlap
     ethr =  2.44E-06,  avg # of iterations =  2.2

     total cpu time spent up to now is     1015.4 secs

     total energy              =  -14223.83328933 Ry
     estimated scf accuracy    <       0.00591420 Ry

     iteration # 10     ecut=    71.00 Ry     beta= 0.10
     Davidson diagonalization with overlap
     ethr =  1.12E-06,  avg # of iterations =  2.0

     total cpu time spent up to now is     1117.5 secs

     total energy              =  -14223.83401223 Ry
     estimated scf accuracy    <       0.00065511 Ry

     iteration # 11     ecut=    71.00 Ry     beta= 0.10
     Davidson diagonalization with overlap
     ethr =  1.24E-07,  avg # of iterations =  1.7

     total cpu time spent up to now is     1212.7 secs

     total energy              =  -14223.83390643 Ry
     estimated scf accuracy    <       0.00063361 Ry

     iteration # 12     ecut=    71.00 Ry     beta= 0.10
     Davidson diagonalization with overlap
     ethr =  1.20E-07,  avg # of iterations =  2.0

     total cpu time spent up to now is     1314.1 secs

     total energy              =  -14223.83388295 Ry
     estimated scf accuracy    <       0.00034902 Ry

     iteration # 13     ecut=    71.00 Ry     beta= 0.10
     Davidson diagonalization with overlap
     ethr =  6.61E-08,  avg # of iterations =  3.0

     total cpu time spent up to now is     1420.0 secs

     total energy              =  -14223.83391559 Ry
     estimated scf accuracy    <       0.00006728 Ry

     iteration # 14     ecut=    71.00 Ry     beta= 0.10
     Davidson diagonalization with overlap
     ethr =  1.27E-08,  avg # of iterations =  2.0

     total cpu time spent up to now is     1518.6 secs

     total energy              =  -14223.83390958 Ry
     estimated scf accuracy    <       0.00004806 Ry

     iteration # 15     ecut=    71.00 Ry     beta= 0.10
     Davidson diagonalization with overlap
     ethr =  9.10E-09,  avg # of iterations =  2.0

     total cpu time spent up to now is     1618.0 secs

     total energy              =  -14223.83390491 Ry
     estimated scf accuracy    <       0.00003134 Ry

     iteration # 16     ecut=    71.00 Ry     beta= 0.10
     Davidson diagonalization with overlap
     ethr =  5.94E-09,  avg # of iterations =  2.0

     total cpu time spent up to now is     1718.7 secs

     total energy              =  -14223.83390294 Ry
     estimated scf accuracy    <       0.00000945 Ry

     iteration # 17     ecut=    71.00 Ry     beta= 0.10
     Davidson diagonalization with overlap
     ethr =  1.79E-09,  avg # of iterations =  3.0

     total cpu time spent up to now is     1825.4 secs

     total energy              =  -14223.83390450 Ry
     estimated scf accuracy    <       0.00000244 Ry

     iteration # 18     ecut=    71.00 Ry     beta= 0.10
     Davidson diagonalization with overlap
     ethr =  4.62E-10,  avg # of iterations =  3.0

     total cpu time spent up to now is     1930.0 secs

     End of self-consistent calculation

     Number of k-points >= 100: set verbosity='high' to print the bands.

     the Fermi energy is    24.1895 ev

!    total energy              =  -14223.83390487 Ry

     total all-electron energy =   -299030.736442 Ry
     estimated scf accuracy    <       0.00000055 Ry
     smearing contrib. (-TS)   =       0.01056751 Ry
     internal energy E=F+TS    =  -14223.84447238 Ry

     The total energy is F=E-TS. E is the sum of the following terms:
     one-electron contribution =   -1266.19790553 Ry
     hartree contribution      =    1070.93552137 Ry
     xc contribution           =    -966.00987652 Ry
     ewald contribution        =   -5235.08188634 Ry
     one-center paw contrib.   =   -7827.49032537 Ry

     convergence has been achieved in  18 iterations

     Forces acting on atoms (cartesian axes, Ry/au):

     atom    1 type  1   force =     0.00000000  -18.91696017  -18.91696017
     atom    2 type  1   force =     0.19187093    0.11871922   -0.05169542
     atom    3 type  1   force =     0.19187093   -0.05169542    0.11871922
     atom    4 type  1   force =     0.00000000   18.88800674   18.88800674
     atom    5 type  1   force =     0.00000000  -18.88800674  -18.88800674
     atom    6 type  1   force =     0.00000000    0.00256282   -0.00256282
     atom    7 type  1   force =     0.19187093   -0.11871922    0.05169542
     atom    8 type  1   force =     0.03368699   -0.00574218   -0.03097448
     atom    9 type  1   force =     0.00000000    0.00000000    0.00000000
     atom   10 type  1   force =     0.00000000   -0.00256282    0.00256282
     atom   11 type  1   force =     0.03368699   -0.03097448   -0.00574218
     atom   12 type  1   force =     0.19187093    0.05169542   -0.11871922
     atom   13 type  1   force =     0.00000000    0.00000000    0.00000000
     atom   14 type  1   force =    -0.00000000   18.91696017   18.91696017
     atom   15 type  1   force =     0.03368699    0.03097448    0.00574218
     atom   16 type  1   force =     0.03368699    0.00574218    0.03097448
     atom   17 type  1   force =     0.00000000    0.00000000    0.00000000
     atom   18 type  1   force =     0.00000000    0.00065868    0.00065868
     atom   19 type  1   force =    -0.19187093    0.11871922   -0.05169542
     atom   20 type  1   force =    -0.19187093   -0.05169542    0.11871922
     atom   21 type  1   force =     0.00000000    0.00000000    0.00000000
     atom   22 type  1   force =     0.00000000   -0.00682546    0.00682546
     atom   23 type  1   force =    -0.19187093   -0.11871922    0.05169542
     atom   24 type  1   force =    -0.03368699   -0.00574218   -0.03097448
     atom   25 type  1   force =     0.00000000    0.00000000    0.00000000
     atom   26 type  1   force =     0.00000000    0.00682546   -0.00682546
     atom   27 type  1   force =    -0.03368699   -0.03097448   -0.00574218
     atom   28 type  1   force =    -0.19187093    0.05169542   -0.11871922
     atom   29 type  1   force =     0.00000000    0.00000000    0.00000000
     atom   30 type  1   force =     0.00000000   -0.00065868   -0.00065868
     atom   31 type  1   force =    -0.03368699    0.03097448    0.00574218
     atom   32 type  1   force =    -0.03368699    0.00574218    0.03097448
     atom   33 type  1   force =     0.00000000    0.00000000    0.00000000

     Total force =    53.468482     Total SCF correction =     0.006724


     Computing stress (Cartesian axis) and pressure

          total   stress  (Ry/bohr**3)                   (kbar)     P=     1997.53
   0.00213412   0.00000000   0.00000000          313.94        0.00        0.00
   0.00000000   0.01930136   0.01790518            0.00     2839.33     2633.94
   0.00000000   0.01790518   0.01930136            0.00     2633.94     2839.33


     BFGS Geometry Optimization
     Energy error            =      0.0E+00
     Gradient error          =      1.9E+01
     Cell gradient error     =      1.9E-02


     number of scf cycles    =   1
     number of bfgs steps    =   0

     enthalpy new            =  -14223.8339048696 Ry

     new trust radius        =       0.5000000000 bohr
     new conv_thr            =       0.0000010000 Ry

     new unit-cell volume =   3043.37711 a.u.^3 (   450.98196 Ang^3 )
     density =     12.28079 g/cm^3

CELL_PARAMETERS (alat= 14.40074160)
   1.000997156   0.000000000   0.000000000
   0.000000000   1.009018444   0.008366088
   0.000000000   0.008366088   1.009018444

ATOMIC_POSITIONS (crystal)
Ru            0.0000000000       -0.0245510544       -0.0245510544
Ru            0.2502490164        0.2501540777       -0.0000670920
Ru            0.2502490164       -0.0000670920        0.2501540777
Ru            0.0000000000        0.1245134777        0.1245134777
Ru            0.0000000000        0.3754865223        0.3754865223
Ru            0.0000000000        0.0000033261        0.4999966739
Ru            0.2502490164        0.2498459223        0.5000670920
Ru            0.2500437201       -0.0000074524        0.7499598003
Ru            0.0000000000        0.2500000000        0.7500000000
Ru            0.0000000000        0.4999966739        0.0000033261
Ru            0.2500437201        0.7499598003       -0.0000074524
Ru            0.2502490164        0.5000670920        0.2498459223
Ru            0.0000000000        0.7500000000        0.2500000000
Ru           -0.0000000000        0.5245510544        0.5245510544
Ru            0.2500437201        0.7500401997        0.5000074524
Ru            0.2500437201        0.5000074524        0.7500401997
Ru            0.0000000000        0.7500000000        0.7500000000
Ru            0.5000000000        0.0000008549        0.0000008549
Ru            0.7497509836        0.2501540777       -0.0000670920
Ru            0.7497509836       -0.0000670920        0.2501540777
Ru            0.5000000000        0.2500000000        0.2500000000
Ru            0.5000000000       -0.0000088583        0.5000088583
Ru            0.7497509836        0.2498459223        0.5000670920
Ru            0.7499562799       -0.0000074524        0.7499598003
Ru            0.5000000000        0.2500000000        0.7500000000
Ru            0.5000000000        0.5000088583       -0.0000088583
Ru            0.7499562799        0.7499598003       -0.0000074524
Ru            0.7497509836        0.5000670920        0.2498459223
Ru            0.5000000000        0.7500000000        0.2500000000
Ru            0.5000000000        0.4999991451        0.4999991451
Ru            0.7499562799        0.7500401997        0.5000074524
Ru            0.7499562799        0.5000074524        0.7500401997
Ru            0.5000000000        0.7500000000        0.7500000000



     Writing output data file /scratch/ru1102.save/
     NEW-OLD atomic charge density approx. for the potential

     Check: negative core charge=   -0.000003
     extrapolated charge  537.87678, renormalised to  528.00000

     total cpu time spent up to now is     2077.1 secs

     Self-consistent Calculation

     iteration #  1     ecut=    71.00 Ry     beta= 0.10
     Davidson diagonalization with overlap
     c_bands:  1 eigenvalues not converged
     c_bands:  1 eigenvalues not converged
     c_bands:  1 eigenvalues not converged
     c_bands:  1 eigenvalues not converged
     c_bands:  1 eigenvalues not converged
     c_bands:  1 eigenvalues not converged
     c_bands:  1 eigenvalues not converged
     c_bands:  1 eigenvalues not converged
     c_bands:  1 eigenvalues not converged
     c_bands:  1 eigenvalues not converged
     c_bands:  1 eigenvalues not converged
     c_bands:  1 eigenvalues not converged
     c_bands:  1 eigenvalues not converged
     c_bands:  1 eigenvalues not converged
     c_bands:  1 eigenvalues not converged
     c_bands:  1 eigenvalues not converged
     c_bands:  1 eigenvalues not converged
     c_bands:  1 eigenvalues not converged
     c_bands:  1 eigenvalues not converged
     c_bands:  2 eigenvalues not converged
     c_bands:  1 eigenvalues not converged
     ethr =  1.00E-06,  avg # of iterations = 18.0

     total cpu time spent up to now is     2563.1 secs

     total energy              =  -14242.79934072 Ry
     estimated scf accuracy    <       5.04962939 Ry

     iteration #  2     ecut=    71.00 Ry     beta= 0.10
     Davidson diagonalization with overlap
     ethr =  9.56E-04,  avg # of iterations =  2.0

     total cpu time spent up to now is     2677.9 secs

     total energy              =  -14243.38139981 Ry
     estimated scf accuracy    <       1.11220277 Ry

     iteration #  3     ecut=    71.00 Ry     beta= 0.10
     Davidson diagonalization with overlap
     ethr =  2.11E-04,  avg # of iterations =  1.1

     total cpu time spent up to now is     2767.5 secs

     total energy              =  -14242.96133708 Ry
     estimated scf accuracy    <       0.81097211 Ry

     iteration #  4     ecut=    71.00 Ry     beta= 0.10
     Davidson diagonalization with overlap
     ethr =  1.54E-04,  avg # of iterations =  2.3

     total cpu time spent up to now is     2868.7 secs

     total energy              =  -14242.87434688 Ry
     estimated scf accuracy    <       0.22382099 Ry

     iteration #  5     ecut=    71.00 Ry     beta= 0.10
     Davidson diagonalization with overlap
     ethr =  4.24E-05,  avg # of iterations =  6.0

     total cpu time spent up to now is     2987.0 secs

     total energy              =  -14242.89551460 Ry
     estimated scf accuracy    <       0.03711103 Ry

     iteration #  6     ecut=    71.00 Ry     beta= 0.10
     Davidson diagonalization with overlap
     ethr =  7.03E-06,  avg # of iterations =  5.1

     total cpu time spent up to now is     3096.1 secs

     total energy              =  -14242.89292536 Ry
     estimated scf accuracy    <       0.01660959 Ry

     iteration #  7     ecut=    71.00 Ry     beta= 0.10
     Davidson diagonalization with overlap
     ethr =  3.15E-06,  avg # of iterations =  4.0

     total cpu time spent up to now is     3202.6 secs

     total energy              =  -14242.89229032 Ry
     estimated scf accuracy    <       0.00531295 Ry

     iteration #  8     ecut=    71.00 Ry     beta= 0.10
     Davidson diagonalization with overlap
     c_bands:  1 eigenvalues not converged
     ethr =  1.01E-06,  avg # of iterations =  2.3

     total cpu time spent up to now is     3305.7 secs

     total energy              =  -14242.89243450 Ry
     estimated scf accuracy    <       0.00235000 Ry

     iteration #  9     ecut=    71.00 Ry     beta= 0.10
     Davidson diagonalization with overlap
     ethr =  4.45E-07,  avg # of iterations =  2.0

     total cpu time spent up to now is     3404.4 secs

     total energy              =  -14242.89245568 Ry
     estimated scf accuracy    <       0.00075144 Ry

     iteration # 10     ecut=    71.00 Ry     beta= 0.10
     Davidson diagonalization with overlap
     ethr =  1.42E-07,  avg # of iterations =  2.0

     total cpu time spent up to now is     3505.7 secs

     total energy              =  -14242.89239018 Ry
     estimated scf accuracy    <       0.00029855 Ry

     iteration # 11     ecut=    71.00 Ry     beta= 0.10
     Davidson diagonalization with overlap
     ethr =  5.65E-08,  avg # of iterations =  3.0

     total cpu time spent up to now is     3613.6 secs

     total energy              =  -14242.89237151 Ry
     estimated scf accuracy    <       0.00015732 Ry

     iteration # 12     ecut=    71.00 Ry     beta= 0.10
     Davidson diagonalization with overlap
     ethr =  2.98E-08,  avg # of iterations =  2.0

     total cpu time spent up to now is     3729.7 secs

     total energy              =  -14242.89239160 Ry
     estimated scf accuracy    <       0.00002401 Ry

     iteration # 13     ecut=    71.00 Ry     beta= 0.10
     Davidson diagonalization with overlap
     ethr =  4.55E-09,  avg # of iterations =  2.9

     total cpu time spent up to now is     3838.3 secs

     total energy              =  -14242.89238754 Ry
     estimated scf accuracy    <       0.00001813 Ry

     iteration # 14     ecut=    71.00 Ry     beta= 0.10
     Davidson diagonalization with overlap
     ethr =  3.43E-09,  avg # of iterations =  2.0

     total cpu time spent up to now is     3955.0 secs

     total energy              =  -14242.89238606 Ry
     estimated scf accuracy    <       0.00000864 Ry

     iteration # 15     ecut=    71.00 Ry     beta= 0.10
     Davidson diagonalization with overlap
     ethr =  1.64E-09,  avg # of iterations =  3.0

     total cpu time spent up to now is     4070.4 secs

     End of self-consistent calculation

     Number of k-points >= 100: set verbosity='high' to print the bands.

     the Fermi energy is    23.5917 ev

!    total energy              =  -14242.89238750 Ry

     total all-electron energy =   -299049.794925 Ry
     estimated scf accuracy    <       0.00000087 Ry
     smearing contrib. (-TS)   =       0.01459036 Ry
     internal energy E=F+TS    =  -14242.90697786 Ry

     The total energy is F=E-TS. E is the sum of the following terms:
     one-electron contribution =   -1114.71984295 Ry
     hartree contribution      =     993.67812657 Ry
     xc contribution           =    -959.62846955 Ry
     ewald contribution        =   -5335.49956212 Ry
     one-center paw contrib.   =   -7826.73722980 Ry

     convergence has been achieved in  15 iterations

     Forces acting on atoms (cartesian axes, Ry/au):

     atom    1 type  1   force =    -0.00000000   -1.26985969   -1.26985969
     atom    2 type  1   force =     0.15758832    0.08417001   -0.05207438
     atom    3 type  1   force =     0.15758832   -0.05207438    0.08417001
     atom    4 type  1   force =     0.00000000    1.29764773    1.29764773
     atom    5 type  1   force =     0.00000000   -1.29764773   -1.29764773
     atom    6 type  1   force =    -0.00000000    0.00872850   -0.00872850
     atom    7 type  1   force =     0.15758832   -0.08417001    0.05207438
     atom    8 type  1   force =     0.03124618   -0.00037891   -0.02121683
     atom    9 type  1   force =     0.00000000    0.00000000    0.00000000
     atom   10 type  1   force =     0.00000000   -0.00872850    0.00872850
     atom   11 type  1   force =     0.03124618   -0.02121683   -0.00037891
     atom   12 type  1   force =     0.15758832    0.05207438   -0.08417001
     atom   13 type  1   force =    -0.00000000    0.00000000    0.00000000
     atom   14 type  1   force =     0.00000000    1.26985969    1.26985969
     atom   15 type  1   force =     0.03124618    0.02121683    0.00037891
     atom   16 type  1   force =     0.03124618    0.00037891    0.02121683
     atom   17 type  1   force =     0.00000000    0.00000000    0.00000000
     atom   18 type  1   force =     0.00000000    0.00063492    0.00063492
     atom   19 type  1   force =    -0.15758832    0.08417001   -0.05207438
     atom   20 type  1   force =    -0.15758832   -0.05207438    0.08417001
     atom   21 type  1   force =     0.00000000    0.00000000    0.00000000
     atom   22 type  1   force =     0.00000000    0.00712272   -0.00712272
     atom   23 type  1   force =    -0.15758832   -0.08417001    0.05207438
     atom   24 type  1   force =    -0.03124618   -0.00037891   -0.02121683
     atom   25 type  1   force =    -0.00000000    0.00000000    0.00000000
     atom   26 type  1   force =     0.00000000   -0.00712272    0.00712272
     atom   27 type  1   force =    -0.03124618   -0.02121683   -0.00037891
     atom   28 type  1   force =    -0.15758832    0.05207438   -0.08417001
     atom   29 type  1   force =     0.00000000    0.00000000    0.00000000
     atom   30 type  1   force =     0.00000000   -0.00063492   -0.00063492
     atom   31 type  1   force =    -0.03124618    0.02121683    0.00037891
     atom   32 type  1   force =    -0.03124618    0.00037891    0.02121683
     atom   33 type  1   force =     0.00000000    0.00000000    0.00000000

     Total force =     3.670790     Total SCF correction =     0.004519


     Computing stress (Cartesian axis) and pressure

          total   stress  (Ry/bohr**3)                   (kbar)     P=      299.68
   0.00146343   0.00000000   0.00000000          215.28        0.00        0.00
   0.00000000   0.00232409   0.00159027            0.00      341.89      233.94
   0.00000000   0.00159027   0.00232409            0.00      233.94      341.89

     Energy error            =      1.9E+01
     Gradient error          =      1.3E+00
     Cell gradient error     =      2.3E-03


     number of scf cycles    =   2
     number of bfgs steps    =   1

     enthalpy old            =  -14223.8339048696 Ry
     enthalpy new            =  -14242.8923875030 Ry

     CASE: enthalpy_new < enthalpy_old

     new trust radius        =       0.3980206718 bohr
     new conv_thr            =       0.0000010000 Ry

     new unit-cell volume =   3322.98949 a.u.^3 (   492.41624 Ang^3 )
     density =     11.24742 g/cm^3

CELL_PARAMETERS (alat= 14.40074160)
   1.037107414   0.000000000   0.000000000
   0.000000000   1.035951391   0.017790561
   0.000000000   0.017790561   1.035951391

ATOMIC_POSITIONS (crystal)
Ru           -0.0000000000       -0.0234830088       -0.0234830088
Ru            0.2610447999        0.2558543683       -0.0036735080
Ru            0.2610447999       -0.0036735080        0.2558543683
Ru            0.0000000000        0.1257070241        0.1257070241
Ru            0.0000000000        0.3742929759        0.3742929759
Ru           -0.0000000000        0.0006426626        0.4993573374
Ru            0.2610447999        0.2441456317        0.5036735080
Ru            0.2522067547       -0.0000196548        0.7485198904
Ru            0.0000000000        0.2500000000        0.7500000000
Ru            0.0000000000        0.4993573374        0.0006426626
Ru            0.2522067547        0.7485198904       -0.0000196548
Ru            0.2610447999        0.5036735080        0.2441456317
Ru           -0.0000000000        0.7500000000        0.2500000000
Ru            0.0000000000        0.5234830088        0.5234830088
Ru            0.2522067547        0.7514801096        0.5000196548
Ru            0.2522067547        0.5000196548        0.7514801096
Ru            0.0000000000        0.7500000000        0.7500000000
Ru            0.5000000000        0.0000457182        0.0000457182
Ru            0.7389552001        0.2558543683       -0.0036735080
Ru            0.7389552001       -0.0036735080        0.2558543683
Ru            0.5000000000        0.2500000000        0.2500000000
Ru            0.5000000000        0.0005588612        0.4994411388
Ru            0.7389552001        0.2441456317        0.5036735080
Ru            0.7477932453       -0.0000196548        0.7485198904
Ru            0.5000000000        0.2500000000        0.7500000000
Ru            0.5000000000        0.4994411388        0.0005588612
Ru            0.7477932453        0.7485198904       -0.0000196548
Ru            0.7389552001        0.5036735080        0.2441456317
Ru            0.5000000000        0.7500000000        0.2500000000
Ru            0.5000000000        0.4999542818        0.4999542818
Ru            0.7477932453        0.7514801096        0.5000196548
Ru            0.7477932453        0.5000196548        0.7514801096
Ru            0.5000000000        0.7500000000        0.7500000000



     Writing output data file /scratch/ru1102.save/
     NEW-OLD atomic charge density approx. for the potential

     Check: negative core charge=   -0.000006
     extrapolated charge  572.42670, renormalised to  528.00000

     total cpu time spent up to now is     4218.0 secs

     Self-consistent Calculation

     iteration #  1     ecut=    71.00 Ry     beta= 0.10
     Davidson diagonalization with overlap
     c_bands:  1 eigenvalues not converged
     c_bands:  2 eigenvalues not converged
     c_bands:  2 eigenvalues not converged
     c_bands:  1 eigenvalues not converged
     c_bands:  1 eigenvalues not converged
     c_bands:  1 eigenvalues not converged
     c_bands:  1 eigenvalues not converged
     c_bands:  1 eigenvalues not converged
     c_bands:  1 eigenvalues not converged
     c_bands:  1 eigenvalues not converged
     c_bands:  1 eigenvalues not converged
     c_bands:  1 eigenvalues not converged
     c_bands:  1 eigenvalues not converged
     c_bands:  1 eigenvalues not converged
     c_bands:  1 eigenvalues not converged
     c_bands:  1 eigenvalues not converged
     c_bands:  1 eigenvalues not converged
     c_bands:  1 eigenvalues not converged
     c_bands:  1 eigenvalues not converged
     c_bands:  1 eigenvalues not converged
     c_bands:  1 eigenvalues not converged
     c_bands:  1 eigenvalues not converged
     c_bands:  2 eigenvalues not converged
     c_bands:  1 eigenvalues not converged
     c_bands:  1 eigenvalues not converged
     c_bands:  1 eigenvalues not converged
     c_bands:  1 eigenvalues not converged
     c_bands:  1 eigenvalues not converged
     c_bands:  3 eigenvalues not converged
     c_bands:  1 eigenvalues not converged
     c_bands:  1 eigenvalues not converged
     c_bands:  2 eigenvalues not converged
     c_bands:  1 eigenvalues not converged
     c_bands:  1 eigenvalues not converged
     c_bands:  1 eigenvalues not converged
     c_bands:  1 eigenvalues not converged
     c_bands:  2 eigenvalues not converged
     c_bands:  1 eigenvalues not converged
     c_bands:  2 eigenvalues not converged
     c_bands:  2 eigenvalues not converged
     c_bands:  1 eigenvalues not converged
     c_bands:  1 eigenvalues not converged
     c_bands:  1 eigenvalues not converged
     c_bands:  1 eigenvalues not converged
     c_bands:  1 eigenvalues not converged
     c_bands:  1 eigenvalues not converged
     c_bands:  1 eigenvalues not converged
     c_bands:  1 eigenvalues not converged
     c_bands:  1 eigenvalues not converged
     ethr =  1.00E-06,  avg # of iterations = 17.6

     total cpu time spent up to now is     4709.3 secs

     total energy              =  -14231.76555405 Ry
     estimated scf accuracy    <      37.36804297 Ry

     iteration #  2     ecut=    71.00 Ry     beta= 0.10
     Davidson diagonalization with overlap
     ethr =  7.08E-03,  avg # of iterations =  2.0

     total cpu time spent up to now is     4835.3 secs

     total energy              =  -14244.13285013 Ry
     estimated scf accuracy    <       8.58048320 Ry

     iteration #  3     ecut=    71.00 Ry     beta= 0.10
     Davidson diagonalization with overlap
     ethr =  1.63E-03,  avg # of iterations =  2.6

     total cpu time spent up to now is     4933.4 secs

     total energy              =  -14243.66477175 Ry
     estimated scf accuracy    <       4.21913192 Ry

     iteration #  4     ecut=    71.00 Ry     beta= 0.10
     Davidson diagonalization with overlap
     ethr =  7.99E-04,  avg # of iterations =  5.2

     total cpu time spent up to now is     5041.2 secs

     total energy              =  -14243.41736887 Ry
     estimated scf accuracy    <       1.01141021 Ry

     iteration #  5     ecut=    71.00 Ry     beta= 0.10
     Davidson diagonalization with overlap
     ethr =  1.92E-04,  avg # of iterations =  4.9

     total cpu time spent up to now is     5157.3 secs

     total energy              =  -14243.39322920 Ry
     estimated scf accuracy    <       0.26237379 Ry

     iteration #  6     ecut=    71.00 Ry     beta= 0.10
     Davidson diagonalization with overlap
     ethr =  4.97E-05,  avg # of iterations =  2.8

     total cpu time spent up to now is     5277.6 secs

     total energy              =  -14243.43501812 Ry
     estimated scf accuracy    <       0.15449411 Ry

     iteration #  7     ecut=    71.00 Ry     beta= 0.10
     Davidson diagonalization with overlap
     ethr =  2.93E-05,  avg # of iterations =  2.0

     total cpu time spent up to now is     5377.4 secs

     total energy              =  -14243.39956486 Ry
     estimated scf accuracy    <       0.09944639 Ry

     iteration #  8     ecut=    71.00 Ry     beta= 0.10
     Davidson diagonalization with overlap
     ethr =  1.88E-05,  avg # of iterations =  2.3

     total cpu time spent up to now is     5490.5 secs

     total energy              =  -14243.40006110 Ry
     estimated scf accuracy    <       0.02754004 Ry

     iteration #  9     ecut=    71.00 Ry     beta= 0.10
     Davidson diagonalization with overlap
     c_bands:  1 eigenvalues not converged
     ethr =  5.22E-06,  avg # of iterations =  5.3

     total cpu time spent up to now is     5601.3 secs

     total energy              =  -14243.40044535 Ry
     estimated scf accuracy    <       0.00599574 Ry

     iteration # 10     ecut=    71.00 Ry     beta= 0.10
     Davidson diagonalization with overlap
     ethr =  1.14E-06,  avg # of iterations =  4.1

     total cpu time spent up to now is     5707.0 secs

     total energy              =  -14243.39875309 Ry
     estimated scf accuracy    <       0.00205556 Ry

     iteration # 11     ecut=    71.00 Ry     beta= 0.10
     Davidson diagonalization with overlap
     ethr =  3.89E-07,  avg # of iterations =  3.2

     total cpu time spent up to now is     5851.1 secs

     total energy              =  -14243.39911532 Ry
     estimated scf accuracy    <       0.00315723 Ry

     iteration # 12     ecut=    71.00 Ry     beta= 0.10
     Davidson diagonalization with overlap
     ethr =  3.89E-07,  avg # of iterations =  2.0

     total cpu time spent up to now is     5965.8 secs

     total energy              =  -14243.39930444 Ry
     estimated scf accuracy    <       0.00034182 Ry

     iteration # 13     ecut=    71.00 Ry     beta= 0.10
     Davidson diagonalization with overlap
     ethr =  6.47E-08,  avg # of iterations =  2.3

     total cpu time spent up to now is     6086.4 secs

     total energy              =  -14243.39934933 Ry
     estimated scf accuracy    <       0.00015073 Ry

     iteration # 14     ecut=    71.00 Ry     beta= 0.10
     Davidson diagonalization with overlap
     ethr =  2.85E-08,  avg # of iterations =  2.0

     total cpu time spent up to now is     6194.8 secs

     total energy              =  -14243.39935114 Ry
     estimated scf accuracy    <       0.00003747 Ry

     iteration # 15     ecut=    71.00 Ry     beta= 0.10
     Davidson diagonalization with overlap
     ethr =  7.10E-09,  avg # of iterations =  2.1

     total cpu time spent up to now is     6309.0 secs

     total energy              =  -14243.39935318 Ry
     estimated scf accuracy    <       0.00003574 Ry

     iteration # 16     ecut=    71.00 Ry     beta= 0.10
     Davidson diagonalization with overlap
     ethr =  6.77E-09,  avg # of iterations =  2.0

     total cpu time spent up to now is     6407.1 secs

     total energy              =  -14243.39935564 Ry
     estimated scf accuracy    <       0.00000301 Ry

     iteration # 17     ecut=    71.00 Ry     beta= 0.10
     Davidson diagonalization with overlap
     ethr =  5.71E-10,  avg # of iterations =  2.0

     total cpu time spent up to now is     6507.7 secs

     total energy              =  -14243.39935600 Ry
     estimated scf accuracy    <       0.00000111 Ry

     iteration # 18     ecut=    71.00 Ry     beta= 0.10
     Davidson diagonalization with overlap
     ethr =  2.09E-10,  avg # of iterations =  2.0

     total cpu time spent up to now is     6620.3 secs

     End of self-consistent calculation

     Number of k-points >= 100: set verbosity='high' to print the bands.

     the Fermi energy is    21.1622 ev

!    total energy              =  -14243.39935704 Ry

     total all-electron energy =   -299050.301894 Ry
     estimated scf accuracy    <       0.00000063 Ry
     smearing contrib. (-TS)   =       0.00574815 Ry
     internal energy E=F+TS    =  -14243.40510519 Ry

     The total energy is F=E-TS. E is the sum of the following terms:
     one-electron contribution =   -1317.88310501 Ry
     hartree contribution      =    1050.81498700 Ry
     xc contribution           =    -955.98968724 Ry
     ewald contribution        =   -5193.73823136 Ry
     one-center paw contrib.   =   -7826.60906857 Ry

     convergence has been achieved in  18 iterations

     Forces acting on atoms (cartesian axes, Ry/au):

     atom    1 type  1   force =    -0.00000000   -0.93769477   -0.93769477
     atom    2 type  1   force =     0.06904255    0.03362420   -0.02164339
     atom    3 type  1   force =     0.06904255   -0.02164339    0.03362420
     atom    4 type  1   force =     0.00000000    0.94119533    0.94119533
     atom    5 type  1   force =     0.00000000   -0.94119533   -0.94119533
     atom    6 type  1   force =    -0.00000000    0.00908385   -0.00908385
     atom    7 type  1   force =     0.06904255   -0.03362420    0.02164339
     atom    8 type  1   force =     0.00733701   -0.00072387   -0.00904400
     atom    9 type  1   force =     0.00000000    0.00000000    0.00000000
     atom   10 type  1   force =    -0.00000000   -0.00908385    0.00908385
     atom   11 type  1   force =     0.00733701   -0.00904400   -0.00072387
     atom   12 type  1   force =     0.06904255    0.02164339   -0.03362420
     atom   13 type  1   force =     0.00000000    0.00000000    0.00000000
     atom   14 type  1   force =     0.00000000    0.93769477    0.93769477
     atom   15 type  1   force =     0.00733701    0.00904400    0.00072387
     atom   16 type  1   force =     0.00733701    0.00072387    0.00904400
     atom   17 type  1   force =     0.00000000    0.00000000    0.00000000
     atom   18 type  1   force =    -0.00000000    0.00223928    0.00223928
     atom   19 type  1   force =    -0.06904255    0.03362420   -0.02164339
     atom   20 type  1   force =    -0.06904255   -0.02164339    0.03362420
     atom   21 type  1   force =     0.00000000    0.00000000    0.00000000
     atom   22 type  1   force =     0.00000000    0.00374515   -0.00374515
     atom   23 type  1   force =    -0.06904255   -0.03362420    0.02164339
     atom   24 type  1   force =    -0.00733701   -0.00072387   -0.00904400
     atom   25 type  1   force =     0.00000000    0.00000000    0.00000000
     atom   26 type  1   force =     0.00000000   -0.00374515    0.00374515
     atom   27 type  1   force =    -0.00733701   -0.00904400   -0.00072387
     atom   28 type  1   force =    -0.06904255    0.02164339   -0.03362420
     atom   29 type  1   force =     0.00000000    0.00000000    0.00000000
     atom   30 type  1   force =    -0.00000000   -0.00223928   -0.00223928
     atom   31 type  1   force =    -0.00733701    0.00904400    0.00072387
     atom   32 type  1   force =    -0.00733701    0.00072387    0.00904400
     atom   33 type  1   force =     0.00000000    0.00000000    0.00000000

     Total force =     2.667003     Total SCF correction =     0.004068


     Computing stress (Cartesian axis) and pressure

          total   stress  (Ry/bohr**3)                   (kbar)     P=      -12.71
  -0.00065753   0.00000000   0.00000000          -96.73        0.00        0.00
   0.00000000   0.00019916   0.00099639            0.00       29.30      146.57
   0.00000000   0.00099639   0.00019916            0.00      146.57       29.30

     Energy error            =      5.1E-01
     Gradient error          =      9.4E-01
     Cell gradient error     =      1.0E-03


     number of scf cycles    =   3
     number of bfgs steps    =   2

     enthalpy old            =  -14242.8923875030 Ry
     enthalpy new            =  -14243.3993570401 Ry

     CASE: enthalpy_new < enthalpy_old

     new trust radius        =       0.1910265155 bohr
     new conv_thr            =       0.0000010000 Ry

     new unit-cell volume =   3253.40908 a.u.^3 (   482.10549 Ang^3 )
     density =     11.48797 g/cm^3

CELL_PARAMETERS (alat= 14.40074160)
   1.032752733   0.000000000   0.000000000
   0.000000000   1.027428216   0.027675326
   0.000000000   0.027675326   1.027428216

ATOMIC_POSITIONS (crystal)
Ru           -0.0000000000       -0.0251941175       -0.0251941175
Ru            0.2720981661        0.2613398408       -0.0072446743
Ru            0.2720981661       -0.0072446743        0.2613398408
Ru            0.0000000000        0.1290887469        0.1290887469
Ru            0.0000000000        0.3709112531        0.3709112531
Ru           -0.0000000000        0.0017482157        0.4982517843
Ru            0.2720981661        0.2386601592        0.5072446743
Ru            0.2538843870       -0.0000775643        0.7470821360
Ru            0.0000000000        0.2500000000        0.7500000000
Ru           -0.0000000000        0.4982517843        0.0017482157
Ru            0.2538843870        0.7470821360       -0.0000775643
Ru            0.2720981661        0.5072446743        0.2386601592
Ru           -0.0000000000        0.7500000000        0.2500000000
Ru            0.0000000000        0.5251941175        0.5251941175
Ru            0.2538843870        0.7529178640        0.5000775643
Ru            0.2538843870        0.5000775643        0.7529178640
Ru            0.0000000000        0.7500000000        0.7500000000
Ru            0.5000000000        0.0002627022        0.0002627022
Ru            0.7279018339        0.2613398408       -0.0072446743
Ru            0.7279018339       -0.0072446743        0.2613398408
Ru            0.5000000000        0.2500000000        0.2500000000
Ru            0.5000000000        0.0012150547        0.4987849453
Ru            0.7279018339        0.2386601592        0.5072446743
Ru            0.7461156130       -0.0000775643        0.7470821360
Ru            0.5000000000        0.2500000000        0.7500000000
Ru            0.5000000000        0.4987849453        0.0012150547
Ru            0.7461156130        0.7470821360       -0.0000775643
Ru            0.7279018339        0.5072446743        0.2386601592
Ru            0.5000000000        0.7500000000        0.2500000000
Ru            0.5000000000        0.4997372978        0.4997372978
Ru            0.7461156130        0.7529178640        0.5000775643
Ru            0.7461156130        0.5000775643        0.7529178640
Ru            0.5000000000        0.7500000000        0.7500000000



     Writing output data file /scratch/ru1102.save/
     NEW-OLD atomic charge density approx. for the potential

     Check: negative core charge=   -0.000005
     extrapolated charge  516.70815, renormalised to  528.00000

     total cpu time spent up to now is     6767.4 secs

     Self-consistent Calculation

     iteration #  1     ecut=    71.00 Ry     beta= 0.10
     Davidson diagonalization with overlap
     ethr =  1.00E-06,  avg # of iterations = 12.5

     total cpu time spent up to now is     7190.8 secs

     total energy              =  -14242.92473530 Ry
     estimated scf accuracy    <       1.58108165 Ry

     iteration #  2     ecut=    71.00 Ry     beta= 0.10
     Davidson diagonalization with overlap
     ethr =  2.99E-04,  avg # of iterations =  2.1

     total cpu time spent up to now is     7320.8 secs

     total energy              =  -14243.82337655 Ry
     estimated scf accuracy    <       0.36336342 Ry

     iteration #  3     ecut=    71.00 Ry     beta= 0.10
     Davidson diagonalization with overlap
     ethr =  6.88E-05,  avg # of iterations =  1.2

     total cpu time spent up to now is     7409.2 secs

     total energy              =  -14243.79052072 Ry
     estimated scf accuracy    <       0.21570012 Ry

     iteration #  4     ecut=    71.00 Ry     beta= 0.10
     Davidson diagonalization with overlap
     ethr =  4.09E-05,  avg # of iterations =  1.2

     total cpu time spent up to now is     7498.3 secs

     total energy              =  -14243.76740351 Ry
     estimated scf accuracy    <       0.04486723 Ry

     iteration #  5     ecut=    71.00 Ry     beta= 0.10
     Davidson diagonalization with overlap
     ethr =  8.50E-06,  avg # of iterations =  3.1

     total cpu time spent up to now is     7604.6 secs

     total energy              =  -14243.76384145 Ry
     estimated scf accuracy    <       0.00957767 Ry

     iteration #  6     ecut=    71.00 Ry     beta= 0.10
     Davidson diagonalization with overlap
     ethr =  1.81E-06,  avg # of iterations =  4.6

     total cpu time spent up to now is     7731.2 secs

     total energy              =  -14243.76560296 Ry
     estimated scf accuracy    <       0.00456502 Ry

     iteration #  7     ecut=    71.00 Ry     beta= 0.10
     Davidson diagonalization with overlap
     ethr =  8.65E-07,  avg # of iterations =  2.0

     total cpu time spent up to now is     7832.1 secs

     total energy              =  -14243.76552078 Ry
     estimated scf accuracy    <       0.00338772 Ry

     iteration #  8     ecut=    71.00 Ry     beta= 0.10
     Davidson diagonalization with overlap
     ethr =  6.42E-07,  avg # of iterations =  1.0

     total cpu time spent up to now is     7919.4 secs

     total energy              =  -14243.76382322 Ry
     estimated scf accuracy    <       0.00251086 Ry

     iteration #  9     ecut=    71.00 Ry     beta= 0.10
     Davidson diagonalization with overlap
     ethr =  4.76E-07,  avg # of iterations =  2.3

     total cpu time spent up to now is     8039.7 secs

     total energy              =  -14243.76430785 Ry
     estimated scf accuracy    <       0.00020580 Ry

     iteration # 10     ecut=    71.00 Ry     beta= 0.10
     Davidson diagonalization with overlap
     ethr =  3.90E-08,  avg # of iterations =  2.2

     total cpu time spent up to now is     8151.2 secs

     total energy              =  -14243.76428520 Ry
     estimated scf accuracy    <       0.00013238 Ry

     iteration # 11     ecut=    71.00 Ry     beta= 0.10
     Davidson diagonalization with overlap
     ethr =  2.51E-08,  avg # of iterations =  2.5

     total cpu time spent up to now is     8286.6 secs

     total energy              =  -14243.76428558 Ry
     estimated scf accuracy    <       0.00021779 Ry

     iteration # 12     ecut=    71.00 Ry     beta= 0.10
     Davidson diagonalization with overlap
     ethr =  2.51E-08,  avg # of iterations =  1.0

     total cpu time spent up to now is     8374.0 secs

     total energy              =  -14243.76420895 Ry
     estimated scf accuracy    <       0.00013154 Ry

     iteration # 13     ecut=    71.00 Ry     beta= 0.10
     Davidson diagonalization with overlap
     ethr =  2.49E-08,  avg # of iterations =  2.0

     total cpu time spent up to now is     8489.2 secs

     total energy              =  -14243.76423258 Ry
     estimated scf accuracy    <       0.00000381 Ry

     iteration # 14     ecut=    71.00 Ry     beta= 0.10
     Davidson diagonalization with overlap
     ethr =  7.22E-10,  avg # of iterations =  2.6

     total cpu time spent up to now is     8622.1 secs

     total energy              =  -14243.76423318 Ry
     estimated scf accuracy    <       0.00000116 Ry

     iteration # 15     ecut=    71.00 Ry     beta= 0.10
     Davidson diagonalization with overlap
     ethr =  2.20E-10,  avg # of iterations =  2.0

     total cpu time spent up to now is     8725.9 secs

     End of self-consistent calculation

     Number of k-points >= 100: set verbosity='high' to print the bands.

     the Fermi energy is    21.7429 ev

!    total energy              =  -14243.76423348 Ry

     total all-electron energy =   -299050.666771 Ry
     estimated scf accuracy    <       0.00000065 Ry
     smearing contrib. (-TS)   =       0.00079059 Ry
     internal energy E=F+TS    =  -14243.76502406 Ry

     The total energy is F=E-TS. E is the sum of the following terms:
     one-electron contribution =   -1257.15468114 Ry
     hartree contribution      =    1031.17717037 Ry
     xc contribution           =    -956.58042913 Ry
     ewald contribution        =   -5234.58676489 Ry
     one-center paw contrib.   =   -7826.62031928 Ry

     convergence has been achieved in  15 iterations

     Forces acting on atoms (cartesian axes, Ry/au):

     atom    1 type  1   force =     0.00000000   -0.69655017   -0.69655017
     atom    2 type  1   force =     0.00981031   -0.00071833    0.00047834
     atom    3 type  1   force =     0.00981031    0.00047834   -0.00071833
     atom    4 type  1   force =    -0.00000000    0.70397727    0.70397727
     atom    5 type  1   force =    -0.00000000   -0.70397727   -0.70397727
     atom    6 type  1   force =     0.00000000    0.01636692   -0.01636692
     atom    7 type  1   force =     0.00981031    0.00071833   -0.00047834
     atom    8 type  1   force =    -0.00698311   -0.00406774    0.00205093
     atom    9 type  1   force =     0.00000000    0.00000000    0.00000000
     atom   10 type  1   force =     0.00000000   -0.01636692    0.01636692
     atom   11 type  1   force =    -0.00698311    0.00205093   -0.00406774
     atom   12 type  1   force =     0.00981031   -0.00047834    0.00071833
     atom   13 type  1   force =     0.00000000    0.00000000    0.00000000
     atom   14 type  1   force =     0.00000000    0.69655017    0.69655017
     atom   15 type  1   force =    -0.00698311   -0.00205093    0.00406774
     atom   16 type  1   force =    -0.00698311    0.00406774   -0.00205093
     atom   17 type  1   force =     0.00000000    0.00000000    0.00000000
     atom   18 type  1   force =    -0.00000000    0.00274616    0.00274616
     atom   19 type  1   force =    -0.00981031   -0.00071833    0.00047834
     atom   20 type  1   force =    -0.00981031    0.00047834   -0.00071833
     atom   21 type  1   force =     0.00000000    0.00000000    0.00000000
     atom   22 type  1   force =     0.00000000   -0.00682594    0.00682594
     atom   23 type  1   force =    -0.00981031    0.00071833   -0.00047834
     atom   24 type  1   force =     0.00698311   -0.00406774    0.00205093
     atom   25 type  1   force =     0.00000000    0.00000000    0.00000000
     atom   26 type  1   force =     0.00000000    0.00682594   -0.00682594
     atom   27 type  1   force =     0.00698311    0.00205093   -0.00406774
     atom   28 type  1   force =    -0.00981031   -0.00047834    0.00071833
     atom   29 type  1   force =     0.00000000    0.00000000    0.00000000
     atom   30 type  1   force =     0.00000000   -0.00274616   -0.00274616
     atom   31 type  1   force =     0.00698311   -0.00205093    0.00406774
     atom   32 type  1   force =     0.00698311    0.00406774   -0.00205093
     atom   33 type  1   force =     0.00000000    0.00000000    0.00000000

     Total force =     1.981334     Total SCF correction =     0.003065


     Computing stress (Cartesian axis) and pressure

          total   stress  (Ry/bohr**3)                   (kbar)     P=       13.00
  -0.00043356   0.00000000   0.00000000          -63.78        0.00        0.00
   0.00000000   0.00034937   0.00050536            0.00       51.39       74.34
   0.00000000   0.00050536   0.00034937            0.00       74.34       51.39

     Energy error            =      3.6E-01
     Gradient error          =      7.0E-01
     Cell gradient error     =      5.1E-04


     number of scf cycles    =   4
     number of bfgs steps    =   3

     enthalpy old            =  -14243.3993570401 Ry
     enthalpy new            =  -14243.7642334756 Ry

     CASE: enthalpy_new < enthalpy_old

     new trust radius        =       0.1765337320 bohr
     new conv_thr            =       0.0000010000 Ry

     new unit-cell volume =   3174.80056 a.u.^3 (   470.45691 Ang^3 )
     density =     11.77241 g/cm^3

CELL_PARAMETERS (alat= 14.40074160)
   1.023214289   0.000000000   0.000000000
   0.000000000   1.019698282   0.028863038
   0.000000000   0.028863038   1.019698282

ATOMIC_POSITIONS (crystal)
Ru           -0.0000000000       -0.0280155093       -0.0280155093
Ru            0.2827348740        0.2658533046       -0.0102644071
Ru            0.2827348740       -0.0102644071        0.2658533046
Ru            0.0000000000        0.1350880923        0.1350880923
Ru            0.0000000000        0.3649119077        0.3649119077
Ru           -0.0000000000        0.0048654756        0.4951345244
Ru            0.2827348740        0.2341466954        0.5102644071
Ru            0.2545063645       -0.0006680152        0.7461877841
Ru            0.0000000000        0.2500000000        0.7500000000
Ru           -0.0000000000        0.4951345244        0.0048654756
Ru            0.2545063645        0.7461877841       -0.0006680152
Ru            0.2827348740        0.5102644071        0.2341466954
Ru           -0.0000000000        0.7500000000        0.2500000000
Ru            0.0000000000        0.5280155093        0.5280155093
Ru            0.2545063645        0.7538122159        0.5006680152
Ru            0.2545063645        0.5006680152        0.7538122159
Ru            0.0000000000        0.7500000000        0.7500000000
Ru            0.5000000000        0.0007839091        0.0007839091
Ru            0.7172651260        0.2658533046       -0.0102644071
Ru            0.7172651260       -0.0102644071        0.2658533046
Ru            0.5000000000        0.2500000000        0.2500000000
Ru            0.5000000000        0.0008375481        0.4991624519
Ru            0.7172651260        0.2341466954        0.5102644071
Ru            0.7454936355       -0.0006680152        0.7461877841
Ru            0.5000000000        0.2500000000        0.7500000000
Ru            0.5000000000        0.4991624519        0.0008375481
Ru            0.7454936355        0.7461877841       -0.0006680152
Ru            0.7172651260        0.5102644071        0.2341466954
Ru            0.5000000000        0.7500000000        0.2500000000
Ru            0.5000000000        0.4992160909        0.4992160909
Ru            0.7454936355        0.7538122159        0.5006680152
Ru            0.7454936355        0.5006680152        0.7538122159
Ru            0.5000000000        0.7500000000        0.7500000000



     Writing output data file /scratch/ru1102.save/
     NEW-OLD atomic charge density approx. for the potential

     Check: negative core charge=   -0.000005
     extrapolated charge  514.92717, renormalised to  528.00000

     total cpu time spent up to now is     8873.8 secs

     Self-consistent Calculation

     iteration #  1     ecut=    71.00 Ry     beta= 0.10
     Davidson diagonalization with overlap
     c_bands:  1 eigenvalues not converged
     ethr =  1.00E-06,  avg # of iterations = 12.5

     total cpu time spent up to now is     9290.9 secs

     total energy              =  -14242.82184093 Ry
     estimated scf accuracy    <       2.70373613 Ry

     iteration #  2     ecut=    71.00 Ry     beta= 0.10
     Davidson diagonalization with overlap
     ethr =  5.12E-04,  avg # of iterations =  2.0

     total cpu time spent up to now is     9418.9 secs

     total energy              =  -14244.09375322 Ry
     estimated scf accuracy    <       1.04561728 Ry

     iteration #  3     ecut=    71.00 Ry     beta= 0.10
     Davidson diagonalization with overlap
     ethr =  1.98E-04,  avg # of iterations =  1.0

     total cpu time spent up to now is     9506.3 secs

     total energy              =  -14244.04266941 Ry
     estimated scf accuracy    <       0.65208629 Ry

     iteration #  4     ecut=    71.00 Ry     beta= 0.10
     Davidson diagonalization with overlap
     ethr =  1.24E-04,  avg # of iterations =  1.1

     total cpu time spent up to now is     9594.8 secs

     total energy              =  -14244.01447640 Ry
     estimated scf accuracy    <       0.12410806 Ry

     iteration #  5     ecut=    71.00 Ry     beta= 0.10
     Davidson diagonalization with overlap
     ethr =  2.35E-05,  avg # of iterations =  1.9

     total cpu time spent up to now is     9688.4 secs

     total energy              =  -14244.01398754 Ry
     estimated scf accuracy    <       0.01946251 Ry

     iteration #  6     ecut=    71.00 Ry     beta= 0.10
     Davidson diagonalization with overlap
     ethr =  3.69E-06,  avg # of iterations =  4.5

     total cpu time spent up to now is     9793.6 secs

     total energy              =  -14244.01069042 Ry
     estimated scf accuracy    <       0.01017433 Ry

     iteration #  7     ecut=    71.00 Ry     beta= 0.10
     Davidson diagonalization with overlap
     ethr =  1.93E-06,  avg # of iterations =  3.6

     total cpu time spent up to now is     9915.9 secs

     total energy              =  -14244.01262711 Ry
     estimated scf accuracy    <       0.00347792 Ry

     iteration #  8     ecut=    71.00 Ry     beta= 0.10
     Davidson diagonalization with overlap
     ethr =  6.59E-07,  avg # of iterations =  1.0

     total cpu time spent up to now is    10003.2 secs

     total energy              =  -14244.01121265 Ry
     estimated scf accuracy    <       0.00331775 Ry

     iteration #  9     ecut=    71.00 Ry     beta= 0.10
     Davidson diagonalization with overlap
     ethr =  6.28E-07,  avg # of iterations =  2.0

     total cpu time spent up to now is    10103.1 secs

     total energy              =  -14244.01120373 Ry
     estimated scf accuracy    <       0.00116966 Ry

     iteration # 10     ecut=    71.00 Ry     beta= 0.10
     Davidson diagonalization with overlap
     ethr =  2.22E-07,  avg # of iterations =  2.0

     total cpu time spent up to now is    10207.2 secs

     total energy              =  -14244.01085898 Ry
     estimated scf accuracy    <       0.00060810 Ry

     iteration # 11     ecut=    71.00 Ry     beta= 0.10
     Davidson diagonalization with overlap
     ethr =  1.15E-07,  avg # of iterations =  2.0

     total cpu time spent up to now is    10325.5 secs

     total energy              =  -14244.01105306 Ry
     estimated scf accuracy    <       0.00015885 Ry

     iteration # 12     ecut=    71.00 Ry     beta= 0.10
     Davidson diagonalization with overlap
     ethr =  3.01E-08,  avg # of iterations =  2.1

     total cpu time spent up to now is    10450.0 secs

     total energy              =  -14244.01096033 Ry
     estimated scf accuracy    <       0.00031511 Ry

     iteration # 13     ecut=    71.00 Ry     beta= 0.10
     Davidson diagonalization with overlap
     ethr =  3.01E-08,  avg # of iterations =  2.0

     total cpu time spent up to now is    10560.9 secs

     total energy              =  -14244.01091298 Ry
     estimated scf accuracy    <       0.00009832 Ry

     iteration # 14     ecut=    71.00 Ry     beta= 0.10
     Davidson diagonalization with overlap
     ethr =  1.86E-08,  avg # of iterations =  2.0

     total cpu time spent up to now is    10687.8 secs

     total energy              =  -14244.01093880 Ry
     estimated scf accuracy    <       0.00000312 Ry

     iteration # 15     ecut=    71.00 Ry     beta= 0.10
     Davidson diagonalization with overlap
     ethr =  5.90E-10,  avg # of iterations =  2.1

     total cpu time spent up to now is    10794.5 secs

     total energy              =  -14244.01093817 Ry
     estimated scf accuracy    <       0.00000164 Ry

     iteration # 16     ecut=    71.00 Ry     beta= 0.10
     Davidson diagonalization with overlap
     ethr =  3.10E-10,  avg # of iterations =  2.0

     total cpu time spent up to now is    10903.8 secs

     End of self-consistent calculation

     Number of k-points >= 100: set verbosity='high' to print the bands.

     the Fermi energy is    22.4268 ev

!    total energy              =  -14244.01093849 Ry

     total all-electron energy =   -299050.913476 Ry
     estimated scf accuracy    <       0.00000058 Ry
     smearing contrib. (-TS)   =      -0.00281267 Ry
     internal energy E=F+TS    =  -14244.00812582 Ry

     The total energy is F=E-TS. E is the sum of the following terms:
     one-electron contribution =   -1204.44078193 Ry
     hartree contribution      =    1017.42276100 Ry
     xc contribution           =    -957.41083050 Ry
     ewald contribution        =   -5272.93917856 Ry
     one-center paw contrib.   =   -7826.64009583 Ry

     convergence has been achieved in  16 iterations

     Forces acting on atoms (cartesian axes, Ry/au):

     atom    1 type  1   force =     0.00000000   -0.44181585   -0.44181585
     atom    2 type  1   force =    -0.06331510   -0.03704982    0.02360150
     atom    3 type  1   force =    -0.06331510    0.02360150   -0.03704982
     atom    4 type  1   force =    -0.00000000    0.45212836    0.45212836
     atom    5 type  1   force =     0.00000000   -0.45212836   -0.45212836
     atom    6 type  1   force =     0.00000000    0.01919662   -0.01919662
     atom    7 type  1   force =    -0.06331510    0.03704982   -0.02360150
     atom    8 type  1   force =    -0.01914323   -0.00706901    0.01359941
     atom    9 type  1   force =     0.00000000    0.00000000    0.00000000
     atom   10 type  1   force =     0.00000000   -0.01919662    0.01919662
     atom   11 type  1   force =    -0.01914323    0.01359941   -0.00706901
     atom   12 type  1   force =    -0.06331510   -0.02360150    0.03704982
     atom   13 type  1   force =     0.00000000    0.00000000    0.00000000
     atom   14 type  1   force =     0.00000000    0.44181585    0.44181585
     atom   15 type  1   force =    -0.01914323   -0.01359941    0.00706901
     atom   16 type  1   force =    -0.01914323    0.00706901   -0.01359941
     atom   17 type  1   force =     0.00000000    0.00000000    0.00000000
     atom   18 type  1   force =     0.00000000   -0.00141475   -0.00141475
     atom   19 type  1   force =     0.06331510   -0.03704982    0.02360150
     atom   20 type  1   force =     0.06331510    0.02360150   -0.03704982
     atom   21 type  1   force =     0.00000000    0.00000000    0.00000000
     atom   22 type  1   force =     0.00000000   -0.02699860    0.02699860
     atom   23 type  1   force =     0.06331510    0.03704982   -0.02360150
     atom   24 type  1   force =     0.01914323   -0.00706901    0.01359941
     atom   25 type  1   force =     0.00000000    0.00000000    0.00000000
     atom   26 type  1   force =     0.00000000    0.02699860   -0.02699860
     atom   27 type  1   force =     0.01914323    0.01359941   -0.00706901
     atom   28 type  1   force =     0.06331510   -0.02360150    0.03704982
     atom   29 type  1   force =     0.00000000    0.00000000    0.00000000
     atom   30 type  1   force =     0.00000000    0.00141475    0.00141475
     atom   31 type  1   force =     0.01914323   -0.01359941    0.00706901
     atom   32 type  1   force =     0.01914323    0.00706901   -0.01359941
     atom   33 type  1   force =     0.00000000    0.00000000    0.00000000

     Total force =     1.286547     Total SCF correction =     0.001961


     Computing stress (Cartesian axis) and pressure

          total   stress  (Ry/bohr**3)                   (kbar)     P=       63.18
   0.00005180   0.00000000   0.00000000            7.62        0.00        0.00
   0.00000000   0.00061835   0.00017792            0.00       90.96       26.17
   0.00000000   0.00017792   0.00061835            0.00       26.17       90.96

     Energy error            =      2.5E-01
     Gradient error          =      4.5E-01
     Cell gradient error     =      6.2E-04


     number of scf cycles    =   5
     number of bfgs steps    =   4

     enthalpy old            =  -14243.7642334756 Ry
     enthalpy new            =  -14244.0109384875 Ry

     CASE: enthalpy_new < enthalpy_old

     new trust radius        =       0.1043430616 bohr
     new conv_thr            =       0.0000010000 Ry

     new unit-cell volume =   3168.89536 a.u.^3 (   469.58184 Ang^3 )
     density =     11.79435 g/cm^3

CELL_PARAMETERS (alat= 14.40074160)
   1.019218711   0.000000000   0.000000000
   0.000000000   1.020609010   0.023629526
   0.000000000   0.023629526   1.020609010

ATOMIC_POSITIONS (crystal)
Ru           -0.0000000000       -0.0300516682       -0.0300516682
Ru            0.2838907569        0.2656313920       -0.0103154101
Ru            0.2838907569       -0.0103154101        0.2656313920
Ru           -0.0000000000        0.1399742770        0.1399742770
Ru            0.0000000000        0.3600257230        0.3600257230
Ru            0.0000000000        0.0081776292        0.4918223708
Ru            0.2838907569        0.2343686080        0.5103154101
Ru            0.2533953585       -0.0015360433        0.7467259200
Ru            0.0000000000        0.2500000000        0.7500000000
Ru            0.0000000000        0.4918223708        0.0081776292
Ru            0.2533953585        0.7467259200       -0.0015360433
Ru            0.2838907569        0.5103154101        0.2343686080
Ru           -0.0000000000        0.7500000000        0.2500000000
Ru            0.0000000000        0.5300516682        0.5300516682
Ru            0.2533953585        0.7532740800        0.5015360433
Ru            0.2533953585        0.5015360433        0.7532740800
Ru            0.0000000000        0.7500000000        0.7500000000
Ru            0.5000000000        0.0009046533        0.0009046533
Ru            0.7161092431        0.2656313920       -0.0103154101
Ru            0.7161092431       -0.0103154101        0.2656313920
Ru            0.5000000000        0.2500000000        0.2500000000
Ru            0.5000000000       -0.0015928010        0.5015928010
Ru            0.7161092431        0.2343686080        0.5103154101
Ru            0.7466046415       -0.0015360433        0.7467259200
Ru            0.5000000000        0.2500000000        0.7500000000
Ru            0.5000000000        0.5015928010       -0.0015928010
Ru            0.7466046415        0.7467259200       -0.0015360433
Ru            0.7161092431        0.5103154101        0.2343686080
Ru            0.5000000000        0.7500000000        0.2500000000
Ru            0.5000000000        0.4990953467        0.4990953467
Ru            0.7466046415        0.7532740800        0.5015360433
Ru            0.7466046415        0.5015360433        0.7532740800
Ru            0.5000000000        0.7500000000        0.7500000000



     Writing output data file /scratch/ru1102.save/
     NEW-OLD atomic charge density approx. for the potential

     Check: negative core charge=   -0.000004
     extrapolated charge  527.01612, renormalised to  528.00000

     total cpu time spent up to now is    11054.4 secs

     Self-consistent Calculation

     iteration #  1     ecut=    71.00 Ry     beta= 0.10
     Davidson diagonalization with overlap
     ethr =  1.00E-06,  avg # of iterations = 10.3

     total cpu time spent up to now is    11392.3 secs

     total energy              =  -14244.16563434 Ry
     estimated scf accuracy    <       0.03605713 Ry

     iteration #  2     ecut=    71.00 Ry     beta= 0.10
     Davidson diagonalization with overlap
     ethr =  6.83E-06,  avg # of iterations =  2.0

     total cpu time spent up to now is    11507.6 secs

     total energy              =  -14244.17149808 Ry
     estimated scf accuracy    <       0.01709725 Ry

     iteration #  3     ecut=    71.00 Ry     beta= 0.10
     Davidson diagonalization with overlap
     ethr =  3.24E-06,  avg # of iterations =  1.0

     total cpu time spent up to now is    11595.1 secs

     total energy              =  -14244.16738614 Ry
     estimated scf accuracy    <       0.01232942 Ry

     iteration #  4     ecut=    71.00 Ry     beta= 0.10
     Davidson diagonalization with overlap
     ethr =  2.34E-06,  avg # of iterations =  1.0

     total cpu time spent up to now is    11682.8 secs

     total energy              =  -14244.16577869 Ry
     estimated scf accuracy    <       0.00342485 Ry

     iteration #  5     ecut=    71.00 Ry     beta= 0.10
     Davidson diagonalization with overlap
     ethr =  6.49E-07,  avg # of iterations =  2.0

     total cpu time spent up to now is    11782.0 secs

     total energy              =  -14244.16521527 Ry
     estimated scf accuracy    <       0.00116179 Ry

     iteration #  6     ecut=    71.00 Ry     beta= 0.10
     Davidson diagonalization with overlap
     ethr =  2.20E-07,  avg # of iterations =  2.0

     total cpu time spent up to now is    11893.5 secs

     total energy              =  -14244.16538539 Ry
     estimated scf accuracy    <       0.00024253 Ry

     iteration #  7     ecut=    71.00 Ry     beta= 0.10
     Davidson diagonalization with overlap
     ethr =  4.59E-08,  avg # of iterations =  2.0

     total cpu time spent up to now is    11992.7 secs

     total energy              =  -14244.16529312 Ry
     estimated scf accuracy    <       0.00012514 Ry

     iteration #  8     ecut=    71.00 Ry     beta= 0.10
     Davidson diagonalization with overlap
     ethr =  2.37E-08,  avg # of iterations =  2.0

     total cpu time spent up to now is    12091.6 secs

     total energy              =  -14244.16527137 Ry
     estimated scf accuracy    <       0.00004985 Ry

     iteration #  9     ecut=    71.00 Ry     beta= 0.10
     Davidson diagonalization with overlap
     ethr =  9.44E-09,  avg # of iterations =  2.0

     total cpu time spent up to now is    12208.7 secs

     total energy              =  -14244.16527807 Ry
     estimated scf accuracy    <       0.00001394 Ry

     iteration # 10     ecut=    71.00 Ry     beta= 0.10
     Davidson diagonalization with overlap
     ethr =  2.64E-09,  avg # of iterations =  1.0

     total cpu time spent up to now is    12297.2 secs

     total energy              =  -14244.16527744 Ry
     estimated scf accuracy    <       0.00000495 Ry

     iteration # 11     ecut=    71.00 Ry     beta= 0.10
     Davidson diagonalization with overlap
     ethr =  9.37E-10,  avg # of iterations =  2.0

     total cpu time spent up to now is    12397.2 secs

     total energy              =  -14244.16527564 Ry
     estimated scf accuracy    <       0.00000502 Ry

     iteration # 12     ecut=    71.00 Ry     beta= 0.10
     Davidson diagonalization with overlap
     ethr =  9.37E-10,  avg # of iterations =  2.0

     total cpu time spent up to now is    12511.5 secs

     End of self-consistent calculation

     Number of k-points >= 100: set verbosity='high' to print the bands.

     the Fermi energy is    22.4704 ev

!    total energy              =  -14244.16527585 Ry

     total all-electron energy =   -299051.067813 Ry
     estimated scf accuracy    <       0.00000065 Ry
     smearing contrib. (-TS)   =      -0.00358116 Ry
     internal energy E=F+TS    =  -14244.16169469 Ry

     The total energy is F=E-TS. E is the sum of the following terms:
     one-electron contribution =   -1189.34072958 Ry
     hartree contribution      =    1010.98006573 Ry
     xc contribution           =    -957.29551318 Ry
     ewald contribution        =   -5281.87293116 Ry
     one-center paw contrib.   =   -7826.63258649 Ry

     convergence has been achieved in  12 iterations

     Forces acting on atoms (cartesian axes, Ry/au):

     atom    1 type  1   force =     0.00000000   -0.30046362   -0.30046362
     atom    2 type  1   force =    -0.07149335   -0.03301536    0.02185757
     atom    3 type  1   force =    -0.07149335    0.02185757   -0.03301536
     atom    4 type  1   force =     0.00000000    0.31015902    0.31015902
     atom    5 type  1   force =     0.00000000   -0.31015902   -0.31015902
     atom    6 type  1   force =     0.00000000    0.01531951   -0.01531951
     atom    7 type  1   force =    -0.07149335    0.03301536   -0.02185757
     atom    8 type  1   force =    -0.01677010   -0.00112422    0.01004523
     atom    9 type  1   force =     0.00000000    0.00000000    0.00000000
     atom   10 type  1   force =     0.00000000   -0.01531951    0.01531951
     atom   11 type  1   force =    -0.01677010    0.01004523   -0.00112422
     atom   12 type  1   force =    -0.07149335   -0.02185757    0.03301536
     atom   13 type  1   force =     0.00000000    0.00000000    0.00000000
     atom   14 type  1   force =     0.00000000    0.30046362    0.30046362
     atom   15 type  1   force =    -0.01677010   -0.01004523    0.00112422
     atom   16 type  1   force =    -0.01677010    0.00112422   -0.01004523
     atom   17 type  1   force =     0.00000000    0.00000000    0.00000000
     atom   18 type  1   force =     0.00000000   -0.00424140   -0.00424140
     atom   19 type  1   force =     0.07149335   -0.03301536    0.02185757
     atom   20 type  1   force =     0.07149335    0.02185757   -0.03301536
     atom   21 type  1   force =     0.00000000    0.00000000    0.00000000
     atom   22 type  1   force =     0.00000000   -0.01776827    0.01776827
     atom   23 type  1   force =     0.07149335    0.03301536   -0.02185757
     atom   24 type  1   force =     0.01677010   -0.00112422    0.01004523
     atom   25 type  1   force =     0.00000000    0.00000000    0.00000000
     atom   26 type  1   force =     0.00000000    0.01776827   -0.01776827
     atom   27 type  1   force =     0.01677010    0.01004523   -0.00112422
     atom   28 type  1   force =     0.07149335   -0.02185757    0.03301536
     atom   29 type  1   force =     0.00000000    0.00000000    0.00000000
     atom   30 type  1   force =     0.00000000    0.00424140    0.00424140
     atom   31 type  1   force =     0.01677010   -0.01004523    0.00112422
     atom   32 type  1   force =     0.01677010    0.00112422   -0.01004523
     atom   33 type  1   force =     0.00000000    0.00000000    0.00000000

     Total force =     0.897040     Total SCF correction =     0.004600


     Computing stress (Cartesian axis) and pressure

          total   stress  (Ry/bohr**3)                   (kbar)     P=       46.78
   0.00009928   0.00000000   0.00000000           14.60        0.00        0.00
   0.00000000   0.00042732   0.00018060            0.00       62.86       26.57
   0.00000000   0.00018060   0.00042732            0.00       26.57       62.86

     Energy error            =      1.5E-01
     Gradient error          =      3.1E-01
     Cell gradient error     =      4.3E-04


     number of scf cycles    =   6
     number of bfgs steps    =   5

     enthalpy old            =  -14244.0109384875 Ry
     enthalpy new            =  -14244.1652758510 Ry

     CASE: enthalpy_new < enthalpy_old

     new trust radius        =       0.1558693475 bohr
     new conv_thr            =       0.0000010000 Ry

     new unit-cell volume =   3162.87927 a.u.^3 (   468.69035 Ang^3 )
     density =     11.81678 g/cm^3

CELL_PARAMETERS (alat= 14.40074160)
   1.015328278   0.000000000   0.000000000
   0.000000000   1.021478060   0.018109618
   0.000000000   0.018109618   1.021478060

ATOMIC_POSITIONS (crystal)
Ru           -0.0000000000       -0.0327758896       -0.0327758896
Ru            0.2803122912        0.2635630135       -0.0091712727
[...]
     Results may differ from those at the preceding step.
 
     Parallelization info
     --------------------
     sticks:   dense  smooth     PW     G-vecs:    dense   smooth      PW
     Min         102      67     18                 6609     3544     501
     Max         103      68     19                 6614     3551     507
     Sum        7377    4865   1317               475961   255389   36209
 


     bravais-lattice index     =            0
     lattice parameter (alat)  =      14.4007  a.u.
     unit-cell volume          =    3159.9611 (a.u.)^3
     number of atoms/cell      =           33
     number of atomic types    =            1
     number of electrons       =       528.00
     number of Kohn-Sham states=          317
     kinetic-energy cutoff     =      71.0000  Ry
     charge density cutoff     =     430.0000  Ry
     scf convergence threshold =      1.0E-08
     mixing beta               =       0.1000
     number of iterations used =           10  TF        mixing
     press convergence thresh. =      5.0E-01
     Exchange-correlation= SLA  PW   PBX  PBC
                           (   1   4   3   4   0   0   0)

     celldm(1)=  14.400742  celldm(2)=   0.000000  celldm(3)=   0.000000
     celldm(4)=   0.000000  celldm(5)=   0.000000  celldm(6)=   0.000000

     crystal axes: (cart. coord. in units of alat)
               a(1) = (   1.016348   0.000000   0.000000 )  
               a(2) = (   0.000000   1.020612   0.023821 )  
               a(3) = (   0.000000   0.023821   1.020612 )  

     reciprocal axes: (cart. coord. in units 2 pi/alat)
               b(1) = (  0.983915  0.000000  0.000000 )  
               b(2) = (  0.000000  0.980338 -0.022881 )  
               b(3) = (  0.000000 -0.022881  0.980338 )  


     PseudoPot. # 1 for Ru read from file:
     /rds/homes/b/bxp912/pp/Ru.pbe-spn-kjpaw_psl.1.0.0.UPF
     MD5 check sum: 0ae1f594dea09af7be8575c3a481d1ae
     Pseudo is Projector augmented-wave + core cor, Zval = 16.0
     Generated using "atomic" code by A. Dal Corso  v.5.1
     Shape of augmentation charge: PSQ
     Using radial grid of 1233 points,  6 beta functions with: 
                l(1) =   0
                l(2) =   0
                l(3) =   1
                l(4) =   1
                l(5) =   2
                l(6) =   2
     Q(r) pseudized with 0 coefficients 


     atomic species   valence    mass     pseudopotential
        Ru            16.00   101.07000     Ru( 1.00)

      8 Sym. Ops., with inversion, found ( 4 have fractional translation)



   Cartesian axes

     site n.     atom                  positions (alat units)
         1           Ru  tau(   1) = (  -0.0000000  -0.0439491  -0.0439491  )
         2           Ru  tau(   2) = (   0.2747141   0.2595675  -0.0024345  )
         3           Ru  tau(   3) = (   0.2747141  -0.0024345   0.2595675  )
         4           Ru  tau(   4) = (  -0.0000000   0.1618322   0.1618322  )
         5           Ru  tau(   5) = (  -0.0000000   0.3603841   0.3603841  )
         6           Ru  tau(   6) = (  -0.0000000   0.0256237   0.4965927  )
         7           Ru  tau(   7) = (   0.2747141   0.2626489   0.5246509  )
         8           Ru  tau(   8) = (   0.2568112   0.0183649   0.7616499  )
         9           Ru  tau(   9) = (   0.0000000   0.2730185   0.7714142  )
        10           Ru  tau(  10) = (  -0.0000000   0.4965927   0.0256237  )
        11           Ru  tau(  11) = (   0.2568112   0.7616499   0.0183649  )
        12           Ru  tau(  12) = (   0.2747141   0.5246509   0.2626489  )
        13           Ru  tau(  13) = (  -0.0000000   0.7714142   0.2730185  )
        14           Ru  tau(  14) = (  -0.0000000   0.5661654   0.5661654  )
        15           Ru  tau(  15) = (   0.2568112   0.7811786   0.5276721  )
        16           Ru  tau(  16) = (   0.2568112   0.5276721   0.7811786  )
        17           Ru  tau(  17) = (   0.0000000   0.7833246   0.7833246  )
        18           Ru  tau(  18) = (   0.5081739  -0.0044107  -0.0044107  )
        19           Ru  tau(  19) = (   0.7416338   0.2595675  -0.0024345  )
        20           Ru  tau(  20) = (   0.7416338  -0.0024345   0.2595675  )
        21           Ru  tau(  21) = (   0.5081739   0.2611082   0.2611082  )
        22           Ru  tau(  22) = (   0.5081739   0.0144553   0.5077611  )
        23           Ru  tau(  23) = (   0.7416338   0.2626489   0.5246509  )
        24           Ru  tau(  24) = (   0.7595367   0.0183649   0.7616499  )
        25           Ru  tau(  25) = (   0.5081739   0.2730185   0.7714142  )
        26           Ru  tau(  26) = (   0.5081739   0.5077611   0.0144553  )
        27           Ru  tau(  27) = (   0.7595367   0.7616499   0.0183649  )
        28           Ru  tau(  28) = (   0.7416338   0.5246509   0.2626489  )
        29           Ru  tau(  29) = (   0.5081739   0.7714142   0.2730185  )
        30           Ru  tau(  30) = (   0.5081739   0.5266271   0.5266271  )
        31           Ru  tau(  31) = (   0.7595367   0.7811786   0.5276721  )
        32           Ru  tau(  32) = (   0.7595367   0.5276721   0.7811786  )
        33           Ru  tau(  33) = (   0.5081739   0.7833246   0.7833246  )

     number of k points=   125  Marzari-Vanderbilt smearing, width (Ry)=  0.0400

     Number of k-points >= 100: set verbosity='high' to print them.

     Dense  grid:   475961 G-vectors     FFT dimensions: ( 100, 100, 100)

     Smooth grid:   255389 G-vectors     FFT dimensions: (  80,  80,  80)

     Estimated max dynamical RAM per process >     310.62 MB

     Estimated total dynamical RAM >      21.84 GB

     Check: negative core charge=   -0.000002

     Initial potential from superposition of free atoms

     starting charge  527.97896, renormalised to  528.00000
     Starting wfcs are  330 randomized atomic wfcs
     Checking if some PAW data can be deallocated... 

     total cpu time spent up to now is    29652.2 secs

     Self-consistent Calculation

     iteration #  1     ecut=    71.00 Ry     beta= 0.10
     Davidson diagonalization with overlap
     c_bands:  2 eigenvalues not converged
     c_bands:  1 eigenvalues not converged
     c_bands:  1 eigenvalues not converged
     c_bands:  1 eigenvalues not converged
     c_bands:  1 eigenvalues not converged
     c_bands:  1 eigenvalues not converged
     c_bands:  1 eigenvalues not converged
     c_bands:  1 eigenvalues not converged
     c_bands:  1 eigenvalues not converged
     c_bands:  1 eigenvalues not converged
     c_bands:  1 eigenvalues not converged
     c_bands:  1 eigenvalues not converged
     c_bands:  1 eigenvalues not converged
     c_bands:  1 eigenvalues not converged
     c_bands:  1 eigenvalues not converged
     c_bands:  1 eigenvalues not converged
     c_bands:  1 eigenvalues not converged
     c_bands:  2 eigenvalues not converged
     c_bands:  2 eigenvalues not converged
     c_bands:  1 eigenvalues not converged
     c_bands:  1 eigenvalues not converged
     c_bands:  1 eigenvalues not converged
     c_bands:  1 eigenvalues not converged
     c_bands:  1 eigenvalues not converged
     c_bands:  1 eigenvalues not converged
     c_bands:  1 eigenvalues not converged
     c_bands:  1 eigenvalues not converged
     c_bands:  1 eigenvalues not converged
     c_bands:  1 eigenvalues not converged
     c_bands:  1 eigenvalues not converged
     c_bands:  1 eigenvalues not converged
     c_bands:  2 eigenvalues not converged
     c_bands:  1 eigenvalues not converged
     c_bands:  1 eigenvalues not converged
     c_bands:  1 eigenvalues not converged
     c_bands:  1 eigenvalues not converged
     c_bands:  1 eigenvalues not converged
     c_bands:  1 eigenvalues not converged
     c_bands:  1 eigenvalues not converged
     c_bands:  1 eigenvalues not converged
     c_bands:  1 eigenvalues not converged
     c_bands:  2 eigenvalues not converged
     c_bands:  2 eigenvalues not converged
     c_bands:  1 eigenvalues not converged
     c_bands:  1 eigenvalues not converged
     ethr =  1.00E-06,  avg # of iterations = 17.2

     total cpu time spent up to now is    30065.0 secs

     total energy              =  -14244.60685229 Ry
     estimated scf accuracy    <       0.82667482 Ry

     iteration #  2     ecut=    71.00 Ry     beta= 0.10
     Davidson diagonalization with overlap
     ethr =  1.57E-04,  avg # of iterations =  1.0

     total cpu time spent up to now is    30154.4 secs

     total energy              =  -14244.47465936 Ry
     estimated scf accuracy    <       0.55637632 Ry

     iteration #  3     ecut=    71.00 Ry     beta= 0.10
     Davidson diagonalization with overlap
     ethr =  1.05E-04,  avg # of iterations =  1.1

     total cpu time spent up to now is    30247.0 secs

     total energy              =  -14244.44811910 Ry
     estimated scf accuracy    <       0.16937156 Ry

     iteration #  4     ecut=    71.00 Ry     beta= 0.10
     Davidson diagonalization with overlap
     ethr =  3.21E-05,  avg # of iterations =  2.0

     total cpu time spent up to now is    30364.6 secs

     total energy              =  -14244.46384743 Ry
     estimated scf accuracy    <       0.03337828 Ry

     iteration #  5     ecut=    71.00 Ry     beta= 0.10
     Davidson diagonalization with overlap
     ethr =  6.32E-06,  avg # of iterations =  2.4

     total cpu time spent up to now is    30479.4 secs

     total energy              =  -14244.46218266 Ry
     estimated scf accuracy    <       0.01694379 Ry

     iteration #  6     ecut=    71.00 Ry     beta= 0.10
     Davidson diagonalization with overlap
     ethr =  3.21E-06,  avg # of iterations =  2.3

     total cpu time spent up to now is    30582.7 secs

     total energy              =  -14244.46166841 Ry
     estimated scf accuracy    <       0.00670661 Ry

     iteration #  7     ecut=    71.00 Ry     beta= 0.10
     Davidson diagonalization with overlap
     ethr =  1.27E-06,  avg # of iterations =  2.0

     total cpu time spent up to now is    30699.6 secs

     total energy              =  -14244.46234383 Ry
     estimated scf accuracy    <       0.00055022 Ry

     iteration #  8     ecut=    71.00 Ry     beta= 0.10
     Davidson diagonalization with overlap
     ethr =  1.04E-07,  avg # of iterations =  2.0

     total cpu time spent up to now is    30817.6 secs

     total energy              =  -14244.46235058 Ry
     estimated scf accuracy    <       0.00037046 Ry

     iteration #  9     ecut=    71.00 Ry     beta= 0.10
     Davidson diagonalization with overlap
     ethr =  7.02E-08,  avg # of iterations =  2.2

     total cpu time spent up to now is    30936.0 secs

     total energy              =  -14244.46236642 Ry
     estimated scf accuracy    <       0.00016799 Ry

     iteration # 10     ecut=    71.00 Ry     beta= 0.10
     Davidson diagonalization with overlap
     ethr =  3.18E-08,  avg # of iterations =  2.0

     total cpu time spent up to now is    31053.4 secs

     total energy              =  -14244.46223654 Ry
     estimated scf accuracy    <       0.00020105 Ry

     iteration # 11     ecut=    71.00 Ry     beta= 0.10
     Davidson diagonalization with overlap
     ethr =  3.18E-08,  avg # of iterations =  2.0

     total cpu time spent up to now is    31186.8 secs

     total energy              =  -14244.46229680 Ry
     estimated scf accuracy    <       0.00001344 Ry

     iteration # 12     ecut=    71.00 Ry     beta= 0.10
     Davidson diagonalization with overlap
     ethr =  2.55E-09,  avg # of iterations =  2.1

     total cpu time spent up to now is    31289.0 secs

     total energy              =  -14244.46229126 Ry
     estimated scf accuracy    <       0.00000690 Ry

     iteration # 13     ecut=    71.00 Ry     beta= 0.10
     Davidson diagonalization with overlap
     ethr =  1.31E-09,  avg # of iterations =  2.2

     total cpu time spent up to now is    31425.8 secs

     total energy              =  -14244.46229315 Ry
     estimated scf accuracy    <       0.00000789 Ry

     iteration # 14     ecut=    71.00 Ry     beta= 0.10
     Davidson diagonalization with overlap
     ethr =  1.31E-09,  avg # of iterations =  2.0

     total cpu time spent up to now is    31543.6 secs

     total energy              =  -14244.46229487 Ry
     estimated scf accuracy    <       0.00000035 Ry

     iteration # 15     ecut=    71.00 Ry     beta= 0.10
     Davidson diagonalization with overlap
     ethr =  6.58E-11,  avg # of iterations =  2.0

     total cpu time spent up to now is    31678.7 secs

     total energy              =  -14244.46229504 Ry
     estimated scf accuracy    <       0.00000025 Ry

     iteration # 16     ecut=    71.00 Ry     beta= 0.10
     Davidson diagonalization with overlap
     ethr =  4.78E-11,  avg # of iterations =  2.0

     total cpu time spent up to now is    31797.9 secs

     total energy              =  -14244.46229528 Ry
     estimated scf accuracy    <       0.00000012 Ry

     iteration # 17     ecut=    71.00 Ry     beta= 0.10
     Davidson diagonalization with overlap
     ethr =  2.26E-11,  avg # of iterations =  2.0

     total cpu time spent up to now is    31915.6 secs

     total energy              =  -14244.46229541 Ry
     estimated scf accuracy    <       0.00000002 Ry

     iteration # 18     ecut=    71.00 Ry     beta= 0.10
     Davidson diagonalization with overlap
     ethr =  3.74E-12,  avg # of iterations =  2.0

     total cpu time spent up to now is    32034.3 secs

     End of self-consistent calculation

     Number of k-points >= 100: set verbosity='high' to print the bands.

     the Fermi energy is    22.5182 ev

!    total energy              =  -14244.46229591 Ry

     total all-electron energy =   -299051.364833 Ry
     estimated scf accuracy    <          5.4E-09 Ry
     smearing contrib. (-TS)   =      -0.00244272 Ry
     internal energy E=F+TS    =  -14244.45985320 Ry

     The total energy is F=E-TS. E is the sum of the following terms:
     one-electron contribution =   -1137.94231482 Ry
     hartree contribution      =     987.02391748 Ry
     xc contribution           =    -956.86901454 Ry
     ewald contribution        =   -5310.07026619 Ry
     one-center paw contrib.   =   -7826.60217513 Ry

     convergence has been achieved in  18 iterations

     Forces acting on atoms (cartesian axes, Ry/au):

     atom    1 type  1   force =     0.00000000   -0.00031107   -0.00031107
     atom    2 type  1   force =     0.00027756    0.00016786   -0.00003647
     atom    3 type  1   force =     0.00027756   -0.00003647    0.00016786
     atom    4 type  1   force =     0.00000000   -0.00002583   -0.00002583
     atom    5 type  1   force =     0.00000000    0.00002583    0.00002583
     atom    6 type  1   force =     0.00000000    0.00001002   -0.00001002
     atom    7 type  1   force =     0.00027756   -0.00016786    0.00003647
     atom    8 type  1   force =    -0.00032351    0.00007759   -0.00031340
     atom    9 type  1   force =     0.00000000    0.00000000    0.00000000
     atom   10 type  1   force =     0.00000000   -0.00001002    0.00001002
     atom   11 type  1   force =    -0.00032351   -0.00031340    0.00007759
     atom   12 type  1   force =     0.00027756    0.00003647   -0.00016786
     atom   13 type  1   force =     0.00000000    0.00000000    0.00000000
     atom   14 type  1   force =     0.00000000    0.00031107    0.00031107
     atom   15 type  1   force =    -0.00032351    0.00031340   -0.00007759
     atom   16 type  1   force =    -0.00032351   -0.00007759    0.00031340
     atom   17 type  1   force =     0.00000000    0.00000000    0.00000000
     atom   18 type  1   force =     0.00000000   -0.00000186   -0.00000186
     atom   19 type  1   force =    -0.00027756    0.00016786   -0.00003647
     atom   20 type  1   force =    -0.00027756   -0.00003647    0.00016786
     atom   21 type  1   force =     0.00000000    0.00000000    0.00000000
     atom   22 type  1   force =     0.00000000    0.00030040   -0.00030040
     atom   23 type  1   force =    -0.00027756   -0.00016786    0.00003647
     atom   24 type  1   force =     0.00032351    0.00007759   -0.00031340
     atom   25 type  1   force =     0.00000000    0.00000000    0.00000000
     atom   26 type  1   force =     0.00000000   -0.00030040    0.00030040
     atom   27 type  1   force =     0.00032351   -0.00031340    0.00007759
     atom   28 type  1   force =    -0.00027756    0.00003647   -0.00016786
     atom   29 type  1   force =     0.00000000    0.00000000    0.00000000
     atom   30 type  1   force =     0.00000000    0.00000186    0.00000186
     atom   31 type  1   force =     0.00032351    0.00031340   -0.00007759
     atom   32 type  1   force =     0.00032351   -0.00007759    0.00031340
     atom   33 type  1   force =     0.00000000    0.00000000    0.00000000

     Total force =     0.001810     Total SCF correction =     0.000297
     SCF correction compared to forces is large: reduce conv_thr to get better values


     Computing stress (Cartesian axis) and pressure

          total   stress  (Ry/bohr**3)                   (kbar)     P=        1.71
   0.00001248   0.00000000   0.00000000            1.84        0.00        0.00
   0.00000000   0.00001124   0.00000691            0.00        1.65        1.02
   0.00000000   0.00000691   0.00001124            0.00        1.02        1.65


     Writing output data file /scratch/ru1102.save/
 
     init_run     :     70.38s CPU     72.03s WALL (       2 calls)
     electrons    :  29033.78s CPU  29449.97s WALL (      18 calls)
     update_pot   :      5.99s CPU      6.13s WALL (      16 calls)
     forces       :    352.81s CPU    355.38s WALL (      18 calls)
     stress       :   2215.61s CPU   2232.16s WALL (      18 calls)

     Called by init_run:
     wfcinit      :     68.97s CPU     70.37s WALL (       2 calls)
     potinit      :      0.35s CPU      0.38s WALL (       2 calls)
     hinit0       :      0.41s CPU      0.42s WALL (       2 calls)

     Called by electrons:
     c_bands      :  25866.82s CPU  26231.45s WALL (     241 calls)
     sum_band     :   3136.77s CPU   3182.35s WALL (     241 calls)
     v_of_rho     :      3.30s CPU      3.45s WALL (     255 calls)
     newd         :      5.61s CPU      8.13s WALL (     255 calls)
     PAW_pot      :     22.64s CPU     24.07s WALL (     271 calls)
     mix_rho      :      0.93s CPU      1.10s WALL (     241 calls)

     Called by c_bands:
     init_us_2    :    129.76s CPU    131.60s WALL (   67000 calls)
     cegterg      :  25391.38s CPU  25661.89s WALL (   30125 calls)

     Called by *egterg:
     cdiaghg      :   2679.03s CPU   2694.35s WALL (  105968 calls)
     h_psi        :  13925.60s CPU  14125.63s WALL (  108718 calls)
     s_psi        :   1171.18s CPU   1179.25s WALL (  108718 calls)
     g_psi        :     29.71s CPU     30.14s WALL (   78343 calls)

     Called by h_psi:
     h_psi:calbec :   2116.20s CPU   2130.53s WALL (  108718 calls)
     vloc_psi     :  10625.22s CPU  10792.63s WALL (  108718 calls)
     add_vuspsi   :   1107.08s CPU   1124.71s WALL (  108718 calls)

     General routines
     calbec       :   3500.60s CPU   3523.80s WALL (  152093 calls)
     fft          :      4.56s CPU      4.68s WALL (    3749 calls)
     ffts         :      0.31s CPU      0.33s WALL (     496 calls)
     fftw         :  12260.28s CPU  12452.35s WALL (58464723 calls)
     interpolate  :      0.43s CPU      0.47s WALL (     255 calls)
 
     Parallel routines
     fft_scatt_xy :   1003.91s CPU   1019.64s WALL (58468968 calls)
     fft_scatt_yz :   9531.74s CPU   9682.68s WALL (58468968 calls)
 
     PWSCF        :      8h49m CPU      8h57m WALL

 
   This run was terminated on:   5:32:28   4Jan2022            

=------------------------------------------------------------------------------=
   JOB DONE.
=------------------------------------------------------------------------------=
