
     Program PWSCF v.6.7MaX starts on  3Jan2022 at 20:35:27 

     This program is part of the open-source Quantum ESPRESSO suite
     for quantum simulation of materials; please cite
         "P. Giannozzi et al., J. Phys.:Condens. Matter 21 395502 (2009);
         "P. Giannozzi et al., J. Phys.:Condens. Matter 29 465901 (2017);
          URL http://www.quantum-espresso.org", 
     in publications or presentations arising from this work. More details at
     http://www.quantum-espresso.org/quote

     Parallel version (MPI & OpenMP), running on      72 processor cores
     Number of MPI processes:                72
     Threads/MPI process:                     1

     MPI processes distributed on     1 nodes
     R & G space division:  proc/nbgrp/npool/nimage =      72
     Reading input from ru_crowdion_3.in
Warning: card &CELL ignored
Warning: card CELL_DYNAMICS = 'BFGS', ignored
Warning: card CELL_FACTOR = 2.0, ignored
Warning: card PRESS = 0.0, ignored
Warning: card / ignored

     Current dimensions of program PWSCF are:
     Max number of different atomic species (ntypx) = 10
     Max number of k-points (npk) =  40000
     Max angular momentum in pseudopotentials (lmaxx) =  3
     file Ru.pbe-spn-kjpaw_psl.1.0.0.UPF: wavefunction(s)  4D renormalized

     Subspace diagonalization in iterative solution of the eigenvalue problem:
     one sub-group per band group will be used
     ELPA distributed-memory algorithm (size of sub-group:  8*  8 procs)

     Message from routine setup:
     using ibrav=0 with symmetry is DISCOURAGED, use correct ibrav instead
 
     Parallelization info
     --------------------
     sticks:   dense  smooth     PW     G-vecs:    dense   smooth      PW
     Min          98      65     17                 6240     3351     475
     Max          99      66     18                 6245     3355     482
     Sum        7113    4693   1281               449479   241377   34457
 


     bravais-lattice index     =            0
     lattice parameter (alat)  =      14.4007  a.u.
     unit-cell volume          =    2986.4454 (a.u.)^3
     number of atoms/cell      =           33
     number of atomic types    =            1
     number of electrons       =       528.00
     number of Kohn-Sham states=          317
     kinetic-energy cutoff     =      71.0000  Ry
     charge density cutoff     =     430.0000  Ry
     scf convergence threshold =      1.0E-06
     mixing beta               =       0.1000
     number of iterations used =           10  TF        mixing
     Exchange-correlation= SLA  PW   PBX  PBC
                           (   1   4   3   4   0   0   0)

     celldm(1)=  14.400742  celldm(2)=   0.000000  celldm(3)=   0.000000
     celldm(4)=   0.000000  celldm(5)=   0.000000  celldm(6)=   0.000000

     crystal axes: (cart. coord. in units of alat)
               a(1) = (   1.000000   0.000000   0.000000 )  
               a(2) = (   0.000000   1.000000   0.000000 )  
               a(3) = (   0.000000   0.000000   1.000000 )  

     reciprocal axes: (cart. coord. in units 2 pi/alat)
               b(1) = (  1.000000  0.000000  0.000000 )  
               b(2) = (  0.000000  1.000000  0.000000 )  
               b(3) = (  0.000000  0.000000  1.000000 )  


     PseudoPot. # 1 for Ru read from file:
     /rds/homes/b/bxp912/pp/Ru.pbe-spn-kjpaw_psl.1.0.0.UPF
     MD5 check sum: 0ae1f594dea09af7be8575c3a481d1ae
     Pseudo is Projector augmented-wave + core cor, Zval = 16.0
     Generated using "atomic" code by A. Dal Corso  v.5.1
     Shape of augmentation charge: PSQ
     Using radial grid of 1233 points,  6 beta functions with: 
                l(1) =   0
                l(2) =   0
                l(3) =   1
                l(4) =   1
                l(5) =   2
                l(6) =   2
     Q(r) pseudized with 0 coefficients 


     atomic species   valence    mass     pseudopotential
        Ru            16.00   101.07000     Ru( 1.00)

      8 Sym. Ops. (no inversion) found



   Cartesian axes

     site n.     atom                  positions (alat units)
         1           Ru  tau(   1) = (   0.0000000   0.0000000   0.0000000  )
         2           Ru  tau(   2) = (   0.3330000   0.0000000   0.0000000  )
         3           Ru  tau(   3) = (   0.6660000   0.0000000   0.0000000  )
         4           Ru  tau(   4) = (   0.2500000   0.2500000   0.0000000  )
         5           Ru  tau(   5) = (   0.2500000   0.0000000   0.2500000  )
         6           Ru  tau(   6) = (   0.0000000   0.2500000   0.2500000  )
         7           Ru  tau(   7) = (   0.0000000   0.0000000   0.5000000  )
         8           Ru  tau(   8) = (   0.2500000   0.2500000   0.5000000  )
         9           Ru  tau(   9) = (   0.2500000   0.0000000   0.7500000  )
        10           Ru  tau(  10) = (   0.0000000   0.2500000   0.7500000  )
        11           Ru  tau(  11) = (   0.0000000   0.5000000   0.0000000  )
        12           Ru  tau(  12) = (   0.2500000   0.7500000   0.0000000  )
        13           Ru  tau(  13) = (   0.2500000   0.5000000   0.2500000  )
        14           Ru  tau(  14) = (   0.0000000   0.7500000   0.2500000  )
        15           Ru  tau(  15) = (   0.0000000   0.5000000   0.5000000  )
        16           Ru  tau(  16) = (   0.2500000   0.7500000   0.5000000  )
        17           Ru  tau(  17) = (   0.2500000   0.5000000   0.7500000  )
        18           Ru  tau(  18) = (   0.0000000   0.7500000   0.7500000  )
        19           Ru  tau(  19) = (   0.7500000   0.2500000   0.0000000  )
        20           Ru  tau(  20) = (   0.7500000   0.0000000   0.2500000  )
        21           Ru  tau(  21) = (   0.5000000   0.2500000   0.2500000  )
        22           Ru  tau(  22) = (   0.5000000   0.0000000   0.5000000  )
        23           Ru  tau(  23) = (   0.7500000   0.2500000   0.5000000  )
        24           Ru  tau(  24) = (   0.7500000   0.0000000   0.7500000  )
        25           Ru  tau(  25) = (   0.5000000   0.2500000   0.7500000  )
        26           Ru  tau(  26) = (   0.5000000   0.5000000   0.0000000  )
        27           Ru  tau(  27) = (   0.7500000   0.7500000   0.0000000  )
        28           Ru  tau(  28) = (   0.7500000   0.5000000   0.2500000  )
        29           Ru  tau(  29) = (   0.5000000   0.7500000   0.2500000  )
        30           Ru  tau(  30) = (   0.5000000   0.5000000   0.5000000  )
        31           Ru  tau(  31) = (   0.7500000   0.7500000   0.5000000  )
        32           Ru  tau(  32) = (   0.7500000   0.5000000   0.7500000  )
        33           Ru  tau(  33) = (   0.5000000   0.7500000   0.7500000  )

     number of k points=    75  Marzari-Vanderbilt smearing, width (Ry)=  0.0400
                       cart. coord. in units 2pi/alat
        k(    1) = (   0.0555556   0.0555556   0.0555556), wk =   0.0219479
        k(    2) = (   0.0555556   0.0555556   0.1666667), wk =   0.0438957
        k(    3) = (   0.0555556   0.0555556   0.2777778), wk =   0.0438957
        k(    4) = (   0.0555556   0.0555556   0.3888889), wk =   0.0438957
        k(    5) = (   0.0555556   0.0555556  -0.5000000), wk =   0.0219479
        k(    6) = (   0.0555556   0.1666667   0.1666667), wk =   0.0219479
        k(    7) = (   0.0555556   0.1666667   0.2777778), wk =   0.0438957
        k(    8) = (   0.0555556   0.1666667   0.3888889), wk =   0.0438957
        k(    9) = (   0.0555556   0.1666667  -0.5000000), wk =   0.0219479
        k(   10) = (   0.0555556   0.2777778   0.2777778), wk =   0.0219479
        k(   11) = (   0.0555556   0.2777778   0.3888889), wk =   0.0438957
        k(   12) = (   0.0555556   0.2777778  -0.5000000), wk =   0.0219479
        k(   13) = (   0.0555556   0.3888889   0.3888889), wk =   0.0219479
        k(   14) = (   0.0555556   0.3888889  -0.5000000), wk =   0.0219479
        k(   15) = (   0.0555556  -0.5000000  -0.5000000), wk =   0.0054870
        k(   16) = (   0.1666667   0.1666667   0.1666667), wk =   0.0219479
        k(   17) = (   0.1666667   0.1666667   0.2777778), wk =   0.0438957
        k(   18) = (   0.1666667   0.1666667   0.3888889), wk =   0.0438957
        k(   19) = (   0.1666667   0.1666667  -0.5000000), wk =   0.0219479
        k(   20) = (   0.1666667   0.2777778   0.2777778), wk =   0.0219479
        k(   21) = (   0.1666667   0.2777778   0.3888889), wk =   0.0438957
        k(   22) = (   0.1666667   0.2777778  -0.5000000), wk =   0.0219479
        k(   23) = (   0.1666667   0.3888889   0.3888889), wk =   0.0219479
        k(   24) = (   0.1666667   0.3888889  -0.5000000), wk =   0.0219479
        k(   25) = (   0.1666667  -0.5000000  -0.5000000), wk =   0.0054870
        k(   26) = (   0.2777778   0.2777778   0.2777778), wk =   0.0219479
        k(   27) = (   0.2777778   0.2777778   0.3888889), wk =   0.0438957
        k(   28) = (   0.2777778   0.2777778  -0.5000000), wk =   0.0219479
        k(   29) = (   0.2777778   0.3888889   0.3888889), wk =   0.0219479
        k(   30) = (   0.2777778   0.3888889  -0.5000000), wk =   0.0219479
        k(   31) = (   0.2777778  -0.5000000  -0.5000000), wk =   0.0054870
        k(   32) = (   0.3888889   0.3888889   0.3888889), wk =   0.0219479
        k(   33) = (   0.3888889   0.3888889  -0.5000000), wk =   0.0219479
        k(   34) = (   0.3888889  -0.5000000  -0.5000000), wk =   0.0054870
        k(   35) = (  -0.5000000  -0.5000000  -0.5000000), wk =   0.0027435
        k(   36) = (   0.1666667  -0.0555556   0.0555556), wk =   0.0219479
        k(   37) = (   0.2777778  -0.0555556   0.0555556), wk =   0.0219479
        k(   38) = (   0.3888889  -0.0555556   0.0555556), wk =   0.0219479
        k(   39) = (  -0.5000000  -0.0555556   0.0555556), wk =   0.0109739
        k(   40) = (   0.1666667  -0.1666667   0.0555556), wk =   0.0438957
        k(   41) = (   0.2777778  -0.1666667   0.0555556), wk =   0.0438957
        k(   42) = (   0.1666667   0.2777778   0.0555556), wk =   0.0438957
        k(   43) = (   0.3888889  -0.1666667   0.0555556), wk =   0.0438957
        k(   44) = (   0.1666667   0.3888889   0.0555556), wk =   0.0438957
        k(   45) = (  -0.5000000  -0.1666667   0.0555556), wk =   0.0219479
        k(   46) = (   0.1666667  -0.5000000   0.0555556), wk =   0.0219479
        k(   47) = (   0.2777778  -0.2777778   0.0555556), wk =   0.0438957
        k(   48) = (   0.3888889  -0.2777778   0.0555556), wk =   0.0438957
        k(   49) = (   0.2777778   0.3888889   0.0555556), wk =   0.0438957
        k(   50) = (  -0.5000000  -0.2777778   0.0555556), wk =   0.0219479
        k(   51) = (   0.2777778  -0.5000000   0.0555556), wk =   0.0219479
        k(   52) = (   0.3888889  -0.3888889   0.0555556), wk =   0.0438957
        k(   53) = (  -0.5000000  -0.3888889   0.0555556), wk =   0.0219479
        k(   54) = (   0.3888889  -0.5000000   0.0555556), wk =   0.0219479
        k(   55) = (  -0.5000000   0.5000000   0.0555556), wk =   0.0109739
        k(   56) = (   0.2777778  -0.1666667   0.1666667), wk =   0.0219479
        k(   57) = (   0.3888889  -0.1666667   0.1666667), wk =   0.0219479
        k(   58) = (  -0.5000000  -0.1666667   0.1666667), wk =   0.0109739
        k(   59) = (   0.2777778  -0.2777778   0.1666667), wk =   0.0438957
        k(   60) = (   0.3888889  -0.2777778   0.1666667), wk =   0.0438957
        k(   61) = (   0.2777778   0.3888889   0.1666667), wk =   0.0438957
        k(   62) = (  -0.5000000  -0.2777778   0.1666667), wk =   0.0219479
        k(   63) = (   0.2777778  -0.5000000   0.1666667), wk =   0.0219479
        k(   64) = (   0.3888889  -0.3888889   0.1666667), wk =   0.0438957
        k(   65) = (  -0.5000000  -0.3888889   0.1666667), wk =   0.0219479
        k(   66) = (   0.3888889  -0.5000000   0.1666667), wk =   0.0219479
        k(   67) = (  -0.5000000   0.5000000   0.1666667), wk =   0.0109739
        k(   68) = (   0.3888889  -0.2777778   0.2777778), wk =   0.0219479
        k(   69) = (  -0.5000000  -0.2777778   0.2777778), wk =   0.0109739
        k(   70) = (   0.3888889  -0.3888889   0.2777778), wk =   0.0438957
        k(   71) = (  -0.5000000  -0.3888889   0.2777778), wk =   0.0219479
        k(   72) = (   0.3888889  -0.5000000   0.2777778), wk =   0.0219479
        k(   73) = (  -0.5000000   0.5000000   0.2777778), wk =   0.0109739
        k(   74) = (  -0.5000000  -0.3888889   0.3888889), wk =   0.0109739
        k(   75) = (  -0.5000000   0.5000000   0.3888889), wk =   0.0109739

     Dense  grid:   449479 G-vectors     FFT dimensions: (  96,  96,  96)

     Smooth grid:   241377 G-vectors     FFT dimensions: (  80,  80,  80)

     Estimated max dynamical RAM per process >     190.86 MB

     Estimated total dynamical RAM >      13.42 GB

     Check: negative core charge=   -0.000002

     Initial potential from superposition of free atoms

     starting charge  527.97896, renormalised to  528.00000
     Starting wfcs are  330 randomized atomic wfcs
     Checking if some PAW data can be deallocated... 

     total cpu time spent up to now is       24.1 secs

     Self-consistent Calculation

     iteration #  1     ecut=    71.00 Ry     beta= 0.10
     Davidson diagonalization with overlap
     ethr =  1.00E-02,  avg # of iterations =  4.0

     Threshold (ethr) on eigenvalues was too large:
     Diagonalizing with lowered threshold

     Davidson diagonalization with overlap
     ethr =  3.31E-04,  avg # of iterations =  4.3

     total cpu time spent up to now is      165.1 secs

     total energy              =  -14243.56773162 Ry
     estimated scf accuracy    <       1.90796113 Ry

     iteration #  2     ecut=    71.00 Ry     beta= 0.10
     Davidson diagonalization with overlap
     ethr =  3.61E-04,  avg # of iterations =  1.0

     total cpu time spent up to now is      218.1 secs

     total energy              =  -14243.41108918 Ry
     estimated scf accuracy    <       1.09321214 Ry

     iteration #  3     ecut=    71.00 Ry     beta= 0.10
     Davidson diagonalization with overlap
     c_bands:  1 eigenvalues not converged
     ethr =  2.07E-04,  avg # of iterations =  2.1

     total cpu time spent up to now is      274.4 secs

     total energy              =  -14243.39186204 Ry
     estimated scf accuracy    <       0.23732327 Ry

     iteration #  4     ecut=    71.00 Ry     beta= 0.10
     Davidson diagonalization with overlap
     c_bands:  2 eigenvalues not converged
     ethr =  4.49E-05,  avg # of iterations =  4.4

     total cpu time spent up to now is      338.8 secs

     total energy              =  -14243.39134211 Ry
     estimated scf accuracy    <       0.07677702 Ry

     iteration #  5     ecut=    71.00 Ry     beta= 0.10
     Davidson diagonalization with overlap
     ethr =  1.45E-05,  avg # of iterations =  4.3

     total cpu time spent up to now is      402.6 secs

     total energy              =  -14243.38713646 Ry
     estimated scf accuracy    <       0.03539145 Ry

     iteration #  6     ecut=    71.00 Ry     beta= 0.10
     Davidson diagonalization with overlap
     ethr =  6.70E-06,  avg # of iterations =  2.9

     total cpu time spent up to now is      465.1 secs

     total energy              =  -14243.39123669 Ry
     estimated scf accuracy    <       0.00756011 Ry

     iteration #  7     ecut=    71.00 Ry     beta= 0.10
     Davidson diagonalization with overlap
     ethr =  1.43E-06,  avg # of iterations =  6.1

     total cpu time spent up to now is      546.4 secs

     total energy              =  -14243.38906271 Ry
     estimated scf accuracy    <       0.01347527 Ry

     iteration #  8     ecut=    71.00 Ry     beta= 0.10
     Davidson diagonalization with overlap
     ethr =  1.43E-06,  avg # of iterations =  2.0

     total cpu time spent up to now is      608.5 secs

     total energy              =  -14243.38794765 Ry
     estimated scf accuracy    <       0.00436045 Ry

     iteration #  9     ecut=    71.00 Ry     beta= 0.10
     Davidson diagonalization with overlap
     ethr =  8.26E-07,  avg # of iterations =  2.0

     total cpu time spent up to now is      678.2 secs

     total energy              =  -14243.38846184 Ry
     estimated scf accuracy    <       0.00040008 Ry

     iteration # 10     ecut=    71.00 Ry     beta= 0.10
     Davidson diagonalization with overlap
     ethr =  7.58E-08,  avg # of iterations =  2.1

     total cpu time spent up to now is      744.9 secs

     total energy              =  -14243.38842999 Ry
     estimated scf accuracy    <       0.00024665 Ry

     iteration # 11     ecut=    71.00 Ry     beta= 0.10
     Davidson diagonalization with overlap
     ethr =  4.67E-08,  avg # of iterations =  2.0

     total cpu time spent up to now is      809.8 secs

     total energy              =  -14243.38841869 Ry
     estimated scf accuracy    <       0.00015439 Ry

     iteration # 12     ecut=    71.00 Ry     beta= 0.10
     Davidson diagonalization with overlap
     ethr =  2.92E-08,  avg # of iterations =  1.0

     total cpu time spent up to now is      863.0 secs

     total energy              =  -14243.38841224 Ry
     estimated scf accuracy    <       0.00004145 Ry

     iteration # 13     ecut=    71.00 Ry     beta= 0.10
     Davidson diagonalization with overlap
     ethr =  7.85E-09,  avg # of iterations =  2.0

     total cpu time spent up to now is      930.6 secs

     total energy              =  -14243.38841888 Ry
     estimated scf accuracy    <       0.00000410 Ry

     iteration # 14     ecut=    71.00 Ry     beta= 0.10
     Davidson diagonalization with overlap
     ethr =  7.77E-10,  avg # of iterations =  2.0

     total cpu time spent up to now is      998.9 secs

     total energy              =  -14243.38841769 Ry
     estimated scf accuracy    <       0.00000546 Ry

     iteration # 15     ecut=    71.00 Ry     beta= 0.10
     Davidson diagonalization with overlap
     ethr =  7.77E-10,  avg # of iterations =  2.0

     total cpu time spent up to now is     1069.5 secs

     End of self-consistent calculation

          k = 0.0556 0.0556 0.0556 ( 30224 PWs)   bands (ev):

   -51.2021 -51.1492 -49.1909 -49.1909 -49.1863 -49.1863 -49.1493 -49.1442
   -49.0091 -48.9794 -48.8553 -48.8089 -48.7957 -48.7631 -48.7593 -48.7484
   -48.7466 -48.7464 -48.7426 -48.7361 -48.7228 -48.7228 -48.7021 -48.6934
   -48.6865 -48.6852 -48.6849 -48.6739 -48.6640 -48.6115 -48.6033 -48.6032
   -48.5910 -22.7169 -22.7169 -22.6666 -22.6666 -21.4963 -21.2405 -19.7038
   -19.6627 -19.4582 -19.4354 -19.3820 -19.3819 -19.3416 -19.3048 -19.2317
   -19.2238 -19.2227 -19.1843 -19.1823 -19.1338 -19.1239 -19.1196 -19.1132
   -19.1088 -19.0939 -19.0781 -19.0719 -19.0529 -19.0091 -19.0041 -18.9833
   -18.9765 -18.9670 -18.9609 -18.9514 -18.9506 -18.9421 -18.9151 -18.9115
   -18.9023 -18.8649 -18.8586 -18.8387 -18.8380 -18.8287 -18.8152 -18.8122
   -18.8023 -18.7956 -18.7748 -18.7606 -18.7560 -18.7253 -18.6851 -18.6832
   -18.6793 -18.6788 -18.6737 -18.6682 -18.6579 -18.6538 -18.6481 -18.6449
   -18.6202 -18.6101 -18.6063 -18.6052 -18.5918 -18.5563 -18.5545 -18.5458
   -18.5317 -18.5146 -18.4940 -18.4923 -18.4864 -18.4852 -18.4789 -18.4654
   -18.4652 -18.4496 -18.4484 -18.4468 -18.4461 -18.4450 -18.4445 -18.4359
   -18.4342 -18.4287 -18.4168 -18.4141 -18.4131 -18.3532 -18.3502 -18.3376
   -18.2138 -18.2130 -18.1938 -18.1922  15.5200  15.7480  15.8533  16.2777
    16.4439  16.4824  16.4919  16.8293  17.0748  17.0798  17.5849  17.7423
    17.8858  17.9364  18.0814  18.2872  18.2917  18.3201  18.4076  18.5439
    18.5887  18.6571  18.6590  18.6964  18.8323  18.9011  19.0836  19.0936
    19.2389  19.2772  19.3100  19.4835  19.4876  19.5508  19.5922  19.6048
    19.6143  19.7451  19.7798  19.8158  19.8247  19.9058  19.9082  19.9801
    19.9821  20.0384  20.0470  20.1018  20.2442  20.2924  20.3252  20.3304
    20.3688  20.3734  20.3969  20.3994  20.4410  20.4524  20.5139  20.5279
    20.5579  20.6044  20.6414  20.7090  20.7198  20.7350  20.7653  20.7810
    20.8204  20.8395  20.8506  20.8744  20.9210  20.9676  20.9862  21.0022
    21.0892  21.1310  21.1859  21.1914  21.3763  21.4012  21.4177  21.4356
    21.4552  21.5377  21.5988  21.7013  21.8636  21.9399  21.9821  22.0956
    22.1075  22.1342  22.1819  22.3960  22.4365  22.6148  22.6312  22.7225
    22.7303  22.7453  22.7649  22.7671  22.8498  22.8844  22.9021  22.9106
    22.9455  22.9687  23.0328  23.0351  23.1466  23.1957  23.2486  23.3637
    23.3762  23.3924  23.4167  23.4665  23.4714  23.5072  23.5108  23.5552
    23.5732  23.5906  23.6235  23.7030  23.7284  23.7591  23.7681  23.8467
    23.8580  23.8900  23.9606  24.0272  24.2828  24.3513  24.3604  24.4159
    24.4731  24.6663  24.7351  24.7504  24.7885  24.8099  24.8343  24.9746
    24.9762  25.0913  25.2155  25.4811  25.5524  25.5651  25.6349  25.6433
    25.6521  25.6924  25.7033  25.8267  25.8447  25.9003  25.9349  26.1039
    26.1543  26.1745  26.1987  26.2273  26.2303  26.2531  26.2600  26.3148
    26.3878  26.5446  26.6547  26.8277  27.5271  27.5486  27.6608  27.7052
    27.7675  27.9498  27.9552  28.1676  28.2140

          k = 0.0556 0.0556 0.1667 ( 30207 PWs)   bands (ev):

   -51.2021 -51.1492 -49.1923 -49.1909 -49.1868 -49.1863 -49.1487 -49.1439
   -49.0073 -48.9789 -48.8558 -48.8085 -48.7960 -48.7682 -48.7591 -48.7510
   -48.7474 -48.7470 -48.7409 -48.7285 -48.7228 -48.7222 -48.7018 -48.6936
   -48.6874 -48.6852 -48.6833 -48.6751 -48.6653 -48.6112 -48.6035 -48.6026
   -48.5917 -22.7169 -22.7169 -22.6672 -22.6666 -21.4964 -21.2397 -19.6990
   -19.6672 -19.4490 -19.4276 -19.3771 -19.3743 -19.3401 -19.3059 -19.2336
   -19.2178 -19.2113 -19.2001 -19.1920 -19.1473 -19.1365 -19.1309 -19.1171
   -19.1118 -19.0872 -19.0840 -19.0621 -19.0519 -19.0069 -18.9984 -18.9890
   -18.9844 -18.9759 -18.9738 -18.9552 -18.9541 -18.9330 -18.9216 -18.9125
   -18.8835 -18.8801 -18.8559 -18.8515 -18.8439 -18.8362 -18.8188 -18.8040
   -18.7924 -18.7829 -18.7798 -18.7635 -18.7387 -18.7328 -18.6848 -18.6820
   -18.6787 -18.6693 -18.6631 -18.6607 -18.6519 -18.6426 -18.6360 -18.6290
   -18.6185 -18.6084 -18.6061 -18.6049 -18.5792 -18.5598 -18.5549 -18.5488
   -18.5425 -18.5232 -18.4976 -18.4903 -18.4871 -18.4805 -18.4749 -18.4724
   -18.4669 -18.4574 -18.4560 -18.4505 -18.4458 -18.4453 -18.4419 -18.4334
   -18.4316 -18.4252 -18.4213 -18.4148 -18.4130 -18.3630 -18.3518 -18.3424
   -18.2135 -18.2064 -18.1979 -18.1919  15.5284  15.7444  15.8823  16.3408
    16.4316  16.4768  16.5044  16.8219  17.0780  17.0935  17.5596  17.8011
    17.9571  17.9958  18.1399  18.1792  18.3411  18.3549  18.4628  18.5010
    18.6273  18.6613  18.6813  18.7565  18.8205  18.9125  19.0115  19.1437
    19.1544  19.2585  19.3195  19.3733  19.4897  19.5080  19.5295  19.5481
    19.5776  19.5872  19.6919  19.7261  19.7522  19.7882  19.8445  19.8722
    19.9569  20.0083  20.0238  20.0385  20.0915  20.1472  20.1689  20.2299
    20.2672  20.3747  20.3916  20.4137  20.4366  20.4666  20.4992  20.5699
    20.5914  20.6408  20.6965  20.7241  20.7418  20.7708  20.8118  20.8469
    20.8540  20.9154  20.9240  20.9433  21.0250  21.0777  21.0963  21.1581
    21.2173  21.2465  21.2712  21.2838  21.3275  21.3953  21.4457  21.4817
    21.4950  21.5359  21.6012  21.7049  21.8654  21.9106  21.9673  21.9914
    22.0471  22.1645  22.2191  22.2789  22.3779  22.4722  22.5203  22.5465
    22.6258  22.6939  22.7706  22.7939  22.8667  22.8965  22.9589  22.9661
    23.0110  23.0238  23.0477  23.1039  23.2015  23.2577  23.2982  23.3373
    23.3836  23.4330  23.4733  23.4990  23.5171  23.5703  23.5884  23.6565
    23.7084  23.7228  23.7571  23.7683  23.8231  23.8836  23.9199  23.9673
    24.0335  24.0893  24.1044  24.1344  24.1592  24.1886  24.2303  24.3018
    24.3756  24.4710  24.5164  24.7240  24.7945  24.8193  24.9261  24.9825
    25.0712  25.1108  25.2353  25.3156  25.3728  25.4174  25.4904  25.5829
    25.5947  25.6181  25.6543  25.7266  25.7742  25.7981  25.9051  25.9550
    26.0216  26.0973  26.1191  26.1276  26.2069  26.2576  26.2814  26.4465
    26.6220  26.6819  26.8209  27.0397  27.0947  27.2207  27.4110  27.5407
    27.6228  27.7199  28.2019  28.2229  28.2785

          k = 0.0556 0.0556 0.2778 ( 30183 PWs)   bands (ev):

   -51.2021 -51.1492 -49.1943 -49.1909 -49.1875 -49.1863 -49.1478 -49.1436
   -49.0045 -48.9783 -48.8567 -48.8080 -48.7964 -48.7740 -48.7588 -48.7524
   -48.7490 -48.7476 -48.7410 -48.7228 -48.7213 -48.7182 -48.7013 -48.6939
   -48.6892 -48.6855 -48.6807 -48.6769 -48.6676 -48.6108 -48.6040 -48.6015
   -48.5928 -22.7170 -22.7169 -22.6681 -22.6666 -21.4964 -21.2386 -19.6918
   -19.6737 -19.4322 -19.4141 -19.3730 -19.3608 -19.3296 -19.3078 -19.2390
   -19.2298 -19.2078 -19.2058 -19.1947 -19.1711 -19.1579 -19.1360 -19.1179
   -19.1097 -19.1041 -19.0851 -19.0537 -19.0367 -19.0252 -19.0053 -18.9940
   -18.9913 -18.9820 -18.9704 -18.9573 -18.9485 -18.9345 -18.9210 -18.9083
   -18.9008 -18.8730 -18.8703 -18.8591 -18.8422 -18.8350 -18.8143 -18.8097
   -18.8001 -18.7897 -18.7835 -18.7539 -18.7355 -18.7083 -18.6845 -18.6819
   -18.6722 -18.6624 -18.6580 -18.6373 -18.6369 -18.6272 -18.6211 -18.6087
   -18.6075 -18.6059 -18.5995 -18.5899 -18.5685 -18.5674 -18.5605 -18.5540
   -18.5371 -18.5359 -18.5093 -18.5060 -18.4997 -18.4815 -18.4741 -18.4726
   -18.4681 -18.4672 -18.4552 -18.4476 -18.4448 -18.4436 -18.4399 -18.4380
   -18.4337 -18.4227 -18.4205 -18.4179 -18.4118 -18.3813 -18.3556 -18.3519
   -18.2133 -18.2091 -18.1920 -18.1901  15.5415  15.7389  15.9234  16.3733
    16.4634  16.4907  16.5608  16.8133  17.0833  17.1120  17.5237  17.7972
    17.9192  18.0963  18.1688  18.2555  18.4195  18.4707  18.5410  18.5999
    18.6678  18.6819  18.7274  18.7728  18.8430  18.8810  18.9309  19.0566
    19.1075  19.1588  19.2178  19.2486  19.3572  19.3783  19.4243  19.4416
    19.4906  19.5346  19.5732  19.6373  19.6541  19.7074  19.7766  19.8250
    19.8504  19.9082  19.9472  19.9765  20.0547  20.1104  20.1524  20.2407
    20.2639  20.3400  20.3697  20.3826  20.3958  20.4307  20.4622  20.5347
    20.5764  20.5938  20.6239  20.6595  20.7391  20.8119  20.8145  20.8768
    20.8871  20.9435  21.0240  21.0654  21.1016  21.1442  21.1952  21.2377
    21.3255  21.3353  21.3637  21.3688  21.4179  21.4780  21.5499  21.5634
    21.7066  21.7403  21.7779  21.8028  21.8342  21.8679  21.9620  21.9682
    22.0054  22.1068  22.1289  22.2065  22.2119  22.3064  22.3507  22.3708
    22.3983  22.7421  22.8123  22.8681  22.9154  22.9645  22.9925  23.0576
    23.0672  23.0927  23.1981  23.2330  23.2847  23.3279  23.3713  23.4107
    23.4127  23.4692  23.5170  23.5736  23.6014  23.6130  23.6595  23.6709
    23.6919  23.7279  23.7736  23.7777  23.8549  23.8938  23.9286  23.9841
    24.0052  24.1172  24.2335  24.2536  24.2781  24.3550  24.3797  24.4416
    24.4663  24.5457  24.5634  24.6551  24.7413  24.7961  24.9471  24.9727
    25.0763  25.1126  25.1244  25.1684  25.2228  25.3055  25.3302  25.3780
    25.4183  25.5198  25.6365  25.6569  25.7158  25.7398  25.8097  25.8386
    25.9130  25.9319  25.9666  26.0210  26.2074  26.2596  26.2867  26.4530
    26.5877  26.6380  26.8798  26.9419  26.9738  27.1330  27.1740  27.3093
    27.5398  27.6356  28.1261  28.1494  28.6471

          k = 0.0556 0.0556 0.3889 ( 30161 PWs)   bands (ev):

   -51.2020 -51.1492 -49.1960 -49.1909 -49.1881 -49.1863 -49.1471 -49.1432
   -49.0020 -48.9778 -48.8575 -48.8074 -48.7968 -48.7779 -48.7583 -48.7533
   -48.7503 -48.7481 -48.7413 -48.7228 -48.7205 -48.7083 -48.7008 -48.6942
   -48.6928 -48.6857 -48.6789 -48.6773 -48.6705 -48.6104 -48.6044 -48.6001
   -48.5942 -22.7170 -22.7169 -22.6689 -22.6666 -21.4965 -21.2376 -19.6868
   -19.6780 -19.4127 -19.4004 -19.3716 -19.3458 -19.3119 -19.3083 -19.2609
   -19.2478 -19.2132 -19.2023 -19.1989 -19.1799 -19.1762 -19.1386 -19.1244
   -19.1068 -19.1007 -19.0884 -19.0588 -19.0470 -19.0255 -19.0095 -19.0020
   -18.9887 -18.9839 -18.9806 -18.9479 -18.9446 -18.9339 -18.9184 -18.9087
   -18.8920 -18.8831 -18.8713 -18.8597 -18.8502 -18.8419 -18.8345 -18.8201
   -18.8116 -18.7861 -18.7719 -18.7421 -18.7322 -18.6992 -18.6835 -18.6811
   -18.6597 -18.6569 -18.6387 -18.6311 -18.6246 -18.6189 -18.6112 -18.6057
   -18.5896 -18.5883 -18.5851 -18.5777 -18.5702 -18.5599 -18.5570 -18.5470
   -18.5419 -18.5373 -18.5204 -18.5157 -18.5121 -18.4986 -18.4898 -18.4772
   -18.4711 -18.4659 -18.4600 -18.4480 -18.4435 -18.4415 -18.4371 -18.4343
   -18.4261 -18.4238 -18.4208 -18.4194 -18.4108 -18.4043 -18.3652 -18.3594
   -18.2150 -18.2130 -18.1914 -18.1802  15.5532  15.7343  15.9565  16.3384
    16.4864  16.5234  16.7609  16.8106  17.0854  17.1280  17.4260  17.4959
    18.0830  18.2614  18.3490  18.4184  18.4896  18.5303  18.6367  18.6562
    18.6732  18.6889  18.7428  18.7819  18.8263  18.8622  18.9153  18.9661
    18.9786  19.0643  19.0911  19.1452  19.1660  19.1873  19.3088  19.3592
    19.4198  19.4855  19.5064  19.5699  19.6185  19.6807  19.7344  19.7677
    19.8620  19.9313  19.9362  20.0038  20.0296  20.0579  20.1400  20.1841
    20.2108  20.2411  20.2848  20.3201  20.4010  20.4517  20.4656  20.5159
    20.5326  20.5708  20.6301  20.7142  20.7396  20.7756  20.8526  20.8858
    20.9377  20.9753  21.0328  21.0619  21.0847  21.1190  21.1499  21.2304
    21.2652  21.3520  21.4174  21.5371  21.5901  21.6169  21.6479  21.6836
    21.7177  21.7329  21.8443  21.9006  21.9173  21.9385  21.9805  21.9933
    22.0201  22.1110  22.1362  22.1915  22.2685  22.3355  22.3551  22.3773
    22.4551  22.7236  22.7563  22.8500  22.8975  22.9927  23.0379  23.1284
    23.1513  23.1622  23.2185  23.2494  23.2863  23.3119  23.3313  23.3660
    23.4304  23.4405  23.4769  23.5170  23.5302  23.5461  23.5553  23.6204
    23.6258  23.6673  23.7676  23.8312  23.8710  23.8895  23.9488  24.0703
    24.1666  24.2052  24.2456  24.3594  24.4096  24.5212  24.5976  24.6400
    24.6788  24.7399  24.7738  24.7998  24.8251  24.9131  24.9604  24.9740
    25.0075  25.0580  25.1003  25.1562  25.1794  25.2171  25.2381  25.3016
    25.3501  25.4152  25.4642  25.4960  25.5586  25.5997  25.7235  25.8125
    25.8274  25.8748  25.9031  26.0093  26.0863  26.1755  26.2109  26.2604
    26.2941  26.3424  26.4951  26.6733  26.9311  27.1785  27.3474  27.4824
    27.6340  27.8479  27.9868  28.0777  28.5086

          k = 0.0556 0.0556-0.5000 ( 30178 PWs)   bands (ev):

   -51.2020 -51.1492 -49.1966 -49.1909 -49.1883 -49.1863 -49.1468 -49.1431
   -49.0010 -48.9775 -48.8578 -48.8072 -48.7971 -48.7793 -48.7580 -48.7537
   -48.7509 -48.7483 -48.7414 -48.7228 -48.7202 -48.7013 -48.7007 -48.6976
   -48.6943 -48.6858 -48.6794 -48.6750 -48.6729 -48.6102 -48.6046 -48.5993
   -48.5950 -22.7171 -22.7169 -22.6692 -22.6666 -21.4965 -21.2372 -19.6864
   -19.6781 -19.4026 -19.3947 -19.3711 -19.3384 -19.3121 -19.2971 -19.2750
   -19.2526 -19.2186 -19.2144 -19.2015 -19.1768 -19.1734 -19.1462 -19.1265
   -19.0998 -19.0946 -19.0906 -19.0686 -19.0572 -19.0207 -19.0059 -19.0034
   -18.9974 -18.9859 -18.9762 -18.9479 -18.9476 -18.9396 -18.9051 -18.8996
   -18.8865 -18.8817 -18.8774 -18.8605 -18.8590 -18.8473 -18.8405 -18.8263
   -18.8226 -18.7870 -18.7606 -18.7348 -18.7311 -18.7011 -18.6824 -18.6807
   -18.6563 -18.6504 -18.6422 -18.6244 -18.6147 -18.6088 -18.6032 -18.5966
   -18.5959 -18.5846 -18.5788 -18.5763 -18.5714 -18.5681 -18.5558 -18.5469
   -18.5288 -18.5279 -18.5209 -18.5186 -18.5112 -18.5109 -18.4880 -18.4878
   -18.4816 -18.4685 -18.4609 -18.4490 -18.4419 -18.4412 -18.4357 -18.4346
   -18.4264 -18.4238 -18.4216 -18.4202 -18.4110 -18.4068 -18.3740 -18.3610
   -18.2170 -18.2130 -18.1913 -18.1762  15.5579  15.7325  15.9689  16.3241
    16.4891  16.5356  16.8056  17.0470  17.0833  17.0907  17.1344  17.4842
    18.2607  18.3023  18.4457  18.4768  18.5423  18.5866  18.5962  18.6436
    18.6749  18.6756  18.7369  18.7599  18.8121  18.8152  18.9094  18.9319
    18.9547  19.0486  19.0971  19.1046  19.1060  19.1888  19.2263  19.2685
    19.3146  19.3879  19.5114  19.5692  19.5906  19.6869  19.7731  19.8025
    19.8797  19.8801  19.9790  20.0126  20.0696  20.0700  20.0900  20.1368
    20.1656  20.1786  20.2011  20.2968  20.3918  20.4711  20.4839  20.5048
    20.5388  20.6362  20.6498  20.7211  20.7931  20.7946  20.8239  20.8828
    20.8971  20.9443  20.9750  21.0051  21.0997  21.1055  21.1569  21.2000
    21.3943  21.3977  21.4398  21.4909  21.5738  21.6266  21.6932  21.7136
    21.7471  21.7852  21.8418  21.8729  21.9050  21.9147  21.9675  21.9794
    22.0625  22.0874  22.1199  22.1938  22.3445  22.4195  22.5058  22.7103
    22.7396  22.7892  22.8166  22.8250  22.8530  22.9052  22.9269  22.9957
    23.0067  23.0478  23.1093  23.2196  23.2226  23.3156  23.3526  23.3683
    23.4007  23.4041  23.4821  23.4976  23.5218  23.5327  23.5483  23.5574
    23.5788  23.6973  23.7357  23.8130  23.8634  23.8940  23.9689  24.1271
    24.1611  24.2822  24.4476  24.4863  24.5428  24.6085  24.6804  24.7002
    24.7401  24.7713  24.8170  24.8300  24.9081  24.9143  25.0103  25.0526
    25.0640  25.0772  25.1211  25.1364  25.1467  25.1699  25.1778  25.2495
    25.3511  25.4233  25.4539  25.4957  25.5030  25.5878  25.6099  25.7039
    25.7807  25.8221  25.8900  25.9859  26.0491  26.0688  26.0804  26.1023
    26.2113  26.2606  26.2969  26.4846  27.0325  27.1948  27.3625  27.6744
    27.7635  27.8202  27.8502  28.2141  28.3473

          k = 0.0556 0.1667 0.1667 ( 30215 PWs)   bands (ev):

   -51.2021 -51.1493 -49.1923 -49.1923 -49.1868 -49.1868 -49.1480 -49.1437
   -49.0056 -48.9786 -48.8561 -48.8082 -48.7960 -48.7710 -48.7608 -48.7553
   -48.7485 -48.7476 -48.7321 -48.7270 -48.7223 -48.7221 -48.7012 -48.6938
   -48.6882 -48.6839 -48.6834 -48.6762 -48.6666 -48.6109 -48.6031 -48.6027
   -48.5923 -22.7169 -22.7169 -22.6672 -22.6672 -21.4964 -21.2390 -19.6935
   -19.6711 -19.4406 -19.4200 -19.3739 -19.3676 -19.3376 -19.3062 -19.2336
   -19.2110 -19.2100 -19.2028 -19.1985 -19.1606 -19.1488 -19.1353 -19.1257
   -19.1170 -19.0920 -19.0670 -19.0640 -19.0560 -19.0141 -19.0115 -19.0032
   -18.9738 -18.9726 -18.9647 -18.9631 -18.9587 -18.9378 -18.9366 -18.9050
   -18.8934 -18.8718 -18.8651 -18.8529 -18.8423 -18.8401 -18.8109 -18.7923
   -18.7855 -18.7799 -18.7684 -18.7476 -18.7449 -18.7331 -18.6859 -18.6859
   -18.6783 -18.6702 -18.6665 -18.6575 -18.6396 -18.6320 -18.6306 -18.6182
   -18.6177 -18.6064 -18.6010 -18.5938 -18.5732 -18.5637 -18.5584 -18.5546
   -18.5443 -18.5288 -18.4915 -18.4882 -18.4872 -18.4812 -18.4810 -18.4746
   -18.4733 -18.4695 -18.4563 -18.4549 -18.4517 -18.4422 -18.4400 -18.4294
   -18.4278 -18.4261 -18.4236 -18.4168 -18.4071 -18.3744 -18.3501 -18.3476
   -18.2098 -18.2035 -18.2015 -18.1922  15.5353  15.7396  15.9063  16.4101
    16.4304  16.4448  16.5335  16.8160  17.0748  17.1089  17.5343  17.8587
    18.0221  18.0572  18.1768  18.2009  18.3207  18.3837  18.4302  18.5050
    18.6526  18.6726  18.7004  18.7888  18.8482  18.9072  18.9656  19.1561
    19.1849  19.2069  19.2821  19.3582  19.3831  19.4053  19.4676  19.4681
    19.5021  19.5482  19.5947  19.6871  19.7195  19.7479  19.7515  19.8121
    19.8909  19.8986  20.0019  20.0185  20.0321  20.0900  20.1142  20.1578
    20.2597  20.3032  20.3520  20.3687  20.3993  20.5311  20.5314  20.5928
    20.6667  20.6800  20.6875  20.6899  20.7365  20.8347  20.8638  20.9169
    20.9537  21.0362  21.0759  21.0866  21.1087  21.1225  21.1742  21.2153
    21.2491  21.2579  21.2742  21.2962  21.3263  21.3953  21.4854  21.5024
    21.5039  21.5461  21.5539  21.7992  21.8072  21.8867  21.8872  21.9835
    22.0070  22.1943  22.2598  22.3183  22.3482  22.4122  22.4304  22.5807
    22.6149  22.7154  22.7347  22.7473  22.7889  22.8104  22.8531  22.9346
    22.9400  23.0269  23.0932  23.1474  23.1745  23.2915  23.2959  23.3518
    23.4068  23.4291  23.5089  23.5334  23.6298  23.6551  23.7050  23.7439
    23.7620  23.7683  23.8604  23.9067  23.9083  23.9379  23.9404  23.9940
    24.0569  24.1071  24.1309  24.1705  24.1975  24.2587  24.3274  24.3385
    24.3745  24.3923  24.4473  24.7021  24.7861  24.8337  24.9253  24.9821
    25.0299  25.0467  25.1303  25.2280  25.3376  25.4267  25.5060  25.5235
    25.5365  25.5779  25.5788  25.6520  25.6904  25.7783  25.8644  25.8802
    25.9604  26.0700  26.1045  26.1403  26.1482  26.2204  26.2337  26.2819
    26.4922  26.6545  26.6725  27.0143  27.2614  27.3861  27.4871  27.4949
    27.7970  27.9669  27.9775  28.1237  28.2072

          k = 0.0556 0.1667 0.2778 ( 30157 PWs)   bands (ev):

   -51.2020 -51.1492 -49.1943 -49.1922 -49.1875 -49.1868 -49.1471 -49.1433
   -49.0029 -48.9779 -48.8567 -48.8077 -48.7961 -48.7755 -48.7631 -48.7559
   -48.7502 -48.7482 -48.7301 -48.7223 -48.7214 -48.7183 -48.7002 -48.6941
   -48.6897 -48.6843 -48.6812 -48.6781 -48.6689 -48.6105 -48.6034 -48.6017
   -48.5934 -22.7170 -22.7169 -22.6681 -22.6672 -21.4965 -21.2379 -19.6861
   -19.6759 -19.4254 -19.4071 -19.3729 -19.3543 -19.3267 -19.3071 -19.2372
   -19.2299 -19.2115 -19.1996 -19.1892 -19.1788 -19.1628 -19.1491 -19.1282
   -19.1158 -19.1066 -19.0692 -19.0618 -19.0434 -19.0348 -19.0240 -19.0095
   -18.9862 -18.9787 -18.9689 -18.9551 -18.9493 -18.9470 -18.9314 -18.9104
   -18.8913 -18.8841 -18.8726 -18.8494 -18.8397 -18.8293 -18.8145 -18.7932
   -18.7814 -18.7791 -18.7635 -18.7442 -18.7368 -18.7132 -18.6873 -18.6830
   -18.6765 -18.6679 -18.6643 -18.6386 -18.6365 -18.6259 -18.6169 -18.6089
   -18.6056 -18.5990 -18.5908 -18.5790 -18.5730 -18.5634 -18.5611 -18.5540
   -18.5398 -18.5376 -18.5145 -18.4974 -18.4906 -18.4863 -18.4861 -18.4823
   -18.4765 -18.4704 -18.4549 -18.4522 -18.4501 -18.4436 -18.4370 -18.4359
   -18.4285 -18.4245 -18.4202 -18.4190 -18.4014 -18.3897 -18.3574 -18.3522
   -18.2126 -18.2051 -18.1953 -18.1898  15.5461  15.7325  15.9410  16.3833
    16.4412  16.5397  16.5989  16.8097  17.0775  17.1213  17.4986  17.8514
    17.9728  18.1651  18.2191  18.2964  18.3465  18.4558  18.5439  18.6081
    18.6887  18.6993  18.7359  18.7956  18.8317  18.9007  18.9470  19.0511
    19.1071  19.1518  19.1799  19.1880  19.2355  19.3293  19.3458  19.4124
    19.4743  19.5261  19.5402  19.5673  19.5994  19.6473  19.6776  19.7551
    19.7948  19.8690  19.9224  19.9845  20.0165  20.0562  20.1357  20.1954
    20.2447  20.2608  20.3090  20.3299  20.3632  20.4453  20.4657  20.4896
    20.5811  20.6883  20.7374  20.7815  20.8398  20.9242  20.9327  20.9442
    20.9884  21.0271  21.0829  21.1005  21.1417  21.1799  21.2049  21.2488
    21.3285  21.3450  21.3587  21.4104  21.4728  21.5395  21.5565  21.5792
    21.6376  21.6908  21.7327  21.7534  21.8284  21.8586  21.8918  21.9361
    22.0445  22.1145  22.1606  22.2248  22.2734  22.3306  22.3822  22.4645
    22.5120  22.6137  22.6620  22.7697  22.7841  22.8642  22.9300  22.9624
    22.9925  23.1085  23.1139  23.1573  23.2462  23.2974  23.3249  23.3548
    23.3867  23.4283  23.5377  23.5695  23.5994  23.6506  23.6644  23.7140
    23.7496  23.8064  23.8224  23.8512  23.9371  23.9560  24.0281  24.1246
    24.1645  24.1890  24.2427  24.2957  24.3336  24.3581  24.3866  24.4535
    24.4844  24.5361  24.6363  24.6643  24.7154  24.7711  24.9285  24.9399
    25.0148  25.0924  25.1427  25.2130  25.2514  25.3195  25.3398  25.4002
    25.4448  25.5198  25.5496  25.6070  25.6850  25.7474  25.7701  25.8506
    25.9099  25.9180  26.0214  26.0759  26.1082  26.1421  26.1846  26.2827
    26.3264  26.4599  26.6778  26.7916  27.1582  27.3961  27.4711  27.5605
    27.6960  27.7582  27.9481  28.6266  28.6708

          k = 0.0556 0.1667 0.3889 ( 30138 PWs)   bands (ev):

   -51.2020 -51.1492 -49.1960 -49.1922 -49.1881 -49.1868 -49.1464 -49.1429
   -49.0005 -48.9774 -48.8572 -48.8073 -48.7962 -48.7792 -48.7646 -48.7553
   -48.7522 -48.7486 -48.7301 -48.7223 -48.7207 -48.7085 -48.6994 -48.6943
   -48.6929 -48.6851 -48.6798 -48.6783 -48.6717 -48.6100 -48.6039 -48.6004
   -48.5948 -22.7170 -22.7169 -22.6689 -22.6672 -21.4966 -21.2369 -19.6852
   -19.6745 -19.4078 -19.3949 -19.3729 -19.3389 -19.3147 -19.3032 -19.2570
   -19.2436 -19.2147 -19.2067 -19.1923 -19.1725 -19.1716 -19.1627 -19.1265
   -19.1183 -19.1099 -19.0751 -19.0628 -19.0569 -19.0380 -19.0244 -19.0079
   -18.9979 -18.9906 -18.9734 -18.9653 -18.9594 -18.9407 -18.9104 -18.9065
   -18.8968 -18.8797 -18.8593 -18.8552 -18.8424 -18.8358 -18.8185 -18.8086
   -18.7891 -18.7718 -18.7565 -18.7395 -18.7367 -18.6978 -18.6848 -18.6794
   -18.6688 -18.6610 -18.6474 -18.6430 -18.6232 -18.6183 -18.6036 -18.5960
   -18.5925 -18.5905 -18.5853 -18.5753 -18.5691 -18.5627 -18.5521 -18.5482
   -18.5457 -18.5365 -18.5258 -18.5064 -18.5031 -18.4988 -18.4983 -18.4891
   -18.4846 -18.4681 -18.4614 -18.4535 -18.4486 -18.4393 -18.4361 -18.4338
   -18.4283 -18.4222 -18.4199 -18.4173 -18.4045 -18.3959 -18.3699 -18.3566
   -18.2164 -18.2061 -18.1955 -18.1807  15.5558  15.7264  15.9696  16.3447
    16.4457  16.5833  16.8010  16.8248  17.0821  17.1261  17.4664  17.4889
    18.1321  18.3266  18.3816  18.4136  18.4934  18.5488  18.5700  18.6895
    18.6971  18.7084  18.7512  18.7626  18.8353  18.8548  18.9197  18.9524
    18.9890  19.0020  19.0546  19.1042  19.1763  19.1815  19.2041  19.3360
    19.3867  19.4532  19.4739  19.5183  19.5863  19.6298  19.6569  19.6946
    19.8383  19.8779  19.9935  20.0013  20.0170  20.0328  20.1134  20.1296
    20.1821  20.2022  20.2753  20.2895  20.3188  20.3516  20.3771  20.4538
    20.6340  20.6766  20.7672  20.7815  20.8261  20.9100  20.9297  20.9400
    21.0087  21.0505  21.0964  21.1209  21.1549  21.2135  21.2342  21.2700
    21.3440  21.3723  21.4166  21.4650  21.5848  21.6303  21.6896  21.7096
    21.7458  21.7722  21.7871  21.8084  21.8715  21.8994  21.9801  22.0290
    22.0656  22.0994  22.1506  22.2393  22.2999  22.3417  22.3669  22.3795
    22.4289  22.5437  22.6626  22.7528  22.7816  22.8202  22.9174  22.9544
    22.9840  23.0565  23.0850  23.1271  23.1968  23.2193  23.2432  23.3828
    23.4260  23.4342  23.5166  23.5300  23.5824  23.6355  23.6606  23.7113
    23.7272  23.7847  23.8309  23.9144  23.9468  23.9712  24.0075  24.1369
    24.1801  24.2153  24.2414  24.4000  24.4151  24.4796  24.5134  24.6020
    24.6871  24.7357  24.7867  24.7972  24.8404  24.9061  24.9635  24.9878
    25.0329  25.0931  25.1112  25.1479  25.2098  25.2510  25.2771  25.3234
    25.3769  25.4441  25.4914  25.5113  25.6214  25.6462  25.7425  25.7660
    25.7873  25.9003  25.9648  26.0350  26.0889  26.1318  26.1572  26.1689
    26.2439  26.3533  26.5679  26.7518  26.8691  27.0434  27.1957  27.4298
    27.6257  28.0468  28.3367  28.5779  29.0236

          k = 0.0556 0.1667-0.5000 ( 30170 PWs)   bands (ev):

   -51.2020 -51.1492 -49.1966 -49.1922 -49.1883 -49.1868 -49.1462 -49.1428
   -48.9996 -48.9772 -48.8574 -48.8071 -48.7963 -48.7805 -48.7652 -48.7540
   -48.7540 -48.7488 -48.7301 -48.7224 -48.7204 -48.7013 -48.6999 -48.6970
   -48.6944 -48.6854 -48.6804 -48.6758 -48.6742 -48.6098 -48.6041 -48.5997
   -48.5956 -22.7171 -22.7169 -22.6692 -22.6672 -21.4966 -21.2365 -19.6866
   -19.6721 -19.3985 -19.3907 -19.3725 -19.3310 -19.3145 -19.2943 -19.2684
   -19.2490 -19.2209 -19.2139 -19.1929 -19.1728 -19.1676 -19.1630 -19.1371
   -19.1084 -19.1074 -19.0849 -19.0688 -19.0604 -19.0332 -19.0224 -19.0068
   -19.0063 -18.9959 -18.9758 -18.9676 -18.9660 -18.9379 -18.9093 -18.9030
   -18.8938 -18.8678 -18.8508 -18.8485 -18.8462 -18.8460 -18.8296 -18.8099
   -18.8037 -18.7736 -18.7453 -18.7398 -18.7312 -18.7006 -18.6815 -18.6788
   -18.6615 -18.6589 -18.6501 -18.6309 -18.6162 -18.6077 -18.5992 -18.5936
   -18.5912 -18.5877 -18.5857 -18.5714 -18.5701 -18.5646 -18.5603 -18.5525
   -18.5313 -18.5285 -18.5149 -18.5122 -18.5104 -18.5043 -18.5031 -18.4936
   -18.4869 -18.4847 -18.4663 -18.4527 -18.4482 -18.4378 -18.4355 -18.4344
   -18.4253 -18.4206 -18.4197 -18.4147 -18.4062 -18.3953 -18.3782 -18.3590
   -18.2177 -18.2064 -18.1960 -18.1769  15.5597  15.7240  15.9805  16.3301
    16.4474  16.5958  16.8055  17.0838  17.0939  17.1268  17.1598  17.4599
    18.2959  18.3510  18.4981  18.5220  18.5279  18.5546  18.6113  18.6622
    18.6699  18.7081  18.7157  18.7791  18.8184  18.8350  18.8656  18.8685
    18.9183  19.0014  19.0663  19.0900  19.1067  19.1534  19.1982  19.2427
    19.3538  19.3748  19.4059  19.4493  19.6325  19.6663  19.6878  19.7415
    19.8311  19.9670  19.9674  19.9799  19.9960  20.0090  20.1111  20.1229
    20.1488  20.1896  20.1938  20.2535  20.2933  20.3492  20.3956  20.4858
    20.6227  20.6275  20.7797  20.8079  20.8408  20.8508  20.9050  20.9395
    20.9744  21.0567  21.0884  21.1320  21.1699  21.2328  21.2802  21.3073
    21.3792  21.3999  21.4497  21.4943  21.5294  21.6318  21.6949  21.7018
    21.7688  21.7850  21.8579  21.8642  21.9330  21.9412  21.9820  22.0003
    22.0140  22.1028  22.1953  22.2324  22.3459  22.3846  22.4342  22.5412
    22.6200  22.6230  22.6763  22.7426  22.7742  22.7856  22.7995  22.8588
    22.8773  22.9248  23.0056  23.0865  23.1052  23.1605  23.1735  23.3202
    23.3281  23.4411  23.5496  23.5747  23.6415  23.6514  23.6911  23.7185
    23.7323  23.8065  23.8962  23.9376  23.9669  24.0244  24.0412  24.0861
    24.0972  24.1518  24.2713  24.3955  24.5381  24.5903  24.5964  24.7104
    24.7323  24.7436  24.8419  24.8476  24.9205  24.9391  25.0289  25.0651
    25.0736  25.1146  25.1465  25.1501  25.1776  25.2017  25.2464  25.2601
    25.3152  25.3369  25.4514  25.4608  25.5306  25.6477  25.6591  25.7637
    25.8067  25.9597  26.0152  26.0275  26.0548  26.1299  26.1602  26.1789
    26.2241  26.3475  26.4495  26.6263  26.6694  26.7996  27.2343  27.4040
    27.5654  28.2971  28.3287  28.7456  28.8167

          k = 0.0556 0.2778 0.2778 ( 30150 PWs)   bands (ev):

   -51.2020 -51.1492 -49.1943 -49.1942 -49.1875 -49.1875 -49.1462 -49.1428
   -49.0005 -48.9774 -48.8567 -48.8074 -48.7956 -48.7783 -48.7690 -48.7561
   -48.7515 -48.7489 -48.7216 -48.7214 -48.7198 -48.7178 -48.6986 -48.6943
   -48.6907 -48.6829 -48.6822 -48.6799 -48.6711 -48.6100 -48.6026 -48.6019
   -48.5945 -22.7170 -22.7170 -22.6681 -22.6681 -21.4966 -21.2368 -19.6845
   -19.6721 -19.4131 -19.3960 -19.3741 -19.3413 -19.3201 -19.3046 -19.2402
   -19.2281 -19.2246 -19.1956 -19.1884 -19.1768 -19.1749 -19.1481 -19.1437
   -19.1196 -19.1079 -19.0852 -19.0570 -19.0549 -19.0459 -19.0387 -19.0214
   -18.9995 -18.9792 -18.9765 -18.9664 -18.9635 -18.9380 -18.9155 -18.9145
   -18.9039 -18.8821 -18.8620 -18.8511 -18.8367 -18.8262 -18.7999 -18.7796
   -18.7688 -18.7585 -18.7470 -18.7360 -18.7240 -18.7115 -18.6896 -18.6855
   -18.6766 -18.6737 -18.6694 -18.6454 -18.6386 -18.6237 -18.6159 -18.6008
   -18.5994 -18.5883 -18.5849 -18.5747 -18.5657 -18.5593 -18.5530 -18.5472
   -18.5442 -18.5373 -18.5324 -18.5095 -18.4999 -18.4916 -18.4848 -18.4842
   -18.4794 -18.4740 -18.4599 -18.4584 -18.4514 -18.4474 -18.4377 -18.4330
   -18.4294 -18.4242 -18.4206 -18.4145 -18.3975 -18.3898 -18.3668 -18.3514
   -18.2161 -18.2013 -18.1943 -18.1886  15.5534  15.7229  15.9673  16.3889
    16.3954  16.6233  16.7118  16.8072  17.0759  17.1243  17.4621  17.9151
    18.0257  18.0780  18.3000  18.3181  18.4064  18.5098  18.6563  18.6578
    18.7168  18.7516  18.7689  18.8237  18.8294  18.8780  18.8960  18.9914
    19.0016  19.0034  19.0834  19.2192  19.2202  19.2710  19.2890  19.3111
    19.3425  19.4651  19.5331  19.5366  19.5656  19.6049  19.6180  19.7284
    19.7536  19.7663  19.7884  19.8553  19.9198  19.9775  20.1222  20.1432
    20.1882  20.2020  20.2617  20.2805  20.3986  20.4369  20.5593  20.5870
    20.6491  20.7588  20.7664  20.8883  20.9152  20.9561  20.9652  21.0111
    21.0638  21.0689  21.0873  21.1303  21.1553  21.1763  21.3250  21.3609
    21.3688  21.4473  21.4632  21.5199  21.5203  21.5526  21.6281  21.6610
    21.6770  21.7018  21.7506  21.7663  21.7977  21.8179  21.8338  21.9974
    22.0657  22.1015  22.2246  22.2369  22.2562  22.3305  22.4334  22.4499
    22.4759  22.5627  22.6096  22.6564  22.6759  22.7460  22.7465  22.8038
    22.8635  22.9210  23.0909  23.0932  23.1278  23.2143  23.2196  23.3007
    23.3325  23.3851  23.4294  23.6044  23.6307  23.7300  23.7703  23.8257
    23.8422  23.8954  23.8975  23.9730  23.9805  24.0013  24.1621  24.1658
    24.2035  24.2415  24.3054  24.3101  24.3655  24.4067  24.4561  24.4703
    24.5723  24.6012  24.6916  24.7273  24.7704  24.9057  24.9655  24.9965
    25.0036  25.0818  25.1326  25.1536  25.2394  25.2848  25.3592  25.3927
    25.4842  25.5347  25.5519  25.5821  25.6559  25.6828  25.8256  25.8394
    25.8795  25.9004  25.9537  25.9906  26.0082  26.0670  26.1489  26.1585
    26.2366  26.4561  26.4579  26.4830  26.9178  27.2514  27.5378  28.0647
    28.1448  28.2315  28.2501  28.3211  28.4066

          k = 0.0556 0.2778 0.3889 ( 30193 PWs)   bands (ev):

   -51.2020 -51.1492 -49.1959 -49.1942 -49.1881 -49.1875 -49.1455 -49.1424
   -48.9983 -48.9769 -48.8568 -48.8070 -48.7950 -48.7812 -48.7726 -48.7555
   -48.7530 -48.7493 -48.7217 -48.7209 -48.7189 -48.7087 -48.6973 -48.6946
   -48.6932 -48.6850 -48.6816 -48.6794 -48.6738 -48.6094 -48.6029 -48.6009
   -48.5959 -22.7171 -22.7170 -22.6689 -22.6681 -21.4967 -21.2359 -19.6880
   -19.6636 -19.3990 -19.3878 -19.3734 -19.3256 -19.3173 -19.2957 -19.2524
   -19.2410 -19.2175 -19.2156 -19.1847 -19.1816 -19.1605 -19.1590 -19.1368
   -19.1225 -19.1152 -19.0934 -19.0729 -19.0615 -19.0553 -19.0401 -19.0266
   -19.0169 -18.9959 -18.9856 -18.9743 -18.9632 -18.9277 -18.9257 -18.9151
   -18.8976 -18.8835 -18.8466 -18.8352 -18.8277 -18.8250 -18.7980 -18.7831
   -18.7599 -18.7483 -18.7405 -18.7354 -18.7269 -18.6952 -18.6914 -18.6798
   -18.6758 -18.6694 -18.6600 -18.6539 -18.6264 -18.6214 -18.6124 -18.6074
   -18.5898 -18.5758 -18.5737 -18.5688 -18.5675 -18.5636 -18.5551 -18.5503
   -18.5491 -18.5346 -18.5231 -18.5209 -18.5052 -18.5009 -18.4996 -18.4920
   -18.4848 -18.4753 -18.4661 -18.4634 -18.4457 -18.4449 -18.4372 -18.4351
   -18.4313 -18.4242 -18.4219 -18.4065 -18.3999 -18.3812 -18.3784 -18.3541
   -18.2184 -18.2057 -18.1923 -18.1816  15.5599  15.7146  15.9899  16.3533
    16.3982  16.6618  16.8084  16.9414  17.0789  17.1170  17.4323  17.6014
    18.1227  18.2276  18.4378  18.4489  18.5369  18.5704  18.5736  18.6496
    18.7622  18.7683  18.7936  18.8104  18.8321  18.8476  18.8728  18.9173
    18.9602  18.9692  19.0476  19.0675  19.1503  19.1969  19.2460  19.2725
    19.3350  19.3782  19.3953  19.4743  19.4952  19.5401  19.6464  19.6914
    19.7268  19.7832  19.8089  19.8720  19.8862  19.9000  20.0329  20.0654
    20.1058  20.1991  20.2518  20.3103  20.3349  20.4418  20.5435  20.6297
    20.6616  20.7196  20.7870  20.8601  20.9389  20.9542  21.0015  21.0481
    21.0643  21.1468  21.1598  21.2168  21.2530  21.3081  21.3304  21.3788
    21.4107  21.4309  21.4900  21.5425  21.5751  21.5983  21.7097  21.7470
    21.7825  21.7942  21.8346  21.8669  21.8861  21.9720  21.9989  22.0520
    22.1008  22.1172  22.1601  22.1996  22.2330  22.2907  22.3231  22.3614
    22.4011  22.4480  22.4634  22.5478  22.5647  22.6489  22.7114  22.7902
    22.8421  22.8717  22.9315  22.9474  23.0396  23.0632  23.1590  23.2243
    23.2967  23.4028  23.4635  23.4795  23.6057  23.7257  23.7711  23.8150
    23.8502  23.9001  23.9424  24.0078  24.0148  24.0558  24.1171  24.1690
    24.2887  24.3497  24.3887  24.4201  24.4853  24.5348  24.6024  24.6918
    24.7028  24.7528  24.8294  24.8586  24.8644  24.8970  24.9735  25.0055
    25.0776  25.1491  25.1571  25.1853  25.1966  25.2302  25.2690  25.3045
    25.3847  25.4711  25.4999  25.5435  25.6037  25.6266  25.7052  25.7504
    25.8150  25.8381  25.8658  25.9142  25.9729  26.1034  26.1570  26.2486
    26.3098  26.3922  26.4070  26.5341  26.7493  27.0778  27.5436  27.5801
    27.7497  28.6550  28.7791  28.8566  29.0033

          k = 0.0556 0.2778-0.5000 ( 30164 PWs)   bands (ev):

   -51.2020 -51.1492 -49.1966 -49.1942 -49.1883 -49.1875 -49.1453 -49.1423
   -48.9974 -48.9767 -48.8568 -48.8069 -48.7947 -48.7824 -48.7738 -48.7545
   -48.7543 -48.7495 -48.7217 -48.7206 -48.7189 -48.7012 -48.6991 -48.6955
   -48.6947 -48.6860 -48.6819 -48.6772 -48.6762 -48.6092 -48.6031 -48.6002
   -48.5966 -22.7171 -22.7170 -22.6692 -22.6681 -21.4967 -21.2356 -19.6895
   -19.6600 -19.3915 -19.3866 -19.3715 -19.3177 -19.3168 -19.2894 -19.2590
   -19.2474 -19.2277 -19.2102 -19.1900 -19.1807 -19.1630 -19.1465 -19.1369
   -19.1253 -19.1145 -19.1044 -19.0782 -19.0614 -19.0488 -19.0426 -19.0406
   -19.0177 -19.0068 -18.9912 -18.9747 -18.9635 -18.9297 -18.9221 -18.9165
   -18.8953 -18.8864 -18.8420 -18.8286 -18.8167 -18.8050 -18.7996 -18.7945
   -18.7762 -18.7481 -18.7406 -18.7296 -18.7243 -18.6990 -18.6839 -18.6759
   -18.6722 -18.6703 -18.6577 -18.6379 -18.6322 -18.6178 -18.6090 -18.5995
   -18.5926 -18.5791 -18.5735 -18.5707 -18.5668 -18.5649 -18.5541 -18.5498
   -18.5436 -18.5328 -18.5258 -18.5154 -18.5151 -18.5129 -18.4969 -18.4915
   -18.4896 -18.4787 -18.4712 -18.4657 -18.4448 -18.4397 -18.4377 -18.4371
   -18.4303 -18.4233 -18.4226 -18.4031 -18.3991 -18.3858 -18.3770 -18.3567
   -18.2188 -18.2079 -18.1923 -18.1780  15.5625  15.7114  15.9988  16.3389
    16.4001  16.6757  16.8102  17.0818  17.1104  17.1950  17.3001  17.4227
    18.2443  18.3922  18.3944  18.4758  18.5474  18.5647  18.6142  18.6392
    18.6983  18.7298  18.7635  18.8174  18.8534  18.8643  18.8881  18.9507
    18.9610  18.9809  19.0290  19.0721  19.0839  19.1513  19.1874  19.2477
    19.2760  19.2980  19.3550  19.4113  19.5342  19.5945  19.5951  19.6720
    19.7659  19.7823  19.8171  19.8771  19.8794  19.9418  19.9659  20.0178
    20.1480  20.1905  20.1977  20.2337  20.3758  20.5197  20.5428  20.5549
    20.6467  20.6890  20.7832  20.8585  20.9128  20.9239  20.9526  21.0381
    21.0589  21.1888  21.2840  21.2919  21.2968  21.3348  21.3965  21.4109
    21.4169  21.4393  21.5012  21.5640  21.6408  21.6864  21.6973  21.7368
    21.7459  21.8588  21.9004  21.9056  21.9620  21.9729  22.0110  22.0548
    22.0580  22.1165  22.1628  22.1747  22.2267  22.3065  22.3118  22.3567
    22.3843  22.4601  22.4962  22.5361  22.5645  22.6048  22.6831  22.7374
    22.7697  22.8223  22.8909  22.9224  22.9398  22.9671  23.0083  23.2354
    23.2862  23.3088  23.4365  23.5146  23.6612  23.6795  23.7573  23.7920
    23.8445  23.9308  23.9377  23.9769  24.0543  24.1329  24.1448  24.2015
    24.2808  24.3547  24.5222  24.5327  24.5762  24.5944  24.6589  24.6885
    24.7570  24.7904  24.8168  24.8484  24.9263  24.9793  25.0355  25.0737
    25.0840  25.1263  25.1631  25.1840  25.2435  25.2462  25.2876  25.3047
    25.3538  25.3895  25.3966  25.4601  25.4642  25.6630  25.6845  25.7363
    25.7418  25.8034  25.8584  25.8976  25.9373  26.0258  26.0450  26.2654
    26.2789  26.3366  26.7666  26.7863  26.8836  26.9161  27.1373  27.3554
    27.6146  28.9336  28.9856  29.3151  29.3718

          k = 0.0556 0.3889 0.3889 ( 30175 PWs)   bands (ev):

   -51.2020 -51.1492 -49.1959 -49.1959 -49.1881 -49.1881 -49.1448 -49.1420
   -48.9963 -48.9764 -48.8564 -48.8069 -48.7933 -48.7831 -48.7786 -48.7553
   -48.7539 -48.7499 -48.7211 -48.7210 -48.7094 -48.7080 -48.6958 -48.6948
   -48.6936 -48.6882 -48.6814 -48.6800 -48.6761 -48.6089 -48.6019 -48.6012
   -48.5972 -22.7171 -22.7170 -22.6689 -22.6689 -21.4968 -21.2350 -19.6912
   -19.6528 -19.3895 -19.3857 -19.3687 -19.3195 -19.3080 -19.2875 -19.2533
   -19.2465 -19.2316 -19.2123 -19.1912 -19.1726 -19.1512 -19.1469 -19.1433
   -19.1211 -19.1137 -19.0976 -19.0955 -19.0733 -19.0692 -19.0627 -19.0522
   -19.0181 -19.0112 -18.9892 -18.9887 -18.9607 -18.9346 -18.9292 -18.9175
   -18.9049 -18.8793 -18.8345 -18.8195 -18.8093 -18.8015 -18.7909 -18.7630
   -18.7372 -18.7308 -18.7276 -18.7204 -18.7196 -18.6974 -18.6919 -18.6862
   -18.6797 -18.6703 -18.6621 -18.6612 -18.6443 -18.6283 -18.6195 -18.6016
   -18.6005 -18.5836 -18.5692 -18.5661 -18.5588 -18.5580 -18.5530 -18.5512
   -18.5492 -18.5376 -18.5300 -18.5249 -18.5145 -18.5019 -18.4964 -18.4964
   -18.4853 -18.4796 -18.4689 -18.4550 -18.4543 -18.4426 -18.4393 -18.4358
   -18.4348 -18.4269 -18.4257 -18.3975 -18.3964 -18.3883 -18.3685 -18.3541
   -18.2198 -18.2127 -18.1838 -18.1816  15.5636  15.7045  16.0081  16.3584
    16.3622  16.7199  16.8176  17.0775  17.1007  17.1442  17.4015  17.7497
    17.7996  18.2892  18.3722  18.5078  18.5514  18.5968  18.6737  18.6805
    18.7541  18.7745  18.7967  18.8399  18.8621  18.8851  18.9003  18.9490
    18.9778  18.9842  19.0385  19.0692  19.1189  19.1518  19.2118  19.2637
    19.3056  19.3119  19.3361  19.4222  19.4637  19.4816  19.5292  19.5700
    19.6245  19.6450  19.7296  19.8367  19.8554  19.8554  19.9489  19.9494
    20.0507  20.2093  20.2338  20.2986  20.4819  20.4899  20.5566  20.6849
    20.6913  20.7243  20.8522  20.8660  20.9991  21.0099  21.0678  21.1248
    21.1700  21.1984  21.2231  21.2688  21.3154  21.4087  21.4307  21.4411
    21.4807  21.5083  21.5233  21.6532  21.6757  21.7154  21.7841  21.8263
    21.8468  21.9194  21.9209  21.9631  21.9651  21.9951  22.0210  22.0585
    22.0745  22.1048  22.1079  22.1412  22.1447  22.2099  22.2932  22.2945
    22.3286  22.3318  22.3966  22.4074  22.4643  22.5138  22.5140  22.5343
    22.5890  22.6768  22.8245  22.8306  22.8636  22.9969  23.0105  23.0491
    23.2121  23.2496  23.2923  23.5521  23.5542  23.6602  23.7572  23.8180
    23.9318  24.0754  24.0890  24.1398  24.1665  24.2448  24.2611  24.3099
    24.4140  24.4337  24.4415  24.4571  24.5874  24.6129  24.7452  24.7556
    24.7993  24.8135  24.8523  24.9151  24.9537  24.9574  25.0174  25.0292
    25.0616  25.1157  25.1874  25.2122  25.2359  25.2673  25.3236  25.3652
    25.4429  25.4505  25.4537  25.5122  25.5311  25.5682  25.6197  25.6439
    25.7018  25.7221  25.7331  25.7849  25.8373  25.9694  25.9857  26.1503
    26.2333  26.3986  26.4171  26.7011  27.0140  27.1344  27.6257  28.1568
    28.2363  28.3607  28.4211  29.2606  29.6083

          k = 0.0556 0.3889-0.5000 ( 30172 PWs)   bands (ev):

   -51.2020 -51.1492 -49.1965 -49.1959 -49.1883 -49.1881 -49.1446 -49.1418
   -48.9955 -48.9762 -48.8562 -48.8068 -48.7922 -48.7841 -48.7809 -48.7548
   -48.7547 -48.7501 -48.7211 -48.7208 -48.7090 -48.7009 -48.6989 -48.6949
   -48.6934 -48.6903 -48.6814 -48.6788 -48.6781 -48.6086 -48.6018 -48.6007
   -48.5980 -22.7171 -22.7171 -22.6692 -22.6689 -21.4968 -21.2347 -19.6925
   -19.6485 -19.3868 -19.3843 -19.3654 -19.3203 -19.2971 -19.2839 -19.2547
   -19.2518 -19.2431 -19.2018 -19.1978 -19.1709 -19.1509 -19.1326 -19.1316
   -19.1313 -19.1197 -19.1052 -19.0925 -19.0778 -19.0725 -19.0685 -19.0683
   -19.0308 -19.0091 -18.9981 -18.9900 -18.9600 -18.9351 -18.9331 -18.9246
   -18.9023 -18.8663 -18.8400 -18.8163 -18.8134 -18.7736 -18.7692 -18.7618
   -18.7472 -18.7248 -18.7236 -18.7169 -18.7143 -18.6969 -18.6927 -18.6840
   -18.6839 -18.6661 -18.6647 -18.6544 -18.6487 -18.6372 -18.6183 -18.6122
   -18.5933 -18.5878 -18.5795 -18.5654 -18.5605 -18.5558 -18.5531 -18.5514
   -18.5434 -18.5414 -18.5260 -18.5250 -18.5135 -18.5107 -18.4983 -18.4908
   -18.4896 -18.4750 -18.4730 -18.4599 -18.4479 -18.4411 -18.4394 -18.4381
   -18.4352 -18.4282 -18.4275 -18.3969 -18.3930 -18.3929 -18.3625 -18.3557
   -18.2197 -18.2163 -18.1831 -18.1790  15.5651  15.7005  16.0154  16.3461
    16.3628  16.7391  16.8241  17.0799  17.0898  17.3553  17.3982  17.5037
    17.9387  18.0943  18.4908  18.5320  18.5601  18.5893  18.6734  18.7250
    18.7477  18.7693  18.8092  18.8405  18.8660  18.9154  18.9296  18.9574
    18.9646  19.0423  19.0787  19.1026  19.1154  19.1279  19.1743  19.2009
    19.2524  19.2839  19.3280  19.3863  19.4448  19.4619  19.4666  19.4823
    19.5825  19.6491  19.7742  19.8037  19.8045  19.8319  19.8929  19.9473
    20.1320  20.1869  20.2226  20.2522  20.4402  20.4632  20.6606  20.6896
    20.7340  20.7574  20.8568  20.9070  20.9124  20.9559  21.0442  21.1546
    21.1675  21.2835  21.2862  21.3173  21.3788  21.4794  21.5120  21.5729
    21.5840  21.6175  21.6266  21.6607  21.6703  21.6975  21.7991  21.8062
    21.8408  21.8877  21.8957  21.9227  21.9512  22.0081  22.0545  22.0588
    22.0692  22.1071  22.1177  22.1484  22.1860  22.1896  22.2446  22.2722
    22.3085  22.3412  22.3532  22.3807  22.4162  22.4415  22.4986  22.5382
    22.6201  22.6240  22.6526  22.6967  22.7404  22.8497  22.9055  22.9560
    23.0286  23.2587  23.3387  23.5311  23.6324  23.6610  23.7237  23.8289
    24.0396  24.1007  24.1526  24.1929  24.2233  24.2899  24.3022  24.3504
    24.4229  24.4525  24.5410  24.5772  24.5970  24.6733  24.6922  24.7239
    24.7985  24.8351  24.8450  24.9148  24.9831  25.0397  25.1130  25.1181
    25.1654  25.1768  25.2392  25.2524  25.2621  25.2996  25.3171  25.3402
    25.3423  25.3810  25.4591  25.4759  25.4762  25.5310  25.5682  25.6320
    25.6422  25.6606  25.6807  25.7141  25.7621  25.9526  25.9951  25.9968
    26.1076  26.3724  26.4384  26.6616  27.5629  27.5683  27.6294  27.6382
    27.8901  28.8008  28.9856  29.0266  29.1270

          k = 0.0556-0.5000-0.5000 ( 30184 PWs)   bands (ev):

   -51.2020 -51.1492 -49.1965 -49.1965 -49.1883 -49.1883 -49.1444 -49.1416
   -48.9947 -48.9761 -48.8560 -48.8067 -48.7900 -48.7848 -48.7848 -48.7548
   -48.7548 -48.7504 -48.7209 -48.7209 -48.7040 -48.6989 -48.6989 -48.6955
   -48.6950 -48.6924 -48.6802 -48.6795 -48.6795 -48.6083 -48.6010 -48.6010
   -48.5989 -22.7171 -22.7171 -22.6692 -22.6692 -21.4969 -21.2344 -19.6938
   -19.6438 -19.3875 -19.3811 -19.3619 -19.3213 -19.2813 -19.2813 -19.2583
   -19.2551 -19.2551 -19.1968 -19.1968 -19.1682 -19.1432 -19.1336 -19.1336
   -19.1209 -19.1077 -19.1077 -19.1051 -19.0830 -19.0826 -19.0810 -19.0810
   -19.0429 -19.0046 -19.0019 -19.0019 -18.9588 -18.9401 -18.9337 -18.9329
   -18.8966 -18.8400 -18.8394 -18.8394 -18.8123 -18.7537 -18.7537 -18.7351
   -18.7351 -18.7158 -18.7158 -18.7085 -18.7080 -18.7034 -18.6982 -18.6879
   -18.6865 -18.6710 -18.6710 -18.6530 -18.6530 -18.6473 -18.6307 -18.6307
   -18.5839 -18.5832 -18.5796 -18.5746 -18.5746 -18.5625 -18.5522 -18.5393
   -18.5368 -18.5357 -18.5240 -18.5240 -18.5219 -18.5054 -18.5053 -18.4905
   -18.4905 -18.4729 -18.4729 -18.4533 -18.4533 -18.4407 -18.4387 -18.4382
   -18.4362 -18.4308 -18.4308 -18.4008 -18.3908 -18.3908 -18.3569 -18.3555
   -18.2201 -18.2201 -18.1793 -18.1793  15.5661  15.6963  16.0222  16.3488
    16.3488  16.7598  16.8348  17.0792  17.0792  17.3748  17.5442  17.7078
    17.7078  17.8470  18.5144  18.5944  18.5944  18.6573  18.6589  18.7069
    18.7069  18.7509  18.8931  18.8931  18.9144  18.9180  18.9180  18.9739
    18.9988  19.0518  19.0780  19.0780  19.1058  19.2175  19.2420  19.2420
    19.2627  19.2813  19.2838  19.2838  19.3058  19.3126  19.4565  19.4565
    19.5719  19.6483  19.6521  19.7373  19.7373  19.8590  19.8590  19.9665
    20.1585  20.2477  20.2477  20.2676  20.2918  20.3856  20.7118  20.7118
    20.7430  20.8824  20.8824  20.9191  20.9892  21.0379  21.1114  21.1114
    21.3171  21.3171  21.3328  21.3431  21.3975  21.4667  21.4667  21.4677
    21.4991  21.7100  21.7100  21.7773  21.7834  21.7834  21.8213  21.8719
    21.9034  21.9034  21.9404  21.9572  21.9648  21.9811  22.0923  22.0923
    22.1097  22.1184  22.1719  22.1831  22.1831  22.1844  22.2346  22.2346
    22.2507  22.2507  22.3085  22.3360  22.3600  22.3600  22.3750  22.4060
    22.4898  22.5695  22.5695  22.5701  22.5811  22.6166  22.8092  22.8092
    23.0377  23.2803  23.3367  23.5890  23.5890  23.6939  23.6939  23.8545
    24.2083  24.2391  24.2466  24.2565  24.2565  24.2702  24.2702  24.4226
    24.4226  24.5765  24.6015  24.6173  24.6173  24.6298  24.6319  24.6342
    24.7423  24.9508  24.9945  25.0316  25.0316  25.1023  25.1442  25.1969
    25.1969  25.2289  25.2289  25.2456  25.2717  25.3114  25.3477  25.3477
    25.3883  25.3883  25.4502  25.4901  25.5119  25.5119  25.5173  25.5322
    25.5330  25.5330  25.5487  25.6436  25.6501  25.9083  25.9083  25.9697
    26.1472  26.1472  26.4714  26.5785  27.6664  28.1300  28.1981  28.1981
    28.2094  28.3412  28.4669  28.4669  28.5456

          k = 0.1667 0.1667 0.1667 ( 30217 PWs)   bands (ev):

   -51.2019 -51.1495 -49.1920 -49.1920 -49.1870 -49.1870 -49.1479 -49.1438
   -49.0040 -48.9803 -48.8550 -48.8085 -48.7988 -48.7701 -48.7640 -48.7554
   -48.7506 -48.7412 -48.7317 -48.7267 -48.7222 -48.7220 -48.7012 -48.6928
   -48.6893 -48.6833 -48.6831 -48.6771 -48.6667 -48.6109 -48.6032 -48.6029
   -48.5926 -22.7167 -22.7167 -22.6675 -22.6674 -21.5102 -21.2230 -19.6924
   -19.6722 -19.4339 -19.4223 -19.3638 -19.3581 -19.3305 -19.3130 -19.2305
   -19.2146 -19.2102 -19.1985 -19.1943 -19.1749 -19.1441 -19.1413 -19.1164
   -19.1105 -19.0952 -19.0840 -19.0836 -19.0609 -19.0267 -19.0222 -19.0085
   -19.0032 -18.9886 -18.9661 -18.9576 -18.9543 -18.9461 -18.9350 -18.8911
   -18.8806 -18.8631 -18.8568 -18.8565 -18.8430 -18.8396 -18.7914 -18.7912
   -18.7826 -18.7818 -18.7687 -18.7443 -18.7408 -18.7091 -18.6833 -18.6820
   -18.6782 -18.6658 -18.6627 -18.6600 -18.6444 -18.6327 -18.6241 -18.6185
   -18.6075 -18.6075 -18.6057 -18.5903 -18.5790 -18.5624 -18.5576 -18.5487
   -18.5395 -18.5250 -18.4985 -18.4950 -18.4929 -18.4830 -18.4783 -18.4752
   -18.4685 -18.4664 -18.4638 -18.4573 -18.4541 -18.4489 -18.4487 -18.4337
   -18.4272 -18.4218 -18.4135 -18.4121 -18.4070 -18.3888 -18.3544 -18.3473
   -18.2151 -18.2090 -18.1961 -18.1871  15.5433  15.7312  15.9994  16.3947
    16.3984  16.4901  16.5392  16.7996  17.1617  17.1996  17.4458  17.9145
    18.0720  18.1175  18.1844  18.2387  18.2521  18.3490  18.4506  18.4768
    18.6807  18.6945  18.7050  18.8270  18.8787  18.9408  18.9745  19.1118
    19.1570  19.1882  19.2018  19.2020  19.3152  19.3714  19.4037  19.4271
    19.4888  19.5048  19.5949  19.6155  19.6800  19.6816  19.7286  19.7350
    19.7968  19.8619  19.9160  19.9503  20.0373  20.0487  20.0518  20.0881
    20.1791  20.2822  20.3224  20.3664  20.4937  20.5501  20.5720  20.6425
    20.6590  20.6894  20.7310  20.7804  20.7880  20.8392  20.8597  20.8850
    20.8909  21.0236  21.0308  21.0712  21.1789  21.2004  21.2514  21.2655
    21.3305  21.3361  21.3456  21.3782  21.4114  21.4229  21.5118  21.5304
    21.5521  21.5966  21.6021  21.7648  21.7975  21.8972  21.9694  22.0044
    22.0960  22.1963  22.2172  22.2289  22.3086  22.3177  22.4895  22.5364
    22.5626  22.6385  22.6652  22.6765  22.7126  22.7520  22.9188  22.9406
    22.9590  23.0072  23.0792  23.1234  23.1845  23.1971  23.2960  23.3955
    23.4135  23.4598  23.4975  23.5312  23.5990  23.6055  23.6392  23.6691
    23.6809  23.7629  23.7669  23.8338  23.9585  24.0194  24.0435  24.0519
    24.1772  24.2040  24.2609  24.2984  24.3322  24.4086  24.4214  24.4696
    24.4808  24.5804  24.6053  24.6850  24.7846  24.8136  24.8963  24.9137
    24.9848  25.0162  25.1260  25.1707  25.1845  25.2532  25.4324  25.4672
    25.5285  25.5793  25.5902  25.6212  25.6775  25.7273  25.8311  25.8642
    25.9455  26.0117  26.0359  26.0416  26.0876  26.1506  26.1665  26.2347
    26.5667  26.6087  26.6740  27.1031  27.2600  27.3216  27.4510  27.9485
    27.9585  28.1582  28.2356  28.2907  28.3549

          k = 0.1667 0.1667 0.2778 ( 30175 PWs)   bands (ev):

   -51.2018 -51.1494 -49.1939 -49.1920 -49.1878 -49.1870 -49.1470 -49.1434
   -49.0015 -48.9795 -48.8554 -48.8079 -48.7992 -48.7746 -48.7652 -48.7573
   -48.7526 -48.7423 -48.7297 -48.7223 -48.7202 -48.7178 -48.7002 -48.6934
   -48.6907 -48.6838 -48.6810 -48.6791 -48.6690 -48.6105 -48.6035 -48.6019
   -48.5937 -22.7169 -22.7167 -22.6682 -22.6674 -21.5102 -21.2221 -19.6860
   -19.6759 -19.4207 -19.4108 -19.3614 -19.3455 -19.3234 -19.3109 -19.2352
   -19.2316 -19.2153 -19.1938 -19.1911 -19.1800 -19.1657 -19.1419 -19.1332
   -19.1122 -19.1002 -19.0907 -19.0734 -19.0590 -19.0452 -19.0369 -19.0159
   -19.0105 -18.9786 -18.9665 -18.9571 -18.9496 -18.9357 -18.9309 -18.8993
   -18.8834 -18.8705 -18.8617 -18.8557 -18.8366 -18.8212 -18.8048 -18.7940
   -18.7904 -18.7737 -18.7540 -18.7429 -18.7306 -18.7126 -18.6846 -18.6815
   -18.6709 -18.6622 -18.6576 -18.6473 -18.6432 -18.6307 -18.6173 -18.6111
   -18.6015 -18.5991 -18.5924 -18.5742 -18.5693 -18.5643 -18.5588 -18.5534
   -18.5405 -18.5323 -18.5213 -18.4973 -18.4954 -18.4917 -18.4881 -18.4856
   -18.4764 -18.4731 -18.4626 -18.4543 -18.4519 -18.4482 -18.4393 -18.4365
   -18.4264 -18.4229 -18.4112 -18.4066 -18.4039 -18.3982 -18.3571 -18.3522
   -18.2145 -18.2072 -18.1940 -18.1872  15.5531  15.7253  16.0313  16.3492
    16.4030  16.5666  16.6471  16.7988  17.1553  17.2075  17.4169  17.9029
    18.0257  18.2146  18.2489  18.3000  18.3338  18.3701  18.5416  18.5841
    18.7034  18.7262  18.7616  18.8137  18.8543  18.9312  18.9343  19.0351
    19.0404  19.0623  19.0947  19.1669  19.2312  19.3021  19.3333  19.3809
    19.4285  19.4579  19.5061  19.5309  19.5698  19.6066  19.6643  19.7266
    19.7443  19.7875  19.8384  19.8748  19.9537  20.0073  20.0892  20.1192
    20.2142  20.2834  20.3341  20.4039  20.4523  20.4889  20.5122  20.5376
    20.5916  20.7253  20.7702  20.7829  20.8683  20.8950  20.9145  20.9523
    21.0034  21.0487  21.0882  21.1309  21.1760  21.2350  21.2784  21.3271
    21.3574  21.3804  21.4335  21.4928  21.5287  21.5422  21.5661  21.5960
    21.6429  21.7139  21.7340  21.7947  21.8395  21.8713  21.9324  21.9888
    22.0149  22.1007  22.1517  22.1812  22.2486  22.3422  22.3725  22.4456
    22.4902  22.5554  22.6350  22.6997  22.7091  22.8269  22.8801  22.9417
    22.9806  23.0499  23.0895  23.1664  23.1817  23.2110  23.3060  23.3300
    23.3524  23.4002  23.4420  23.4969  23.5328  23.5994  23.6370  23.7035
    23.7239  23.7617  23.8081  23.8407  23.9134  24.0677  24.1127  24.1609
    24.1878  24.2326  24.2739  24.3008  24.3435  24.4678  24.5052  24.5520
    24.5819  24.6645  24.6918  24.7866  24.7985  24.8359  24.8929  24.9098
    25.0220  25.0947  25.1337  25.2042  25.2329  25.3100  25.3306  25.3793
    25.4368  25.4812  25.5487  25.5925  25.6678  25.7243  25.7541  25.8137
    25.8669  25.9225  25.9372  26.0219  26.0564  26.0759  26.1469  26.2193
    26.2832  26.3804  26.6233  27.1936  27.3102  27.5503  27.5798  27.6458
    27.9064  27.9904  28.1913  28.2581  28.6799

          k = 0.1667 0.1667 0.3889 ( 30171 PWs)   bands (ev):

   -51.2018 -51.1494 -49.1956 -49.1920 -49.1885 -49.1870 -49.1463 -49.1430
   -48.9992 -48.9789 -48.8559 -48.8072 -48.7995 -48.7782 -48.7660 -48.7574
   -48.7547 -48.7429 -48.7296 -48.7223 -48.7182 -48.7085 -48.6994 -48.6940
   -48.6936 -48.6846 -48.6808 -48.6783 -48.6719 -48.6100 -48.6040 -48.6006
   -48.5950 -22.7171 -22.7167 -22.6689 -22.6674 -21.5101 -21.2213 -19.6857
   -19.6739 -19.4061 -19.3996 -19.3592 -19.3321 -19.3188 -19.3032 -19.2522
   -19.2436 -19.2153 -19.2082 -19.1866 -19.1830 -19.1666 -19.1577 -19.1269
   -19.1210 -19.1060 -19.0929 -19.0770 -19.0629 -19.0480 -19.0382 -19.0273
   -19.0149 -18.9928 -18.9673 -18.9535 -18.9475 -18.9249 -18.9107 -18.8995
   -18.8920 -18.8637 -18.8575 -18.8546 -18.8389 -18.8303 -18.8213 -18.8021
   -18.7985 -18.7608 -18.7496 -18.7378 -18.7345 -18.6961 -18.6911 -18.6769
   -18.6676 -18.6549 -18.6504 -18.6389 -18.6298 -18.6206 -18.6055 -18.6037
   -18.5942 -18.5901 -18.5810 -18.5765 -18.5626 -18.5592 -18.5573 -18.5559
   -18.5510 -18.5366 -18.5241 -18.5073 -18.5048 -18.5011 -18.4984 -18.4946
   -18.4864 -18.4788 -18.4644 -18.4624 -18.4527 -18.4461 -18.4351 -18.4338
   -18.4257 -18.4179 -18.4110 -18.4058 -18.4003 -18.3936 -18.3635 -18.3603
   -18.2151 -18.2101 -18.1911 -18.1826  15.5618  15.7202  16.0575  16.3126
    16.4071  16.5939  16.7915  16.8861  17.1510  17.2110  17.3915  17.5448
    18.1825  18.3635  18.3789  18.4167  18.4526  18.4984  18.5997  18.6499
    18.7114  18.7235  18.7529  18.7620  18.8103  18.8660  18.8889  18.9071
    18.9574  19.0021  19.0543  19.0816  19.1461  19.2016  19.2250  19.2904
    19.3741  19.3968  19.4492  19.4642  19.5437  19.5612  19.6205  19.6954
    19.7504  19.8054  19.8654  19.8839  19.9210  20.0074  20.1215  20.1398
    20.1747  20.2378  20.2673  20.3410  20.3616  20.4053  20.4714  20.5474
    20.6261  20.7041  20.7450  20.8295  20.8509  20.8887  20.9357  20.9874
    21.0260  21.0670  21.1574  21.2046  21.2262  21.2564  21.3199  21.3376
    21.3842  21.4143  21.4663  21.5562  21.6087  21.6180  21.6796  21.7037
    21.7350  21.7772  21.8325  21.8476  21.8749  21.9166  21.9749  22.0244
    22.0379  22.0740  22.1673  22.2062  22.2998  22.3290  22.3598  22.3729
    22.3785  22.4333  22.6002  22.6505  22.6726  22.7745  22.8543  22.9015
    22.9759  23.0420  23.0627  23.0722  23.1744  23.2282  23.2909  23.3370
    23.3602  23.3696  23.4425  23.4693  23.5345  23.5513  23.5814  23.6109
    23.6720  23.7245  23.8291  23.9308  23.9482  23.9729  24.1208  24.1411
    24.2113  24.2686  24.2933  24.3982  24.4242  24.4781  24.6128  24.6501
    24.7291  24.7395  24.7676  24.7861  24.8412  24.8612  24.9258  25.0336
    25.0412  25.1156  25.1323  25.1792  25.2252  25.2699  25.2877  25.4100
    25.4391  25.4966  25.5371  25.5653  25.6319  25.6987  25.7513  25.7681
    25.7818  25.8852  25.9903  26.0180  26.0474  26.0883  26.1126  26.1290
    26.2381  26.3789  26.5236  26.9790  27.0627  27.2263  27.4478  27.6765
    27.7780  28.0261  28.1051  28.6696  29.3460

          k = 0.1667 0.1667-0.5000 ( 30122 PWs)   bands (ev):

   -51.2018 -51.1494 -49.1962 -49.1920 -49.1888 -49.1870 -49.1461 -49.1428
   -48.9983 -48.9786 -48.8561 -48.8069 -48.7997 -48.7795 -48.7664 -48.7567
   -48.7562 -48.7431 -48.7297 -48.7223 -48.7175 -48.7015 -48.7000 -48.6975
   -48.6941 -48.6849 -48.6814 -48.6761 -48.6742 -48.6098 -48.6042 -48.5998
   -48.5958 -22.7171 -22.7167 -22.6691 -22.6674 -21.5101 -21.2209 -19.6869
   -19.6717 -19.3997 -19.3942 -19.3578 -19.3259 -19.3193 -19.2963 -19.2613
   -19.2469 -19.2196 -19.2144 -19.1859 -19.1842 -19.1686 -19.1574 -19.1309
   -19.1134 -19.1100 -19.0898 -19.0897 -19.0684 -19.0413 -19.0382 -19.0229
   -19.0208 -19.0052 -18.9680 -18.9535 -18.9486 -18.9188 -18.9016 -18.8995
   -18.8773 -18.8687 -18.8547 -18.8509 -18.8428 -18.8402 -18.8287 -18.8141
   -18.8009 -18.7594 -18.7405 -18.7401 -18.7254 -18.7018 -18.6889 -18.6737
   -18.6688 -18.6537 -18.6522 -18.6277 -18.6152 -18.6046 -18.6026 -18.5990
   -18.5971 -18.5910 -18.5843 -18.5721 -18.5678 -18.5644 -18.5617 -18.5545
   -18.5393 -18.5342 -18.5222 -18.5161 -18.5123 -18.5052 -18.4966 -18.4959
   -18.4931 -18.4809 -18.4795 -18.4627 -18.4518 -18.4463 -18.4347 -18.4313
   -18.4269 -18.4125 -18.4109 -18.4077 -18.3941 -18.3875 -18.3723 -18.3638
   -18.2155 -18.2111 -18.1912 -18.1794  15.5652  15.7182  16.0676  16.2988
    16.4086  16.6036  16.7966  17.1453  17.1463  17.2120  17.2293  17.3893
    18.3408  18.3953  18.4842  18.5043  18.5137  18.5293  18.5847  18.6573
    18.6707  18.7020  18.7128  18.7416  18.7882  18.8186  18.8329  18.9075
    18.9344  18.9945  19.0091  19.0795  19.1006  19.1352  19.2312  19.2786
    19.3014  19.3613  19.4278  19.4395  19.5161  19.5334  19.6037  19.6907
    19.8152  19.8381  19.8585  19.8979  19.9945  20.0052  20.0759  20.0875
    20.1628  20.1931  20.2594  20.2770  20.3112  20.4213  20.4828  20.5532
    20.6748  20.7144  20.7257  20.8102  20.8580  20.8910  20.9038  20.9054
    21.0376  21.1066  21.1742  21.2157  21.2373  21.3227  21.3371  21.3751
    21.4410  21.4534  21.4708  21.5064  21.5796  21.5965  21.6949  21.7223
    21.7617  21.7903  21.8838  21.9190  21.9482  21.9763  21.9984  22.0269
    22.0568  22.0848  22.1355  22.2352  22.2822  22.3413  22.3694  22.4176
    22.4917  22.4958  22.5771  22.6371  22.6416  22.7648  22.7847  22.7925
    22.8744  22.8774  23.0342  23.0879  23.1119  23.1923  23.3092  23.3586
    23.3974  23.4144  23.4246  23.4985  23.5041  23.5127  23.5775  23.6011
    23.6636  23.6660  23.8089  23.9076  24.0136  24.0191  24.0766  24.1089
    24.1604  24.3408  24.3430  24.4597  24.5262  24.5388  24.6032  24.6789
    24.6882  24.7316  24.8359  24.8471  24.9055  24.9316  24.9427  25.0284
    25.0938  25.1100  25.1406  25.1517  25.1856  25.2374  25.3107  25.3147
    25.3461  25.3545  25.5022  25.5932  25.5997  25.7061  25.7062  25.7509
    25.8794  25.9831  26.0441  26.0456  26.0936  26.1048  26.1240  26.2410
    26.4198  26.4742  26.5006  26.6076  26.7574  26.8614  27.4601  27.8286
    27.8579  27.9204  28.0230  29.1361  29.1601

          k = 0.1667 0.2778 0.2778 ( 30156 PWs)   bands (ev):

   -51.2018 -51.1494 -49.1939 -49.1939 -49.1878 -49.1878 -49.1461 -49.1429
   -48.9991 -48.9788 -48.8554 -48.8074 -48.7987 -48.7773 -48.7698 -48.7586
   -48.7541 -48.7437 -48.7204 -48.7204 -48.7193 -48.7172 -48.6986 -48.6938
   -48.6917 -48.6827 -48.6819 -48.6807 -48.6713 -48.6100 -48.6028 -48.6020
   -48.5948 -22.7169 -22.7169 -22.6682 -22.6682 -21.5101 -21.2212 -19.6850
   -19.6715 -19.4110 -19.4006 -19.3607 -19.3335 -19.3221 -19.3049 -19.2413
   -19.2298 -19.2269 -19.2041 -19.1850 -19.1723 -19.1699 -19.1532 -19.1393
   -19.1184 -19.0972 -19.0871 -19.0824 -19.0655 -19.0592 -19.0572 -19.0304
   -19.0237 -18.9809 -18.9641 -18.9629 -18.9421 -18.9287 -18.9123 -18.9037
   -18.8927 -18.8798 -18.8506 -18.8464 -18.8343 -18.8214 -18.8012 -18.7812
   -18.7692 -18.7595 -18.7555 -18.7300 -18.7220 -18.7162 -18.6856 -18.6824
   -18.6770 -18.6667 -18.6621 -18.6505 -18.6482 -18.6226 -18.6185 -18.6137
   -18.5899 -18.5895 -18.5825 -18.5808 -18.5589 -18.5586 -18.5562 -18.5525
   -18.5459 -18.5379 -18.5309 -18.5091 -18.5082 -18.4997 -18.4948 -18.4876
   -18.4795 -18.4774 -18.4665 -18.4523 -18.4518 -18.4506 -18.4330 -18.4321
   -18.4251 -18.4229 -18.4072 -18.4049 -18.4034 -18.3916 -18.3603 -18.3552
   -18.2154 -18.2028 -18.1947 -18.1872  15.5593  15.7167  16.0551  16.3523
    16.3604  16.6253  16.7788  16.8031  17.1490  17.2023  17.3865  17.9571
    18.0554  18.1271  18.3123  18.3445  18.3901  18.4055  18.6086  18.6754
    18.7247  18.7493  18.8038  18.8372  18.8410  18.8628  18.8845  18.9028
    18.9695  19.0120  19.0779  19.1876  19.2304  19.2517  19.2900  19.2974
    19.3706  19.4286  19.4586  19.4915  19.5439  19.6008  19.6336  19.6388
    19.6515  19.6927  19.7048  19.8571  19.8587  19.9587  20.1171  20.1200
    20.1346  20.2792  20.3703  20.4222  20.4525  20.5021  20.5026  20.6153
    20.6577  20.7364  20.7431  20.8579  20.9052  20.9238  20.9322  20.9677
    21.0473  21.0774  21.1490  21.1693  21.2298  21.2679  21.2745  21.3711
    21.4376  21.5015  21.5208  21.5359  21.5799  21.6103  21.6529  21.6666
    21.6729  21.7358  21.7534  21.7976  21.8168  21.8846  21.9060  21.9773
    22.0551  22.1404  22.1518  22.1770  22.1985  22.3215  22.3281  22.4316
    22.4887  22.4918  22.5815  22.6598  22.7117  22.7355  22.7937  22.7987
    22.8617  22.9699  22.9817  23.0541  23.0649  23.1833  23.2167  23.2778
    23.3672  23.3980  23.4099  23.4431  23.5447  23.6510  23.6802  23.7238
    23.7514  23.7654  23.8620  23.8940  23.9010  23.9118  24.0534  24.0545
    24.2045  24.2271  24.2622  24.3661  24.4094  24.4250  24.5775  24.6031
    24.7075  24.7284  24.8028  24.8392  24.8716  24.9489  25.0230  25.0409
    25.0960  25.1437  25.1516  25.1915  25.2671  25.3134  25.3761  25.3995
    25.4474  25.4488  25.5063  25.5605  25.6112  25.7146  25.7881  25.7989
    25.8210  25.8805  25.9118  25.9118  26.0230  26.0270  26.0767  26.1492
    26.1801  26.4038  26.5858  27.1047  27.3181  27.4746  27.7622  28.0934
    28.1587  28.2763  28.3207  28.5239  28.5585

          k = 0.1667 0.2778 0.3889 ( 30187 PWs)   bands (ev):

   -51.2018 -51.1494 -49.1955 -49.1939 -49.1885 -49.1878 -49.1455 -49.1425
   -48.9970 -48.9782 -48.8555 -48.8070 -48.7982 -48.7802 -48.7730 -48.7583
   -48.7559 -48.7447 -48.7205 -48.7185 -48.7183 -48.7087 -48.6973 -48.6943
   -48.6939 -48.6851 -48.6820 -48.6796 -48.6740 -48.6095 -48.6030 -48.6011
   -48.5961 -22.7171 -22.7169 -22.6689 -22.6682 -21.5101 -21.2204 -19.6879
   -19.6637 -19.4007 -19.3917 -19.3587 -19.3225 -19.3187 -19.2966 -19.2518
   -19.2433 -19.2209 -19.2173 -19.1892 -19.1775 -19.1570 -19.1515 -19.1408
   -19.1215 -19.1098 -19.0939 -19.0812 -19.0771 -19.0641 -19.0587 -19.0429
   -19.0340 -18.9973 -18.9799 -18.9546 -18.9336 -18.9239 -18.9161 -18.8950
   -18.8852 -18.8722 -18.8534 -18.8415 -18.8265 -18.8231 -18.7994 -18.7808
   -18.7737 -18.7525 -18.7399 -18.7290 -18.7241 -18.6993 -18.6923 -18.6805
   -18.6717 -18.6621 -18.6605 -18.6531 -18.6369 -18.6231 -18.6140 -18.6027
   -18.5935 -18.5814 -18.5793 -18.5757 -18.5668 -18.5612 -18.5609 -18.5545
   -18.5534 -18.5417 -18.5261 -18.5205 -18.5111 -18.5091 -18.5019 -18.4986
   -18.4819 -18.4818 -18.4719 -18.4588 -18.4485 -18.4415 -18.4329 -18.4306
[...]
    17.9856  18.1466  18.1842  18.3298  18.4133  18.4567  18.6071  18.6343
    18.7117  18.7508  18.7665  18.8224  18.8481  18.8576  18.9174  18.9610
    19.0227  19.0265  19.0563  19.0937  19.1275  19.1534  19.1916  19.2307
    19.2354  19.3027  19.3658  19.4045  19.4240  19.4678  19.4686  19.5637
    19.6269  19.6872  19.7981  19.8494  19.8692  19.8734  19.9746  20.0048
    20.1319  20.1829  20.2123  20.2819  20.3195  20.3627  20.4603  20.5362
    20.6081  20.7469  20.8213  20.8798  20.9257  21.0164  21.0530  21.1279
    21.1859  21.2488  21.4316  21.4897  21.5257  21.5556  21.5764  21.6094
    21.6569  21.6837  21.6947  21.7312  21.7353  21.7613  21.7739  21.7822
    21.8262  21.8312  21.8429  21.8617  21.8698  21.9073  21.9267  21.9557
    21.9720  22.0009  22.0723  22.1694  22.1768  22.2610  22.2881  22.3007
    22.3619  22.3780  22.3866  22.4170  22.5254  22.5327  22.5702  22.5907
    22.6531  22.6688  22.7347  22.7986  22.9443  23.0207  23.0310  23.0385
    23.0776  23.2181  23.2975  23.3245  23.3514  23.4986  23.5137  23.5799
    23.6376  23.6733  23.7230  23.7590  23.8748  23.9038  23.9663  24.0091
    24.0199  24.0418  24.0882  24.1553  24.2003  24.4513  24.4679  24.5418
    24.6055  24.6449  24.7574  24.7744  24.9130  24.9361  25.0336  25.0869
    25.3660  25.3874  25.4031  25.4166  25.4532  25.5244  25.5447  25.5904
    25.5996  25.6113  25.6460  25.6768  25.7155  25.7651  25.7869  25.8169
    25.8230  25.9026  25.9123  25.9517  26.0322  26.0781  26.3394  26.7885
    26.9302  27.4040  27.4334  27.7000  27.8014  27.8884  27.9733  28.0425
    28.1888  28.9641  28.9710  29.1143  29.2532

          k = 0.3889-0.5000 0.2778 ( 30178 PWs)   bands (ev):

   -51.2012 -51.1500 -49.1945 -49.1927 -49.1905 -49.1890 -49.1452 -49.1424
   -48.9909 -48.9836 -48.8510 -48.8078 -48.8065 -48.7767 -48.7711 -48.7663
   -48.7646 -48.7376 -48.7192 -48.7139 -48.7088 -48.7025 -48.7021 -48.6962
   -48.6928 -48.6889 -48.6826 -48.6785 -48.6762 -48.6093 -48.6036 -48.6007
   -48.5976 -22.7174 -22.7166 -22.6689 -22.6685 -21.5425 -21.1819 -19.6887
   -19.6613 -19.4082 -19.3700 -19.3439 -19.3313 -19.2973 -19.2940 -19.2654
   -19.2533 -19.2222 -19.2092 -19.1979 -19.1622 -19.1543 -19.1494 -19.1411
   -19.1379 -19.1286 -19.1138 -19.1053 -19.0982 -19.0756 -19.0728 -19.0623
   -19.0541 -18.9801 -18.9695 -18.9222 -18.9150 -18.9035 -18.8860 -18.8853
   -18.8748 -18.8472 -18.8344 -18.8244 -18.8233 -18.8091 -18.7953 -18.7824
   -18.7807 -18.7431 -18.7352 -18.7280 -18.7250 -18.7103 -18.7005 -18.6755
   -18.6720 -18.6655 -18.6470 -18.6416 -18.6398 -18.6378 -18.6243 -18.6178
   -18.6076 -18.6075 -18.5970 -18.5919 -18.5803 -18.5748 -18.5708 -18.5707
   -18.5561 -18.5550 -18.5407 -18.5359 -18.5336 -18.5291 -18.5251 -18.5039
   -18.4715 -18.4621 -18.4618 -18.4472 -18.4452 -18.4331 -18.4256 -18.4242
   -18.4082 -18.3963 -18.3961 -18.3815 -18.3793 -18.3788 -18.3678 -18.3677
   -18.2094 -18.2063 -18.1906 -18.1903  15.5823  15.6901  16.2301  16.2781
    16.4483  16.6425  16.8474  17.0247  17.3113  17.3936  17.5088  17.6577
    17.9701  18.1618  18.1901  18.3300  18.4302  18.4455  18.6259  18.6472
    18.7041  18.7411  18.8167  18.8334  18.8591  18.8799  18.9153  18.9211
    19.0146  19.0181  19.0448  19.1044  19.1289  19.1473  19.1661  19.2814
    19.2907  19.3250  19.3544  19.4100  19.4116  19.4252  19.4381  19.5549
    19.6375  19.6915  19.7457  19.8541  19.8573  19.9328  19.9453  20.0117
    20.1527  20.1582  20.1768  20.3009  20.3900  20.4422  20.4936  20.5741
    20.6570  20.6864  20.8156  20.8267  20.8605  21.0143  21.0386  21.1561
    21.2373  21.3303  21.3347  21.3609  21.5141  21.5254  21.6160  21.6354
    21.6697  21.6896  21.6927  21.7074  21.7612  21.7690  21.7755  21.7887
    21.8018  21.8309  21.8585  21.8619  21.8946  21.9250  21.9373  21.9793
    21.9886  22.0261  22.0345  22.1432  22.1883  22.2082  22.2551  22.2715
    22.3729  22.4216  22.4397  22.4496  22.4833  22.4934  22.5618  22.5712
    22.6442  22.6688  22.7029  22.8160  22.8775  22.9911  23.0563  23.0605
    23.1520  23.1994  23.2480  23.3458  23.3934  23.5062  23.5435  23.5580
    23.6202  23.6639  23.7989  23.8040  23.8182  23.8670  23.9256  23.9665
    24.0720  24.0815  24.1214  24.1276  24.1453  24.3683  24.4327  24.5268
    24.6185  24.7129  24.7884  24.7958  24.8854  25.0278  25.1085  25.1215
    25.3483  25.3591  25.4076  25.4204  25.4531  25.4618  25.5626  25.5835
    25.5907  25.6242  25.6652  25.6782  25.6998  25.7185  25.8082  25.8126
    25.8591  25.8699  25.9093  25.9118  26.0541  26.1060  26.3099  26.7161
    27.0264  27.2602  27.4253  27.6592  27.7815  27.8653  27.9300  28.0253
    28.3220  28.8208  28.9145  29.2035  29.3516

          k =-0.5000 0.5000 0.2778 ( 30148 PWs)   bands (ev):

   -51.2011 -51.1501 -49.1940 -49.1924 -49.1910 -49.1893 -49.1451 -49.1424
   -48.9877 -48.9869 -48.8500 -48.8097 -48.8065 -48.7747 -48.7689 -48.7682
   -48.7680 -48.7366 -48.7191 -48.7127 -48.7050 -48.7048 -48.7028 -48.6963
   -48.6912 -48.6909 -48.6825 -48.6787 -48.6762 -48.6093 -48.6036 -48.6008
   -48.5977 -22.7174 -22.7166 -22.6689 -22.6686 -21.5478 -21.1755 -19.6885
   -19.6614 -19.4096 -19.3579 -19.3567 -19.3269 -19.2983 -19.2879 -19.2720
   -19.2544 -19.2078 -19.2072 -19.2060 -19.1663 -19.1573 -19.1437 -19.1426
   -19.1410 -19.1294 -19.1135 -19.1117 -19.1104 -19.0791 -19.0691 -19.0610
   -19.0544 -18.9652 -18.9572 -18.9336 -18.9151 -18.9051 -18.9035 -18.8857
   -18.8678 -18.8383 -18.8350 -18.8267 -18.8090 -18.8017 -18.7836 -18.7683
   -18.7573 -18.7534 -18.7465 -18.7456 -18.7292 -18.7081 -18.6993 -18.6802
   -18.6727 -18.6578 -18.6537 -18.6524 -18.6513 -18.6346 -18.6145 -18.6133
   -18.6120 -18.6061 -18.6008 -18.5982 -18.5901 -18.5874 -18.5675 -18.5633
   -18.5617 -18.5616 -18.5369 -18.5362 -18.5313 -18.5312 -18.5261 -18.5134
   -18.4667 -18.4583 -18.4521 -18.4515 -18.4449 -18.4381 -18.4217 -18.4173
   -18.3995 -18.3992 -18.3990 -18.3871 -18.3758 -18.3739 -18.3686 -18.3648
   -18.2095 -18.2018 -18.1950 -18.1901  15.5856  15.6865  16.2178  16.2653
    16.5886  16.6376  16.8531  16.8960  17.3424  17.4354  17.6352  17.8020
    17.8201  17.9731  18.1750  18.3111  18.4137  18.4365  18.7132  18.7226
    18.7380  18.7479  18.7707  18.7964  18.8285  18.8631  18.8812  18.9243
    18.9658  19.0486  19.0701  19.1141  19.1151  19.1508  19.2025  19.2868
    19.2919  19.2942  19.3524  19.3805  19.4024  19.4806  19.5336  19.6031
    19.6037  19.6266  19.7718  19.7875  19.8093  19.8812  19.9724  20.0072
    20.0377  20.1651  20.2720  20.2930  20.3666  20.3907  20.4516  20.6331
    20.6854  20.6884  20.7749  20.8239  20.8276  21.0451  21.0748  21.2422
    21.2712  21.3445  21.4022  21.4506  21.5196  21.5674  21.5729  21.6128
    21.6200  21.6704  21.7252  21.7308  21.7371  21.7540  21.7716  21.7727
    21.8204  21.8750  21.8816  21.8829  21.9097  21.9145  22.0103  22.0150
    22.0582  22.1442  22.1480  22.1495  22.1990  22.2191  22.2542  22.2646
    22.2790  22.3272  22.3545  22.3771  22.3819  22.4468  22.4700  22.4834
    22.6514  22.6796  22.7219  22.8185  22.8524  22.9011  22.9538  23.0427
    23.0539  23.1658  23.1967  23.3531  23.3584  23.5740  23.5985  23.6622
    23.6681  23.7201  23.8027  23.8243  23.8362  23.8545  23.8811  23.9047
    23.9342  23.9765  24.1347  24.1422  24.1521  24.3369  24.3526  24.5023
    24.5213  24.6637  24.7522  24.7957  24.9065  24.9741  25.0415  25.1134
    25.4340  25.4428  25.4513  25.4554  25.4677  25.5402  25.5565  25.6047
    25.6414  25.6421  25.6733  25.7360  25.7658  25.7701  25.7703  25.7917
    25.8057  25.8871  25.9405  25.9722  26.0360  26.1268  26.3432  26.8031
    26.9792  27.4472  27.5867  27.6305  27.6717  28.1427  28.3277  28.5144
    28.6365  28.7145  28.8507  28.9283  29.0204

          k =-0.5000-0.3889 0.3889 ( 30162 PWs)   bands (ev):

   -51.2011 -51.1501 -49.1935 -49.1935 -49.1905 -49.1905 -49.1448 -49.1420
   -48.9869 -48.9862 -48.8498 -48.8085 -48.8062 -48.7751 -48.7727 -48.7695
   -48.7687 -48.7376 -48.7111 -48.7099 -48.7089 -48.7058 -48.7011 -48.6946
   -48.6923 -48.6920 -48.6816 -48.6812 -48.6771 -48.6090 -48.6025 -48.6017
   -48.5983 -22.7172 -22.7172 -22.6688 -22.6688 -21.5476 -21.1753 -19.6888
   -19.6563 -19.4087 -19.3576 -19.3564 -19.3288 -19.2947 -19.2941 -19.2666
   -19.2607 -19.2102 -19.2090 -19.2060 -19.1598 -19.1502 -19.1460 -19.1430
   -19.1420 -19.1244 -19.1230 -19.1228 -19.1168 -19.0890 -19.0794 -19.0582
   -19.0470 -18.9705 -18.9467 -18.9028 -18.9027 -18.8962 -18.8808 -18.8644
   -18.8568 -18.8560 -18.8394 -18.8257 -18.8168 -18.8067 -18.7918 -18.7709
   -18.7667 -18.7497 -18.7481 -18.7434 -18.7235 -18.7099 -18.7057 -18.6754
   -18.6724 -18.6700 -18.6614 -18.6560 -18.6448 -18.6299 -18.6297 -18.6250
   -18.6212 -18.6117 -18.6050 -18.6010 -18.5973 -18.5957 -18.5692 -18.5661
   -18.5654 -18.5556 -18.5480 -18.5446 -18.5336 -18.5300 -18.5234 -18.5210
   -18.4577 -18.4492 -18.4482 -18.4460 -18.4447 -18.4324 -18.4156 -18.4055
   -18.3925 -18.3917 -18.3882 -18.3840 -18.3821 -18.3749 -18.3713 -18.3696
   -18.2040 -18.2004 -18.1985 -18.1937  15.5837  15.6822  16.2313  16.2359
    16.5863  16.6400  16.8936  16.8980  17.3367  17.3914  17.6199  17.7892
    18.0073  18.0132  18.1668  18.2322  18.2445  18.3689  18.6735  18.6850
    18.7402  18.8073  18.8086  18.8092  18.8309  18.8538  18.8978  18.9501
    18.9529  18.9937  19.0064  19.1588  19.1629  19.1896  19.2182  19.2858
    19.3164  19.3204  19.3223  19.4020  19.4315  19.5001  19.5900  19.6864
    19.7271  19.7398  19.8910  19.9014  19.9253  19.9336  19.9354  19.9570
    20.0824  20.1168  20.1743  20.2184  20.3432  20.3462  20.3481  20.4776
    20.5357  20.5910  20.7609  20.8193  20.8488  21.1378  21.1563  21.1590
    21.2851  21.3186  21.4384  21.4683  21.5439  21.6241  21.6421  21.6423
    21.6731  21.6985  21.7190  21.7255  21.7342  21.7637  21.7711  21.7994
    21.8297  21.8321  21.8568  21.8848  21.9033  21.9130  21.9227  21.9613
    21.9707  21.9865  22.0520  22.0542  22.1142  22.2467  22.2501  22.2952
    22.3242  22.3336  22.4050  22.4283  22.4311  22.4379  22.5809  22.6123
    22.6191  22.6582  22.6996  22.7949  23.0069  23.0534  23.0865  23.1054
    23.1325  23.1579  23.2669  23.3147  23.3547  23.4064  23.4671  23.5427
    23.5450  23.5765  23.6183  23.6427  23.7366  23.7569  23.7608  23.7858
    23.9013  23.9135  23.9664  24.0300  24.0536  24.2778  24.3003  24.3289
    24.3377  24.7773  24.8304  24.8478  24.8617  24.9392  25.0211  25.1775
    25.4545  25.4826  25.5009  25.5148  25.5344  25.6473  25.6478  25.6585
    25.6988  25.7007  25.7771  25.8023  25.8081  25.8491  25.8647  25.8698
    25.8740  25.9217  25.9347  25.9555  26.0388  26.0814  26.3585  27.0038
    27.0497  28.0030  28.0356  28.0689  28.2136  28.2469  28.4150  28.5860
    28.6296  28.7782  28.7937  29.1177  29.2223

          k =-0.5000 0.5000 0.3889 ( 30188 PWs)   bands (ev):

   -51.2011 -51.1501 -49.1939 -49.1935 -49.1909 -49.1905 -49.1446 -49.1418
   -48.9864 -48.9857 -48.8497 -48.8075 -48.8064 -48.7762 -48.7744 -48.7696
   -48.7694 -48.7380 -48.7107 -48.7075 -48.7050 -48.7049 -48.7032 -48.6936
   -48.6935 -48.6934 -48.6821 -48.6807 -48.6786 -48.6087 -48.6024 -48.6013
   -48.5991 -22.7174 -22.7172 -22.6689 -22.6688 -21.5475 -21.1752 -19.6892
   -19.6533 -19.4072 -19.3568 -19.3555 -19.3294 -19.2971 -19.2939 -19.2664
   -19.2614 -19.2103 -19.2082 -19.2079 -19.1614 -19.1481 -19.1478 -19.1444
   -19.1400 -19.1268 -19.1223 -19.1213 -19.1187 -19.1020 -19.0839 -19.0517
   -19.0505 -18.9636 -18.9157 -18.9030 -18.8954 -18.8933 -18.8890 -18.8832
   -18.8545 -18.8427 -18.8414 -18.8216 -18.8075 -18.8052 -18.8049 -18.7689
   -18.7574 -18.7527 -18.7508 -18.7390 -18.7232 -18.7056 -18.7056 -18.6850
   -18.6743 -18.6647 -18.6615 -18.6574 -18.6505 -18.6416 -18.6349 -18.6261
   -18.6260 -18.6221 -18.6058 -18.6056 -18.6002 -18.5990 -18.5688 -18.5681
   -18.5667 -18.5558 -18.5426 -18.5409 -18.5408 -18.5321 -18.5295 -18.5225
   -18.4493 -18.4471 -18.4467 -18.4450 -18.4402 -18.4283 -18.4107 -18.4066
   -18.3928 -18.3859 -18.3850 -18.3844 -18.3799 -18.3777 -18.3709 -18.3698
   -18.2022 -18.2022 -18.1963 -18.1956  15.5832  15.6801  16.2225  16.2353
    16.5852  16.6389  16.8937  16.9269  17.3368  17.3662  17.7207  17.8895
    17.8960  18.0263  18.0668  18.1917  18.2569  18.3093  18.7461  18.7503
    18.7515  18.7529  18.7861  18.7941  18.8480  18.8599  18.8914  18.9245
    18.9554  18.9596  18.9814  19.1930  19.2112  19.2112  19.2297  19.2444
    19.3052  19.3332  19.3424  19.4431  19.4900  19.4918  19.7019  19.7345
    19.7451  19.7968  19.8528  19.8712  19.8756  19.9112  19.9261  19.9694
    20.0918  20.1542  20.1565  20.2134  20.2217  20.3778  20.3835  20.4779
    20.5332  20.5991  20.6552  20.6999  20.8066  21.1541  21.1973  21.2723
    21.3303  21.4007  21.4138  21.4427  21.5802  21.6069  21.6140  21.6244
    21.6570  21.6968  21.7102  21.7191  21.7630  21.7673  21.7993  21.8312
    21.8444  21.8800  21.9055  21.9108  21.9212  21.9234  21.9459  21.9723
    21.9976  22.0380  22.0395  22.1014  22.1181  22.1418  22.1618  22.1782
    22.2081  22.2847  22.3878  22.3978  22.4263  22.4452  22.5399  22.6126
    22.6441  22.6886  22.8087  22.8500  22.9454  22.9988  23.0624  23.0834
    23.1200  23.1794  23.2706  23.2787  23.3323  23.4167  23.4367  23.5074
    23.5593  23.5608  23.6191  23.6248  23.6740  23.6768  23.7553  23.7799
    23.7940  23.8820  23.9820  24.0097  24.0309  24.0873  24.2233  24.2256
    24.2391  24.8226  24.8287  24.8526  24.8741  24.9375  25.1094  25.2116
    25.4257  25.5065  25.5390  25.5778  25.5974  25.6660  25.6727  25.6873
    25.7101  25.7360  25.7809  25.8350  25.8588  25.8756  25.8852  25.8976
    25.9051  25.9430  25.9494  25.9516  26.0540  26.0997  26.3512  27.0175
    27.1259  28.2507  28.2824  28.3754  28.4053  28.5102  28.5115  28.7837
    28.8422  28.9733  29.1008  29.1293  29.1903

     the Fermi energy is    24.1438 ev

!    total energy              =  -14243.38841952 Ry

     total all-electron energy =   -299050.290957 Ry
     estimated scf accuracy    <       0.00000017 Ry
     smearing contrib. (-TS)   =       0.01571373 Ry
     internal energy E=F+TS    =  -14243.40413325 Ry

     The total energy is F=E-TS. E is the sum of the following terms:
     one-electron contribution =   -1076.71171151 Ry
     hartree contribution      =     985.30946216 Ry
     xc contribution           =    -960.15551200 Ry
     ewald contribution        =   -5365.10944516 Ry
     one-center paw contrib.   =   -7826.73692673 Ry

     convergence has been achieved in  15 iterations

     Forces acting on atoms (cartesian axes, Ry/au):

     atom    1 type  1   force =    -0.00224980    0.00000000    0.00000000
     atom    2 type  1   force =     0.63899408    0.00000000    0.00000000
     atom    3 type  1   force =    -0.63673700    0.00000000    0.00000000
     atom    4 type  1   force =    -0.14911941    0.50480901    0.00000000
     atom    5 type  1   force =    -0.14911941    0.00000000    0.50480901
     atom    6 type  1   force =    -0.00000980    0.02378208    0.02378208
     atom    7 type  1   force =     0.00025961    0.00000000    0.00000000
     atom    8 type  1   force =    -0.00293619    0.00239867    0.00000000
     atom    9 type  1   force =    -0.14911941    0.00000000   -0.50480901
     atom   10 type  1   force =    -0.00000980    0.02378208   -0.02378208
     atom   11 type  1   force =     0.00025961    0.00000000    0.00000000
     atom   12 type  1   force =    -0.14911941   -0.50480901    0.00000000
     atom   13 type  1   force =    -0.00293619    0.00000000    0.00239867
     atom   14 type  1   force =    -0.00000980   -0.02378208    0.02378208
     atom   15 type  1   force =    -0.00001924    0.00000000    0.00000000
     atom   16 type  1   force =    -0.00293619   -0.00239867    0.00000000
     atom   17 type  1   force =    -0.00293619    0.00000000   -0.00239867
     atom   18 type  1   force =    -0.00000980   -0.02378208   -0.02378208
     atom   19 type  1   force =     0.14876347    0.49949480    0.00000000
     atom   20 type  1   force =     0.14876347    0.00000000    0.49949480
     atom   21 type  1   force =     0.00016429    0.01951893    0.01951893
     atom   22 type  1   force =     0.00007321    0.00000000    0.00000000
     atom   23 type  1   force =     0.00297930    0.00197138    0.00000000
     atom   24 type  1   force =     0.14876347    0.00000000   -0.49949480
     atom   25 type  1   force =     0.00016429    0.01951893   -0.01951893
     atom   26 type  1   force =     0.00007321    0.00000000    0.00000000
     atom   27 type  1   force =     0.14876347   -0.49949480    0.00000000
     atom   28 type  1   force =     0.00297930    0.00000000    0.00197138
     atom   29 type  1   force =     0.00016429   -0.01951893    0.01951893
     atom   30 type  1   force =    -0.00002037    0.00000000    0.00000000
     atom   31 type  1   force =     0.00297930   -0.00197138    0.00000000
     atom   32 type  1   force =     0.00297930    0.00000000   -0.00197138
     atom   33 type  1   force =     0.00016429   -0.01951893   -0.01951893

     Total force =     1.736724     Total SCF correction =     0.002585


     Computing stress (Cartesian axis) and pressure

          total   stress  (Ry/bohr**3)                   (kbar)     P=      317.69
   0.00132083   0.00000000   0.00000000          194.30        0.00        0.00
   0.00000000   0.00257896   0.00000000            0.00      379.38        0.00
   0.00000000   0.00000000   0.00257896            0.00        0.00      379.38


     Writing output data file /scratch/rucrowdion3.save/
 
     init_run     :     21.26s CPU     21.81s WALL (       1 calls)
     electrons    :   1032.13s CPU   1045.53s WALL (       1 calls)
     forces       :     11.59s CPU     11.68s WALL (       1 calls)
     stress       :     71.55s CPU     72.28s WALL (       1 calls)

     Called by init_run:
     wfcinit      :     20.53s CPU     21.00s WALL (       1 calls)
     potinit      :      0.16s CPU      0.18s WALL (       1 calls)
     hinit0       :      0.12s CPU      0.12s WALL (       1 calls)

     Called by electrons:
     c_bands      :    904.29s CPU    914.92s WALL (      16 calls)
     sum_band     :    125.81s CPU    128.23s WALL (      16 calls)
     v_of_rho     :      0.21s CPU      0.23s WALL (      16 calls)
     newd         :      0.54s CPU      0.74s WALL (      16 calls)
     PAW_pot      :      1.35s CPU      1.45s WALL (      16 calls)
     mix_rho      :      0.15s CPU      0.16s WALL (      16 calls)

     Called by c_bands:
     init_us_2    :      4.69s CPU      4.77s WALL (    2625 calls)
     cegterg      :    885.48s CPU    895.50s WALL (    1200 calls)

     Called by *egterg:
     cdiaghg      :    102.56s CPU    103.12s WALL (    4445 calls)
     h_psi        :    503.33s CPU    510.92s WALL (    4595 calls)
     s_psi        :     40.85s CPU     41.14s WALL (    4595 calls)
     g_psi        :      1.00s CPU      1.01s WALL (    3320 calls)

     Called by h_psi:
     h_psi:calbec :     76.84s CPU     77.47s WALL (    4595 calls)
     vloc_psi     :    383.92s CPU    390.18s WALL (    4595 calls)
     add_vuspsi   :     39.86s CPU     40.53s WALL (    4595 calls)

     General routines
     calbec       :    123.17s CPU    124.10s WALL (    6170 calls)
     fft          :      0.41s CPU      0.44s WALL (     232 calls)
     ffts         :      0.02s CPU      0.03s WALL (      32 calls)
     fftw         :    451.67s CPU    458.94s WALL ( 2140684 calls)
     interpolate  :      0.03s CPU      0.05s WALL (      16 calls)
 
     Parallel routines
     fft_scatt_xy :     37.40s CPU     37.99s WALL ( 2140948 calls)
     fft_scatt_yz :    351.26s CPU    357.00s WALL ( 2140948 calls)
 
     PWSCF        :  19m12.87s CPU  19m31.15s WALL

 
   This run was terminated on:  20:54:58   3Jan2022            

=------------------------------------------------------------------------------=
   JOB DONE.
=------------------------------------------------------------------------------=
