
     Program PWSCF v.6.7MaX starts on  2Jan2022 at 22: 0:19 

     This program is part of the open-source Quantum ESPRESSO suite
     for quantum simulation of materials; please cite
         "P. Giannozzi et al., J. Phys.:Condens. Matter 21 395502 (2009);
         "P. Giannozzi et al., J. Phys.:Condens. Matter 29 465901 (2017);
          URL http://www.quantum-espresso.org", 
     in publications or presentations arising from this work. More details at
     http://www.quantum-espresso.org/quote

     Parallel version (MPI & OpenMP), running on      72 processor cores
     Number of MPI processes:                72
     Threads/MPI process:                     1

     MPI processes distributed on     1 nodes
     R & G space division:  proc/nbgrp/npool/nimage =      72
     Reading input from ru_octa_2.in

     Current dimensions of program PWSCF are:
     Max number of different atomic species (ntypx) = 10
     Max number of k-points (npk) =  40000
     Max angular momentum in pseudopotentials (lmaxx) =  3
     file Ru.pbe-spn-kjpaw_psl.1.0.0.UPF: wavefunction(s)  4D renormalized

     Subspace diagonalization in iterative solution of the eigenvalue problem:
     one sub-group per band group will be used
     ELPA distributed-memory algorithm (size of sub-group:  8*  8 procs)

     Message from routine setup:
     using ibrav=0 with symmetry is DISCOURAGED, use correct ibrav instead
 
     Parallelization info
     --------------------
     sticks:   dense  smooth     PW     G-vecs:    dense   smooth      PW
     Min          98      65     17                 6240     3351     475
     Max          99      66     18                 6245     3355     482
     Sum        7113    4693   1281               449479   241377   34457
 


     bravais-lattice index     =            0
     lattice parameter (alat)  =      14.4007  a.u.
     unit-cell volume          =    2986.4454 (a.u.)^3
     number of atoms/cell      =           33
     number of atomic types    =            1
     number of electrons       =       528.00
     number of Kohn-Sham states=          317
     kinetic-energy cutoff     =      71.0000  Ry
     charge density cutoff     =     430.0000  Ry
     scf convergence threshold =      1.0E-06
     mixing beta               =       0.1000
     number of iterations used =           10  TF        mixing
     energy convergence thresh.=      1.0E-04
     force convergence thresh. =      1.0E-03
     press convergence thresh. =      5.0E-01
     Exchange-correlation= SLA  PW   PBX  PBC
                           (   1   4   3   4   0   0   0)
     nstep                     =           40


     celldm(1)=  14.400742  celldm(2)=   0.000000  celldm(3)=   0.000000
     celldm(4)=   0.000000  celldm(5)=   0.000000  celldm(6)=   0.000000

     crystal axes: (cart. coord. in units of alat)
               a(1) = (   1.000000   0.000000   0.000000 )  
               a(2) = (   0.000000   1.000000   0.000000 )  
               a(3) = (   0.000000   0.000000   1.000000 )  

     reciprocal axes: (cart. coord. in units 2 pi/alat)
               b(1) = (  1.000000  0.000000  0.000000 )  
               b(2) = (  0.000000  1.000000  0.000000 )  
               b(3) = (  0.000000  0.000000  1.000000 )  


     PseudoPot. # 1 for Ru read from file:
     /rds/homes/b/bxp912/pp/Ru.pbe-spn-kjpaw_psl.1.0.0.UPF
     MD5 check sum: 0ae1f594dea09af7be8575c3a481d1ae
     Pseudo is Projector augmented-wave + core cor, Zval = 16.0
     Generated using "atomic" code by A. Dal Corso  v.5.1
     Shape of augmentation charge: PSQ
     Using radial grid of 1233 points,  6 beta functions with: 
                l(1) =   0
                l(2) =   0
                l(3) =   1
                l(4) =   1
                l(5) =   2
                l(6) =   2
     Q(r) pseudized with 0 coefficients 


     atomic species   valence    mass     pseudopotential
        Ru            16.00   101.07000     Ru( 1.00)

     48 Sym. Ops., with inversion, found (42 have fractional translation)



   Cartesian axes

     site n.     atom                  positions (alat units)
         1           Ru  tau(   1) = (   0.2500000   0.2500000   0.2500000  )
         2           Ru  tau(   2) = (   0.0000000   0.0000000   0.0000000  )
         3           Ru  tau(   3) = (   0.2500000   0.2500000   0.0000000  )
         4           Ru  tau(   4) = (   0.2500000   0.0000000   0.2500000  )
         5           Ru  tau(   5) = (   0.0000000   0.2500000   0.2500000  )
         6           Ru  tau(   6) = (   0.0000000   0.0000000   0.5000000  )
         7           Ru  tau(   7) = (   0.2500000   0.2500000   0.5000000  )
         8           Ru  tau(   8) = (   0.2500000   0.0000000   0.7500000  )
         9           Ru  tau(   9) = (   0.0000000   0.2500000   0.7500000  )
        10           Ru  tau(  10) = (   0.0000000   0.5000000   0.0000000  )
        11           Ru  tau(  11) = (   0.2500000   0.7500000   0.0000000  )
        12           Ru  tau(  12) = (   0.2500000   0.5000000   0.2500000  )
        13           Ru  tau(  13) = (   0.0000000   0.7500000   0.2500000  )
        14           Ru  tau(  14) = (   0.0000000   0.5000000   0.5000000  )
        15           Ru  tau(  15) = (   0.2500000   0.7500000   0.5000000  )
        16           Ru  tau(  16) = (   0.2500000   0.5000000   0.7500000  )
        17           Ru  tau(  17) = (   0.0000000   0.7500000   0.7500000  )
        18           Ru  tau(  18) = (   0.5000000   0.0000000   0.0000000  )
        19           Ru  tau(  19) = (   0.7500000   0.2500000   0.0000000  )
        20           Ru  tau(  20) = (   0.7500000   0.0000000   0.2500000  )
        21           Ru  tau(  21) = (   0.5000000   0.2500000   0.2500000  )
        22           Ru  tau(  22) = (   0.5000000   0.0000000   0.5000000  )
        23           Ru  tau(  23) = (   0.7500000   0.2500000   0.5000000  )
        24           Ru  tau(  24) = (   0.7500000   0.0000000   0.7500000  )
        25           Ru  tau(  25) = (   0.5000000   0.2500000   0.7500000  )
        26           Ru  tau(  26) = (   0.5000000   0.5000000   0.0000000  )
        27           Ru  tau(  27) = (   0.7500000   0.7500000   0.0000000  )
        28           Ru  tau(  28) = (   0.7500000   0.5000000   0.2500000  )
        29           Ru  tau(  29) = (   0.5000000   0.7500000   0.2500000  )
        30           Ru  tau(  30) = (   0.5000000   0.5000000   0.5000000  )
        31           Ru  tau(  31) = (   0.7500000   0.7500000   0.5000000  )
        32           Ru  tau(  32) = (   0.7500000   0.5000000   0.7500000  )
        33           Ru  tau(  33) = (   0.5000000   0.7500000   0.7500000  )

     number of k points=    35  Marzari-Vanderbilt smearing, width (Ry)=  0.0400
                       cart. coord. in units 2pi/alat
        k(    1) = (   0.0555556   0.0555556   0.0555556), wk =   0.0219479
        k(    2) = (   0.0555556   0.0555556   0.1666667), wk =   0.0658436
        k(    3) = (   0.0555556   0.0555556   0.2777778), wk =   0.0658436
        k(    4) = (   0.0555556   0.0555556   0.3888889), wk =   0.0658436
        k(    5) = (   0.0555556   0.0555556  -0.5000000), wk =   0.0329218
        k(    6) = (   0.0555556   0.1666667   0.1666667), wk =   0.0658436
        k(    7) = (   0.0555556   0.1666667   0.2777778), wk =   0.1316872
        k(    8) = (   0.0555556   0.1666667   0.3888889), wk =   0.1316872
        k(    9) = (   0.0555556   0.1666667  -0.5000000), wk =   0.0658436
        k(   10) = (   0.0555556   0.2777778   0.2777778), wk =   0.0658436
        k(   11) = (   0.0555556   0.2777778   0.3888889), wk =   0.1316872
        k(   12) = (   0.0555556   0.2777778  -0.5000000), wk =   0.0658436
        k(   13) = (   0.0555556   0.3888889   0.3888889), wk =   0.0658436
        k(   14) = (   0.0555556   0.3888889  -0.5000000), wk =   0.0658436
        k(   15) = (   0.0555556  -0.5000000  -0.5000000), wk =   0.0164609
        k(   16) = (   0.1666667   0.1666667   0.1666667), wk =   0.0219479
        k(   17) = (   0.1666667   0.1666667   0.2777778), wk =   0.0658436
        k(   18) = (   0.1666667   0.1666667   0.3888889), wk =   0.0658436
        k(   19) = (   0.1666667   0.1666667  -0.5000000), wk =   0.0329218
        k(   20) = (   0.1666667   0.2777778   0.2777778), wk =   0.0658436
        k(   21) = (   0.1666667   0.2777778   0.3888889), wk =   0.1316872
        k(   22) = (   0.1666667   0.2777778  -0.5000000), wk =   0.0658436
        k(   23) = (   0.1666667   0.3888889   0.3888889), wk =   0.0658436
        k(   24) = (   0.1666667   0.3888889  -0.5000000), wk =   0.0658436
        k(   25) = (   0.1666667  -0.5000000  -0.5000000), wk =   0.0164609
        k(   26) = (   0.2777778   0.2777778   0.2777778), wk =   0.0219479
        k(   27) = (   0.2777778   0.2777778   0.3888889), wk =   0.0658436
        k(   28) = (   0.2777778   0.2777778  -0.5000000), wk =   0.0329218
        k(   29) = (   0.2777778   0.3888889   0.3888889), wk =   0.0658436
        k(   30) = (   0.2777778   0.3888889  -0.5000000), wk =   0.0658436
        k(   31) = (   0.2777778  -0.5000000  -0.5000000), wk =   0.0164609
        k(   32) = (   0.3888889   0.3888889   0.3888889), wk =   0.0219479
        k(   33) = (   0.3888889   0.3888889  -0.5000000), wk =   0.0329218
        k(   34) = (   0.3888889  -0.5000000  -0.5000000), wk =   0.0164609
        k(   35) = (  -0.5000000  -0.5000000  -0.5000000), wk =   0.0027435

     Dense  grid:   449479 G-vectors     FFT dimensions: (  96,  96,  96)

     Smooth grid:   241377 G-vectors     FFT dimensions: (  80,  80,  80)

     Estimated max dynamical RAM per process >     111.45 MB

     Estimated total dynamical RAM >       7.84 GB

     Check: negative core charge=   -0.000002

     Initial potential from superposition of free atoms

     starting charge  527.97896, renormalised to  528.00000
     Starting wfcs are  330 randomized atomic wfcs
     Checking if some PAW data can be deallocated... 

     total cpu time spent up to now is       13.3 secs

     Self-consistent Calculation

     iteration #  1     ecut=    71.00 Ry     beta= 0.10
     Davidson diagonalization with overlap
     ethr =  1.00E-02,  avg # of iterations =  4.3

     Threshold (ethr) on eigenvalues was too large:
     Diagonalizing with lowered threshold

     Davidson diagonalization with overlap
     ethr =  8.18E-04,  avg # of iterations =  2.7

     total cpu time spent up to now is       78.1 secs

     total energy              =  -14243.09783913 Ry
     estimated scf accuracy    <       4.49773994 Ry

     iteration #  2     ecut=    71.00 Ry     beta= 0.10
     Davidson diagonalization with overlap
     ethr =  8.52E-04,  avg # of iterations =  1.1

     total cpu time spent up to now is      103.4 secs

     total energy              =  -14242.84245585 Ry
     estimated scf accuracy    <       2.33794280 Ry

     iteration #  3     ecut=    71.00 Ry     beta= 0.10
     Davidson diagonalization with overlap
     ethr =  4.43E-04,  avg # of iterations =  1.7

     total cpu time spent up to now is      129.3 secs

     total energy              =  -14242.87819141 Ry
     estimated scf accuracy    <       0.25729091 Ry

     iteration #  4     ecut=    71.00 Ry     beta= 0.10
     Davidson diagonalization with overlap
     ethr =  4.87E-05,  avg # of iterations =  5.3

     total cpu time spent up to now is      160.5 secs

     total energy              =  -14242.88335272 Ry
     estimated scf accuracy    <       0.05550668 Ry

     iteration #  5     ecut=    71.00 Ry     beta= 0.10
     Davidson diagonalization with overlap
     c_bands:  2 eigenvalues not converged
     ethr =  1.05E-05,  avg # of iterations =  6.6

     total cpu time spent up to now is      193.7 secs

     total energy              =  -14242.88191431 Ry
     estimated scf accuracy    <       0.02141226 Ry

     iteration #  6     ecut=    71.00 Ry     beta= 0.10
     Davidson diagonalization with overlap
     ethr =  4.06E-06,  avg # of iterations =  3.5

     total cpu time spent up to now is      223.4 secs

     total energy              =  -14242.88159942 Ry
     estimated scf accuracy    <       0.00600922 Ry

     iteration #  7     ecut=    71.00 Ry     beta= 0.10
     Davidson diagonalization with overlap
     ethr =  1.14E-06,  avg # of iterations =  4.3

     total cpu time spent up to now is      258.8 secs

     total energy              =  -14242.88200712 Ry
     estimated scf accuracy    <       0.00299705 Ry

     iteration #  8     ecut=    71.00 Ry     beta= 0.10
     Davidson diagonalization with overlap
     ethr =  5.68E-07,  avg # of iterations =  2.1

     total cpu time spent up to now is      287.3 secs

     total energy              =  -14242.88161031 Ry
     estimated scf accuracy    <       0.00155277 Ry

     iteration #  9     ecut=    71.00 Ry     beta= 0.10
     Davidson diagonalization with overlap
     ethr =  2.94E-07,  avg # of iterations =  2.1

     total cpu time spent up to now is      320.6 secs

     total energy              =  -14242.88186056 Ry
     estimated scf accuracy    <       0.00015896 Ry

     iteration # 10     ecut=    71.00 Ry     beta= 0.10
     Davidson diagonalization with overlap
     ethr =  3.01E-08,  avg # of iterations =  3.1

     total cpu time spent up to now is      349.8 secs

     total energy              =  -14242.88183989 Ry
     estimated scf accuracy    <       0.00011958 Ry

     iteration # 11     ecut=    71.00 Ry     beta= 0.10
     Davidson diagonalization with overlap
     ethr =  2.26E-08,  avg # of iterations =  2.0

     total cpu time spent up to now is      377.4 secs

     total energy              =  -14242.88183791 Ry
     estimated scf accuracy    <       0.00002192 Ry

     iteration # 12     ecut=    71.00 Ry     beta= 0.10
     Davidson diagonalization with overlap
     ethr =  4.15E-09,  avg # of iterations =  2.0

     total cpu time spent up to now is      413.6 secs

     total energy              =  -14242.88184003 Ry
     estimated scf accuracy    <       0.00001149 Ry

     iteration # 13     ecut=    71.00 Ry     beta= 0.10
     Davidson diagonalization with overlap
     ethr =  2.18E-09,  avg # of iterations =  2.1

     total cpu time spent up to now is      447.1 secs

     total energy              =  -14242.88184174 Ry
     estimated scf accuracy    <       0.00000316 Ry

     iteration # 14     ecut=    71.00 Ry     beta= 0.10
     Davidson diagonalization with overlap
     ethr =  5.99E-10,  avg # of iterations =  2.0

     total cpu time spent up to now is      483.3 secs

     total energy              =  -14242.88184235 Ry
     estimated scf accuracy    <       0.00000243 Ry

     iteration # 15     ecut=    71.00 Ry     beta= 0.10
     Davidson diagonalization with overlap
     ethr =  4.60E-10,  avg # of iterations =  2.0

     total cpu time spent up to now is      516.8 secs

     End of self-consistent calculation

          k = 0.0556 0.0556 0.0556 ( 30224 PWs)   bands (ev):

   -53.4896 -49.3308 -49.3308 -49.3308 -49.2647 -49.2647 -48.9730 -48.9007
   -48.8421 -48.8421 -48.8357 -48.8281 -48.8281 -48.8053 -48.7968 -48.7963
   -48.7963 -48.7796 -48.7796 -48.7762 -48.7697 -48.7697 -48.7534 -48.7532
   -48.7522 -48.7522 -48.7388 -48.7388 -48.7213 -48.7186 -48.7186 -48.7186
   -48.7088 -25.0853 -25.0853 -25.0853 -20.0945 -20.0945 -19.9801 -19.5129
   -19.5129 -19.5113 -19.3280 -19.3271 -19.3271 -19.2526 -19.2275 -19.2275
   -19.2183 -19.2179 -19.2096 -19.2096 -19.1725 -19.1725 -19.1657 -19.1145
   -19.1022 -19.1022 -19.0538 -19.0538 -19.0369 -19.0332 -19.0253 -19.0253
   -19.0182 -19.0182 -19.0074 -18.9873 -18.9873 -18.9311 -18.9173 -18.9173
   -18.9031 -18.8885 -18.8885 -18.8668 -18.8668 -18.8552 -18.8531 -18.8459
   -18.8442 -18.8442 -18.7730 -18.7730 -18.7565 -18.7443 -18.7443 -18.7428
   -18.7405 -18.7405 -18.7384 -18.7214 -18.7211 -18.7211 -18.6565 -18.6565
   -18.6526 -18.6526 -18.6503 -18.6280 -18.6200 -18.6200 -18.5775 -18.5775
   -18.5726 -18.5595 -18.5536 -18.5536 -18.5328 -18.5328 -18.5282 -18.5273
   -18.5195 -18.5195 -18.5104 -18.5104 -18.5093 -18.4995 -18.4995 -18.4958
   -18.4913 -18.4913 -18.4891 -18.4851 -18.4851 -18.4704 -18.3930 -18.3870
   -18.3870 -17.9873 -17.9863 -17.9863  13.5213  13.5213  13.5213  14.9187
    14.9187  16.1025  17.6976  17.6976  17.7870  17.8015  17.8059  17.8059
    17.9099  18.3793  18.4393  18.4393  18.5688  18.5688  18.5698  18.5791
    18.6855  18.6855  19.1142  19.1165  19.1165  19.2947  19.3787  19.3787
    19.4081  19.5038  19.5098  19.5098  19.5810  19.5810  19.6366  19.6366
    19.6381  19.7322  19.7592  19.7592  19.8131  19.8961  19.8961  19.9905
    20.0756  20.0756  20.2098  20.2551  20.2551  20.3129  20.3252  20.3252
    20.3778  20.4358  20.4358  20.4669  20.5123  20.5306  20.5306  20.5732
    20.5732  20.6750  20.7142  20.7142  20.7676  20.7676  20.7868  20.8093
    20.8093  20.8363  20.8554  20.8936  20.8936  20.9533  20.9533  20.9823
    21.2122  21.2122  21.2382  21.2496  21.2614  21.2614  21.3489  21.3689
    21.3689  21.4021  21.4021  21.4043  21.4886  21.4886  22.3008  22.4734
    22.4734  22.4852  22.5262  22.5262  22.6187  22.6187  22.6633  22.6883
    22.7094  22.7094  22.7619  22.7645  22.7645  22.7877  22.7877  22.8268
    22.8268  22.8405  22.8493  22.9512  23.0775  23.0775  23.1588  23.1588
    23.2909  23.3079  23.4039  23.4039  23.4640  23.4640  23.4790  23.5144
    23.5525  23.5525  23.6006  23.6006  23.6017  23.6495  23.6917  23.6917
    23.7005  23.7005  23.7370  23.8487  23.8487  23.9555  24.1086  24.1086
    24.4765  24.4765  24.6013  24.6484  24.7114  24.7114  24.8089  24.9028
    25.3618  25.3618  25.5204  25.5204  25.5437  25.5832  25.6062  25.6062
    25.6643  25.6643  25.7267  25.8091  25.8091  25.8217  26.0012  26.0679
    26.0679  26.1417  26.1781  26.1781  26.1897  26.1897  26.2159  26.5010
    26.5010  26.5142  27.2405  27.2405  27.5256  27.6747  27.6747  27.6952
    27.8033  27.8033  28.0138  28.0138  28.0139

          k = 0.0556 0.0556 0.1667 ( 30207 PWs)   bands (ev):

   -53.4896 -49.3315 -49.3308 -49.3308 -49.2647 -49.2642 -48.9698 -48.9031
   -48.8520 -48.8416 -48.8358 -48.8277 -48.8208 -48.8027 -48.7968 -48.7964
   -48.7945 -48.7845 -48.7818 -48.7781 -48.7698 -48.7656 -48.7533 -48.7531
   -48.7487 -48.7486 -48.7406 -48.7381 -48.7224 -48.7199 -48.7199 -48.7182
   -48.7098 -25.0855 -25.0853 -25.0853 -20.0944 -20.0933 -19.9775 -19.5078
   -19.5051 -19.5031 -19.3250 -19.3243 -19.3213 -19.2489 -19.2406 -19.2404
   -19.2274 -19.2197 -19.2040 -19.2038 -19.1825 -19.1822 -19.1592 -19.1216
   -19.1044 -19.0917 -19.0662 -19.0660 -19.0554 -19.0379 -19.0363 -19.0354
   -19.0204 -19.0044 -19.0029 -18.9875 -18.9848 -18.9589 -18.9353 -18.9317
   -18.9127 -18.8888 -18.8773 -18.8716 -18.8705 -18.8551 -18.8429 -18.8377
   -18.8216 -18.8183 -18.7801 -18.7461 -18.7423 -18.7418 -18.7360 -18.7359
   -18.7332 -18.7323 -18.7182 -18.7158 -18.7131 -18.7095 -18.6662 -18.6660
   -18.6606 -18.6517 -18.6372 -18.6285 -18.6131 -18.6122 -18.5855 -18.5837
   -18.5769 -18.5551 -18.5509 -18.5495 -18.5457 -18.5418 -18.5312 -18.5298
   -18.5206 -18.5199 -18.5129 -18.5116 -18.5115 -18.5062 -18.5007 -18.4975
   -18.4930 -18.4902 -18.4897 -18.4840 -18.4836 -18.4661 -18.4075 -18.3918
   -18.3899 -17.9871 -17.9859 -17.9840  13.5213  13.5221  13.5222  14.9198
    14.9421  16.1884  17.7420  17.7615  17.8208  17.8427  17.8541  17.8552
    17.9667  18.1765  18.4662  18.4955  18.5835  18.6053  18.6065  18.6309
    18.6866  18.7453  18.9989  19.1619  19.1622  19.2004  19.2618  19.2954
    19.3302  19.3536  19.4066  19.4223  19.4929  19.5181  19.5678  19.5891
    19.6349  19.6502  19.6720  19.7102  19.7577  19.8303  19.8503  19.9323
    19.9584  20.0850  20.1052  20.1633  20.2388  20.2648  20.2686  20.3284
    20.3579  20.3664  20.4284  20.4666  20.4908  20.4937  20.5722  20.6216
    20.6544  20.6614  20.7085  20.7183  20.7471  20.7582  20.7786  20.8529
    20.8650  20.9284  20.9401  21.0100  21.0817  21.1120  21.1353  21.1558
    21.2112  21.2180  21.2372  21.2799  21.3086  21.3307  21.3487  21.3854
    21.4031  21.4091  21.4440  21.4555  21.4858  21.5512  22.1113  22.2472
    22.2740  22.2969  22.4015  22.4151  22.5145  22.5147  22.5647  22.5737
    22.6327  22.6959  22.7323  22.7377  22.8476  22.8667  22.9399  22.9543
    22.9620  22.9775  22.9853  23.0176  23.0822  23.1406  23.1777  23.2464
    23.3081  23.3743  23.4229  23.4551  23.5022  23.5543  23.5773  23.5901
    23.6123  23.6776  23.6777  23.6984  23.7465  23.7534  23.7779  23.8551
    23.9257  23.9483  24.0074  24.0329  24.1023  24.1216  24.1267  24.1401
    24.1408  24.1833  24.2638  24.4407  24.6075  24.7523  24.7706  24.9208
    25.2037  25.2165  25.3246  25.3312  25.4244  25.4949  25.5062  25.5066
    25.6071  25.6538  25.6979  25.7278  25.8033  25.9437  25.9554  26.0060
    26.0641  26.0799  26.1007  26.1603  26.1956  26.2100  26.2326  26.5278
    26.6509  26.6895  26.9283  26.9396  27.2817  27.4015  27.4815  27.5606
    27.8541  27.9362  28.0066  28.2719  28.2766

          k = 0.0556 0.0556 0.2778 ( 30183 PWs)   bands (ev):

   -53.4896 -49.3326 -49.3308 -49.3307 -49.2647 -49.2635 -48.9640 -48.9083
   -48.8591 -48.8407 -48.8359 -48.8272 -48.8193 -48.7972 -48.7969 -48.7962
   -48.7914 -48.7882 -48.7848 -48.7818 -48.7686 -48.7612 -48.7534 -48.7530
   -48.7446 -48.7433 -48.7429 -48.7364 -48.7246 -48.7225 -48.7224 -48.7175
   -48.7115 -25.0858 -25.0853 -25.0853 -20.0944 -20.0915 -19.9732 -19.4984
   -19.4915 -19.4898 -19.3220 -19.3218 -19.3140 -19.2584 -19.2569 -19.2437
   -19.2373 -19.2226 -19.2073 -19.2058 -19.1879 -19.1858 -19.1515 -19.1245
   -19.1071 -19.0871 -19.0857 -19.0809 -19.0726 -19.0487 -19.0434 -19.0412
   -19.0296 -19.0200 -18.9871 -18.9844 -18.9826 -18.9677 -18.9522 -18.9481
   -18.9257 -18.9043 -18.8732 -18.8729 -18.8606 -18.8589 -18.8360 -18.8353
   -18.7947 -18.7913 -18.7885 -18.7426 -18.7289 -18.7249 -18.7222 -18.7190
   -18.7180 -18.7051 -18.7050 -18.7045 -18.6863 -18.6791 -18.6767 -18.6692
   -18.6663 -18.6412 -18.6286 -18.6222 -18.6076 -18.6048 -18.5934 -18.5914
   -18.5870 -18.5706 -18.5706 -18.5518 -18.5486 -18.5420 -18.5393 -18.5327
   -18.5261 -18.5211 -18.5209 -18.5187 -18.5136 -18.5096 -18.5032 -18.5005
   -18.4929 -18.4886 -18.4886 -18.4768 -18.4752 -18.4636 -18.4326 -18.4008
   -18.3985 -17.9862 -17.9852 -17.9808  13.5214  13.5234  13.5235  14.9215
    14.9785  16.3578  17.6585  17.8556  17.8849  17.9172  17.9465  17.9483
    18.0750  18.0896  18.5491  18.5735  18.5980  18.6106  18.6746  18.6760
    18.7669  18.7817  18.8718  18.9639  19.0138  19.0769  19.1063  19.1351
    19.2468  19.2485  19.3330  19.3495  19.3809  19.4513  19.4600  19.4879
    19.5140  19.6132  19.6878  19.6887  19.7158  19.7254  19.7558  19.8819
    19.9441  20.0253  20.0386  20.1654  20.1707  20.2249  20.2258  20.2611
    20.2950  20.3142  20.3599  20.4115  20.4739  20.5067  20.5245  20.5274
    20.6210  20.6419  20.6710  20.6723  20.7472  20.7920  20.8730  20.8934
    20.9384  20.9688  21.0067  21.0423  21.0819  21.1258  21.1869  21.2227
    21.2578  21.2630  21.2892  21.3199  21.4706  21.4789  21.5218  21.5373
    21.5494  21.5838  21.5904  21.7545  21.8631  21.8704  21.8796  21.9926
    21.9935  22.0449  22.1753  22.2055  22.2615  22.3086  22.3545  22.3853
    22.4790  22.7912  22.8103  22.8894  22.9492  22.9946  23.0277  23.0897
    23.1101  23.1278  23.1456  23.1805  23.2017  23.2348  23.2774  23.3143
    23.4150  23.4724  23.5042  23.5068  23.5369  23.5732  23.5769  23.5814
    23.6003  23.6576  23.7137  23.7353  23.8189  23.8572  23.9381  23.9466
    24.0022  24.0156  24.0346  24.1405  24.1751  24.1918  24.3004  24.3272
    24.3276  24.3477  24.4766  24.5123  24.6023  24.6087  24.6236  24.8821
    24.9348  25.1081  25.1761  25.2399  25.2724  25.2844  25.3434  25.3893
    25.4218  25.4677  25.5383  25.6602  25.6992  25.7104  25.8448  25.8522
    26.0173  26.1017  26.1500  26.1621  26.2004  26.2107  26.3414  26.4920
    26.6235  26.7674  26.7994  26.9270  26.9982  27.1021  27.1706  27.3530
    27.7723  27.8601  27.9703  28.2645  28.5755

          k = 0.0556 0.0556 0.3889 ( 30161 PWs)   bands (ev):

   -53.4896 -49.3335 -49.3307 -49.3307 -49.2647 -49.2629 -48.9574 -48.9150
   -48.8626 -48.8399 -48.8361 -48.8267 -48.8200 -48.7980 -48.7966 -48.7931
   -48.7897 -48.7893 -48.7853 -48.7849 -48.7647 -48.7583 -48.7534 -48.7530
   -48.7498 -48.7379 -48.7376 -48.7339 -48.7276 -48.7261 -48.7259 -48.7164
   -48.7133 -25.0860 -25.0853 -25.0853 -20.0943 -20.0900 -19.9692 -19.4888
   -19.4768 -19.4760 -19.3261 -19.3243 -19.3099 -19.2652 -19.2629 -19.2585
   -19.2329 -19.2281 -19.2176 -19.2168 -19.1721 -19.1721 -19.1530 -19.1344
   -19.1244 -19.0986 -19.0900 -19.0873 -19.0678 -19.0609 -19.0565 -19.0480
   -19.0409 -19.0155 -18.9837 -18.9823 -18.9806 -18.9710 -18.9590 -18.9526
   -18.9386 -18.9267 -18.8838 -18.8700 -18.8570 -18.8453 -18.8294 -18.8278
   -18.8081 -18.7793 -18.7790 -18.7427 -18.7237 -18.7158 -18.7074 -18.7041
   -18.6945 -18.6865 -18.6850 -18.6820 -18.6768 -18.6754 -18.6702 -18.6381
   -18.6359 -18.6321 -18.6258 -18.6228 -18.6085 -18.6068 -18.6051 -18.6030
   -18.5980 -18.5942 -18.5700 -18.5614 -18.5579 -18.5484 -18.5443 -18.5437
   -18.5383 -18.5258 -18.5225 -18.5212 -18.5130 -18.5062 -18.5032 -18.4989
   -18.4942 -18.4886 -18.4864 -18.4717 -18.4702 -18.4592 -18.4569 -18.4122
   -18.4106 -17.9854 -17.9847 -17.9781  13.5215  13.5245  13.5246  14.9230
    15.0109  16.6022  17.3126  17.9617  18.0328  18.0432  18.0581  18.0799
    18.2178  18.2334  18.4298  18.5413  18.6336  18.6658  18.7000  18.7032
    18.7626  18.7650  18.7801  18.7999  18.8787  18.9000  19.0137  19.0533
    19.1751  19.2130  19.2582  19.2703  19.2962  19.3625  19.4039  19.4275
    19.4439  19.5319  19.6064  19.6686  19.7225  19.7500  19.8264  19.9069
    19.9294  19.9468  19.9659  20.0381  20.1020  20.1196  20.1929  20.2157
    20.2297  20.2450  20.2587  20.3972  20.3979  20.5016  20.5083  20.5723
    20.5848  20.6167  20.6710  20.6972  20.7750  20.8197  20.9059  20.9184
    20.9785  21.0067  21.0121  21.0382  21.0901  21.1133  21.1782  21.2033
    21.2615  21.3234  21.3338  21.3899  21.5777  21.5980  21.6144  21.6844
    21.7092  21.7226  21.7295  21.8639  21.9090  21.9233  21.9673  21.9849
    22.0386  22.0569  22.0727  22.1139  22.1345  22.2141  22.4470  22.4599
    22.4809  22.7888  22.8742  22.9424  22.9965  23.0323  23.0330  23.0865
    23.1549  23.1889  23.2259  23.2518  23.2769  23.2804  23.2916  23.3228
    23.3431  23.3840  23.3860  23.4490  23.4859  23.4941  23.5132  23.5284
    23.5625  23.5807  23.6022  23.7664  23.7941  23.8627  23.8668  24.0547
    24.1156  24.1940  24.2020  24.2764  24.3079  24.3650  24.4639  24.5519
    24.6214  24.6253  24.6459  24.6469  24.7799  24.8059  24.8706  24.9339
    24.9839  25.0486  25.0930  25.1012  25.1552  25.1655  25.2198  25.2613
    25.3523  25.3543  25.3742  25.3963  25.4671  25.4998  25.5983  25.7457
    25.8338  25.9083  26.0558  26.1559  26.1860  26.2101  26.2201  26.2578
    26.2675  26.6605  26.7126  26.7669  27.1126  27.1299  27.2690  27.5206
    27.7322  27.7377  27.9391  28.1512  28.4446

          k = 0.0556 0.0556-0.5000 ( 30178 PWs)   bands (ev):

   -53.4896 -49.3339 -49.3307 -49.3307 -49.2647 -49.2627 -48.9541 -48.9186
   -48.8635 -48.8396 -48.8363 -48.8265 -48.8203 -48.7987 -48.7965 -48.7916
   -48.7909 -48.7887 -48.7874 -48.7836 -48.7603 -48.7573 -48.7546 -48.7534
   -48.7530 -48.7343 -48.7340 -48.7314 -48.7304 -48.7291 -48.7286 -48.7151
   -48.7150 -25.0861 -25.0853 -25.0853 -20.0943 -20.0895 -19.9675 -19.4846
   -19.4699 -19.4696 -19.3309 -19.3284 -19.3091 -19.2646 -19.2609 -19.2579
   -19.2448 -19.2405 -19.2194 -19.2046 -19.1613 -19.1533 -19.1530 -19.1527
   -19.1443 -19.0991 -19.0931 -19.0901 -19.0699 -19.0642 -19.0592 -19.0495
   -19.0396 -19.0093 -18.9902 -18.9847 -18.9830 -18.9667 -18.9604 -18.9487
   -18.9446 -18.9359 -18.8936 -18.8675 -18.8538 -18.8400 -18.8272 -18.8220
   -18.8124 -18.7809 -18.7796 -18.7426 -18.7222 -18.7121 -18.7015 -18.6985
   -18.6857 -18.6808 -18.6806 -18.6717 -18.6685 -18.6493 -18.6475 -18.6462
   -18.6430 -18.6255 -18.6242 -18.6200 -18.6162 -18.6117 -18.6053 -18.6014
   -18.5958 -18.5952 -18.5868 -18.5774 -18.5683 -18.5487 -18.5437 -18.5397
   -18.5256 -18.5251 -18.5227 -18.5186 -18.5173 -18.5120 -18.5050 -18.4960
   -18.4954 -18.4950 -18.4891 -18.4845 -18.4710 -18.4528 -18.4499 -18.4191
   -18.4185 -17.9851 -17.9845 -17.9770  13.5215  13.5250  13.5250  14.9236
    15.0239  16.8366  17.0332  18.0353  18.1021  18.1070  18.1146  18.2555
    18.3124  18.3341  18.3642  18.4397  18.4606  18.6409  18.6548  18.6659
    18.6800  18.6890  18.8102  18.8110  18.9238  18.9765  19.0326  19.0374
    19.1205  19.1823  19.2000  19.2215  19.2402  19.2933  19.3115  19.4540
    19.4621  19.4883  19.6087  19.7349  19.7369  19.7977  19.8060  19.8119
    19.9034  19.9393  19.9830  20.0114  20.0390  20.0723  20.1604  20.2076
    20.2157  20.2174  20.2280  20.3218  20.3739  20.4997  20.5192  20.5480
    20.5812  20.6720  20.6759  20.7814  20.7938  20.7955  20.9070  20.9103
    20.9248  20.9922  21.0356  21.0767  21.0835  21.1337  21.2079  21.2568
    21.2770  21.3445  21.3900  21.4209  21.4921  21.5466  21.5782  21.7115
    21.7439  21.7854  21.8129  21.8239  21.8342  21.8925  21.9151  21.9249
    21.9276  21.9554  22.2902  22.3730  22.3811  22.4891  22.4989  22.5263
    22.6285  22.6567  22.8773  22.9295  22.9739  22.9739  23.0612  23.1043
    23.1090  23.1094  23.1432  23.2075  23.2373  23.2579  23.3090  23.3467
    23.3637  23.3822  23.3935  23.4199  23.4556  23.4730  23.4758  23.4998
    23.5068  23.5332  23.5530  23.5558  23.7036  23.7439  23.7526  24.1238
    24.2780  24.4165  24.4398  24.4697  24.5267  24.5653  24.5780  24.6122
    24.6468  24.7264  24.7455  24.8258  24.8327  24.9003  24.9020  24.9179
    24.9245  25.0060  25.0750  25.0930  25.0953  25.1077  25.1524  25.1733
    25.1926  25.3164  25.3922  25.4429  25.4497  25.5503  25.5739  25.6018
    25.7391  25.8150  25.8585  25.8688  25.9520  26.0610  26.1641  26.2102
    26.2711  26.6452  26.6590  26.8527  27.0515  27.2555  27.4162  27.5352
    27.6336  27.8462  27.9275  28.0790  28.3502

          k = 0.0556 0.1667 0.1667 ( 30215 PWs)   bands (ev):

   -53.4896 -49.3315 -49.3315 -49.3308 -49.2644 -49.2640 -48.9667 -48.9046
   -48.8553 -48.8478 -48.8365 -48.8243 -48.8156 -48.8011 -48.7978 -48.7966
   -48.7940 -48.7872 -48.7838 -48.7764 -48.7670 -48.7665 -48.7532 -48.7519
   -48.7469 -48.7462 -48.7409 -48.7384 -48.7236 -48.7212 -48.7197 -48.7194
   -48.7108 -25.0855 -25.0855 -25.0853 -20.0939 -20.0923 -19.9751 -19.5034
   -19.4987 -19.4946 -19.3228 -19.3209 -19.3165 -19.2490 -19.2488 -19.2420
   -19.2280 -19.2258 -19.2119 -19.1990 -19.1866 -19.1831 -19.1601 -19.1379
   -19.1056 -19.0840 -19.0821 -19.0715 -19.0686 -19.0549 -19.0415 -19.0285
   -19.0228 -19.0109 -18.9979 -18.9871 -18.9763 -18.9605 -18.9536 -18.9479
   -18.9173 -18.8865 -18.8834 -18.8691 -18.8517 -18.8434 -18.8311 -18.8270
   -18.8184 -18.8147 -18.7634 -18.7546 -18.7437 -18.7364 -18.7333 -18.7277
   -18.7261 -18.7247 -18.7068 -18.7050 -18.7028 -18.6962 -18.6730 -18.6626
   -18.6565 -18.6515 -18.6470 -18.6344 -18.6061 -18.6059 -18.5883 -18.5817
   -18.5752 -18.5617 -18.5532 -18.5517 -18.5480 -18.5476 -18.5424 -18.5275
   -18.5259 -18.5237 -18.5210 -18.5129 -18.5119 -18.5082 -18.5038 -18.4936
   -18.4916 -18.4906 -18.4885 -18.4833 -18.4815 -18.4588 -18.4257 -18.3962
   -18.3887 -17.9873 -17.9849 -17.9821  13.5220  13.5224  13.5225  14.9316
    14.9555  16.2725  17.7983  17.8049  17.8474  17.8891  17.8957  17.9036
    18.0261  18.1908  18.2853  18.5254  18.6186  18.6271  18.6361  18.6905
    18.7108  18.7731  19.0276  19.0438  19.1527  19.1570  19.1949  19.2054
    19.2656  19.3090  19.3157  19.3718  19.3981  19.4398  19.4673  19.5231
    19.5697  19.6067  19.6138  19.6567  19.6963  19.7595  19.8712  19.8945
    19.8961  19.9669  19.9812  20.1128  20.1665  20.2707  20.2872  20.3074
    20.3504  20.3548  20.4063  20.4617  20.5049  20.5612  20.5633  20.5966
    20.6599  20.6919  20.7554  20.7726  20.7849  20.8293  20.9076  20.9091
    20.9718  20.9809  21.0281  21.0799  21.0878  21.1136  21.1980  21.2261
    21.2367  21.2693  21.2812  21.2842  21.3275  21.3608  21.3684  21.3999
    21.4167  21.4459  21.4879  21.4942  21.5577  21.5763  22.0011  22.1316
    22.2155  22.2500  22.3616  22.3917  22.4537  22.4895  22.5541  22.5783
    22.6390  22.6531  22.7002  22.7208  22.7659  22.7662  22.7852  22.8429
    22.9410  22.9821  23.0367  23.1019  23.1228  23.1608  23.1910  23.2144
    23.4294  23.4909  23.5082  23.5422  23.5846  23.6206  23.6589  23.6859
    23.6945  23.6999  23.7650  23.7700  23.8185  23.8311  23.8867  23.9505
    23.9656  23.9855  24.0686  24.0914  24.1031  24.1209  24.1495  24.1884
    24.2579  24.3122  24.3381  24.3617  24.5836  24.7817  24.7949  24.9320
    25.0128  25.0875  25.1809  25.2678  25.3533  25.4279  25.4361  25.4449
    25.5169  25.5758  25.6281  25.6387  25.7587  25.7963  25.8598  25.9853
    26.0135  26.0449  26.0600  26.0814  26.1077  26.1200  26.2659  26.5446
    26.6523  26.7861  26.9660  26.9714  27.0506  27.4551  27.4752  27.7550
    27.8714  28.0026  28.0203  28.2292  28.3414

          k = 0.0556 0.1667 0.2778 ( 30157 PWs)   bands (ev):

   -53.4896 -49.3325 -49.3315 -49.3307 -49.2644 -49.2633 -48.9611 -48.9083
   -48.8615 -48.8494 -48.8368 -48.8240 -48.8123 -48.8006 -48.7973 -48.7958
   -48.7932 -48.7880 -48.7855 -48.7768 -48.7667 -48.7624 -48.7531 -48.7513
   -48.7447 -48.7427 -48.7417 -48.7367 -48.7258 -48.7236 -48.7220 -48.7188
   -48.7125 -25.0858 -25.0855 -25.0853 -20.0937 -20.0903 -19.9712 -19.4948
   -19.4865 -19.4828 -19.3208 -19.3169 -19.3092 -19.2632 -19.2571 -19.2409
   -19.2359 -19.2301 -19.2118 -19.2016 -19.1924 -19.1826 -19.1576 -19.1459
   -19.1091 -19.1025 -19.0981 -19.0879 -19.0736 -19.0611 -19.0442 -19.0382
   -19.0305 -19.0114 -18.9916 -18.9816 -18.9776 -18.9726 -18.9604 -18.9521
   -18.9220 -18.8877 -18.8855 -18.8670 -18.8486 -18.8419 -18.8353 -18.8158
   -18.8002 -18.7866 -18.7787 -18.7467 -18.7333 -18.7270 -18.7172 -18.7153
   -18.7134 -18.7127 -18.6955 -18.6925 -18.6856 -18.6776 -18.6714 -18.6627
   -18.6588 -18.6417 -18.6377 -18.6319 -18.6057 -18.6016 -18.5895 -18.5873
   -18.5793 -18.5743 -18.5695 -18.5649 -18.5540 -18.5488 -18.5441 -18.5375
   -18.5356 -18.5295 -18.5225 -18.5207 -18.5157 -18.5094 -18.5034 -18.4950
   -18.4896 -18.4876 -18.4842 -18.4760 -18.4740 -18.4533 -18.4497 -18.4053
   -18.3933 -17.9864 -17.9841 -17.9798  13.5223  13.5230  13.5236  14.9365
    14.9896  16.4383  17.7113  17.9061  17.9153  17.9397  17.9818  17.9951
    18.1322  18.1335  18.3533  18.5997  18.6116  18.6604  18.6978  18.7008
    18.7840  18.8169  18.8653  18.9362  18.9743  19.0379  19.0773  19.1338
    19.1591  19.1854  19.2122  19.2805  19.3415  19.3664  19.3801  19.4377
    19.4635  19.5208  19.5991  19.6093  19.7072  19.7161  19.7618  19.8211
    19.8905  19.9252  20.0034  20.0626  20.1125  20.1812  20.2217  20.2539
    20.2737  20.2987  20.3621  20.4241  20.4659  20.5257  20.5478  20.5841
    20.6787  20.7001  20.7364  20.8085  20.8372  20.9053  20.9120  20.9670
    20.9956  21.0149  21.0520  21.1083  21.1631  21.1762  21.2098  21.2383
    21.2951  21.3161  21.3655  21.3999  21.4501  21.4701  21.5077  21.5316
    21.5444  21.6358  21.6679  21.6880  21.8035  21.8308  21.8551  21.9166
    22.0771  22.1375  22.1655  22.1873  22.2525  22.3543  22.3709  22.4985
    22.5140  22.5707  22.7046  22.7144  22.7600  22.8212  22.9502  22.9661
    23.0323  23.0652  23.0904  23.1297  23.1595  23.2429  23.2890  23.3450
    23.3623  23.3982  23.4830  23.5262  23.5668  23.6051  23.6262  23.6400
    23.7132  23.7452  23.7959  23.8321  23.8829  23.9410  23.9469  23.9836
    24.0909  24.1270  24.1402  24.1750  24.2492  24.2919  24.3383  24.3976
    24.4286  24.4606  24.5459  24.5616  24.5795  24.6185  24.7278  24.8512
    24.9278  24.9469  25.1553  25.1774  25.2654  25.3553  25.3693  25.3874
    25.4425  25.4937  25.5354  25.5824  25.6210  25.6472  25.7688  25.8163
    25.8414  25.8777  26.0094  26.0316  26.0882  26.1458  26.2381  26.4151
    26.4954  26.6537  26.8687  27.0259  27.2843  27.3362  27.4627  27.5231
    27.6439  27.9379  28.1278  28.5673  28.7311

          k = 0.0556 0.1667 0.3889 ( 30138 PWs)   bands (ev):

   -53.4896 -49.3335 -49.3315 -49.3307 -49.2643 -49.2627 -48.9549 -48.9137
   -48.8649 -48.8503 -48.8370 -48.8240 -48.8118 -48.8033 -48.7974 -48.7938
   -48.7917 -48.7878 -48.7846 -48.7782 -48.7634 -48.7593 -48.7531 -48.7512
   -48.7494 -48.7382 -48.7374 -48.7336 -48.7290 -48.7271 -48.7252 -48.7177
   -48.7145 -25.0860 -25.0855 -25.0853 -20.0936 -20.0886 -19.9676 -19.4851
   -19.4738 -19.4719 -19.3224 -19.3170 -19.3053 -19.2708 -19.2624 -19.2526
   -19.2442 -19.2217 -19.2150 -19.2129 -19.1869 -19.1716 -19.1549 -19.1514
   -19.1261 -19.1211 -19.1059 -19.0967 -19.0783 -19.0665 -19.0555 -19.0408
   -19.0311 -19.0159 -18.9912 -18.9878 -18.9797 -18.9717 -18.9597 -18.9375
   -18.9291 -18.9012 -18.8870 -18.8712 -18.8464 -18.8379 -18.8314 -18.8171
   -18.7962 -18.7789 -18.7731 -18.7471 -18.7293 -18.7172 -18.7075 -18.6953
   -18.6925 -18.6890 -18.6879 -18.6828 -18.6740 -18.6704 -18.6618 -18.6576
   -18.6379 -18.6310 -18.6253 -18.6215 -18.6100 -18.6077 -18.6069 -18.5962
   -18.5883 -18.5820 -18.5737 -18.5728 -18.5630 -18.5540 -18.5488 -18.5467
   -18.5429 -18.5370 -18.5300 -18.5226 -18.5186 -18.5087 -18.5037 -18.5023
   -18.4915 -18.4881 -18.4861 -18.4712 -18.4663 -18.4566 -18.4436 -18.4171
   -18.4036 -17.9853 -17.9833 -17.9780  13.5224  13.5235  13.5247  14.9386
    15.0225  16.6772  17.3757  18.0030  18.0281  18.0512  18.1013  18.1351
    18.2583  18.2661  18.4775  18.5066  18.5774  18.6753  18.6917  18.7164
    18.7556  18.7919  18.7952  18.8173  18.8363  18.8996  18.9695  19.0158
    19.0559  19.0706  19.1872  19.2137  19.2655  19.2942  19.3419  19.4207
    19.4526  19.4850  19.5439  19.5824  19.6704  19.7214  19.8071  19.8405
    19.8834  19.9236  19.9584  20.0162  20.0320  20.0775  20.1082  20.1246
    20.1709  20.2613  20.3418  20.3536  20.4242  20.4914  20.5397  20.5768
    20.7042  20.7406  20.7899  20.8171  20.8466  20.8756  20.9384  20.9763
    21.0276  21.0417  21.0649  21.1023  21.1386  21.2077  21.2424  21.2772
    21.2926  21.3522  21.4152  21.5032  21.5947  21.6322  21.6513  21.6966
    21.7612  21.7932  21.8145  21.8256  21.8383  21.8716  21.9315  21.9698
    22.0229  22.0311  22.0637  22.1569  22.2535  22.2959  22.3425  22.3618
    22.4311  22.5753  22.6930  22.7197  22.7517  22.8410  22.8992  22.9395
    23.0158  23.0442  23.0546  23.1076  23.1555  23.2296  23.2610  23.3194
    23.3979  23.4322  23.4659  23.5229  23.5540  23.5630  23.5820  23.6426
    23.6942  23.7213  23.7381  23.8071  23.8188  23.9611  24.0098  24.0877
    24.1503  24.2328  24.2416  24.2893  24.3377  24.4145  24.4807  24.5441
    24.5864  24.6051  24.6957  24.7545  24.7945  24.8083  24.8272  24.9137
    24.9493  25.0005  25.0666  25.1034  25.1878  25.2223  25.2540  25.3277
    25.3483  25.3857  25.3997  25.4389  25.5015  25.5885  25.6519  25.6620
    25.8232  25.8518  25.9065  26.0263  26.0490  26.0860  26.2006  26.3531
    26.4287  26.5581  26.7693  26.8571  26.9407  27.0050  27.2394  27.7179
    27.9224  27.9995  28.1983  28.4392  28.8664

          k = 0.0556 0.1667-0.5000 ( 30170 PWs)   bands (ev):

   -53.4896 -49.3338 -49.3315 -49.3307 -49.2643 -49.2625 -48.9519 -48.9166
   -48.8658 -48.8507 -48.8370 -48.8240 -48.8117 -48.8043 -48.7976 -48.7937
   -48.7911 -48.7883 -48.7821 -48.7799 -48.7592 -48.7579 -48.7542 -48.7531
   -48.7511 -48.7349 -48.7340 -48.7321 -48.7311 -48.7299 -48.7277 -48.7163
   -48.7161 -25.0861 -25.0855 -25.0853 -20.0936 -20.0879 -19.9662 -19.4805
   -19.4685 -19.4670 -19.3255 -19.3186 -19.3053 -19.2690 -19.2605 -19.2577
   -19.2508 -19.2303 -19.2170 -19.2049 -19.1753 -19.1677 -19.1656 -19.1455
   -19.1412 -19.1255 -19.1071 -19.0999 -19.0803 -19.0730 -19.0596 -19.0412
   -19.0270 -19.0197 -18.9913 -18.9898 -18.9836 -18.9705 -18.9540 -18.9344
   -18.9244 -18.9123 -18.8931 -18.8704 -18.8419 -18.8409 -18.8280 -18.8174
   -18.8000 -18.7765 -18.7723 -18.7469 -18.7274 -18.7120 -18.6979 -18.6963
   -18.6844 -18.6794 -18.6741 -18.6735 -18.6679 -18.6613 -18.6555 -18.6488
   -18.6465 -18.6364 -18.6267 -18.6190 -18.6156 -18.6148 -18.5980 -18.5937
   -18.5914 -18.5810 -18.5781 -18.5700 -18.5670 -18.5621 -18.5502 -18.5497
   -18.5409 -18.5383 -18.5349 -18.5305 -18.5188 -18.5185 -18.5057 -18.5036
   -18.4979 -18.4876 -18.4865 -18.4686 -18.4611 -18.4531 -18.4337 -18.4247
   -18.4125 -17.9849 -17.9830 -17.9774  13.5225  13.5237  13.5251  14.9393
    15.0358  16.9040  17.1050  18.0701  18.0839  18.1110  18.1623  18.3012
    18.3191  18.3744  18.4130  18.4628  18.4743  18.6685  18.6935  18.6989
    18.7110  18.7361  18.7430  18.7521  18.8335  18.8834  18.9164  18.9422
    19.0767  19.0790  19.1936  19.1966  19.2222  19.2351  19.3063  19.3502
    19.4828  19.4946  19.5561  19.6343  19.6430  19.7760  19.7881  19.8254
    19.8479  19.8891  19.9104  19.9741  20.0448  20.0655  20.1191  20.1268
    20.1355  20.1813  20.2556  20.2883  20.3896  20.5444  20.5606  20.5896
    20.7063  20.7781  20.7948  20.8081  20.8428  20.8489  20.8999  20.9824
    21.0307  21.0467  21.1132  21.1472  21.2062  21.2475  21.2503  21.2951
    21.3675  21.3708  21.3843  21.4257  21.5530  21.5661  21.6925  21.7298
    21.7587  21.8000  21.8490  21.8814  21.8995  21.9538  21.9698  22.0114
    22.0249  22.0545  22.1604  22.2000  22.2862  22.3748  22.4087  22.4187
    22.4805  22.5254  22.6194  22.7015  22.7367  22.7434  22.8648  22.9384
    23.0113  23.0326  23.0375  23.0689  23.1902  23.1929  23.2074  23.2862
    23.3302  23.3692  23.3931  23.4317  23.4568  23.5221  23.6218  23.6768
    23.6953  23.7016  23.7404  23.7876  23.9606  24.0055  24.0456  24.0898
    24.1186  24.1667  24.3106  24.3941  24.4416  24.5607  24.5921  24.6352
    24.6749  24.7207  24.7707  24.7790  24.8201  24.9395  24.9464  24.9854
    25.0332  25.0542  25.0554  25.1062  25.1167  25.1496  25.1544  25.1844
    25.2175  25.2207  25.2483  25.4042  25.4277  25.4326  25.6362  25.8045
    25.8417  25.9319  26.0219  26.0786  26.0803  26.0933  26.1680  26.2545
    26.3059  26.4881  26.5819  26.6935  26.7325  27.0376  27.1422  27.7818
    27.9569  28.1771  28.2053  28.5716  28.6085

          k = 0.0556 0.2778 0.2778 ( 30150 PWs)   bands (ev):

   -53.4896 -49.3326 -49.3325 -49.3307 -49.2641 -49.2629 -48.9562 -48.9092
   -48.8660 -48.8560 -48.8368 -48.8237 -48.8060 -48.8046 -48.7977 -48.7949
   -48.7941 -48.7870 -48.7859 -48.7720 -48.7644 -48.7627 -48.7529 -48.7494
   -48.7447 -48.7421 -48.7405 -48.7351 -48.7281 -48.7259 -48.7215 -48.7207
   -48.7143 -25.0858 -25.0857 -25.0853 -20.0934 -20.0880 -19.9681 -19.4873
   -19.4773 -19.4737 -19.3178 -19.3086 -19.3032 -19.2740 -19.2630 -19.2458
   -19.2351 -19.2238 -19.2222 -19.1972 -19.1940 -19.1829 -19.1640 -19.1533
   -19.1249 -19.1180 -19.1174 -19.0980 -19.0917 -19.0644 -19.0522 -19.0369
   -19.0264 -19.0229 -18.9948 -18.9782 -18.9729 -18.9653 -18.9647 -18.9495
   -18.9190 -18.8956 -18.8702 -18.8579 -18.8537 -18.8364 -18.8148 -18.8061
   -18.7897 -18.7793 -18.7564 -18.7451 -18.7368 -18.7333 -18.7207 -18.7160
   -18.7088 -18.7042 -18.6890 -18.6843 -18.6728 -18.6721 -18.6652 -18.6563
   -18.6506 -18.6450 -18.6312 -18.6308 -18.6036 -18.5997 -18.5919 -18.5903
   -18.5870 -18.5825 -18.5733 -18.5664 -18.5615 -18.5605 -18.5500 -18.5404
   -18.5394 -18.5392 -18.5324 -18.5233 -18.5153 -18.5081 -18.5074 -18.4957
   -18.4946 -18.4893 -18.4871 -18.4752 -18.4594 -18.4587 -18.4408 -18.4150
   -18.3923 -17.9856 -17.9829 -17.9786  13.5224  13.5235  13.5239  14.9498
    15.0172  16.5968  17.7788  17.8517  17.9855  18.0057  18.0528  18.0706
    18.2034  18.2273  18.2474  18.6302  18.7028  18.7143  18.7382  18.7570
    18.7748  18.8201  18.8284  18.8455  18.8671  18.8996  18.9594  19.0279
    19.0667  19.1053  19.1657  19.2042  19.2216  19.2786  19.3423  19.3981
    19.4459  19.4555  19.5035  19.5596  19.6090  19.6964  19.7325  19.7468
    19.7918  19.7997  19.9562  19.9696  20.0221  20.0480  20.1634  20.2042
    20.2865  20.2907  20.3538  20.4101  20.4415  20.5938  20.6127  20.7185
    20.7358  20.7747  20.7792  20.7928  20.9309  20.9417  20.9483  21.0116
    21.0793  21.0980  21.1349  21.1750  21.2481  21.2836  21.3110  21.3292
    21.3441  21.3669  21.4226  21.4820  21.5336  21.5503  21.5849  21.6442
    21.6822  21.7017  21.7526  21.7685  21.7897  21.7994  21.8261  21.8617
    22.0646  22.1008  22.1552  22.2009  22.2703  22.2752  22.4333  22.4585
    22.5112  22.5429  22.5801  22.6124  22.6725  22.7085  22.7162  22.7788
    22.8501  22.8919  22.9202  22.9973  23.0305  23.1399  23.1927  23.2065
    23.3033  23.4118  23.4537  23.5609  23.6262  23.7214  23.7380  23.8209
    23.8537  23.8851  23.9063  23.9311  24.0144  24.0291  24.0947  24.1012
    24.1284  24.1356  24.1965  24.2589  24.2850  24.2932  24.3284  24.4476
    24.5340  24.5778  24.5870  24.6576  24.7298  24.7699  24.8072  24.8084
    24.9500  24.9900  25.0765  25.1759  25.2523  25.2802  25.3682  25.3832
    25.4569  25.5028  25.5200  25.5323  25.5725  25.6235  25.7001  25.7932
    25.8072  25.8112  25.8526  25.8642  25.9326  26.0544  26.1024  26.2923
    26.3748  26.4218  26.7402  26.9363  27.0071  27.6647  27.7918  27.9716
    28.1143  28.1341  28.2523  28.3898  28.4718

          k = 0.0556 0.2778 0.3889 ( 30193 PWs)   bands (ev):

   -53.4896 -49.3335 -49.3325 -49.3307 -49.2640 -49.2624 -48.9508 -48.9115
   -48.8692 -48.8604 -48.8365 -48.8236 -48.8074 -48.8037 -48.7983 -48.7958
   -48.7922 -48.7885 -48.7818 -48.7711 -48.7625 -48.7595 -48.7527 -48.7485
   -48.7483 -48.7397 -48.7373 -48.7322 -48.7314 -48.7289 -48.7242 -48.7199
   -48.7164 -25.0860 -25.0858 -25.0853 -20.0933 -20.0858 -19.9652 -19.4783
   -19.4687 -19.4662 -19.3141 -19.3054 -19.2987 -19.2824 -19.2678 -19.2565
   -19.2410 -19.2178 -19.2110 -19.2059 -19.1927 -19.1816 -19.1717 -19.1503
   -19.1422 -19.1330 -19.1231 -19.1051 -19.1021 -19.0750 -19.0530 -19.0423
   -19.0367 -19.0316 -19.0033 -18.9814 -18.9679 -18.9615 -18.9491 -18.9384
   -18.9203 -18.8947 -18.8708 -18.8642 -18.8454 -18.8321 -18.8158 -18.7874
   -18.7782 -18.7670 -18.7640 -18.7534 -18.7332 -18.7228 -18.7123 -18.7036
   -18.6975 -18.6926 -18.6909 -18.6804 -18.6737 -18.6647 -18.6591 -18.6514
   -18.6346 -18.6331 -18.6251 -18.6238 -18.6210 -18.6111 -18.6020 -18.5961
   -18.5909 -18.5840 -18.5735 -18.5673 -18.5652 -18.5564 -18.5552 -18.5522
   -18.5463 -18.5428 -18.5362 -18.5287 -18.5217 -18.5174 -18.5133 -18.5052
   -18.4977 -18.4903 -18.4878 -18.4705 -18.4527 -18.4453 -18.4285 -18.4271
   -18.3978 -17.9846 -17.9818 -17.9780  13.5219  13.5238  13.5249  14.9554
    15.0483  16.8246  17.4974  17.9442  18.0524  18.0771  18.1901  18.2165
    18.3080  18.3130  18.3409  18.5794  18.6110  18.6487  18.6904  18.7237
    18.7891  18.7955  18.8116  18.8345  18.8496  18.8688  18.8979  18.9479
    18.9809  19.0411  19.0566  19.0788  19.2018  19.2477  19.2647  19.3202
    19.4362  19.4444  19.4840  19.5254  19.5534  19.6079  19.6512  19.7001
    19.7669  19.7907  19.8433  19.9107  19.9890  20.0940  20.1013  20.1545
    20.1696  20.2197  20.3572  20.3780  20.4755  20.6041  20.6492  20.6644
    20.6962  20.7652  20.7913  20.9166  20.9255  20.9649  21.0256  21.1143
    21.1425  21.1949  21.2088  21.2117  21.2777  21.3251  21.3710  21.3877
    21.4239  21.4560  21.5340  21.5726  21.6040  21.6388  21.6699  21.7174
    21.7324  21.7509  21.8017  21.9007  21.9338  21.9798  21.9855  21.9923
    22.0109  22.0641  22.1302  22.1746  22.2109  22.2180  22.3365  22.3687
    22.4326  22.4359  22.4775  22.5084  22.5231  22.5769  22.6315  22.6534
    22.7574  22.7827  22.8502  22.9509  22.9960  23.0071  23.1374  23.1878
    23.3070  23.3252  23.4194  23.4874  23.5073  23.6856  23.7432  23.7941
    23.8194  23.8843  23.9096  23.9627  23.9974  24.0863  24.1012  24.1887
    24.2399  24.3072  24.3280  24.3604  24.4529  24.4749  24.5340  24.5989
    24.6232  24.6948  24.7674  24.8161  24.8617  24.9015  24.9271  24.9584
    25.0002  25.0330  25.0800  25.0922  25.1286  25.1933  25.2079  25.3066
    25.3372  25.3647  25.4128  25.4209  25.4882  25.5517  25.5809  25.6340
    25.7608  25.8043  25.8493  25.8797  26.0270  26.0733  26.1434  26.1683
    26.3773  26.4337  26.5813  26.8514  26.9266  27.4439  27.5044  27.8825
    28.1483  28.4363  28.6522  28.8640  29.0301

          k = 0.0556 0.2778-0.5000 ( 30164 PWs)   bands (ev):

   -53.4896 -49.3338 -49.3325 -49.3307 -49.2640 -49.2622 -48.9483 -48.9130
   -48.8697 -48.8623 -48.8364 -48.8235 -48.8084 -48.8032 -48.7987 -48.7961
   -48.7914 -48.7893 -48.7791 -48.7723 -48.7607 -48.7555 -48.7531 -48.7526
   -48.7482 -48.7365 -48.7349 -48.7344 -48.7316 -48.7299 -48.7263 -48.7185
   -48.7181 -25.0861 -25.0858 -25.0853 -20.0933 -20.0849 -19.9640 -19.4735
   -19.4661 -19.4627 -19.3140 -19.3049 -19.2996 -19.2810 -19.2685 -19.2612
   -19.2454 -19.2138 -19.2100 -19.2033 -19.1944 -19.1796 -19.1749 -19.1587
   -19.1503 -19.1268 -19.1231 -19.1096 -19.1045 -19.0791 -19.0563 -19.0534
   -19.0357 -19.0349 -18.9999 -18.9897 -18.9663 -18.9609 -18.9387 -18.9297
   -18.9232 -18.9017 -18.8668 -18.8543 -18.8516 -18.8330 -18.8161 -18.7878
   -18.7741 -18.7680 -18.7619 -18.7539 -18.7278 -18.7164 -18.7079 -18.7043
   -18.6972 -18.6854 -18.6771 -18.6704 -18.6693 -18.6605 -18.6594 -18.6515
   -18.6488 -18.6466 -18.6276 -18.6168 -18.6127 -18.6039 -18.6002 -18.5955
   -18.5909 -18.5848 -18.5751 -18.5748 -18.5693 -18.5600 -18.5587 -18.5559
   -18.5463 -18.5409 -18.5408 -18.5341 -18.5280 -18.5208 -18.5122 -18.5085
   -18.5009 -18.4889 -18.4880 -18.4640 -18.4489 -18.4421 -18.4359 -18.4167
   -18.4057 -17.9842 -17.9810 -17.9780  13.5217  13.5238  13.5253  14.9569
    15.0615  17.0359  17.2456  18.0130  18.1043  18.1086  18.2737  18.3313
    18.3705  18.3787  18.4255  18.4435  18.5165  18.5644  18.6084  18.6996
    18.7504  18.7527  18.8291  18.8362  18.8647  18.8908  18.9113  18.9410
    18.9805  18.9940  19.0526  19.1018  19.1601  19.1677  19.2192  19.2903
    19.3878  19.4313  19.5024  19.5260  19.5715  19.5772  19.6391  19.6438
    19.7485  19.7601  19.8574  19.9425  19.9869  20.0331  20.0712  20.0831
    20.1299  20.3348  20.3861  20.4052  20.4688  20.4955  20.5680  20.5913
    20.6680  20.7499  20.8679  20.9420  20.9953  21.0335  21.0405  21.0867
    21.1626  21.1786  21.2165  21.3027  21.3304  21.3700  21.3736  21.4208
    21.4591  21.4934  21.5114  21.5715  21.6279  21.6999  21.7239  21.8017
    21.8102  21.8247  21.8448  21.8928  21.9710  21.9950  22.0082  22.0979
    22.1096  22.1098  22.1477  22.1642  22.1768  22.2234  22.2264  22.2623
    22.2815  22.3614  22.3963  22.4413  22.4891  22.4933  22.6200  22.7031
    22.7233  22.8707  22.8923  22.9210  23.0502  23.0687  23.1240  23.1328
    23.1867  23.2086  23.2812  23.3754  23.4249  23.5452  23.6970  23.7255
    23.9095  23.9201  23.9450  24.0028  24.0052  24.0610  24.1762  24.2566
    24.3019  24.4208  24.4887  24.5023  24.5572  24.5967  24.6142  24.6208
    24.6586  24.7458  24.7496  24.8064  24.8384  24.8977  24.9850  24.9968
    25.0454  25.0846  25.1023  25.1337  25.1398  25.2268  25.2412  25.2532
    25.2862  25.2909  25.3276  25.3323  25.3639  25.4082  25.4716  25.6934
    25.7312  25.7620  25.8080  25.8379  25.8697  26.0451  26.1814  26.1822
    26.4825  26.7585  26.8571  26.8828  26.9136  26.9332  27.0765  27.8650
    28.0884  28.7446  28.8348  29.0840  29.1746

          k = 0.0556 0.3889 0.3889 ( 30175 PWs)   bands (ev):

   -53.4896 -49.3335 -49.3334 -49.3307 -49.2638 -49.2619 -48.9466 -48.9095
   -48.8729 -48.8679 -48.8361 -48.8233 -48.8097 -48.8003 -48.7992 -48.7962
   -48.7921 -48.7898 -48.7777 -48.7665 -48.7641 -48.7560 -48.7523 -48.7477
   -48.7460 -48.7414 -48.7364 -48.7349 -48.7314 -48.7298 -48.7234 -48.7220
   -48.7186 -25.0860 -25.0860 -25.0853 -20.0933 -20.0831 -19.9629 -19.4705
   -19.4645 -19.4608 -19.3037 -19.3006 -19.2926 -19.2908 -19.2739 -19.2663
   -19.2298 -19.2213 -19.2043 -19.1980 -19.1899 -19.1886 -19.1775 -19.1644
   -19.1586 -19.1419 -19.1285 -19.1231 -19.1005 -19.0808 -19.0655 -19.0517
   -19.0371 -19.0335 -19.0181 -18.9958 -18.9556 -18.9507 -18.9486 -18.9314
   -18.9167 -18.8958 -18.8571 -18.8494 -18.8319 -18.8221 -18.7970 -18.7694
   -18.7683 -18.7605 -18.7477 -18.7400 -18.7375 -18.7253 -18.7210 -18.7143
   -18.7084 -18.7049 -18.6903 -18.6758 -18.6668 -18.6641 -18.6547 -18.6514
   -18.6421 -18.6402 -18.6316 -18.6305 -18.6179 -18.6146 -18.6051 -18.5961
   -18.5839 -18.5815 -18.5722 -18.5704 -18.5659 -18.5623 -18.5568 -18.5526
   -18.5493 -18.5473 -18.5436 -18.5389 -18.5222 -18.5210 -18.5105 -18.5025
   -18.4981 -18.4977 -18.4916 -18.4741 -18.4441 -18.4369 -18.4358 -18.4144
   -18.3976 -17.9839 -17.9803 -17.9782  13.5205  13.5249  13.5251  14.9642
    15.0780  17.0348  17.6315  17.7145  18.0661  18.0949  18.2768  18.3128
    18.3301  18.3539  18.3645  18.4946  18.6647  18.6818  18.7261  18.7308
    18.7446  18.7755  18.8183  18.8496  18.8644  18.8723  18.9078  18.9459
    18.9512  18.9695  19.0327  19.0808  19.1227  19.1309  19.2657  19.3189
    19.3232  19.3236  19.3377  19.4184  19.4578  19.5055  19.5277  19.5382
    19.5498  19.7479  19.8685  19.9212  20.0368  20.0518  20.1018  20.1074
    20.1678  20.2385  20.3025  20.4276  20.4975  20.4993  20.5872  20.7147
    20.8158  20.8639  20.9713  20.9734  20.9983  21.0115  21.1956  21.2182
    21.2766  21.3090  21.3232  21.3357  21.3648  21.3703  21.4041  21.4585
    21.5296  21.5550  21.5824  21.6146  21.6278  21.7104  21.7293  21.8092
    21.8558  21.8597  21.9277  21.9407  21.9479  21.9789  22.0114  22.0482
    22.1233  22.1357  22.1699  22.1815  22.2076  22.2083  22.2362  22.2872
    22.2917  22.3098  22.3368  22.3547  22.3828  22.4064  22.4593  22.4775
    22.5767  22.6372  22.6682  22.6883  22.7326  22.9921  23.0337  23.0999
    23.1399  23.1631  23.1928  23.2060  23.2995  23.5758  23.8313  23.9521
    24.0037  24.0322  24.0865  24.1302  24.1402  24.2231  24.3063  24.3513
    24.3677  24.3820  24.4261  24.4808  24.5204  24.6113  24.6684  24.6704
    24.7187  24.7850  24.8454  24.8637  24.9045  24.9555  24.9845  25.0169
    25.0249  25.0562  25.1244  25.1312  25.1492  25.1749  25.2805  25.2825
    25.3250  25.3302  25.3999  25.4262  25.4462  25.4573  25.5473  25.5549
    25.5711  25.5895  25.6625  25.6658  25.7177  25.9114  26.0128  26.0933
    26.2597  26.8106  26.8305  26.8905  26.9406  27.7335  27.7375  28.2030
    28.3496  28.4048  28.6116  29.0474  29.1771

          k = 0.0556 0.3889-0.5000 ( 30172 PWs)   bands (ev):

   -53.4896 -49.3338 -49.3334 -49.3307 -49.2638 -49.2617 -48.9448 -48.9088
   -48.8736 -48.8715 -48.8358 -48.8232 -48.8104 -48.8000 -48.7998 -48.7955
   -48.7916 -48.7906 -48.7751 -48.7672 -48.7635 -48.7522 -48.7516 -48.7507
   -48.7451 -48.7392 -48.7386 -48.7347 -48.7337 -48.7282 -48.7246 -48.7211
   -48.7204 -25.0861 -25.0860 -25.0853 -20.0933 -20.0821 -19.9620 -19.4662
   -19.4638 -19.4585 -19.3057 -19.2966 -19.2949 -19.2858 -19.2746 -19.2708
   -19.2320 -19.2069 -19.2036 -19.2011 -19.1980 -19.1805 -19.1770 -19.1741
   -19.1668 -19.1426 -19.1382 -19.1204 -19.1000 -19.0847 -19.0737 -19.0507
   -19.0393 -19.0329 -19.0194 -19.0085 -18.9554 -18.9522 -18.9446 -18.9221
   -18.9181 -18.9011 -18.8361 -18.8351 -18.8332 -18.8272 -18.7906 -18.7661
   -18.7594 -18.7554 -18.7420 -18.7418 -18.7379 -18.7285 -18.7259 -18.7176
   -18.7041 -18.7035 -18.6824 -18.6812 -18.6655 -18.6651 -18.6584 -18.6580
   -18.6495 -18.6399 -18.6354 -18.6266 -18.6236 -18.6150 -18.5976 -18.5925
   -18.5907 -18.5842 -18.5734 -18.5727 -18.5609 -18.5595 -18.5594 -18.5558
   -18.5495 -18.5486 -18.5444 -18.5427 -18.5224 -18.5189 -18.5098 -18.5072
   -18.5019 -18.4935 -18.4923 -18.4710 -18.4537 -18.4336 -18.4320 -18.4054
   -18.4019 -17.9836 -17.9794 -17.9785  13.5199  13.5251  13.5255  14.9667
    15.0909  17.2206  17.4469  17.8176  17.9932  18.1035  18.2620  18.2808
    18.3654  18.4182  18.4889  18.5329  18.6417  18.6548  18.6737  18.6963
    18.7108  18.7565  18.8084  18.8188  18.9049  18.9326  18.9561  18.9645
    19.0019  19.0107  19.0414  19.0509  19.0790  19.1533  19.1798  19.2153
    19.2239  19.2990  19.3620  19.3760  19.4087  19.4163  19.4380  19.4703
    19.5297  19.7706  19.8332  19.9792  20.0424  20.0455  20.0796  20.1144
    20.1173  20.2630  20.3383  20.3732  20.3960  20.6259  20.6504  20.7074
    20.7797  20.8526  20.9151  20.9888  21.0671  21.1538  21.1567  21.2322
    21.2385  21.3451  21.3758  21.4071  21.4540  21.4747  21.4917  21.5678
    21.5774  21.6456  21.6622  21.6728  21.7155  21.7349  21.7839  21.7975
    21.8623  21.8787  21.9042  21.9454  21.9536  21.9598  21.9973  22.0154
    22.0491  22.0770  22.1097  22.1140  22.1736  22.1919  22.2347  22.2467
    22.2591  22.2762  22.3511  22.3859  22.4204  22.4266  22.4468  22.4489
    22.4861  22.6212  22.6769  22.7119  22.7467  22.8302  22.8806  22.9022
    22.9448  22.9668  23.0991  23.1513  23.2817  23.5912  23.9257  23.9875
    24.0034  24.1393  24.1528  24.2320  24.2390  24.2659  24.3530  24.3745
    24.3809  24.4286  24.5168  24.5738  24.6156  24.6347  24.6545  24.7163
    24.7357  24.7971  24.8318  24.8874  24.8944  24.9714  24.9822  25.0728
    25.1274  25.1349  25.1753  25.2005  25.2401  25.2614  25.2658  25.2866
    25.2901  25.2984  25.3066  25.3676  25.4033  25.4194  25.4364  25.4807
    25.5347  25.5702  25.6079  25.6336  25.6719  25.6758  25.8691  26.0050
    26.1963  26.8124  26.8181  27.3184  27.3746  27.6063  27.6387  27.9275
    28.2205  28.9417  28.9520  29.0429  29.3037

          k = 0.0556-0.5000-0.5000 ( 30184 PWs)   bands (ev):

   -53.4896 -49.3338 -49.3338 -49.3307 -49.2637 -49.2616 -48.9433 -48.9067
   -48.8753 -48.8753 -48.8356 -48.8231 -48.8110 -48.8003 -48.8003 -48.7937
   -48.7917 -48.7917 -48.7725 -48.7655 -48.7655 -48.7520 -48.7489 -48.7487
   -48.7436 -48.7412 -48.7412 -48.7348 -48.7348 -48.7271 -48.7228 -48.7225
   -48.7225 -25.0861 -25.0861 -25.0853 -20.0934 -20.0810 -19.9611 -19.4629
   -19.4629 -19.4567 -19.3089 -19.2932 -19.2932 -19.2823 -19.2746 -19.2746
   -19.2267 -19.2062 -19.2062 -19.2004 -19.1859 -19.1851 -19.1824 -19.1824
   -19.1543 -19.1516 -19.1516 -19.1289 -19.0981 -19.0966 -19.0666 -19.0406
   -19.0406 -19.0361 -19.0246 -19.0246 -18.9676 -18.9481 -18.9394 -18.9162
   -18.9162 -18.9046 -18.8234 -18.8234 -18.8187 -18.8187 -18.7764 -18.7612
   -18.7612 -18.7526 -18.7465 -18.7410 -18.7286 -18.7286 -18.7232 -18.7168
   -18.7085 -18.7036 -18.6990 -18.6990 -18.6636 -18.6636 -18.6554 -18.6508
   -18.6493 -18.6493 -18.6459 -18.6358 -18.6351 -18.6131 -18.5923 -18.5887
   -18.5887 -18.5837 -18.5718 -18.5718 -18.5581 -18.5581 -18.5563 -18.5543
   -18.5514 -18.5511 -18.5511 -18.5450 -18.5226 -18.5166 -18.5094 -18.5094
   -18.5032 -18.4939 -18.4753 -18.4746 -18.4746 -18.4283 -18.4283 -18.4014
   -18.4009 -17.9833 -17.9787 -17.9787  13.5192  13.5255  13.5255  14.9696
    15.1039  17.3670  17.6491  17.6491  17.7709  18.1046  18.2647  18.2647
    18.3729  18.5409  18.5855  18.5977  18.5977  18.6607  18.6607  18.6966
    18.6980  18.8155  18.8155  18.8679  18.8679  18.8798  18.9098  18.9864
    19.0553  19.0627  19.0744  19.0773  19.0773  19.1233  19.1952  19.2145
    19.2145  19.2562  19.2562  19.2734  19.2777  19.2906  19.3171  19.4662
    19.4662  19.6565  19.8209  20.0535  20.0535  20.1196  20.1196  20.1755
    20.2063  20.2063  20.2147  20.2355  20.2944  20.6785  20.6825  20.8554
    20.8554  20.9537  21.0418  21.0556  21.0556  21.1327  21.1327  21.3110
    21.3798  21.3912  21.3912  21.4165  21.4296  21.4744  21.4744  21.5030
    21.5736  21.6532  21.6532  21.7613  21.8155  21.8390  21.8390  21.8490
    21.8723  21.8723  21.9378  21.9478  22.0282  22.0282  22.0496  22.0856
    22.1297  22.1297  22.1543  22.1574  22.1608  22.1620  22.2235  22.2530
    22.2607  22.2607  22.2860  22.2860  22.2881  22.3515  22.3938  22.3938
    22.4625  22.5534  22.6117  22.6117  22.6473  22.6553  22.6668  22.7092
    22.7092  22.7343  23.1768  23.1768  23.2124  23.6043  24.0138  24.1457
    24.1457  24.1797  24.2661  24.2838  24.2838  24.2990  24.2990  24.3596
    24.4574  24.4574  24.5638  24.5769  24.5870  24.5870  24.7853  24.7883
    24.8103  24.8103  24.8453  24.9799  24.9953  24.9953  25.1223  25.1247
    25.1247  25.1479  25.2117  25.2117  25.2170  25.2249  25.2658  25.2808
    25.3444  25.3444  25.3595  25.3595  25.3962  25.4057  25.4226  25.4592
    25.4618  25.4892  25.4892  25.5101  25.6363  25.6396  25.6396  25.6601
    26.1253  26.8061  26.8061  27.5243  27.5922  28.1972  28.2274  28.2274
    28.3679  28.3886  28.4158  28.4158  28.9391

          k = 0.1667 0.1667 0.1667 ( 30217 PWs)   bands (ev):

   -53.4896 -49.3315 -49.3315 -49.3315 -49.2640 -49.2640 -48.9637 -48.9055
   -48.8547 -48.8547 -48.8410 -48.8154 -48.8154 -48.7997 -48.7983 -48.7979
   -48.7979 -48.7850 -48.7850 -48.7729 -48.7668 -48.7668 -48.7530 -48.7507
   -48.7452 -48.7452 -48.7396 -48.7396 -48.7246 -48.7211 -48.7207 -48.7207
   -48.7119 -25.0855 -25.0855 -25.0855 -20.0923 -20.0923 -19.9730 -19.4966
   -19.4966 -19.4863 -19.3189 -19.3165 -19.3165 -19.2519 -19.2519 -19.2445
   -19.2301 -19.2193 -19.2135 -19.2135 -19.1848 -19.1848 -19.1581 -19.1519
   -19.1022 -19.1022 -19.0896 -19.0896 -19.0598 -19.0598 -19.0487 -19.0354
   -19.0258 -19.0031 -19.0031 -18.9787 -18.9787 -18.9624 -18.9549 -18.9549
   -18.9105 -18.8932 -18.8932 -18.8546 -18.8382 -18.8382 -18.8228 -18.8228
   -18.8067 -18.8002 -18.7688 -18.7688 -18.7374 -18.7374 -18.7333 -18.7246
   -18.7176 -18.7095 -18.7095 -18.6941 -18.6929 -18.6929 -18.6599 -18.6599
   -18.6581 -18.6533 -18.6533 -18.6357 -18.6087 -18.6087 -18.5814 -18.5814
   -18.5774 -18.5641 -18.5570 -18.5570 -18.5511 -18.5459 -18.5459 -18.5395
   -18.5276 -18.5276 -18.5222 -18.5222 -18.5143 -18.5138 -18.4956 -18.4956
   -18.4921 -18.4859 -18.4859 -18.4777 -18.4777 -18.4524 -18.4447 -18.3932
   -18.3932 -17.9882 -17.9819 -17.9819  13.5222  13.5227  13.5227  14.9564
    14.9564  16.3546  17.8452  17.8527  17.8527  17.9344  17.9497  17.9497
    18.0800  18.2036  18.3314  18.3314  18.6492  18.6492  18.6645  18.7419
    18.7715  18.7715  19.0374  19.0424  19.0424  19.0629  19.1041  19.1041
    19.2190  19.2683  19.3183  19.3183  19.3937  19.3937  19.4418  19.4418
    19.5515  19.5581  19.5737  19.5737  19.6205  19.7039  19.7039  19.8145
    19.8922  19.8922  19.9797  19.9797  20.0065  20.2979  20.3531  20.3531
    20.3628  20.3996  20.5126  20.5126  20.5751  20.5751  20.6704  20.7056
    20.7056  20.7066  20.7500  20.7599  20.7599  20.7695  20.7695  20.9550
    20.9550  21.0255  21.0255  21.0486  21.1899  21.2508  21.2508  21.2516
    21.2524  21.3119  21.3142  21.3142  21.3612  21.3612  21.4382  21.4502
    21.4502  21.4925  21.4925  21.5356  21.6388  21.6388  21.9505  22.1709
    22.1709  22.2867  22.2867  22.3355  22.3479  22.3868  22.3868  22.5362
    22.5362  22.6005  22.7445  22.7879  22.7879  22.8030  22.8751  22.8751
    22.9304  22.9445  22.9445  23.0934  23.0934  23.1336  23.3425  23.3425
    23.4339  23.4762  23.4762  23.5253  23.5267  23.5283  23.5283  23.6355
    23.6549  23.6549  23.7557  23.7557  23.7847  23.9031  24.0128  24.0128
    24.0780  24.1126  24.1126  24.1492  24.1492  24.1798  24.3206  24.3206
    24.5092  24.5270  24.5493  24.6349  24.6349  24.7748  24.7748  24.8295
    24.8295  24.8954  25.1192  25.2052  25.2052  25.2493  25.2806  25.2806
    25.5315  25.6293  25.6299  25.6299  25.7101  25.7101  25.7702  25.9387
    25.9387  25.9864  25.9864  26.0446  26.0947  26.1693  26.1693  26.5121
    26.5121  26.6150  27.0427  27.0427  27.2352  27.6640  27.6640  27.9954
    28.0359  28.0359  28.1037  28.3388  28.3388

          k = 0.1667 0.1667 0.2778 ( 30175 PWs)   bands (ev):

   -53.4896 -49.3325 -49.3315 -49.3314 -49.2640 -49.2632 -48.9584 -48.9081
   -48.8622 -48.8537 -48.8438 -48.8151 -48.8110 -48.8028 -48.7999 -48.7984
   -48.7946 -48.7848 -48.7826 -48.7736 -48.7660 -48.7633 -48.7527 -48.7499
   -48.7449 -48.7426 -48.7400 -48.7371 -48.7268 -48.7234 -48.7230 -48.7201
   -48.7137 -25.0858 -25.0855 -25.0855 -20.0922 -20.0899 -19.9695 -19.4897
   -19.4848 -19.4759 -19.3181 -19.3138 -19.3085 -19.2655 -19.2562 -19.2400
   -19.2397 -19.2298 -19.2157 -19.2018 -19.1924 -19.1838 -19.1605 -19.1600
   -19.1183 -19.1124 -19.1039 -19.0952 -19.0875 -19.0585 -19.0556 -19.0335
   -19.0251 -19.0042 -19.0000 -18.9781 -18.9776 -18.9693 -18.9559 -18.9501
   -18.9138 -18.8883 -18.8882 -18.8653 -18.8389 -18.8280 -18.8192 -18.8061
   -18.7984 -18.7905 -18.7861 -18.7430 -18.7408 -18.7304 -18.7245 -18.7109
   -18.7082 -18.7035 -18.6925 -18.6923 -18.6874 -18.6776 -18.6597 -18.6579
   -18.6559 -18.6434 -18.6375 -18.6334 -18.6162 -18.6050 -18.5854 -18.5840
   -18.5822 -18.5739 -18.5720 -18.5650 -18.5578 -18.5550 -18.5500 -18.5472
   -18.5343 -18.5342 -18.5264 -18.5254 -18.5178 -18.5175 -18.4993 -18.4897
   -18.4823 -18.4814 -18.4773 -18.4764 -18.4736 -18.4643 -18.4465 -18.4016
   -18.3958 -17.9875 -17.9816 -17.9795  13.5225  13.5231  13.5233  14.9577
    14.9950  16.5164  17.7548  17.9172  17.9489  17.9637  18.0352  18.0436
    18.1705  18.1807  18.3508  18.4214  18.6439  18.7139  18.7229  18.7266
    18.8080  18.8449  18.8462  18.8619  18.9018  18.9729  19.0593  19.1099
    19.1345  19.1727  19.1783  19.2310  19.3273  19.3456  19.3538  19.3963
    19.4633  19.4725  19.5007  19.5136  19.5645  19.6561  19.7183  19.7451
    19.7748  19.8767  19.9870  20.0034  20.0884  20.2124  20.2642  20.2880
    20.3385  20.3880  20.4019  20.4541  20.5057  20.5143  20.5802  20.6562
    20.7236  20.7338  20.7514  20.8368  20.8447  20.8700  20.9011  20.9224
    20.9424  21.0496  21.1094  21.1747  21.1884  21.2274  21.2588  21.2977
    21.3156  21.3508  21.3958  21.4610  21.4776  21.5226  21.5356  21.5614
    21.5653  21.6441  21.7418  21.7456  21.7832  21.8014  21.8552  22.0442
    22.0630  22.0916  22.1214  22.1308  22.2031  22.2800  22.4120  22.4877
    22.5223  22.5365  22.6214  22.6324  22.7444  22.8448  22.9318  22.9738
    22.9908  23.0430  23.0695  23.0783  23.1706  23.1928  23.2572  23.3004
    23.3243  23.3451  23.4047  23.4301  23.4678  23.5704  23.5935  23.6037
    23.6464  23.7089  23.7207  23.8194  23.8955  23.9046  24.0553  24.1014
    24.1327  24.1932  24.2219  24.2634  24.2891  24.3330  24.4520  24.5056
    24.5142  24.5293  24.6323  24.6639  24.7188  24.7342  24.7725  24.8261
    24.9329  25.0232  25.0746  25.1408  25.2405  25.2677  25.3355  25.3540
    25.4424  25.4973  25.5690  25.5897  25.5916  25.6148  25.6302  25.7769
    25.7935  25.8288  25.9323  25.9323  25.9726  26.0194  26.1384  26.4132
    26.4442  26.5225  27.1599  27.3373  27.3597  27.4870  27.7571  27.8291
    27.8412  27.9546  28.0145  28.3802  28.7097

          k = 0.1667 0.1667 0.3889 ( 30171 PWs)   bands (ev):

   -53.4896 -49.3335 -49.3315 -49.3314 -49.2640 -49.2626 -48.9526 -48.9122
   -48.8663 -48.8527 -48.8461 -48.8149 -48.8101 -48.8065 -48.8012 -48.7987
   -48.7889 -48.7840 -48.7817 -48.7756 -48.7624 -48.7601 -48.7525 -48.7498
   -48.7490 -48.7391 -48.7365 -48.7339 -48.7301 -48.7268 -48.7260 -48.7190
   -48.7157 -25.0860 -25.0855 -25.0855 -20.0922 -20.0879 -19.9663 -19.4812
   -19.4726 -19.4678 -19.3222 -19.3097 -19.3017 -19.2782 -19.2595 -19.2511
   -19.2470 -19.2220 -19.2148 -19.2078 -19.1854 -19.1822 -19.1623 -19.1582
   -19.1403 -19.1304 -19.1040 -19.1038 -19.0983 -19.0681 -19.0678 -19.0338
   -19.0225 -19.0055 -18.9973 -18.9789 -18.9754 -18.9679 -18.9557 -18.9317
   -18.9207 -18.8931 -18.8804 -18.8725 -18.8449 -18.8412 -18.8208 -18.8083
   -18.7961 -18.7743 -18.7727 -18.7427 -18.7421 -18.7157 -18.7047 -18.7034
   -18.6907 -18.6876 -18.6870 -18.6832 -18.6718 -18.6603 -18.6601 -18.6560
   -18.6444 -18.6432 -18.6275 -18.6254 -18.6181 -18.6097 -18.6020 -18.5989
   -18.5860 -18.5765 -18.5730 -18.5707 -18.5666 -18.5635 -18.5612 -18.5529
   -18.5412 -18.5409 -18.5311 -18.5272 -18.5212 -18.5181 -18.5097 -18.5029
   -18.4843 -18.4790 -18.4747 -18.4705 -18.4655 -18.4466 -18.4427 -18.4124
   -18.4053 -17.9861 -17.9814 -17.9781  13.5228  13.5235  13.5238  14.9589
    15.0297  16.7492  17.4330  17.9934  18.0516  18.0520  18.1488  18.1885
    18.2842  18.2948  18.4491  18.5429  18.5488  18.6186  18.6717  18.7304
    18.7545  18.7786  18.8097  18.8338  18.8555  18.8605  18.9336  18.9413
    19.0349  19.0643  19.1855  19.2071  19.2577  19.2852  19.3154  19.3162
    19.3682  19.4479  19.4880  19.4888  19.5437  19.6534  19.7351  19.8056
    19.8383  19.8967  19.9845  20.0415  20.0646  20.0757  20.1383  20.1416
    20.1584  20.2691  20.3139  20.4374  20.4628  20.5158  20.5213  20.6927
    20.7048  20.7317  20.7847  20.8412  20.8756  20.9045  20.9601  20.9690
    21.0412  21.0574  21.1226  21.1567  21.1900  21.2009  21.3384  21.3523
    21.3804  21.4707  21.4743  21.5936  21.5966  21.6669  21.6773  21.7183
    21.7568  21.7749  21.7808  21.8390  21.8758  21.8925  21.9332  21.9341
    21.9708  22.0133  22.0839  22.2570  22.2745  22.3042  22.3454  22.3713
    22.3940  22.4074  22.5037  22.5040  22.6363  22.6632  22.8030  22.9593
    23.0422  23.0660  23.1310  23.1930  23.2047  23.2657  23.3067  23.3318
    23.3405  23.3675  23.3789  23.3856  23.4600  23.4754  23.4876  23.5206
    23.5896  23.6439  23.6782  23.6804  23.9137  23.9223  24.0659  24.1683
    24.1875  24.2129  24.2513  24.3603  24.4509  24.5083  24.5128  24.5764
    24.6557  24.6619  24.7558  24.7656  24.7825  24.8618  24.8666  24.9241
    24.9276  24.9292  25.0238  25.1640  25.1967  25.2764  25.2925  25.3880
    25.4023  25.4174  25.4244  25.4842  25.5564  25.6033  25.6239  25.7251
    25.7447  25.8212  25.8411  25.9349  25.9628  26.0064  26.0840  26.3955
    26.4127  26.5091  26.9598  27.0176  27.2168  27.3405  27.5461  27.7683
    27.8014  27.9702  28.2363  28.4773  29.4229

          k = 0.1667 0.1667-0.5000 ( 30122 PWs)   bands (ev):

   -53.4896 -49.3338 -49.3315 -49.3314 -49.2639 -49.2624 -48.9498 -48.9146
   -48.8674 -48.8523 -48.8471 -48.8147 -48.8099 -48.8079 -48.8017 -48.7988
   -48.7862 -48.7836 -48.7822 -48.7766 -48.7589 -48.7579 -48.7539 -48.7523
   -48.7496 -48.7358 -48.7334 -48.7333 -48.7314 -48.7296 -48.7282 -48.7176
   -48.7173 -25.0861 -25.0855 -25.0855 -20.0921 -20.0871 -19.9650 -19.4769
   -19.4670 -19.4651 -19.3250 -19.3062 -19.3037 -19.2795 -19.2589 -19.2575
   -19.2510 -19.2212 -19.2132 -19.2074 -19.1875 -19.1744 -19.1617 -19.1558
   -19.1507 -19.1398 -19.1088 -19.1033 -19.0991 -19.0738 -19.0738 -19.0399
   -19.0212 -19.0003 -18.9976 -18.9813 -18.9736 -18.9627 -18.9510 -18.9276
   -18.9150 -18.9082 -18.8776 -18.8702 -18.8532 -18.8487 -18.8206 -18.8059
   -18.7967 -18.7732 -18.7659 -18.7432 -18.7417 -18.7071 -18.7013 -18.6975
   -18.6809 -18.6801 -18.6719 -18.6703 -18.6656 -18.6646 -18.6573 -18.6541
   -18.6446 -18.6399 -18.6349 -18.6341 -18.6145 -18.6091 -18.6048 -18.6043
   -18.5805 -18.5799 -18.5781 -18.5712 -18.5679 -18.5602 -18.5593 -18.5519
   -18.5517 -18.5454 -18.5422 -18.5357 -18.5209 -18.5190 -18.5183 -18.5043
   -18.4813 -18.4783 -18.4771 -18.4656 -18.4609 -18.4401 -18.4318 -18.4192
   -18.4157 -17.9853 -17.9812 -17.9778  13.5229  13.5236  13.5240  14.9594
    15.0435  16.9675  17.1725  18.0530  18.0875  18.1014  18.2179  18.3176
    18.3484  18.4162  18.4415  18.4436  18.5116  18.6292  18.6837  18.6849
    18.7123  18.7445  18.7588  18.7701  18.7797  18.8077  18.8917  18.9327
    19.1021  19.1021  19.1200  19.1460  19.2226  19.2321  19.2578  19.2739
    19.3080  19.4887  19.5478  19.5598  19.5900  19.6555  19.6860  19.8774
    19.8870  19.8885  19.9339  19.9618  19.9962  20.0022  20.0929  20.1662
    20.1777  20.1859  20.2113  20.4146  20.4638  20.5337  20.5515  20.6583
    20.6669  20.7304  20.8065  20.8569  20.8907  20.8997  20.9495  20.9675
    21.0831  21.1041  21.1650  21.1863  21.2018  21.3034  21.3493  21.3946
    21.4007  21.4140  21.4412  21.4837  21.6375  21.6768  21.7080  21.7431
    21.7478  21.8095  21.8285  21.9244  21.9524  21.9838  21.9917  22.0313
    22.0965  22.1332  22.1350  22.1701  22.1748  22.2969  22.3431  22.3478
    22.3859  22.4093  22.4128  22.5074  22.5090  22.6480  22.8801  22.9255
    22.9304  22.9376  23.1371  23.2134  23.2267  23.2480  23.2881  23.3231
    23.3259  23.3804  23.3939  23.4135  23.4178  23.4360  23.5229  23.5323
    23.5367  23.5766  23.5898  23.7132  23.7883  23.9196  24.0128  24.1912
    24.2263  24.3801  24.4184  24.4624  24.5131  24.5345  24.5738  24.5875
    24.6492  24.6542  24.7004  24.8448  24.9264  24.9730  24.9753  25.0080
    25.0288  25.0424  25.0606  25.0611  25.1273  25.1995  25.2020  25.2075
    25.2085  25.2623  25.3076  25.3188  25.4733  25.5986  25.6373  25.6511
    25.9224  25.9544  26.0028  26.0247  26.1248  26.1352  26.1614  26.3979
    26.4722  26.4765  26.6525  26.7396  26.7509  27.4223  27.6247  27.7438
    27.7681  27.9465  28.1932  28.9320  29.0402

          k = 0.1667 0.2778 0.2778 ( 30156 PWs)   bands (ev):

   -53.4896 -49.3326 -49.3325 -49.3315 -49.2636 -49.2629 -48.9537 -48.9084
   -48.8653 -48.8586 -48.8467 -48.8133 -48.8066 -48.8064 -48.8017 -48.8014
   -48.7919 -48.7820 -48.7814 -48.7700 -48.7645 -48.7631 -48.7521 -48.7481
   -48.7450 -48.7427 -48.7387 -48.7357 -48.7290 -48.7255 -48.7227 -48.7221
   -48.7155 -25.0858 -25.0858 -25.0855 -20.0912 -20.0880 -19.9668 -19.4823
   -19.4774 -19.4682 -19.3167 -19.3087 -19.3038 -19.2702 -19.2629 -19.2492
   -19.2350 -19.2249 -19.2239 -19.2008 -19.1926 -19.1811 -19.1742 -19.1605
   -19.1359 -19.1200 -19.1195 -19.1149 -19.0845 -19.0825 -19.0575 -19.0306
   -19.0209 -19.0048 -18.9988 -18.9726 -18.9699 -18.9623 -18.9602 -18.9425
   -18.9097 -18.8951 -18.8749 -18.8633 -18.8379 -18.8213 -18.8095 -18.8040
   -18.7863 -18.7804 -18.7625 -18.7618 -18.7446 -18.7324 -18.7209 -18.7124
   -18.6993 -18.6970 -18.6916 -18.6910 -18.6761 -18.6742 -18.6556 -18.6514
   -18.6474 -18.6458 -18.6380 -18.6278 -18.6142 -18.6082 -18.5954 -18.5932
   -18.5885 -18.5799 -18.5740 -18.5672 -18.5657 -18.5652 -18.5556 -18.5553
   -18.5409 -18.5347 -18.5347 -18.5255 -18.5215 -18.5212 -18.4970 -18.4898
   -18.4884 -18.4809 -18.4753 -18.4681 -18.4641 -18.4585 -18.4385 -18.4079
   -18.3962 -17.9870 -17.9804 -17.9787  13.5224  13.5232  13.5235  14.9765
    15.0177  16.6701  17.8042  17.8794  17.9667  18.0246  18.1021  18.1303
    18.2407  18.2579  18.2756  18.4471  18.7007  18.7029  18.7222  18.7698
    18.7858  18.8045  18.8123  18.8326  18.8611  18.8926  18.9416  19.0581
    19.0725  19.1467  19.1593  19.2044  19.2170  19.2667  19.2883  19.3411
    19.3946  19.4153  19.4235  19.4390  19.5371  19.5798  19.6406  19.6540
    19.7624  19.7898  19.9868  20.0177  20.1124  20.1750  20.2121  20.2210
    20.2862  20.3384  20.3680  20.4060  20.5388  20.5922  20.6432  20.6585
    20.6677  20.7617  20.8082  20.8405  20.8637  20.9082  20.9695  21.0048
    21.0451  21.0815  21.1654  21.1707  21.2384  21.2805  21.3001  21.3792
    21.4270  21.4494  21.5572  21.5700  21.5780  21.5877  21.6299  21.6440
    21.6945  21.7079  21.7630  21.7701  21.8153  21.8664  21.8713  21.9205
    22.0385  22.0446  22.1293  22.1361  22.2096  22.2550  22.3690  22.3744
    22.3865  22.4415  22.6110  22.6619  22.7304  22.7445  22.7517  22.8098
    22.8299  22.8776  22.9248  23.0905  23.1005  23.1729  23.2055  23.2326
    23.2728  23.3444  23.3758  23.4852  23.5114  23.6047  23.6321  23.6616
    23.7140  23.7162  23.7623  23.8283  23.8838  23.9079  23.9174  24.0101
    24.0569  24.1398  24.1537  24.3587  24.3633  24.4816  24.4911  24.5529
    24.5936  24.7025  24.7494  24.7876  24.8611  24.8657  24.8943  24.9137
    24.9500  25.0422  25.1053  25.1444  25.2290  25.2601  25.2856  25.4069
    25.4804  25.5247  25.5389  25.5580  25.5902  25.6075  25.6825  25.7448
    25.7465  25.7656  25.7841  25.8176  25.9023  25.9089  25.9397  26.3897
    26.4310  26.4329  27.2040  27.3479  27.4437  27.7034  27.8768  27.9635
    28.1138  28.2404  28.3063  28.5652  28.5819

          k = 0.1667 0.2778 0.3889 ( 30187 PWs)   bands (ev):

   -53.4896 -49.3335 -49.3325 -49.3315 -49.2635 -49.2623 -48.9487 -48.9099
   -48.8691 -48.8609 -48.8479 -48.8130 -48.8101 -48.8056 -48.8034 -48.8011
   -48.7875 -48.7819 -48.7798 -48.7696 -48.7620 -48.7596 -48.7515 -48.7484
   -48.7472 -48.7406 -48.7363 -48.7329 -48.7322 -48.7285 -48.7254 -48.7212
   -48.7177 -25.0860 -25.0858 -25.0855 -20.0910 -20.0857 -19.9642 -19.4747
   -19.4685 -19.4632 -19.3170 -19.3056 -19.2943 -19.2840 -19.2656 -19.2609
   -19.2370 -19.2194 -19.2175 -19.2006 -19.1907 -19.1888 -19.1751 -19.1594
   -19.1536 -19.1356 -19.1244 -19.1185 -19.1007 -19.0850 -19.0674 -19.0401
   -19.0167 -19.0086 -18.9944 -18.9688 -18.9641 -18.9614 -18.9478 -18.9285
   -18.9133 -18.8878 -18.8781 -18.8631 -18.8519 -18.8239 -18.8123 -18.7875
   -18.7758 -18.7699 -18.7678 -18.7531 -18.7347 -18.7262 -18.7217 -18.7004
   -18.6960 -18.6951 -18.6878 -18.6784 -18.6715 -18.6640 -18.6532 -18.6504
   -18.6456 -18.6401 -18.6308 -18.6258 -18.6218 -18.6201 -18.6112 -18.6007
   -18.5939 -18.5828 -18.5787 -18.5737 -18.5693 -18.5671 -18.5614 -18.5553
   -18.5480 -18.5457 -18.5431 -18.5352 -18.5208 -18.5183 -18.5039 -18.4967
   -18.4850 -18.4751 -18.4734 -18.4639 -18.4547 -18.4416 -18.4298 -18.4187
   -18.4014 -17.9855 -17.9800 -17.9783  13.5220  13.5234  13.5239  14.9817
    15.0499  16.8902  17.5422  17.9419  18.0225  18.0795  18.2296  18.2633
    18.3024  18.3181  18.3719  18.5004  18.5968  18.6410  18.6672  18.6718
    18.7155  18.8055  18.8402  18.8582  18.8811  18.8972  18.9073  18.9531
    18.9931  19.0555  19.0729  19.1060  19.1983  19.2345  19.2635  19.2850
    19.3168  19.3555  19.3856  19.4432  19.4528  19.5649  19.5711  19.7681
    19.7887  19.8367  19.9252  19.9638  20.0491  20.0835  20.1178  20.1933
    20.2114  20.2467  20.3388  20.4015  20.4630  20.5739  20.6211  20.6293
    20.6860  20.7434  20.8075  20.8841  20.9475  20.9641  21.0397  21.0828
    21.1441  21.1683  21.2014  21.2370  21.3181  21.3486  21.4106  21.4836
    21.5034  21.5379  21.5873  21.6051  21.6460  21.6828  21.7076  21.7175
    21.7422  21.7643  21.8052  21.8698  21.9387  21.9544  21.9664  22.0075
    22.0232  22.0424  22.1414  22.1461  22.2170  22.2294  22.2596  22.3148
    22.3311  22.3469  22.4227  22.4728  22.5114  22.5579  22.5778  22.6960
    22.7698  22.8503  22.9569  23.0370  23.0730  23.1728  23.2023  23.2458
    23.3236  23.3571  23.3718  23.4275  23.4487  23.4969  23.5758  23.5994
    23.6357  23.6651  23.7070  23.7766  23.8357  23.9165  23.9875  24.0408
    24.0879  24.1685  24.3330  24.4259  24.4385  24.5630  24.6042  24.6543
    24.7045  24.7381  24.7815  24.8497  24.8815  24.9397  24.9889  25.0199
    25.0501  25.0743  25.1030  25.1539  25.1881  25.2159  25.2772  25.3672
    25.4060  25.4386  25.4485  25.4773  25.5042  25.5544  25.6021  25.6611
    25.7415  25.7577  25.7810  25.8600  25.8814  26.1002  26.2224  26.4491
    26.5057  26.5216  26.9658  27.2062  27.3571  27.4750  27.7524  27.8706
    28.1734  28.2743  28.6075  28.7746  28.9101

          k = 0.1667 0.2778-0.5000 ( 30158 PWs)   bands (ev):

   -53.4896 -49.3338 -49.3325 -49.3315 -49.2635 -49.2621 -48.9464 -48.9110
   -48.8703 -48.8618 -48.8482 -48.8128 -48.8116 -48.8051 -48.8047 -48.8007
   -48.7847 -48.7832 -48.7787 -48.7704 -48.7605 -48.7553 -48.7529 -48.7512
   -48.7470 -48.7373 -48.7358 -48.7337 -48.7311 -48.7307 -48.7275 -48.7198
   -48.7194 -25.0861 -25.0858 -25.0855 -20.0910 -20.0848 -19.9631 -19.4707
   -19.4648 -19.4617 -19.3178 -19.3007 -19.2947 -19.2887 -19.2668 -19.2659
   -19.2404 -19.2114 -19.2078 -19.2043 -19.2012 -19.1829 -19.1752 -19.1661
   -19.1607 -19.1369 -19.1248 -19.1186 -19.1063 -19.0856 -19.0658 -19.0594
   -19.0133 -19.0103 -18.9818 -18.9737 -18.9635 -18.9627 -18.9340 -18.9251
   -18.9136 -18.8925 -18.8724 -18.8650 -18.8584 -18.8243 -18.8210 -18.7870
   -18.7728 -18.7667 -18.7576 -18.7534 -18.7362 -18.7233 -18.7065 -18.7013
   -18.6951 -18.6848 -18.6784 -18.6743 -18.6674 -18.6604 -18.6589 -18.6532
   -18.6475 -18.6427 -18.6367 -18.6310 -18.6180 -18.6136 -18.6128 -18.6025
   -18.5946 -18.5940 -18.5796 -18.5756 -18.5728 -18.5691 -18.5607 -18.5556
   -18.5540 -18.5526 -18.5489 -18.5353 -18.5171 -18.5141 -18.5090 -18.5020
[...]
    17.6656  17.7388  17.7388  17.7449  17.7810  17.8303  17.8303  17.8594
    17.9172  17.9415  17.9717  17.9717  18.0002  18.2225  18.2755  18.2755
    18.3212  18.3452  18.3452  18.5130  18.5612  18.7782  18.8042  18.8042
    18.8773  18.8856  18.8968  18.8968  19.0436  19.1397  19.1397  19.1937
    19.3029  19.4104  19.4413  19.4551  19.4551  19.5645  19.5645  19.7208
    19.7372  19.7587  19.7984  19.7985  19.7985  19.8965  19.9595  19.9595
    19.9931  20.1347  20.2009  20.2117  20.2119  20.2119  20.3505  20.3649
    20.3684  20.4304  20.4304  20.4584  20.4684  20.4684  20.5029  20.5261
    20.5572  20.5572  20.5621  20.6318  20.6318  20.6549  20.6702  20.7485
    20.7485  20.7486  20.8257  20.8940  20.8940  20.9049  20.9112  21.2099
    21.2178  21.2302  21.2302  21.2578  21.2837  21.2837  21.3942  21.4274
    21.4274  21.5961  21.6506  21.6506  21.9505  21.9550  22.0354  22.0394
    22.0394  22.0806  22.0898  22.1467  22.1467  22.2059  22.2059  22.3843
    22.3843  22.3932  22.5222  22.5253  22.5861  22.5861  22.6260  22.7804
    22.8246  22.8537  22.8537  23.0526  23.1358  23.1358  23.2394  23.5223
    23.6223  23.6352  23.6804  23.6804  23.7870  23.7983  23.7983  23.8268
    23.8569  23.8569  23.8733  23.8868  23.9200  23.9200  23.9713  23.9834
    23.9922  23.9996  23.9996  24.1599  24.1599  24.1914  24.4313  24.5587
    24.6627  25.3655  25.3655  25.6819  25.6924  26.3465  26.5249  26.5249
    26.6274  26.6274  26.7466  27.0102  27.1553

          k = 0.3816 0.3816 0.3816 ( 31930 PWs)   bands (ev):

   -51.0935 -50.5948 -50.5849 -50.5849 -50.5673 -50.5673 -50.5601 -50.5084
   -50.5081 -50.5081 -50.4809 -50.4809 -50.4766 -50.4454 -50.4230 -50.4230
   -50.4050 -50.4009 -50.4009 -50.3968 -50.3911 -50.3911 -50.3853 -50.3853
   -50.3793 -50.2280 -50.2270 -50.2270 -50.2258 -50.2247 -50.2247 -50.2237
   -50.2210 -21.5591 -21.5564 -21.5564 -21.0262 -21.0131 -21.0131 -20.9054
   -20.9054 -20.8899 -20.8700 -20.8700 -20.8605 -20.8143 -20.8143 -20.8097
   -20.8006 -20.8006 -20.7973 -20.7796 -20.7569 -20.7569 -20.7023 -20.6946
   -20.6874 -20.6874 -20.6806 -20.6806 -20.6270 -20.6270 -20.6243 -20.5792
   -20.5646 -20.5646 -20.5376 -20.5376 -20.5107 -20.5107 -20.5060 -20.4922
   -20.4726 -20.4726 -20.4305 -20.4305 -20.3873 -20.3716 -20.3650 -20.3378
   -20.3378 -20.3111 -20.3111 -20.3080 -20.2958 -20.2758 -20.2617 -20.2617
   -20.2535 -20.2411 -20.2411 -20.2382 -20.2382 -20.2325 -20.2217 -20.2217
   -20.2163 -20.2099 -20.2099 -20.2088 -20.2012 -20.2012 -20.1936 -20.1904
   -20.1904 -20.1737 -20.1731 -20.1731 -20.1568 -20.1568 -20.1530 -20.1338
   -20.1293 -20.0899 -20.0899 -20.0656 -20.0656 -20.0616 -20.0561 -20.0561
   -20.0531 -20.0406 -20.0406 -20.0366 -20.0148 -20.0128 -20.0128 -20.0046
   -20.0023 -20.0023 -19.9918 -19.9918  16.0271  16.3811  16.3811  16.5195
    16.6047  16.6047  16.6192  16.8168  16.8168  16.8265  16.9040  17.1700
    17.1806  17.1806  17.2130  17.2130  17.3466  17.3466  17.3677  17.3677
    17.3840  17.4335  17.4335  17.4724  17.5094  17.5488  17.5878  17.5878
    17.6478  17.7396  17.7396  17.7899  17.7899  17.8125  17.8277  17.8277
    17.8889  17.9482  18.0340  18.0340  18.2365  18.2394  18.2394  18.3257
    18.3257  18.4305  18.4586  18.4586  18.6887  18.7071  18.7071  18.7867
    18.8232  18.8232  18.9077  19.0140  19.0363  19.0363  19.1429  19.1429
    19.2774  19.3313  19.3894  19.3894  19.5010  19.5010  19.5690  19.6671
    19.6671  19.8234  19.8234  19.8614  19.8730  19.9079  19.9079  19.9479
    19.9479  20.0614  20.1685  20.2168  20.2229  20.2229  20.3073  20.3073
    20.4006  20.4358  20.4453  20.4453  20.4573  20.4573  20.5100  20.5202
    20.5202  20.5595  20.5595  20.5751  20.6401  20.6608  20.6608  20.7025
    20.7964  20.7964  20.9092  20.9187  20.9381  20.9381  21.0244  21.1446
    21.1446  21.2706  21.3091  21.3158  21.3158  21.3859  21.3859  21.4032
    21.4683  21.6793  21.6793  21.7286  21.8494  21.8494  21.8929  21.8929
    21.9871  22.0824  22.1354  22.1354  22.2149  22.2149  22.2339  22.2598
    22.2598  22.3157  22.4018  22.4018  22.5473  22.5473  22.5791  22.6868
    22.6868  22.8800  22.9667  22.9667  23.1465  23.1465  23.2530  23.5732
    23.5732  23.6491  23.7339  23.7339  23.7744  23.8472  23.8564  23.8564
    23.9005  23.9005  23.9342  23.9350  23.9350  23.9694  23.9694  23.9702
    23.9916  24.0498  24.0498  24.1131  24.1587  24.1587  24.5634  24.5851
    24.5851  25.6016  25.6016  25.9194  26.1395  26.4396  26.4396  26.6412
    26.6412  26.6853  26.8654  26.8846  26.8846

          k = 0.3816 0.3816-0.4906 ( 31950 PWs)   bands (ev):

   -51.0935 -50.5898 -50.5893 -50.5780 -50.5755 -50.5648 -50.5648 -50.5082
   -50.5075 -50.5072 -50.4805 -50.4794 -50.4776 -50.4460 -50.4230 -50.4227
   -50.4022 -50.4006 -50.3996 -50.3955 -50.3936 -50.3897 -50.3871 -50.3857
   -50.3812 -50.2276 -50.2273 -50.2266 -50.2253 -50.2252 -50.2249 -50.2238
   -50.2214 -21.5627 -21.5582 -21.5565 -21.0222 -21.0178 -21.0143 -20.9045
   -20.8934 -20.8787 -20.8692 -20.8636 -20.8629 -20.8247 -20.8164 -20.8104
   -20.8033 -20.8009 -20.8004 -20.7817 -20.7586 -20.7550 -20.6972 -20.6959
   -20.6839 -20.6836 -20.6834 -20.6815 -20.6259 -20.6154 -20.6030 -20.5900
   -20.5568 -20.5537 -20.5508 -20.5423 -20.5328 -20.5164 -20.5008 -20.4862
   -20.4779 -20.4636 -20.4567 -20.4413 -20.3960 -20.3695 -20.3690 -20.3250
   -20.3234 -20.3199 -20.3022 -20.2971 -20.2896 -20.2744 -20.2571 -20.2561
   -20.2502 -20.2497 -20.2392 -20.2387 -20.2379 -20.2352 -20.2276 -20.2249
   -20.2218 -20.2160 -20.2098 -20.2078 -20.1965 -20.1961 -20.1956 -20.1941
   -20.1937 -20.1802 -20.1785 -20.1757 -20.1598 -20.1551 -20.1514 -20.1406
   -20.1358 -20.0822 -20.0810 -20.0674 -20.0652 -20.0588 -20.0555 -20.0518
   -20.0510 -20.0431 -20.0405 -20.0253 -20.0211 -20.0149 -20.0125 -20.0043
   -20.0030 -19.9999 -19.9938 -19.9928  16.2136  16.2216  16.4382  16.5295
    16.5471  16.5539  16.6741  16.7639  16.7876  16.8116  16.8927  17.1779
    17.1828  17.2327  17.2623  17.2906  17.2911  17.3074  17.3665  17.3867
    17.4010  17.4118  17.4139  17.4711  17.4827  17.5540  17.5578  17.5854
    17.7202  17.7651  17.7713  17.7903  17.8110  17.8117  17.8311  17.8436
    17.8820  17.9592  17.9943  18.1556  18.1655  18.2027  18.2649  18.2749
    18.3349  18.3544  18.5555  18.5792  18.5794  18.6331  18.7322  18.7340
    18.7656  18.8444  18.9078  18.9508  18.9961  19.0405  19.1816  19.1830
    19.2493  19.3581  19.3656  19.4387  19.4458  19.5402  19.5705  19.7216
    19.7617  19.7838  19.7885  19.8902  19.8910  19.9021  19.9384  19.9606
    20.0134  20.0576  20.0647  20.1421  20.2159  20.2705  20.3134  20.3485
    20.3979  20.4018  20.4592  20.4659  20.4711  20.4914  20.5006  20.5037
    20.5355  20.5468  20.5587  20.5995  20.6332  20.6457  20.6731  20.7097
    20.7676  20.7833  20.8449  20.8545  20.9258  20.9616  20.9822  21.1614
    21.1646  21.2494  21.2808  21.3033  21.3306  21.3512  21.3882  21.4339
    21.4455  21.6346  21.6920  21.7146  21.8099  21.8117  21.8823  21.9560
    22.0077  22.0117  22.1202  22.1410  22.1563  22.1987  22.2391  22.2656
    22.3053  22.3137  22.3192  22.4249  22.4547  22.4574  22.5038  22.6833
    22.7292  22.7838  22.7935  22.9393  23.1720  23.1722  23.2221  23.6374
    23.6505  23.7119  23.7272  23.8138  23.8330  23.8489  23.8589  23.8786
    23.9049  23.9061  23.9505  23.9584  23.9679  23.9703  23.9977  24.0024
    24.0045  24.0319  24.0602  24.1158  24.1328  24.1460  24.5866  24.6187
    24.6524  25.8859  25.9335  26.0762  26.2482  26.4027  26.5739  26.6109
    26.6987  26.7092  26.7945  27.2042  27.2296

          k = 0.3816-0.4906-0.4906 ( 31952 PWs)   bands (ev):

   -51.0934 -50.5861 -50.5861 -50.5792 -50.5765 -50.5685 -50.5685 -50.5074
   -50.5074 -50.5064 -50.4790 -50.4790 -50.4786 -50.4467 -50.4229 -50.4226
   -50.3998 -50.3987 -50.3963 -50.3963 -50.3949 -50.3909 -50.3868 -50.3868
   -50.3842 -50.2270 -50.2270 -50.2270 -50.2254 -50.2247 -50.2247 -50.2247
   -50.2217 -21.5627 -21.5627 -21.5574 -21.0201 -21.0185 -21.0185 -20.8976
   -20.8755 -20.8755 -20.8665 -20.8611 -20.8611 -20.8267 -20.8262 -20.8140
   -20.8089 -20.8029 -20.8029 -20.7834 -20.7581 -20.7551 -20.6943 -20.6943
   -20.6872 -20.6826 -20.6794 -20.6794 -20.6091 -20.6091 -20.6022 -20.5733
   -20.5695 -20.5549 -20.5549 -20.5310 -20.5219 -20.5198 -20.5198 -20.5062
   -20.4719 -20.4622 -20.4614 -20.4614 -20.4157 -20.3740 -20.3671 -20.3113
   -20.3079 -20.3076 -20.3076 -20.2948 -20.2754 -20.2734 -20.2576 -20.2576
   -20.2518 -20.2518 -20.2402 -20.2389 -20.2336 -20.2336 -20.2335 -20.2273
   -20.2273 -20.2198 -20.2097 -20.2064 -20.1982 -20.1982 -20.1953 -20.1953
   -20.1936 -20.1829 -20.1829 -20.1807 -20.1572 -20.1572 -20.1507 -20.1488
   -20.1446 -20.0730 -20.0720 -20.0609 -20.0609 -20.0591 -20.0565 -20.0565
   -20.0448 -20.0433 -20.0376 -20.0239 -20.0239 -20.0221 -20.0092 -20.0048
   -20.0048 -19.9975 -19.9940 -19.9940  16.3245  16.3245  16.3705  16.4290
    16.5496  16.5496  16.6493  16.7531  16.7722  16.7722  16.8644  17.1851
    17.2533  17.2533  17.2818  17.3147  17.3189  17.3208  17.3208  17.3343
    17.4077  17.4112  17.4112  17.4438  17.4664  17.5532  17.5532  17.5703
    17.7650  17.8094  17.8094  17.8142  17.8264  17.8427  17.8427  17.8458
    17.8550  18.0171  18.0171  18.1375  18.1395  18.1617  18.2725  18.2725
    18.3993  18.3993  18.4374  18.5498  18.6344  18.6466  18.7102  18.7102
    18.7991  18.7991  18.8643  18.8715  18.9523  19.0366  19.2150  19.2150
    19.2623  19.3834  19.3867  19.3867  19.4783  19.5367  19.5367  19.7411
    19.7781  19.7885  19.8217  19.8752  19.8752  19.9126  19.9745  19.9745
    19.9954  20.0422  20.0681  20.2000  20.2208  20.2208  20.3472  20.3475
    20.4147  20.4147  20.4498  20.4631  20.4866  20.4966  20.4966  20.5431
    20.5431  20.5461  20.5484  20.5771  20.5771  20.5796  20.5969  20.7426
    20.7551  20.7551  20.8730  20.8907  20.8907  20.9024  21.0170  21.1772
    21.1772  21.2762  21.2762  21.2886  21.3106  21.3260  21.4409  21.4409
    21.4418  21.5036  21.7232  21.7232  21.7336  21.8668  21.8814  21.9229
    21.9229  22.0827  22.0827  22.1019  22.1615  22.2198  22.2198  22.2539
    22.2936  22.2936  22.3448  22.3634  22.3761  22.3761  22.4190  22.6676
    22.7085  22.7087  22.7087  22.8157  23.1904  23.1904  23.2273  23.7017
    23.7228  23.7772  23.7955  23.7955  23.8599  23.8923  23.8960  23.8960
    23.9351  23.9351  23.9400  23.9494  23.9924  23.9924  24.0161  24.0297
    24.0378  24.0378  24.0534  24.1171  24.1171  24.1212  24.6253  24.6690
    24.6947  26.1258  26.1258  26.4619  26.5125  26.6542  26.7365  26.7365
    26.8730  26.9512  26.9513  26.9989  27.2976

          k =-0.4906-0.4906-0.4906 ( 32104 PWs)   bands (ev):

   -51.0934 -50.5791 -50.5791 -50.5791 -50.5769 -50.5769 -50.5769 -50.5065
   -50.5065 -50.5065 -50.4786 -50.4786 -50.4786 -50.4475 -50.4226 -50.4226
   -50.3951 -50.3951 -50.3951 -50.3949 -50.3949 -50.3948 -50.3880 -50.3880
   -50.3880 -50.2266 -50.2266 -50.2266 -50.2252 -50.2252 -50.2252 -50.2251
   -50.2220 -21.5628 -21.5628 -21.5628 -21.0205 -21.0205 -21.0205 -20.8701
   -20.8701 -20.8701 -20.8619 -20.8619 -20.8619 -20.8305 -20.8305 -20.8226
   -20.8102 -20.8102 -20.8102 -20.7848 -20.7561 -20.7561 -20.6881 -20.6881
   -20.6881 -20.6814 -20.6814 -20.6814 -20.6018 -20.6018 -20.6018 -20.5658
   -20.5658 -20.5330 -20.5330 -20.5330 -20.5306 -20.5306 -20.5306 -20.4862
   -20.4862 -20.4862 -20.4758 -20.4758 -20.4427 -20.3810 -20.3647 -20.2921
   -20.2921 -20.2921 -20.2910 -20.2910 -20.2868 -20.2694 -20.2694 -20.2694
   -20.2433 -20.2433 -20.2433 -20.2405 -20.2405 -20.2405 -20.2287 -20.2287
   -20.2287 -20.2173 -20.2173 -20.2007 -20.2007 -20.2007 -20.1936 -20.1936
   -20.1936 -20.1863 -20.1863 -20.1863 -20.1596 -20.1581 -20.1543 -20.1543
   -20.1543 -20.0601 -20.0601 -20.0544 -20.0544 -20.0544 -20.0536 -20.0536
   -20.0536 -20.0417 -20.0417 -20.0282 -20.0282 -20.0282 -20.0056 -20.0056
   -20.0056 -19.9947 -19.9947 -19.9947  16.3785  16.3785  16.3785  16.4914
    16.4914  16.4914  16.6853  16.7422  16.7422  16.7422  16.7626  17.2667
    17.2667  17.2667  17.2976  17.2976  17.3239  17.3239  17.3239  17.3344
    17.3344  17.4211  17.4211  17.4211  17.4456  17.5594  17.5594  17.5594
    17.8292  17.8292  17.8292  17.8328  17.8414  17.8414  17.8664  17.8664
    17.8664  18.0438  18.0438  18.0438  18.2297  18.2297  18.2297  18.3502
    18.3502  18.4662  18.4662  18.4662  18.6655  18.6655  18.6655  18.7419
    18.7419  18.7419  18.7761  18.8383  18.9579  18.9579  19.2594  19.2594
    19.2594  19.3647  19.3647  19.3647  19.5159  19.5159  19.5159  19.7305
    19.7305  19.8607  19.8607  19.9485  19.9485  19.9485  19.9541  19.9541
    19.9541  19.9906  20.0577  20.1928  20.1928  20.1928  20.3473  20.3898
    20.3898  20.3898  20.4799  20.4799  20.4828  20.4828  20.5383  20.5383
    20.5383  20.5421  20.5421  20.5421  20.5514  20.5514  20.5514  20.7581
    20.7581  20.7581  20.8868  20.8868  20.8868  20.8961  21.1456  21.1456
    21.1456  21.2599  21.2599  21.2599  21.2621  21.3785  21.4801  21.4801
    21.4801  21.5789  21.5789  21.7861  21.7861  21.7861  21.8093  21.8093
    21.8093  22.1332  22.1332  22.1332  22.1821  22.1821  22.1821  22.2759
    22.2759  22.2759  22.3043  22.3043  22.3043  22.3085  22.3085  22.6304
    22.6304  22.6304  22.6760  22.6760  23.2224  23.2224  23.2224  23.7847
    23.7847  23.8290  23.8290  23.8290  23.8683  23.9376  23.9376  23.9376
    23.9549  23.9549  23.9549  24.0041  24.0041  24.0262  24.0262  24.0262
    24.0530  24.0530  24.0530  24.0927  24.0927  24.0927  24.7007  24.7110
    24.7110  26.8148  26.8148  26.8148  26.8702  26.8702  26.8702  26.9304
    26.9304  26.9304  27.2310  27.2310  27.2310

     the Fermi energy is    22.4946 ev

!    total energy              =  -14244.54668728 Ry

     total all-electron energy =   -299051.449225 Ry
     estimated scf accuracy    <       0.00000001 Ry
     smearing contrib. (-TS)   =      -0.00245324 Ry
     internal energy E=F+TS    =  -14244.54423404 Ry

     The total energy is F=E-TS. E is the sum of the following terms:
     one-electron contribution =   -1148.08309683 Ry
     hartree contribution      =     992.06446881 Ry
     xc contribution           =    -956.90590537 Ry
     ewald contribution        =   -5305.01790260 Ry
     one-center paw contrib.   =   -7826.60179806 Ry

     convergence has been achieved in  19 iterations

     Forces acting on atoms (cartesian axes, Ry/au):

     atom    1 type  1   force =     0.00000000    0.00000000    0.00000000
     atom    2 type  1   force =     0.00003554    0.00003554    0.00003554
     atom    3 type  1   force =     0.00000000    0.00000000   -0.00002248
     atom    4 type  1   force =     0.00000000   -0.00002248    0.00000000
     atom    5 type  1   force =    -0.00002248    0.00000000   -0.00000000
     atom    6 type  1   force =     0.00003554    0.00003554   -0.00003554
     atom    7 type  1   force =     0.00000000    0.00000000    0.00002248
     atom    8 type  1   force =     0.00000000    0.00004863    0.00000000
     atom    9 type  1   force =     0.00004863   -0.00000000   -0.00000000
     atom   10 type  1   force =     0.00003554   -0.00003554    0.00003554
     atom   11 type  1   force =    -0.00000000    0.00000000    0.00004863
     atom   12 type  1   force =     0.00000000    0.00002248    0.00000000
     atom   13 type  1   force =     0.00004863    0.00000000   -0.00000000
     atom   14 type  1   force =     0.00003554   -0.00003554   -0.00003554
     atom   15 type  1   force =     0.00000000    0.00000000   -0.00004863
     atom   16 type  1   force =     0.00000000   -0.00004863    0.00000000
     atom   17 type  1   force =     0.00015650    0.00000000   -0.00000000
     atom   18 type  1   force =    -0.00003554    0.00003554    0.00003554
     atom   19 type  1   force =     0.00000000    0.00000000    0.00004863
     atom   20 type  1   force =     0.00000000    0.00004863    0.00000000
     atom   21 type  1   force =     0.00002248    0.00000000   -0.00000000
     atom   22 type  1   force =    -0.00003554    0.00003554   -0.00003554
     atom   23 type  1   force =     0.00000000    0.00000000   -0.00004863
     atom   24 type  1   force =     0.00000000    0.00015650   -0.00000000
     atom   25 type  1   force =    -0.00004863   -0.00000000   -0.00000000
     atom   26 type  1   force =    -0.00003554   -0.00003554    0.00003554
     atom   27 type  1   force =    -0.00000000    0.00000000    0.00015650
     atom   28 type  1   force =     0.00000000   -0.00004863    0.00000000
     atom   29 type  1   force =    -0.00004863    0.00000000    0.00000000
     atom   30 type  1   force =    -0.00003554   -0.00003554   -0.00003554
     atom   31 type  1   force =    -0.00000000    0.00000000   -0.00015650
     atom   32 type  1   force =     0.00000000   -0.00015650   -0.00000000
     atom   33 type  1   force =    -0.00015650    0.00000000   -0.00000000

     Total force =     0.000457     Total SCF correction =     0.000111
     SCF correction compared to forces is large: reduce conv_thr to get better values


     Computing stress (Cartesian axis) and pressure

          total   stress  (Ry/bohr**3)                   (kbar)     P=        1.55
   0.00001056   0.00000000   0.00000000            1.55        0.00        0.00
   0.00000000   0.00001056   0.00000000            0.00        1.55        0.00
   0.00000000   0.00000000   0.00001056            0.00        0.00        1.55


     Writing output data file /scratch/ruocta2.save/
 
     init_run     :     21.29s CPU     22.01s WALL (       2 calls)
     electrons    :   5470.51s CPU   5538.72s WALL (      11 calls)
     update_pot   :      3.35s CPU      3.43s WALL (       9 calls)
     forces       :     74.02s CPU     74.83s WALL (      11 calls)
     stress       :    382.68s CPU    386.64s WALL (      11 calls)

     Called by init_run:
     wfcinit      :     19.76s CPU     20.22s WALL (       2 calls)
     potinit      :      0.35s CPU      0.38s WALL (       2 calls)
     hinit0       :      0.68s CPU      0.70s WALL (       2 calls)

     Called by electrons:
     c_bands      :   4854.82s CPU   4909.91s WALL (     162 calls)
     sum_band     :    594.85s CPU    604.91s WALL (     162 calls)
     v_of_rho     :      2.25s CPU      2.40s WALL (     170 calls)
     newd         :      3.86s CPU      5.54s WALL (     170 calls)
     PAW_pot      :     15.10s CPU     15.97s WALL (     179 calls)
     mix_rho      :      0.74s CPU      0.83s WALL (     162 calls)

     Called by c_bands:
     init_us_2    :     26.95s CPU     27.36s WALL (   12495 calls)
     cegterg      :   4764.72s CPU   4817.94s WALL (    5670 calls)

     Called by *egterg:
     cdiaghg      :    504.61s CPU    508.02s WALL (   19570 calls)
     h_psi        :   2617.09s CPU   2655.86s WALL (   20060 calls)
     s_psi        :    216.86s CPU    218.42s WALL (   20060 calls)
     g_psi        :      5.77s CPU      5.86s WALL (   14320 calls)

     Called by h_psi:
     h_psi:calbec :    405.85s CPU    408.84s WALL (   20060 calls)
     vloc_psi     :   1989.55s CPU   2021.05s WALL (   20060 calls)
     add_vuspsi   :    207.85s CPU    211.97s WALL (   20060 calls)

     General routines
     calbec       :    661.23s CPU    666.05s WALL (   27970 calls)
     fft          :      2.78s CPU      2.86s WALL (    2475 calls)
     ffts         :      0.21s CPU      0.22s WALL (     332 calls)
     fftw         :   2294.42s CPU   2330.68s WALL (10936620 calls)
     interpolate  :      0.46s CPU      0.48s WALL (     170 calls)
 
     Parallel routines
     fft_scatt_xy :    187.84s CPU    190.78s WALL (10939427 calls)
     fft_scatt_yz :   1785.39s CPU   1814.02s WALL (10939427 calls)
 
     PWSCF        :      1h39m CPU      1h40m WALL

 
   This run was terminated on:  23:41: 8   2Jan2022            

=------------------------------------------------------------------------------=
   JOB DONE.
=------------------------------------------------------------------------------=
