
     Program PWSCF v.6.7MaX starts on  2Jan2022 at 23:41:13 

     This program is part of the open-source Quantum ESPRESSO suite
     for quantum simulation of materials; please cite
         "P. Giannozzi et al., J. Phys.:Condens. Matter 21 395502 (2009);
         "P. Giannozzi et al., J. Phys.:Condens. Matter 29 465901 (2017);
          URL http://www.quantum-espresso.org", 
     in publications or presentations arising from this work. More details at
     http://www.quantum-espresso.org/quote

     Parallel version (MPI & OpenMP), running on      72 processor cores
     Number of MPI processes:                72
     Threads/MPI process:                     1

     MPI processes distributed on     1 nodes
     R & G space division:  proc/nbgrp/npool/nimage =      72
     Reading input from ru_tetra_1.in
Warning: card &CELL ignored
Warning: card CELL_DYNAMICS = 'BFGS', ignored
Warning: card CELL_FACTOR = 2.0, ignored
Warning: card PRESS = 0.0, ignored
Warning: card / ignored

     Current dimensions of program PWSCF are:
     Max number of different atomic species (ntypx) = 10
     Max number of k-points (npk) =  40000
     Max angular momentum in pseudopotentials (lmaxx) =  3
     file Ru.pbe-spn-kjpaw_psl.1.0.0.UPF: wavefunction(s)  4D renormalized

     Subspace diagonalization in iterative solution of the eigenvalue problem:
     one sub-group per band group will be used
     ELPA distributed-memory algorithm (size of sub-group:  8*  8 procs)

     Message from routine setup:
     using ibrav=0 with symmetry is DISCOURAGED, use correct ibrav instead
 
     Parallelization info
     --------------------
     sticks:   dense  smooth     PW     G-vecs:    dense   smooth      PW
     Min          98      65     17                 6240     3351     475
     Max          99      66     18                 6245     3355     482
     Sum        7113    4693   1281               449479   241377   34457
 


     bravais-lattice index     =            0
     lattice parameter (alat)  =      14.4007  a.u.
     unit-cell volume          =    2986.4454 (a.u.)^3
     number of atoms/cell      =           33
     number of atomic types    =            1
     number of electrons       =       528.00
     number of Kohn-Sham states=          317
     kinetic-energy cutoff     =      71.0000  Ry
     charge density cutoff     =     430.0000  Ry
     scf convergence threshold =      1.0E-06
     mixing beta               =       0.1000
     number of iterations used =           10  TF        mixing
     Exchange-correlation= SLA  PW   PBX  PBC
                           (   1   4   3   4   0   0   0)

     celldm(1)=  14.400742  celldm(2)=   0.000000  celldm(3)=   0.000000
     celldm(4)=   0.000000  celldm(5)=   0.000000  celldm(6)=   0.000000

     crystal axes: (cart. coord. in units of alat)
               a(1) = (   1.000000   0.000000   0.000000 )  
               a(2) = (   0.000000   1.000000   0.000000 )  
               a(3) = (   0.000000   0.000000   1.000000 )  

     reciprocal axes: (cart. coord. in units 2 pi/alat)
               b(1) = (  1.000000  0.000000  0.000000 )  
               b(2) = (  0.000000  1.000000  0.000000 )  
               b(3) = (  0.000000  0.000000  1.000000 )  


     PseudoPot. # 1 for Ru read from file:
     /rds/homes/b/bxp912/pp/Ru.pbe-spn-kjpaw_psl.1.0.0.UPF
     MD5 check sum: 0ae1f594dea09af7be8575c3a481d1ae
     Pseudo is Projector augmented-wave + core cor, Zval = 16.0
     Generated using "atomic" code by A. Dal Corso  v.5.1
     Shape of augmentation charge: PSQ
     Using radial grid of 1233 points,  6 beta functions with: 
                l(1) =   0
                l(2) =   0
                l(3) =   1
                l(4) =   1
                l(5) =   2
                l(6) =   2
     Q(r) pseudized with 0 coefficients 


     atomic species   valence    mass     pseudopotential
        Ru            16.00   101.07000     Ru( 1.00)

     24 Sym. Ops. (no inversion) found (18 have fractional translation)



   Cartesian axes

     site n.     atom                  positions (alat units)
         1           Ru  tau(   1) = (   0.1250000   0.1250000   0.1250000  )
         2           Ru  tau(   2) = (   0.0000000   0.0000000   0.0000000  )
         3           Ru  tau(   3) = (   0.2500000   0.2500000   0.0000000  )
         4           Ru  tau(   4) = (   0.2500000   0.0000000   0.2500000  )
         5           Ru  tau(   5) = (   0.0000000   0.2500000   0.2500000  )
         6           Ru  tau(   6) = (   0.0000000   0.0000000   0.5000000  )
         7           Ru  tau(   7) = (   0.2500000   0.2500000   0.5000000  )
         8           Ru  tau(   8) = (   0.2500000   0.0000000   0.7500000  )
         9           Ru  tau(   9) = (   0.0000000   0.2500000   0.7500000  )
        10           Ru  tau(  10) = (   0.0000000   0.5000000   0.0000000  )
        11           Ru  tau(  11) = (   0.2500000   0.7500000   0.0000000  )
        12           Ru  tau(  12) = (   0.2500000   0.5000000   0.2500000  )
        13           Ru  tau(  13) = (   0.0000000   0.7500000   0.2500000  )
        14           Ru  tau(  14) = (   0.0000000   0.5000000   0.5000000  )
        15           Ru  tau(  15) = (   0.2500000   0.7500000   0.5000000  )
        16           Ru  tau(  16) = (   0.2500000   0.5000000   0.7500000  )
        17           Ru  tau(  17) = (   0.0000000   0.7500000   0.7500000  )
        18           Ru  tau(  18) = (   0.5000000   0.0000000   0.0000000  )
        19           Ru  tau(  19) = (   0.7500000   0.2500000   0.0000000  )
        20           Ru  tau(  20) = (   0.7500000   0.0000000   0.2500000  )
        21           Ru  tau(  21) = (   0.5000000   0.2500000   0.2500000  )
        22           Ru  tau(  22) = (   0.5000000   0.0000000   0.5000000  )
        23           Ru  tau(  23) = (   0.7500000   0.2500000   0.5000000  )
        24           Ru  tau(  24) = (   0.7500000   0.0000000   0.7500000  )
        25           Ru  tau(  25) = (   0.5000000   0.2500000   0.7500000  )
        26           Ru  tau(  26) = (   0.5000000   0.5000000   0.0000000  )
        27           Ru  tau(  27) = (   0.7500000   0.7500000   0.0000000  )
        28           Ru  tau(  28) = (   0.7500000   0.5000000   0.2500000  )
        29           Ru  tau(  29) = (   0.5000000   0.7500000   0.2500000  )
        30           Ru  tau(  30) = (   0.5000000   0.5000000   0.5000000  )
        31           Ru  tau(  31) = (   0.7500000   0.7500000   0.5000000  )
        32           Ru  tau(  32) = (   0.7500000   0.5000000   0.7500000  )
        33           Ru  tau(  33) = (   0.5000000   0.7500000   0.7500000  )

     number of k points=    35  Marzari-Vanderbilt smearing, width (Ry)=  0.0400
                       cart. coord. in units 2pi/alat
        k(    1) = (   0.0555556   0.0555556   0.0555556), wk =   0.0219479
        k(    2) = (   0.0555556   0.0555556   0.1666667), wk =   0.0658436
        k(    3) = (   0.0555556   0.0555556   0.2777778), wk =   0.0658436
        k(    4) = (   0.0555556   0.0555556   0.3888889), wk =   0.0658436
        k(    5) = (   0.0555556   0.0555556  -0.5000000), wk =   0.0329218
        k(    6) = (   0.0555556   0.1666667   0.1666667), wk =   0.0658436
        k(    7) = (   0.0555556   0.1666667   0.2777778), wk =   0.1316872
        k(    8) = (   0.0555556   0.1666667   0.3888889), wk =   0.1316872
        k(    9) = (   0.0555556   0.1666667  -0.5000000), wk =   0.0658436
        k(   10) = (   0.0555556   0.2777778   0.2777778), wk =   0.0658436
        k(   11) = (   0.0555556   0.2777778   0.3888889), wk =   0.1316872
        k(   12) = (   0.0555556   0.2777778  -0.5000000), wk =   0.0658436
        k(   13) = (   0.0555556   0.3888889   0.3888889), wk =   0.0658436
        k(   14) = (   0.0555556   0.3888889  -0.5000000), wk =   0.0658436
        k(   15) = (   0.0555556  -0.5000000  -0.5000000), wk =   0.0164609
        k(   16) = (   0.1666667   0.1666667   0.1666667), wk =   0.0219479
        k(   17) = (   0.1666667   0.1666667   0.2777778), wk =   0.0658436
        k(   18) = (   0.1666667   0.1666667   0.3888889), wk =   0.0658436
        k(   19) = (   0.1666667   0.1666667  -0.5000000), wk =   0.0329218
        k(   20) = (   0.1666667   0.2777778   0.2777778), wk =   0.0658436
        k(   21) = (   0.1666667   0.2777778   0.3888889), wk =   0.1316872
        k(   22) = (   0.1666667   0.2777778  -0.5000000), wk =   0.0658436
        k(   23) = (   0.1666667   0.3888889   0.3888889), wk =   0.0658436
        k(   24) = (   0.1666667   0.3888889  -0.5000000), wk =   0.0658436
        k(   25) = (   0.1666667  -0.5000000  -0.5000000), wk =   0.0164609
        k(   26) = (   0.2777778   0.2777778   0.2777778), wk =   0.0219479
        k(   27) = (   0.2777778   0.2777778   0.3888889), wk =   0.0658436
        k(   28) = (   0.2777778   0.2777778  -0.5000000), wk =   0.0329218
        k(   29) = (   0.2777778   0.3888889   0.3888889), wk =   0.0658436
        k(   30) = (   0.2777778   0.3888889  -0.5000000), wk =   0.0658436
        k(   31) = (   0.2777778  -0.5000000  -0.5000000), wk =   0.0164609
        k(   32) = (   0.3888889   0.3888889   0.3888889), wk =   0.0219479
        k(   33) = (   0.3888889   0.3888889  -0.5000000), wk =   0.0329218
        k(   34) = (   0.3888889  -0.5000000  -0.5000000), wk =   0.0164609
        k(   35) = (  -0.5000000  -0.5000000  -0.5000000), wk =   0.0027435

     Dense  grid:   449479 G-vectors     FFT dimensions: (  96,  96,  96)

     Smooth grid:   241377 G-vectors     FFT dimensions: (  80,  80,  80)

     Estimated max dynamical RAM per process >     109.79 MB

     Estimated total dynamical RAM >       7.72 GB

     Check: negative core charge=   -0.000002

     Initial potential from superposition of free atoms

     starting charge  527.97896, renormalised to  528.00000
     Starting wfcs are  330 randomized atomic wfcs
     Checking if some PAW data can be deallocated... 

     total cpu time spent up to now is       12.9 secs

     Self-consistent Calculation

     iteration #  1     ecut=    71.00 Ry     beta= 0.10
     Davidson diagonalization with overlap
     ethr =  1.00E-02,  avg # of iterations =  4.3

     Threshold (ethr) on eigenvalues was too large:
     Diagonalizing with lowered threshold

     Davidson diagonalization with overlap
     ethr =  9.44E-04,  avg # of iterations =  1.8

     total cpu time spent up to now is       77.2 secs

     total energy              =  -14241.53827007 Ry
     estimated scf accuracy    <       5.27612093 Ry

     iteration #  2     ecut=    71.00 Ry     beta= 0.10
     Davidson diagonalization with overlap
     ethr =  9.99E-04,  avg # of iterations =  1.0

     total cpu time spent up to now is      102.1 secs

     total energy              =  -14240.86548536 Ry
     estimated scf accuracy    <       3.50296502 Ry

     iteration #  3     ecut=    71.00 Ry     beta= 0.10
     Davidson diagonalization with overlap
     ethr =  6.63E-04,  avg # of iterations =  3.5

     total cpu time spent up to now is      131.2 secs

     total energy              =  -14241.16662666 Ry
     estimated scf accuracy    <       0.40233477 Ry

     iteration #  4     ecut=    71.00 Ry     beta= 0.10
     Davidson diagonalization with overlap
     ethr =  7.62E-05,  avg # of iterations =  6.3

     total cpu time spent up to now is      163.2 secs

     total energy              =  -14241.15494463 Ry
     estimated scf accuracy    <       0.29978694 Ry

     iteration #  5     ecut=    71.00 Ry     beta= 0.10
     Davidson diagonalization with overlap
     c_bands:  1 eigenvalues not converged
     ethr =  5.68E-05,  avg # of iterations =  5.1

     total cpu time spent up to now is      194.7 secs

     total energy              =  -14241.17834697 Ry
     estimated scf accuracy    <       0.02114932 Ry

     iteration #  6     ecut=    71.00 Ry     beta= 0.10
     Davidson diagonalization with overlap
     ethr =  4.01E-06,  avg # of iterations =  7.1

     total cpu time spent up to now is      231.7 secs

     total energy              =  -14241.17814191 Ry
     estimated scf accuracy    <       0.00879553 Ry

     iteration #  7     ecut=    71.00 Ry     beta= 0.10
     Davidson diagonalization with overlap
     ethr =  1.67E-06,  avg # of iterations =  5.9

     total cpu time spent up to now is      264.4 secs

     total energy              =  -14241.17625695 Ry
     estimated scf accuracy    <       0.01952183 Ry

     iteration #  8     ecut=    71.00 Ry     beta= 0.10
     Davidson diagonalization with overlap
     ethr =  1.67E-06,  avg # of iterations =  3.4

     total cpu time spent up to now is      298.3 secs

     total energy              =  -14241.17888088 Ry
     estimated scf accuracy    <       0.00354367 Ry

     iteration #  9     ecut=    71.00 Ry     beta= 0.10
     Davidson diagonalization with overlap
     ethr =  6.71E-07,  avg # of iterations =  2.0

     total cpu time spent up to now is      326.2 secs

     total energy              =  -14241.17808207 Ry
     estimated scf accuracy    <       0.00527506 Ry

     iteration # 10     ecut=    71.00 Ry     beta= 0.10
     Davidson diagonalization with overlap
     ethr =  6.71E-07,  avg # of iterations =  2.0

     total cpu time spent up to now is      354.2 secs

     total energy              =  -14241.17847228 Ry
     estimated scf accuracy    <       0.00022387 Ry

     iteration # 11     ecut=    71.00 Ry     beta= 0.10
     Davidson diagonalization with overlap
     ethr =  4.24E-08,  avg # of iterations =  2.5

     total cpu time spent up to now is      384.0 secs

     total energy              =  -14241.17848505 Ry
     estimated scf accuracy    <       0.00005425 Ry

     iteration # 12     ecut=    71.00 Ry     beta= 0.10
     Davidson diagonalization with overlap
     ethr =  1.03E-08,  avg # of iterations =  2.0

     total cpu time spent up to now is      412.6 secs

     total energy              =  -14241.17847707 Ry
     estimated scf accuracy    <       0.00007987 Ry

     iteration # 13     ecut=    71.00 Ry     beta= 0.10
     Davidson diagonalization with overlap
     ethr =  1.03E-08,  avg # of iterations =  2.0

     total cpu time spent up to now is      440.2 secs

     total energy              =  -14241.17847219 Ry
     estimated scf accuracy    <       0.00002047 Ry

     iteration # 14     ecut=    71.00 Ry     beta= 0.10
     Davidson diagonalization with overlap
     ethr =  3.88E-09,  avg # of iterations =  2.1

     total cpu time spent up to now is      472.9 secs

     total energy              =  -14241.17847645 Ry
     estimated scf accuracy    <       0.00000392 Ry

     iteration # 15     ecut=    71.00 Ry     beta= 0.10
     Davidson diagonalization with overlap
     ethr =  7.42E-10,  avg # of iterations =  1.1

     total cpu time spent up to now is      497.9 secs

     total energy              =  -14241.17847666 Ry
     estimated scf accuracy    <       0.00000103 Ry

     iteration # 16     ecut=    71.00 Ry     beta= 0.10
     Davidson diagonalization with overlap
     ethr =  1.94E-10,  avg # of iterations =  2.3

     total cpu time spent up to now is      531.9 secs

     End of self-consistent calculation

          k = 0.0556 0.0556 0.0556 ( 30224 PWs)   bands (ev):

   -56.9280 -50.1950 -50.1950 -50.1950 -48.9578 -48.8717 -48.8717 -48.8588
   -48.8528 -48.8528 -48.8226 -48.8182 -48.8182 -48.8172 -48.8129 -48.8129
   -48.8113 -48.8019 -48.7926 -48.7923 -48.7923 -48.7804 -48.7804 -48.7495
   -48.7493 -48.7493 -48.7324 -48.7321 -48.7321 -48.7257 -48.7256 -48.7256
   -48.3170 -28.7761 -28.7761 -28.7761 -19.9711 -19.8380 -19.8380 -19.8379
   -19.7455 -19.7455 -19.4146 -19.4146 -19.4127 -19.3377 -19.3036 -19.3036
   -19.3034 -19.2493 -19.2354 -19.2354 -19.0948 -19.0948 -19.0868 -19.0868
   -19.0863 -19.0751 -19.0692 -19.0692 -19.0594 -19.0495 -19.0495 -19.0267
   -19.0265 -19.0085 -19.0085 -18.9650 -18.9650 -18.9480 -18.9358 -18.9358
   -18.9294 -18.9184 -18.9016 -18.9016 -18.8254 -18.8254 -18.8194 -18.8010
   -18.7920 -18.7920 -18.7751 -18.7751 -18.7686 -18.7637 -18.7577 -18.7577
   -18.7465 -18.7465 -18.7445 -18.7419 -18.7387 -18.7387 -18.7118 -18.7117
   -18.7117 -18.6182 -18.6182 -18.6153 -18.6085 -18.6052 -18.6052 -18.5955
   -18.5955 -18.5581 -18.5569 -18.5569 -18.5347 -18.5347 -18.5293 -18.5290
   -18.5245 -18.5245 -18.5184 -18.5184 -18.5161 -18.5142 -18.5142 -18.5133
   -18.5069 -18.5069 -18.5021 -18.4956 -18.4956 -18.4866 -18.3990 -18.3927
   -18.3927 -16.7118 -16.7118 -16.7118  11.4142  11.4142  12.5515  12.5519
    12.5519  15.9251  17.6311  17.7569  17.7647  17.7647  18.0645  18.0670
    18.0670  18.1751  18.3384  18.3384  18.5138  18.5174  18.5174  18.6290
    18.6926  18.6926  19.0382  19.0399  19.0399  19.2724  19.2746  19.2746
    19.4613  19.5493  19.5493  19.6580  19.7136  19.7136  19.7981  19.7981
    19.8013  19.8029  19.8562  19.8562  19.8690  19.8908  19.8908  20.0075
    20.0075  20.0671  20.2495  20.2495  20.2507  20.3682  20.4002  20.4002
    20.4436  20.4436  20.4611  20.4928  20.4928  20.4950  20.5554  20.5554
    20.5918  20.6012  20.6064  20.6064  20.6717  20.7025  20.7025  20.7999
    20.7999  20.8659  20.8844  20.8908  20.8908  20.9186  20.9186  20.9398
    21.1218  21.1218  21.2598  21.2598  21.2711  21.2717  21.3064  21.3064
    21.5045  21.5346  21.5346  21.6593  21.6735  21.6735  21.9256  21.9256
    21.9773  22.1325  22.1408  22.1408  22.5397  22.5397  22.6109  22.7263
    22.7263  22.7454  22.8047  22.8047  22.8271  22.9577  22.9577  23.0308
    23.0442  23.0886  23.0886  23.1379  23.2187  23.2187  23.2534  23.3080
    23.3080  23.3416  23.3608  23.3608  23.4614  23.4895  23.4895  23.5440
    23.5440  23.5764  23.6722  23.6743  23.6743  23.7309  23.7313  23.7313
    23.7915  23.7917  23.7917  23.8587  23.8587  23.9755  24.3820  24.3820
    24.4587  24.4587  24.4862  24.4968  24.5924  24.5924  24.7810  24.8166
    24.8166  24.9180  25.1352  25.2840  25.3163  25.3163  25.6338  25.6338
    25.6502  25.7695  25.7695  25.8874  25.8874  25.9877  25.9877  26.0390
    26.0494  26.1347  26.1434  26.1434  26.2032  26.2032  26.2049  27.2119
    27.2129  27.2129  27.4428  27.4428  27.6859  27.6859  27.8138  27.9709
    28.0994  28.0994  28.1214  28.3331  28.5008

          k = 0.0556 0.0556 0.1667 ( 30207 PWs)   bands (ev):

   -56.9279 -50.1950 -50.1950 -50.1950 -48.9550 -48.8837 -48.8707 -48.8588
   -48.8521 -48.8444 -48.8239 -48.8213 -48.8195 -48.8151 -48.8145 -48.8129
   -48.8120 -48.8014 -48.7931 -48.7900 -48.7898 -48.7791 -48.7773 -48.7502
   -48.7495 -48.7495 -48.7341 -48.7321 -48.7320 -48.7265 -48.7260 -48.7260
   -48.3170 -28.7761 -28.7761 -28.7760 -19.9694 -19.8371 -19.8371 -19.8370
   -19.7449 -19.7442 -19.4201 -19.4194 -19.4158 -19.3278 -19.2978 -19.2934
   -19.2926 -19.2443 -19.2322 -19.2292 -19.1138 -19.1078 -19.1020 -19.0957
   -19.0935 -19.0892 -19.0806 -19.0688 -19.0648 -19.0534 -19.0521 -19.0339
   -19.0335 -19.0141 -19.0041 -18.9766 -18.9725 -18.9585 -18.9390 -18.9359
   -18.9195 -18.9111 -18.8924 -18.8845 -18.8382 -18.8321 -18.8185 -18.8105
   -18.8092 -18.7782 -18.7772 -18.7616 -18.7544 -18.7527 -18.7517 -18.7465
   -18.7390 -18.7374 -18.7314 -18.7302 -18.7225 -18.7191 -18.7000 -18.6978
   -18.6950 -18.6257 -18.6253 -18.6181 -18.6101 -18.6009 -18.6000 -18.5982
   -18.5979 -18.5661 -18.5658 -18.5566 -18.5413 -18.5380 -18.5355 -18.5339
   -18.5315 -18.5280 -18.5241 -18.5235 -18.5186 -18.5185 -18.5131 -18.5122
   -18.5065 -18.5023 -18.4999 -18.4931 -18.4909 -18.4796 -18.4147 -18.3977
   -18.3959 -16.7120 -16.7117 -16.7117  11.4136  11.4147  12.5518  12.5522
    12.5533  16.0027  17.5936  17.8011  17.8182  17.8221  18.0963  18.1157
    18.1164  18.2270  18.2678  18.3990  18.4362  18.5613  18.5643  18.6728
    18.7404  18.7413  19.0020  19.0021  19.0891  19.1667  19.1991  19.2003
    19.3462  19.4736  19.5284  19.5346  19.5926  19.5958  19.6350  19.6692
    19.7418  19.7805  19.7831  19.8094  19.8508  19.8733  19.9068  19.9451
    19.9548  20.0203  20.0868  20.1815  20.2365  20.2494  20.3152  20.3309
    20.3669  20.3680  20.4269  20.4583  20.4652  20.5224  20.5364  20.5760
    20.6057  20.6449  20.6519  20.6852  20.7762  20.7826  20.8302  20.8389
    20.8799  20.8956  20.9315  20.9890  20.9905  21.0502  21.0737  21.1256
    21.2372  21.2412  21.2686  21.3129  21.3324  21.3347  21.3585  21.3627
    21.4606  21.5656  21.5702  21.6283  21.6900  21.7034  21.8621  21.8772
    22.1043  22.1385  22.1925  22.2091  22.3425  22.3699  22.5107  22.5482
    22.6661  22.7496  22.7512  22.7604  22.7842  22.8696  22.8764  23.0047
    23.0178  23.0934  23.1414  23.1522  23.1770  23.2192  23.2594  23.3127
    23.3688  23.3812  23.4037  23.4203  23.4764  23.5022  23.5860  23.6285
    23.6391  23.6539  23.7390  23.7498  23.7780  23.7823  23.8225  23.8791
    23.9052  23.9646  24.0177  24.0613  24.0824  24.1923  24.2413  24.2463
    24.2876  24.2989  24.4764  24.5616  24.5778  24.6763  24.7091  24.7869
    24.8245  24.8874  25.0072  25.1024  25.2879  25.3109  25.4545  25.5489
    25.6054  25.6076  25.7025  25.7417  25.8618  25.9025  25.9761  25.9883
    26.0169  26.0844  26.1938  26.1980  26.2592  26.2688  26.4444  26.8294
    26.9326  27.1037  27.3041  27.3679  27.4255  27.7481  27.8253  27.8990
    28.1136  28.3009  28.4432  28.5237  28.7533

          k = 0.0556 0.0556 0.2778 ( 30183 PWs)   bands (ev):

   -56.9279 -50.1950 -50.1950 -50.1950 -48.9495 -48.8974 -48.8691 -48.8573
   -48.8511 -48.8387 -48.8267 -48.8259 -48.8214 -48.8176 -48.8147 -48.8131
   -48.8080 -48.8007 -48.7926 -48.7867 -48.7865 -48.7776 -48.7731 -48.7514
   -48.7498 -48.7498 -48.7373 -48.7317 -48.7317 -48.7278 -48.7267 -48.7267
   -48.3169 -28.7761 -28.7760 -28.7760 -19.9668 -19.8358 -19.8358 -19.8356
   -19.7439 -19.7420 -19.4265 -19.4259 -19.4219 -19.3086 -19.2866 -19.2762
   -19.2742 -19.2399 -19.2210 -19.2182 -19.1522 -19.1399 -19.1234 -19.1177
   -19.1073 -19.0986 -19.0865 -19.0753 -19.0694 -19.0679 -19.0596 -19.0458
   -19.0371 -19.0224 -18.9904 -18.9794 -18.9750 -18.9600 -18.9444 -18.9279
   -18.9174 -18.9066 -18.8879 -18.8861 -18.8479 -18.8410 -18.8279 -18.8165
   -18.7906 -18.7852 -18.7809 -18.7562 -18.7511 -18.7434 -18.7432 -18.7238
   -18.7214 -18.7165 -18.7057 -18.7021 -18.6982 -18.6827 -18.6765 -18.6748
   -18.6657 -18.6365 -18.6357 -18.6244 -18.6112 -18.6036 -18.6028 -18.5985
   -18.5965 -18.5759 -18.5753 -18.5631 -18.5610 -18.5513 -18.5510 -18.5482
   -18.5409 -18.5341 -18.5330 -18.5231 -18.5189 -18.5185 -18.5147 -18.5103
   -18.5064 -18.4981 -18.4911 -18.4823 -18.4810 -18.4754 -18.4418 -18.4072
   -18.4049 -16.7123 -16.7115 -16.7115  11.4126  11.4154  12.5523  12.5527
    12.5554  16.1501  17.4414  17.8920  17.9202  17.9235  18.0789  18.2046
    18.2079  18.2486  18.3488  18.4940  18.5168  18.6220  18.6402  18.7036
    18.7697  18.8105  18.9002  18.9133  18.9875  19.0560  19.0587  19.1751
    19.1939  19.2591  19.3742  19.3867  19.4366  19.5034  19.5175  19.5606
    19.6399  19.6443  19.6783  19.7060  19.8012  19.8035  19.8691  19.9237
    19.9523  20.0327  20.1002  20.1502  20.1736  20.1882  20.1962  20.2631
    20.3150  20.3493  20.3730  20.3972  20.4441  20.4926  20.5101  20.5695
    20.6248  20.6719  20.6977  20.7392  20.7634  20.8169  20.8438  20.8783
    20.9464  20.9507  21.0483  21.0663  21.0830  21.1243  21.1546  21.2468
    21.2931  21.2947  21.3464  21.4138  21.4337  21.4353  21.4700  21.5809
    21.6392  21.6444  21.7210  21.7699  21.7745  21.8101  21.8408  21.8850
    22.0210  22.0994  22.1054  22.2168  22.2598  22.3168  22.4033  22.4255
    22.4293  22.5621  22.6743  22.7025  22.7076  22.8957  22.9097  22.9984
    23.0630  23.1649  23.1765  23.2075  23.2344  23.3303  23.3504  23.3672
    23.3890  23.3960  23.4420  23.4644  23.5128  23.5735  23.5881  23.5941
    23.6491  23.6589  23.7204  23.7862  23.8194  23.8914  23.9312  23.9902
    24.0024  24.0634  24.0667  24.1508  24.1926  24.1962  24.2982  24.3806
    24.3985  24.4806  24.4836  24.5651  24.6424  24.7297  24.8015  24.8273
    24.9376  24.9735  25.0549  25.0647  25.1950  25.2026  25.2351  25.2959
    25.3872  25.4776  25.5791  25.6102  25.6639  25.7531  25.7798  25.8072
    25.8742  26.1634  26.1983  26.2097  26.3542  26.4358  26.5682  26.6165
    26.7849  26.8717  26.9056  26.9741  27.2910  27.6754  27.7813  28.1319
    28.2283  28.4114  28.5445  28.8853  28.9610

          k = 0.0556 0.0556 0.3889 ( 30161 PWs)   bands (ev):

   -56.9279 -50.1950 -50.1950 -50.1950 -48.9425 -48.9098 -48.8675 -48.8557
   -48.8501 -48.8356 -48.8296 -48.8292 -48.8231 -48.8202 -48.8151 -48.8134
   -48.8044 -48.8009 -48.7889 -48.7841 -48.7839 -48.7771 -48.7697 -48.7525
   -48.7501 -48.7500 -48.7404 -48.7313 -48.7313 -48.7292 -48.7275 -48.7274
   -48.3168 -28.7760 -28.7760 -28.7760 -19.9644 -19.8347 -19.8346 -19.8344
   -19.7431 -19.7401 -19.4311 -19.4310 -19.4279 -19.2823 -19.2722 -19.2571
   -19.2535 -19.2378 -19.2057 -19.2057 -19.1910 -19.1667 -19.1462 -19.1440
   -19.1246 -19.1237 -19.1061 -19.0865 -19.0705 -19.0687 -19.0643 -19.0418
   -19.0326 -19.0199 -18.9876 -18.9816 -18.9670 -18.9560 -18.9490 -18.9374
   -18.9184 -18.9142 -18.8971 -18.8636 -18.8508 -18.8489 -18.8366 -18.8185
   -18.7951 -18.7932 -18.7736 -18.7514 -18.7512 -18.7333 -18.7278 -18.7037
   -18.7015 -18.6855 -18.6759 -18.6718 -18.6711 -18.6598 -18.6541 -18.6534
   -18.6482 -18.6464 -18.6322 -18.6305 -18.6139 -18.6098 -18.6062 -18.6057
   -18.5990 -18.5936 -18.5889 -18.5808 -18.5721 -18.5651 -18.5637 -18.5578
   -18.5477 -18.5388 -18.5372 -18.5204 -18.5202 -18.5181 -18.5156 -18.5100
   -18.5047 -18.4956 -18.4919 -18.4803 -18.4784 -18.4621 -18.4604 -18.4202
   -18.4182 -16.7126 -16.7114 -16.7114  11.4118  11.4160  12.5528  12.5531
    12.5572  16.3407  17.1885  18.0150  18.0411  18.0529  18.0937  18.2994
    18.3149  18.3380  18.4851  18.5666  18.6248  18.6645  18.6671  18.6802
    18.7763  18.7851  18.8202  18.8604  18.8686  18.9580  19.0163  19.0205
    19.1046  19.1230  19.1702  19.2631  19.2959  19.3184  19.3851  19.4542
    19.5918  19.5965  19.6893  19.7087  19.7491  19.7794  19.8516  19.9109
    19.9626  19.9831  20.0502  20.0768  20.1043  20.1167  20.1469  20.2185
    20.2536  20.2919  20.3664  20.4042  20.4463  20.4848  20.5866  20.6095
    20.6145  20.6956  20.7300  20.7755  20.7826  20.8304  20.8474  20.8977
    20.9605  20.9700  21.0349  21.0547  21.0754  21.1488  21.1935  21.2314
    21.3423  21.3726  21.3988  21.4615  21.5085  21.6362  21.6862  21.6912
    21.7379  21.7383  21.7778  21.7869  21.8258  21.8557  21.8914  21.9646
    22.0025  22.0340  22.1702  22.1798  22.2020  22.3510  22.3696  22.3764
    22.4315  22.5891  22.5938  22.8008  22.8647  22.9648  22.9696  23.0513
    23.0600  23.1127  23.1468  23.1502  23.2169  23.2432  23.3242  23.3257
    23.3945  23.3947  23.4269  23.4377  23.4722  23.4972  23.5157  23.5781
    23.5921  23.6745  23.6843  23.7298  23.8414  23.8459  23.8637  23.9183
    23.9709  24.1199  24.2111  24.2302  24.2810  24.3506  24.5287  24.5875
    24.6337  24.7095  24.7376  24.7958  24.8375  24.8793  24.9121  24.9326
    24.9524  24.9902  25.0882  25.1226  25.1628  25.1859  25.2111  25.2836
    25.3042  25.4114  25.4221  25.4585  25.4740  25.4742  25.5884  25.6800
    25.7061  25.9144  25.9757  26.1632  26.1987  26.2017  26.3839  26.4071
    26.5365  26.8979  26.9246  27.0829  27.4498  27.5630  27.6123  28.0140
    28.4094  28.4251  28.6482  29.0002  29.0463

          k = 0.0556 0.0556-0.5000 ( 30178 PWs)   bands (ev):

   -56.9279 -50.1950 -50.1950 -50.1950 -48.9381 -48.9160 -48.8668 -48.8549
   -48.8497 -48.8349 -48.8310 -48.8298 -48.8240 -48.8212 -48.8153 -48.8135
   -48.8030 -48.8016 -48.7862 -48.7833 -48.7829 -48.7774 -48.7684 -48.7530
   -48.7502 -48.7501 -48.7419 -48.7311 -48.7311 -48.7297 -48.7278 -48.7277
   -48.3167 -28.7761 -28.7760 -28.7760 -19.9634 -19.8342 -19.8342 -19.8339
   -19.7427 -19.7393 -19.4331 -19.4323 -19.4306 -19.2677 -19.2553 -19.2472
   -19.2451 -19.2326 -19.2294 -19.1997 -19.1858 -19.1708 -19.1584 -19.1568
   -19.1534 -19.1330 -19.1107 -19.0876 -19.0692 -19.0680 -19.0661 -19.0402
   -19.0301 -19.0187 -18.9877 -18.9829 -18.9630 -18.9553 -18.9461 -18.9402
   -18.9222 -18.9187 -18.9060 -18.8523 -18.8513 -18.8389 -18.8381 -18.8323
   -18.7999 -18.7974 -18.7690 -18.7514 -18.7503 -18.7282 -18.7192 -18.6911
   -18.6890 -18.6711 -18.6700 -18.6613 -18.6581 -18.6456 -18.6435 -18.6430
   -18.6377 -18.6342 -18.6316 -18.6308 -18.6235 -18.6223 -18.6151 -18.6121
   -18.6096 -18.6084 -18.6032 -18.5792 -18.5756 -18.5705 -18.5691 -18.5470
   -18.5425 -18.5387 -18.5329 -18.5219 -18.5201 -18.5189 -18.5184 -18.5131
   -18.5103 -18.5035 -18.4927 -18.4925 -18.4804 -18.4502 -18.4476 -18.4303
   -18.4292 -16.7127 -16.7113 -16.7113  11.4115  11.4162  12.5530  12.5533
    12.5578  16.4610  17.0363  18.0810  18.1120  18.1324  18.1384  18.3168
    18.3584  18.3676  18.5308  18.5966  18.6122  18.6610  18.7195  18.7349
    18.7362  18.7453  18.7673  18.8164  18.8926  18.9405  18.9563  19.0044
    19.0198  19.0755  19.1541  19.1836  19.2040  19.2476  19.2674  19.4566
    19.5857  19.6101  19.7103  19.7122  19.7493  19.7673  19.8109  19.9114
    19.9178  19.9539  19.9752  20.0739  20.1171  20.1290  20.1555  20.1856
    20.1971  20.2619  20.3813  20.3818  20.4415  20.4745  20.6077  20.6080
    20.6721  20.7201  20.7766  20.8128  20.8136  20.8343  20.8485  20.9092
    20.9450  20.9626  20.9639  21.0235  21.0306  21.1594  21.2236  21.2506
    21.3239  21.4485  21.4792  21.5156  21.6047  21.6093  21.6665  21.6665
    21.6935  21.7935  21.8310  21.8584  21.8672  21.8700  21.8883  21.8975
    21.9442  21.9679  22.0846  22.1215  22.3642  22.3885  22.5296  22.5382
    22.5953  22.7185  22.7265  22.7963  22.7967  22.9238  22.9612  22.9822
    23.0072  23.0192  23.0948  23.1444  23.2203  23.2763  23.2970  23.3264
    23.3402  23.3743  23.3979  23.4140  23.4228  23.4569  23.4686  23.4877
    23.4892  23.6497  23.6627  23.7242  23.7330  23.7979  23.9290  23.9347
    24.0138  24.0678  24.3220  24.3935  24.4363  24.4517  24.6383  24.7071
    24.7458  24.7558  24.8313  24.8830  24.8841  24.9469  24.9806  24.9977
    25.0184  25.0469  25.0843  25.1248  25.1281  25.1443  25.1531  25.1678
    25.3387  25.3668  25.4588  25.4653  25.4853  25.5560  25.5597  25.6055
    25.6811  25.7527  25.8698  25.9075  25.9337  25.9830  26.1971  26.1989
    26.7092  26.8327  27.0717  27.1757  27.4818  27.4857  27.7067  27.8493
    28.4273  28.4521  28.6814  29.0114  29.0559

          k = 0.0556 0.1667 0.1667 ( 30215 PWs)   bands (ev):

   -56.9279 -50.1950 -50.1950 -50.1950 -48.9521 -48.8852 -48.8789 -48.8600
   -48.8485 -48.8390 -48.8280 -48.8236 -48.8201 -48.8159 -48.8141 -48.8118
   -48.8106 -48.7999 -48.7914 -48.7900 -48.7883 -48.7772 -48.7760 -48.7510
   -48.7497 -48.7495 -48.7347 -48.7330 -48.7319 -48.7272 -48.7266 -48.7264
   -48.3169 -28.7761 -28.7761 -28.7760 -19.9680 -19.8363 -19.8363 -19.8361
   -19.7442 -19.7434 -19.4250 -19.4242 -19.4171 -19.3193 -19.2891 -19.2871
   -19.2824 -19.2383 -19.2292 -19.2248 -19.1230 -19.1211 -19.1154 -19.1071
   -19.1035 -19.0921 -19.0826 -19.0789 -19.0713 -19.0616 -19.0565 -19.0436
   -19.0404 -19.0236 -19.0088 -18.9781 -18.9637 -18.9627 -18.9494 -18.9370
   -18.9072 -18.9055 -18.8873 -18.8655 -18.8414 -18.8279 -18.8253 -18.8107
   -18.7867 -18.7845 -18.7714 -18.7662 -18.7573 -18.7437 -18.7436 -18.7393
   -18.7390 -18.7317 -18.7311 -18.7221 -18.7081 -18.7076 -18.6845 -18.6831
   -18.6768 -18.6359 -18.6268 -18.6189 -18.6098 -18.6026 -18.5994 -18.5988
   -18.5965 -18.5745 -18.5680 -18.5665 -18.5497 -18.5448 -18.5389 -18.5386
   -18.5320 -18.5299 -18.5285 -18.5281 -18.5205 -18.5195 -18.5182 -18.5103
   -18.5064 -18.5052 -18.4933 -18.4891 -18.4852 -18.4706 -18.4341 -18.4022
   -18.3949 -16.7121 -16.7117 -16.7116  11.4135  11.4144  12.5520  12.5531
    12.5545  16.0782  17.5784  17.8346  17.8679  17.8817  18.1402  18.1594
    18.1627  18.2097  18.2876  18.4036  18.4734  18.4955  18.6073  18.7088
    18.7811  18.7881  18.9607  19.0431  19.0459  19.1104  19.1437  19.1670
    19.2359  19.3819  19.3826  19.4218  19.4963  19.5571  19.5710  19.6244
    19.6493  19.7013  19.7110  19.7432  19.7791  19.8748  19.8864  19.9305
    19.9342  19.9878  20.0228  20.1194  20.1363  20.2172  20.2274  20.3000
    20.3150  20.3693  20.3799  20.4215  20.4754  20.4805  20.5561  20.5775
    20.6874  20.7353  20.7637  20.7909  20.8087  20.8277  20.8920  20.9002
    20.9306  20.9865  21.0268  21.0291  21.1076  21.1428  21.1916  21.2231
    21.2514  21.3043  21.3045  21.3215  21.3506  21.3706  21.3794  21.4376
    21.4390  21.5718  21.6000  21.6428  21.7202  21.7221  21.8380  21.9740
    22.0906  22.1433  22.1624  22.2342  22.2649  22.3509  22.4245  22.5228
    22.6092  22.6936  22.7003  22.7705  22.7812  22.8058  22.8477  22.9003
    22.9081  22.9943  23.0348  23.0902  23.1268  23.2118  23.2603  23.3067
    23.3187  23.3511  23.4614  23.4696  23.5943  23.6089  23.6683  23.7128
    23.7133  23.7366  23.7683  23.7952  23.8157  23.8568  23.9314  23.9897
    24.0092  24.0699  24.0978  24.1062  24.1910  24.2159  24.2675  24.3108
    24.3291  24.3774  24.3969  24.4322  24.5721  24.6518  24.7859  24.8215
    24.8800  24.9709  25.0208  25.1300  25.1452  25.2394  25.2674  25.3725
    25.5371  25.5988  25.6182  25.7186  25.7705  25.7845  25.9046  25.9049
    25.9231  26.0797  26.0797  26.1064  26.1897  26.4273  26.6113  26.7635
    26.8874  26.9279  27.2531  27.3394  27.5668  27.7167  27.8207  27.9746
    28.2787  28.4063  28.4275  28.7284  28.8767

          k = 0.0556 0.1667 0.2778 ( 30157 PWs)   bands (ev):

   -56.9279 -50.1950 -50.1950 -50.1950 -48.9468 -48.8963 -48.8790 -48.8589
   -48.8475 -48.8350 -48.8330 -48.8262 -48.8207 -48.8172 -48.8146 -48.8106
   -48.8075 -48.7979 -48.7908 -48.7872 -48.7856 -48.7761 -48.7728 -48.7523
   -48.7500 -48.7496 -48.7374 -48.7330 -48.7316 -48.7286 -48.7272 -48.7270
   -48.3168 -28.7760 -28.7760 -28.7760 -19.9657 -19.8350 -19.8350 -19.8347
   -19.7435 -19.7416 -19.4307 -19.4299 -19.4216 -19.3026 -19.2788 -19.2710
   -19.2634 -19.2327 -19.2196 -19.2147 -19.1557 -19.1456 -19.1354 -19.1219
   -19.1129 -19.1039 -19.0986 -19.0854 -19.0790 -19.0709 -19.0649 -19.0553
   -19.0458 -19.0337 -19.0133 -18.9723 -18.9662 -18.9551 -18.9495 -18.9302
   -18.9085 -18.8929 -18.8821 -18.8585 -18.8444 -18.8340 -18.8183 -18.8067
   -18.7986 -18.7850 -18.7751 -18.7616 -18.7428 -18.7392 -18.7329 -18.7290
   -18.7245 -18.7183 -18.7137 -18.7031 -18.6850 -18.6788 -18.6642 -18.6613
   -18.6553 -18.6454 -18.6331 -18.6219 -18.6132 -18.6087 -18.6019 -18.5964
   -18.5947 -18.5845 -18.5769 -18.5732 -18.5698 -18.5628 -18.5523 -18.5470
   -18.5409 -18.5359 -18.5328 -18.5290 -18.5245 -18.5225 -18.5185 -18.5110
   -18.5037 -18.4968 -18.4848 -18.4831 -18.4716 -18.4642 -18.4624 -18.4118
   -18.3999 -16.7123 -16.7116 -16.7115  11.4127  11.4148  12.5525  12.5541
    12.5565  16.2214  17.4713  17.9127  17.9601  17.9754  18.0745  18.2318
    18.2505  18.2556  18.3968  18.4856  18.5353  18.5731  18.6721  18.7179
    18.7862  18.8514  18.8726  18.9013  18.9910  19.0217  19.0727  19.0935
    19.1234  19.2142  19.2430  19.3039  19.4040  19.4269  19.4522  19.5170
    19.5595  19.5849  19.6283  19.6720  19.7244  19.7600  19.8143  19.8814
    19.9269  20.0085  20.0202  20.0725  20.1103  20.1687  20.1975  20.2420
    20.2720  20.3214  20.3765  20.3846  20.4526  20.4933  20.5271  20.5889
    20.6377  20.7178  20.7717  20.8591  20.8973  20.9161  20.9645  20.9873
    21.0206  21.0573  21.0866  21.1312  21.1491  21.1807  21.2325  21.2672
    21.2979  21.3362  21.3642  21.4019  21.4280  21.4880  21.5281  21.5909
    21.6647  21.6831  21.7292  21.7507  21.7800  21.8136  21.8503  21.8938
    22.0461  22.1038  22.1299  22.2019  22.2682  22.3266  22.3362  22.4109
    22.4610  22.5493  22.6298  22.6988  22.7247  22.7646  22.7996  22.8385
    22.9244  22.9839  23.0327  23.1336  23.1417  23.1885  23.2620  23.3042
    23.3569  23.4077  23.4456  23.4819  23.5100  23.5849  23.6282  23.6633
    23.7117  23.7954  23.8381  23.8779  23.9150  23.9541  23.9829  24.0369
    24.0704  24.0955  24.1553  24.1786  24.2181  24.3007  24.3374  24.4180
    24.4637  24.5308  24.5784  24.6057  24.6542  24.6959  24.7334  24.8413
    24.9156  24.9925  25.0256  25.0774  25.1567  25.2266  25.3066  25.3547
    25.4157  25.4451  25.5098  25.6266  25.6414  25.7111  25.7338  25.7764
    25.8751  25.9001  25.9981  26.0653  26.0808  26.3373  26.3713  26.6750
    26.8310  27.0583  27.2101  27.3248  27.3809  27.4429  28.0757  28.2136
    28.3023  28.4617  28.7262  28.8099  29.0385

          k = 0.0556 0.1667 0.3889 ( 30138 PWs)   bands (ev):

   -56.9279 -50.1950 -50.1950 -50.1950 -48.9399 -48.9081 -48.8771 -48.8576
   -48.8474 -48.8371 -48.8339 -48.8274 -48.8208 -48.8189 -48.8148 -48.8111
   -48.8041 -48.7976 -48.7875 -48.7846 -48.7833 -48.7761 -48.7699 -48.7535
   -48.7502 -48.7497 -48.7405 -48.7326 -48.7313 -48.7300 -48.7279 -48.7276
   -48.3167 -28.7760 -28.7760 -28.7760 -19.9637 -19.8339 -19.8338 -19.8335
   -19.7429 -19.7400 -19.4359 -19.4325 -19.4272 -19.2796 -19.2662 -19.2522
   -19.2415 -19.2301 -19.2056 -19.2023 -19.1893 -19.1681 -19.1548 -19.1448
   -19.1327 -19.1279 -19.1126 -19.1017 -19.0815 -19.0723 -19.0666 -19.0580
   -19.0430 -19.0316 -19.0198 -18.9771 -18.9604 -18.9566 -18.9420 -18.9266
   -18.8969 -18.8923 -18.8780 -18.8541 -18.8466 -18.8416 -18.8256 -18.8206
   -18.7988 -18.7883 -18.7737 -18.7528 -18.7417 -18.7320 -18.7150 -18.7089
   -18.7023 -18.6986 -18.6902 -18.6800 -18.6639 -18.6615 -18.6564 -18.6488
   -18.6399 -18.6372 -18.6283 -18.6245 -18.6206 -18.6148 -18.6061 -18.6031
   -18.5984 -18.5941 -18.5889 -18.5838 -18.5777 -18.5715 -18.5651 -18.5574
   -18.5520 -18.5407 -18.5387 -18.5306 -18.5272 -18.5246 -18.5202 -18.5129
   -18.5037 -18.4997 -18.4936 -18.4761 -18.4691 -18.4608 -18.4507 -18.4249
   -18.4109 -16.7125 -16.7115 -16.7114  11.4119  11.4152  12.5529  12.5550
    12.5583  16.4044  17.2491  18.0169  18.0351  18.0815  18.1235  18.3102
    18.3557  18.3683  18.5329  18.5768  18.6031  18.6551  18.6819  18.6943
    18.7276  18.7870  18.8213  18.8637  18.8927  18.9321  18.9815  19.0038
    19.0179  19.0657  19.1482  19.1951  19.2777  19.3014  19.3339  19.4417
    19.4829  19.5116  19.6045  19.6552  19.6909  19.7589  19.8268  19.8620
    19.8986  19.9415  19.9699  20.0179  20.0797  20.1139  20.1397  20.1966
    20.2125  20.2514  20.3582  20.4059  20.4903  20.5371  20.5863  20.6267
    20.6596  20.7043  20.7944  20.8436  20.8860  20.9157  20.9495  20.9802
    21.0329  21.0709  21.1016  21.1271  21.1685  21.2314  21.2771  21.3033
    21.3494  21.4418  21.4681  21.5368  21.5660  21.6342  21.6740  21.6912
    21.7162  21.7487  21.7804  21.8102  21.8338  21.8567  21.9243  21.9853
    22.0430  22.1249  22.1411  22.1697  22.2253  22.2722  22.3235  22.3646
    22.4327  22.5505  22.5934  22.6851  22.7183  22.7781  22.8064  22.8520
    22.9392  22.9494  22.9672  23.0205  23.0879  23.1599  23.1995  23.2313
    23.3089  23.3829  23.4023  23.4632  23.5135  23.5606  23.6029  23.6484
    23.6657  23.7321  23.7619  23.8380  23.9620  23.9996  24.0231  24.0492
    24.1204  24.1610  24.1875  24.2419  24.2912  24.3482  24.4135  24.5030
    24.6452  24.7281  24.7688  24.7846  24.8290  24.8667  24.9095  24.9324
    24.9496  24.9994  25.0377  25.1021  25.1436  25.1916  25.2112  25.2934
    25.4165  25.4313  25.4529  25.4820  25.5552  25.5723  25.6079  25.6761
    25.7193  25.8499  25.9227  26.0549  26.0786  26.1274  26.3391  26.5277
    26.6034  26.7652  26.9190  27.0579  27.5425  27.8215  28.0171  28.3254
    28.3854  28.4509  28.7750  28.9892  29.1315

          k = 0.0556 0.1667-0.5000 ( 30170 PWs)   bands (ev):

   -56.9279 -50.1950 -50.1950 -50.1950 -48.9356 -48.9142 -48.8761 -48.8571
   -48.8476 -48.8381 -48.8345 -48.8275 -48.8207 -48.8196 -48.8148 -48.8114
   -48.8028 -48.7980 -48.7845 -48.7836 -48.7828 -48.7768 -48.7687 -48.7541
   -48.7503 -48.7497 -48.7420 -48.7323 -48.7311 -48.7307 -48.7281 -48.7279
   -48.3167 -28.7760 -28.7760 -28.7760 -19.9629 -19.8335 -19.8333 -19.8331
   -19.7427 -19.7394 -19.4379 -19.4323 -19.4307 -19.2645 -19.2546 -19.2451
   -19.2363 -19.2247 -19.2136 -19.2010 -19.1794 -19.1739 -19.1676 -19.1596
   -19.1512 -19.1449 -19.1161 -19.1041 -19.0816 -19.0748 -19.0643 -19.0566
   -19.0424 -19.0322 -19.0209 -18.9783 -18.9622 -18.9596 -18.9379 -18.9149
   -18.9005 -18.8891 -18.8804 -18.8494 -18.8486 -18.8404 -18.8313 -18.8255
   -18.8058 -18.7926 -18.7687 -18.7505 -18.7405 -18.7252 -18.7072 -18.6955
   -18.6947 -18.6861 -18.6727 -18.6660 -18.6590 -18.6568 -18.6538 -18.6504
   -18.6457 -18.6370 -18.6328 -18.6278 -18.6169 -18.6154 -18.6065 -18.6060
   -18.5995 -18.5978 -18.5913 -18.5810 -18.5769 -18.5736 -18.5710 -18.5590
   -18.5534 -18.5449 -18.5417 -18.5371 -18.5312 -18.5255 -18.5250 -18.5177
   -18.5124 -18.4998 -18.4958 -18.4704 -18.4676 -18.4515 -18.4416 -18.4308
   -18.4225 -16.7126 -16.7114 -16.7114  11.4115  11.4154  12.5530  12.5554
    12.5590  16.5172  17.1095  18.0425  18.1270  18.1480  18.1628  18.3297
    18.4022  18.4189  18.5478  18.5987  18.6416  18.6662  18.6847  18.7141
    18.7706  18.7812  18.7995  18.8142  18.8183  18.8615  18.9367  18.9659
    18.9872  19.0257  19.0909  19.1222  19.2163  19.2397  19.2956  19.3812
    19.4959  19.5613  19.6120  19.6488  19.7062  19.7317  19.7645  19.8144
    19.8985  19.9556  19.9832  20.0041  20.0281  20.0896  20.0954  20.1813
    20.1983  20.2761  20.3160  20.3762  20.4551  20.5647  20.6620  20.6902
    20.7047  20.7684  20.7875  20.8231  20.8542  20.8814  20.9195  20.9603
    20.9923  21.0600  21.0873  21.1606  21.1986  21.2653  21.2773  21.3366
    21.3696  21.4578  21.5033  21.5922  21.6157  21.6459  21.6557  21.7299
    21.7650  21.7916  21.8439  21.8567  21.8889  21.8960  21.9110  21.9328
    22.0173  22.0391  22.0827  22.2126  22.2602  22.3296  22.4093  22.4430
    22.5709  22.6121  22.6347  22.6908  22.7231  22.7263  22.7502  22.8366
    22.8397  22.8773  22.9676  23.0086  23.0268  23.1009  23.1973  23.2345
    23.2616  23.3130  23.3524  23.4228  23.4517  23.5207  23.6049  23.6302
    23.6822  23.7117  23.7481  23.8029  23.9769  24.0331  24.0451  24.0698
    24.1111  24.1306  24.1844  24.3164  24.3768  24.4378  24.5291  24.6099
    24.6845  24.7299  24.7728  24.8147  24.8735  24.9684  24.9989  25.0186
    25.0578  25.0901  25.1154  25.1512  25.1691  25.2062  25.2167  25.2240
    25.2395  25.2495  25.3605  25.4054  25.4444  25.4936  25.5458  25.6288
    25.8461  25.8645  26.0591  26.0772  26.1221  26.1864  26.3214  26.3590
    26.4078  26.4667  26.7798  26.9460  27.7635  27.8346  28.1450  28.2217
    28.3775  28.4674  28.7947  29.0174  29.1552

          k = 0.0556 0.2778 0.2778 ( 30150 PWs)   bands (ev):

   -56.9279 -50.1950 -50.1950 -50.1950 -48.9417 -48.8964 -48.8891 -48.8586
   -48.8478 -48.8377 -48.8327 -48.8282 -48.8197 -48.8181 -48.8134 -48.8072
   -48.8065 -48.7947 -48.7883 -48.7871 -48.7838 -48.7744 -48.7721 -48.7539
   -48.7503 -48.7493 -48.7386 -48.7343 -48.7314 -48.7301 -48.7278 -48.7275
   -48.3167 -28.7760 -28.7760 -28.7760 -19.9641 -19.8338 -19.8336 -19.8335
   -19.7431 -19.7407 -19.4373 -19.4327 -19.4239 -19.2899 -19.2679 -19.2575
   -19.2445 -19.2200 -19.2181 -19.2064 -19.1674 -19.1616 -19.1537 -19.1294
   -19.1260 -19.1214 -19.1063 -19.0960 -19.0874 -19.0866 -19.0733 -19.0648
   -19.0504 -19.0487 -19.0345 -18.9752 -18.9555 -18.9517 -18.9383 -18.9236
   -18.9104 -18.8701 -18.8689 -18.8439 -18.8415 -18.8248 -18.8158 -18.8037
   -18.7884 -18.7760 -18.7699 -18.7622 -18.7514 -18.7344 -18.7240 -18.7232
   -18.7167 -18.7133 -18.7080 -18.7033 -18.6678 -18.6641 -18.6631 -18.6514
   -18.6488 -18.6383 -18.6322 -18.6232 -18.6162 -18.6115 -18.6023 -18.5988
   -18.5950 -18.5920 -18.5888 -18.5809 -18.5756 -18.5743 -18.5564 -18.5543
   -18.5458 -18.5413 -18.5389 -18.5382 -18.5249 -18.5218 -18.5178 -18.5116
   -18.5037 -18.5025 -18.4890 -18.4862 -18.4697 -18.4553 -18.4531 -18.4217
   -18.3993 -16.7124 -16.7116 -16.7115  11.4125  11.4142  12.5527  12.5562
    12.5584  16.3550  17.4794  17.9349  17.9707  18.0342  18.0956  18.2567
    18.3243  18.3356  18.4670  18.5108  18.6127  18.6251  18.7308  18.7602
    18.7695  18.8188  18.8265  18.8843  18.8949  18.9159  18.9984  19.0183
    19.0394  19.1599  19.1831  19.2506  19.3051  19.3663  19.3929  19.4339
    19.4763  19.4945  19.5117  19.6044  19.6077  19.6798  19.7317  19.7708
    19.8666  19.8807  19.9851  19.9920  20.0787  20.1098  20.1662  20.2097
    20.3072  20.3196  20.3647  20.4056  20.4144  20.5086  20.5586  20.6739
    20.7630  20.8139  20.8799  20.8916  20.9410  21.0009  21.0512  21.0684
    21.0885  21.1087  21.1407  21.1832  21.2111  21.2385  21.2675  21.3263
    21.3415  21.4472  21.4610  21.5506  21.5639  21.5800  21.6653  21.6686
    21.6891  21.7535  21.7587  21.7760  21.7910  21.8274  21.8327  22.0477
    22.0657  22.1027  22.1361  22.1543  22.1660  22.2368  22.3449  22.4051
    22.4406  22.5410  22.5493  22.6293  22.6489  22.6904  22.7091  22.7585
    22.7766  22.8658  22.8825  22.9500  23.0307  23.0363  23.1465  23.2114
    23.2835  23.2906  23.3036  23.4678  23.5283  23.6080  23.6325  23.7463
    23.7968  23.8950  23.9009  23.9618  23.9711  24.0399  24.1070  24.1210
    24.1458  24.1684  24.2188  24.2433  24.3445  24.3817  24.3859  24.4061
    24.4616  24.6276  24.6641  24.7061  24.7542  24.7918  24.8644  24.8687
    24.8916  24.9770  25.0148  25.0629  25.0882  25.2142  25.3062  25.4025
    25.4383  25.5087  25.6047  25.6103  25.6467  25.6627  25.6952  25.7445
    25.7457  25.8408  25.8643  25.8652  25.9342  26.1860  26.2289  26.3191
    26.6686  26.8197  27.4544  27.6196  27.7786  27.8810  28.0041  28.1879
    28.4308  28.6888  28.7153  28.9531  29.0507

          k = 0.0556 0.2778 0.3889 ( 30193 PWs)   bands (ev):

   -56.9279 -50.1950 -50.1950 -50.1950 -48.9350 -48.9053 -48.8892 -48.8593
   -48.8493 -48.8385 -48.8339 -48.8294 -48.8203 -48.8188 -48.8112 -48.8063
   -48.8039 -48.7934 -48.7859 -48.7848 -48.7818 -48.7746 -48.7703 -48.7558
   -48.7502 -48.7488 -48.7412 -48.7344 -48.7318 -48.7312 -48.7282 -48.7279
   -48.3166 -28.7760 -28.7760 -28.7760 -19.9626 -19.8328 -19.8325 -19.8323
   -19.7430 -19.7396 -19.4428 -19.4335 -19.4279 -19.2715 -19.2570 -19.2394
   -19.2245 -19.2172 -19.2038 -19.1989 -19.1857 -19.1782 -19.1672 -19.1479
   -19.1446 -19.1346 -19.1207 -19.1106 -19.1026 -19.0841 -19.0771 -19.0694
   -19.0606 -19.0513 -19.0417 -18.9771 -18.9627 -18.9475 -18.9371 -18.9053
   -18.8936 -18.8676 -18.8489 -18.8445 -18.8347 -18.8284 -18.8178 -18.7994
   -18.7894 -18.7834 -18.7701 -18.7519 -18.7429 -18.7238 -18.7201 -18.7093
   -18.7064 -18.6985 -18.6967 -18.6919 -18.6663 -18.6567 -18.6544 -18.6488
   -18.6450 -18.6389 -18.6330 -18.6268 -18.6234 -18.6144 -18.6093 -18.6031
   -18.5989 -18.5935 -18.5869 -18.5811 -18.5782 -18.5728 -18.5672 -18.5590
   -18.5529 -18.5499 -18.5411 -18.5386 -18.5364 -18.5284 -18.5236 -18.5198
   -18.5134 -18.5026 -18.4966 -18.4765 -18.4587 -18.4483 -18.4382 -18.4332
   -18.4051 -16.7125 -16.7116 -16.7115  11.4119  11.4142  12.5529  12.5581
    12.5601  16.5215  17.3589  17.8989  18.0603  18.1264  18.1829  18.3349
    18.4130  18.4289  18.4865  18.5919  18.6223  18.6737  18.6898  18.7251
    18.7632  18.7863  18.8075  18.8323  18.8596  18.9046  18.9476  18.9576
    18.9920  19.0735  19.1129  19.2027  19.2331  19.2685  19.3191  19.3513
    19.3745  19.3991  19.4855  19.5167  19.5611  19.6392  19.6989  19.7215
    19.7901  19.8499  19.8642  19.9402  19.9868  20.0901  20.1176  20.2004
    20.2661  20.3593  20.4098  20.4683  20.4963  20.5245  20.6043  20.6670
    20.7349  20.7996  20.8384  20.9041  20.9576  21.0061  21.0557  21.0974
    21.1295  21.2215  21.2410  21.2844  21.3032  21.3510  21.4005  21.4081
    21.4497  21.4991  21.5439  21.5651  21.6454  21.6598  21.7109  21.7300
    21.7489  21.7792  21.8251  21.8445  21.8974  21.9654  21.9933  22.0059
    22.0554  22.0950  22.1284  22.1786  22.2000  22.2704  22.2813  22.3382
    22.3882  22.4272  22.4630  22.5348  22.5655  22.5775  22.6400  22.6971
    22.7224  22.7782  22.8235  22.8603  22.9212  23.0070  23.0327  23.1376
    23.1957  23.2799  23.3245  23.3365  23.4294  23.5137  23.5800  23.6738
    23.7349  23.7710  23.9251  23.9718  24.0387  24.0972  24.1324  24.1796
    24.2021  24.2390  24.3497  24.3947  24.4435  24.4464  24.5044  24.6012
    24.6483  24.7018  24.7393  24.7917  24.8367  24.8582  24.9465  24.9936
    25.0267  25.0548  25.0937  25.1139  25.1656  25.2121  25.2331  25.2894
    25.3253  25.3698  25.4620  25.4893  25.5040  25.5409  25.5796  25.6261
    25.7456  25.8109  25.8602  25.8795  26.0744  26.1806  26.2762  26.3084
    26.3795  26.6400  27.1974  27.4896  27.9386  28.1321  28.3108  28.3635
    28.4438  28.7028  28.9579  29.0195  29.2933

          k = 0.0556 0.2778-0.5000 ( 30164 PWs)   bands (ev):

   -56.9279 -50.1950 -50.1950 -50.1950 -48.9307 -48.9110 -48.8881 -48.8601
   -48.8495 -48.8385 -48.8350 -48.8296 -48.8210 -48.8188 -48.8105 -48.8060
   -48.8027 -48.7933 -48.7848 -48.7831 -48.7806 -48.7756 -48.7693 -48.7567
   -48.7501 -48.7486 -48.7426 -48.7342 -48.7327 -48.7311 -48.7284 -48.7282
   -48.3166 -28.7760 -28.7760 -28.7760 -19.9621 -19.8324 -19.8320 -19.8319
   -19.7430 -19.7392 -19.4449 -19.4321 -19.4312 -19.2577 -19.2491 -19.2363
   -19.2237 -19.2102 -19.2006 -19.1926 -19.1839 -19.1782 -19.1757 -19.1665
   -19.1563 -19.1458 -19.1280 -19.1123 -19.1050 -19.0892 -19.0755 -19.0704
   -19.0612 -19.0578 -19.0384 -18.9777 -18.9672 -18.9473 -18.9370 -18.9003
   -18.8777 -18.8662 -18.8440 -18.8389 -18.8385 -18.8245 -18.8207 -18.8087
   -18.8010 -18.7845 -18.7665 -18.7427 -18.7340 -18.7232 -18.7195 -18.7020
   -18.6938 -18.6893 -18.6829 -18.6766 -18.6714 -18.6670 -18.6639 -18.6571
   -18.6495 -18.6425 -18.6284 -18.6247 -18.6162 -18.6123 -18.6077 -18.6018
   -18.5977 -18.5948 -18.5888 -18.5814 -18.5787 -18.5770 -18.5680 -18.5614
   -18.5582 -18.5505 -18.5499 -18.5445 -18.5368 -18.5304 -18.5274 -18.5205
   -18.5168 -18.5038 -18.4992 -18.4641 -18.4547 -18.4479 -18.4459 -18.4223
   -18.4138 -16.7126 -16.7115 -16.7115  11.4116  11.4142  12.5529  12.5588
    12.5608  16.6185  17.2526  17.9242  18.1419  18.1717  18.1908  18.4126
    18.4195  18.4794  18.4918  18.5565  18.5896  18.6232  18.6643  18.7589
    18.7739  18.8168  18.8246  18.8536  18.8799  18.8934  18.9130  18.9472
    18.9887  19.0331  19.0728  19.1085  19.1434  19.2323  19.2680  19.3062
    19.3771  19.4369  19.4766  19.5023  19.5379  19.6125  19.6915  19.7226
    19.7542  19.7785  19.8314  19.9148  19.9651  20.0596  20.1040  20.2575
    20.2921  20.3542  20.4225  20.4866  20.4952  20.5626  20.5819  20.6361
    20.7522  20.7573  20.8356  20.8819  20.9181  21.0682  21.0776  21.1168
    21.1383  21.2204  21.2634  21.3030  21.3479  21.4005  21.4218  21.4678
    21.4945  21.5361  21.5621  21.6350  21.6669  21.6940  21.7717  21.8031
    21.8329  21.8542  21.8801  21.9176  21.9187  21.9272  21.9324  21.9871
    22.0191  22.0591  22.1217  22.1486  22.2015  22.2378  22.2707  22.3265
    22.3659  22.4462  22.4838  22.4887  22.5437  22.5889  22.6425  22.6745
    22.7171  22.7385  22.7992  22.8271  22.9123  22.9307  23.0330  23.0883
    23.1688  23.2306  23.2803  23.3293  23.3709  23.4609  23.4826  23.5403
    23.6851  23.8012  23.8965  24.0306  24.0888  24.0905  24.1668  24.2062
    24.2383  24.2909  24.3990  24.4754  24.5025  24.5475  24.5863  24.6098
    24.6695  24.7321  24.7824  24.8172  24.8758  24.9070  24.9987  25.0312
    25.0699  25.0873  25.1491  25.1669  25.1853  25.2302  25.2737  25.3169
    25.3323  25.3458  25.3665  25.3770  25.3908  25.4322  25.4831  25.5550
    25.7651  25.7697  25.8624  25.8729  25.8928  26.0170  26.3192  26.5121
    26.7368  26.7564  26.8759  27.0098  28.1299  28.1518  28.3069  28.4577
    28.5599  28.7451  29.0186  29.1443  29.3134

          k = 0.0556 0.3889 0.3889 ( 30175 PWs)   bands (ev):

   -56.9279 -50.1950 -50.1950 -50.1950 -48.9285 -48.9036 -48.8990 -48.8632
   -48.8497 -48.8378 -48.8342 -48.8323 -48.8206 -48.8204 -48.8057 -48.8036
   -48.8032 -48.7902 -48.7858 -48.7842 -48.7788 -48.7738 -48.7701 -48.7588
   -48.7498 -48.7477 -48.7430 -48.7355 -48.7337 -48.7311 -48.7284 -48.7283
   -48.3165 -28.7760 -28.7760 -28.7760 -19.9617 -19.8318 -19.8313 -19.8312
   -19.7433 -19.7391 -19.4485 -19.4334 -19.4298 -19.2575 -19.2466 -19.2224
   -19.2143 -19.2081 -19.1986 -19.1935 -19.1915 -19.1893 -19.1687 -19.1549
   -19.1485 -19.1451 -19.1385 -19.1181 -19.1099 -19.0999 -19.0926 -19.0756
   -19.0701 -19.0636 -19.0567 -18.9799 -18.9690 -18.9380 -18.9250 -18.9181
   -18.8715 -18.8549 -18.8345 -18.8265 -18.8214 -18.8187 -18.7927 -18.7880
   -18.7823 -18.7700 -18.7664 -18.7563 -18.7482 -18.7253 -18.7180 -18.7073
   -18.7043 -18.6970 -18.6945 -18.6857 -18.6707 -18.6700 -18.6636 -18.6568
   -18.6537 -18.6507 -18.6402 -18.6378 -18.6192 -18.6101 -18.6089 -18.6029
   -18.5979 -18.5924 -18.5824 -18.5798 -18.5760 -18.5757 -18.5660 -18.5660
   -18.5543 -18.5532 -18.5449 -18.5445 -18.5386 -18.5289 -18.5279 -18.5225
   -18.5106 -18.5066 -18.4964 -18.4861 -18.4547 -18.4405 -18.4391 -18.4232
   -18.4050 -16.7126 -16.7116 -16.7115  11.4116  11.4135  12.5529  12.5607
    12.5617  16.6598  17.4623  17.7513  18.0762  18.1587  18.2252  18.2868
    18.4455  18.5129  18.5203  18.5682  18.6419  18.6947  18.7190  18.7290
    18.7591  18.7824  18.8450  18.8472  18.8719  18.9174  18.9192  18.9672
    19.0228  19.0927  19.1207  19.1451  19.1483  19.2362  19.2550  19.3156
    19.3223  19.3278  19.3924  19.4004  19.4475  19.5111  19.5187  19.5743
    19.6666  19.7246  19.7891  19.9243  19.9723  20.0467  20.1290  20.2081
    20.3030  20.3584  20.4396  20.4752  20.5266  20.5707  20.6206  20.6664
    20.7866  20.8250  20.9374  20.9781  21.0309  21.1343  21.1746  21.2234
    21.2851  21.2936  21.2966  21.3636  21.4042  21.4304  21.4351  21.4889
    21.5114  21.5324  21.6458  21.6990  21.7301  21.7761  21.7807  21.8231
    21.8480  21.8574  21.8993  21.9340  21.9566  21.9698  22.0303  22.0552
    22.0732  22.0936  22.1258  22.1420  22.1557  22.2215  22.2480  22.2577
    22.3031  22.3092  22.3559  22.3946  22.3952  22.4624  22.5060  22.5730
    22.5979  22.6301  22.6989  22.7307  22.8153  22.8264  22.9925  23.0370
    23.1139  23.1359  23.1599  23.1842  23.3260  23.3624  23.5405  23.5587
    23.7540  23.8273  23.9243  24.0853  24.1168  24.2041  24.2477  24.2924
    24.2995  24.4267  24.4844  24.5265  24.5286  24.5849  24.6403  24.6692
    24.7241  24.7535  24.8442  24.8569  24.9164  24.9553  24.9879  25.0096
    25.0694  25.0889  25.1662  25.1815  25.2215  25.2491  25.2709  25.3180
    25.3479  25.3584  25.3740  25.4563  25.4620  25.5033  25.5080  25.5601
    25.5804  25.5977  25.6952  25.7017  25.7363  25.9423  26.1328  26.2086
    26.7368  26.9380  27.4189  27.9002  28.0786  28.1590  28.3114  28.4590
    28.8228  28.8372  28.9527  29.1550  29.2421

          k = 0.0556 0.3889-0.5000 ( 30172 PWs)   bands (ev):

   -56.9279 -50.1950 -50.1950 -50.1950 -48.9241 -48.9077 -48.8996 -48.8653
   -48.8493 -48.8371 -48.8351 -48.8330 -48.8213 -48.8205 -48.8043 -48.8026
   -48.8025 -48.7892 -48.7856 -48.7841 -48.7765 -48.7744 -48.7694 -48.7604
   -48.7492 -48.7471 -48.7444 -48.7356 -48.7347 -48.7311 -48.7285 -48.7284
   -48.3165 -28.7760 -28.7760 -28.7760 -19.9614 -19.8314 -19.8308 -19.8308
   -19.7434 -19.7389 -19.4506 -19.4321 -19.4319 -19.2458 -19.2395 -19.2262
   -19.2121 -19.2017 -19.1997 -19.1970 -19.1926 -19.1774 -19.1679 -19.1608
   -19.1569 -19.1510 -19.1352 -19.1283 -19.1190 -19.1034 -19.0914 -19.0801
   -19.0788 -19.0685 -19.0576 -18.9816 -18.9690 -18.9387 -18.9241 -18.9185
   -18.8643 -18.8513 -18.8278 -18.8165 -18.8137 -18.8003 -18.7952 -18.7886
   -18.7816 -18.7782 -18.7597 -18.7494 -18.7470 -18.7262 -18.7112 -18.7098
   -18.6999 -18.6953 -18.6930 -18.6828 -18.6774 -18.6765 -18.6677 -18.6577
   -18.6556 -18.6522 -18.6463 -18.6401 -18.6387 -18.6086 -18.6043 -18.6001
   -18.5958 -18.5894 -18.5841 -18.5807 -18.5773 -18.5744 -18.5733 -18.5609
   -18.5554 -18.5546 -18.5476 -18.5414 -18.5371 -18.5323 -18.5217 -18.5181
   -18.5178 -18.5079 -18.5046 -18.4758 -18.4669 -18.4368 -18.4365 -18.4153
   -18.4084 -16.7127 -16.7116 -16.7115  11.4115  11.4133  12.5529  12.5618
    12.5623  16.7332  17.4585  17.7629  18.0041  18.1994  18.2067  18.2823
    18.4390  18.5671  18.6038  18.6188  18.6300  18.6422  18.6649  18.7317
    18.7630  18.7823  18.8298  18.9150  18.9328  18.9541  18.9703  18.9978
    19.0095  19.0386  19.0485  19.1168  19.1547  19.1912  19.2286  19.2420
    19.2968  19.3464  19.3579  19.3967  19.4248  19.4348  19.4837  19.5426
    19.5819  19.6378  19.7494  19.9411  19.9896  20.0319  20.1170  20.1550
    20.3107  20.3559  20.4605  20.4795  20.5638  20.5991  20.6689  20.7442
    20.7540  20.8318  20.8489  21.0100  21.0488  21.1302  21.1813  21.2860
    21.3194  21.3457  21.3808  21.4203  21.4455  21.4687  21.5754  21.5892
    21.6274  21.6364  21.6609  21.6844  21.7147  21.7741  21.8163  21.8661
    21.8773  21.8794  21.9132  21.9560  21.9695  21.9890  22.0025  22.0068
    22.0383  22.0553  22.0616  22.1227  22.1450  22.2004  22.2384  22.2445
    22.2756  22.2938  22.3332  22.3590  22.3964  22.4802  22.4991  22.5399
    22.5751  22.5883  22.6896  22.7171  22.7870  22.8022  22.8353  22.8673
    22.9355  22.9973  23.0903  23.1271  23.3366  23.4139  23.5441  23.5676
    23.7509  23.8127  23.9576  24.0071  24.1892  24.2373  24.2693  24.3651
    24.3898  24.4861  24.5236  24.5555  24.5889  24.6146  24.6606  24.6767
    24.7633  24.8308  24.8897  24.8978  24.9645  25.0260  25.0480  25.0767
    25.1249  25.1441  25.2039  25.2271  25.2655  25.2722  25.2861  25.3153
    25.3204  25.3251  25.3942  25.4139  25.4318  25.4440  25.4586  25.4789
    25.5195  25.5775  25.6182  25.6297  25.6652  25.7225  25.9515  26.0963
    27.1724  27.1860  27.3932  27.6719  28.1360  28.2287  28.3669  28.4914
    28.8003  29.0358  29.1564  29.2627  29.3780

          k = 0.0556-0.5000-0.5000 ( 30184 PWs)   bands (ev):

   -56.9279 -50.1950 -50.1950 -50.1950 -48.9192 -48.9061 -48.9061 -48.8678
   -48.8487 -48.8358 -48.8351 -48.8351 -48.8213 -48.8213 -48.8029 -48.8014
   -48.8014 -48.7861 -48.7861 -48.7860 -48.7740 -48.7740 -48.7693 -48.7627
   -48.7478 -48.7464 -48.7464 -48.7360 -48.7357 -48.7311 -48.7285 -48.7285
   -48.3165 -28.7760 -28.7760 -28.7760 -19.9611 -19.8310 -19.8304 -19.8304
   -19.7437 -19.7387 -19.4528 -19.4322 -19.4322 -19.2333 -19.2333 -19.2232
   -19.2163 -19.2051 -19.2051 -19.2001 -19.1891 -19.1653 -19.1572 -19.1572
   -19.1549 -19.1524 -19.1524 -19.1365 -19.1245 -19.0992 -19.0992 -19.0943
   -19.0841 -19.0678 -19.0678 -18.9849 -18.9646 -18.9355 -18.9355 -18.9129
   -18.8611 -18.8486 -18.8166 -18.8086 -18.8086 -18.7791 -18.7791 -18.7724
   -18.7724 -18.7708 -18.7673 -18.7495 -18.7472 -18.7472 -18.7196 -18.7103
   -18.7014 -18.6872 -18.6871 -18.6775 -18.6770 -18.6770 -18.6736 -18.6686
   -18.6679 -18.6679 -18.6534 -18.6485 -18.6485 -18.6037 -18.6037 -18.5930
   -18.5930 -18.5916 -18.5888 -18.5826 -18.5725 -18.5704 -18.5704 -18.5590
   -18.5559 -18.5544 -18.5544 -18.5443 -18.5265 -18.5265 -18.5252 -18.5224
   -18.5200 -18.5067 -18.4873 -18.4856 -18.4856 -18.4321 -18.4321 -18.4130
   -18.4068 -16.7127 -16.7115 -16.7115  11.4113  11.4131  12.5529  12.5629
    12.5629  16.7903  17.6825  17.6825  17.7575  18.2168  18.2168  18.2764
    18.4240  18.6036  18.6478  18.6478  18.6808  18.7053  18.7053  18.7216
    18.7617  18.8070  18.8213  18.8520  18.8520  18.9605  18.9846  18.9846
    19.0060  19.1554  19.1554  19.1782  19.2029  19.2029  19.2102  19.2106
    19.2533  19.2659  19.2762  19.2762  19.2886  19.4005  19.4005  19.5366
    19.5366  19.5583  19.6729  19.9672  20.0131  20.0319  20.1688  20.1803
    20.1999  20.1999  20.4588  20.4588  20.6716  20.7003  20.7003  20.7149
    20.7620  20.9353  21.0374  21.0374  21.0389  21.2236  21.2236  21.2807
    21.3366  21.3464  21.4275  21.4275  21.4533  21.5485  21.5485  21.5692
    21.5813  21.7482  21.7482  21.7548  21.7632  21.8109  21.8109  21.8638
    21.8689  21.8689  21.9772  21.9841  22.0408  22.0408  22.0823  22.0823
    22.0915  22.1222  22.1378  22.1466  22.1466  22.1846  22.2056  22.2340
    22.2562  22.2562  22.2660  22.2838  22.3383  22.3383  22.3474  22.4881
    22.4904  22.4904  22.6446  22.6446  22.6700  22.6777  22.7029  22.7039
    22.9070  22.9070  23.0581  23.0698  23.3464  23.5431  23.5431  23.5599
    23.7891  23.7891  23.8267  24.0777  24.2763  24.2763  24.3114  24.3314
    24.4588  24.4588  24.5168  24.6468  24.6468  24.6500  24.6824  24.7328
    24.9032  24.9032  24.9572  24.9590  25.0935  25.1363  25.1460  25.1460
    25.2029  25.2029  25.2138  25.2163  25.2379  25.2379  25.2831  25.3010
    25.3344  25.3344  25.3627  25.3716  25.4587  25.4587  25.4605  25.4605
    25.4628  25.4787  25.5042  25.5121  25.5211  25.7168  25.7329  25.7329
    27.3987  27.3987  27.6761  28.0699  28.2285  28.3109  28.3109  28.3988
    28.5236  28.9155  29.0610  29.0610  29.4193

          k = 0.1667 0.1667 0.1667 ( 30217 PWs)   bands (ev):

   -56.9279 -50.1950 -50.1950 -50.1950 -48.9494 -48.8840 -48.8840 -48.8671
   -48.8398 -48.8398 -48.8295 -48.8252 -48.8252 -48.8128 -48.8128 -48.8113
   -48.8093 -48.7985 -48.7903 -48.7884 -48.7884 -48.7753 -48.7753 -48.7519
   -48.7497 -48.7497 -48.7351 -48.7329 -48.7329 -48.7278 -48.7270 -48.7270
   -48.3168 -28.7761 -28.7761 -28.7760 -19.9668 -19.8355 -19.8355 -19.8352
   -19.7432 -19.7432 -19.4285 -19.4285 -19.4181 -19.3120 -19.2818 -19.2818
   -19.2710 -19.2321 -19.2239 -19.2239 -19.1252 -19.1252 -19.1247 -19.1220
   -19.1220 -19.1127 -19.0797 -19.0797 -19.0709 -19.0645 -19.0645 -19.0529
   -19.0421 -19.0325 -19.0325 -18.9609 -18.9609 -18.9533 -18.9533 -18.9500
   -18.9026 -18.8895 -18.8672 -18.8672 -18.8334 -18.8334 -18.8317 -18.7875
   -18.7875 -18.7860 -18.7635 -18.7635 -18.7584 -18.7453 -18.7403 -18.7345
   -18.7345 -18.7254 -18.7254 -18.7152 -18.7131 -18.7131 -18.6658 -18.6647
   -18.6647 -18.6347 -18.6347 -18.6231 -18.6092 -18.6034 -18.6034 -18.5957
   -18.5957 -18.5768 -18.5768 -18.5759 -18.5517 -18.5483 -18.5483 -18.5413
   -18.5413 -18.5383 -18.5311 -18.5311 -18.5250 -18.5228 -18.5091 -18.5091
   -18.5042 -18.4966 -18.4966 -18.4798 -18.4798 -18.4650 -18.4543 -18.3996
   -18.3996 -16.7121 -16.7117 -16.7117  11.4138  11.4138  12.5523  12.5550
    12.5550  16.1515  17.5714  17.8576  17.9274  17.9274  18.1804  18.2059
    18.2059  18.2614  18.2614  18.3433  18.5185  18.5185  18.5944  18.7378
    18.8198  18.8198  18.9783  18.9783  19.0160  19.0247  19.1076  19.1076
    19.1907  19.3032  19.3032  19.4307  19.4307  19.4818  19.5520  19.6045
    19.6045  19.6168  19.6319  19.6319  19.7093  19.7093  19.8020  19.8782
    19.9499  19.9499  20.0408  20.0408  20.1165  20.1618  20.1618  20.1863
    20.3422  20.3987  20.3987  20.5216  20.5855  20.5874  20.5874  20.6953
    20.6953  20.7251  20.7732  20.7732  20.8483  20.8483  20.9117  20.9117
    20.9162  21.0622  21.0904  21.0904  21.1751  21.2391  21.2391  21.2776
    21.2952  21.3283  21.3283  21.3802  21.3802  21.4274  21.4334  21.4554
    21.4554  21.6021  21.6421  21.6421  21.7470  21.7470  21.9275  21.9275
    22.0641  22.1621  22.1621  22.1790  22.3124  22.3124  22.4014  22.4859
    22.5642  22.5642  22.6607  22.6797  22.6797  22.7924  22.8340  22.8340
    22.9030  23.0176  23.0176  23.1515  23.1515  23.1755  23.2853  23.3688
    23.3688  23.3995  23.4671  23.4671  23.5445  23.5445  23.5617  23.5857
    23.5857  23.6263  23.7380  23.7380  23.7521  23.9520  23.9779  23.9779
    24.1516  24.1516  24.2626  24.2673  24.2949  24.2949  24.3765  24.3765
    24.4435  24.4887  24.5500  24.6050  24.6050  24.7094  24.7094  24.8208
    24.8208  25.0125  25.0125  25.0454  25.2019  25.2223  25.2262  25.2262
    25.4329  25.4329  25.4475  25.5725  25.7590  25.7590  25.8605  25.8605
    25.8892  26.0317  26.0317  26.0413  26.2725  26.4042  26.4042  26.8418
    26.8513  26.8513  27.5373  27.5373  27.8408  27.8408  27.8609  27.9599
    28.1199  28.1199  28.4459  28.9916  28.9916

          k = 0.1667 0.1667 0.2778 ( 30175 PWs)   bands (ev):

   -56.9279 -50.1950 -50.1950 -50.1950 -48.9441 -48.8951 -48.8821 -48.8675
   -48.8422 -48.8380 -48.8321 -48.8287 -48.8225 -48.8128 -48.8128 -48.8091
   -48.8075 -48.7966 -48.7895 -48.7865 -48.7856 -48.7749 -48.7726 -48.7533
   -48.7499 -48.7496 -48.7374 -48.7331 -48.7327 -48.7291 -48.7278 -48.7276
   -48.3167 -28.7760 -28.7760 -28.7760 -19.9649 -19.8343 -19.8342 -19.8339
   -19.7430 -19.7417 -19.4336 -19.4328 -19.4223 -19.2971 -19.2727 -19.2686
   -19.2503 -19.2261 -19.2158 -19.2146 -19.1582 -19.1488 -19.1453 -19.1321
   -19.1243 -19.1203 -19.1004 -19.0883 -19.0819 -19.0816 -19.0637 -19.0580
   -19.0552 -19.0396 -19.0282 -18.9694 -18.9615 -18.9445 -18.9439 -18.9322
   -18.8980 -18.8783 -18.8684 -18.8585 -18.8387 -18.8293 -18.8163 -18.8010
   -18.7995 -18.7785 -18.7757 -18.7573 -18.7386 -18.7374 -18.7355 -18.7279
   -18.7219 -18.7136 -18.7065 -18.7007 -18.6960 -18.6947 -18.6549 -18.6527
   -18.6497 -18.6387 -18.6381 -18.6226 -18.6129 -18.6089 -18.6031 -18.5950
   -18.5939 -18.5868 -18.5837 -18.5822 -18.5739 -18.5651 -18.5619 -18.5474
   -18.5473 -18.5435 -18.5364 -18.5348 -18.5288 -18.5248 -18.5103 -18.5095
   -18.4966 -18.4883 -18.4859 -18.4760 -18.4744 -18.4721 -18.4588 -18.4086
   -18.4026 -16.7123 -16.7116 -16.7116  11.4127  11.4141  12.5533  12.5556
    12.5573  16.2896  17.4942  17.9209  18.0008  18.0132  18.0917  18.2677
    18.2923  18.2955  18.3583  18.4491  18.5754  18.6069  18.6627  18.7362
    18.7800  18.8560  18.8793  18.8920  18.9045  18.9693  19.0284  19.0905
    19.1178  19.1751  19.2000  19.2939  19.3875  19.4096  19.4400  19.4603
    19.4977  19.5053  19.5935  19.5989  19.6706  19.6856  19.7023  19.7208
    19.8999  19.9095  19.9894  20.0641  20.0646  20.1828  20.1923  20.2305
    20.3250  20.3565  20.3724  20.4373  20.5542  20.5555  20.6175  20.6215
    20.7176  20.7200  20.8293  20.8512  20.8957  20.9233  20.9586  21.0091
    21.0518  21.1059  21.1351  21.1576  21.1883  21.2265  21.2861  21.3364
    21.3365  21.4067  21.4098  21.4469  21.4789  21.5312  21.5431  21.6037
    21.6836  21.7039  21.7290  21.7754  21.7973  21.8328  21.8640  21.8959
    22.0288  22.0951  22.1760  22.1893  22.2518  22.3043  22.3515  22.3993
    22.4203  22.5140  22.5515  22.5988  22.6034  22.6860  22.8265  22.8267
    22.8899  22.9916  23.0703  23.0806  23.1948  23.2153  23.2813  23.2959
    23.3565  23.3832  23.4188  23.4446  23.4558  23.4719  23.5180  23.5411
    23.5917  23.6853  23.7238  23.8070  23.8726  23.9177  23.9682  24.0607
    24.0637  24.1621  24.1969  24.2821  24.3340  24.4596  24.4666  24.5093
    24.5296  24.6086  24.6177  24.6711  24.7615  24.7738  24.8488  24.8782
    24.9087  25.0155  25.0647  25.0747  25.2124  25.2298  25.2521  25.3275
    25.3490  25.3941  25.4661  25.5054  25.6627  25.6944  25.7028  25.7733
    25.7943  25.9232  25.9334  25.9550  26.0020  26.0134  26.2751  26.9336
    26.9975  27.1892  27.3301  27.5534  27.6184  27.7498  27.9090  28.1460
    28.1896  28.5269  28.5998  28.9456  29.1686

          k = 0.1667 0.1667 0.3889 ( 30171 PWs)   bands (ev):

   -56.9279 -50.1950 -50.1950 -50.1950 -48.9374 -48.9065 -48.8800 -48.8657
   -48.8455 -48.8415 -48.8318 -48.8297 -48.8197 -48.8137 -48.8131 -48.8097
   -48.8041 -48.7958 -48.7869 -48.7840 -48.7831 -48.7754 -48.7700 -48.7547
   -48.7502 -48.7494 -48.7405 -48.7326 -48.7324 -48.7305 -48.7285 -48.7280
   -48.3166 -28.7760 -28.7760 -28.7760 -19.9632 -19.8332 -19.8330 -19.8328
   -19.7428 -19.7403 -19.4379 -19.4346 -19.4278 -19.2757 -19.2611 -19.2528
   -19.2305 -19.2212 -19.2050 -19.2016 -19.1877 -19.1716 -19.1630 -19.1441
   -19.1418 -19.1267 -19.1180 -19.1144 -19.0946 -19.0889 -19.0704 -19.0580
   -19.0558 -19.0342 -19.0233 -18.9747 -18.9627 -18.9348 -18.9278 -18.9234
   -18.8905 -18.8805 -18.8638 -18.8528 -18.8405 -18.8361 -18.8271 -18.8112
   -18.7968 -18.7906 -18.7754 -18.7499 -18.7417 -18.7194 -18.7147 -18.7122
   -18.7081 -18.6957 -18.6866 -18.6794 -18.6719 -18.6677 -18.6587 -18.6550
   -18.6413 -18.6401 -18.6359 -18.6266 -18.6202 -18.6130 -18.6089 -18.6010
   -18.6006 -18.5928 -18.5921 -18.5822 -18.5776 -18.5765 -18.5683 -18.5563
   -18.5543 -18.5477 -18.5403 -18.5390 -18.5367 -18.5295 -18.5231 -18.5170
   -18.5042 -18.4899 -18.4787 -18.4729 -18.4646 -18.4538 -18.4511 -18.4208
   -18.4123 -16.7125 -16.7115 -16.7115  11.4118  11.4145  12.5542  12.5562
    12.5593  16.4642  17.3038  17.9848  18.0356  18.1195  18.1448  18.3472
    18.3893  18.3963  18.4864  18.5725  18.6097  18.6499  18.6941  18.7028
    18.7288  18.7643  18.7961  18.8501  18.8996  18.9211  18.9428  19.0009
    19.0189  19.0378  19.1590  19.2242  19.2260  19.2902  19.3207  19.3403
    19.4530  19.4753  19.5529  19.5829  19.6524  19.6646  19.7249  19.7291
    19.8696  19.8739  19.9333  20.0276  20.0519  20.0766  20.1783  20.2183
    20.2619  20.2982  20.3643  20.4941  20.5268  20.5630  20.6185  20.6587
    20.7066  20.7430  20.8007  20.8573  20.8902  20.9117  20.9735  21.0389
    21.0520  21.0884  21.1611  21.2058  21.2753  21.3201  21.3617  21.3934
    21.4168  21.4634  21.4938  21.5912  21.6046  21.6512  21.6737  21.6987
    21.7096  21.7883  21.8010  21.8312  21.8361  21.8796  21.9018  22.0281
    22.0356  22.1234  22.1520  22.1692  22.2022  22.2719  22.3035  22.3250
    22.4397  22.4758  22.4894  22.5668  22.5950  22.6255  22.7401  22.8176
    22.8346  22.9249  22.9314  23.0728  23.1919  23.2139  23.2519  23.2543
    23.3047  23.3684  23.3956  23.4223  23.4460  23.4729  23.5081  23.5175
    23.5474  23.6040  23.6697  23.6742  23.8537  23.9609  24.0371  24.0950
    24.1212  24.2209  24.2439  24.2779  24.3618  24.4154  24.5554  24.6450
    24.6885  24.7119  24.7377  24.7943  24.8216  24.8882  24.9279  24.9409
    24.9655  24.9678  25.0108  25.0234  25.1135  25.2357  25.2492  25.4136
    25.4634  25.4960  25.5099  25.5209  25.5442  25.5701  25.6580  25.7685
    25.7857  25.8180  25.8545  25.8763  25.9849  25.9995  26.1472  26.7731
    26.7965  27.1056  27.1521  27.2613  27.6626  27.7163  28.0606  28.3310
    28.3691  28.5295  28.9234  28.9457  29.3315

          k = 0.1667 0.1667-0.5000 ( 30122 PWs)   bands (ev):

   -56.9279 -50.1950 -50.1950 -50.1950 -48.9331 -48.9124 -48.8791 -48.8647
   -48.8470 -48.8433 -48.8316 -48.8298 -48.8185 -48.8143 -48.8133 -48.8099
   -48.8030 -48.7959 -48.7849 -48.7826 -48.7821 -48.7763 -48.7690 -48.7552
   -48.7503 -48.7492 -48.7420 -48.7323 -48.7322 -48.7312 -48.7289 -48.7282
   -48.3166 -28.7760 -28.7760 -28.7760 -19.9626 -19.8328 -19.8325 -19.8323
   -19.7428 -19.7398 -19.4395 -19.4340 -19.4313 -19.2599 -19.2508 -19.2440
   -19.2365 -19.2188 -19.2024 -19.2000 -19.1777 -19.1764 -19.1685 -19.1648
   -19.1486 -19.1481 -19.1230 -19.1172 -19.0962 -19.0931 -19.0720 -19.0581
   -19.0544 -19.0333 -19.0223 -18.9747 -18.9632 -18.9311 -18.9216 -18.9163
   -18.8868 -18.8856 -18.8626 -18.8505 -18.8423 -18.8395 -18.8302 -18.8131
   -18.8080 -18.7948 -18.7696 -18.7444 -18.7428 -18.7083 -18.7076 -18.7004
   -18.6940 -18.6860 -18.6810 -18.6745 -18.6690 -18.6619 -18.6543 -18.6458
   -18.6454 -18.6400 -18.6385 -18.6289 -18.6246 -18.6223 -18.6168 -18.6076
   -18.5989 -18.5929 -18.5884 -18.5783 -18.5759 -18.5750 -18.5714 -18.5563
   -18.5549 -18.5513 -18.5510 -18.5442 -18.5438 -18.5391 -18.5297 -18.5201
   -18.5025 -18.4883 -18.4740 -18.4728 -18.4621 -18.4460 -18.4348 -18.4305
   -18.4239 -16.7126 -16.7115 -16.7115  11.4115  11.4146  12.5546  12.5564
    12.5601  16.5689  17.1782  17.9969  18.1304  18.1467  18.1807  18.3645
    18.4482  18.4550  18.5438  18.6094  18.6195  18.6411  18.6617  18.6948
    18.7174  18.7742  18.8021  18.8203  18.8459  18.8523  18.9332  18.9637
    19.0102  19.0375  19.0941  19.1492  19.1714  19.2171  19.2270  19.3362
    19.4697  19.4870  19.5354  19.5689  19.6479  19.6527  19.7806  19.8083
    19.8237  19.8355  19.9088  19.9632  20.0389  20.0653  20.0849  20.1673
    20.2735  20.3610  20.3747  20.4345  20.5147  20.6076  20.6413  20.6812
    20.6859  20.7835  20.8404  20.8454  20.8744  20.9237  20.9764  20.9908
    21.0047  21.0463  21.1852  21.2296  21.3387  21.3417  21.3737  21.4039
    21.4342  21.4972  21.5411  21.6507  21.6622  21.6996  21.7160  21.7372
    21.7459  21.7881  21.8439  21.8793  21.8805  21.9028  21.9293  21.9856
    22.0519  22.0627  22.1296  22.1595  22.1965  22.2911  22.3529  22.3975
    22.4730  22.4874  22.5270  22.5412  22.5576  22.6986  22.7091  22.7214
    22.7387  22.8241  22.9498  23.0794  23.1295  23.1395  23.2657  23.3070
    23.3241  23.3254  23.3574  23.3631  23.4036  23.4459  23.5055  23.5097
    23.5243  23.5845  23.6200  23.6767  23.8173  23.9037  24.0317  24.0384
    24.2252  24.2748  24.3808  24.4121  24.5294  24.5440  24.5800  24.5991
    24.6111  24.6497  24.6601  24.7089  24.7367  24.9150  25.0251  25.0313
    25.0842  25.1302  25.1601  25.1839  25.2070  25.2151  25.2360  25.2758
    25.2821  25.2848  25.3002  25.3140  25.5288  25.5422  25.5984  25.6693
    25.8801  25.9599  25.9942  26.0272  26.2386  26.2393  26.3798  26.3956
    26.4629  26.5584  27.1937  27.3831  27.6043  27.6286  28.3223  28.3803
    28.4147  28.4550  28.9735  28.9879  29.3393

          k = 0.1667 0.2778 0.2778 ( 30156 PWs)   bands (ev):

   -56.9279 -50.1950 -50.1950 -50.1950 -48.9391 -48.8951 -48.8892 -48.8692
   -48.8462 -48.8389 -48.8365 -48.8270 -48.8188 -48.8126 -48.8103 -48.8069
   -48.8066 -48.7948 -48.7869 -48.7862 -48.7840 -48.7735 -48.7719 -48.7551
   -48.7500 -48.7493 -48.7384 -48.7343 -48.7326 -48.7303 -48.7284 -48.7283
   -48.3166 -28.7760 -28.7760 -28.7760 -19.9637 -19.8331 -19.8330 -19.8327
   -19.7428 -19.7413 -19.4384 -19.4353 -19.4250 -19.2852 -19.2633 -19.2590
   -19.2309 -19.2152 -19.2139 -19.2062 -19.1671 -19.1643 -19.1584 -19.1474
   -19.1424 -19.1318 -19.1102 -19.1101 -19.0947 -19.0732 -19.0717 -19.0656
   -19.0580 -19.0489 -19.0368 -18.9681 -18.9601 -18.9362 -18.9270 -18.9213
   -18.8938 -18.8656 -18.8576 -18.8460 -18.8366 -18.8274 -18.8104 -18.8098
   -18.7805 -18.7784 -18.7656 -18.7512 -18.7485 -18.7425 -18.7258 -18.7235
   -18.7150 -18.7053 -18.7047 -18.6982 -18.6845 -18.6825 -18.6617 -18.6519
   -18.6484 -18.6399 -18.6308 -18.6265 -18.6156 -18.6112 -18.6053 -18.6016
   -18.5965 -18.5916 -18.5878 -18.5824 -18.5816 -18.5737 -18.5692 -18.5605
   -18.5529 -18.5518 -18.5407 -18.5366 -18.5365 -18.5258 -18.5089 -18.5074
   -18.4972 -18.4943 -18.4809 -18.4728 -18.4683 -18.4592 -18.4509 -18.4153
   -18.4035 -16.7123 -16.7117 -16.7116  11.4124  11.4135  12.5543  12.5576
    12.5590  16.4170  17.4991  17.9623  17.9631  18.0733  18.1336  18.2517
    18.3479  18.3774  18.3925  18.5440  18.6242  18.6423  18.6685  18.7430
    18.7645  18.7889  18.8419  18.8419  18.9021  18.9067  19.0284  19.0374
    19.0403  19.1400  19.1585  19.2702  19.3077  19.3214  19.3720  19.3956
    19.4248  19.4344  19.4361  19.5255  19.6016  19.6336  19.6402  19.7009
    19.7935  19.8572  19.9158  19.9475  20.0552  20.1458  20.2326  20.2699
    20.3338  20.3628  20.3790  20.4147  20.5052  20.5555  20.6145  20.7373
    20.7722  20.8197  20.8703  20.8938  20.9436  20.9663  21.0505  21.0566
    21.1191  21.1256  21.1553  21.1687  21.2256  21.2689  21.3629  21.4322
    21.4734  21.4764  21.5262  21.5624  21.5821  21.6160  21.6612  21.6826
    21.7391  21.7438  21.7820  21.7929  21.8162  21.8415  21.8661  22.0158
    22.0173  22.0878  22.0880  22.1784  22.1934  22.2717  22.3103  22.3581
    22.3921  22.4326  22.4694  22.5117  22.5896  22.6594  22.7423  22.7901
    22.8324  22.8698  22.9420  22.9646  23.0552  23.1387  23.2346  23.2383
    23.2851  23.3234  23.3364  23.4094  23.4226  23.5261  23.5290  23.5846
    23.7209  23.7258  23.7648  23.7819  23.8091  23.8727  23.9020  23.9119
    24.0283  24.1322  24.1460  24.3206  24.3277  24.4154  24.5403  24.5777
    24.6778  24.6821  24.7416  24.8386  24.8925  24.9182  24.9418  24.9535
    24.9795  25.0168  25.1194  25.1600  25.1782  25.2426  25.2640  25.2875
    25.3237  25.3709  25.5477  25.6381  25.6425  25.6785  25.6793  25.7652
    25.7652  25.8192  25.8728  25.8780  25.8990  25.9107  25.9375  26.8799
    27.1362  27.3116  27.5547  27.6575  27.8079  27.9749  27.9782  28.2059
    28.3962  28.4428  28.6125  29.0717  29.0883

          k = 0.1667 0.2778 0.3889 ( 30187 PWs)   bands (ev):

   -56.9279 -50.1950 -50.1950 -50.1950 -48.9325 -48.9038 -48.8888 -48.8680
   -48.8513 -48.8424 -48.8371 -48.8264 -48.8155 -48.8130 -48.8099 -48.8061
   -48.8043 -48.7932 -48.7860 -48.7835 -48.7816 -48.7741 -48.7703 -48.7569
   -48.7501 -48.7487 -48.7409 -48.7344 -48.7324 -48.7319 -48.7292 -48.7287
   -48.3165 -28.7761 -28.7760 -28.7760 -19.9626 -19.8321 -19.8318 -19.8316
   -19.7430 -19.7405 -19.4425 -19.4357 -19.4292 -19.2672 -19.2530 -19.2446
   -19.2190 -19.2091 -19.2040 -19.1976 -19.1851 -19.1807 -19.1713 -19.1584
   -19.1481 -19.1416 -19.1329 -19.1169 -19.1081 -19.0971 -19.0736 -19.0668
   -19.0644 -19.0434 -19.0331 -18.9700 -18.9536 -18.9362 -18.9205 -18.8970
   -18.8883 -18.8668 -18.8463 -18.8398 -18.8358 -18.8277 -18.8162 -18.7981
   -18.7846 -18.7823 -18.7754 -18.7498 -18.7365 -18.7292 -18.7226 -18.7101
   -18.7029 -18.6975 -18.6895 -18.6847 -18.6744 -18.6649 -18.6596 -18.6550
   -18.6537 -18.6473 -18.6393 -18.6303 -18.6285 -18.6211 -18.6111 -18.6077
   -18.6041 -18.5957 -18.5936 -18.5876 -18.5798 -18.5760 -18.5689 -18.5620
   -18.5577 -18.5552 -18.5494 -18.5437 -18.5415 -18.5350 -18.5184 -18.5053
   -18.5007 -18.4870 -18.4768 -18.4655 -18.4591 -18.4477 -18.4393 -18.4271
   -18.4089 -16.7125 -16.7117 -16.7116  11.4117  11.4134  12.5551  12.5589
    12.5609  16.5730  17.4021  17.8981  18.0409  18.1363  18.1903  18.3298
    18.4294  18.4417  18.4828  18.5293  18.6025  18.6608  18.6893  18.6931
    18.7678  18.7877  18.8153  18.8556  18.8945  18.9273  18.9570  18.9748
    19.0310  19.0702  19.1039  19.1774  19.2016  19.2494  19.2842  19.3170
    19.3666  19.3779  19.4131  19.4747  19.4930  19.5820  19.6650  19.7255
    19.7882  19.8189  19.8590  19.9076  20.0208  20.0580  20.1334  20.2238
    20.3136  20.3849  20.4123  20.4615  20.5252  20.5985  20.6323  20.6652
    20.7381  20.7873  20.8417  20.9074  20.9623  21.0454  21.0616  21.1262
    21.1567  21.2110  21.2552  21.3003  21.3697  21.4061  21.4559  21.4845
    21.5324  21.5518  21.5794  21.5996  21.6454  21.6870  21.7351  21.7642
    21.7699  21.8011  21.8266  21.8468  21.8922  21.9539  21.9660  22.0031
    22.0405  22.0945  22.1111  22.1561  22.1916  22.2296  22.2602  22.2987
    22.3220  22.3698  22.4210  22.4553  22.4811  22.5405  22.6524  22.6758
    22.7825  22.8101  22.8855  22.9138  22.9353  23.0521  23.1338  23.1862
    23.2459  23.2757  23.3257  23.3833  23.3922  23.4636  23.5015  23.5584
    23.6160  23.6626  23.7119  23.7377  23.8069  23.8911  23.9697  24.0608
    24.0816  24.1179  24.1752  24.2892  24.4484  24.4967  24.5215  24.6430
    24.6751  24.7284  24.7990  24.8566  24.8919  24.9190  25.0092  25.0308
    25.0911  25.1209  25.1367  25.1689  25.1933  25.2373  25.2654  25.3248
    25.3565  25.4331  25.4818  25.5225  25.5593  25.5742  25.6082  25.6790
    25.7628  25.7763  25.7975  25.8650  25.8823  26.2424  26.3882  26.7404
    26.9289  27.1901  27.3034  27.5944  27.8782  28.0924  28.2888  28.3671
    28.3997  28.6504  28.8802  29.0853  29.2991

          k = 0.1667 0.2778-0.5000 ( 30158 PWs)   bands (ev):

   -56.9279 -50.1950 -50.1950 -50.1950 -48.9283 -48.9094 -48.8878 -48.8673
   -48.8533 -48.8443 -48.8370 -48.8261 -48.8146 -48.8132 -48.8098 -48.8059
   -48.8033 -48.7926 -48.7856 -48.7822 -48.7796 -48.7753 -48.7694 -48.7577
   -48.7501 -48.7481 -48.7425 -48.7341 -48.7328 -48.7322 -48.7295 -48.7288
   -48.3165 -28.7760 -28.7760 -28.7760 -19.9621 -19.8317 -19.8313 -19.8312
   -19.7431 -19.7402 -19.4441 -19.4344 -19.4324 -19.2525 -19.2457 -19.2363
   -19.2292 -19.2083 -19.2028 -19.1934 -19.1841 -19.1797 -19.1765 -19.1653
   -19.1594 -19.1403 -19.1331 -19.1256 -19.1171 -19.1092 -19.0764 -19.0682
   -19.0641 -19.0419 -19.0285 -18.9704 -18.9499 -18.9364 -18.9211 -18.8915
   -18.8765 -18.8666 -18.8441 -18.8415 -18.8367 -18.8219 -18.8161 -18.8037
   -18.7958 -18.7885 -18.7709 -18.7438 -18.7332 -18.7170 -18.7153 -18.7030
[...]
    18.2898  18.5790  18.5959  18.5959  18.7079  18.7563  18.7563  18.7578
    18.7780  18.8276  18.8427  18.8427  18.8697  18.8955  18.8955  18.9611
    19.0228  19.0637  19.0637  19.1088  19.1750  19.1750  19.1921  19.2050
    19.3268  19.4176  19.4176  19.4402  19.4413  19.4788  19.4788  19.6977
    19.7079  19.7209  19.7209  19.8489  19.9493  20.0199  20.1512  20.1512
    20.2289  20.2289  20.2406  20.3210  20.4446  20.4813  20.6932  20.8214
    20.8214  20.8909  21.0342  21.0342  21.1531  21.3384  21.3759  21.3759
    21.4216  21.4246  21.4851  21.5302  21.5302  21.6467  21.6467  21.6688
    21.7030  21.7272  21.7272  21.7931  21.7939  21.7939  21.8045  21.8170
    21.8887  21.8887  21.9066  21.9442  21.9442  21.9546  21.9761  21.9922
    22.0049  22.0049  22.0374  22.0860  22.0860  22.0869  22.1372  22.1484
    22.1484  22.1853  22.2182  22.2592  22.3922  22.3922  22.5733  22.6141
    22.6411  22.6411  22.6752  22.7821  22.7941  22.7941  22.8582  22.9331
    22.9993  22.9993  23.0153  23.1928  23.4592  23.5040  23.5040  23.5047
    23.6743  23.6743  23.6948  23.7954  23.7956  23.8101  23.8252  23.8252
    23.8891  23.8891  23.9494  24.0207  24.1677  24.1949  24.1949  24.2178
    24.2869  24.2869  24.4141  24.6347  24.8256  24.8632  24.8632  24.9801
    25.1714  25.1714  25.5214  25.5615  25.6049  25.6049  25.6328  25.6354
    25.6500  25.6500  25.6784  25.7221  25.7298  25.7298  25.7303  25.7305
    25.7475  25.7575  25.7575  25.7891  26.7806  27.2280  27.2533  27.2533
    27.6699  27.6699  27.6842  28.0390  28.5297  28.5297  28.5837  28.6333
    28.7602  28.9250  29.1312  29.1312  29.1835

          k = 0.3889 0.3889 0.3889 ( 30196 PWs)   bands (ev):

   -56.9279 -50.1950 -50.1950 -50.1950 -48.9156 -48.8974 -48.8974 -48.8843
   -48.8568 -48.8568 -48.8558 -48.8073 -48.8069 -48.8069 -48.8037 -48.8037
   -48.8028 -48.7899 -48.7842 -48.7842 -48.7749 -48.7710 -48.7710 -48.7643
   -48.7467 -48.7467 -48.7420 -48.7354 -48.7354 -48.7343 -48.7329 -48.7329
   -48.3163 -28.7760 -28.7760 -28.7760 -19.9628 -19.8288 -19.8288 -19.8286
   -19.7442 -19.7442 -19.4416 -19.4416 -19.4371 -19.2342 -19.2308 -19.2308
   -19.2094 -19.2094 -19.2009 -19.2003 -19.2003 -19.2001 -19.1885 -19.1885
   -19.1877 -19.1792 -19.1673 -19.1673 -19.0819 -19.0677 -19.0677 -19.0582
   -19.0413 -19.0413 -18.9973 -18.9564 -18.9564 -18.9081 -18.8727 -18.8727
   -18.8490 -18.8281 -18.8240 -18.8240 -18.8158 -18.8045 -18.8045 -18.7901
   -18.7715 -18.7715 -18.7564 -18.7461 -18.7397 -18.7397 -18.7334 -18.7334
   -18.7110 -18.7110 -18.7061 -18.7033 -18.6910 -18.6893 -18.6893 -18.6722
   -18.6722 -18.6603 -18.6593 -18.6593 -18.6520 -18.6446 -18.6446 -18.6341
   -18.6173 -18.6173 -18.6132 -18.6075 -18.6075 -18.6003 -18.6003 -18.5892
   -18.5688 -18.5540 -18.5444 -18.5444 -18.4931 -18.4931 -18.4754 -18.4754
   -18.4682 -18.4641 -18.4526 -18.4526 -18.4381 -18.4381 -18.4355 -18.4247
   -18.4247 -16.7123 -16.7120 -16.7120  11.4103  11.4103  12.5631  12.5646
    12.5646  16.8361  17.6454  17.8836  17.8836  18.0160  18.1329  18.1329
    18.2285  18.5500  18.5500  18.5583  18.6979  18.6979  18.7282  18.8100
    18.8100  18.8207  18.8526  18.8853  18.8853  18.9495  18.9543  18.9543
    18.9831  19.0304  19.0304  19.1201  19.1201  19.1342  19.1689  19.1689
    19.2997  19.4455  19.4455  19.4770  19.5221  19.5971  19.5971  19.7292
    19.7616  19.7616  19.8973  19.8973  19.8975  20.0179  20.0275  20.0275
    20.1353  20.2089  20.2089  20.3940  20.4243  20.4243  20.7517  20.8012
    20.8012  20.9518  21.0509  21.0509  21.1222  21.2671  21.2671  21.3029
    21.4535  21.4913  21.4913  21.5419  21.5419  21.6498  21.6789  21.6789
    21.6922  21.7103  21.7902  21.7902  21.8236  21.8236  21.8322  21.8322
    21.8722  21.8774  21.8774  21.8844  21.9325  21.9325  21.9477  21.9667
    21.9667  21.9910  21.9910  21.9960  22.0044  22.0458  22.0574  22.0574
    22.2080  22.2080  22.2424  22.3501  22.4851  22.4851  22.5482  22.5482
    22.6311  22.7522  22.7522  22.8624  22.8624  22.9347  23.0627  23.0663
    23.0663  23.1127  23.2909  23.2909  23.2922  23.3876  23.3876  23.4830
    23.4970  23.4970  23.5906  23.5906  23.6565  23.7258  23.7258  23.7601
    23.8865  23.8891  23.8891  23.9169  24.0032  24.0032  24.1880  24.1912
    24.2658  24.2658  24.5407  24.5407  24.7622  24.7622  24.9504  25.0866
    25.0866  25.1857  25.5544  25.5544  25.5728  25.6253  25.6253  25.6577
    25.6866  25.6933  25.6933  25.7441  25.7441  25.7724  25.7724  25.7736
    25.8161  25.8562  25.8562  25.9021  27.1979  27.1979  27.2153  27.6788
    27.6788  28.0883  28.0883  28.2046  28.3063  28.4074  28.4819  28.4819
    28.5732  28.5732  28.9973  29.3490  29.3490

          k = 0.3889 0.3889-0.5000 ( 30162 PWs)   bands (ev):

   -56.9279 -50.1950 -50.1950 -50.1950 -48.9111 -48.9010 -48.8962 -48.8854
   -48.8593 -48.8587 -48.8561 -48.8078 -48.8066 -48.8035 -48.8034 -48.8032
   -48.8022 -48.7880 -48.7861 -48.7840 -48.7728 -48.7722 -48.7705 -48.7657
   -48.7464 -48.7449 -48.7432 -48.7355 -48.7353 -48.7350 -48.7340 -48.7332
   -48.3163 -28.7760 -28.7760 -28.7760 -19.9629 -19.8285 -19.8283 -19.8283
   -19.7449 -19.7443 -19.4427 -19.4398 -19.4389 -19.2270 -19.2256 -19.2214
   -19.2183 -19.2096 -19.2068 -19.2067 -19.2014 -19.2010 -19.1979 -19.1858
   -19.1852 -19.1800 -19.1769 -19.1750 -19.0670 -19.0631 -19.0630 -19.0598
   -19.0468 -19.0369 -18.9861 -18.9594 -18.9542 -18.9095 -18.8733 -18.8572
   -18.8442 -18.8380 -18.8221 -18.8179 -18.8122 -18.7916 -18.7856 -18.7777
   -18.7696 -18.7663 -18.7601 -18.7577 -18.7485 -18.7420 -18.7383 -18.7279
   -18.7240 -18.7190 -18.7116 -18.7110 -18.7025 -18.7000 -18.6977 -18.6718
   -18.6684 -18.6657 -18.6595 -18.6570 -18.6540 -18.6457 -18.6424 -18.6314
   -18.6274 -18.6155 -18.6135 -18.6129 -18.6124 -18.6023 -18.6002 -18.5930
   -18.5710 -18.5490 -18.5456 -18.5427 -18.4839 -18.4832 -18.4772 -18.4712
   -18.4673 -18.4598 -18.4517 -18.4503 -18.4396 -18.4330 -18.4307 -18.4302
   -18.4255 -16.7123 -16.7121 -16.7120  11.4099  11.4101  12.5640  12.5650
    12.5656  16.8677  17.7084  17.8057  17.9168  18.0185  18.0803  18.1016
    18.2029  18.5612  18.5723  18.5834  18.6997  18.7269  18.7438  18.7842
    18.8026  18.8260  18.8392  18.8737  18.8926  18.9129  18.9338  18.9706
    18.9806  18.9935  18.9945  19.1100  19.1268  19.1402  19.2016  19.2411
    19.2989  19.4296  19.4336  19.5376  19.5433  19.6394  19.6525  19.7406
    19.7527  19.7640  19.8142  19.9091  19.9471  19.9555  20.0038  20.0175
    20.0880  20.1508  20.2300  20.3428  20.3466  20.3992  20.7682  20.8062
    20.8623  20.9339  21.1100  21.1246  21.1423  21.2055  21.2761  21.4646
    21.5055  21.5107  21.5344  21.5397  21.6153  21.6361  21.6821  21.6987
    21.7196  21.7474  21.7801  21.7868  21.8078  21.8215  21.8358  21.8538
    21.8574  21.8588  21.8804  21.8886  21.8921  21.9251  21.9342  21.9384
    21.9397  21.9728  21.9909  22.0052  22.0204  22.0630  22.1130  22.1513
    22.1623  22.2220  22.2892  22.2897  22.3300  22.3662  22.5713  22.6091
    22.6175  22.7309  22.7686  22.7898  22.8344  22.9058  23.0121  23.0132
    23.1788  23.2077  23.2380  23.2882  23.2935  23.3064  23.3533  23.4466
    23.4938  23.5177  23.5859  23.6155  23.6305  23.6733  23.7340  23.7574
    23.7817  23.8010  23.8990  23.9250  24.0111  24.0431  24.0595  24.1028
    24.2232  24.2804  24.3193  24.4631  24.6867  24.7997  24.8378  25.0995
    25.1614  25.1787  25.5989  25.6177  25.6608  25.6664  25.6748  25.7126
    25.7235  25.7404  25.7585  25.7648  25.7748  25.7982  25.7994  25.8194
    25.8365  25.8408  25.8656  25.8680  27.2776  27.4144  27.5642  27.7338
    27.7654  28.0545  28.1355  28.2203  28.3659  28.4675  28.4891  28.5388
    28.7936  29.0034  29.0977  29.3330  29.3676

          k = 0.3889-0.5000-0.5000 ( 30188 PWs)   bands (ev):

   -56.9279 -50.1950 -50.1950 -50.1950 -48.9059 -48.8997 -48.8997 -48.8875
   -48.8615 -48.8586 -48.8586 -48.8083 -48.8047 -48.8029 -48.8029 -48.8014
   -48.8014 -48.7861 -48.7861 -48.7859 -48.7715 -48.7715 -48.7709 -48.7673
   -48.7445 -48.7442 -48.7442 -48.7360 -48.7357 -48.7351 -48.7345 -48.7345
   -48.3162 -28.7761 -28.7760 -28.7760 -19.9631 -19.8281 -19.8280 -19.8280
   -19.7454 -19.7448 -19.4425 -19.4400 -19.4400 -19.2203 -19.2203 -19.2196
   -19.2176 -19.2116 -19.2084 -19.2084 -19.2073 -19.2030 -19.1956 -19.1956
   -19.1904 -19.1831 -19.1809 -19.1809 -19.0629 -19.0607 -19.0607 -19.0467
   -19.0384 -19.0384 -18.9759 -18.9620 -18.9545 -18.9069 -18.8671 -18.8671
   -18.8399 -18.8158 -18.8094 -18.8043 -18.8043 -18.7860 -18.7799 -18.7799
   -18.7781 -18.7570 -18.7570 -18.7540 -18.7509 -18.7464 -18.7464 -18.7452
   -18.7337 -18.7337 -18.7261 -18.7240 -18.7106 -18.7042 -18.7042 -18.6720
   -18.6672 -18.6663 -18.6663 -18.6541 -18.6539 -18.6450 -18.6343 -18.6313
   -18.6313 -18.6192 -18.6192 -18.6177 -18.6151 -18.6014 -18.6014 -18.5979
   -18.5729 -18.5441 -18.5438 -18.5438 -18.4777 -18.4747 -18.4686 -18.4677
   -18.4677 -18.4555 -18.4509 -18.4509 -18.4362 -18.4337 -18.4337 -18.4295
   -18.4251 -16.7123 -16.7121 -16.7121  11.4096  11.4098  12.5649  12.5661
    12.5661  16.8909  17.8098  17.8098  17.8558  17.9846  18.0602  18.0602
    18.1745  18.5712  18.5770  18.5770  18.7363  18.7651  18.7651  18.7703
    18.7947  18.8213  18.8623  18.8623  18.8880  18.8880  18.8972  18.9357
    18.9399  18.9842  18.9842  19.0999  19.1281  19.1281  19.2565  19.2776
    19.3127  19.4900  19.4900  19.5486  19.6300  19.6540  19.6540  19.7388
    19.7413  19.8139  19.8139  19.8239  19.9602  19.9697  20.0127  20.0127
    20.0707  20.0905  20.0905  20.2991  20.3089  20.3605  20.7933  20.8550
    20.8550  20.9472  21.1415  21.1415  21.2389  21.2856  21.3661  21.3661
    21.3864  21.5203  21.5660  21.5660  21.6091  21.7189  21.7189  21.7205
    21.7379  21.7379  21.7839  21.7994  21.8246  21.8326  21.8326  21.8780
    21.8942  21.9067  21.9099  21.9099  21.9379  21.9449  21.9666  21.9666
    21.9681  21.9895  21.9895  22.0125  22.0458  22.0458  22.0694  22.0694
    22.1115  22.1122  22.1424  22.2271  22.3217  22.3217  22.5888  22.6258
    22.6512  22.6668  22.6668  22.9499  22.9499  22.9539  23.0092  23.0287
    23.1111  23.1204  23.1204  23.3423  23.3423  23.3729  23.3804  23.4645
    23.4807  23.4807  23.4924  23.5122  23.5925  23.5984  23.5984  23.7035
    23.7465  23.8399  23.8399  23.9694  24.0379  24.0643  24.0643  24.1094
    24.1190  24.1373  24.1373  24.3361  24.7114  24.7306  24.7306  25.1386
    25.1912  25.1912  25.6484  25.6723  25.7195  25.7195  25.7285  25.7578
    25.7597  25.7597  25.7958  25.8250  25.8396  25.8401  25.8401  25.8404
    25.8526  25.8526  25.8595  25.8768  27.3603  27.6965  27.7294  27.7294
    27.8995  28.1821  28.2340  28.2340  28.7508  28.7508  28.8683  28.9015
    28.9563  28.9969  29.0617  29.1890  29.1891

          k =-0.5000-0.5000-0.5000 ( 30280 PWs)   bands (ev):

   -56.9280 -50.1950 -50.1950 -50.1950 -48.8986 -48.8986 -48.8986 -48.8962
   -48.8611 -48.8611 -48.8611 -48.8089 -48.8015 -48.8015 -48.8015 -48.8014
   -48.8014 -48.7861 -48.7861 -48.7861 -48.7711 -48.7711 -48.7711 -48.7686
   -48.7435 -48.7435 -48.7435 -48.7360 -48.7360 -48.7357 -48.7357 -48.7357
   -48.3162 -28.7761 -28.7761 -28.7761 -19.9634 -19.8277 -19.8277 -19.8277
   -19.7456 -19.7456 -19.4411 -19.4411 -19.4411 -19.2176 -19.2176 -19.2154
   -19.2154 -19.2154 -19.2113 -19.2113 -19.2113 -19.2001 -19.1964 -19.1964
   -19.1964 -19.1877 -19.1877 -19.1877 -19.0590 -19.0590 -19.0590 -19.0325
   -19.0325 -19.0325 -18.9662 -18.9608 -18.9608 -18.8900 -18.8522 -18.8522
   -18.8522 -18.8094 -18.8057 -18.8057 -18.8057 -18.7782 -18.7782 -18.7782
   -18.7704 -18.7500 -18.7500 -18.7500 -18.7499 -18.7499 -18.7495 -18.7495
   -18.7495 -18.7362 -18.7362 -18.7362 -18.7269 -18.7269 -18.7269 -18.6692
   -18.6692 -18.6692 -18.6635 -18.6635 -18.6504 -18.6324 -18.6324 -18.6289
   -18.6289 -18.6289 -18.6230 -18.6230 -18.6230 -18.6018 -18.6018 -18.6018
   -18.5744 -18.5419 -18.5419 -18.5419 -18.4707 -18.4707 -18.4618 -18.4618
   -18.4618 -18.4511 -18.4511 -18.4511 -18.4319 -18.4319 -18.4319 -18.4316
   -18.4316 -16.7123 -16.7123 -16.7123  11.4093  11.4093  12.5665  12.5665
    12.5665  16.9078  17.8428  17.8428  17.8428  18.0228  18.0228  18.0228
    18.0950  18.5682  18.5682  18.5682  18.7667  18.7667  18.7667  18.7761
    18.8041  18.8041  18.8910  18.8910  18.8910  18.9091  18.9091  18.9091
    18.9159  18.9159  18.9159  19.1098  19.1098  19.1098  19.2823  19.3319
    19.3319  19.5274  19.5274  19.5274  19.7710  19.7710  19.7710  19.7979
    19.7979  19.8076  19.8818  19.8818  19.8818  19.9416  19.9416  19.9416
    19.9605  19.9605  19.9605  20.2668  20.2952  20.2952  20.8556  20.8556
    20.8556  20.9498  21.2509  21.2509  21.2509  21.2924  21.2924  21.2924
    21.3624  21.5995  21.5995  21.5995  21.7315  21.7315  21.7315  21.7466
    21.7466  21.7466  21.7532  21.7532  21.8789  21.8789  21.8789  21.8813
    21.8813  21.9109  21.9109  21.9109  21.9672  21.9672  21.9743  21.9743
    21.9743  21.9970  22.0059  22.0059  22.0059  22.0237  22.0237  22.0237
    22.0442  22.0442  22.0442  22.2713  22.2713  22.2713  22.5921  22.5921
    22.6465  22.6465  22.6465  23.1177  23.1177  23.1177  23.2107  23.2107
    23.2107  23.2117  23.2117  23.2118  23.2406  23.2406  23.2406  23.2515
    23.3205  23.3205  23.3205  23.4545  23.4545  23.4545  23.6293  23.6293
    23.8762  23.8762  23.8762  23.9747  24.0288  24.0288  24.0583  24.0583
    24.0583  24.0600  24.0600  24.0600  24.6655  24.6655  24.6655  25.2025
    25.2025  25.2025  25.7060  25.7060  25.7687  25.7687  25.7687  25.7987
    25.7987  25.7987  25.8570  25.8687  25.8687  25.8705  25.8705  25.8705
    25.8832  25.8832  25.8832  25.9024  27.7037  27.7037  27.8082  27.8082
    27.8082  28.8980  28.9826  28.9826  28.9826  28.9887  28.9887  28.9887
    29.1638  29.1638  29.1810  29.1810  29.1810

     the Fermi energy is    24.0547 ev

!    total energy              =  -14241.17847739 Ry

     total all-electron energy =   -299048.081015 Ry
     estimated scf accuracy    <       0.00000020 Ry
     smearing contrib. (-TS)   =       0.01910366 Ry
     internal energy E=F+TS    =  -14241.19758105 Ry

     The total energy is F=E-TS. E is the sum of the following terms:
     one-electron contribution =   -1149.54683883 Ry
     hartree contribution      =    1020.17645151 Ry
     xc contribution           =    -961.26653956 Ry
     ewald contribution        =   -5323.74741106 Ry
     one-center paw contrib.   =   -7826.81324312 Ry

     convergence has been achieved in  16 iterations

     Forces acting on atoms (cartesian axes, Ry/au):

     atom    1 type  1   force =     0.00000000    0.00000000    0.00000000
     atom    2 type  1   force =    -1.29565102   -1.29565102   -1.29565102
     atom    3 type  1   force =     1.29565102    1.29565102   -1.29565102
     atom    4 type  1   force =     1.29565102   -1.29565102    1.29565102
     atom    5 type  1   force =    -1.29565102    1.29565102    1.29565102
     atom    6 type  1   force =    -0.01062693   -0.01062693    0.02726442
     atom    7 type  1   force =     0.01062693    0.01062693    0.02726442
     atom    8 type  1   force =     0.01062693   -0.01062693   -0.02726442
     atom    9 type  1   force =    -0.01062693    0.01062693   -0.02726442
     atom   10 type  1   force =    -0.01062693    0.02726442   -0.01062693
     atom   11 type  1   force =     0.01062693   -0.02726442   -0.01062693
     atom   12 type  1   force =     0.01062693    0.02726442    0.01062693
     atom   13 type  1   force =    -0.01062693   -0.02726442    0.01062693
     atom   14 type  1   force =    -0.00025406    0.02079353    0.02079353
     atom   15 type  1   force =     0.00025406   -0.02079353    0.02079353
     atom   16 type  1   force =     0.00025406    0.02079353   -0.02079353
     atom   17 type  1   force =    -0.00025406   -0.02079353   -0.02079353
     atom   18 type  1   force =     0.02726442   -0.01062693   -0.01062693
     atom   19 type  1   force =    -0.02726442    0.01062693   -0.01062693
     atom   20 type  1   force =    -0.02726442   -0.01062693    0.01062693
     atom   21 type  1   force =     0.02726442    0.01062693    0.01062693
     atom   22 type  1   force =     0.02079353   -0.00025406    0.02079353
     atom   23 type  1   force =    -0.02079353    0.00025406    0.02079353
     atom   24 type  1   force =    -0.02079353   -0.00025406   -0.02079353
     atom   25 type  1   force =     0.02079353    0.00025406   -0.02079353
     atom   26 type  1   force =     0.02079353    0.02079353   -0.00025406
     atom   27 type  1   force =    -0.02079353   -0.02079353   -0.00025406
     atom   28 type  1   force =    -0.02079353    0.02079353    0.00025406
     atom   29 type  1   force =     0.02079353   -0.02079353    0.00025406
     atom   30 type  1   force =     0.00141335    0.00141335    0.00141335
     atom   31 type  1   force =    -0.00141335   -0.00141335    0.00141335
     atom   32 type  1   force =    -0.00141335    0.00141335   -0.00141335
     atom   33 type  1   force =     0.00141335   -0.00141335   -0.00141335

     Total force =     4.490721     Total SCF correction =     0.001192


     Computing stress (Cartesian axis) and pressure

          total   stress  (Ry/bohr**3)                   (kbar)     P=      514.45
   0.00349719   0.00000000   0.00000000          514.45        0.00        0.00
   0.00000000   0.00349719   0.00000000            0.00      514.45        0.00
   0.00000000   0.00000000   0.00349719            0.00        0.00      514.45


     Writing output data file /scratch/rutetra1.save/
 
     init_run     :     10.33s CPU     10.65s WALL (       1 calls)
     electrons    :    512.54s CPU    519.02s WALL (       1 calls)
     forces       :      5.46s CPU      5.53s WALL (       1 calls)
     stress       :     34.67s CPU     34.98s WALL (       1 calls)

     Called by init_run:
     wfcinit      :      9.59s CPU      9.84s WALL (       1 calls)
     potinit      :      0.38s CPU      0.40s WALL (       1 calls)
     hinit0       :      0.14s CPU      0.14s WALL (       1 calls)

     Called by electrons:
     c_bands      :    447.64s CPU    452.82s WALL (      17 calls)
     sum_band     :     62.82s CPU     63.80s WALL (      17 calls)
     v_of_rho     :      0.40s CPU      0.42s WALL (      17 calls)
     newd         :      0.40s CPU      0.58s WALL (      17 calls)
     PAW_pot      :      1.43s CPU      1.51s WALL (      17 calls)
     mix_rho      :      0.08s CPU      0.11s WALL (      17 calls)

     Called by c_bands:
     init_us_2    :      2.63s CPU      2.67s WALL (    1295 calls)
     cegterg      :    438.21s CPU    443.26s WALL (     595 calls)

     Called by *egterg:
     cdiaghg      :     53.52s CPU     53.90s WALL (    2467 calls)
     h_psi        :    243.27s CPU    246.88s WALL (    2537 calls)
     s_psi        :     20.27s CPU     20.42s WALL (    2537 calls)
     g_psi        :      0.46s CPU      0.47s WALL (    1907 calls)

     Called by h_psi:
     h_psi:calbec :     38.48s CPU     38.75s WALL (    2537 calls)
     vloc_psi     :    183.99s CPU    187.08s WALL (    2537 calls)
     add_vuspsi   :     19.48s CPU     19.73s WALL (    2537 calls)

     General routines
     calbec       :     62.18s CPU     62.63s WALL (    3307 calls)
     fft          :      0.39s CPU      0.41s WALL (     245 calls)
     ffts         :      0.04s CPU      0.04s WALL (      34 calls)
     fftw         :    217.22s CPU    220.77s WALL ( 1032823 calls)
     interpolate  :      0.05s CPU      0.06s WALL (      17 calls)
 
     Parallel routines
     fft_scatt_xy :     18.21s CPU     18.49s WALL ( 1033102 calls)
     fft_scatt_yz :    168.60s CPU    171.41s WALL ( 1033102 calls)
 
     PWSCF        :   9m32.34s CPU   9m41.29s WALL

 
   This run was terminated on:  23:50:55   2Jan2022            

=------------------------------------------------------------------------------=
   JOB DONE.
=------------------------------------------------------------------------------=
