
     Program PWSCF v.6.7MaX starts on  3Jan2022 at  1:46:59 

     This program is part of the open-source Quantum ESPRESSO suite
     for quantum simulation of materials; please cite
         "P. Giannozzi et al., J. Phys.:Condens. Matter 21 395502 (2009);
         "P. Giannozzi et al., J. Phys.:Condens. Matter 29 465901 (2017);
          URL http://www.quantum-espresso.org", 
     in publications or presentations arising from this work. More details at
     http://www.quantum-espresso.org/quote

     Parallel version (MPI & OpenMP), running on      72 processor cores
     Number of MPI processes:                72
     Threads/MPI process:                     1

     MPI processes distributed on     1 nodes
     R & G space division:  proc/nbgrp/npool/nimage =      72
     Reading input from ru_vacancy_1.in
Warning: card &CELL ignored
Warning: card CELL_DYNAMICS = 'BFGS', ignored
Warning: card CELL_FACTOR = 2.0, ignored
Warning: card PRESS = 0.0, ignored
Warning: card / ignored

     Current dimensions of program PWSCF are:
     Max number of different atomic species (ntypx) = 10
     Max number of k-points (npk) =  40000
     Max angular momentum in pseudopotentials (lmaxx) =  3
     file Ru.pbe-spn-kjpaw_psl.1.0.0.UPF: wavefunction(s)  4D renormalized

     Subspace diagonalization in iterative solution of the eigenvalue problem:
     one sub-group per band group will be used
     ELPA distributed-memory algorithm (size of sub-group:  8*  8 procs)

     Message from routine setup:
     using ibrav=0 with symmetry is DISCOURAGED, use correct ibrav instead
 
     Parallelization info
     --------------------
     sticks:   dense  smooth     PW     G-vecs:    dense   smooth      PW
     Min          98      65     17                 6240     3351     475
     Max          99      66     18                 6245     3355     482
     Sum        7113    4693   1281               449479   241377   34457
 


     bravais-lattice index     =            0
     lattice parameter (alat)  =      14.4007  a.u.
     unit-cell volume          =    2986.4454 (a.u.)^3
     number of atoms/cell      =           31
     number of atomic types    =            1
     number of electrons       =       496.00
     number of Kohn-Sham states=          298
     kinetic-energy cutoff     =      71.0000  Ry
     charge density cutoff     =     430.0000  Ry
     scf convergence threshold =      1.0E-06
     mixing beta               =       0.1000
     number of iterations used =           10  TF        mixing
     Exchange-correlation= SLA  PW   PBX  PBC
                           (   1   4   3   4   0   0   0)

     celldm(1)=  14.400742  celldm(2)=   0.000000  celldm(3)=   0.000000
     celldm(4)=   0.000000  celldm(5)=   0.000000  celldm(6)=   0.000000

     crystal axes: (cart. coord. in units of alat)
               a(1) = (   1.000000   0.000000   0.000000 )  
               a(2) = (   0.000000   1.000000   0.000000 )  
               a(3) = (   0.000000   0.000000   1.000000 )  

     reciprocal axes: (cart. coord. in units 2 pi/alat)
               b(1) = (  1.000000  0.000000  0.000000 )  
               b(2) = (  0.000000  1.000000  0.000000 )  
               b(3) = (  0.000000  0.000000  1.000000 )  


     PseudoPot. # 1 for Ru read from file:
     /rds/homes/b/bxp912/pp/Ru.pbe-spn-kjpaw_psl.1.0.0.UPF
     MD5 check sum: 0ae1f594dea09af7be8575c3a481d1ae
     Pseudo is Projector augmented-wave + core cor, Zval = 16.0
     Generated using "atomic" code by A. Dal Corso  v.5.1
     Shape of augmentation charge: PSQ
     Using radial grid of 1233 points,  6 beta functions with: 
                l(1) =   0
                l(2) =   0
                l(3) =   1
                l(4) =   1
                l(5) =   2
                l(6) =   2
     Q(r) pseudized with 0 coefficients 


     atomic species   valence    mass     pseudopotential
        Ru            16.00   101.07000     Ru( 1.00)

     48 Sym. Ops., with inversion, found



   Cartesian axes

     site n.     atom                  positions (alat units)
         1           Ru  tau(   1) = (   0.2500000   0.2500000   0.0000000  )
         2           Ru  tau(   2) = (   0.2500000   0.0000000   0.2500000  )
         3           Ru  tau(   3) = (   0.0000000   0.2500000   0.2500000  )
         4           Ru  tau(   4) = (   0.0000000   0.0000000   0.5000000  )
         5           Ru  tau(   5) = (   0.2500000   0.2500000   0.5000000  )
         6           Ru  tau(   6) = (   0.2500000   0.0000000   0.7500000  )
         7           Ru  tau(   7) = (   0.0000000   0.2500000   0.7500000  )
         8           Ru  tau(   8) = (   0.0000000   0.5000000   0.0000000  )
         9           Ru  tau(   9) = (   0.2500000   0.7500000   0.0000000  )
        10           Ru  tau(  10) = (   0.2500000   0.5000000   0.2500000  )
        11           Ru  tau(  11) = (   0.0000000   0.7500000   0.2500000  )
        12           Ru  tau(  12) = (   0.0000000   0.5000000   0.5000000  )
        13           Ru  tau(  13) = (   0.2500000   0.7500000   0.5000000  )
        14           Ru  tau(  14) = (   0.2500000   0.5000000   0.7500000  )
        15           Ru  tau(  15) = (   0.0000000   0.7500000   0.7500000  )
        16           Ru  tau(  16) = (   0.5000000   0.0000000   0.0000000  )
        17           Ru  tau(  17) = (   0.7500000   0.2500000   0.0000000  )
        18           Ru  tau(  18) = (   0.7500000   0.0000000   0.2500000  )
        19           Ru  tau(  19) = (   0.5000000   0.2500000   0.2500000  )
        20           Ru  tau(  20) = (   0.5000000   0.0000000   0.5000000  )
        21           Ru  tau(  21) = (   0.7500000   0.2500000   0.5000000  )
        22           Ru  tau(  22) = (   0.7500000   0.0000000   0.7500000  )
        23           Ru  tau(  23) = (   0.5000000   0.2500000   0.7500000  )
        24           Ru  tau(  24) = (   0.5000000   0.5000000   0.0000000  )
        25           Ru  tau(  25) = (   0.7500000   0.7500000   0.0000000  )
        26           Ru  tau(  26) = (   0.7500000   0.5000000   0.2500000  )
        27           Ru  tau(  27) = (   0.5000000   0.7500000   0.2500000  )
        28           Ru  tau(  28) = (   0.5000000   0.5000000   0.5000000  )
        29           Ru  tau(  29) = (   0.7500000   0.7500000   0.5000000  )
        30           Ru  tau(  30) = (   0.7500000   0.5000000   0.7500000  )
        31           Ru  tau(  31) = (   0.5000000   0.7500000   0.7500000  )

     number of k points=    35  Marzari-Vanderbilt smearing, width (Ry)=  0.0400
                       cart. coord. in units 2pi/alat
        k(    1) = (   0.0555556   0.0555556   0.0555556), wk =   0.0219479
        k(    2) = (   0.0555556   0.0555556   0.1666667), wk =   0.0658436
        k(    3) = (   0.0555556   0.0555556   0.2777778), wk =   0.0658436
        k(    4) = (   0.0555556   0.0555556   0.3888889), wk =   0.0658436
        k(    5) = (   0.0555556   0.0555556  -0.5000000), wk =   0.0329218
        k(    6) = (   0.0555556   0.1666667   0.1666667), wk =   0.0658436
        k(    7) = (   0.0555556   0.1666667   0.2777778), wk =   0.1316872
        k(    8) = (   0.0555556   0.1666667   0.3888889), wk =   0.1316872
        k(    9) = (   0.0555556   0.1666667  -0.5000000), wk =   0.0658436
        k(   10) = (   0.0555556   0.2777778   0.2777778), wk =   0.0658436
        k(   11) = (   0.0555556   0.2777778   0.3888889), wk =   0.1316872
        k(   12) = (   0.0555556   0.2777778  -0.5000000), wk =   0.0658436
        k(   13) = (   0.0555556   0.3888889   0.3888889), wk =   0.0658436
        k(   14) = (   0.0555556   0.3888889  -0.5000000), wk =   0.0658436
        k(   15) = (   0.0555556  -0.5000000  -0.5000000), wk =   0.0164609
        k(   16) = (   0.1666667   0.1666667   0.1666667), wk =   0.0219479
        k(   17) = (   0.1666667   0.1666667   0.2777778), wk =   0.0658436
        k(   18) = (   0.1666667   0.1666667   0.3888889), wk =   0.0658436
        k(   19) = (   0.1666667   0.1666667  -0.5000000), wk =   0.0329218
        k(   20) = (   0.1666667   0.2777778   0.2777778), wk =   0.0658436
        k(   21) = (   0.1666667   0.2777778   0.3888889), wk =   0.1316872
        k(   22) = (   0.1666667   0.2777778  -0.5000000), wk =   0.0658436
        k(   23) = (   0.1666667   0.3888889   0.3888889), wk =   0.0658436
        k(   24) = (   0.1666667   0.3888889  -0.5000000), wk =   0.0658436
        k(   25) = (   0.1666667  -0.5000000  -0.5000000), wk =   0.0164609
        k(   26) = (   0.2777778   0.2777778   0.2777778), wk =   0.0219479
        k(   27) = (   0.2777778   0.2777778   0.3888889), wk =   0.0658436
        k(   28) = (   0.2777778   0.2777778  -0.5000000), wk =   0.0329218
        k(   29) = (   0.2777778   0.3888889   0.3888889), wk =   0.0658436
        k(   30) = (   0.2777778   0.3888889  -0.5000000), wk =   0.0658436
        k(   31) = (   0.2777778  -0.5000000  -0.5000000), wk =   0.0164609
        k(   32) = (   0.3888889   0.3888889   0.3888889), wk =   0.0219479
        k(   33) = (   0.3888889   0.3888889  -0.5000000), wk =   0.0329218
        k(   34) = (   0.3888889  -0.5000000  -0.5000000), wk =   0.0164609
        k(   35) = (  -0.5000000  -0.5000000  -0.5000000), wk =   0.0027435

     Dense  grid:   449479 G-vectors     FFT dimensions: (  96,  96,  96)

     Smooth grid:   241377 G-vectors     FFT dimensions: (  80,  80,  80)

     Estimated max dynamical RAM per process >     104.61 MB

     Estimated total dynamical RAM >       7.36 GB

     Check: negative core charge=   -0.000002

     Initial potential from superposition of free atoms

     starting charge  495.98023, renormalised to  496.00000
     Starting wfcs are  310 randomized atomic wfcs
     Checking if some PAW data can be deallocated... 

     total cpu time spent up to now is       11.9 secs

     Self-consistent Calculation

     iteration #  1     ecut=    71.00 Ry     beta= 0.10
     Davidson diagonalization with overlap
     ethr =  1.00E-02,  avg # of iterations =  3.6

     Threshold (ethr) on eigenvalues was too large:
     Diagonalizing with lowered threshold

     Davidson diagonalization with overlap
     ethr =  1.30E-04,  avg # of iterations =  6.2

     total cpu time spent up to now is       78.0 secs

     total energy              =  -13381.61130416 Ry
     estimated scf accuracy    <       0.83945491 Ry

     iteration #  2     ecut=    71.00 Ry     beta= 0.10
     Davidson diagonalization with overlap
     ethr =  1.69E-04,  avg # of iterations =  1.0

     total cpu time spent up to now is      101.2 secs

     total energy              =  -13381.38706555 Ry
     estimated scf accuracy    <       0.65941289 Ry

     iteration #  3     ecut=    71.00 Ry     beta= 0.10
     Davidson diagonalization with overlap
     ethr =  1.33E-04,  avg # of iterations =  2.0

     total cpu time spent up to now is      131.0 secs

     total energy              =  -13381.45226997 Ry
     estimated scf accuracy    <       0.10910281 Ry

     iteration #  4     ecut=    71.00 Ry     beta= 0.10
     Davidson diagonalization with overlap
     ethr =  2.20E-05,  avg # of iterations =  1.0

     total cpu time spent up to now is      154.0 secs

     total energy              =  -13381.46691226 Ry
     estimated scf accuracy    <       0.07499745 Ry

     iteration #  5     ecut=    71.00 Ry     beta= 0.10
     Davidson diagonalization with overlap
     ethr =  1.51E-05,  avg # of iterations =  3.1

     total cpu time spent up to now is      192.6 secs

     total energy              =  -13381.41202930 Ry
     estimated scf accuracy    <       0.28151694 Ry

     iteration #  6     ecut=    71.00 Ry     beta= 0.10
     Davidson diagonalization with overlap
     ethr =  1.51E-05,  avg # of iterations =  2.6

     total cpu time spent up to now is      226.9 secs

     total energy              =  -13381.43985537 Ry
     estimated scf accuracy    <       0.02211213 Ry

     iteration #  7     ecut=    71.00 Ry     beta= 0.10
     Davidson diagonalization with overlap
     ethr =  4.46E-06,  avg # of iterations =  2.0

     total cpu time spent up to now is      252.8 secs

     total energy              =  -13381.44066446 Ry
     estimated scf accuracy    <       0.01277331 Ry

     iteration #  8     ecut=    71.00 Ry     beta= 0.10
     Davidson diagonalization with overlap
     ethr =  2.58E-06,  avg # of iterations =  1.1

     total cpu time spent up to now is      276.0 secs

     total energy              =  -13381.43730005 Ry
     estimated scf accuracy    <       0.01011801 Ry

     iteration #  9     ecut=    71.00 Ry     beta= 0.10
     Davidson diagonalization with overlap
     ethr =  2.04E-06,  avg # of iterations =  2.6

     total cpu time spent up to now is      307.2 secs

     total energy              =  -13381.43885462 Ry
     estimated scf accuracy    <       0.00120670 Ry

     iteration # 10     ecut=    71.00 Ry     beta= 0.10
     Davidson diagonalization with overlap
     ethr =  2.43E-07,  avg # of iterations =  2.2

     total cpu time spent up to now is      333.2 secs

     total energy              =  -13381.43899900 Ry
     estimated scf accuracy    <       0.00043670 Ry

     iteration # 11     ecut=    71.00 Ry     beta= 0.10
     Davidson diagonalization with overlap
     ethr =  8.80E-08,  avg # of iterations =  2.0

     total cpu time spent up to now is      358.8 secs

     total energy              =  -13381.43872917 Ry
     estimated scf accuracy    <       0.00083736 Ry

     iteration # 12     ecut=    71.00 Ry     beta= 0.10
     Davidson diagonalization with overlap
     ethr =  8.80E-08,  avg # of iterations =  2.0

     total cpu time spent up to now is      389.5 secs

     total energy              =  -13381.43881180 Ry
     estimated scf accuracy    <       0.00005178 Ry

     iteration # 13     ecut=    71.00 Ry     beta= 0.10
     Davidson diagonalization with overlap
     ethr =  1.04E-08,  avg # of iterations =  2.2

     total cpu time spent up to now is      421.5 secs

     total energy              =  -13381.43882380 Ry
     estimated scf accuracy    <       0.00000758 Ry

     iteration # 14     ecut=    71.00 Ry     beta= 0.10
     Davidson diagonalization with overlap
     ethr =  1.53E-09,  avg # of iterations =  2.1

     total cpu time spent up to now is      447.1 secs

     total energy              =  -13381.43882086 Ry
     estimated scf accuracy    <       0.00001044 Ry

     iteration # 15     ecut=    71.00 Ry     beta= 0.10
     Davidson diagonalization with overlap
     ethr =  1.53E-09,  avg # of iterations =  2.0

     total cpu time spent up to now is      480.6 secs

     End of self-consistent calculation

          k = 0.0556 0.0556 0.0556 ( 30224 PWs)   bands (ev):

   -50.7846 -50.7219 -50.7219 -50.6735 -50.6690 -50.6662 -50.6662 -50.6454
   -50.6454 -50.6364 -50.6315 -50.6315 -50.6315 -50.6106 -50.6102 -50.6102
   -50.5800 -50.5800 -50.5769 -50.5534 -50.5516 -50.5516 -50.5365 -50.5308
   -50.5308 -50.5307 -50.4968 -50.4968 -50.4968 -50.4917 -50.4917 -21.1672
   -21.1652 -21.1652 -21.1616 -21.1055 -21.1055 -21.1052 -20.9259 -20.9255
   -20.9255 -20.8978 -20.8976 -20.8976 -20.8876 -20.8876 -20.8782 -20.8735
   -20.8735 -20.8649 -20.8642 -20.8571 -20.8571 -20.8302 -20.8302 -20.8098
   -20.8043 -20.7943 -20.7943 -20.7813 -20.7746 -20.7746 -20.6801 -20.6801
   -20.6518 -20.6234 -20.6234 -20.6061 -20.6061 -20.5990 -20.5879 -20.5859
   -20.5859 -20.5817 -20.5776 -20.5679 -20.5679 -20.5532 -20.5532 -20.5531
   -20.5423 -20.5342 -20.5342 -20.5274 -20.5186 -20.5186 -20.5154 -20.5065
   -20.5065 -20.4228 -20.4228 -20.4197 -20.3718 -20.3682 -20.3682 -20.3564
   -20.3531 -20.3531 -20.3528 -20.3528 -20.3472 -20.3384 -20.3384 -20.3352
   -20.3348 -20.3263 -20.3263 -20.3032 -20.3032 -20.3029 -20.2979 -20.2979
   -20.2928 -20.2886 -20.2886 -20.2873 -20.2494 -20.2494 -20.2400 -20.2400
   -20.2389 -20.1789 -20.1723 -20.1723  14.6007  16.0549  16.1716  16.1716
    16.3822  16.3946  16.3946  16.4119  16.6477  16.6501  16.6501  16.8014
    16.8014  16.8638  16.9776  16.9776  17.2195  17.4438  17.4911  17.4911
    17.4923  17.7800  17.7800  17.8133  17.8133  17.8513  18.0430  18.0430
    18.0982  18.0982  18.1058  18.1343  18.1490  18.1627  18.1627  18.2101
    18.2101  18.2921  18.2921  18.2995  18.6079  18.6317  18.6493  18.6493
    18.7011  18.7011  18.7928  18.7928  18.8004  18.8039  18.8372  18.8372
    18.8867  18.9314  18.9314  18.9392  19.0519  19.0519  19.1152  19.1381
    19.1381  19.1397  19.1555  19.1703  19.1818  19.1818  19.2304  19.2304
    19.3711  19.3711  19.3929  19.4314  19.4314  19.4451  19.5123  19.5242
    19.5242  19.6519  19.6519  19.6838  19.6860  19.7170  19.7170  20.0226
    20.0226  20.5116  20.5489  20.5489  20.7789  20.7789  20.8936  20.9379
    20.9379  20.9447  21.0233  21.0459  21.0459  21.0464  21.0849  21.0849
    21.0987  21.1126  21.1126  21.1766  21.3677  21.4674  21.4674  21.5508
    21.5508  21.5591  21.5591  21.6825  21.7349  21.7891  21.7891  21.8205
    21.8481  21.8481  21.8502  21.8938  21.9021  21.9021  21.9562  21.9978
    21.9978  22.0610  22.0610  22.1125  22.1218  22.1218  22.1884  22.1884
    22.2508  22.6400  22.6400  22.8994  22.9082  22.9852  22.9852  23.0534
    23.0799  23.0799  23.2882  23.4541  23.4541  23.6321  23.6546  23.6546
    23.9042  23.9153  23.9153  23.9706  24.1109  24.1109  24.2657  24.2756
    24.2756  24.2956  24.2956  24.3214  24.3896  24.3896  24.4168  24.4392
    24.4418  24.4418  25.7406  25.7406  25.8004  26.1097  26.1097  26.1751
    26.1784  26.1784

          k = 0.0556 0.0556 0.1667 ( 30207 PWs)   bands (ev):

   -50.7821 -50.7265 -50.7215 -50.6736 -50.6719 -50.6654 -50.6651 -50.6477
   -50.6448 -50.6336 -50.6326 -50.6315 -50.6299 -50.6099 -50.6095 -50.6080
   -50.5813 -50.5808 -50.5775 -50.5552 -50.5522 -50.5504 -50.5353 -50.5307
   -50.5292 -50.5290 -50.4976 -50.4975 -50.4965 -50.4930 -50.4920 -21.1589
   -21.1553 -21.1551 -21.1476 -21.0983 -21.0981 -21.0936 -20.9443 -20.9404
   -20.9291 -20.9249 -20.9167 -20.9081 -20.9081 -20.8960 -20.8944 -20.8859
   -20.8792 -20.8740 -20.8673 -20.8610 -20.8517 -20.8334 -20.8262 -20.8053
   -20.8014 -20.7988 -20.7869 -20.7810 -20.7538 -20.7510 -20.6992 -20.6943
   -20.6695 -20.6517 -20.6316 -20.6262 -20.6074 -20.5952 -20.5903 -20.5841
   -20.5813 -20.5701 -20.5612 -20.5597 -20.5409 -20.5354 -20.5340 -20.5313
   -20.5229 -20.5216 -20.5174 -20.5147 -20.5133 -20.5086 -20.4996 -20.4994
   -20.4982 -20.4240 -20.4223 -20.4084 -20.3862 -20.3857 -20.3687 -20.3678
   -20.3622 -20.3579 -20.3566 -20.3515 -20.3490 -20.3486 -20.3419 -20.3406
   -20.3399 -20.3225 -20.3217 -20.3095 -20.3089 -20.2980 -20.2958 -20.2917
   -20.2893 -20.2851 -20.2839 -20.2828 -20.2524 -20.2523 -20.2437 -20.2431
   -20.2371 -20.1950 -20.1775 -20.1755  14.6850  16.1125  16.2192  16.2318
    16.4205  16.4446  16.4520  16.4613  16.5713  16.6836  16.7044  16.7047
    16.8604  16.9104  17.0155  17.0345  17.2296  17.3706  17.4203  17.5418
    17.5429  17.5760  17.7290  17.7909  17.8173  17.8262  17.8519  17.8857
    17.9046  17.9581  17.9759  18.0555  18.1001  18.1299  18.1328  18.1533
    18.1631  18.2361  18.2508  18.3627  18.3821  18.4102  18.5630  18.6424
    18.6500  18.6932  18.7099  18.7749  18.7855  18.8049  18.8728  18.8850
    18.9166  18.9340  18.9526  18.9941  19.0096  19.0460  19.0956  19.1179
    19.1193  19.1651  19.1720  19.1927  19.2215  19.3178  19.3951  19.4156
    19.4207  19.4680  19.4933  19.5075  19.5302  19.5485  19.5964  19.6222
    19.6281  19.6568  19.7088  19.7102  19.7404  19.7955  19.8001  20.0212
    20.0590  20.4154  20.4534  20.5484  20.5901  20.6503  20.7224  20.7421
    20.8235  20.8562  20.9238  20.9748  21.0013  21.0939  21.1053  21.1954
    21.2084  21.2547  21.2627  21.2717  21.3322  21.4160  21.4670  21.4889
    21.5159  21.6433  21.6762  21.7028  21.7149  21.7979  21.8052  21.8774
    21.8787  21.9194  22.0051  22.0185  22.0235  22.0473  22.0612  22.1079
    22.1172  22.1206  22.2630  22.2985  22.3072  22.3103  22.3798  22.3920
    22.4564  22.5055  22.5956  22.6129  22.6563  22.7775  22.8399  22.8962
    23.0388  23.0588  23.1733  23.4286  23.4543  23.5775  23.6097  23.6201
    23.7497  23.8300  23.8427  23.8934  23.9148  24.0096  24.0798  24.1603
    24.2050  24.2839  24.2970  24.3167  24.3726  24.4287  24.4342  24.5564
    24.6554  24.8252  25.2464  25.3001  25.7229  25.7363  25.8301  25.8748
    26.1714  26.3869

          k = 0.0556 0.0556 0.2778 ( 30183 PWs)   bands (ev):

   -50.7772 -50.7346 -50.7209 -50.6740 -50.6734 -50.6643 -50.6640 -50.6509
   -50.6450 -50.6358 -50.6345 -50.6315 -50.6208 -50.6089 -50.6086 -50.6048
   -50.5847 -50.5821 -50.5780 -50.5567 -50.5531 -50.5499 -50.5329 -50.5307
   -50.5267 -50.5265 -50.4988 -50.4988 -50.4961 -50.4950 -50.4926 -21.1419
   -21.1362 -21.1338 -21.1241 -21.0845 -21.0842 -21.0703 -20.9816 -20.9695
   -20.9688 -20.9521 -20.9497 -20.9472 -20.9261 -20.9058 -20.8992 -20.8955
   -20.8873 -20.8757 -20.8707 -20.8608 -20.8460 -20.8281 -20.8152 -20.8151
   -20.8029 -20.7951 -20.7828 -20.7713 -20.7349 -20.7311 -20.7009 -20.6939
   -20.6864 -20.6831 -20.6632 -20.6536 -20.6291 -20.6020 -20.6005 -20.5845
   -20.5547 -20.5521 -20.5422 -20.5277 -20.5241 -20.5236 -20.5212 -20.5120
   -20.5096 -20.5049 -20.5010 -20.4899 -20.4857 -20.4831 -20.4778 -20.4682
   -20.4559 -20.4223 -20.4185 -20.4077 -20.4069 -20.3946 -20.3851 -20.3801
   -20.3784 -20.3702 -20.3686 -20.3662 -20.3565 -20.3512 -20.3490 -20.3435
   -20.3362 -20.3302 -20.3246 -20.3166 -20.3149 -20.2984 -20.2971 -20.2925
   -20.2840 -20.2793 -20.2642 -20.2642 -20.2591 -20.2550 -20.2497 -20.2482
   -20.2362 -20.2218 -20.1875 -20.1849  14.8503  16.1275  16.2421  16.3444
    16.3470  16.5219  16.5655  16.5682  16.6062  16.7502  16.8118  16.8123
    16.9315  16.9684  17.0386  17.1258  17.1692  17.2712  17.3241  17.3335
    17.4876  17.5351  17.6027  17.6396  17.6499  17.6629  17.7104  17.8025
    17.8281  17.8336  17.8721  17.8885  17.9621  17.9855  18.0048  18.1341
    18.1429  18.2284  18.2485  18.2789  18.4148  18.5389  18.5479  18.5800
    18.5971  18.6221  18.6281  18.6500  18.6966  18.7171  18.7752  18.8097
    18.8498  18.9041  18.9543  18.9792  18.9940  19.0756  19.1246  19.1276
    19.1716  19.1758  19.2165  19.2224  19.2432  19.3081  19.3755  19.4329
    19.4786  19.5091  19.5131  19.5615  19.5989  19.6089  19.8081  19.8136
    19.8453  19.8470  19.8896  19.9046  19.9696  20.0108  20.0970  20.1191
    20.1940  20.3195  20.3229  20.3739  20.3888  20.5321  20.5326  20.5586
    20.6256  20.6617  20.6792  21.0248  21.0548  21.1274  21.2275  21.2645
    21.3208  21.3660  21.4228  21.4467  21.4643  21.4831  21.5154  21.5868
    21.6392  21.6558  21.6730  21.7074  21.8233  21.8594  21.8650  21.8788
    21.8937  21.9324  21.9902  22.0026  22.0809  22.0957  22.1000  22.1374
    22.1628  22.2395  22.2782  22.2939  22.3053  22.3929  22.4775  22.5902
    22.6079  22.6415  22.6471  22.7056  22.7396  22.7609  22.9898  22.9961
    23.0120  23.0246  23.2076  23.2859  23.3649  23.4463  23.5047  23.5545
    23.5592  23.6491  23.7224  23.7294  23.7667  23.8358  23.9086  23.9400
    24.0646  24.0787  24.1028  24.3707  24.4286  24.4330  24.5352  24.7462
    24.7864  24.9521  25.0973  25.2377  25.2421  25.2993  25.4681  25.6525
    26.0650  26.2864

          k = 0.0556 0.0556 0.3889 ( 30161 PWs)   bands (ev):

   -50.7711 -50.7434 -50.7203 -50.6744 -50.6738 -50.6637 -50.6625 -50.6536
   -50.6451 -50.6381 -50.6363 -50.6315 -50.6115 -50.6081 -50.6079 -50.6019
   -50.5897 -50.5835 -50.5781 -50.5576 -50.5537 -50.5498 -50.5308 -50.5304
   -50.5245 -50.5242 -50.5002 -50.5001 -50.4971 -50.4955 -50.4933 -21.1173
   -21.1120 -21.1029 -21.0940 -21.0655 -21.0650 -21.0369 -21.0235 -21.0161
   -21.0082 -20.9966 -20.9796 -20.9778 -20.9430 -20.9232 -20.9016 -20.8992
   -20.8947 -20.8861 -20.8783 -20.8639 -20.8271 -20.8253 -20.8114 -20.8022
   -20.7886 -20.7786 -20.7729 -20.7612 -20.7537 -20.7382 -20.7158 -20.7017
   -20.6966 -20.6802 -20.6671 -20.6665 -20.6480 -20.6176 -20.6148 -20.5838
   -20.5460 -20.5433 -20.5232 -20.5169 -20.5162 -20.5105 -20.5082 -20.4865
   -20.4837 -20.4783 -20.4706 -20.4687 -20.4605 -20.4584 -20.4481 -20.4393
   -20.4328 -20.4306 -20.4211 -20.4148 -20.4100 -20.4011 -20.3998 -20.3925
   -20.3908 -20.3831 -20.3805 -20.3760 -20.3731 -20.3604 -20.3493 -20.3480
   -20.3448 -20.3366 -20.3296 -20.3188 -20.3144 -20.3004 -20.2971 -20.2943
   -20.2778 -20.2742 -20.2732 -20.2624 -20.2594 -20.2534 -20.2465 -20.2422
   -20.2395 -20.2366 -20.2019 -20.1992  15.0873  15.7777  16.3833  16.4799
    16.5005  16.6673  16.7161  16.7312  16.7519  16.8198  16.8371  16.9369
    16.9566  16.9619  17.0132  17.0934  17.1369  17.1562  17.2491  17.2512
    17.2597  17.3664  17.4089  17.4421  17.5213  17.5357  17.5895  17.7056
    17.7402  17.7971  17.8266  17.8757  17.9398  17.9965  18.0562  18.0971
    18.1393  18.1859  18.2576  18.2958  18.3723  18.3981  18.4233  18.4943
    18.5050  18.5445  18.5849  18.6226  18.6264  18.6769  18.7064  18.8222
    18.8433  18.8985  18.9451  18.9612  19.0351  19.0550  19.1348  19.1675
    19.2089  19.2205  19.2331  19.2597  19.2985  19.3303  19.3587  19.3780
    19.4548  19.4855  19.5351  19.5797  19.6794  19.6910  19.9166  19.9211
    19.9584  19.9960  19.9997  20.0006  20.0025  20.1076  20.1448  20.1784
    20.1855  20.2705  20.3706  20.3771  20.3966  20.4720  20.4943  20.6004
    20.6072  20.8594  20.8600  21.0024  21.1992  21.2310  21.2972  21.3135
    21.3738  21.4662  21.4678  21.5214  21.5326  21.5729  21.5995  21.6000
    21.6150  21.6198  21.6630  21.6757  21.6958  21.6960  21.7422  21.7744
    21.7976  21.8081  21.8698  21.8801  21.9034  22.0069  22.0373  22.1224
    22.1460  22.1989  22.3613  22.4421  22.4866  22.5133  22.5874  22.6278
    22.7476  22.8577  22.9218  22.9469  22.9630  23.0218  23.0592  23.1283
    23.1840  23.2251  23.2947  23.3386  23.4045  23.4621  23.4738  23.5030
    23.5319  23.5467  23.5652  23.6247  23.6651  23.6652  23.7586  23.8003
    23.8061  23.8470  23.9142  24.2908  24.3090  24.3711  24.4294  24.4323
    24.6247  24.7288  24.7783  24.9167  25.3150  25.4320  25.5025  25.8917
    25.9177  26.1102

          k = 0.0556 0.0556-0.5000 ( 30178 PWs)   bands (ev):

   -50.7673 -50.7482 -50.7201 -50.6743 -50.6741 -50.6635 -50.6617 -50.6548
   -50.6451 -50.6392 -50.6370 -50.6315 -50.6079 -50.6076 -50.6064 -50.6006
   -50.5932 -50.5842 -50.5781 -50.5579 -50.5539 -50.5498 -50.5308 -50.5293
   -50.5236 -50.5233 -50.5007 -50.5007 -50.4980 -50.4951 -50.4937 -21.0988
   -21.0970 -21.0735 -21.0706 -21.0554 -21.0496 -21.0448 -21.0421 -21.0393
   -21.0333 -20.9995 -20.9937 -20.9919 -20.9851 -20.9188 -20.9081 -20.8993
   -20.8893 -20.8872 -20.8872 -20.8677 -20.8222 -20.8106 -20.8101 -20.7936
   -20.7888 -20.7753 -20.7640 -20.7548 -20.7441 -20.7428 -20.7420 -20.7236
   -20.7000 -20.6893 -20.6584 -20.6493 -20.6480 -20.6317 -20.6257 -20.5837
   -20.5472 -20.5436 -20.5219 -20.5119 -20.5115 -20.5087 -20.4789 -20.4701
   -20.4674 -20.4633 -20.4599 -20.4537 -20.4494 -20.4457 -20.4424 -20.4401
   -20.4356 -20.4296 -20.4244 -20.4196 -20.4147 -20.4121 -20.4091 -20.4038
   -20.3944 -20.3894 -20.3887 -20.3749 -20.3708 -20.3577 -20.3494 -20.3491
   -20.3445 -20.3307 -20.3291 -20.3179 -20.3106 -20.3090 -20.3055 -20.2965
   -20.2951 -20.2732 -20.2682 -20.2662 -20.2655 -20.2540 -20.2512 -20.2379
   -20.2245 -20.2224 -20.2165 -20.2141  15.3147  15.5034  16.4982  16.6084
    16.6183  16.6590  16.7675  16.8548  16.8560  16.8784  16.8954  16.9033
    16.9147  16.9232  16.9817  17.0058  17.0598  17.1278  17.1286  17.2491
    17.2801  17.3052  17.3605  17.4127  17.4219  17.5007  17.5109  17.5710
    17.6198  17.8776  17.9051  17.9151  17.9873  17.9952  18.0191  18.0990
    18.1336  18.1870  18.2384  18.2665  18.3124  18.3401  18.3757  18.4452
    18.4909  18.4938  18.5685  18.5898  18.6266  18.6407  18.6773  18.8131
    18.8578  18.8836  18.9490  19.0121  19.0683  19.1196  19.1346  19.1869
    19.1919  19.2387  19.2468  19.2513  19.2541  19.3067  19.3411  19.4034
    19.4043  19.4853  19.7103  19.7134  19.7407  19.7510  19.7969  19.8357
    19.8481  19.8645  20.0116  20.0765  20.0962  20.1148  20.1672  20.1728
    20.1888  20.2179  20.2192  20.2298  20.3797  20.7435  20.7515  20.9375
    20.9791  20.9864  21.0515  21.0719  21.0902  21.0945  21.1586  21.2422
    21.3111  21.3241  21.4132  21.4853  21.4997  21.5916  21.6199  21.6392
    21.6452  21.6594  21.6763  21.6799  21.6935  21.6977  21.7125  21.7403
    21.7600  21.7923  21.7938  21.8238  21.8554  21.9492  21.9670  22.0352
    22.0440  22.1725  22.3043  22.3112  22.3530  22.7382  22.7877  22.9375
    22.9985  23.0068  23.0176  23.1154  23.1250  23.1294  23.1379  23.2344
    23.2579  23.2849  23.3031  23.3058  23.3183  23.3507  23.4140  23.4167
    23.4502  23.4584  23.4675  23.5716  23.6568  23.7868  23.8398  23.8443
    23.8485  23.8663  23.9266  24.0266  24.2502  24.2548  24.2648  24.3030
    24.3711  24.4303  24.4319  25.1505  25.2500  25.5107  25.7776  25.7866
    25.9129  26.2810

          k = 0.0556 0.1667 0.1667 ( 30215 PWs)   bands (ev):

   -50.7796 -50.7278 -50.7238 -50.6758 -50.6737 -50.6646 -50.6638 -50.6502
   -50.6433 -50.6340 -50.6325 -50.6319 -50.6257 -50.6092 -50.6083 -50.6072
   -50.5819 -50.5819 -50.5784 -50.5581 -50.5524 -50.5478 -50.5350 -50.5291
   -50.5291 -50.5273 -50.4983 -50.4975 -50.4972 -50.4938 -50.4928 -21.1523
   -21.1519 -21.1416 -21.1301 -21.0910 -21.0880 -21.0861 -20.9582 -20.9536
   -20.9419 -20.9250 -20.9250 -20.9151 -20.9124 -20.9070 -20.9030 -20.8979
   -20.8902 -20.8859 -20.8844 -20.8807 -20.8769 -20.8311 -20.8205 -20.8020
   -20.7928 -20.7905 -20.7791 -20.7669 -20.7510 -20.7482 -20.7091 -20.6998
   -20.6847 -20.6449 -20.6201 -20.6190 -20.6140 -20.5978 -20.5866 -20.5833
   -20.5730 -20.5657 -20.5603 -20.5462 -20.5408 -20.5287 -20.5284 -20.5237
   -20.5231 -20.5180 -20.5161 -20.5073 -20.4934 -20.4919 -20.4909 -20.4827
   -20.4793 -20.4213 -20.4199 -20.4003 -20.3975 -20.3869 -20.3828 -20.3764
   -20.3694 -20.3614 -20.3598 -20.3579 -20.3564 -20.3530 -20.3504 -20.3485
   -20.3332 -20.3273 -20.3150 -20.3137 -20.3034 -20.3006 -20.2972 -20.2958
   -20.2857 -20.2832 -20.2754 -20.2751 -20.2571 -20.2542 -20.2447 -20.2435
   -20.2350 -20.2151 -20.1821 -20.1744  14.7679  16.1694  16.2727  16.2812
    16.4436  16.4870  16.5226  16.5299  16.5639  16.6802  16.7320  16.7453
    16.7628  16.9374  17.0692  17.0723  17.2313  17.3879  17.4169  17.4376
    17.5819  17.5840  17.6240  17.6541  17.6686  17.7317  17.7689  17.8064
    17.8373  17.8738  17.9366  17.9753  17.9817  18.0066  18.0642  18.1547
    18.1779  18.2083  18.2331  18.3050  18.3163  18.4013  18.4323  18.4798
    18.5538  18.6610  18.6938  18.7371  18.7989  18.8218  18.8495  18.8810
    18.8997  18.9367  18.9819  18.9979  19.0145  19.0534  19.1269  19.1629
    19.2225  19.2437  19.3141  19.3313  19.3542  19.4107  19.4176  19.4430
    19.4879  19.5365  19.5577  19.5710  19.6090  19.6138  19.6514  19.6558
    19.6694  19.7158  19.7159  19.7451  19.8022  19.8139  19.8295  20.0506
    20.0598  20.3310  20.4083  20.5227  20.5424  20.5573  20.6432  20.7643
    20.8089  20.8960  20.9423  20.9626  20.9967  21.0218  21.0663  21.0749
    21.1112  21.1280  21.2155  21.3484  21.3708  21.3991  21.4273  21.4746
    21.5152  21.5257  21.6754  21.7304  21.8346  21.8936  21.9224  22.0030
    22.0053  22.0282  22.0290  22.0391  22.0415  22.0911  22.1767  22.1886
    22.2115  22.2609  22.2668  22.3078  22.3844  22.3906  22.4367  22.5094
    22.5301  22.5721  22.5734  22.6116  22.6455  22.6787  22.7461  22.8874
    23.0802  23.1327  23.3032  23.3277  23.4134  23.4671  23.5212  23.5496
    23.5878  23.7362  23.7853  23.8500  23.8837  23.9476  23.9655  24.0615
    24.0808  24.2043  24.2689  24.2751  24.3004  24.3154  24.3522  24.5348
    24.8033  25.1027  25.1143  25.2755  25.3083  25.7193  25.7679  26.2040
    26.3891  26.4048

          k = 0.0556 0.1667 0.2778 ( 30157 PWs)   bands (ev):

   -50.7748 -50.7342 -50.7240 -50.6780 -50.6741 -50.6639 -50.6633 -50.6544
   -50.6416 -50.6357 -50.6327 -50.6315 -50.6183 -50.6081 -50.6074 -50.6048
   -50.5850 -50.5831 -50.5790 -50.5604 -50.5533 -50.5457 -50.5335 -50.5291
   -50.5267 -50.5249 -50.4995 -50.4987 -50.4968 -50.4957 -50.4935 -21.1389
   -21.1358 -21.1186 -21.1038 -21.0770 -21.0747 -21.0649 -20.9915 -20.9821
   -20.9610 -20.9563 -20.9435 -20.9377 -20.9341 -20.9234 -20.9137 -20.9066
   -20.8996 -20.8963 -20.8874 -20.8844 -20.8770 -20.8414 -20.8287 -20.8126
   -20.7988 -20.7690 -20.7611 -20.7519 -20.7503 -20.7309 -20.7085 -20.6972
   -20.6859 -20.6563 -20.6427 -20.6384 -20.6217 -20.5970 -20.5869 -20.5726
   -20.5670 -20.5526 -20.5454 -20.5404 -20.5276 -20.5245 -20.5198 -20.5162
   -20.5046 -20.4956 -20.4918 -20.4824 -20.4792 -20.4746 -20.4709 -20.4561
   -20.4503 -20.4202 -20.4145 -20.4118 -20.4083 -20.3979 -20.3878 -20.3873
   -20.3813 -20.3750 -20.3691 -20.3658 -20.3625 -20.3594 -20.3558 -20.3465
   -20.3435 -20.3328 -20.3221 -20.3200 -20.3059 -20.3041 -20.3002 -20.2940
   -20.2822 -20.2694 -20.2669 -20.2626 -20.2593 -20.2546 -20.2504 -20.2477
   -20.2400 -20.2312 -20.1922 -20.1794  14.9305  16.1891  16.2930  16.3890
    16.3994  16.5273  16.5875  16.6462  16.6608  16.7484  16.8028  16.8469
    16.8708  16.9877  17.0387  17.1498  17.2009  17.2613  17.3284  17.3427
    17.4163  17.4922  17.4991  17.5238  17.5987  17.6319  17.6786  17.7085
    17.7364  17.7493  17.8180  17.8548  17.8891  17.8975  18.0075  18.0704
    18.1075  18.1358  18.2645  18.2735  18.2950  18.4273  18.4446  18.4637
    18.5311  18.5845  18.5912  18.6407  18.6877  18.7232  18.7888  18.8444
    18.8790  18.9091  18.9593  19.0057  19.0249  19.0735  19.1670  19.2457
    19.2537  19.3008  19.3335  19.3646  19.4173  19.4279  19.4666  19.4989
    19.5689  19.5862  19.6092  19.6212  19.6881  19.7034  19.7166  19.7731
    19.8347  19.8758  19.8791  19.9311  19.9743  20.0408  20.0609  20.0911
    20.1533  20.2762  20.3075  20.3642  20.4777  20.5154  20.5495  20.5934
    20.6269  20.6955  20.8082  20.8568  20.9680  21.0325  21.0510  21.0866
    21.2214  21.2791  21.3117  21.3743  21.3930  21.4257  21.4507  21.5126
    21.5795  21.6653  21.7569  21.7710  21.8313  21.8498  21.8578  21.9126
    21.9274  21.9690  21.9997  22.0121  22.0470  22.1043  22.1342  22.2319
    22.2571  22.2812  22.3132  22.3808  22.4382  22.5177  22.5633  22.6042
    22.6282  22.7145  22.8102  22.8359  22.8624  22.8773  22.8937  22.9101
    22.9715  23.0156  23.1932  23.2485  23.3933  23.4508  23.4864  23.5285
    23.6358  23.6434  23.6782  23.7034  23.7900  23.8595  23.9244  23.9406
    24.0237  24.0846  24.0875  24.1751  24.2579  24.3053  24.3192  24.3330
    24.7081  24.7541  25.0948  25.2227  25.5240  25.7102  25.7382  25.8569
    25.9126  26.7527

          k = 0.0556 0.1667 0.3889 ( 30138 PWs)   bands (ev):

   -50.7687 -50.7424 -50.7234 -50.6785 -50.6747 -50.6644 -50.6619 -50.6578
   -50.6406 -50.6378 -50.6326 -50.6317 -50.6100 -50.6074 -50.6067 -50.6022
   -50.5896 -50.5845 -50.5793 -50.5618 -50.5540 -50.5449 -50.5313 -50.5291
   -50.5245 -50.5227 -50.5007 -50.5000 -50.4978 -50.4963 -50.4941 -21.1170
   -21.1120 -21.0893 -21.0752 -21.0582 -21.0561 -21.0339 -21.0271 -21.0205
   -20.9953 -20.9871 -20.9782 -20.9720 -20.9485 -20.9311 -20.9280 -20.9174
   -20.9140 -20.9064 -20.8897 -20.8743 -20.8577 -20.8510 -20.8339 -20.8088
   -20.8012 -20.7739 -20.7537 -20.7388 -20.7302 -20.7208 -20.7128 -20.6886
   -20.6801 -20.6647 -20.6575 -20.6500 -20.6462 -20.6127 -20.6050 -20.5717
   -20.5476 -20.5427 -20.5286 -20.5241 -20.5161 -20.5129 -20.5046 -20.5000
   -20.4893 -20.4778 -20.4716 -20.4652 -20.4606 -20.4495 -20.4436 -20.4368
   -20.4355 -20.4267 -20.4216 -20.4171 -20.4089 -20.4042 -20.3997 -20.3972
   -20.3920 -20.3840 -20.3807 -20.3736 -20.3667 -20.3617 -20.3569 -20.3552
   -20.3471 -20.3366 -20.3345 -20.3231 -20.3110 -20.3061 -20.3024 -20.2966
   -20.2898 -20.2773 -20.2731 -20.2612 -20.2581 -20.2493 -20.2476 -20.2446
   -20.2346 -20.2271 -20.2067 -20.1906  15.1637  15.8423  16.4390  16.5240
    16.5422  16.6538  16.7279  16.8100  16.8215  16.8361  16.8915  16.8989
    16.9657  16.9869  17.0033  17.0665  17.0944  17.1471  17.1909  17.2611
    17.2978  17.3110  17.3706  17.4032  17.4606  17.5286  17.5516  17.5619
    17.6400  17.7628  17.7720  17.8181  17.8452  17.9234  17.9625  18.0145
    18.1053  18.2129  18.2437  18.2846  18.2926  18.3446  18.3828  18.4170
    18.4672  18.4703  18.5249  18.5907  18.6482  18.6965  18.7253  18.7481
    18.8402  18.9027  18.9449  19.0186  19.0749  19.0784  19.1981  19.2712
    19.2881  19.3229  19.3622  19.3842  19.4204  19.4400  19.4726  19.4993
    19.5207  19.5888  19.6149  19.6644  19.7089  19.8248  19.8818  19.9425
    19.9891  20.0065  20.0470  20.0723  20.0947  20.1013  20.1367  20.1677
    20.2143  20.2573  20.3425  20.3614  20.3984  20.4297  20.5459  20.5684
    20.5902  20.7673  20.8033  20.9471  20.9877  21.0271  21.0480  21.1406
    21.2261  21.2902  21.3258  21.3337  21.3690  21.3862  21.4638  21.4822
    21.5245  21.6029  21.6588  21.7063  21.7466  21.7703  21.8061  21.8637
    21.8818  21.9296  21.9948  22.0074  22.0516  22.0930  22.1798  22.1886
    22.2793  22.3500  22.3967  22.4192  22.4939  22.5397  22.5864  22.6428
    22.6943  22.8193  22.9349  22.9807  22.9868  23.0363  23.0979  23.1415
    23.1700  23.1923  23.2754  23.2916  23.3118  23.3833  23.4815  23.5126
    23.5423  23.6194  23.6411  23.6949  23.7197  23.7624  23.7657  23.8280
    23.8700  23.9079  24.0157  24.2041  24.2391  24.2592  24.3055  24.3118
    24.4706  24.7085  24.9401  24.9972  25.2052  25.2856  25.4766  26.0312
    26.3513  26.5978

          k = 0.0556 0.1667-0.5000 ( 30170 PWs)   bands (ev):

   -50.7650 -50.7471 -50.7231 -50.6783 -50.6751 -50.6647 -50.6604 -50.6599
   -50.6397 -50.6391 -50.6325 -50.6320 -50.6071 -50.6065 -50.6053 -50.6010
   -50.5930 -50.5852 -50.5793 -50.5623 -50.5543 -50.5448 -50.5303 -50.5292
   -50.5236 -50.5219 -50.5013 -50.5007 -50.4987 -50.4959 -50.4945 -21.0977
   -21.0945 -21.0739 -21.0687 -21.0466 -21.0398 -21.0377 -21.0292 -21.0244
   -21.0165 -21.0002 -20.9947 -20.9895 -20.9873 -20.9302 -20.9266 -20.9232
   -20.9176 -20.9108 -20.8905 -20.8641 -20.8608 -20.8454 -20.8279 -20.8232
   -20.7869 -20.7863 -20.7534 -20.7361 -20.7201 -20.7065 -20.7021 -20.6944
   -20.6929 -20.6710 -20.6663 -20.6496 -20.6371 -20.6281 -20.6159 -20.5715
   -20.5504 -20.5429 -20.5213 -20.5141 -20.5057 -20.4995 -20.4896 -20.4856
   -20.4781 -20.4705 -20.4695 -20.4572 -20.4530 -20.4504 -20.4457 -20.4363
   -20.4347 -20.4335 -20.4243 -20.4158 -20.4151 -20.4024 -20.3982 -20.3979
   -20.3943 -20.3797 -20.3751 -20.3730 -20.3712 -20.3620 -20.3570 -20.3568
   -20.3503 -20.3455 -20.3348 -20.3218 -20.3194 -20.3149 -20.3093 -20.3018
   -20.2976 -20.2801 -20.2695 -20.2623 -20.2609 -20.2485 -20.2443 -20.2334
   -20.2294 -20.2213 -20.2135 -20.2029  15.3883  15.5711  16.5635  16.6471
    16.6623  16.6996  16.8030  16.8241  16.8289  16.8856  16.9098  16.9238
    16.9343  16.9979  17.0036  17.0629  17.0848  17.0949  17.1478  17.1842
    17.2055  17.2632  17.3089  17.3182  17.4075  17.4248  17.4628  17.5496
    17.5868  17.7442  17.7715  17.8992  17.9098  17.9151  17.9774  18.0444
    18.0654  18.1158  18.1368  18.3111  18.3164  18.3654  18.3922  18.4354
    18.4399  18.4637  18.5280  18.5506  18.5720  18.6019  18.6570  18.7429
    18.8340  18.8479  19.0344  19.0888  19.0942  19.1557  19.1635  19.2241
    19.2321  19.3215  19.3509  19.3758  19.4152  19.4556  19.4625  19.5678
    19.5703  19.5940  19.7114  19.7495  19.7953  19.8028  19.8393  19.8437
    19.9391  19.9857  19.9937  20.0895  20.0901  20.1639  20.1882  20.2221
    20.2428  20.2719  20.2848  20.3222  20.4255  20.6329  20.6611  20.7717
    20.8252  20.9060  20.9095  20.9364  20.9410  20.9636  21.0003  21.0083
    21.0247  21.1606  21.2768  21.3093  21.3466  21.4595  21.4672  21.5167
    21.5542  21.5747  21.5922  21.6364  21.6677  21.7063  21.7529  21.8730
    21.9115  21.9327  21.9481  22.0392  22.0476  22.0587  22.1615  22.2103
    22.2416  22.3355  22.4069  22.4152  22.4382  22.4614  22.7443  22.7746
    22.8153  22.9023  22.9838  23.0107  23.0822  23.1113  23.1775  23.2609
    23.2690  23.3090  23.3377  23.4296  23.4431  23.4578  23.4604  23.4638
    23.4739  23.4948  23.5089  23.5102  23.5432  23.6263  23.6437  23.7981
    23.8047  23.8615  24.2029  24.2259  24.2508  24.3066  24.3101  24.5264
    24.5488  24.6897  24.7124  24.7623  24.7790  25.2226  25.3063  26.3346
    26.3761  26.8116

          k = 0.0556 0.2778 0.2778 ( 30150 PWs)   bands (ev):

   -50.7702 -50.7353 -50.7282 -50.6811 -50.6751 -50.6642 -50.6632 -50.6583
   -50.6386 -50.6361 -50.6324 -50.6293 -50.6133 -50.6068 -50.6059 -50.6043
   -50.5859 -50.5852 -50.5805 -50.5633 -50.5544 -50.5415 -50.5336 -50.5267
   -50.5267 -50.5226 -50.5006 -50.4988 -50.4979 -50.4971 -50.4945 -21.1271
   -21.1256 -21.0943 -21.0761 -21.0624 -21.0584 -21.0522 -21.0080 -20.9943
   -20.9795 -20.9664 -20.9584 -20.9457 -20.9377 -20.9321 -20.9285 -20.9211
   -20.9172 -20.9087 -20.9051 -20.9004 -20.8907 -20.8733 -20.8489 -20.8126
   -20.8126 -20.7718 -20.7527 -20.7279 -20.7254 -20.7164 -20.6966 -20.6966
   -20.6808 -20.6563 -20.6355 -20.6242 -20.5984 -20.5964 -20.5777 -20.5705
   -20.5653 -20.5546 -20.5512 -20.5320 -20.5232 -20.5143 -20.5136 -20.5086
   -20.5067 -20.4911 -20.4807 -20.4776 -20.4702 -20.4650 -20.4593 -20.4355
   -20.4328 -20.4307 -20.4292 -20.4123 -20.4070 -20.4008 -20.3944 -20.3934
   -20.3872 -20.3745 -20.3725 -20.3715 -20.3695 -20.3664 -20.3585 -20.3552
   -20.3500 -20.3312 -20.3303 -20.3200 -20.3129 -20.3047 -20.2973 -20.2907
   -20.2852 -20.2777 -20.2737 -20.2689 -20.2640 -20.2524 -20.2480 -20.2422
   -20.2388 -20.2226 -20.2026 -20.1783  15.0877  16.2784  16.3378  16.4093
    16.4965  16.5129  16.5891  16.6639  16.7793  16.8211  16.8967  16.9185
    16.9756  17.0386  17.1045  17.1161  17.1912  17.1979  17.2584  17.2610
    17.3087  17.3489  17.3755  17.3918  17.4949  17.5185  17.5389  17.6599
    17.7127  17.7457  17.7655  17.7872  17.8117  17.8936  17.9107  17.9386
    18.0031  18.0825  18.1629  18.1637  18.2472  18.2938  18.3369  18.4321
    18.4835  18.4938  18.6213  18.6271  18.6463  18.6600  18.7068  18.7987
    18.9006  18.9036  19.0131  19.0914  19.1980  19.2536  19.2823  19.3128
    19.3574  19.3628  19.3721  19.4570  19.4666  19.5335  19.5386  19.5771
    19.5989  19.6027  19.6420  19.7584  19.7871  19.7944  19.9006  19.9198
    19.9221  19.9547  19.9919  20.0233  20.0249  20.0685  20.0837  20.1117
    20.1486  20.2136  20.2569  20.3705  20.4342  20.5008  20.5733  20.6166
    20.6481  20.7145  20.7608  20.8499  20.9076  20.9147  20.9382  21.0233
    21.0272  21.0520  21.2008  21.2127  21.2558  21.2860  21.3995  21.4437
    21.4555  21.5751  21.6028  21.6874  21.7572  21.7641  21.8908  21.9047
    21.9954  22.0060  22.0414  22.0538  22.1904  22.2626  22.2811  22.3657
    22.3667  22.4464  22.4652  22.4869  22.5333  22.5743  22.5956  22.6363
    22.6482  22.7038  22.8129  22.8417  22.9130  22.9468  22.9712  23.0464
    23.0995  23.1267  23.1365  23.2340  23.3108  23.3857  23.5408  23.5644
    23.5796  23.6983  23.7436  23.7924  23.8776  23.8881  23.8982  23.9350
    23.9765  24.0597  24.0661  24.0820  24.0916  24.1212  24.1235  24.1932
    24.5701  24.5999  24.6494  25.1005  25.1502  26.1950  26.2428  26.2635
    26.5185  26.5722

          k = 0.0556 0.2778 0.3889 ( 30193 PWs)   bands (ev):

   -50.7642 -50.7410 -50.7292 -50.6821 -50.6767 -50.6652 -50.6639 -50.6595
   -50.6385 -50.6368 -50.6309 -50.6278 -50.6071 -50.6058 -50.6053 -50.6027
   -50.5896 -50.5864 -50.5813 -50.5652 -50.5553 -50.5394 -50.5323 -50.5268
   -50.5246 -50.5206 -50.5018 -50.5004 -50.4989 -50.4976 -50.4952 -21.1088
   -21.1052 -21.0671 -21.0551 -21.0438 -21.0385 -21.0289 -21.0255 -21.0193
   -20.9976 -20.9814 -20.9715 -20.9666 -20.9644 -20.9536 -20.9422 -20.9377
   -20.9369 -20.9173 -20.9088 -20.8982 -20.8911 -20.8760 -20.8587 -20.8290
   -20.8132 -20.7862 -20.7495 -20.7363 -20.7010 -20.6933 -20.6820 -20.6721
   -20.6696 -20.6575 -20.6322 -20.6289 -20.6196 -20.5974 -20.5851 -20.5535
   -20.5496 -20.5472 -20.5367 -20.5350 -20.5268 -20.5125 -20.5044 -20.5003
   -20.4890 -20.4715 -20.4672 -20.4661 -20.4643 -20.4558 -20.4505 -20.4459
   -20.4372 -20.4306 -20.4245 -20.4216 -20.4103 -20.4096 -20.3970 -20.3933
   -20.3871 -20.3824 -20.3794 -20.3735 -20.3702 -20.3684 -20.3634 -20.3550
   -20.3448 -20.3378 -20.3345 -20.3278 -20.3176 -20.3122 -20.3080 -20.2999
   -20.2947 -20.2785 -20.2769 -20.2665 -20.2581 -20.2567 -20.2514 -20.2310
   -20.2238 -20.2172 -20.2139 -20.1838  15.3134  15.9671  16.4862  16.5417
    16.6139  16.6578  16.6850  16.7654  16.9335  16.9371  16.9555  16.9787
    16.9801  17.0140  17.0363  17.0622  17.1085  17.1409  17.1537  17.1929
    17.2359  17.2687  17.3008  17.3580  17.3709  17.4925  17.5188  17.5255
    17.5588  17.6086  17.6704  17.7428  17.8071  17.8362  17.9054  17.9199
    17.9516  17.9948  18.0937  18.1227  18.1687  18.2379  18.3331  18.3918
    18.4037  18.4978  18.5033  18.5597  18.6164  18.7329  18.7806  18.8018
    18.8606  18.9215  19.0153  19.0741  19.1354  19.2188  19.3150  19.3283
    19.3796  19.3975  19.5135  19.5235  19.5397  19.5715  19.6220  19.6473
    19.6884  19.7530  19.7969  19.8263  19.8611  19.8854  19.9230  19.9621
    19.9850  20.0218  20.0777  20.0853  20.1410  20.1638  20.2002  20.2518
    20.2675  20.3007  20.3184  20.3673  20.4131  20.4771  20.5238  20.5604
    20.6323  20.6424  20.7045  20.7675  20.8058  20.8356  20.9032  20.9329
    20.9958  21.0189  21.0742  21.0916  21.1470  21.2404  21.2740  21.2886
    21.3131  21.4214  21.5797  21.6256  21.7024  21.7443  21.7834  21.8973
    21.9910  22.0305  22.0828  22.1294  22.1481  22.2573  22.2703  22.2912
    22.3827  22.4218  22.4876  22.5537  22.6508  22.6730  22.7121  22.7783
    22.8083  22.8242  22.9018  22.9763  22.9990  23.0461  23.1053  23.2129
    23.2571  23.2710  23.3206  23.3735  23.3819  23.4026  23.4333  23.5096
    23.5484  23.5876  23.6086  23.6776  23.7454  23.7611  23.7670  23.7925
    23.8302  23.8871  24.0392  24.0577  24.0821  24.1258  24.1650  24.4665
    24.5629  24.6087  24.6652  24.7071  24.9866  25.8150  25.9307  26.6567
    26.8460  27.1209

          k = 0.0556 0.2778-0.5000 ( 30164 PWs)   bands (ev):

   -50.7604 -50.7453 -50.7290 -50.6820 -50.6777 -50.6657 -50.6643 -50.6595
   -50.6390 -50.6368 -50.6303 -50.6272 -50.6057 -50.6050 -50.6032 -50.6017
   -50.5924 -50.5869 -50.5816 -50.5658 -50.5557 -50.5390 -50.5313 -50.5268
   -50.5238 -50.5198 -50.5023 -50.5012 -50.4995 -50.4974 -50.4955 -21.0916
   -21.0871 -21.0690 -21.0630 -21.0303 -21.0275 -21.0207 -21.0114 -21.0098
   -21.0007 -20.9930 -20.9889 -20.9869 -20.9866 -20.9672 -20.9548 -20.9470
   -20.9391 -20.9194 -20.9133 -20.8981 -20.8790 -20.8712 -20.8572 -20.8466
   -20.8043 -20.7966 -20.7491 -20.7442 -20.7007 -20.6751 -20.6679 -20.6642
   -20.6631 -20.6457 -20.6442 -20.6297 -20.6167 -20.6162 -20.6006 -20.5534
   -20.5465 -20.5408 -20.5395 -20.5108 -20.5050 -20.5028 -20.4996 -20.4961
   -20.4914 -20.4852 -20.4783 -20.4682 -20.4575 -20.4537 -20.4465 -20.4455
   -20.4323 -20.4310 -20.4242 -20.4120 -20.4071 -20.4043 -20.3982 -20.3958
   -20.3910 -20.3855 -20.3844 -20.3798 -20.3731 -20.3712 -20.3608 -20.3523
   -20.3478 -20.3416 -20.3389 -20.3329 -20.3215 -20.3119 -20.3105 -20.3034
   -20.2979 -20.2837 -20.2737 -20.2661 -20.2618 -20.2548 -20.2399 -20.2318
   -20.2265 -20.2201 -20.2040 -20.1910  15.5331  15.7026  16.6539  16.6927
    16.7151  16.7152  16.7445  16.7988  16.8270  16.8497  16.8999  16.9277
    16.9514  17.0238  17.0440  17.0986  17.1259  17.1599  17.1887  17.2089
    17.2240  17.2538  17.2654  17.3446  17.3574  17.3925  17.3981  17.4230
    17.5064  17.6545  17.6599  17.7267  17.7737  17.8213  17.8455  17.8859
    17.9906  18.0113  18.0136  18.1172  18.1412  18.2297  18.3205  18.3710
    18.4088  18.4553  18.4738  18.5211  18.7424  18.7431  18.8196  18.8228
    18.8583  18.9363  18.9432  18.9932  19.0284  19.2007  19.2904  19.3211
    19.3824  19.5235  19.5403  19.5645  19.5995  19.6149  19.6390  19.6821
    19.7305  19.7608  19.7726  19.8410  19.8417  19.9544  19.9738  20.0225
    20.0378  20.1216  20.1275  20.1478  20.1603  20.2094  20.2202  20.2373
    20.3198  20.3438  20.4118  20.4360  20.4516  20.4805  20.5043  20.5408
    20.5961  20.6411  20.6882  20.7146  20.7319  20.7424  20.7583  20.7779
    20.9303  20.9943  21.0549  21.0724  21.2257  21.2898  21.3240  21.3580
    21.4107  21.4307  21.4521  21.4914  21.5351  21.6971  21.7042  21.7843
    21.9236  21.9877  22.0573  22.1242  22.1812  22.2765  22.3062  22.3334
    22.3403  22.4330  22.4549  22.6929  22.7091  22.7484  22.7870  22.8214
    22.9014  22.9136  23.0069  23.0135  23.1022  23.1061  23.1509  23.2098
    23.2631  23.2656  23.3697  23.4169  23.4592  23.4747  23.4932  23.5563
    23.5574  23.5808  23.5989  23.6033  23.6053  23.6216  23.6306  23.7137
    23.7194  23.8335  24.0422  24.0771  24.1032  24.1330  24.1391  24.2575
    24.2920  24.7730  24.8340  25.1198  25.2452  25.3094  25.3341  26.9764
    27.0376  27.3829

          k = 0.0556 0.3889 0.3889 ( 30175 PWs)   bands (ev):

   -50.7582 -50.7408 -50.7353 -50.6838 -50.6795 -50.6660 -50.6659 -50.6590
   -50.6383 -50.6380 -50.6267 -50.6254 -50.6045 -50.6042 -50.6031 -50.6026
   -50.5899 -50.5888 -50.5834 -50.5673 -50.5564 -50.5352 -50.5326 -50.5248
   -50.5248 -50.5188 -50.5028 -50.5021 -50.4990 -50.4989 -50.4959 -21.0945
   -21.0885 -21.0463 -21.0440 -21.0338 -21.0265 -21.0263 -21.0165 -21.0088
   -20.9979 -20.9890 -20.9876 -20.9762 -20.9654 -20.9594 -20.9500 -20.9466
   -20.9450 -20.9405 -20.9273 -20.9144 -20.9051 -20.8958 -20.8770 -20.8560
   -20.8191 -20.8000 -20.7523 -20.7417 -20.7042 -20.6714 -20.6619 -20.6507
   -20.6395 -20.6344 -20.6158 -20.6071 -20.5942 -20.5748 -20.5700 -20.5633
   -20.5632 -20.5500 -20.5406 -20.5231 -20.5216 -20.5052 -20.5000 -20.4967
   -20.4900 -20.4885 -20.4802 -20.4777 -20.4620 -20.4616 -20.4573 -20.4523
   -20.4373 -20.4359 -20.4241 -20.4236 -20.4184 -20.4049 -20.3981 -20.3944
   -20.3888 -20.3878 -20.3864 -20.3810 -20.3760 -20.3652 -20.3603 -20.3485
   -20.3458 -20.3400 -20.3381 -20.3219 -20.3188 -20.3162 -20.3145 -20.2958
   -20.2867 -20.2790 -20.2751 -20.2750 -20.2670 -20.2604 -20.2589 -20.2320
   -20.2156 -20.2151 -20.2040 -20.1824  15.5288  16.1021  16.2012  16.6463
    16.6642  16.7478  16.7809  16.7965  16.8654  16.9609  16.9893  17.0175
    17.0403  17.0830  17.0974  17.1007  17.1080  17.1155  17.1430  17.1792
    17.2217  17.2569  17.2600  17.3144  17.3756  17.4157  17.4516  17.4523
    17.5732  17.5977  17.6176  17.6306  17.6427  17.6952  17.7177  17.8135
    17.8766  17.8800  17.9169  18.0778  18.1390  18.1711  18.2841  18.3169
    18.3193  18.4476  18.5212  18.5527  18.5937  18.7053  18.7516  18.8737
    18.9182  19.0073  19.0210  19.1306  19.3040  19.3242  19.3499  19.3523
    19.5389  19.5493  19.5895  19.6618  19.6791  19.6948  19.7038  19.7106
    19.7879  19.7944  19.8203  19.8928  19.9713  19.9843  20.0381  20.0517
    20.1187  20.1236  20.1362  20.1830  20.2416  20.2559  20.2773  20.2873
    20.3214  20.3315  20.3851  20.4452  20.4592  20.4827  20.5120  20.5154
    20.5509  20.5728  20.6485  20.6603  20.6691  20.6753  20.7115  20.7624
    20.8104  20.8141  20.8224  20.9572  20.9836  20.9853  21.0217  21.1523
    21.2882  21.3823  21.4346  21.4744  21.5011  21.5340  21.5750  21.8620
    21.9182  22.0736  22.1230  22.1412  22.3015  22.3636  22.3837  22.4377
    22.5579  22.5604  22.6399  22.7218  22.7441  22.7688  22.7785  22.8416
    22.9212  22.9732  23.0801  23.0846  23.1275  23.1909  23.1979  23.2040
    23.2415  23.2523  23.3265  23.3937  23.4711  23.5255  23.5508  23.5606
    23.5670  23.5969  23.6492  23.6786  23.7001  23.7469  23.7570  23.7616
    23.7813  23.7998  23.8139  23.8313  23.8579  23.9705  24.0040  24.0315
    24.3599  24.4795  24.5129  25.1912  25.3020  26.2993  26.5917  26.6414
    26.7333  27.3025

          k = 0.0556 0.3889-0.5000 ( 30172 PWs)   bands (ev):

   -50.7541 -50.7436 -50.7367 -50.6841 -50.6809 -50.6665 -50.6663 -50.6586
   -50.6388 -50.6381 -50.6254 -50.6243 -50.6043 -50.6038 -50.6023 -50.6005
   -50.5914 -50.5892 -50.5844 -50.5680 -50.5568 -50.5342 -50.5320 -50.5248
   -50.5239 -50.5180 -50.5032 -50.5031 -50.4996 -50.4988 -50.4962 -21.0816
   -21.0715 -21.0591 -21.0506 -21.0257 -21.0232 -21.0182 -21.0062 -21.0062
   -20.9962 -20.9887 -20.9798 -20.9747 -20.9723 -20.9696 -20.9630 -20.9564
   -20.9492 -20.9477 -20.9306 -20.9236 -20.9097 -20.8932 -20.8790 -20.8737
   -20.8181 -20.8123 -20.7526 -20.7427 -20.7069 -20.6666 -20.6660 -20.6284
   -20.6161 -20.6109 -20.6105 -20.6005 -20.5968 -20.5942 -20.5665 -20.5653
   -20.5437 -20.5332 -20.5317 -20.5241 -20.5217 -20.5208 -20.5121 -20.5112
   -20.4943 -20.4865 -20.4831 -20.4670 -20.4636 -20.4598 -20.4572 -20.4449
   -20.4360 -20.4336 -20.4265 -20.4249 -20.4220 -20.4158 -20.4117 -20.4012
   -20.3952 -20.3946 -20.3887 -20.3771 -20.3710 -20.3586 -20.3565 -20.3472
   -20.3446 -20.3419 -20.3411 -20.3202 -20.3198 -20.3133 -20.3086 -20.2976
   -20.2839 -20.2829 -20.2794 -20.2747 -20.2671 -20.2631 -20.2532 -20.2465
   -20.2122 -20.2092 -20.1996 -20.1835  15.7434  15.8857  16.3250  16.4681
    16.7966  16.8336  16.8477  16.8676  16.8788  16.9368  16.9484  16.9598
    17.0035  17.0142  17.0787  17.1019  17.1117  17.1601  17.2110  17.2343
    17.2893  17.3118  17.3178  17.3248  17.3328  17.3886  17.4085  17.4509
    17.4572  17.4696  17.5552  17.6307  17.6686  17.6804  17.6975  17.7409
    17.7548  17.7917  17.8529  18.0923  18.1677  18.1987  18.2686  18.2725
    18.3479  18.3695  18.4225  18.4977  18.6488  18.6767  18.7264  18.9677
    19.0157  19.0515  19.0800  19.2354  19.2874  19.2894  19.3026  19.3092
    19.3879  19.5675  19.6181  19.7025  19.7310  19.7630  19.7736  19.8765
    19.8964  19.9634  19.9648  19.9913  20.0128  20.0652  20.0974  20.1110
    20.1202  20.1777  20.1977  20.2246  20.2369  20.2536  20.2799  20.2962
    20.3265  20.3392  20.3534  20.3729  20.3995  20.4469  20.4707  20.4906
    20.4937  20.5143  20.5327  20.5627  20.5769  20.6129  20.6734  20.7221
    20.7461  20.8422  20.9163  20.9599  21.0107  21.0429  21.1220  21.1534
    21.1543  21.1905  21.2002  21.2464  21.3306  21.4342  21.5162  21.8723
    21.9514  22.1140  22.1180  22.1898  22.3375  22.3550  22.5242  22.5498
    22.5857  22.6200  22.6452  22.6491  22.7358  22.8827  22.9135  22.9430
    22.9596  23.0501  23.0507  23.0748  23.1217  23.1844  23.2653  23.2937
    23.3555  23.3875  23.4226  23.4555  23.4811  23.5433  23.5529  23.5824
    23.5913  23.6039  23.6258  23.6576  23.6809  23.6838  23.6897  23.7077
    23.7239  23.7677  23.7688  23.8356  23.8401  23.8755  23.8890  24.0038
    24.0300  24.3625  24.3714  25.6828  25.9303  25.9716  25.9733  27.1542
    27.2548  27.3481

          k = 0.0556-0.5000-0.5000 ( 30184 PWs)   bands (ev):

   -50.7485 -50.7429 -50.7429 -50.6847 -50.6823 -50.6668 -50.6668 -50.6583
   -50.6388 -50.6388 -50.6234 -50.6234 -50.6039 -50.6034 -50.6023 -50.5990
   -50.5904 -50.5904 -50.5861 -50.5688 -50.5572 -50.5323 -50.5323 -50.5240
   -50.5240 -50.5173 -50.5041 -50.5037 -50.4995 -50.4995 -50.4964 -21.0746
   -21.0538 -21.0499 -21.0392 -21.0392 -21.0325 -21.0325 -21.0192 -20.9869
   -20.9869 -20.9819 -20.9752 -20.9725 -20.9690 -20.9663 -20.9663 -20.9564
   -20.9530 -20.9371 -20.9371 -20.9344 -20.9117 -20.9117 -20.9096 -20.8844
   -20.8212 -20.8212 -20.7520 -20.7427 -20.7097 -20.6668 -20.6668 -20.5974
   -20.5964 -20.5964 -20.5958 -20.5929 -20.5829 -20.5722 -20.5606 -20.5606
   -20.5585 -20.5402 -20.5402 -20.5324 -20.5324 -20.5255 -20.5023 -20.4948
   -20.4948 -20.4822 -20.4822 -20.4810 -20.4762 -20.4735 -20.4621 -20.4612
   -20.4345 -20.4325 -20.4325 -20.4285 -20.4200 -20.4195 -20.4156 -20.4032
   -20.4032 -20.3970 -20.3970 -20.3652 -20.3652 -20.3496 -20.3489 -20.3473
   -20.3463 -20.3463 -20.3458 -20.3254 -20.3167 -20.3087 -20.3000 -20.2842
   -20.2842 -20.2802 -20.2802 -20.2774 -20.2732 -20.2630 -20.2614 -20.2614
   -20.2051 -20.2051 -20.2001 -20.1811  15.9893  16.0350  16.0350  16.2862
    16.8737  16.8783  16.8783  16.9412  16.9412  16.9477  16.9563  17.0141
    17.0141  17.0180  17.0890  17.0978  17.1195  17.1195  17.1843  17.1843
    17.2113  17.3426  17.3901  17.4153  17.4153  17.4241  17.4330  17.4640
    17.4896  17.4896  17.5032  17.5258  17.5334  17.5875  17.5890  17.5890
    17.6029  17.8507  17.8507  17.9934  18.1594  18.1594  18.1821  18.2624
    18.4269  18.4383  18.4666  18.4666  18.5665  18.5671  18.5671  19.0435
    19.0521  19.1926  19.1926  19.2636  19.3017  19.3584  19.3584  19.5129
    19.5425  19.5759  19.5759  19.7717  19.7717  19.7956  19.8078  19.8217
    19.8217  19.8670  19.9493  19.9997  20.1097  20.1341  20.2014  20.2014
    20.2044  20.2133  20.2297  20.2297  20.2509  20.2509  20.3386  20.3525
    20.3691  20.3691  20.3728  20.3826  20.3919  20.4408  20.5014  20.5014
    20.5075  20.5146  20.5465  20.5465  20.5467  20.6969  20.6969  20.7247
    20.7474  20.7474  20.7869  20.8091  20.8617  20.9091  20.9618  20.9618
    20.9856  20.9856  21.0064  21.0433  21.4051  21.4361  21.4361  21.8936
    21.9582  22.1455  22.1455  22.3653  22.3786  22.4236  22.4236  22.6191
    22.6191  22.6795  22.7476  22.7751  22.7947  22.8344  22.8344  22.9004
    22.9004  23.0072  23.2533  23.2926  23.3502  23.3726  23.3726  23.4314
    23.4314  23.4348  23.4432  23.4559  23.4817  23.4817  23.5076  23.5173
    23.6094  23.6109  23.6109  23.6415  23.6698  23.6995  23.6995  23.7178
    23.7196  23.7196  23.7213  23.7466  23.7488  23.7488  23.7906  23.9618
    24.0000  24.0000  24.0679  26.0727  26.5680  26.6007  26.6205  26.6205
    26.6500  26.8031

          k = 0.1667 0.1667 0.1667 ( 30217 PWs)   bands (ev):

   -50.7771 -50.7273 -50.7273 -50.6799 -50.6739 -50.6637 -50.6637 -50.6476
   -50.6476 -50.6355 -50.6298 -50.6298 -50.6230 -50.6091 -50.6068 -50.6068
   -50.5826 -50.5826 -50.5794 -50.5618 -50.5483 -50.5483 -50.5352 -50.5277
   -50.5277 -50.5269 -50.4983 -50.4979 -50.4979 -50.4941 -50.4941 -21.1426
   -21.1426 -21.1416 -21.1090 -21.0817 -21.0817 -21.0783 -20.9592 -20.9592
   -20.9590 -20.9324 -20.9324 -20.9232 -20.9216 -20.9162 -20.9162 -20.9112
   -20.9092 -20.9092 -20.8881 -20.8881 -20.8792 -20.8199 -20.8199 -20.8085
   -20.7950 -20.7950 -20.7696 -20.7585 -20.7477 -20.7477 -20.7005 -20.7005
   -20.6715 -20.6395 -20.6342 -20.6342 -20.5826 -20.5826 -20.5823 -20.5739
   -20.5739 -20.5624 -20.5554 -20.5413 -20.5413 -20.5295 -20.5256 -20.5256
   -20.5247 -20.5247 -20.5207 -20.5024 -20.4873 -20.4873 -20.4731 -20.4593
   -20.4593 -20.4213 -20.4213 -20.3946 -20.3915 -20.3914 -20.3914 -20.3847
   -20.3716 -20.3716 -20.3682 -20.3646 -20.3630 -20.3630 -20.3570 -20.3570
   -20.3273 -20.3180 -20.3180 -20.3132 -20.3132 -20.3049 -20.2901 -20.2901
   -20.2847 -20.2763 -20.2736 -20.2736 -20.2584 -20.2584 -20.2401 -20.2401
   -20.2364 -20.2357 -20.1793 -20.1793  14.8492  16.2239  16.3262  16.3262
    16.4483  16.5638  16.5809  16.5809  16.6170  16.6170  16.7722  16.7990
    16.7990  16.7994  17.1112  17.1112  17.2271  17.4147  17.4476  17.4476
    17.4531  17.5013  17.5013  17.6387  17.6387  17.6489  17.7061  17.7310
    17.7310  17.8712  17.9002  17.9002  17.9174  17.9174  18.0187  18.0187
    18.0330  18.2048  18.2453  18.2453  18.2547  18.3433  18.3433  18.4192
    18.6127  18.6127  18.6797  18.7961  18.7961  18.8314  18.8835  18.8906
    18.9243  18.9243  19.0322  19.0322  19.0976  19.1173  19.1173  19.2090
    19.2090  19.2469  19.3056  19.3056  19.3310  19.4643  19.5201  19.5201
    19.6158  19.6158  19.6245  19.6442  19.6773  19.6775  19.6775  19.6870
    19.6870  19.7588  19.7588  19.7691  19.8435  19.8435  19.8795  20.0795
    20.0795  20.2913  20.4521  20.4521  20.4913  20.4913  20.6738  20.7509
    20.8055  20.8055  20.8320  20.8320  20.9176  20.9398  21.1295  21.1724
    21.1724  21.1786  21.1897  21.1897  21.3821  21.4490  21.4490  21.5270
    21.5270  21.6377  21.6377  21.7579  21.8179  21.8304  21.8304  21.8932
    21.9838  22.0001  22.0001  22.0271  22.0271  22.0289  22.0543  22.0543
    22.1665  22.3017  22.3017  22.5061  22.5245  22.5245  22.5700  22.6426
    22.6426  22.6829  22.6829  22.7942  22.8296  22.8683  22.8688  22.8688
    23.1823  23.1823  23.2167  23.2576  23.2576  23.3695  23.4936  23.4936
    23.5343  23.5343  23.6160  23.7162  23.7162  23.9018  23.9862  24.0552
    24.0552  24.1883  24.2095  24.2095  24.2387  24.2387  24.3219  24.7004
    24.7004  24.7562  25.2039  25.3169  25.3169  26.1236  26.1236  26.3386
    26.3973  26.4662

          k = 0.1667 0.1667 0.2778 ( 30175 PWs)   bands (ev):

   -50.7724 -50.7337 -50.7263 -50.6828 -50.6744 -50.6646 -50.6637 -50.6521
   -50.6445 -50.6368 -50.6291 -50.6282 -50.6165 -50.6081 -50.6062 -50.6047
   -50.5852 -50.5839 -50.5802 -50.5648 -50.5490 -50.5453 -50.5342 -50.5276
   -50.5255 -50.5245 -50.4995 -50.4992 -50.4976 -50.4962 -50.4946 -21.1328
   -21.1251 -21.1216 -21.0801 -21.0695 -21.0675 -21.0592 -20.9952 -20.9789
   -20.9688 -20.9632 -20.9505 -20.9468 -20.9353 -20.9277 -20.9247 -20.9237
   -20.9157 -20.9018 -20.9011 -20.8982 -20.8977 -20.8460 -20.8246 -20.8168
   -20.7853 -20.7807 -20.7603 -20.7507 -20.7293 -20.7246 -20.6935 -20.6926
   -20.6689 -20.6547 -20.6542 -20.6082 -20.6057 -20.5952 -20.5919 -20.5753
   -20.5710 -20.5441 -20.5430 -20.5322 -20.5277 -20.5218 -20.5149 -20.5143
   -20.5087 -20.5068 -20.4956 -20.4950 -20.4770 -20.4739 -20.4604 -20.4460
   -20.4356 -20.4195 -20.4159 -20.4151 -20.4049 -20.4004 -20.3930 -20.3901
   -20.3826 -20.3787 -20.3737 -20.3715 -20.3700 -20.3642 -20.3605 -20.3587
   -20.3374 -20.3331 -20.3215 -20.3208 -20.3145 -20.3048 -20.2930 -20.2906
   -20.2782 -20.2683 -20.2664 -20.2635 -20.2611 -20.2591 -20.2563 -20.2429
   -20.2364 -20.2323 -20.1887 -20.1820  15.0085  16.2427  16.3395  16.4301
    16.4477  16.5135  16.6676  16.6783  16.7192  16.7235  16.8221  16.8617
    16.9018  16.9024  17.0498  17.1699  17.2235  17.2563  17.2653  17.3226
    17.3603  17.4415  17.4664  17.5277  17.5531  17.5788  17.6389  17.6839
    17.6939  17.7390  17.7634  17.7901  17.8097  17.8591  17.9260  17.9437
    18.0613  18.0666  18.0931  18.2042  18.2625  18.3284  18.4148  18.5216
    18.5650  18.6347  18.6503  18.6941  18.7322  18.7391  18.7645  18.8227
    18.8645  18.9566  18.9966  19.0227  19.0837  19.1210  19.1511  19.1752
    19.2934  19.3197  19.3671  19.4449  19.4602  19.5363  19.5488  19.5754
    19.6352  19.6424  19.6838  19.6963  19.7011  19.7380  19.7565  19.7652
    19.8355  19.8894  19.9026  19.9954  20.0010  20.0477  20.0957  20.1158
    20.1568  20.2692  20.3093  20.4018  20.4193  20.4720  20.5669  20.5804
    20.5915  20.6802  20.7473  20.8295  20.8321  20.9171  21.0723  21.1281
    21.2082  21.3261  21.3472  21.3542  21.4275  21.4346  21.4446  21.4651
    21.5846  21.6012  21.6404  21.6581  21.7269  21.7323  21.7458  21.7723
    21.9217  21.9354  21.9771  21.9850  22.0075  22.0842  22.0867  22.1680
    22.2479  22.2690  22.3878  22.3941  22.5482  22.5982  22.7116  22.7505
    22.7685  22.8320  22.8373  22.8751  22.8904  22.9511  22.9847  23.0350
    23.0354  23.0474  23.2486  23.3160  23.3692  23.4373  23.4431  23.5321
    23.5893  23.5935  23.6174  23.6596  23.7728  23.8457  23.9396  23.9536
    23.9862  24.0132  24.0566  24.1470  24.2013  24.2087  24.2589  24.2848
    24.2925  24.6229  25.3743  25.5144  25.7103  25.7857  26.0258  26.1313
    26.2705  26.3512

          k = 0.1667 0.1667 0.3889 ( 30171 PWs)   bands (ev):

   -50.7664 -50.7415 -50.7255 -50.6835 -50.6752 -50.6659 -50.6639 -50.6551
   -50.6420 -50.6382 -50.6292 -50.6277 -50.6089 -50.6072 -50.6057 -50.6025
   -50.5896 -50.5854 -50.5804 -50.5667 -50.5496 -50.5440 -50.5321 -50.5277
   -50.5236 -50.5224 -50.5008 -50.5005 -50.4983 -50.4971 -50.4951 -21.1139
   -21.1028 -21.0925 -21.0598 -21.0530 -21.0452 -21.0297 -21.0241 -21.0110
   -21.0069 -20.9873 -20.9819 -20.9555 -20.9475 -20.9446 -20.9367 -20.9320
   -20.9245 -20.9229 -20.9096 -20.8940 -20.8852 -20.8669 -20.8356 -20.8317
   -20.7593 -20.7580 -20.7497 -20.7461 -20.7083 -20.7078 -20.6975 -20.6870
   -20.6679 -20.6651 -20.6555 -20.6357 -20.6294 -20.6144 -20.6002 -20.5676
   -20.5503 -20.5473 -20.5338 -20.5281 -20.5134 -20.5081 -20.4960 -20.4912
   -20.4868 -20.4854 -20.4794 -20.4678 -20.4615 -20.4542 -20.4510 -20.4435
   -20.4337 -20.4304 -20.4293 -20.4127 -20.4120 -20.4062 -20.4052 -20.3990
   -20.3903 -20.3825 -20.3819 -20.3791 -20.3700 -20.3630 -20.3572 -20.3558
   -20.3487 -20.3364 -20.3339 -20.3302 -20.3140 -20.3083 -20.3045 -20.3008
   -20.2976 -20.2758 -20.2631 -20.2603 -20.2567 -20.2452 -20.2418 -20.2405
   -20.2315 -20.2281 -20.2021 -20.1915  15.2371  15.9011  16.4851  16.5696
    16.5745  16.6184  16.8093  16.8112  16.8579  16.8657  16.8827  16.9082
    16.9404  16.9904  17.0209  17.0361  17.0698  17.1239  17.2109  17.2140
    17.2734  17.3312  17.3328  17.3481  17.4843  17.5201  17.5763  17.5894
    17.5897  17.6388  17.6979  17.7483  17.8008  17.8326  17.8459  17.9999
    18.0094  18.0839  18.1373  18.2029  18.2798  18.3473  18.4162  18.4376
    18.4949  18.5226  18.5359  18.6185  18.6607  18.6928  18.7335  18.7403
    18.8630  18.9356  19.0046  19.0201  19.0824  19.1038  19.2037  19.2258
    19.3053  19.3169  19.4332  19.4391  19.5000  19.5163  19.5392  19.5870
    19.6752  19.6930  19.7103  19.7457  19.8358  19.8656  19.9034  19.9497
    20.0324  20.0537  20.0613  20.0743  20.0892  20.1351  20.1633  20.1663
    20.1816  20.2260  20.3177  20.3522  20.3821  20.4398  20.5320  20.6020
    20.6406  20.6859  20.7547  20.7889  20.7907  20.8140  21.0244  21.0609
    21.1377  21.1962  21.2935  21.3862  21.4546  21.4597  21.4905  21.5176
    21.5665  21.5864  21.6426  21.6540  21.6575  21.7025  21.7198  21.7485
    21.8019  21.8245  21.8912  21.9464  21.9494  22.0209  22.1186  22.1619
    22.2219  22.3984  22.4034  22.5117  22.5779  22.5811  22.6550  22.7172
    22.7858  22.8772  22.9495  22.9782  22.9903  23.1387  23.1464  23.1751
    23.1770  23.2007  23.2180  23.2290  23.2454  23.3065  23.5346  23.5433
    23.6231  23.6310  23.7684  23.7698  23.7766  23.7952  23.8163  23.8420
    23.9117  24.0237  24.0478  24.1511  24.1695  24.1827  24.2067  24.2176
    24.2526  24.4668  25.1868  25.2845  25.5400  25.6060  25.7603  26.0251
    26.2145  26.6771

          k = 0.1667 0.1667-0.5000 ( 30122 PWs)   bands (ev):

   -50.7627 -50.7460 -50.7252 -50.6834 -50.6757 -50.6665 -50.6640 -50.6560
   -50.6404 -50.6395 -50.6292 -50.6277 -50.6068 -50.6055 -50.6045 -50.6014
   -50.5928 -50.5861 -50.5804 -50.5674 -50.5498 -50.5438 -50.5310 -50.5277
   -50.5227 -50.5216 -50.5013 -50.5011 -50.4992 -50.4968 -50.4955 -21.0950
   -21.0891 -21.0735 -21.0616 -21.0488 -21.0353 -21.0318 -21.0315 -21.0068
   -21.0003 -21.0003 -20.9926 -20.9867 -20.9809 -20.9459 -20.9384 -20.9367
   -20.9246 -20.9237 -20.9156 -20.8837 -20.8804 -20.8718 -20.8502 -20.8323
   -20.7597 -20.7569 -20.7261 -20.7195 -20.7166 -20.7107 -20.6883 -20.6880
   -20.6782 -20.6647 -20.6589 -20.6405 -20.6372 -20.6294 -20.6069 -20.5672
   -20.5549 -20.5353 -20.5268 -20.5081 -20.5035 -20.5005 -20.4992 -20.4936
   -20.4772 -20.4693 -20.4598 -20.4597 -20.4558 -20.4557 -20.4501 -20.4473
   -20.4458 -20.4321 -20.4265 -20.4230 -20.4173 -20.4096 -20.3996 -20.3952
   -20.3920 -20.3770 -20.3749 -20.3739 -20.3736 -20.3710 -20.3622 -20.3605
   -20.3501 -20.3451 -20.3414 -20.3344 -20.3155 -20.3136 -20.3072 -20.3043
   -20.3018 -20.2824 -20.2595 -20.2588 -20.2559 -20.2408 -20.2408 -20.2350
   -20.2250 -20.2148 -20.2140 -20.2026  15.4580  15.6345  16.6169  16.6890
    16.6935  16.7176  16.7682  16.7781  16.8522  16.8839  16.9375  16.9556
    16.9998  17.0034  17.0063  17.0066  17.0408  17.1091  17.1110  17.1457
    17.2489  17.2911  17.3039  17.3474  17.3782  17.3971  17.4834  17.5047
    17.5302  17.6331  17.7323  17.7817  17.8009  17.8644  17.8845  17.9458
    17.9698  18.2115  18.2245  18.2306  18.2610  18.3168  18.3358  18.3455
    18.3860  18.4744  18.5589  18.5681  18.6152  18.6395  18.7399  18.7893
    18.8691  18.8994  18.9840  19.0535  19.1186  19.1374  19.1855  19.2364
    19.2932  19.3268  19.3617  19.4097  19.5200  19.5208  19.6686  19.6686
    19.6859  19.7024  19.7759  19.8177  19.8333  19.8469  19.9277  19.9285
    19.9586  19.9672  20.0200  20.0757  20.1401  20.1608  20.2221  20.2509
    20.2569  20.3197  20.3464  20.3977  20.4513  20.5062  20.6079  20.6837
    20.7144  20.7305  20.7666  20.7699  20.7899  20.8374  20.8462  20.8864
    21.0254  21.1478  21.2169  21.3744  21.4791  21.5022  21.5133  21.5351
    21.5733  21.6115  21.6260  21.6434  21.6483  21.7243  21.7360  21.7427
    21.7766  21.7789  21.8321  21.8484  21.8572  22.0477  22.1069  22.1542
    22.1791  22.2218  22.3460  22.6573  22.7069  22.8119  22.8345  22.8396
    22.8462  22.8476  22.8575  22.8756  22.9282  22.9369  23.0874  23.2197
    23.2271  23.4096  23.4561  23.4621  23.4964  23.5005  23.5045  23.5100
    23.5163  23.5466  23.5506  23.5522  23.5586  23.5690  23.5859  23.8655
    23.8759  23.8854  24.1705  24.2228  24.2337  24.2424  24.2814  24.6485
    24.6642  24.6716  24.7814  24.8678  24.8773  25.6999  25.9384  25.9478
    26.0705  27.2477

          k = 0.1667 0.2778 0.2778 ( 30156 PWs)   bands (ev):

   -50.7679 -50.7345 -50.7297 -50.6866 -50.6753 -50.6659 -50.6658 -50.6523
   -50.6435 -50.6379 -50.6262 -50.6253 -50.6123 -50.6071 -50.6050 -50.6043
   -50.5861 -50.5859 -50.5816 -50.5685 -50.5483 -50.5419 -50.5343 -50.5256
   -50.5252 -50.5227 -50.5005 -50.4993 -50.4986 -50.4975 -50.4958 -21.1193
   -21.1171 -21.1025 -21.0571 -21.0541 -21.0506 -21.0446 -21.0069 -20.9922
   -20.9831 -20.9682 -20.9642 -20.9583 -20.9511 -20.9498 -20.9416 -20.9319
   -20.9275 -20.9236 -20.9136 -20.9086 -20.8983 -20.8639 -20.8420 -20.8271
   -20.7975 -20.7595 -20.7418 -20.7312 -20.7176 -20.6963 -20.6960 -20.6743
   -20.6691 -20.6611 -20.6331 -20.6119 -20.6089 -20.5917 -20.5742 -20.5699
   -20.5549 -20.5547 -20.5392 -20.5272 -20.5259 -20.5224 -20.5200 -20.5057
   -20.5033 -20.4974 -20.4929 -20.4862 -20.4674 -20.4657 -20.4583 -20.4395
   -20.4371 -20.4324 -20.4224 -20.4084 -20.4076 -20.4066 -20.4003 -20.3922
   -20.3912 -20.3877 -20.3793 -20.3745 -20.3714 -20.3681 -20.3670 -20.3498
   -20.3492 -20.3362 -20.3294 -20.3222 -20.3190 -20.3086 -20.3031 -20.2846
   -20.2809 -20.2726 -20.2671 -20.2634 -20.2627 -20.2494 -20.2455 -20.2401
   -20.2353 -20.2252 -20.1956 -20.1827  15.1613  16.3178  16.3752  16.4405
    16.5269  16.5500  16.5685  16.7371  16.8159  16.8308  16.8600  16.9509
    16.9572  17.0010  17.0883  17.0936  17.1455  17.1807  17.2284  17.2469
    17.3156  17.3599  17.3737  17.4609  17.4839  17.5672  17.5685  17.6034
    17.6421  17.6640  17.6873  17.7002  17.7385  17.7686  17.8509  17.9325
    17.9990  18.0301  18.0583  18.0585  18.2001  18.2583  18.3923  18.4680
    18.5485  18.5696  18.6529  18.6661  18.6752  18.7256  18.7877  18.8050
    18.8745  18.9289  19.0421  19.0484  19.0735  19.2043  19.2409  19.3428
    19.3487  19.3701  19.4416  19.4806  19.5223  19.5418  19.6057  19.6111
    19.6594  19.6909  19.7233  19.7743  19.8011  19.8744  19.9339  19.9583
    19.9710  19.9750  20.0149  20.0367  20.0807  20.0887  20.1335  20.1371
    20.1772  20.2629  20.2895  20.3350  20.3593  20.5011  20.5134  20.5310
    20.5719  20.6157  20.7000  20.7377  20.8172  20.8971  21.0482  21.0937
    21.1332  21.1389  21.1409  21.2255  21.2753  21.3664  21.4346  21.4700
    21.4881  21.5187  21.5750  21.6263  21.6345  21.7010  21.7415  21.8802
    21.9166  21.9457  21.9942  22.0107  22.0511  22.0608  22.1373  22.1992
    22.2123  22.2355  22.3254  22.3815  22.5168  22.5363  22.6268  22.6476
    22.7881  22.7986  22.9530  22.9649  23.0539  23.1431  23.1549  23.1795
    23.1882  23.2343  23.2665  23.3522  23.3548  23.4457  23.5030  23.5306
    23.5560  23.5913  23.6242  23.6966  23.8584  23.9209  23.9249  23.9612
    23.9925  24.0298  24.0408  24.1008  24.1227  24.1350  24.1373  24.1649
    24.1962  24.2274  25.3575  25.6576  25.7140  26.1558  26.2520  26.3293
    26.5319  26.8030

          k = 0.1667 0.2778 0.3889 ( 30187 PWs)   bands (ev):

   -50.7620 -50.7401 -50.7299 -50.6880 -50.6768 -50.6676 -50.6673 -50.6532
   -50.6414 -50.6388 -50.6250 -50.6236 -50.6065 -50.6061 -50.6046 -50.6028
   -50.5897 -50.5872 -50.5823 -50.5709 -50.5487 -50.5397 -50.5329 -50.5255
   -50.5235 -50.5208 -50.5017 -50.5007 -50.4994 -50.4984 -50.4964 -21.1034
   -21.0970 -21.0759 -21.0475 -21.0415 -21.0332 -21.0226 -21.0191 -21.0072
   -20.9988 -20.9923 -20.9775 -20.9743 -20.9674 -20.9529 -20.9519 -20.9468
   -20.9419 -20.9270 -20.9203 -20.9163 -20.9066 -20.8834 -20.8611 -20.8376
   -20.7800 -20.7538 -20.7354 -20.7137 -20.7018 -20.6887 -20.6739 -20.6685
   -20.6632 -20.6576 -20.6380 -20.6191 -20.6101 -20.5954 -20.5871 -20.5649
   -20.5582 -20.5433 -20.5411 -20.5277 -20.5161 -20.5110 -20.4983 -20.4940
   -20.4858 -20.4782 -20.4744 -20.4728 -20.4702 -20.4628 -20.4577 -20.4508
   -20.4431 -20.4342 -20.4292 -20.4231 -20.4163 -20.4137 -20.4106 -20.3971
   -20.3921 -20.3910 -20.3791 -20.3781 -20.3736 -20.3707 -20.3660 -20.3603
   -20.3531 -20.3418 -20.3371 -20.3271 -20.3150 -20.3123 -20.3115 -20.2914
   -20.2861 -20.2730 -20.2655 -20.2613 -20.2527 -20.2464 -20.2403 -20.2326
   -20.2257 -20.2171 -20.2085 -20.1875  15.3808  16.0142  16.4978  16.5652
    16.6324  16.6495  16.6867  16.8174  16.8527  16.8874  16.9450  16.9527
    16.9934  17.0020  17.0421  17.0735  17.1144  17.1425  17.1903  17.2146
    17.2459  17.2894  17.3410  17.3605  17.3941  17.4554  17.5169  17.5238
    17.5652  17.6118  17.6140  17.6708  17.7079  17.7276  17.7522  17.8683
    17.9202  18.0221  18.0524  18.1958  18.2097  18.2689  18.2947  18.3932
    18.4405  18.4737  18.4993  18.5914  18.6710  18.7288  18.8289  18.8638
    18.8781  18.8965  18.9941  19.0552  19.1189  19.1463  19.2610  19.3155
    19.3958  19.4408  19.4992  19.5401  19.6017  19.6637  19.6803  19.7354
    19.7807  19.8316  19.8622  19.8767  19.9040  19.9370  19.9749  20.0005
    20.0175  20.0373  20.0520  20.0820  20.1001  20.1741  20.2367  20.2434
    20.2973  20.3039  20.3118  20.3406  20.3741  20.4707  20.5044  20.5205
    20.5438  20.6077  20.6261  20.6742  20.7314  20.8157  20.8406  20.9079
    20.9547  21.0655  21.0904  21.1353  21.2164  21.3098  21.3264  21.3737
    21.4623  21.4868  21.6044  21.6470  21.6643  21.7316  21.7575  21.7808
    21.8404  21.8739  21.9332  21.9774  22.0174  22.0686  22.1111  22.1412
    22.1665  22.2258  22.3985  22.4086  22.5077  22.5976  22.6416  22.7070
    22.8384  22.9030  23.0166  23.0463  23.0809  23.1012  23.2052  23.2179
    23.3033  23.3318  23.3659  23.4195  23.4379  23.4574  23.4777  23.5648
    23.5903  23.6255  23.6478  23.7161  23.7759  23.7981  23.8143  23.8244
    23.8894  23.9308  24.0232  24.0301  24.0665  24.0757  24.1222  24.1618
    24.6629  24.7207  25.1716  25.3769  25.5841  25.8528  26.1321  26.4533
    26.7999  26.9956

          k = 0.1667 0.2778-0.5000 ( 30158 PWs)   bands (ev):

   -50.7583 -50.7443 -50.7296 -50.6882 -50.6776 -50.6681 -50.6681 -50.6536
   -50.6402 -50.6396 -50.6247 -50.6231 -50.6057 -50.6044 -50.6029 -50.6020
   -50.5924 -50.5878 -50.5824 -50.5717 -50.5489 -50.5393 -50.5318 -50.5256
   -50.5226 -50.5200 -50.5022 -50.5015 -50.5002 -50.4982 -50.4967 -21.0869
   -21.0821 -21.0675 -21.0550 -21.0384 -21.0272 -21.0226 -21.0188 -21.0102
   -20.9990 -20.9954 -20.9857 -20.9776 -20.9700 -20.9636 -20.9611 -20.9538
   -20.9450 -20.9406 -20.9191 -20.9127 -20.9030 -20.8960 -20.8719 -20.8410
   -20.7536 -20.7519 -20.7468 -20.7278 -20.6821 -20.6771 -20.6672 -20.6663
   -20.6561 -20.6464 -20.6403 -20.6261 -20.6199 -20.6155 -20.5966 -20.5589
   -20.5514 -20.5412 -20.5329 -20.5166 -20.5106 -20.5032 -20.4963 -20.4895
   -20.4845 -20.4788 -20.4785 -20.4667 -20.4663 -20.4571 -20.4522 -20.4450
   -20.4422 -20.4361 -20.4304 -20.4215 -20.4170 -20.4164 -20.4125 -20.4085
   -20.4019 -20.3951 -20.3875 -20.3823 -20.3775 -20.3743 -20.3672 -20.3562
   -20.3529 -20.3476 -20.3436 -20.3247 -20.3129 -20.3054 -20.3026 -20.3020
   -20.2927 -20.2809 -20.2611 -20.2573 -20.2532 -20.2447 -20.2321 -20.2275
   -20.2233 -20.2204 -20.2076 -20.1941  15.5946  15.7573  16.6395  16.6846
    16.7117  16.7271  16.7426  16.7648  16.8037  16.8286  16.8832  16.9233
    16.9830  17.0043  17.0524  17.0871  17.1281  17.1809  17.2060  17.2244
    17.2756  17.3140  17.3286  17.3580  17.3672  17.3750  17.4014  17.4241
    17.4947  17.5297  17.5872  17.6754  17.7197  17.7480  17.7808  17.8171
    17.8968  18.0740  18.0754  18.1547  18.1661  18.2972  18.3177  18.3940
    18.3973  18.4415  18.4756  18.5900  18.6125  18.6128  18.8127  18.8810
    18.9097  18.9451  19.0280  19.0297  19.1005  19.1464  19.2418  19.2678
    19.3450  19.4737  19.5740  19.5851  19.6234  19.7184  19.7669  19.7922
    19.8124  19.8374  19.8747  19.9354  19.9402  19.9759  20.0076  20.0127
    20.0412  20.0836  20.1126  20.1194  20.1782  20.2104  20.2300  20.2361
    20.2999  20.3197  20.3524  20.4469  20.4561  20.4878  20.4908  20.5544
    20.5626  20.5770  20.5873  20.5929  20.6330  20.6644  20.6834  20.7331
    21.0009  21.0397  21.0897  21.2279  21.2283  21.2803  21.3290  21.4088
    21.5121  21.5320  21.5458  21.5678  21.5729  21.6300  21.6536  21.7573
    21.7872  21.8278  21.8544  21.9652  21.9804  22.0727  22.0984  22.1169
    22.1967  22.2573  22.3531  22.5792  22.6824  22.7097  22.7566  22.7665
    22.7847  22.8361  22.9294  23.0200  23.0245  23.1790  23.2043  23.2448
    23.2484  23.2900  23.4106  23.4378  23.5525  23.5684  23.5812  23.6103
    23.6280  23.6374  23.6468  23.6507  23.6646  23.7078  23.7185  23.8275
    23.8430  23.8794  23.8943  23.9084  24.0500  24.0974  24.1060  24.6107
    24.6670  25.1789  25.3009  25.3756  25.4217  25.5068  25.5188  26.6372
    26.6752  27.6707

          k = 0.1667 0.3889 0.3889 ( 30150 PWs)   bands (ev):

   -50.7562 -50.7399 -50.7351 -50.6902 -50.6793 -50.6693 -50.6690 -50.6529
   -50.6403 -50.6392 -50.6217 -50.6211 -50.6047 -50.6039 -50.6030 -50.6027
   -50.5902 -50.5896 -50.5841 -50.5736 -50.5491 -50.5355 -50.5331 -50.5237
   -50.5236 -50.5191 -50.5028 -50.5021 -50.4998 -50.4997 -50.4973 -21.0891
   -21.0829 -21.0526 -21.0443 -21.0291 -21.0257 -21.0235 -21.0196 -21.0053
   -20.9981 -20.9955 -20.9907 -20.9733 -20.9700 -20.9646 -20.9621 -20.9550
   -20.9530 -20.9456 -20.9453 -20.9288 -20.9088 -20.8858 -20.8757 -20.8471
   -20.7964 -20.7549 -20.7457 -20.7215 -20.6800 -20.6704 -20.6572 -20.6475
   -20.6419 -20.6377 -20.6175 -20.6036 -20.5976 -20.5812 -20.5692 -20.5656
   -20.5549 -20.5493 -20.5406 -20.5270 -20.5154 -20.5136 -20.5071 -20.4991
   -20.4895 -20.4859 -20.4832 -20.4769 -20.4695 -20.4656 -20.4632 -20.4600
   -20.4408 -20.4325 -20.4303 -20.4257 -20.4205 -20.4191 -20.4153 -20.4043
   -20.4011 -20.3902 -20.3897 -20.3861 -20.3860 -20.3818 -20.3676 -20.3669
   -20.3560 -20.3439 -20.3388 -20.3203 -20.3115 -20.3098 -20.2993 -20.2809
   -20.2742 -20.2702 -20.2693 -20.2651 -20.2567 -20.2503 -20.2459 -20.2213
   -20.2185 -20.2173 -20.2075 -20.1861  15.5871  16.1354  16.2249  16.6106
    16.6648  16.7170  16.7710  16.8048  16.8242  16.8317  16.9319  17.0160
    17.0485  17.0895  17.0941  17.1372  17.1510  17.1791  17.1880  17.2270
    17.2578  17.2665  17.2780  17.3188  17.3474  17.4148  17.4831  17.4977
    17.5111  17.5418  17.5545  17.5911  17.6219  17.6687  17.7333  17.7375
    17.8968  17.9005  17.9987  18.0798  18.1635  18.1860  18.2547  18.3476
    18.4139  18.4222  18.5776  18.5853  18.5930  18.6187  18.7165  18.8808
    18.9651  18.9953  19.0492  19.1163  19.1190  19.2157  19.3377  19.3519
    19.4299  19.6103  19.6763  19.7297  19.7367  19.7905  19.8068  19.8353
    19.8354  19.8550  19.8797  19.9338  19.9435  19.9687  20.0365  20.0570
    20.0764  20.1346  20.1356  20.1816  20.2337  20.2369  20.2839  20.3003
    20.3200  20.3377  20.3490  20.3835  20.4115  20.4260  20.4467  20.5016
    20.5041  20.5123  20.5935  20.6052  20.6606  20.6889  20.7475  20.7512
    20.7816  20.8070  20.9154  21.0347  21.0571  21.0969  21.1655  21.1957
    21.3598  21.4387  21.4400  21.4828  21.5333  21.5552  21.6309  21.7895
[...]
   -20.9763 -20.9718 -20.9716 -20.9675 -20.8739 -20.8739 -20.8664 -20.8167
   -20.7580 -20.7580 -20.7209 -20.6867 -20.6443 -20.6443 -20.6432 -20.6204
   -20.5916 -20.5883 -20.5883 -20.5872 -20.5826 -20.5761 -20.5706 -20.5706
   -20.5568 -20.5556 -20.5556 -20.5516 -20.5326 -20.5326 -20.5209 -20.5204
   -20.5204 -20.5167 -20.5002 -20.4800 -20.4787 -20.4787 -20.4687 -20.4662
   -20.4572 -20.4544 -20.4544 -20.4403 -20.4301 -20.4301 -20.4248 -20.4245
   -20.4027 -20.4027 -20.4025 -20.3983 -20.3959 -20.3959 -20.3888 -20.3851
   -20.3676 -20.3471 -20.3471 -20.3362 -20.2801 -20.2732 -20.2626 -20.2626
   -20.2570 -20.2533 -20.2519 -20.2488 -20.2488 -20.2416 -20.2416 -20.2230
   -20.2134 -20.2134 -20.2100 -20.1913  16.0849  16.1280  16.1280  16.3103
    16.5911  16.5997  16.5997  16.8037  17.0259  17.0259  17.0518  17.0558
    17.0622  17.0722  17.0722  17.1160  17.1311  17.1311  17.1938  17.1938
    17.2122  17.2400  17.2965  17.3283  17.3584  17.3584  17.3930  17.4412
    17.4961  17.5371  17.5371  17.7234  17.7319  17.7319  17.7497  17.7903
    17.9369  17.9404  17.9438  17.9438  18.1765  18.1765  18.1945  18.2139
    18.4536  18.4892  18.4892  18.4962  18.5781  18.6068  18.6068  18.7115
    18.7115  18.7452  19.1956  19.2539  19.2885  19.2930  19.3665  19.3665
    19.7123  19.7123  19.7735  19.8095  19.9524  19.9524  19.9634  20.0137
    20.0156  20.0156  20.0406  20.0818  20.0834  20.0940  20.1010  20.1010
    20.1323  20.1403  20.1614  20.1665  20.1665  20.2016  20.2016  20.2235
    20.2235  20.2323  20.2345  20.3463  20.4108  20.4309  20.4485  20.4485
    20.4751  20.4902  20.5354  20.5354  20.5893  20.6686  20.6686  20.7021
    20.8668  20.8783  20.8783  20.9228  20.9443  21.1015  21.1126  21.1460
    21.1460  21.1632  21.1632  21.2931  21.6152  21.6152  21.6742  21.7312
    21.9205  21.9205  21.9632  21.9859  21.9894  22.0235  22.0235  22.0723
    22.0991  22.1082  22.1082  22.2446  22.2554  22.3691  22.3691  22.4447
    22.5075  22.5075  22.5265  22.7095  22.7577  22.7577  22.8763  23.2224
    23.3249  23.3249  23.5970  23.6893  23.8797  23.8797  23.8938  23.9125
    23.9182  23.9224  23.9224  23.9367  23.9379  23.9388  23.9388  23.9509
    23.9736  23.9760  23.9760  24.0040  24.0116  24.0116  24.0128  25.5407
    25.5407  25.5596  25.6390  26.4462  26.8251  26.8558  26.8558  26.9037
    27.0036  27.0039

          k = 0.3889 0.3889 0.3889 ( 30196 PWs)   bands (ev):

   -50.7477 -50.7371 -50.7371 -50.7029 -50.6791 -50.6770 -50.6770 -50.6424
   -50.6424 -50.6404 -50.6111 -50.6111 -50.6045 -50.6034 -50.6034 -50.6011
   -50.5933 -50.5933 -50.5855 -50.5829 -50.5363 -50.5363 -50.5339 -50.5204
   -50.5204 -50.5197 -50.5030 -50.5024 -50.5024 -50.5021 -50.5021 -21.0674
   -21.0674 -21.0402 -21.0374 -21.0374 -21.0289 -21.0206 -21.0206 -21.0124
   -21.0007 -21.0007 -20.9950 -20.9880 -20.9880 -20.9868 -20.9858 -20.9769
   -20.9769 -20.9686 -20.9635 -20.9635 -20.8847 -20.8674 -20.8674 -20.8009
   -20.7183 -20.7183 -20.7117 -20.6603 -20.6389 -20.6389 -20.6354 -20.6316
   -20.6286 -20.6286 -20.6063 -20.6063 -20.5971 -20.5848 -20.5848 -20.5671
   -20.5671 -20.5595 -20.5286 -20.5286 -20.5264 -20.5259 -20.5203 -20.5203
   -20.5118 -20.4959 -20.4959 -20.4925 -20.4807 -20.4807 -20.4747 -20.4682
   -20.4659 -20.4659 -20.4658 -20.4458 -20.4458 -20.4286 -20.4286 -20.4229
   -20.4076 -20.3999 -20.3999 -20.3957 -20.3950 -20.3950 -20.3848 -20.3848
   -20.3800 -20.3486 -20.3486 -20.3347 -20.2780 -20.2780 -20.2680 -20.2529
   -20.2529 -20.2501 -20.2501 -20.2402 -20.2395 -20.2298 -20.2298 -20.2218
   -20.2208 -20.2208 -20.2024 -20.2024  15.8625  16.2928  16.2928  16.3560
    16.5294  16.5418  16.5418  16.7687  16.9151  16.9235  16.9235  17.1134
    17.1134  17.1595  17.1692  17.1772  17.1772  17.2189  17.2189  17.2294
    17.2294  17.2302  17.2353  17.2622  17.2910  17.2910  17.4165  17.4165
    17.4698  17.4698  17.5078  17.6411  17.7550  17.7550  17.8414  18.0179
    18.0338  18.0596  18.0596  18.0987  18.0987  18.2303  18.2303  18.2696
    18.3881  18.4013  18.4323  18.4323  18.5099  18.5099  18.6412  18.6594
    18.6594  18.7637  19.2347  19.2347  19.2876  19.3422  19.3422  19.4148
    19.5525  19.5525  19.6643  19.9134  19.9493  19.9493  19.9880  19.9880
    20.0262  20.0262  20.0481  20.1221  20.1257  20.1257  20.1560  20.1560
    20.1639  20.1639  20.1707  20.1722  20.2090  20.2244  20.2244  20.2424
    20.2424  20.2452  20.2510  20.2510  20.2618  20.2810  20.3087  20.3087
    20.4694  20.4694  20.4848  20.4848  20.4890  20.5583  20.7978  20.7978
    20.8151  20.8929  21.0558  21.0558  21.2158  21.2841  21.2841  21.3097
    21.3236  21.3497  21.3497  21.4565  21.4565  21.5570  21.5570  21.6738
    21.7277  21.8459  21.8503  21.8503  21.9236  21.9236  21.9344  21.9736
    21.9736  21.9816  21.9816  22.0959  22.1631  22.1631  22.2604  22.4122
    22.4122  22.5283  22.5998  22.5998  22.7402  22.8292  22.8292  23.2952
    23.3073  23.3073  23.6431  23.6431  23.8400  23.8941  23.8941  23.9116
    23.9119  23.9119  23.9391  23.9562  23.9562  23.9720  23.9804  23.9804
    24.0325  24.0325  24.0516  24.0603  24.1040  24.1040  24.1682  25.7567
    25.7567  25.8205  26.4602  26.4602  26.7301  26.7681  26.7681  26.8195
    26.8401  27.0264

          k = 0.3889 0.3889-0.5000 ( 30162 PWs)   bands (ev):

   -50.7441 -50.7395 -50.7365 -50.7047 -50.6798 -50.6784 -50.6775 -50.6426
   -50.6411 -50.6402 -50.6094 -50.6094 -50.6041 -50.6036 -50.6033 -50.5998
   -50.5950 -50.5945 -50.5857 -50.5842 -50.5364 -50.5349 -50.5332 -50.5203
   -50.5197 -50.5192 -50.5034 -50.5033 -50.5030 -50.5026 -50.5021 -21.0615
   -21.0606 -21.0470 -21.0352 -21.0341 -21.0211 -21.0200 -21.0191 -21.0172
   -21.0145 -21.0017 -20.9967 -20.9906 -20.9890 -20.9842 -20.9827 -20.9795
   -20.9784 -20.9771 -20.9753 -20.9712 -20.8697 -20.8677 -20.8663 -20.7913
   -20.7357 -20.6865 -20.6858 -20.6657 -20.6558 -20.6424 -20.6383 -20.6200
   -20.6157 -20.6050 -20.6028 -20.5963 -20.5948 -20.5833 -20.5687 -20.5660
   -20.5653 -20.5592 -20.5451 -20.5448 -20.5364 -20.5275 -20.5262 -20.5184
   -20.5184 -20.5161 -20.4985 -20.4974 -20.4921 -20.4914 -20.4775 -20.4669
   -20.4643 -20.4641 -20.4638 -20.4517 -20.4429 -20.4303 -20.4293 -20.4269
   -20.4046 -20.4044 -20.4014 -20.3996 -20.3978 -20.3945 -20.3895 -20.3848
   -20.3769 -20.3506 -20.3491 -20.3395 -20.2706 -20.2688 -20.2570 -20.2568
   -20.2522 -20.2483 -20.2436 -20.2386 -20.2383 -20.2282 -20.2278 -20.2229
   -20.2210 -20.2171 -20.2082 -20.2002  16.0243  16.1205  16.3846  16.4020
    16.4156  16.4838  16.5229  16.7620  16.9719  17.0202  17.0224  17.0410
    17.0624  17.0986  17.1670  17.1838  17.1937  17.2039  17.2041  17.2132
    17.2178  17.2198  17.2312  17.2410  17.2603  17.2641  17.4060  17.4120
    17.5013  17.5240  17.5261  17.7117  17.7821  17.8617  17.8955  17.8972
    17.9634  18.0842  18.1603  18.1884  18.1938  18.1979  18.2022  18.2794
    18.2986  18.3004  18.3447  18.4423  18.4509  18.5756  18.5868  18.6319
    18.6497  18.6519  19.1946  19.2331  19.3639  19.4001  19.4358  19.4787
    19.4843  19.4870  19.9028  19.9157  20.0520  20.0569  20.0676  20.0727
    20.0730  20.0818  20.0822  20.0940  20.1054  20.1174  20.1269  20.1303
    20.1381  20.1432  20.1532  20.1578  20.1590  20.1662  20.1904  20.1992
    20.2001  20.2011  20.2206  20.2234  20.2265  20.3062  20.3140  20.3234
    20.4106  20.4580  20.4659  20.5118  20.6117  20.7320  20.7754  20.8006
    20.8010  20.9086  20.9550  21.0208  21.0398  21.0657  21.2077  21.3241
    21.3620  21.4384  21.5006  21.5215  21.5286  21.5632  21.5775  21.5953
    21.6026  21.6498  21.7796  21.7815  21.9095  21.9228  21.9648  22.0059
    22.0094  22.0254  22.0348  22.0591  22.0601  22.1779  22.1853  22.3510
    22.3974  22.5114  22.5487  22.5688  22.5905  22.6181  22.7597  23.2897
    23.3087  23.3301  23.6418  23.6673  23.9326  23.9412  23.9554  23.9612
    23.9726  23.9743  23.9847  23.9861  24.0059  24.0256  24.0261  24.0295
    24.0386  24.0556  24.0600  24.0621  24.0748  24.1217  24.1266  26.0932
    26.1806  26.1964  26.2597  26.5667  26.6184  26.8010  26.8023  26.8360
    26.8959  27.3993

          k = 0.3889-0.5000-0.5000 ( 30188 PWs)   bands (ev):

   -50.7401 -50.7389 -50.7389 -50.7070 -50.6807 -50.6789 -50.6789 -50.6420
   -50.6403 -50.6403 -50.6072 -50.6072 -50.6037 -50.6035 -50.6034 -50.5989
   -50.5964 -50.5964 -50.5858 -50.5855 -50.5358 -50.5334 -50.5334 -50.5196
   -50.5196 -50.5187 -50.5040 -50.5038 -50.5032 -50.5032 -50.5027 -21.0598
   -21.0557 -21.0410 -21.0401 -21.0401 -21.0204 -21.0201 -21.0201 -21.0085
   -21.0085 -21.0073 -20.9956 -20.9936 -20.9915 -20.9915 -20.9843 -20.9843
   -20.9821 -20.9817 -20.9804 -20.9799 -20.8648 -20.8648 -20.8631 -20.7638
   -20.7145 -20.7145 -20.6839 -20.6589 -20.6315 -20.6247 -20.6247 -20.6159
   -20.6056 -20.5946 -20.5946 -20.5881 -20.5849 -20.5849 -20.5827 -20.5796
   -20.5601 -20.5601 -20.5556 -20.5529 -20.5413 -20.5413 -20.5378 -20.5235
   -20.5235 -20.5230 -20.5201 -20.5072 -20.4980 -20.4980 -20.4815 -20.4638
   -20.4638 -20.4623 -20.4593 -20.4540 -20.4457 -20.4310 -20.4310 -20.4292
   -20.4058 -20.4058 -20.4022 -20.4001 -20.4001 -20.4000 -20.3874 -20.3872
   -20.3740 -20.3508 -20.3508 -20.3457 -20.2643 -20.2613 -20.2513 -20.2513
   -20.2486 -20.2392 -20.2386 -20.2386 -20.2372 -20.2311 -20.2311 -20.2201
   -20.2201 -20.2182 -20.2103 -20.2001  16.1764  16.2167  16.2167  16.3265
    16.4394  16.4584  16.4584  16.7482  17.0710  17.0799  17.0845  17.0845
    17.0920  17.0920  17.1150  17.1481  17.1481  17.1519  17.1670  17.1914
    17.1914  17.1965  17.2165  17.2256  17.2417  17.2417  17.3958  17.4092
    17.5241  17.5460  17.5460  17.8183  17.9352  17.9499  17.9499  17.9560
    18.0366  18.0472  18.0472  18.1040  18.1703  18.2012  18.2012  18.2594
    18.3422  18.3559  18.3741  18.3741  18.4494  18.4728  18.4728  18.5937
    18.5937  18.6190  19.1669  19.2057  19.4181  19.4307  19.4695  19.4695
    19.6759  19.6759  19.7263  19.7410  20.0803  20.0810  20.0810  20.0964
    20.0969  20.0987  20.0987  20.1214  20.1230  20.1230  20.1477  20.1512
    20.1634  20.1660  20.1660  20.1681  20.1716  20.1731  20.1731  20.1859
    20.1949  20.2188  20.2188  20.3109  20.3475  20.3475  20.3483  20.3877
    20.4181  20.4181  20.4269  20.4622  20.4809  20.6241  20.6241  20.6391
    20.7362  21.0399  21.0452  21.0452  21.1722  21.2623  21.2642  21.2642
    21.2783  21.3100  21.3100  21.4679  21.5515  21.5850  21.5850  21.6245
    21.6947  21.7270  21.7270  21.7552  21.7761  21.7839  21.7839  21.9761
    21.9897  21.9926  21.9926  22.0503  22.1284  22.2461  22.2461  22.3193
    22.3788  22.4081  22.4081  22.4700  22.5209  22.5209  22.5748  23.3033
    23.3314  23.3314  23.6494  23.6766  23.9893  23.9893  23.9981  24.0299
    24.0300  24.0371  24.0371  24.0473  24.0496  24.0571  24.0571  24.0639
    24.0683  24.0775  24.0775  24.1003  24.1006  24.1049  24.1049  26.4019
    26.4019  26.4567  26.5118  26.7861  27.0314  27.0702  27.0703  27.1594
    27.2121  27.2122

          k =-0.5000-0.5000-0.5000 ( 30280 PWs)   bands (ev):

   -50.7383 -50.7383 -50.7383 -50.7101 -50.6805 -50.6805 -50.6805 -50.6404
   -50.6404 -50.6404 -50.6036 -50.6036 -50.6036 -50.6036 -50.6036 -50.5989
   -50.5989 -50.5989 -50.5869 -50.5858 -50.5335 -50.5335 -50.5335 -50.5189
   -50.5189 -50.5189 -50.5039 -50.5039 -50.5039 -50.5039 -50.5039 -21.0571
   -21.0571 -21.0395 -21.0395 -21.0395 -21.0238 -21.0238 -21.0238 -21.0017
   -21.0017 -21.0017 -20.9968 -20.9968 -20.9968 -20.9905 -20.9898 -20.9896
   -20.9896 -20.9896 -20.9832 -20.9832 -20.8622 -20.8622 -20.8622 -20.7256
   -20.6838 -20.6838 -20.6838 -20.6463 -20.6398 -20.6398 -20.6398 -20.6235
   -20.5850 -20.5850 -20.5850 -20.5831 -20.5831 -20.5831 -20.5827 -20.5827
   -20.5622 -20.5622 -20.5622 -20.5550 -20.5550 -20.5550 -20.5321 -20.5255
   -20.5255 -20.5201 -20.5201 -20.5201 -20.5157 -20.5157 -20.5157 -20.4606
   -20.4606 -20.4606 -20.4542 -20.4525 -20.4525 -20.4321 -20.4321 -20.4321
   -20.4062 -20.4062 -20.4062 -20.4020 -20.4020 -20.4020 -20.3860 -20.3860
   -20.3706 -20.3524 -20.3524 -20.3524 -20.2570 -20.2570 -20.2455 -20.2455
   -20.2455 -20.2345 -20.2345 -20.2345 -20.2293 -20.2293 -20.2293 -20.2230
   -20.2230 -20.2230 -20.2060 -20.2060  16.2718  16.3233  16.3233  16.3233
    16.3338  16.3338  16.3338  16.7269  17.1232  17.1232  17.1232  17.1289
    17.1289  17.1289  17.1313  17.1313  17.1522  17.1522  17.1522  17.1572
    17.1658  17.1658  17.1658  17.1811  17.1811  17.1811  17.3969  17.3969
    17.5469  17.5469  17.5469  17.8072  18.1501  18.1501  18.1555  18.1555
    18.1555  18.1574  18.1574  18.1574  18.1779  18.1779  18.1779  18.1803
    18.1985  18.1985  18.1985  18.2041  18.3623  18.3623  18.3623  18.5720
    18.5720  18.5720  19.1508  19.1508  19.5737  19.5737  19.5737  19.5895
    19.6015  19.6015  19.6015  19.6309  20.1167  20.1167  20.1167  20.1309
    20.1309  20.1409  20.1409  20.1409  20.1491  20.1491  20.1491  20.1919
    20.1919  20.1919  20.2224  20.2224  20.2467  20.2467  20.2467  20.2529
    20.2529  20.2529  20.2553  20.2553  20.2553  20.2691  20.2691  20.2731
    20.2799  20.2799  20.2799  20.4773  20.4773  20.5972  20.5972  20.5972
    20.6553  21.1206  21.1206  21.1206  21.4153  21.4153  21.4153  21.4369
    21.4369  21.4463  21.4859  21.4859  21.4859  21.5006  21.5057  21.5057
    21.5057  21.5061  21.5061  21.5061  21.5693  21.5693  21.5693  21.9805
    21.9805  22.0962  22.0962  22.0962  22.2741  22.2741  22.2757  22.2757
    22.2757  22.3331  22.3331  22.3331  22.3602  22.3602  22.3602  23.3380
    23.3380  23.3380  23.6705  23.6705  24.0419  24.0419  24.0419  24.0795
    24.0795  24.0862  24.0862  24.0862  24.0943  24.1015  24.1015  24.1015
    24.1030  24.1030  24.1030  24.1035  24.1243  24.1243  24.1243  26.9668
    26.9669  26.9670  27.1873  27.1877  27.4527  27.4583  27.4684  27.4748
    27.4788  27.4831

     the Fermi energy is    22.2341 ev

!    total energy              =  -13381.43882321 Ry

     total all-electron energy =   -280927.316964 Ry
     estimated scf accuracy    <       0.00000067 Ry
     smearing contrib. (-TS)   =       0.00836444 Ry
     internal energy E=F+TS    =  -13381.44718765 Ry

     The total energy is F=E-TS. E is the sum of the following terms:
     one-electron contribution =   -1158.96803101 Ry
     hartree contribution      =     969.06838996 Ry
     xc contribution           =    -898.58741639 Ry
     ewald contribution        =   -4940.70594345 Ry
     one-center paw contrib.   =   -7352.25418676 Ry

     convergence has been achieved in  15 iterations

     Forces acting on atoms (cartesian axes, Ry/au):

     atom    1 type  1   force =    -0.00468571   -0.00468571    0.00000000
     atom    2 type  1   force =    -0.00468571   -0.00000000   -0.00468571
     atom    3 type  1   force =     0.00000000   -0.00468571   -0.00468571
     atom    4 type  1   force =     0.00000000    0.00000000    0.00000000
     atom    5 type  1   force =     0.00015627    0.00015627    0.00000000
     atom    6 type  1   force =    -0.00468571    0.00000000    0.00468571
     atom    7 type  1   force =    -0.00000000   -0.00468571    0.00468571
     atom    8 type  1   force =     0.00000000    0.00000000    0.00000000
     atom    9 type  1   force =    -0.00468571    0.00468571    0.00000000
     atom   10 type  1   force =     0.00015627    0.00000000    0.00015627
     atom   11 type  1   force =     0.00000000    0.00468571   -0.00468571
     atom   12 type  1   force =     0.00000000    0.00000000    0.00000000
     atom   13 type  1   force =     0.00015627   -0.00015627    0.00000000
     atom   14 type  1   force =     0.00015627    0.00000000   -0.00015627
     atom   15 type  1   force =     0.00000000    0.00468571    0.00468571
     atom   16 type  1   force =     0.00000000    0.00000000    0.00000000
     atom   17 type  1   force =     0.00468571   -0.00468571    0.00000000
     atom   18 type  1   force =     0.00468571   -0.00000000   -0.00468571
     atom   19 type  1   force =     0.00000000    0.00015627    0.00015627
     atom   20 type  1   force =     0.00000000    0.00000000    0.00000000
     atom   21 type  1   force =    -0.00015627    0.00015627    0.00000000
     atom   22 type  1   force =     0.00468571   -0.00000000    0.00468571
     atom   23 type  1   force =     0.00000000    0.00015627   -0.00015627
     atom   24 type  1   force =     0.00000000    0.00000000    0.00000000
     atom   25 type  1   force =     0.00468571    0.00468571    0.00000000
     atom   26 type  1   force =    -0.00015627    0.00000000    0.00015627
     atom   27 type  1   force =    -0.00000000   -0.00015627    0.00015627
     atom   28 type  1   force =     0.00000000    0.00000000    0.00000000
     atom   29 type  1   force =    -0.00015627   -0.00015627    0.00000000
     atom   30 type  1   force =    -0.00015627    0.00000000   -0.00015627
     atom   31 type  1   force =    -0.00000000   -0.00015627   -0.00015627

     Total force =     0.022968     Total SCF correction =     0.003576
     SCF correction compared to forces is large: reduce conv_thr to get better values


     Computing stress (Cartesian axis) and pressure

          total   stress  (Ry/bohr**3)                   (kbar)     P=      -30.70
  -0.00020867   0.00000000   0.00000000          -30.70        0.00        0.00
   0.00000000  -0.00020867   0.00000000            0.00      -30.70        0.00
   0.00000000   0.00000000  -0.00020867            0.00        0.00      -30.70


     Writing output data file /scratch/ruvacancy1.save/
 
     init_run     :      9.37s CPU      9.69s WALL (       1 calls)
     electrons    :    462.71s CPU    468.74s WALL (       1 calls)
     forces       :      4.88s CPU      4.95s WALL (       1 calls)
     stress       :     28.57s CPU     28.81s WALL (       1 calls)

     Called by init_run:
     wfcinit      :      8.80s CPU      9.03s WALL (       1 calls)
     potinit      :      0.18s CPU      0.20s WALL (       1 calls)
     hinit0       :      0.13s CPU      0.13s WALL (       1 calls)

     Called by electrons:
     c_bands      :    406.19s CPU    411.00s WALL (      16 calls)
     sum_band     :     54.55s CPU     55.47s WALL (      16 calls)
     v_of_rho     :      0.24s CPU      0.26s WALL (      16 calls)
     newd         :      0.35s CPU      0.52s WALL (      16 calls)
     PAW_pot      :      1.35s CPU      1.44s WALL (      16 calls)
     mix_rho      :      0.06s CPU      0.08s WALL (      16 calls)

     Called by c_bands:
     init_us_2    :      2.47s CPU      2.51s WALL (    1225 calls)
     cegterg      :    397.83s CPU    402.50s WALL (     560 calls)

     Called by *egterg:
     cdiaghg      :     43.14s CPU     43.44s WALL (    1842 calls)
     h_psi        :    226.99s CPU    230.44s WALL (    1912 calls)
     s_psi        :     17.91s CPU     18.04s WALL (    1912 calls)
     g_psi        :      0.46s CPU      0.47s WALL (    1317 calls)

     Called by h_psi:
     h_psi:calbec :     33.84s CPU     34.09s WALL (    1912 calls)
     vloc_psi     :    174.67s CPU    177.48s WALL (    1912 calls)
     add_vuspsi   :     17.29s CPU     17.65s WALL (    1912 calls)

     General routines
     calbec       :     52.04s CPU     52.41s WALL (    2647 calls)
     fft          :      0.29s CPU      0.31s WALL (     232 calls)
     ffts         :      0.04s CPU      0.05s WALL (      32 calls)
     fftw         :    203.53s CPU    206.78s WALL (  973878 calls)
     interpolate  :      0.06s CPU      0.07s WALL (      16 calls)
 
     Parallel routines
     fft_scatt_xy :     16.77s CPU     17.04s WALL (  974142 calls)
     fft_scatt_yz :    158.19s CPU    160.78s WALL (  974142 calls)
 
     PWSCF        :   8m34.45s CPU   8m42.87s WALL

 
   This run was terminated on:   1:55:42   3Jan2022            

=------------------------------------------------------------------------------=
   JOB DONE.
=------------------------------------------------------------------------------=
