
     Program PWSCF v.6.7MaX starts on 15Jan2022 at 21:29:53 

     This program is part of the open-source Quantum ESPRESSO suite
     for quantum simulation of materials; please cite
         "P. Giannozzi et al., J. Phys.:Condens. Matter 21 395502 (2009);
         "P. Giannozzi et al., J. Phys.:Condens. Matter 29 465901 (2017);
          URL http://www.quantum-espresso.org", 
     in publications or presentations arising from this work. More details at
     http://www.quantum-espresso.org/quote

     Parallel version (MPI & OpenMP), running on      72 processor cores
     Number of MPI processes:                72
     Threads/MPI process:                     1

     MPI processes distributed on     1 nodes
     R & G space division:  proc/nbgrp/npool/nimage =      72
     Reading input from relax_5.in
Warning: card &CELL ignored
Warning: card CELL_DYNAMICS = 'BFGS', ignored
Warning: card CELL_FACTOR = 2.0, ignored
Warning: card PRESS = 0.0, ignored
Warning: card / ignored

     Current dimensions of program PWSCF are:
     Max number of different atomic species (ntypx) = 10
     Max number of k-points (npk) =  40000
     Max angular momentum in pseudopotentials (lmaxx) =  3
     file Fe.pbe-spn-kjpaw_psl.1.0.0.UPF: wavefunction(s)  3P 3D renormalized
     file Fe.pbe-spn-kjpaw_psl.1.0.0.UPF: wavefunction(s)  3P 3D renormalized

     Subspace diagonalization in iterative solution of the eigenvalue problem:
     one sub-group per band group will be used
     ELPA distributed-memory algorithm (size of sub-group:  8*  8 procs)

     Found symmetry operation: I + (  0.2500  0.0000  0.2500)
     This is a supercell, fractional translations are disabled
     Message from routine setup:
     using ibrav=0 with symmetry is DISCOURAGED, use correct ibrav instead
 
     Parallelization info
     --------------------
     sticks:   dense  smooth     PW     G-vecs:    dense   smooth      PW
     Min         103      68     18                 5887     3158     450
     Max         104      69     19                 5890     3163     455
     Sum        7443    4911   1355               423935   227531   32639
 


     bravais-lattice index     =            0
     lattice parameter (alat)  =      12.9382  a.u.
     unit-cell volume          =    2815.5544 (a.u.)^3
     number of atoms/cell      =           32
     number of atomic types    =            2
     number of electrons       =       512.00
     number of Kohn-Sham states=          325
     kinetic-energy cutoff     =      71.0000  Ry
     charge density cutoff     =     430.0000  Ry
     scf convergence threshold =      1.0E-07
     mixing beta               =       0.1000
     number of iterations used =           10  local-TF  mixing
     energy convergence thresh.=      1.0E-04
     force convergence thresh. =      1.0E-03
     Exchange-correlation= SLA  PW   PBX  PBC
                           (   1   4   3   4   0   0   0)
     nstep                     =           50


     celldm(1)=  12.938190  celldm(2)=   0.000000  celldm(3)=   0.000000
     celldm(4)=   0.000000  celldm(5)=   0.000000  celldm(6)=   0.000000

     crystal axes: (cart. coord. in units of alat)
               a(1) = (   1.000000   0.000000   0.000000 )  
               a(2) = (   0.000000   1.300000   0.000000 )  
               a(3) = (   0.000000   0.000000   1.000000 )  

     reciprocal axes: (cart. coord. in units 2 pi/alat)
               b(1) = (  1.000000  0.000000  0.000000 )  
               b(2) = (  0.000000  0.769231  0.000000 )  
               b(3) = (  0.000000  0.000000  1.000000 )  


     PseudoPot. # 1 for Fe read from file:
     /rds/homes/b/bxp912/pp/Fe.pbe-spn-kjpaw_psl.1.0.0.UPF
     MD5 check sum: 42f43b795421b414b0dc916aa790dbcb
     Pseudo is Projector augmented-wave + core cor, Zval = 16.0
     Generated using &quot;atomic&quot; code by A. Dal Corso  v.6.3
     Shape of augmentation charge: PSQ
     Using radial grid of 1191 points,  6 beta functions with: 
                l(1) =   0
                l(2) =   0
                l(3) =   1
                l(4) =   1
                l(5) =   2
                l(6) =   2
     Q(r) pseudized with 0 coefficients 


     PseudoPot. # 2 for Fe read from file:
     /rds/homes/b/bxp912/pp/Fe.pbe-spn-kjpaw_psl.1.0.0.UPF
     MD5 check sum: 42f43b795421b414b0dc916aa790dbcb
     Pseudo is Projector augmented-wave + core cor, Zval = 16.0
     Generated using &quot;atomic&quot; code by A. Dal Corso  v.6.3
     Shape of augmentation charge: PSQ
     Using radial grid of 1191 points,  6 beta functions with: 
                l(1) =   0
                l(2) =   0
                l(3) =   1
                l(4) =   1
                l(5) =   2
                l(6) =   2
     Q(r) pseudized with 0 coefficients 


     atomic species   valence    mass     pseudopotential
        Fe1           16.00    55.84500     Fe( 1.00)
        Fe2           16.00    55.84500     Fe( 1.00)

     Starting magnetic structure 
     atomic species   magnetization
        Fe1          0.100
        Fe2         -0.100

      8 Sym. Ops. (no inversion) found



   Cartesian axes

     site n.     atom                  positions (alat units)
         1           Fe1 tau(   1) = (   0.0000000   0.0000000   0.0000000  )
         2           Fe2 tau(   2) = (   0.2500000   0.2500000   0.0000000  )
         3           Fe1 tau(   3) = (   0.2500000   0.0000000   0.2500000  )
         4           Fe2 tau(   4) = (   0.0000000   0.2500000   0.2500000  )
         5           Fe1 tau(   5) = (   0.0000000   0.0000000   0.5000000  )
         6           Fe2 tau(   6) = (   0.2500000   0.2500000   0.5000000  )
         7           Fe1 tau(   7) = (   0.2500000   0.0000000   0.7500000  )
         8           Fe2 tau(   8) = (   0.0000000   0.2500000   0.7500000  )
         9           Fe1 tau(   9) = (   0.0000000   0.8000000   0.0000000  )
        10           Fe2 tau(  10) = (   0.2500000   1.0500000   0.0000000  )
        11           Fe1 tau(  11) = (   0.2500000   0.8000000   0.2500000  )
        12           Fe2 tau(  12) = (   0.0000000   1.0500000   0.2500000  )
        13           Fe1 tau(  13) = (   0.0000000   0.8000000   0.5000000  )
        14           Fe2 tau(  14) = (   0.2500000   1.0500000   0.5000000  )
        15           Fe1 tau(  15) = (   0.2500000   0.8000000   0.7500000  )
        16           Fe2 tau(  16) = (   0.0000000   1.0500000   0.7500000  )
        17           Fe1 tau(  17) = (   0.5000000   0.0000000   0.0000000  )
        18           Fe2 tau(  18) = (   0.7500000   0.2500000   0.0000000  )
        19           Fe1 tau(  19) = (   0.7500000   0.0000000   0.2500000  )
        20           Fe2 tau(  20) = (   0.5000000   0.2500000   0.2500000  )
        21           Fe1 tau(  21) = (   0.5000000   0.0000000   0.5000000  )
        22           Fe2 tau(  22) = (   0.7500000   0.2500000   0.5000000  )
        23           Fe1 tau(  23) = (   0.7500000   0.0000000   0.7500000  )
        24           Fe2 tau(  24) = (   0.5000000   0.2500000   0.7500000  )
        25           Fe1 tau(  25) = (   0.5000000   0.8000000   0.0000000  )
        26           Fe2 tau(  26) = (   0.7500000   1.0500000   0.0000000  )
        27           Fe1 tau(  27) = (   0.7500000   0.8000000   0.2500000  )
        28           Fe2 tau(  28) = (   0.5000000   1.0500000   0.2500000  )
        29           Fe1 tau(  29) = (   0.5000000   0.8000000   0.5000000  )
        30           Fe2 tau(  30) = (   0.7500000   1.0500000   0.5000000  )
        31           Fe1 tau(  31) = (   0.7500000   0.8000000   0.7500000  )
        32           Fe2 tau(  32) = (   0.5000000   1.0500000   0.7500000  )

     number of k points=    75  Marzari-Vanderbilt smearing, width (Ry)=  0.0400
                       cart. coord. in units 2pi/alat
        k(    1) = (   0.0555556   0.0427350   0.0555556), wk =   0.0109739
        k(    2) = (   0.0555556   0.0427350   0.1666667), wk =   0.0219479
        k(    3) = (   0.0555556   0.0427350   0.2777778), wk =   0.0219479
        k(    4) = (   0.0555556   0.0427350   0.3888889), wk =   0.0219479
        k(    5) = (   0.0555556   0.0427350  -0.5000000), wk =   0.0109739
        k(    6) = (   0.0555556   0.1282051   0.0555556), wk =   0.0109739
        k(    7) = (   0.0555556   0.1282051   0.1666667), wk =   0.0219479
        k(    8) = (   0.0555556   0.1282051   0.2777778), wk =   0.0219479
        k(    9) = (   0.0555556   0.1282051   0.3888889), wk =   0.0219479
        k(   10) = (   0.0555556   0.1282051  -0.5000000), wk =   0.0109739
        k(   11) = (   0.0555556   0.2136752   0.0555556), wk =   0.0109739
        k(   12) = (   0.0555556   0.2136752   0.1666667), wk =   0.0219479
        k(   13) = (   0.0555556   0.2136752   0.2777778), wk =   0.0219479
        k(   14) = (   0.0555556   0.2136752   0.3888889), wk =   0.0219479
        k(   15) = (   0.0555556   0.2136752  -0.5000000), wk =   0.0109739
        k(   16) = (   0.0555556   0.2991453   0.0555556), wk =   0.0109739
        k(   17) = (   0.0555556   0.2991453   0.1666667), wk =   0.0219479
        k(   18) = (   0.0555556   0.2991453   0.2777778), wk =   0.0219479
        k(   19) = (   0.0555556   0.2991453   0.3888889), wk =   0.0219479
        k(   20) = (   0.0555556   0.2991453  -0.5000000), wk =   0.0109739
        k(   21) = (   0.0555556  -0.3846154   0.0555556), wk =   0.0054870
        k(   22) = (   0.0555556  -0.3846154   0.1666667), wk =   0.0109739
        k(   23) = (   0.0555556  -0.3846154   0.2777778), wk =   0.0109739
        k(   24) = (   0.0555556  -0.3846154   0.3888889), wk =   0.0109739
        k(   25) = (   0.0555556  -0.3846154  -0.5000000), wk =   0.0054870
        k(   26) = (   0.1666667   0.0427350   0.1666667), wk =   0.0109739
        k(   27) = (   0.1666667   0.0427350   0.2777778), wk =   0.0219479
        k(   28) = (   0.1666667   0.0427350   0.3888889), wk =   0.0219479
        k(   29) = (   0.1666667   0.0427350  -0.5000000), wk =   0.0109739
        k(   30) = (   0.1666667   0.1282051   0.1666667), wk =   0.0109739
        k(   31) = (   0.1666667   0.1282051   0.2777778), wk =   0.0219479
        k(   32) = (   0.1666667   0.1282051   0.3888889), wk =   0.0219479
        k(   33) = (   0.1666667   0.1282051  -0.5000000), wk =   0.0109739
        k(   34) = (   0.1666667   0.2136752   0.1666667), wk =   0.0109739
        k(   35) = (   0.1666667   0.2136752   0.2777778), wk =   0.0219479
        k(   36) = (   0.1666667   0.2136752   0.3888889), wk =   0.0219479
        k(   37) = (   0.1666667   0.2136752  -0.5000000), wk =   0.0109739
        k(   38) = (   0.1666667   0.2991453   0.1666667), wk =   0.0109739
        k(   39) = (   0.1666667   0.2991453   0.2777778), wk =   0.0219479
        k(   40) = (   0.1666667   0.2991453   0.3888889), wk =   0.0219479
        k(   41) = (   0.1666667   0.2991453  -0.5000000), wk =   0.0109739
        k(   42) = (   0.1666667  -0.3846154   0.1666667), wk =   0.0054870
        k(   43) = (   0.1666667  -0.3846154   0.2777778), wk =   0.0109739
        k(   44) = (   0.1666667  -0.3846154   0.3888889), wk =   0.0109739
        k(   45) = (   0.1666667  -0.3846154  -0.5000000), wk =   0.0054870
        k(   46) = (   0.2777778   0.0427350   0.2777778), wk =   0.0109739
        k(   47) = (   0.2777778   0.0427350   0.3888889), wk =   0.0219479
        k(   48) = (   0.2777778   0.0427350  -0.5000000), wk =   0.0109739
        k(   49) = (   0.2777778   0.1282051   0.2777778), wk =   0.0109739
        k(   50) = (   0.2777778   0.1282051   0.3888889), wk =   0.0219479
        k(   51) = (   0.2777778   0.1282051  -0.5000000), wk =   0.0109739
        k(   52) = (   0.2777778   0.2136752   0.2777778), wk =   0.0109739
        k(   53) = (   0.2777778   0.2136752   0.3888889), wk =   0.0219479
        k(   54) = (   0.2777778   0.2136752  -0.5000000), wk =   0.0109739
        k(   55) = (   0.2777778   0.2991453   0.2777778), wk =   0.0109739
        k(   56) = (   0.2777778   0.2991453   0.3888889), wk =   0.0219479
        k(   57) = (   0.2777778   0.2991453  -0.5000000), wk =   0.0109739
        k(   58) = (   0.2777778  -0.3846154   0.2777778), wk =   0.0054870
        k(   59) = (   0.2777778  -0.3846154   0.3888889), wk =   0.0109739
        k(   60) = (   0.2777778  -0.3846154  -0.5000000), wk =   0.0054870
        k(   61) = (   0.3888889   0.0427350   0.3888889), wk =   0.0109739
        k(   62) = (   0.3888889   0.0427350  -0.5000000), wk =   0.0109739
        k(   63) = (   0.3888889   0.1282051   0.3888889), wk =   0.0109739
        k(   64) = (   0.3888889   0.1282051  -0.5000000), wk =   0.0109739
        k(   65) = (   0.3888889   0.2136752   0.3888889), wk =   0.0109739
        k(   66) = (   0.3888889   0.2136752  -0.5000000), wk =   0.0109739
        k(   67) = (   0.3888889   0.2991453   0.3888889), wk =   0.0109739
        k(   68) = (   0.3888889   0.2991453  -0.5000000), wk =   0.0109739
        k(   69) = (   0.3888889  -0.3846154   0.3888889), wk =   0.0054870
        k(   70) = (   0.3888889  -0.3846154  -0.5000000), wk =   0.0054870
        k(   71) = (  -0.5000000   0.0427350  -0.5000000), wk =   0.0027435
        k(   72) = (  -0.5000000   0.1282051  -0.5000000), wk =   0.0027435
        k(   73) = (  -0.5000000   0.2136752  -0.5000000), wk =   0.0027435
        k(   74) = (  -0.5000000   0.2991453  -0.5000000), wk =   0.0027435
        k(   75) = (  -0.5000000  -0.3846154  -0.5000000), wk =   0.0013717

     Dense  grid:   423935 G-vectors     FFT dimensions: (  90, 120,  90)

     Smooth grid:   227531 G-vectors     FFT dimensions: (  72,  96,  72)

     Estimated max dynamical RAM per process >     331.08 MB

     Estimated total dynamical RAM >      23.28 GB

     Check: negative core charge=   -0.000005
     Generating pointlists ...
     new r_m :   0.1458 (alat units)  1.8869 (a.u.) for type    1
     new r_m :   0.1458 (alat units)  1.8869 (a.u.) for type    2

     Initial potential from superposition of free atoms

     starting charge  511.98600, renormalised to  512.00000
     Starting wfcs are  320 randomized atomic wfcs +    5 random wfcs
     Checking if some PAW data can be deallocated... 

     total cpu time spent up to now is       41.6 secs

     Self-consistent Calculation

     iteration #  1     ecut=    71.00 Ry     beta= 0.10
     Davidson diagonalization with overlap
     ethr =  1.00E-02,  avg # of iterations =  3.0

     total cpu time spent up to now is      188.6 secs

     total energy              =  -10536.19029416 Ry
     estimated scf accuracy    <      29.05327043 Ry

     total magnetization       =     0.02 Bohr mag/cell
     absolute magnetization    =    45.17 Bohr mag/cell

     iteration #  2     ecut=    71.00 Ry     beta= 0.10
     Davidson diagonalization with overlap
     ethr =  5.67E-03,  avg # of iterations =  1.0

     total cpu time spent up to now is      292.5 secs

     total energy              =  -10535.84795480 Ry
     estimated scf accuracy    <       8.16815631 Ry

     total magnetization       =     0.04 Bohr mag/cell
     absolute magnetization    =    47.18 Bohr mag/cell

     iteration #  3     ecut=    71.00 Ry     beta= 0.10
     Davidson diagonalization with overlap
     ethr =  1.60E-03,  avg # of iterations =  1.0

     negative rho (up, down):  0.000E+00 2.708E-03

     total cpu time spent up to now is      396.5 secs

     total energy              =  -10534.68681424 Ry
     estimated scf accuracy    <       4.51998442 Ry

     total magnetization       =     0.07 Bohr mag/cell
     absolute magnetization    =    47.54 Bohr mag/cell

     iteration #  4     ecut=    71.00 Ry     beta= 0.10
     Davidson diagonalization with overlap
     ethr =  8.83E-04,  avg # of iterations =  2.0

     negative rho (up, down):  4.780E-04 3.111E-03

     total cpu time spent up to now is      521.9 secs

     total energy              =  -10535.04348789 Ry
     estimated scf accuracy    <       1.04832419 Ry

     total magnetization       =     0.07 Bohr mag/cell
     absolute magnetization    =    49.22 Bohr mag/cell

     iteration #  5     ecut=    71.00 Ry     beta= 0.10
     Davidson diagonalization with overlap
     ethr =  2.05E-04,  avg # of iterations =  5.8

     negative rho (up, down):  0.000E+00 1.599E-03

     total cpu time spent up to now is      665.1 secs

     total energy              =  -10535.13356669 Ry
     estimated scf accuracy    <       0.44722871 Ry

     total magnetization       =     0.10 Bohr mag/cell
     absolute magnetization    =    50.45 Bohr mag/cell

     iteration #  6     ecut=    71.00 Ry     beta= 0.10
     Davidson diagonalization with overlap
     c_bands:  1 eigenvalues not converged
     ethr =  8.73E-05,  avg # of iterations =  3.7

     negative rho (up, down):  0.000E+00 1.014E-04

     total cpu time spent up to now is      787.8 secs

     total energy              =  -10535.11676209 Ry
     estimated scf accuracy    <       0.23823085 Ry

     total magnetization       =     0.10 Bohr mag/cell
     absolute magnetization    =    51.04 Bohr mag/cell

     iteration #  7     ecut=    71.00 Ry     beta= 0.10
     Davidson diagonalization with overlap
     ethr =  4.65E-05,  avg # of iterations =  3.5

     total cpu time spent up to now is      909.5 secs

     total energy              =  -10535.12616886 Ry
     estimated scf accuracy    <       0.04257036 Ry

     total magnetization       =     0.09 Bohr mag/cell
     absolute magnetization    =    51.86 Bohr mag/cell

     iteration #  8     ecut=    71.00 Ry     beta= 0.10
     Davidson diagonalization with overlap
     c_bands:  1 eigenvalues not converged
     ethr =  8.31E-06,  avg # of iterations =  8.2

     negative rho (up, down):  0.000E+00 7.860E-06

     total cpu time spent up to now is     1049.3 secs

     total energy              =  -10535.13038809 Ry
     estimated scf accuracy    <       0.01922140 Ry

     total magnetization       =     0.07 Bohr mag/cell
     absolute magnetization    =    52.31 Bohr mag/cell

     iteration #  9     ecut=    71.00 Ry     beta= 0.10
     Davidson diagonalization with overlap
     ethr =  3.75E-06,  avg # of iterations =  3.6

     negative rho (up, down):  0.000E+00 6.035E-05

     total cpu time spent up to now is     1177.9 secs

     total energy              =  -10535.13520828 Ry
     estimated scf accuracy    <       0.00719277 Ry

     total magnetization       =     0.04 Bohr mag/cell
     absolute magnetization    =    52.88 Bohr mag/cell

     iteration # 10     ecut=    71.00 Ry     beta= 0.10
     Davidson diagonalization with overlap
     ethr =  1.40E-06,  avg # of iterations =  2.1

     negative rho (up, down):  0.000E+00 8.573E-05

     total cpu time spent up to now is     1296.0 secs

     total energy              =  -10535.13708092 Ry
     estimated scf accuracy    <       0.00568963 Ry

     total magnetization       =     0.03 Bohr mag/cell
     absolute magnetization    =    53.21 Bohr mag/cell

     iteration # 11     ecut=    71.00 Ry     beta= 0.10
     Davidson diagonalization with overlap
     ethr =  1.11E-06,  avg # of iterations =  1.1

     negative rho (up, down):  0.000E+00 1.604E-04

     total cpu time spent up to now is     1400.0 secs

     total energy              =  -10535.13815564 Ry
     estimated scf accuracy    <       0.00460394 Ry

     total magnetization       =     0.04 Bohr mag/cell
     absolute magnetization    =    53.37 Bohr mag/cell

     iteration # 12     ecut=    71.00 Ry     beta= 0.10
     Davidson diagonalization with overlap
     ethr =  8.99E-07,  avg # of iterations =  2.7

     negative rho (up, down):  0.000E+00 1.730E-04

     total cpu time spent up to now is     1530.0 secs

     total energy              =  -10535.14006189 Ry
     estimated scf accuracy    <       0.00084533 Ry

     total magnetization       =     0.03 Bohr mag/cell
     absolute magnetization    =    53.86 Bohr mag/cell

     iteration # 13     ecut=    71.00 Ry     beta= 0.10
     Davidson diagonalization with overlap
     ethr =  1.65E-07,  avg # of iterations =  2.7

     negative rho (up, down):  0.000E+00 1.824E-04

     total cpu time spent up to now is     1659.2 secs

     total energy              =  -10535.14028577 Ry
     estimated scf accuracy    <       0.00039674 Ry

     total magnetization       =     0.02 Bohr mag/cell
     absolute magnetization    =    53.94 Bohr mag/cell

     iteration # 14     ecut=    71.00 Ry     beta= 0.10
     Davidson diagonalization with overlap
     ethr =  7.75E-08,  avg # of iterations =  1.1

     negative rho (up, down):  0.000E+00 2.010E-04

     total cpu time spent up to now is     1763.1 secs

     total energy              =  -10535.14038503 Ry
     estimated scf accuracy    <       0.00028371 Ry

     total magnetization       =     0.01 Bohr mag/cell
     absolute magnetization    =    53.93 Bohr mag/cell

     iteration # 15     ecut=    71.00 Ry     beta= 0.10
     Davidson diagonalization with overlap
     ethr =  5.54E-08,  avg # of iterations =  2.0

     negative rho (up, down):  0.000E+00 2.047E-04

     total cpu time spent up to now is     1893.9 secs

     total energy              =  -10535.14055752 Ry
     estimated scf accuracy    <       0.00009394 Ry

     total magnetization       =     0.01 Bohr mag/cell
     absolute magnetization    =    53.90 Bohr mag/cell

     iteration # 16     ecut=    71.00 Ry     beta= 0.10
     Davidson diagonalization with overlap
     ethr =  1.83E-08,  avg # of iterations =  2.5

     negative rho (up, down):  0.000E+00 2.081E-04

     total cpu time spent up to now is     2027.2 secs

     total energy              =  -10535.14061389 Ry
     estimated scf accuracy    <       0.00005089 Ry

     total magnetization       =     0.01 Bohr mag/cell
     absolute magnetization    =    53.84 Bohr mag/cell

     iteration # 17     ecut=    71.00 Ry     beta= 0.10
     Davidson diagonalization with overlap
     ethr =  9.94E-09,  avg # of iterations =  1.6

     negative rho (up, down):  0.000E+00 2.090E-04

     total cpu time spent up to now is     2138.4 secs

     total energy              =  -10535.14064185 Ry
     estimated scf accuracy    <       0.00004532 Ry

     total magnetization       =     0.01 Bohr mag/cell
     absolute magnetization    =    53.83 Bohr mag/cell

     iteration # 18     ecut=    71.00 Ry     beta= 0.10
     Davidson diagonalization with overlap
     ethr =  8.85E-09,  avg # of iterations =  2.4

     negative rho (up, down):  0.000E+00 2.136E-04

     total cpu time spent up to now is     2271.8 secs

     total energy              =  -10535.14067819 Ry
     estimated scf accuracy    <       0.00002690 Ry

     total magnetization       =     0.01 Bohr mag/cell
     absolute magnetization    =    53.72 Bohr mag/cell

     iteration # 19     ecut=    71.00 Ry     beta= 0.10
     Davidson diagonalization with overlap
     ethr =  5.25E-09,  avg # of iterations =  3.0

     negative rho (up, down):  0.000E+00 2.156E-04

     total cpu time spent up to now is     2415.4 secs

     total energy              =  -10535.14071189 Ry
     estimated scf accuracy    <       0.00001198 Ry

     total magnetization       =     0.00 Bohr mag/cell
     absolute magnetization    =    53.64 Bohr mag/cell

     iteration # 20     ecut=    71.00 Ry     beta= 0.10
     Davidson diagonalization with overlap
     ethr =  2.34E-09,  avg # of iterations =  2.0

     negative rho (up, down):  0.000E+00 2.132E-04

     total cpu time spent up to now is     2543.4 secs

     total energy              =  -10535.14072322 Ry
     estimated scf accuracy    <       0.00000972 Ry

     total magnetization       =     0.00 Bohr mag/cell
     absolute magnetization    =    53.60 Bohr mag/cell

     iteration # 21     ecut=    71.00 Ry     beta= 0.10
     Davidson diagonalization with overlap
     ethr =  1.90E-09,  avg # of iterations =  2.5

     negative rho (up, down):  0.000E+00 2.125E-04

     total cpu time spent up to now is     2677.3 secs

     total energy              =  -10535.14073148 Ry
     estimated scf accuracy    <       0.00000406 Ry

     total magnetization       =     0.00 Bohr mag/cell
     absolute magnetization    =    53.55 Bohr mag/cell

     iteration # 22     ecut=    71.00 Ry     beta= 0.10
     Davidson diagonalization with overlap
     ethr =  7.93E-10,  avg # of iterations =  3.8

     negative rho (up, down):  0.000E+00 2.125E-04

     total cpu time spent up to now is     2821.1 secs

     total energy              =  -10535.14073861 Ry
     estimated scf accuracy    <       0.00000170 Ry

     total magnetization       =     0.00 Bohr mag/cell
     absolute magnetization    =    53.50 Bohr mag/cell

     iteration # 23     ecut=    71.00 Ry     beta= 0.10
     Davidson diagonalization with overlap
     ethr =  3.31E-10,  avg # of iterations =  2.1

     negative rho (up, down):  0.000E+00 2.123E-04

     total cpu time spent up to now is     2950.5 secs

     total energy              =  -10535.14074133 Ry
     estimated scf accuracy    <       0.00000088 Ry

     total magnetization       =     0.00 Bohr mag/cell
     absolute magnetization    =    53.48 Bohr mag/cell

     iteration # 24     ecut=    71.00 Ry     beta= 0.10
     Davidson diagonalization with overlap
     ethr =  1.73E-10,  avg # of iterations =  2.0

     negative rho (up, down):  0.000E+00 2.122E-04

     total cpu time spent up to now is     3071.9 secs

     total energy              =  -10535.14074287 Ry
     estimated scf accuracy    <       0.00000052 Ry

     total magnetization       =     0.00 Bohr mag/cell
     absolute magnetization    =    53.47 Bohr mag/cell

     iteration # 25     ecut=    71.00 Ry     beta= 0.10
     Davidson diagonalization with overlap
     ethr =  1.02E-10,  avg # of iterations =  2.3

     negative rho (up, down):  0.000E+00 2.118E-04

     total cpu time spent up to now is     3202.1 secs

     total energy              =  -10535.14074441 Ry
     estimated scf accuracy    <       0.00000024 Ry

     total magnetization       =     0.00 Bohr mag/cell
     absolute magnetization    =    53.46 Bohr mag/cell

     iteration # 26     ecut=    71.00 Ry     beta= 0.10
     Davidson diagonalization with overlap
     ethr =  4.69E-11,  avg # of iterations =  2.4

     negative rho (up, down):  0.000E+00 2.120E-04
 
     Magnetic moment per site:
     atom:    1    charge:   14.4698    magn:    1.0033    constr:    0.0000
     atom:    2    charge:   14.3051    magn:   -2.1884    constr:    0.0000
     atom:    3    charge:   14.4687    magn:    1.0194    constr:    0.0000
     atom:    4    charge:   14.3051    magn:   -2.1884    constr:    0.0000
     atom:    5    charge:   14.4698    magn:    1.0017    constr:    0.0000
     atom:    6    charge:   14.3051    magn:   -2.1885    constr:    0.0000
     atom:    7    charge:   14.4687    magn:    1.0194    constr:    0.0000
     atom:    8    charge:   14.3051    magn:   -2.1884    constr:    0.0000
     atom:    9    charge:   14.3050    magn:    2.1885    constr:    0.0000
     atom:   10    charge:   14.4697    magn:   -1.0093    constr:    0.0000
     atom:   11    charge:   14.3046    magn:    2.1886    constr:    0.0000
     atom:   12    charge:   14.4697    magn:   -1.0093    constr:    0.0000
     atom:   13    charge:   14.3050    magn:    2.1883    constr:    0.0000
     atom:   14    charge:   14.4696    magn:   -1.0121    constr:    0.0000
     atom:   15    charge:   14.3046    magn:    2.1886    constr:    0.0000
     atom:   16    charge:   14.4697    magn:   -1.0093    constr:    0.0000
     atom:   17    charge:   14.4698    magn:    1.0017    constr:    0.0000
     atom:   18    charge:   14.3051    magn:   -2.1884    constr:    0.0000
     atom:   19    charge:   14.4687    magn:    1.0194    constr:    0.0000
     atom:   20    charge:   14.3051    magn:   -2.1885    constr:    0.0000
     atom:   21    charge:   14.4698    magn:    1.0021    constr:    0.0000
     atom:   22    charge:   14.3051    magn:   -2.1885    constr:    0.0000
     atom:   23    charge:   14.4687    magn:    1.0194    constr:    0.0000
     atom:   24    charge:   14.3051    magn:   -2.1885    constr:    0.0000
     atom:   25    charge:   14.3050    magn:    2.1883    constr:    0.0000
     atom:   26    charge:   14.4697    magn:   -1.0093    constr:    0.0000
     atom:   27    charge:   14.3046    magn:    2.1886    constr:    0.0000
     atom:   28    charge:   14.4696    magn:   -1.0121    constr:    0.0000
     atom:   29    charge:   14.3051    magn:    2.1879    constr:    0.0000
     atom:   30    charge:   14.4696    magn:   -1.0121    constr:    0.0000
     atom:   31    charge:   14.3046    magn:    2.1886    constr:    0.0000
     atom:   32    charge:   14.4696    magn:   -1.0121    constr:    0.0000

     total cpu time spent up to now is     3330.4 secs

     End of self-consistent calculation

     Number of k-points >= 100: set verbosity='high' to print the bands.

     the Fermi energy is    15.5874 ev

!    total energy              =  -10535.14074974 Ry

     total all-electron energy =    -81456.629808 Ry
     estimated scf accuracy    <       0.00000009 Ry
     smearing contrib. (-TS)   =       0.03251514 Ry
     internal energy E=F+TS    =  -10535.17326488 Ry

     The total energy is F=E-TS. E is the sum of the following terms:
     one-electron contribution =   -6541.56204492 Ry
     hartree contribution      =    3537.63881054 Ry
     xc contribution           =    -886.96038105 Ry
     ewald contribution        =   -3994.89935898 Ry
     one-center paw contrib.   =   -2649.39029046 Ry

     total magnetization       =     0.00 Bohr mag/cell
     absolute magnetization    =    53.46 Bohr mag/cell

     convergence has been achieved in  26 iterations

     negative rho (up, down):  0.000E+00 2.120E-04

     Forces acting on atoms (cartesian axes, Ry/au):

     atom    1 type  1   force =     0.00000000    0.00163026    0.00000000
     atom    2 type  2   force =     0.00001082    0.04215642    0.00000000
     atom    3 type  1   force =    -0.00001098    0.00151149   -0.00001098
     atom    4 type  2   force =    -0.00000000    0.04215642    0.00001082
     atom    5 type  1   force =     0.00000000    0.00163239    0.00000000
     atom    6 type  2   force =    -0.00000251    0.04215399    0.00000000
     atom    7 type  1   force =    -0.00001098    0.00151149    0.00001098
     atom    8 type  2   force =     0.00000000    0.04215642   -0.00001082
     atom    9 type  1   force =     0.00000000   -0.04213304    0.00000000
     atom   10 type  2   force =     0.00001727   -0.00154096    0.00000000
     atom   11 type  1   force =    -0.00001141   -0.04224059   -0.00001141
     atom   12 type  2   force =     0.00000000   -0.00154096    0.00001727
     atom   13 type  1   force =     0.00000000   -0.04215376    0.00000000
     atom   14 type  2   force =     0.00000807   -0.00153071    0.00000000
     atom   15 type  1   force =    -0.00001141   -0.04224059    0.00001141
     atom   16 type  2   force =     0.00000000   -0.00154096   -0.00001727
     atom   17 type  1   force =     0.00000000    0.00163239    0.00000000
     atom   18 type  2   force =    -0.00001082    0.04215642    0.00000000
     atom   19 type  1   force =     0.00001098    0.00151149   -0.00001098
     atom   20 type  2   force =     0.00000000    0.04215399   -0.00000251
     atom   21 type  1   force =     0.00000000    0.00167391    0.00000000
     atom   22 type  2   force =     0.00000251    0.04215399    0.00000000
     atom   23 type  1   force =     0.00001098    0.00151149    0.00001098
     atom   24 type  2   force =     0.00000000    0.04215399    0.00000251
     atom   25 type  1   force =     0.00000000   -0.04215376    0.00000000
     atom   26 type  2   force =    -0.00001727   -0.00154096    0.00000000
     atom   27 type  1   force =     0.00001141   -0.04224059   -0.00001141
     atom   28 type  2   force =     0.00000000   -0.00153071    0.00000807
     atom   29 type  1   force =     0.00000000   -0.04216696    0.00000000
     atom   30 type  2   force =    -0.00000807   -0.00153071    0.00000000
     atom   31 type  1   force =     0.00001141   -0.04224059    0.00001141
     atom   32 type  2   force =     0.00000000   -0.00153071   -0.00000807

     Total force =     0.168818     Total SCF correction =     0.001018


     Computing stress (Cartesian axis) and pressure


     negative rho (up, down):  0.000E+00 2.120E-04
          total   stress  (Ry/bohr**3)                   (kbar)     P=       16.18
   0.00012199   0.00000000   0.00000000           17.95        0.00        0.00
   0.00000000   0.00008606   0.00000000            0.00       12.66        0.00
   0.00000000   0.00000000   0.00012199            0.00        0.00       17.95


     BFGS Geometry Optimization
     Energy error            =      0.0E+00
     Gradient error          =      4.2E-02

     number of scf cycles    =   1
     number of bfgs steps    =   0

     energy   new            =  -10535.1407497372 Ry

     new trust radius        =       0.0422405973 bohr
     new conv_thr            =       0.0000001000 Ry


ATOMIC_POSITIONS (crystal)
Fe1           0.0000000000        0.0000969260        0.0000000000
Fe2           0.2500008366        0.1948140718        0.0000000000
Fe1           0.2499991514        0.0000898648        0.2499991514
Fe2          -0.0000000000        0.1948140718        0.2500008366
Fe1           0.0000000000        0.0000970528        0.5000000000
Fe2           0.2499998061        0.1948139274        0.5000000000
Fe1           0.2499991514        0.0000898648        0.7500008486
Fe2           0.0000000000        0.1948140718        0.7499991634
Fe1           0.0000000000        0.6128796261        0.0000000000
Fe2           0.2500013348        0.8076006910        0.0000000000
Fe1           0.2499991182        0.6128732313        0.2499991182
Fe2           0.0000000000        0.8076006910        0.2500013348
Fe1           0.0000000000        0.6128783941        0.5000000000
Fe2           0.2500006235        0.8076013005        0.5000000000
Fe1           0.2499991182        0.6128732313        0.7500008818
Fe2           0.0000000000        0.8076006910        0.7499986652
Fe1           0.5000000000        0.0000970528        0.0000000000
Fe2           0.7499991634        0.1948140718        0.0000000000
Fe1           0.7500008486        0.0000898648        0.2499991514
Fe2           0.5000000000        0.1948139274        0.2499998061
Fe1           0.5000000000        0.0000995212        0.5000000000
Fe2           0.7500001939        0.1948139274        0.5000000000
Fe1           0.7500008486        0.0000898648        0.7500008486
Fe2           0.5000000000        0.1948139274        0.7500001939
Fe1           0.5000000000        0.6128783941        0.0000000000
Fe2           0.7499986652        0.8076006910        0.0000000000
Fe1           0.7500008818        0.6128732313        0.2499991182
Fe2           0.5000000000        0.8076013005        0.2500006235
Fe1           0.5000000000        0.6128776093        0.5000000000
Fe2           0.7499993765        0.8076013005        0.5000000000
Fe1           0.7500008818        0.6128732313        0.7500008818
Fe2           0.5000000000        0.8076013005        0.7499993765



     Writing output data file /scratch/gYThioHCkCHMwLVU.save/
     NEW-OLD atomic charge density approx. for the potential

     Check: negative core charge=   -0.000005

     negative rho (up, down):  0.000E+00 3.878E-04
     Generating pointlists ...

     total cpu time spent up to now is     3489.8 secs

     Self-consistent Calculation

     iteration #  1     ecut=    71.00 Ry     beta= 0.10
     Davidson diagonalization with overlap
     ethr =  1.00E-06,  avg # of iterations =  8.1

     negative rho (up, down):  0.000E+00 3.929E-04

     total cpu time spent up to now is     3817.9 secs

     total energy              =  -10535.14961672 Ry
     estimated scf accuracy    <       0.06092631 Ry

     total magnetization       =    -0.00 Bohr mag/cell
     absolute magnetization    =    54.04 Bohr mag/cell

     iteration #  2     ecut=    71.00 Ry     beta= 0.10
     Davidson diagonalization with overlap
     ethr =  1.19E-05,  avg # of iterations =  1.0

     negative rho (up, down):  0.000E+00 3.841E-04

     total cpu time spent up to now is     3921.6 secs

     total energy              =  -10535.15309649 Ry
     estimated scf accuracy    <       0.01717932 Ry

     total magnetization       =    -0.00 Bohr mag/cell
     absolute magnetization    =    54.12 Bohr mag/cell

     iteration #  3     ecut=    71.00 Ry     beta= 0.10
     Davidson diagonalization with overlap
     ethr =  3.36E-06,  avg # of iterations =  2.0

     negative rho (up, down):  0.000E+00 3.588E-04

     total cpu time spent up to now is     4038.5 secs

     total energy              =  -10535.16065765 Ry
     estimated scf accuracy    <       0.00449374 Ry

     total magnetization       =     0.00 Bohr mag/cell
     absolute magnetization    =    54.21 Bohr mag/cell

     iteration #  4     ecut=    71.00 Ry     beta= 0.10
     Davidson diagonalization with overlap
     ethr =  8.78E-07,  avg # of iterations =  2.0

     negative rho (up, down):  0.000E+00 3.322E-04

     total cpu time spent up to now is     4181.0 secs

     total energy              =  -10535.16485848 Ry
     estimated scf accuracy    <       0.00171655 Ry

     total magnetization       =     0.00 Bohr mag/cell
     absolute magnetization    =    54.32 Bohr mag/cell

     iteration #  5     ecut=    71.00 Ry     beta= 0.10
     Davidson diagonalization with overlap
     ethr =  3.35E-07,  avg # of iterations =  2.0

     negative rho (up, down):  0.000E+00 2.441E-04

     total cpu time spent up to now is     4304.6 secs

     total energy              =  -10535.16735786 Ry
     estimated scf accuracy    <       0.00148093 Ry

     total magnetization       =    -0.00 Bohr mag/cell
     absolute magnetization    =    54.39 Bohr mag/cell

     iteration #  6     ecut=    71.00 Ry     beta= 0.10
     Davidson diagonalization with overlap
     ethr =  2.89E-07,  avg # of iterations =  2.0

     negative rho (up, down):  0.000E+00 2.326E-04

     total cpu time spent up to now is     4444.8 secs

     total energy              =  -10535.16799370 Ry
     estimated scf accuracy    <       0.00006849 Ry

     total magnetization       =    -0.00 Bohr mag/cell
     absolute magnetization    =    54.56 Bohr mag/cell

     iteration #  7     ecut=    71.00 Ry     beta= 0.10
     Davidson diagonalization with overlap
     ethr =  1.34E-08,  avg # of iterations =  3.2

     negative rho (up, down):  0.000E+00 2.415E-04

     total cpu time spent up to now is     4588.6 secs

     total energy              =  -10535.16811674 Ry
     estimated scf accuracy    <       0.00004411 Ry

     total magnetization       =     0.00 Bohr mag/cell
     absolute magnetization    =    54.60 Bohr mag/cell

     iteration #  8     ecut=    71.00 Ry     beta= 0.10
     Davidson diagonalization with overlap
     ethr =  8.62E-09,  avg # of iterations =  2.0

     negative rho (up, down):  0.000E+00 2.390E-04

     total cpu time spent up to now is     4729.1 secs

     total energy              =  -10535.16813362 Ry
     estimated scf accuracy    <       0.00002170 Ry

     total magnetization       =     0.00 Bohr mag/cell
     absolute magnetization    =    54.61 Bohr mag/cell

     iteration #  9     ecut=    71.00 Ry     beta= 0.10
     Davidson diagonalization with overlap
     ethr =  4.24E-09,  avg # of iterations =  2.0

     negative rho (up, down):  0.000E+00 2.426E-04

     total cpu time spent up to now is     4852.1 secs

     total energy              =  -10535.16815795 Ry
     estimated scf accuracy    <       0.00001169 Ry

     total magnetization       =     0.00 Bohr mag/cell
     absolute magnetization    =    54.65 Bohr mag/cell

     iteration # 10     ecut=    71.00 Ry     beta= 0.10
     Davidson diagonalization with overlap
     ethr =  2.28E-09,  avg # of iterations =  2.0

     negative rho (up, down):  0.000E+00 2.445E-04

     total cpu time spent up to now is     4979.1 secs

     total energy              =  -10535.16816997 Ry
     estimated scf accuracy    <       0.00000836 Ry

     total magnetization       =    -0.00 Bohr mag/cell
     absolute magnetization    =    54.67 Bohr mag/cell

     iteration # 11     ecut=    71.00 Ry     beta= 0.10
     Davidson diagonalization with overlap
     ethr =  1.63E-09,  avg # of iterations =  2.0

     negative rho (up, down):  0.000E+00 2.465E-04

     total cpu time spent up to now is     5103.2 secs

     total energy              =  -10535.16817955 Ry
     estimated scf accuracy    <       0.00000636 Ry

     total magnetization       =    -0.00 Bohr mag/cell
     absolute magnetization    =    54.71 Bohr mag/cell

     iteration # 12     ecut=    71.00 Ry     beta= 0.10
     Davidson diagonalization with overlap
     ethr =  1.24E-09,  avg # of iterations =  2.2

     negative rho (up, down):  0.000E+00 2.504E-04

     total cpu time spent up to now is     5223.7 secs

     total energy              =  -10535.16818649 Ry
     estimated scf accuracy    <       0.00000315 Ry

     total magnetization       =    -0.00 Bohr mag/cell
     absolute magnetization    =    54.74 Bohr mag/cell

     iteration # 13     ecut=    71.00 Ry     beta= 0.10
     Davidson diagonalization with overlap
     ethr =  6.15E-10,  avg # of iterations =  2.3

     negative rho (up, down):  0.000E+00 2.554E-04

     total cpu time spent up to now is     5360.3 secs

     total energy              =  -10535.16818742 Ry
     estimated scf accuracy    <       0.00000169 Ry

     total magnetization       =    -0.00 Bohr mag/cell
     absolute magnetization    =    54.76 Bohr mag/cell

     iteration # 14     ecut=    71.00 Ry     beta= 0.10
     Davidson diagonalization with overlap
     ethr =  3.31E-10,  avg # of iterations =  4.0

     negative rho (up, down):  0.000E+00 2.548E-04

     total cpu time spent up to now is     5516.0 secs

     total energy              =  -10535.16819536 Ry
     estimated scf accuracy    <       0.00000088 Ry

     total magnetization       =    -0.00 Bohr mag/cell
     absolute magnetization    =    54.81 Bohr mag/cell

     iteration # 15     ecut=    71.00 Ry     beta= 0.10
     Davidson diagonalization with overlap
     ethr =  1.72E-10,  avg # of iterations =  2.0

     negative rho (up, down):  0.000E+00 2.525E-04

     total cpu time spent up to now is     5638.9 secs

     total energy              =  -10535.16819584 Ry
     estimated scf accuracy    <       0.00000064 Ry

     total magnetization       =    -0.00 Bohr mag/cell
     absolute magnetization    =    54.81 Bohr mag/cell

     iteration # 16     ecut=    71.00 Ry     beta= 0.10
     Davidson diagonalization with overlap
     ethr =  1.25E-10,  avg # of iterations =  3.9

     negative rho (up, down):  0.000E+00 2.511E-04

     total cpu time spent up to now is     5800.4 secs

     total energy              =  -10535.16819974 Ry
     estimated scf accuracy    <       0.00000046 Ry

     total magnetization       =    -0.00 Bohr mag/cell
     absolute magnetization    =    54.84 Bohr mag/cell

     iteration # 17     ecut=    71.00 Ry     beta= 0.10
     Davidson diagonalization with overlap
     ethr =  8.98E-11,  avg # of iterations =  2.0

     negative rho (up, down):  0.000E+00 2.532E-04
 
     Magnetic moment per site:
     atom:    1    charge:   14.4601    magn:    1.0471    constr:    0.0000
     atom:    2    charge:   14.2954    magn:   -2.2225    constr:    0.0000
     atom:    3    charge:   14.4589    magn:    1.0684    constr:    0.0000
     atom:    4    charge:   14.2954    magn:   -2.2225    constr:    0.0000
     atom:    5    charge:   14.4601    magn:    1.0467    constr:    0.0000
     atom:    6    charge:   14.2954    magn:   -2.2225    constr:    0.0000
     atom:    7    charge:   14.4589    magn:    1.0684    constr:    0.0000
     atom:    8    charge:   14.2954    magn:   -2.2225    constr:    0.0000
     atom:    9    charge:   14.2955    magn:    2.2223    constr:    0.0000
     atom:   10    charge:   14.4599    magn:   -1.0575    constr:    0.0000
     atom:   11    charge:   14.2949    magn:    2.2228    constr:    0.0000
     atom:   12    charge:   14.4599    magn:   -1.0575    constr:    0.0000
     atom:   13    charge:   14.2955    magn:    2.2223    constr:    0.0000
     atom:   14    charge:   14.4599    magn:   -1.0581    constr:    0.0000
     atom:   15    charge:   14.2949    magn:    2.2228    constr:    0.0000
     atom:   16    charge:   14.4599    magn:   -1.0575    constr:    0.0000
     atom:   17    charge:   14.4601    magn:    1.0467    constr:    0.0000
     atom:   18    charge:   14.2954    magn:   -2.2225    constr:    0.0000
     atom:   19    charge:   14.4589    magn:    1.0684    constr:    0.0000
     atom:   20    charge:   14.2954    magn:   -2.2225    constr:    0.0000
     atom:   21    charge:   14.4601    magn:    1.0465    constr:    0.0000
     atom:   22    charge:   14.2954    magn:   -2.2225    constr:    0.0000
     atom:   23    charge:   14.4589    magn:    1.0684    constr:    0.0000
     atom:   24    charge:   14.2954    magn:   -2.2225    constr:    0.0000
     atom:   25    charge:   14.2955    magn:    2.2223    constr:    0.0000
     atom:   26    charge:   14.4599    magn:   -1.0575    constr:    0.0000
     atom:   27    charge:   14.2949    magn:    2.2228    constr:    0.0000
     atom:   28    charge:   14.4599    magn:   -1.0581    constr:    0.0000
     atom:   29    charge:   14.2955    magn:    2.2223    constr:    0.0000
     atom:   30    charge:   14.4599    magn:   -1.0581    constr:    0.0000
     atom:   31    charge:   14.2949    magn:    2.2228    constr:    0.0000
     atom:   32    charge:   14.4599    magn:   -1.0581    constr:    0.0000

     total cpu time spent up to now is     5927.9 secs

     End of self-consistent calculation

     Number of k-points >= 100: set verbosity='high' to print the bands.

     the Fermi energy is    15.5977 ev

!    total energy              =  -10535.16820637 Ry

     total all-electron energy =    -81456.657264 Ry
     estimated scf accuracy    <       0.00000009 Ry
     smearing contrib. (-TS)   =       0.02981570 Ry
     internal energy E=F+TS    =  -10535.19802206 Ry

     The total energy is F=E-TS. E is the sum of the following terms:
     one-electron contribution =   -6406.73130758 Ry
     hartree contribution      =    3470.46099268 Ry
     xc contribution           =    -886.88010055 Ry
     ewald contribution        =   -4062.66051490 Ry
     one-center paw contrib.   =   -2649.38709171 Ry

     total magnetization       =    -0.00 Bohr mag/cell
     absolute magnetization    =    54.83 Bohr mag/cell

     convergence has been achieved in  17 iterations

     negative rho (up, down):  0.000E+00 2.532E-04

     Forces acting on atoms (cartesian axes, Ry/au):

     atom    1 type  1   force =     0.00000000    0.00414502    0.00000000
     atom    2 type  2   force =    -0.00000085    0.03899475    0.00000000
     atom    3 type  1   force =    -0.00000072    0.00402131   -0.00000072
     atom    4 type  2   force =     0.00000000    0.03899475   -0.00000085
     atom    5 type  1   force =     0.00000000    0.00415041    0.00000000
     atom    6 type  2   force =    -0.00000024    0.03899369    0.00000000
     atom    7 type  1   force =    -0.00000072    0.00402131    0.00000072
     atom    8 type  2   force =     0.00000000    0.03899475    0.00000085
     atom    9 type  1   force =     0.00000000   -0.03914173    0.00000000
     atom   10 type  2   force =    -0.00000003   -0.00402682    0.00000000
     atom   11 type  1   force =     0.00000091   -0.03896237    0.00000091
     atom   12 type  2   force =     0.00000000   -0.00402682   -0.00000003
     atom   13 type  1   force =     0.00000000   -0.03914275    0.00000000
     atom   14 type  2   force =     0.00000198   -0.00402565    0.00000000
     atom   15 type  1   force =     0.00000091   -0.03896237   -0.00000091
     atom   16 type  2   force =    -0.00000000   -0.00402682    0.00000003
     atom   17 type  1   force =     0.00000000    0.00415041    0.00000000
     atom   18 type  2   force =     0.00000085    0.03899475    0.00000000
     atom   19 type  1   force =     0.00000072    0.00402131   -0.00000072
     atom   20 type  2   force =     0.00000000    0.03899369   -0.00000024
     atom   21 type  1   force =     0.00000000    0.00414641    0.00000000
     atom   22 type  2   force =     0.00000024    0.03899369    0.00000000
     atom   23 type  1   force =     0.00000072    0.00402131    0.00000072
     atom   24 type  2   force =     0.00000000    0.03899369    0.00000024
     atom   25 type  1   force =     0.00000000   -0.03914275    0.00000000
     atom   26 type  2   force =     0.00000003   -0.00402682    0.00000000
     atom   27 type  1   force =    -0.00000091   -0.03896237    0.00000091
     atom   28 type  2   force =     0.00000000   -0.00402565    0.00000198
     atom   29 type  1   force =     0.00000000   -0.03914464    0.00000000
     atom   30 type  2   force =    -0.00000198   -0.00402565    0.00000000
     atom   31 type  1   force =    -0.00000091   -0.03896237   -0.00000091
     atom   32 type  2   force =     0.00000000   -0.00402565   -0.00000198

     Total force =     0.156935     Total SCF correction =     0.001529


     Computing stress (Cartesian axis) and pressure


     negative rho (up, down):  0.000E+00 2.532E-04
          total   stress  (Ry/bohr**3)                   (kbar)     P=        5.17
   0.00006646   0.00000000   0.00000000            9.78        0.00        0.00
   0.00000000  -0.00002757   0.00000000            0.00       -4.06        0.00
   0.00000000   0.00000000   0.00006646            0.00        0.00        9.78

     Energy error            =      2.7E-02
     Gradient error          =      3.9E-02

     number of scf cycles    =   2
     number of bfgs steps    =   1

     energy   old            =  -10535.1407497372 Ry
     energy   new            =  -10535.1682063675 Ry

     CASE: energy  _new < energy  _old


     WARNING: bfgs curvature condition failed, Theta= 0.862
     new trust radius        =       0.0464646571 bohr
     new conv_thr            =       0.0000000391 Ry


ATOMIC_POSITIONS (crystal)
Fe1           0.0000000000        0.0003315996        0.0000000000
Fe2           0.2500010697        0.1975690962        0.0000000000
Fe1           0.2499988149        0.0003161037        0.2499988149
Fe2          -0.0000000000        0.1975690962        0.2500010697
Fe1           0.0000000000        0.0003320319        0.5000000000
Fe2           0.2499997243        0.1975688509        0.5000000000
Fe1           0.2499988149        0.0003161037        0.7500011851
Fe2           0.0000000000        0.1975690962        0.7499989303
Fe1           0.0000000000        0.6101179371        0.0000000000
Fe2           0.2500017912        0.8073735830        0.0000000000
Fe1           0.2499988728        0.6101180621        0.2499988728
Fe2           0.0000000000        0.8073735830        0.2500017912
Fe1           0.0000000000        0.6101162328        0.5000000000
Fe2           0.2500009628        0.8073744583        0.5000000000
Fe1           0.2499988728        0.6101180621        0.7500011272
Fe2          -0.0000000000        0.8073735830        0.7499982088
Fe1           0.5000000000        0.0003320319        0.0000000000
Fe2           0.7499989303        0.1975690962        0.0000000000
Fe1           0.7500011851        0.0003161037        0.2499988149
Fe2           0.5000000000        0.1975688509        0.2499997243
Fe1           0.5000000000        0.0003351530        0.5000000000
Fe2           0.7500002757        0.1975688509        0.5000000000
Fe1           0.7500011851        0.0003161037        0.7500011851
Fe2           0.5000000000        0.1975688509        0.7500002757
Fe1           0.5000000000        0.6101162328        0.0000000000
Fe2           0.7499982088        0.8073735830        0.0000000000
Fe1           0.7500011272        0.6101180621        0.2499988728
Fe2           0.5000000000        0.8073744583        0.2500009628
Fe1           0.5000000000        0.6101150866        0.5000000000
Fe2           0.7499990372        0.8073744583        0.5000000000
Fe1           0.7500011272        0.6101180621        0.7500011272
Fe2           0.5000000000        0.8073744583        0.7499990372



     Writing output data file /scratch/gYThioHCkCHMwLVU.save/
     NEW-OLD atomic charge density approx. for the potential

     Check: negative core charge=   -0.000005

     negative rho (up, down):  0.000E+00 9.532E-04
     Generating pointlists ...

     total cpu time spent up to now is     6087.3 secs

     Self-consistent Calculation

     iteration #  1     ecut=    71.00 Ry     beta= 0.10
     Davidson diagonalization with overlap
     ethr =  1.00E-06,  avg # of iterations =  8.0

     negative rho (up, down):  0.000E+00 9.345E-04

     total cpu time spent up to now is     6428.5 secs

     total energy              =  -10535.17326909 Ry
     estimated scf accuracy    <       0.07550550 Ry

     total magnetization       =    -0.00 Bohr mag/cell
     absolute magnetization    =    55.45 Bohr mag/cell

     iteration #  2     ecut=    71.00 Ry     beta= 0.10
     Davidson diagonalization with overlap
     ethr =  1.47E-05,  avg # of iterations =  1.0

     negative rho (up, down):  0.000E+00 8.943E-04

     total cpu time spent up to now is     6531.8 secs

     total energy              =  -10535.17764255 Ry
     estimated scf accuracy    <       0.02138431 Ry

     total magnetization       =    -0.00 Bohr mag/cell
     absolute magnetization    =    55.55 Bohr mag/cell

     iteration #  3     ecut=    71.00 Ry     beta= 0.10
     Davidson diagonalization with overlap
     ethr =  4.18E-06,  avg # of iterations =  2.0

     negative rho (up, down):  0.000E+00 7.999E-04

     total cpu time spent up to now is     6648.4 secs

     total energy              =  -10535.18700417 Ry
     estimated scf accuracy    <       0.00521811 Ry

     total magnetization       =    -0.00 Bohr mag/cell
     absolute magnetization    =    55.64 Bohr mag/cell

     iteration #  4     ecut=    71.00 Ry     beta= 0.10
     Davidson diagonalization with overlap
     ethr =  1.02E-06,  avg # of iterations =  2.0

     negative rho (up, down):  0.000E+00 7.638E-04

     total cpu time spent up to now is     6790.1 secs

     total energy              =  -10535.19222309 Ry
     estimated scf accuracy    <       0.00208315 Ry

     total magnetization       =    -0.00 Bohr mag/cell
     absolute magnetization    =    55.75 Bohr mag/cell

     iteration #  5     ecut=    71.00 Ry     beta= 0.10
     Davidson diagonalization with overlap
     ethr =  4.07E-07,  avg # of iterations =  2.0

     negative rho (up, down):  0.000E+00 6.660E-04

     total cpu time spent up to now is     6913.8 secs

     total energy              =  -10535.19514457 Ry
     estimated scf accuracy    <       0.00210194 Ry

     total magnetization       =    -0.00 Bohr mag/cell
     absolute magnetization    =    55.84 Bohr mag/cell

     iteration #  6     ecut=    71.00 Ry     beta= 0.10
     Davidson diagonalization with overlap
     ethr =  4.07E-07,  avg # of iterations =  2.0

     negative rho (up, down):  0.000E+00 6.523E-04

     total cpu time spent up to now is     7053.3 secs

     total energy              =  -10535.19591914 Ry
     estimated scf accuracy    <       0.00007656 Ry

     total magnetization       =    -0.00 Bohr mag/cell
     absolute magnetization    =    56.02 Bohr mag/cell

     iteration #  7     ecut=    71.00 Ry     beta= 0.10
     Davidson diagonalization with overlap
     ethr =  1.50E-08,  avg # of iterations =  3.3

     negative rho (up, down):  0.000E+00 6.695E-04

     total cpu time spent up to now is     7199.3 secs

     total energy              =  -10535.19610666 Ry
     estimated scf accuracy    <       0.00005100 Ry

     total magnetization       =    -0.00 Bohr mag/cell
     absolute magnetization    =    56.07 Bohr mag/cell

     iteration #  8     ecut=    71.00 Ry     beta= 0.10
     Davidson diagonalization with overlap
     ethr =  9.96E-09,  avg # of iterations =  2.0

     negative rho (up, down):  0.000E+00 6.673E-04

     total cpu time spent up to now is     7344.0 secs

     total energy              =  -10535.19614531 Ry
     estimated scf accuracy    <       0.00001638 Ry

     total magnetization       =    -0.00 Bohr mag/cell
     absolute magnetization    =    56.10 Bohr mag/cell

     iteration #  9     ecut=    71.00 Ry     beta= 0.10
     Davidson diagonalization with overlap
     ethr =  3.20E-09,  avg # of iterations =  2.0

     negative rho (up, down):  0.000E+00 6.695E-04

     total cpu time spent up to now is     7465.6 secs

     total energy              =  -10535.19616413 Ry
     estimated scf accuracy    <       0.00001401 Ry

     total magnetization       =    -0.00 Bohr mag/cell
     absolute magnetization    =    56.12 Bohr mag/cell

     iteration # 10     ecut=    71.00 Ry     beta= 0.10
     Davidson diagonalization with overlap
     ethr =  2.74E-09,  avg # of iterations =  2.0

     negative rho (up, down):  0.000E+00 6.715E-04

     total cpu time spent up to now is     7588.0 secs

     total energy              =  -10535.19618017 Ry
     estimated scf accuracy    <       0.00000683 Ry

     total magnetization       =    -0.00 Bohr mag/cell
     absolute magnetization    =    56.16 Bohr mag/cell

     iteration # 11     ecut=    71.00 Ry     beta= 0.10
     Davidson diagonalization with overlap
     ethr =  1.33E-09,  avg # of iterations =  2.7

     negative rho (up, down):  0.000E+00 6.726E-04

     total cpu time spent up to now is     7720.1 secs

     total energy              =  -10535.19618891 Ry
     estimated scf accuracy    <       0.00000896 Ry

     total magnetization       =    -0.00 Bohr mag/cell
     absolute magnetization    =    56.20 Bohr mag/cell

     iteration # 12     ecut=    71.00 Ry     beta= 0.10
     Davidson diagonalization with overlap
     ethr =  1.33E-09,  avg # of iterations =  2.0

     negative rho (up, down):  0.000E+00 6.798E-04

     total cpu time spent up to now is     7837.7 secs

     total energy              =  -10535.19618780 Ry
     estimated scf accuracy    <       0.00000366 Ry

     total magnetization       =    -0.00 Bohr mag/cell
     absolute magnetization    =    56.22 Bohr mag/cell

     iteration # 13     ecut=    71.00 Ry     beta= 0.10
     Davidson diagonalization with overlap
     ethr =  7.14E-10,  avg # of iterations =  4.0

     negative rho (up, down):  0.000E+00 6.789E-04

     total cpu time spent up to now is     7989.8 secs

     total energy              =  -10535.19620279 Ry
     estimated scf accuracy    <       0.00000127 Ry

     total magnetization       =    -0.00 Bohr mag/cell
     absolute magnetization    =    56.29 Bohr mag/cell

     iteration # 14     ecut=    71.00 Ry     beta= 0.10
     Davidson diagonalization with overlap
     ethr =  2.48E-10,  avg # of iterations =  2.0

     negative rho (up, down):  0.000E+00 6.777E-04

     total cpu time spent up to now is     8121.0 secs

     total energy              =  -10535.19620611 Ry
     estimated scf accuracy    <       0.00000128 Ry

     total magnetization       =    -0.00 Bohr mag/cell
     absolute magnetization    =    56.30 Bohr mag/cell

     iteration # 15     ecut=    71.00 Ry     beta= 0.10
     Davidson diagonalization with overlap
     ethr =  2.48E-10,  avg # of iterations =  2.0

     negative rho (up, down):  0.000E+00 6.771E-04

     total cpu time spent up to now is     8245.2 secs

     total energy              =  -10535.19620809 Ry
     estimated scf accuracy    <       0.00000053 Ry

     total magnetization       =    -0.00 Bohr mag/cell
     absolute magnetization    =    56.30 Bohr mag/cell

     iteration # 16     ecut=    71.00 Ry     beta= 0.10
     Davidson diagonalization with overlap
     ethr =  1.04E-10,  avg # of iterations =  2.9

     negative rho (up, down):  0.000E+00 6.760E-04

     total cpu time spent up to now is     8384.9 secs

     total energy              =  -10535.19621047 Ry
     estimated scf accuracy    <       0.00000016 Ry

     total magnetization       =    -0.00 Bohr mag/cell
     absolute magnetization    =    56.31 Bohr mag/cell

     iteration # 17     ecut=    71.00 Ry     beta= 0.10
     Davidson diagonalization with overlap
     ethr =  3.17E-11,  avg # of iterations =  2.0

     negative rho (up, down):  0.000E+00 6.758E-04

     total cpu time spent up to now is     8520.3 secs

     total energy              =  -10535.19621185 Ry
     estimated scf accuracy    <       0.00000007 Ry

     total magnetization       =    -0.00 Bohr mag/cell
     absolute magnetization    =    56.31 Bohr mag/cell

     iteration # 18     ecut=    71.00 Ry     beta= 0.10
     Davidson diagonalization with overlap
     ethr =  1.39E-11,  avg # of iterations =  2.0

     negative rho (up, down):  0.000E+00 6.756E-04

     total cpu time spent up to now is     8646.0 secs

     total energy              =  -10535.19621292 Ry
     estimated scf accuracy    <       0.00000005 Ry

     total magnetization       =    -0.00 Bohr mag/cell
     absolute magnetization    =    56.31 Bohr mag/cell

     iteration # 19     ecut=    71.00 Ry     beta= 0.10
     Davidson diagonalization with overlap
     ethr =  9.37E-12,  avg # of iterations =  2.0

     negative rho (up, down):  0.000E+00 6.765E-04
 
     Magnetic moment per site:
     atom:    1    charge:   14.4494    magn:    1.1001    constr:    0.0000
     atom:    2    charge:   14.2858    magn:   -2.2550    constr:    0.0000
     atom:    3    charge:   14.4481    magn:    1.1261    constr:    0.0000
     atom:    4    charge:   14.2858    magn:   -2.2550    constr:    0.0000
     atom:    5    charge:   14.4494    magn:    1.0999    constr:    0.0000
     atom:    6    charge:   14.2858    magn:   -2.2550    constr:    0.0000
     atom:    7    charge:   14.4481    magn:    1.1261    constr:    0.0000
     atom:    8    charge:   14.2858    magn:   -2.2550    constr:    0.0000
     atom:    9    charge:   14.2860    magn:    2.2548    constr:    0.0000
     atom:   10    charge:   14.4491    magn:   -1.1133    constr:    0.0000
     atom:   11    charge:   14.2853    magn:    2.2555    constr:    0.0000
     atom:   12    charge:   14.4491    magn:   -1.1133    constr:    0.0000
     atom:   13    charge:   14.2860    magn:    2.2548    constr:    0.0000
     atom:   14    charge:   14.4491    magn:   -1.1135    constr:    0.0000
     atom:   15    charge:   14.2853    magn:    2.2555    constr:    0.0000
     atom:   16    charge:   14.4491    magn:   -1.1133    constr:    0.0000
     atom:   17    charge:   14.4494    magn:    1.0999    constr:    0.0000
     atom:   18    charge:   14.2858    magn:   -2.2550    constr:    0.0000
     atom:   19    charge:   14.4481    magn:    1.1261    constr:    0.0000
     atom:   20    charge:   14.2858    magn:   -2.2550    constr:    0.0000
     atom:   21    charge:   14.4494    magn:    1.0998    constr:    0.0000
     atom:   22    charge:   14.2858    magn:   -2.2550    constr:    0.0000
     atom:   23    charge:   14.4481    magn:    1.1261    constr:    0.0000
     atom:   24    charge:   14.2858    magn:   -2.2550    constr:    0.0000
     atom:   25    charge:   14.2860    magn:    2.2548    constr:    0.0000
     atom:   26    charge:   14.4491    magn:   -1.1133    constr:    0.0000
     atom:   27    charge:   14.2853    magn:    2.2555    constr:    0.0000
     atom:   28    charge:   14.4491    magn:   -1.1135    constr:    0.0000
     atom:   29    charge:   14.2859    magn:    2.2549    constr:    0.0000
     atom:   30    charge:   14.4491    magn:   -1.1135    constr:    0.0000
     atom:   31    charge:   14.2853    magn:    2.2555    constr:    0.0000
     atom:   32    charge:   14.4491    magn:   -1.1135    constr:    0.0000

     total cpu time spent up to now is     8763.0 secs

     End of self-consistent calculation

     Number of k-points >= 100: set verbosity='high' to print the bands.

     the Fermi energy is    15.6085 ev

!    total energy              =  -10535.19621747 Ry

     total all-electron energy =    -81456.685275 Ry
     estimated scf accuracy    <       0.00000003 Ry
     smearing contrib. (-TS)   =       0.02760763 Ry
     internal energy E=F+TS    =  -10535.22382510 Ry

     The total energy is F=E-TS. E is the sum of the following terms:
     one-electron contribution =   -6260.47058471 Ry
     hartree contribution      =    3397.58725476 Ry
     xc contribution           =    -886.79578741 Ry
     ewald contribution        =   -4136.16119089 Ry
     one-center paw contrib.   =   -2649.38351685 Ry

     total magnetization       =    -0.00 Bohr mag/cell
     absolute magnetization    =    56.31 Bohr mag/cell

     convergence has been achieved in  19 iterations

     negative rho (up, down):  0.000E+00 6.765E-04

     Forces acting on atoms (cartesian axes, Ry/au):

     atom    1 type  1   force =     0.00000000    0.00630455    0.00000000
     atom    2 type  2   force =    -0.00000318    0.03560639    0.00000000
     atom    3 type  1   force =     0.00000222    0.00621762    0.00000222
     atom    4 type  2   force =    -0.00000000    0.03560639   -0.00000318
     atom    5 type  1   force =     0.00000000    0.00630540    0.00000000
     atom    6 type  2   force =    -0.00000040    0.03560650    0.00000000
     atom    7 type  1   force =     0.00000222    0.00621762   -0.00000222
     atom    8 type  2   force =     0.00000000    0.03560639    0.00000318
     atom    9 type  1   force =     0.00000000   -0.03555607    0.00000000
     atom   10 type  2   force =    -0.00000482   -0.00629664    0.00000000
     atom   11 type  1   force =     0.00000221   -0.03558281    0.00000221
     atom   12 type  2   force =    -0.00000000   -0.00629664   -0.00000482
     atom   13 type  1   force =     0.00000000   -0.03555525    0.00000000
     atom   14 type  2   force =    -0.00000104   -0.00629883    0.00000000
     atom   15 type  1   force =     0.00000221   -0.03558281   -0.00000221
     atom   16 type  2   force =     0.00000000   -0.00629664    0.00000482
     atom   17 type  1   force =     0.00000000    0.00630540    0.00000000
     atom   18 type  2   force =     0.00000318    0.03560639    0.00000000
     atom   19 type  1   force =    -0.00000222    0.00621762    0.00000222
     atom   20 type  2   force =     0.00000000    0.03560650   -0.00000040
     atom   21 type  1   force =     0.00000000    0.00629711    0.00000000
     atom   22 type  2   force =     0.00000040    0.03560650    0.00000000
     atom   23 type  1   force =    -0.00000222    0.00621762   -0.00000222
     atom   24 type  2   force =    -0.00000000    0.03560650    0.00000040
     atom   25 type  1   force =     0.00000000   -0.03555525    0.00000000
     atom   26 type  2   force =     0.00000482   -0.00629664    0.00000000
     atom   27 type  1   force =    -0.00000221   -0.03558281    0.00000221
     atom   28 type  2   force =     0.00000000   -0.00629883   -0.00000104
     atom   29 type  1   force =     0.00000000   -0.03555481    0.00000000
     atom   30 type  2   force =     0.00000104   -0.00629883    0.00000000
     atom   31 type  1   force =    -0.00000221   -0.03558281   -0.00000221
     atom   32 type  2   force =     0.00000000   -0.00629883    0.00000104

     Total force =     0.144550     Total SCF correction =     0.000558


     Computing stress (Cartesian axis) and pressure


     negative rho (up, down):  0.000E+00 6.765E-04
          total   stress  (Ry/bohr**3)                   (kbar)     P=       -6.45
   0.00000858   0.00000000   0.00000000            1.26        0.00        0.00
   0.00000000  -0.00014876   0.00000000            0.00      -21.88        0.00
   0.00000000   0.00000000   0.00000858            0.00        0.00        1.26

     Energy error            =      2.8E-02
     Gradient error          =      3.6E-02

     number of scf cycles    =   3
     number of bfgs steps    =   2

     energy   old            =  -10535.1682063675 Ry
     energy   new            =  -10535.1962174677 Ry

     CASE: energy  _new < energy  _old

     new trust radius        =       0.0696969856 bohr
     new conv_thr            =       0.0000000356 Ry


ATOMIC_POSITIONS (crystal)
Fe1           0.0000000000        0.0009119672        0.0000000000
Fe2           0.2500011730        0.2017117543        0.0000000000
Fe1           0.2499986202        0.0008862681        0.2499986202
Fe2          -0.0000000000        0.2017117543        0.2500011730
Fe1           0.0000000000        0.0009124668        0.5000000000
Fe2           0.2499995706        0.2017114547        0.5000000000
Fe1           0.2499986202        0.0008862681        0.7500013798
Fe2           0.0000000000        0.2017117543        0.7499988270
Fe1           0.0000000000        0.6059830612        0.0000000000
Fe2           0.2500019601        0.8067951179        0.0000000000
Fe1           0.2499986254        0.6059742780        0.2499986254
Fe2          -0.0000000000        0.8067951179        0.2500019601
Fe1           0.0000000000        0.6059807530        0.5000000000
Fe2           0.2500011481        0.8067961148        0.5000000000
Fe1           0.2499986254        0.6059742780        0.7500013746
Fe2           0.0000000000        0.8067951179        0.7499980399
Fe1           0.5000000000        0.0009124668        0.0000000000
Fe2           0.7499988270        0.2017117543        0.0000000000
Fe1           0.7500013798        0.0008862681        0.2499986202
Fe2           0.5000000000        0.2017114547        0.2499995706
Fe1           0.5000000000        0.0009162700        0.5000000000
Fe2           0.7500004294        0.2017114547        0.5000000000
Fe1           0.7500013798        0.0008862681        0.7500013798
Fe2           0.5000000000        0.2017114547        0.7500004294
Fe1           0.5000000000        0.6059807530        0.0000000000
Fe2           0.7499980399        0.8067951179        0.0000000000
Fe1           0.7500013746        0.6059742780        0.2499986254
Fe2           0.5000000000        0.8067961148        0.2500011481
Fe1           0.5000000000        0.6059792337        0.5000000000
Fe2           0.7499988519        0.8067961148        0.5000000000
Fe1           0.7500013746        0.6059742780        0.7500013746
Fe2           0.5000000000        0.8067961148        0.7499988519



     Writing output data file /scratch/gYThioHCkCHMwLVU.save/
     NEW-OLD atomic charge density approx. for the potential

     Check: negative core charge=   -0.000005

     negative rho (up, down):  0.000E+00 5.809E-04
     Generating pointlists ...

     total cpu time spent up to now is     8920.4 secs

     Self-consistent Calculation

     iteration #  1     ecut=    71.00 Ry     beta= 0.10
     Davidson diagonalization with overlap
     ethr =  1.00E-06,  avg # of iterations =  9.0

     negative rho (up, down):  0.000E+00 5.054E-04

     total cpu time spent up to now is     9296.9 secs

     total energy              =  -10535.17395624 Ry
     estimated scf accuracy    <       0.18705414 Ry

     total magnetization       =    -0.00 Bohr mag/cell
     absolute magnetization    =    57.24 Bohr mag/cell

     iteration #  2     ecut=    71.00 Ry     beta= 0.10
     Davidson diagonalization with overlap
     ethr =  3.65E-05,  avg # of iterations =  1.0

     negative rho (up, down):  0.000E+00 3.955E-04

     total cpu time spent up to now is     9400.5 secs

     total energy              =  -10535.18701125 Ry
     estimated scf accuracy    <       0.05213026 Ry

     total magnetization       =    -0.00 Bohr mag/cell
     absolute magnetization    =    57.39 Bohr mag/cell

     iteration #  3     ecut=    71.00 Ry     beta= 0.10
     Davidson diagonalization with overlap
     ethr =  1.02E-05,  avg # of iterations =  1.9

     negative rho (up, down):  0.000E+00 1.514E-04

     total cpu time spent up to now is     9516.6 secs

     total energy              =  -10535.21317404 Ry
     estimated scf accuracy    <       0.01166967 Ry

     total magnetization       =    -0.00 Bohr mag/cell
     absolute magnetization    =    57.53 Bohr mag/cell

     iteration #  4     ecut=    71.00 Ry     beta= 0.10
     Davidson diagonalization with overlap
     ethr =  2.28E-06,  avg # of iterations =  2.0

     negative rho (up, down):  0.000E+00 1.031E-04

     total cpu time spent up to now is     9657.4 secs

     total energy              =  -10535.22543664 Ry
     estimated scf accuracy    <       0.00456330 Ry

     total magnetization       =    -0.00 Bohr mag/cell
     absolute magnetization    =    57.69 Bohr mag/cell

     iteration #  5     ecut=    71.00 Ry     beta= 0.10
     Davidson diagonalization with overlap
     ethr =  8.91E-07,  avg # of iterations =  2.0

     negative rho (up, down):  0.000E+00 1.600E-05

     total cpu time spent up to now is     9782.9 secs

     total energy              =  -10535.23216053 Ry
     estimated scf accuracy    <       0.00465192 Ry

     total magnetization       =    -0.00 Bohr mag/cell
     absolute magnetization    =    57.82 Bohr mag/cell

     iteration #  6     ecut=    71.00 Ry     beta= 0.10
     Davidson diagonalization with overlap
     ethr =  8.91E-07,  avg # of iterations =  2.0

     negative rho (up, down):  0.000E+00 6.661E-06

     total cpu time spent up to now is     9924.0 secs

     total energy              =  -10535.23384617 Ry
     estimated scf accuracy    <       0.00016678 Ry

     total magnetization       =    -0.00 Bohr mag/cell
     absolute magnetization    =    58.08 Bohr mag/cell

     iteration #  7     ecut=    71.00 Ry     beta= 0.10
     Davidson diagonalization with overlap
     ethr =  3.26E-08,  avg # of iterations =  3.2

     negative rho (up, down):  0.000E+00 2.852E-05

     total cpu time spent up to now is    10067.3 secs

     total energy              =  -10535.23419040 Ry
     estimated scf accuracy    <       0.00010949 Ry

     total magnetization       =    -0.00 Bohr mag/cell
     absolute magnetization    =    58.14 Bohr mag/cell

     iteration #  8     ecut=    71.00 Ry     beta= 0.10
     Davidson diagonalization with overlap
     ethr =  2.14E-08,  avg # of iterations =  2.0

     negative rho (up, down):  0.000E+00 2.546E-05

     total cpu time spent up to now is    10212.4 secs

     total energy              =  -10535.23427391 Ry
     estimated scf accuracy    <       0.00003874 Ry

     total magnetization       =    -0.00 Bohr mag/cell
     absolute magnetization    =    58.18 Bohr mag/cell

     iteration #  9     ecut=    71.00 Ry     beta= 0.10
     Davidson diagonalization with overlap
     ethr =  7.57E-09,  avg # of iterations =  2.0

     negative rho (up, down):  0.000E+00 2.515E-05

     total cpu time spent up to now is    10342.6 secs

     total energy              =  -10535.23431392 Ry
     estimated scf accuracy    <       0.00003617 Ry

     total magnetization       =    -0.00 Bohr mag/cell
     absolute magnetization    =    58.24 Bohr mag/cell

     iteration # 10     ecut=    71.00 Ry     beta= 0.10
     Davidson diagonalization with overlap
     ethr =  7.06E-09,  avg # of iterations =  1.8

     negative rho (up, down):  0.000E+00 2.592E-05

     total cpu time spent up to now is    10456.8 secs

     total energy              =  -10535.23433674 Ry
     estimated scf accuracy    <       0.00001526 Ry

     total magnetization       =    -0.00 Bohr mag/cell
     absolute magnetization    =    58.29 Bohr mag/cell

     iteration # 11     ecut=    71.00 Ry     beta= 0.10
     Davidson diagonalization with overlap
     ethr =  2.98E-09,  avg # of iterations =  3.3

     negative rho (up, down):  0.000E+00 2.540E-05

     total cpu time spent up to now is    10591.6 secs

     total energy              =  -10535.23436088 Ry
     estimated scf accuracy    <       0.00001698 Ry

     total magnetization       =    -0.00 Bohr mag/cell
     absolute magnetization    =    58.36 Bohr mag/cell

     iteration # 12     ecut=    71.00 Ry     beta= 0.10
     Davidson diagonalization with overlap
     ethr =  2.98E-09,  avg # of iterations =  2.0

     negative rho (up, down):  0.000E+00 2.832E-05

     total cpu time spent up to now is    10708.7 secs

     total energy              =  -10535.23437164 Ry
     estimated scf accuracy    <       0.00000637 Ry

     total magnetization       =    -0.00 Bohr mag/cell
     absolute magnetization    =    58.40 Bohr mag/cell

     iteration # 13     ecut=    71.00 Ry     beta= 0.10
     Davidson diagonalization with overlap
     ethr =  1.24E-09,  avg # of iterations =  3.5

     negative rho (up, down):  0.000E+00 2.961E-05

     total cpu time spent up to now is    10850.8 secs

     total energy              =  -10535.23438468 Ry
     estimated scf accuracy    <       0.00000325 Ry

     total magnetization       =    -0.00 Bohr mag/cell
     absolute magnetization    =    58.45 Bohr mag/cell

     iteration # 14     ecut=    71.00 Ry     beta= 0.10
     Davidson diagonalization with overlap
     ethr =  6.34E-10,  avg # of iterations =  2.6

     negative rho (up, down):  0.000E+00 2.913E-05

     total cpu time spent up to now is    10988.1 secs

     total energy              =  -10535.23439256 Ry
     estimated scf accuracy    <       0.00000229 Ry

     total magnetization       =    -0.00 Bohr mag/cell
     absolute magnetization    =    58.47 Bohr mag/cell

     iteration # 15     ecut=    71.00 Ry     beta= 0.10
     Davidson diagonalization with overlap
     ethr =  4.47E-10,  avg # of iterations =  1.7

     negative rho (up, down):  0.000E+00 2.855E-05

     total cpu time spent up to now is    11099.8 secs

     total energy              =  -10535.23439722 Ry
     estimated scf accuracy    <       0.00000154 Ry

     total magnetization       =    -0.00 Bohr mag/cell
     absolute magnetization    =    58.47 Bohr mag/cell

     iteration # 16     ecut=    71.00 Ry     beta= 0.10
     Davidson diagonalization with overlap
     ethr =  3.01E-10,  avg # of iterations =  2.0

     negative rho (up, down):  0.000E+00 2.770E-05

     total cpu time spent up to now is    11216.9 secs

     total energy              =  -10535.23440138 Ry
     estimated scf accuracy    <       0.00000107 Ry

     total magnetization       =    -0.00 Bohr mag/cell
     absolute magnetization    =    58.48 Bohr mag/cell

     iteration # 17     ecut=    71.00 Ry     beta= 0.10
     Davidson diagonalization with overlap
     ethr =  2.08E-10,  avg # of iterations =  2.0

     negative rho (up, down):  0.000E+00 2.707E-05

     total cpu time spent up to now is    11352.5 secs

     total energy              =  -10535.23440398 Ry
     estimated scf accuracy    <       0.00000024 Ry

     total magnetization       =    -0.00 Bohr mag/cell
     absolute magnetization    =    58.48 Bohr mag/cell

     iteration # 18     ecut=    71.00 Ry     beta= 0.10
     Davidson diagonalization with overlap
     ethr =  4.68E-11,  avg # of iterations =  4.0

     negative rho (up, down):  0.000E+00 2.688E-05

     total cpu time spent up to now is    11514.3 secs

[...]
     Davidson diagonalization with overlap
     ethr =  8.68E-03,  avg # of iterations =  2.0

     negative rho (up, down):  3.940E+02 3.946E+02

     total cpu time spent up to now is    32533.1 secs

     total energy              =  -10954.70137203 Ry
     estimated scf accuracy    <      41.35334469 Ry

     total magnetization       =    -4.28 Bohr mag/cell
     absolute magnetization    =    23.97 Bohr mag/cell

     iteration # 66     ecut=    71.00 Ry     beta= 0.10
     Davidson diagonalization with overlap
     ethr =  8.08E-03,  avg # of iterations =  2.0

     negative rho (up, down):  3.899E+02 3.902E+02

     total cpu time spent up to now is    32651.7 secs

     total energy              =  -10957.94681314 Ry
     estimated scf accuracy    <      38.07268411 Ry

     total magnetization       =    -4.39 Bohr mag/cell
     absolute magnetization    =    21.54 Bohr mag/cell

     iteration # 67     ecut=    71.00 Ry     beta= 0.10
     Davidson diagonalization with overlap
     ethr =  7.44E-03,  avg # of iterations =  2.0

     negative rho (up, down):  3.875E+02 3.877E+02

     total cpu time spent up to now is    32768.2 secs

     total energy              =  -10959.43582555 Ry
     estimated scf accuracy    <      41.50612823 Ry

     total magnetization       =    -5.12 Bohr mag/cell
     absolute magnetization    =     9.48 Bohr mag/cell

     iteration # 68     ecut=    71.00 Ry     beta= 0.10
     Davidson diagonalization with overlap
     ethr =  7.44E-03,  avg # of iterations =  2.0

     negative rho (up, down):  3.871E+02 3.873E+02

     total cpu time spent up to now is    32886.6 secs

     total energy              =  -10959.68337700 Ry
     estimated scf accuracy    <      42.58165127 Ry

     total magnetization       =    -5.69 Bohr mag/cell
     absolute magnetization    =     8.15 Bohr mag/cell

     iteration # 69     ecut=    71.00 Ry     beta= 0.10
     Davidson diagonalization with overlap
     ethr =  7.44E-03,  avg # of iterations =  1.1

     negative rho (up, down):  3.878E+02 3.880E+02

     total cpu time spent up to now is    32990.3 secs

     total energy              =  -10961.70197857 Ry
     estimated scf accuracy    <      47.20434923 Ry

     total magnetization       =    -5.76 Bohr mag/cell
     absolute magnetization    =     9.28 Bohr mag/cell

     iteration # 70     ecut=    71.00 Ry     beta= 0.10
     Davidson diagonalization with overlap
     ethr =  7.44E-03,  avg # of iterations =  1.0

     negative rho (up, down):  3.921E+02 3.926E+02

     total cpu time spent up to now is    33092.9 secs

     total energy              =  -10959.67364315 Ry
     estimated scf accuracy    <      48.15924412 Ry

     total magnetization       =    -5.82 Bohr mag/cell
     absolute magnetization    =     8.57 Bohr mag/cell

     iteration # 71     ecut=    71.00 Ry     beta= 0.10
     Davidson diagonalization with overlap
     ethr =  7.44E-03,  avg # of iterations =  2.0

     negative rho (up, down):  3.905E+02 3.908E+02

     total cpu time spent up to now is    33211.1 secs

     total energy              =  -10964.41331895 Ry
     estimated scf accuracy    <      50.33182476 Ry

     total magnetization       =    -4.42 Bohr mag/cell
     absolute magnetization    =    15.84 Bohr mag/cell

     iteration # 72     ecut=    71.00 Ry     beta= 0.10
     Davidson diagonalization with overlap
     ethr =  7.44E-03,  avg # of iterations =  2.0

     negative rho (up, down):  3.873E+02 3.874E+02

     total cpu time spent up to now is    33328.1 secs

     total energy              =  -10967.65649671 Ry
     estimated scf accuracy    <      40.45706930 Ry

     total magnetization       =    -4.75 Bohr mag/cell
     absolute magnetization    =    20.43 Bohr mag/cell

     iteration # 73     ecut=    71.00 Ry     beta= 0.10
     Davidson diagonalization with overlap
     ethr =  7.44E-03,  avg # of iterations =  2.0

     negative rho (up, down):  3.901E+02 3.904E+02

     total cpu time spent up to now is    33445.5 secs

     total energy              =  -10964.52366022 Ry
     estimated scf accuracy    <      40.16979345 Ry

     total magnetization       =    -4.23 Bohr mag/cell
     absolute magnetization    =    27.15 Bohr mag/cell

     iteration # 74     ecut=    71.00 Ry     beta= 0.10
     Davidson diagonalization with overlap
     ethr =  7.44E-03,  avg # of iterations =  2.0

     negative rho (up, down):  3.886E+02 3.886E+02

     total cpu time spent up to now is    33565.1 secs

     total energy              =  -10964.53886037 Ry
     estimated scf accuracy    <      38.33046479 Ry

     total magnetization       =    -3.92 Bohr mag/cell
     absolute magnetization    =    24.80 Bohr mag/cell

     iteration # 75     ecut=    71.00 Ry     beta= 0.10
     Davidson diagonalization with overlap
     ethr =  7.44E-03,  avg # of iterations =  2.0

     negative rho (up, down):  3.877E+02 3.879E+02

     total cpu time spent up to now is    33682.2 secs

     total energy              =  -10966.01822470 Ry
     estimated scf accuracy    <      35.17383536 Ry

     total magnetization       =    -4.47 Bohr mag/cell
     absolute magnetization    =    23.20 Bohr mag/cell

     iteration # 76     ecut=    71.00 Ry     beta= 0.10
     Davidson diagonalization with overlap
     ethr =  6.87E-03,  avg # of iterations =  2.0

     negative rho (up, down):  3.875E+02 3.877E+02

     total cpu time spent up to now is    33797.8 secs

     total energy              =  -10969.96130258 Ry
     estimated scf accuracy    <      33.67894347 Ry

     total magnetization       =    -4.21 Bohr mag/cell
     absolute magnetization    =    26.90 Bohr mag/cell

     iteration # 77     ecut=    71.00 Ry     beta= 0.10
     Davidson diagonalization with overlap
     ethr =  6.58E-03,  avg # of iterations =  2.0

     negative rho (up, down):  3.856E+02 3.858E+02

     total cpu time spent up to now is    33913.9 secs

     total energy              =  -10968.31693392 Ry
     estimated scf accuracy    <      34.43857216 Ry

     total magnetization       =    -3.27 Bohr mag/cell
     absolute magnetization    =    32.11 Bohr mag/cell

     iteration # 78     ecut=    71.00 Ry     beta= 0.10
     Davidson diagonalization with overlap
     ethr =  6.58E-03,  avg # of iterations =  2.0

     negative rho (up, down):  3.854E+02 3.856E+02

     total cpu time spent up to now is    34031.9 secs

     total energy              =  -10967.12078492 Ry
     estimated scf accuracy    <      40.51003538 Ry

     total magnetization       =    -3.64 Bohr mag/cell
     absolute magnetization    =    31.18 Bohr mag/cell

     iteration # 79     ecut=    71.00 Ry     beta= 0.10
     Davidson diagonalization with overlap
     ethr =  6.58E-03,  avg # of iterations =  1.0

     negative rho (up, down):  3.857E+02 3.859E+02

     total cpu time spent up to now is    34134.0 secs

     total energy              =  -10967.66494294 Ry
     estimated scf accuracy    <      36.21662075 Ry

     total magnetization       =    -4.22 Bohr mag/cell
     absolute magnetization    =    28.67 Bohr mag/cell

     iteration # 80     ecut=    71.00 Ry     beta= 0.10
     Davidson diagonalization with overlap
     ethr =  6.58E-03,  avg # of iterations =  1.0

     negative rho (up, down):  3.891E+02 3.895E+02

     total cpu time spent up to now is    34237.0 secs

     total energy              =  -10966.97207936 Ry
     estimated scf accuracy    <      30.58902939 Ry

     total magnetization       =    -4.44 Bohr mag/cell
     absolute magnetization    =    26.94 Bohr mag/cell

     iteration # 81     ecut=    71.00 Ry     beta= 0.10
     Davidson diagonalization with overlap
     ethr =  5.97E-03,  avg # of iterations =  2.0

     negative rho (up, down):  3.830E+02 3.831E+02

     total cpu time spent up to now is    34357.0 secs

     total energy              =  -10960.88229756 Ry
     estimated scf accuracy    <      35.58562871 Ry

     total magnetization       =    -4.20 Bohr mag/cell
     absolute magnetization    =    28.31 Bohr mag/cell

     iteration # 82     ecut=    71.00 Ry     beta= 0.10
     Davidson diagonalization with overlap
     ethr =  5.97E-03,  avg # of iterations =  3.0

     negative rho (up, down):  3.866E+02 3.869E+02

     total cpu time spent up to now is    34486.5 secs

     total energy              =  -10965.56188096 Ry
     estimated scf accuracy    <      50.17720699 Ry

     total magnetization       =    -5.46 Bohr mag/cell
     absolute magnetization    =    23.62 Bohr mag/cell

     iteration # 83     ecut=    71.00 Ry     beta= 0.10
     Davidson diagonalization with overlap
     ethr =  5.97E-03,  avg # of iterations =  4.0

     negative rho (up, down):  3.828E+02 3.827E+02

     total cpu time spent up to now is    34613.6 secs

     total energy              =  -10970.40038179 Ry
     estimated scf accuracy    <      28.66556858 Ry

     total magnetization       =    -4.54 Bohr mag/cell
     absolute magnetization    =    24.34 Bohr mag/cell

     iteration # 84     ecut=    71.00 Ry     beta= 0.10
     Davidson diagonalization with overlap
     ethr =  5.60E-03,  avg # of iterations =  2.0

     negative rho (up, down):  3.852E+02 3.852E+02

     total cpu time spent up to now is    34735.4 secs

     total energy              =  -10971.01461325 Ry
     estimated scf accuracy    <      35.39048932 Ry

     total magnetization       =    -4.69 Bohr mag/cell
     absolute magnetization    =    28.38 Bohr mag/cell

     iteration # 85     ecut=    71.00 Ry     beta= 0.10
     Davidson diagonalization with overlap
     ethr =  5.60E-03,  avg # of iterations =  2.0

     negative rho (up, down):  3.863E+02 3.863E+02

     total cpu time spent up to now is    34852.4 secs

     total energy              =  -10971.75830714 Ry
     estimated scf accuracy    <      25.27238182 Ry

     total magnetization       =    -4.38 Bohr mag/cell
     absolute magnetization    =    28.32 Bohr mag/cell

     iteration # 86     ecut=    71.00 Ry     beta= 0.10
     Davidson diagonalization with overlap
     ethr =  4.94E-03,  avg # of iterations =  1.0

     negative rho (up, down):  3.869E+02 3.870E+02

     total cpu time spent up to now is    34955.5 secs

     total energy              =  -10971.90532309 Ry
     estimated scf accuracy    <      23.57948605 Ry

     total magnetization       =    -4.10 Bohr mag/cell
     absolute magnetization    =    28.26 Bohr mag/cell

     iteration # 87     ecut=    71.00 Ry     beta= 0.10
     Davidson diagonalization with overlap
     ethr =  4.61E-03,  avg # of iterations =  1.0

     negative rho (up, down):  3.868E+02 3.868E+02

     total cpu time spent up to now is    35058.4 secs

     total energy              =  -10971.56254951 Ry
     estimated scf accuracy    <      24.10179833 Ry

     total magnetization       =    -3.97 Bohr mag/cell
     absolute magnetization    =    28.64 Bohr mag/cell

     iteration # 88     ecut=    71.00 Ry     beta= 0.10
     Davidson diagonalization with overlap
     ethr =  4.61E-03,  avg # of iterations =  1.0

     negative rho (up, down):  3.853E+02 3.852E+02

     total cpu time spent up to now is    35160.4 secs

     total energy              =  -10972.33951677 Ry
     estimated scf accuracy    <      22.86355260 Ry

     total magnetization       =    -4.13 Bohr mag/cell
     absolute magnetization    =    27.96 Bohr mag/cell

     iteration # 89     ecut=    71.00 Ry     beta= 0.10
     Davidson diagonalization with overlap
     ethr =  4.47E-03,  avg # of iterations =  1.0

     negative rho (up, down):  3.848E+02 3.846E+02

     total cpu time spent up to now is    35263.1 secs

     total energy              =  -10973.98019511 Ry
     estimated scf accuracy    <      24.88791237 Ry

     total magnetization       =    -4.62 Bohr mag/cell
     absolute magnetization    =    27.41 Bohr mag/cell

     iteration # 90     ecut=    71.00 Ry     beta= 0.10
     Davidson diagonalization with overlap
     ethr =  4.47E-03,  avg # of iterations =  1.5

     negative rho (up, down):  3.848E+02 3.846E+02

     total cpu time spent up to now is    35372.2 secs

     total energy              =  -10974.77093168 Ry
     estimated scf accuracy    <      28.89340098 Ry

     total magnetization       =    -5.36 Bohr mag/cell
     absolute magnetization    =    24.87 Bohr mag/cell

     iteration # 91     ecut=    71.00 Ry     beta= 0.10
     Davidson diagonalization with overlap
     ethr =  4.47E-03,  avg # of iterations =  1.0

     negative rho (up, down):  3.852E+02 3.850E+02

     total cpu time spent up to now is    35474.8 secs

     total energy              =  -10974.31909569 Ry
     estimated scf accuracy    <      31.65043599 Ry

     total magnetization       =    -5.46 Bohr mag/cell
     absolute magnetization    =    24.82 Bohr mag/cell

     iteration # 92     ecut=    71.00 Ry     beta= 0.10
     Davidson diagonalization with overlap
     ethr =  4.47E-03,  avg # of iterations =  1.0

     negative rho (up, down):  3.853E+02 3.851E+02

     total cpu time spent up to now is    35577.1 secs

     total energy              =  -10975.00565154 Ry
     estimated scf accuracy    <      30.93465727 Ry

     total magnetization       =    -5.32 Bohr mag/cell
     absolute magnetization    =    25.13 Bohr mag/cell

     iteration # 93     ecut=    71.00 Ry     beta= 0.10
     Davidson diagonalization with overlap
     ethr =  4.47E-03,  avg # of iterations =  1.0

     negative rho (up, down):  3.874E+02 3.875E+02

     total cpu time spent up to now is    35680.4 secs

     total energy              =  -10971.79084642 Ry
     estimated scf accuracy    <      35.55500866 Ry

     total magnetization       =    -5.30 Bohr mag/cell
     absolute magnetization    =    25.12 Bohr mag/cell

     iteration # 94     ecut=    71.00 Ry     beta= 0.10
     Davidson diagonalization with overlap
     ethr =  4.47E-03,  avg # of iterations =  2.0

     negative rho (up, down):  3.863E+02 3.861E+02

     total cpu time spent up to now is    35798.1 secs

     total energy              =  -10973.69348032 Ry
     estimated scf accuracy    <      26.21540397 Ry

     total magnetization       =    -4.12 Bohr mag/cell
     absolute magnetization    =    27.85 Bohr mag/cell

     iteration # 95     ecut=    71.00 Ry     beta= 0.10
     Davidson diagonalization with overlap
     ethr =  4.47E-03,  avg # of iterations =  2.0

     negative rho (up, down):  3.870E+02 3.869E+02

     total cpu time spent up to now is    35915.5 secs

     total energy              =  -10973.66509901 Ry
     estimated scf accuracy    <      40.07654238 Ry

     total magnetization       =    -5.78 Bohr mag/cell
     absolute magnetization    =    22.93 Bohr mag/cell

     iteration # 96     ecut=    71.00 Ry     beta= 0.10
     Davidson diagonalization with overlap
     ethr =  4.47E-03,  avg # of iterations =  1.0

     negative rho (up, down):  3.870E+02 3.870E+02

     total cpu time spent up to now is    36018.4 secs

     total energy              =  -10971.61194051 Ry
     estimated scf accuracy    <      47.06806764 Ry

     total magnetization       =    -6.01 Bohr mag/cell
     absolute magnetization    =    23.12 Bohr mag/cell

     iteration # 97     ecut=    71.00 Ry     beta= 0.10
     Davidson diagonalization with overlap
     ethr =  4.47E-03,  avg # of iterations =  2.0

     negative rho (up, down):  3.867E+02 3.867E+02

     total cpu time spent up to now is    36134.4 secs

     total energy              =  -10971.38174074 Ry
     estimated scf accuracy    <      34.29532848 Ry

     total magnetization       =    -5.27 Bohr mag/cell
     absolute magnetization    =    25.41 Bohr mag/cell

     iteration # 98     ecut=    71.00 Ry     beta= 0.10
     Davidson diagonalization with overlap
     ethr =  4.47E-03,  avg # of iterations =  1.0

     negative rho (up, down):  3.852E+02 3.849E+02

     total cpu time spent up to now is    36236.6 secs

     total energy              =  -10973.10067669 Ry
     estimated scf accuracy    <      26.44932245 Ry

     total magnetization       =    -5.08 Bohr mag/cell
     absolute magnetization    =    26.20 Bohr mag/cell

     iteration # 99     ecut=    71.00 Ry     beta= 0.10
     Davidson diagonalization with overlap
     ethr =  4.47E-03,  avg # of iterations =  2.0

     negative rho (up, down):  3.860E+02 3.857E+02

     total cpu time spent up to now is    36354.2 secs

     total energy              =  -10972.46886675 Ry
     estimated scf accuracy    <      27.91180055 Ry

     total magnetization       =    -5.63 Bohr mag/cell
     absolute magnetization    =    26.96 Bohr mag/cell

     iteration #100     ecut=    71.00 Ry     beta= 0.10
     Davidson diagonalization with overlap
     ethr =  4.47E-03,  avg # of iterations =  1.0

     negative rho (up, down):  3.857E+02 3.854E+02

     total cpu time spent up to now is    36457.4 secs

     total energy              =  -10969.89584233 Ry
     estimated scf accuracy    <      34.71229507 Ry

     total magnetization       =    -5.92 Bohr mag/cell
     absolute magnetization    =    25.90 Bohr mag/cell

     End of self-consistent calculation

     convergence NOT achieved after 100 iterations: stopping

     Writing output data file /scratch/gYThioHCkCHMwLVU.save/
 
     init_run     :     38.99s CPU     40.02s WALL (       1 calls)
     electrons    :  34846.29s CPU  35303.32s WALL (       8 calls)
     update_pot   :      3.51s CPU      3.66s WALL (       7 calls)
     forces       :    158.85s CPU    160.22s WALL (       7 calls)
     stress       :    904.29s CPU    912.31s WALL (       7 calls)

     Called by init_run:
     wfcinit      :     38.20s CPU     39.15s WALL (       1 calls)
     potinit      :      0.31s CPU      0.35s WALL (       1 calls)
     hinit0       :      0.20s CPU      0.21s WALL (       1 calls)

     Called by electrons:
     c_bands      :  31010.35s CPU  31397.21s WALL (     253 calls)
     sum_band     :   3755.23s CPU   3818.78s WALL (     253 calls)
     v_of_rho     :      8.25s CPU      8.61s WALL (     261 calls)
     newd         :     11.91s CPU     15.13s WALL (     261 calls)
     PAW_pot      :     46.60s CPU     48.79s WALL (     268 calls)
     mix_rho      :     15.53s CPU     16.08s WALL (     253 calls)

     Called by c_bands:
     init_us_2    :    131.98s CPU    134.13s WALL (   79200 calls)
     cegterg      :  30457.52s CPU  30797.80s WALL (   38179 calls)

     Called by *egterg:
     cdiaghg      :   3720.65s CPU   3741.98s WALL (  143763 calls)
     h_psi        :  16049.48s CPU  16296.97s WALL (  145189 calls)
     s_psi        :   1323.18s CPU   1332.55s WALL (  145189 calls)
     g_psi        :     34.06s CPU     34.57s WALL (  106860 calls)

     Called by h_psi:
     h_psi:calbec :   2421.79s CPU   2438.65s WALL (  145189 calls)
     vloc_psi     :  12284.83s CPU  12492.89s WALL (  145189 calls)
     add_vuspsi   :   1259.40s CPU   1280.92s WALL (  145189 calls)

     General routines
     calbec       :   3813.24s CPU   3839.67s WALL (  189439 calls)
     fft          :      7.59s CPU      7.75s WALL (    6796 calls)
     ffts         :      9.70s CPU      9.86s WALL (   25400 calls)
     fftw         :  14453.36s CPU  14696.61s WALL (72771632 calls)
     interpolate  :      1.06s CPU      1.08s WALL (     522 calls)
     davcio       :      0.02s CPU      0.33s WALL (     172 calls)
 
     Parallel routines
     fft_scatt_xy :    699.34s CPU    711.55s WALL (72803828 calls)
     fft_scatt_yz :  12460.18s CPU  12671.83s WALL (72803828 calls)
 
     PWSCF        :      9h59m CPU     10h 7m WALL

 
   This run was terminated on:   7:37:31  16Jan2022            

=------------------------------------------------------------------------------=
   JOB DONE.
=------------------------------------------------------------------------------=
