
     Program PWSCF v.6.7MaX starts on 16Jan2022 at 10:10:15 

     This program is part of the open-source Quantum ESPRESSO suite
     for quantum simulation of materials; please cite
         "P. Giannozzi et al., J. Phys.:Condens. Matter 21 395502 (2009);
         "P. Giannozzi et al., J. Phys.:Condens. Matter 29 465901 (2017);
          URL http://www.quantum-espresso.org", 
     in publications or presentations arising from this work. More details at
     http://www.quantum-espresso.org/quote

     Parallel version (MPI & OpenMP), running on      72 processor cores
     Number of MPI processes:                72
     Threads/MPI process:                     1

     MPI processes distributed on     1 nodes
     R & G space division:  proc/nbgrp/npool/nimage =      72
     Reading input from relax_9.in
Warning: card &CELL ignored
Warning: card CELL_DYNAMICS = 'BFGS', ignored
Warning: card CELL_FACTOR = 2.0, ignored
Warning: card PRESS = 0.0, ignored
Warning: card / ignored

     Current dimensions of program PWSCF are:
     Max number of different atomic species (ntypx) = 10
     Max number of k-points (npk) =  40000
     Max angular momentum in pseudopotentials (lmaxx) =  3
     file Fe.pbe-spn-kjpaw_psl.1.0.0.UPF: wavefunction(s)  3P 3D renormalized
     file Fe.pbe-spn-kjpaw_psl.1.0.0.UPF: wavefunction(s)  3P 3D renormalized

     Subspace diagonalization in iterative solution of the eigenvalue problem:
     one sub-group per band group will be used
     ELPA distributed-memory algorithm (size of sub-group:  8*  8 procs)

     Found symmetry operation: I + (  0.2500  0.0000  0.2500)
     This is a supercell, fractional translations are disabled
     Message from routine setup:
     using ibrav=0 with symmetry is DISCOURAGED, use correct ibrav instead
 
     Parallelization info
     --------------------
     sticks:   dense  smooth     PW     G-vecs:    dense   smooth      PW
     Min         135      89     24                 7699     4131     588
     Max         136      90     25                 7703     4136     591
     Sum        9749    6421   1757               554473   297533   42381
 


     bravais-lattice index     =            0
     lattice parameter (alat)  =      12.9382  a.u.
     unit-cell volume          =    3681.8789 (a.u.)^3
     number of atoms/cell      =           32
     number of atomic types    =            2
     number of electrons       =       512.00
     number of Kohn-Sham states=          325
     kinetic-energy cutoff     =      71.0000  Ry
     charge density cutoff     =     430.0000  Ry
     scf convergence threshold =      1.0E-07
     mixing beta               =       0.1000
     number of iterations used =           10  local-TF  mixing
     energy convergence thresh.=      1.0E-04
     force convergence thresh. =      1.0E-03
     Exchange-correlation= SLA  PW   PBX  PBC
                           (   1   4   3   4   0   0   0)
     nstep                     =           50


     celldm(1)=  12.938190  celldm(2)=   0.000000  celldm(3)=   0.000000
     celldm(4)=   0.000000  celldm(5)=   0.000000  celldm(6)=   0.000000

     crystal axes: (cart. coord. in units of alat)
               a(1) = (   1.000000   0.000000   0.000000 )  
               a(2) = (   0.000000   1.700000   0.000000 )  
               a(3) = (   0.000000   0.000000   1.000000 )  

     reciprocal axes: (cart. coord. in units 2 pi/alat)
               b(1) = (  1.000000  0.000000  0.000000 )  
               b(2) = (  0.000000  0.588235  0.000000 )  
               b(3) = (  0.000000  0.000000  1.000000 )  


     PseudoPot. # 1 for Fe read from file:
     /rds/homes/b/bxp912/pp/Fe.pbe-spn-kjpaw_psl.1.0.0.UPF
     MD5 check sum: 42f43b795421b414b0dc916aa790dbcb
     Pseudo is Projector augmented-wave + core cor, Zval = 16.0
     Generated using &quot;atomic&quot; code by A. Dal Corso  v.6.3
     Shape of augmentation charge: PSQ
     Using radial grid of 1191 points,  6 beta functions with: 
                l(1) =   0
                l(2) =   0
                l(3) =   1
                l(4) =   1
                l(5) =   2
                l(6) =   2
     Q(r) pseudized with 0 coefficients 


     PseudoPot. # 2 for Fe read from file:
     /rds/homes/b/bxp912/pp/Fe.pbe-spn-kjpaw_psl.1.0.0.UPF
     MD5 check sum: 42f43b795421b414b0dc916aa790dbcb
     Pseudo is Projector augmented-wave + core cor, Zval = 16.0
     Generated using &quot;atomic&quot; code by A. Dal Corso  v.6.3
     Shape of augmentation charge: PSQ
     Using radial grid of 1191 points,  6 beta functions with: 
                l(1) =   0
                l(2) =   0
                l(3) =   1
                l(4) =   1
                l(5) =   2
                l(6) =   2
     Q(r) pseudized with 0 coefficients 


     atomic species   valence    mass     pseudopotential
        Fe1           16.00    55.84500     Fe( 1.00)
        Fe2           16.00    55.84500     Fe( 1.00)

     Starting magnetic structure 
     atomic species   magnetization
        Fe1          0.100
        Fe2         -0.100

      8 Sym. Ops. (no inversion) found



   Cartesian axes

     site n.     atom                  positions (alat units)
         1           Fe1 tau(   1) = (   0.0000000   0.0000000   0.0000000  )
         2           Fe2 tau(   2) = (   0.2500000   0.2500000   0.0000000  )
         3           Fe1 tau(   3) = (   0.2500000   0.0000000   0.2500000  )
         4           Fe2 tau(   4) = (   0.0000000   0.2500000   0.2500000  )
         5           Fe1 tau(   5) = (   0.0000000   0.0000000   0.5000000  )
         6           Fe2 tau(   6) = (   0.2500000   0.2500000   0.5000000  )
         7           Fe1 tau(   7) = (   0.2500000   0.0000000   0.7500000  )
         8           Fe2 tau(   8) = (   0.0000000   0.2500000   0.7500000  )
         9           Fe1 tau(   9) = (   0.0000000   1.2000000   0.0000000  )
        10           Fe2 tau(  10) = (   0.2500000   1.4500000   0.0000000  )
        11           Fe1 tau(  11) = (   0.2500000   1.2000000   0.2500000  )
        12           Fe2 tau(  12) = (   0.0000000   1.4500000   0.2500000  )
        13           Fe1 tau(  13) = (   0.0000000   1.2000000   0.5000000  )
        14           Fe2 tau(  14) = (   0.2500000   1.4500000   0.5000000  )
        15           Fe1 tau(  15) = (   0.2500000   1.2000000   0.7500000  )
        16           Fe2 tau(  16) = (   0.0000000   1.4500000   0.7500000  )
        17           Fe1 tau(  17) = (   0.5000000   0.0000000   0.0000000  )
        18           Fe2 tau(  18) = (   0.7500000   0.2500000   0.0000000  )
        19           Fe1 tau(  19) = (   0.7500000   0.0000000   0.2500000  )
        20           Fe2 tau(  20) = (   0.5000000   0.2500000   0.2500000  )
        21           Fe1 tau(  21) = (   0.5000000   0.0000000   0.5000000  )
        22           Fe2 tau(  22) = (   0.7500000   0.2500000   0.5000000  )
        23           Fe1 tau(  23) = (   0.7500000   0.0000000   0.7500000  )
        24           Fe2 tau(  24) = (   0.5000000   0.2500000   0.7500000  )
        25           Fe1 tau(  25) = (   0.5000000   1.2000000   0.0000000  )
        26           Fe2 tau(  26) = (   0.7500000   1.4500000   0.0000000  )
        27           Fe1 tau(  27) = (   0.7500000   1.2000000   0.2500000  )
        28           Fe2 tau(  28) = (   0.5000000   1.4500000   0.2500000  )
        29           Fe1 tau(  29) = (   0.5000000   1.2000000   0.5000000  )
        30           Fe2 tau(  30) = (   0.7500000   1.4500000   0.5000000  )
        31           Fe1 tau(  31) = (   0.7500000   1.2000000   0.7500000  )
        32           Fe2 tau(  32) = (   0.5000000   1.4500000   0.7500000  )

     number of k points=    75  Marzari-Vanderbilt smearing, width (Ry)=  0.0400
                       cart. coord. in units 2pi/alat
        k(    1) = (   0.0555556   0.0326797   0.0555556), wk =   0.0109739
        k(    2) = (   0.0555556   0.0326797   0.1666667), wk =   0.0219479
        k(    3) = (   0.0555556   0.0326797   0.2777778), wk =   0.0219479
        k(    4) = (   0.0555556   0.0326797   0.3888889), wk =   0.0219479
        k(    5) = (   0.0555556   0.0326797  -0.5000000), wk =   0.0109739
        k(    6) = (   0.0555556   0.0980392   0.0555556), wk =   0.0109739
        k(    7) = (   0.0555556   0.0980392   0.1666667), wk =   0.0219479
        k(    8) = (   0.0555556   0.0980392   0.2777778), wk =   0.0219479
        k(    9) = (   0.0555556   0.0980392   0.3888889), wk =   0.0219479
        k(   10) = (   0.0555556   0.0980392  -0.5000000), wk =   0.0109739
        k(   11) = (   0.0555556   0.1633987   0.0555556), wk =   0.0109739
        k(   12) = (   0.0555556   0.1633987   0.1666667), wk =   0.0219479
        k(   13) = (   0.0555556   0.1633987   0.2777778), wk =   0.0219479
        k(   14) = (   0.0555556   0.1633987   0.3888889), wk =   0.0219479
        k(   15) = (   0.0555556   0.1633987  -0.5000000), wk =   0.0109739
        k(   16) = (   0.0555556   0.2287582   0.0555556), wk =   0.0109739
        k(   17) = (   0.0555556   0.2287582   0.1666667), wk =   0.0219479
        k(   18) = (   0.0555556   0.2287582   0.2777778), wk =   0.0219479
        k(   19) = (   0.0555556   0.2287582   0.3888889), wk =   0.0219479
        k(   20) = (   0.0555556   0.2287582  -0.5000000), wk =   0.0109739
        k(   21) = (   0.0555556  -0.2941176   0.0555556), wk =   0.0054870
        k(   22) = (   0.0555556  -0.2941176   0.1666667), wk =   0.0109739
        k(   23) = (   0.0555556  -0.2941176   0.2777778), wk =   0.0109739
        k(   24) = (   0.0555556  -0.2941176   0.3888889), wk =   0.0109739
        k(   25) = (   0.0555556  -0.2941176  -0.5000000), wk =   0.0054870
        k(   26) = (   0.1666667   0.0326797   0.1666667), wk =   0.0109739
        k(   27) = (   0.1666667   0.0326797   0.2777778), wk =   0.0219479
        k(   28) = (   0.1666667   0.0326797   0.3888889), wk =   0.0219479
        k(   29) = (   0.1666667   0.0326797  -0.5000000), wk =   0.0109739
        k(   30) = (   0.1666667   0.0980392   0.1666667), wk =   0.0109739
        k(   31) = (   0.1666667   0.0980392   0.2777778), wk =   0.0219479
        k(   32) = (   0.1666667   0.0980392   0.3888889), wk =   0.0219479
        k(   33) = (   0.1666667   0.0980392  -0.5000000), wk =   0.0109739
        k(   34) = (   0.1666667   0.1633987   0.1666667), wk =   0.0109739
        k(   35) = (   0.1666667   0.1633987   0.2777778), wk =   0.0219479
        k(   36) = (   0.1666667   0.1633987   0.3888889), wk =   0.0219479
        k(   37) = (   0.1666667   0.1633987  -0.5000000), wk =   0.0109739
        k(   38) = (   0.1666667   0.2287582   0.1666667), wk =   0.0109739
        k(   39) = (   0.1666667   0.2287582   0.2777778), wk =   0.0219479
        k(   40) = (   0.1666667   0.2287582   0.3888889), wk =   0.0219479
        k(   41) = (   0.1666667   0.2287582  -0.5000000), wk =   0.0109739
        k(   42) = (   0.1666667  -0.2941176   0.1666667), wk =   0.0054870
        k(   43) = (   0.1666667  -0.2941176   0.2777778), wk =   0.0109739
        k(   44) = (   0.1666667  -0.2941176   0.3888889), wk =   0.0109739
        k(   45) = (   0.1666667  -0.2941176  -0.5000000), wk =   0.0054870
        k(   46) = (   0.2777778   0.0326797   0.2777778), wk =   0.0109739
        k(   47) = (   0.2777778   0.0326797   0.3888889), wk =   0.0219479
        k(   48) = (   0.2777778   0.0326797  -0.5000000), wk =   0.0109739
        k(   49) = (   0.2777778   0.0980392   0.2777778), wk =   0.0109739
        k(   50) = (   0.2777778   0.0980392   0.3888889), wk =   0.0219479
        k(   51) = (   0.2777778   0.0980392  -0.5000000), wk =   0.0109739
        k(   52) = (   0.2777778   0.1633987   0.2777778), wk =   0.0109739
        k(   53) = (   0.2777778   0.1633987   0.3888889), wk =   0.0219479
        k(   54) = (   0.2777778   0.1633987  -0.5000000), wk =   0.0109739
        k(   55) = (   0.2777778   0.2287582   0.2777778), wk =   0.0109739
        k(   56) = (   0.2777778   0.2287582   0.3888889), wk =   0.0219479
        k(   57) = (   0.2777778   0.2287582  -0.5000000), wk =   0.0109739
        k(   58) = (   0.2777778  -0.2941176   0.2777778), wk =   0.0054870
        k(   59) = (   0.2777778  -0.2941176   0.3888889), wk =   0.0109739
        k(   60) = (   0.2777778  -0.2941176  -0.5000000), wk =   0.0054870
        k(   61) = (   0.3888889   0.0326797   0.3888889), wk =   0.0109739
        k(   62) = (   0.3888889   0.0326797  -0.5000000), wk =   0.0109739
        k(   63) = (   0.3888889   0.0980392   0.3888889), wk =   0.0109739
        k(   64) = (   0.3888889   0.0980392  -0.5000000), wk =   0.0109739
        k(   65) = (   0.3888889   0.1633987   0.3888889), wk =   0.0109739
        k(   66) = (   0.3888889   0.1633987  -0.5000000), wk =   0.0109739
        k(   67) = (   0.3888889   0.2287582   0.3888889), wk =   0.0109739
        k(   68) = (   0.3888889   0.2287582  -0.5000000), wk =   0.0109739
        k(   69) = (   0.3888889  -0.2941176   0.3888889), wk =   0.0054870
        k(   70) = (   0.3888889  -0.2941176  -0.5000000), wk =   0.0054870
        k(   71) = (  -0.5000000   0.0326797  -0.5000000), wk =   0.0027435
        k(   72) = (  -0.5000000   0.0980392  -0.5000000), wk =   0.0027435
        k(   73) = (  -0.5000000   0.1633987  -0.5000000), wk =   0.0027435
        k(   74) = (  -0.5000000   0.2287582  -0.5000000), wk =   0.0027435
        k(   75) = (  -0.5000000  -0.2941176  -0.5000000), wk =   0.0013717

     Dense  grid:   554473 G-vectors     FFT dimensions: (  90, 150,  90)

     Smooth grid:   297533 G-vectors     FFT dimensions: (  72, 120,  72)

     Estimated max dynamical RAM per process >     431.35 MB

     Estimated total dynamical RAM >      30.33 GB

     Check: negative core charge=   -0.000004
     Generating pointlists ...
     new r_m :   0.1458 (alat units)  1.8869 (a.u.) for type    1
     new r_m :   0.1458 (alat units)  1.8869 (a.u.) for type    2

     Initial potential from superposition of free atoms

     starting charge  511.98600, renormalised to  512.00000
     Starting wfcs are  320 randomized atomic wfcs +    5 random wfcs
     Checking if some PAW data can be deallocated... 

     total cpu time spent up to now is       49.4 secs

     Self-consistent Calculation

     iteration #  1     ecut=    71.00 Ry     beta= 0.10
     Davidson diagonalization with overlap
     ethr =  1.00E-02,  avg # of iterations =  3.1

     total cpu time spent up to now is      216.5 secs

     total energy              =  -10536.27818695 Ry
     estimated scf accuracy    <      32.02622432 Ry

     total magnetization       =     0.01 Bohr mag/cell
     absolute magnetization    =    45.28 Bohr mag/cell

     iteration #  2     ecut=    71.00 Ry     beta= 0.10
     Davidson diagonalization with overlap
     ethr =  6.26E-03,  avg # of iterations =  1.0

     total cpu time spent up to now is      335.8 secs

     total energy              =  -10535.92075642 Ry
     estimated scf accuracy    <       9.85660944 Ry

     total magnetization       =     0.04 Bohr mag/cell
     absolute magnetization    =    47.16 Bohr mag/cell

     iteration #  3     ecut=    71.00 Ry     beta= 0.10
     Davidson diagonalization with overlap
     ethr =  1.93E-03,  avg # of iterations =  1.0

     negative rho (up, down):  0.000E+00 3.035E-03

     total cpu time spent up to now is      455.1 secs

     total energy              =  -10534.65968763 Ry
     estimated scf accuracy    <       5.92408135 Ry

     total magnetization       =     0.07 Bohr mag/cell
     absolute magnetization    =    47.43 Bohr mag/cell

     iteration #  4     ecut=    71.00 Ry     beta= 0.10
     Davidson diagonalization with overlap
     ethr =  1.16E-03,  avg # of iterations =  2.0

     negative rho (up, down):  1.028E-03 3.884E-03

     total cpu time spent up to now is      596.2 secs

     total energy              =  -10534.96190059 Ry
     estimated scf accuracy    <       1.98069949 Ry

     total magnetization       =     0.07 Bohr mag/cell
     absolute magnetization    =    48.86 Bohr mag/cell

     iteration #  5     ecut=    71.00 Ry     beta= 0.10
     Davidson diagonalization with overlap
     ethr =  3.87E-04,  avg # of iterations =  4.9

     negative rho (up, down):  0.000E+00 1.793E-03

     total cpu time spent up to now is      752.2 secs

     total energy              =  -10535.05848609 Ry
     estimated scf accuracy    <       0.85448623 Ry

     total magnetization       =     0.14 Bohr mag/cell
     absolute magnetization    =    50.13 Bohr mag/cell

     iteration #  6     ecut=    71.00 Ry     beta= 0.10
     Davidson diagonalization with overlap
     ethr =  1.67E-04,  avg # of iterations =  4.0

     negative rho (up, down):  0.000E+00 1.940E-05

     total cpu time spent up to now is      894.3 secs

     total energy              =  -10534.97240632 Ry
     estimated scf accuracy    <       0.46457928 Ry

     total magnetization       =     0.09 Bohr mag/cell
     absolute magnetization    =    50.60 Bohr mag/cell

     iteration #  7     ecut=    71.00 Ry     beta= 0.10
     Davidson diagonalization with overlap
     ethr =  9.07E-05,  avg # of iterations =  5.5

     negative rho (up, down):  0.000E+00 8.225E-05

     total cpu time spent up to now is     1043.5 secs

     total energy              =  -10534.97009207 Ry
     estimated scf accuracy    <       0.12814951 Ry

     total magnetization       =     0.11 Bohr mag/cell
     absolute magnetization    =    51.49 Bohr mag/cell

     iteration #  8     ecut=    71.00 Ry     beta= 0.10
     Davidson diagonalization with overlap
     c_bands:  1 eigenvalues not converged
     ethr =  2.50E-05,  avg # of iterations =  6.9

     negative rho (up, down):  0.000E+00 1.867E-04

     total cpu time spent up to now is     1197.9 secs

     total energy              =  -10534.96248109 Ry
     estimated scf accuracy    <       0.08774540 Ry

     total magnetization       =     0.07 Bohr mag/cell
     absolute magnetization    =    51.92 Bohr mag/cell

     iteration #  9     ecut=    71.00 Ry     beta= 0.10
     Davidson diagonalization with overlap
     c_bands:  2 eigenvalues not converged
     ethr =  1.71E-05,  avg # of iterations =  4.6

     negative rho (up, down):  0.000E+00 3.076E-04

     total cpu time spent up to now is     1344.3 secs

     total energy              =  -10534.95541465 Ry
     estimated scf accuracy    <       0.05563380 Ry

     total magnetization       =    -0.01 Bohr mag/cell
     absolute magnetization    =    52.49 Bohr mag/cell

     iteration # 10     ecut=    71.00 Ry     beta= 0.10
     Davidson diagonalization with overlap
     c_bands:  1 eigenvalues not converged
     ethr =  1.09E-05,  avg # of iterations =  5.6

     negative rho (up, down):  0.000E+00 2.841E-04

     total cpu time spent up to now is     1499.0 secs

     total energy              =  -10534.96182776 Ry
     estimated scf accuracy    <       0.03166609 Ry

     total magnetization       =     0.02 Bohr mag/cell
     absolute magnetization    =    53.06 Bohr mag/cell

     iteration # 11     ecut=    71.00 Ry     beta= 0.10
     Davidson diagonalization with overlap
     ethr =  6.18E-06,  avg # of iterations =  1.5

     negative rho (up, down):  0.000E+00 3.077E-04

     total cpu time spent up to now is     1626.1 secs

     total energy              =  -10534.96329038 Ry
     estimated scf accuracy    <       0.02499721 Ry

     total magnetization       =     0.05 Bohr mag/cell
     absolute magnetization    =    53.12 Bohr mag/cell

     iteration # 12     ecut=    71.00 Ry     beta= 0.10
     Davidson diagonalization with overlap
     c_bands:  1 eigenvalues not converged
     ethr =  4.88E-06,  avg # of iterations =  3.9

     negative rho (up, down):  0.000E+00 2.487E-04

     total cpu time spent up to now is     1771.1 secs

     total energy              =  -10534.96689080 Ry
     estimated scf accuracy    <       0.00673511 Ry

     total magnetization       =     0.04 Bohr mag/cell
     absolute magnetization    =    53.54 Bohr mag/cell

     iteration # 13     ecut=    71.00 Ry     beta= 0.10
     Davidson diagonalization with overlap
     c_bands:  1 eigenvalues not converged
     c_bands:  1 eigenvalues not converged
     ethr =  1.32E-06,  avg # of iterations =  4.6

     negative rho (up, down):  0.000E+00 2.534E-04

     total cpu time spent up to now is     1917.3 secs

     total energy              =  -10534.96794293 Ry
     estimated scf accuracy    <       0.00128967 Ry

     total magnetization       =     0.01 Bohr mag/cell
     absolute magnetization    =    53.37 Bohr mag/cell

     iteration # 14     ecut=    71.00 Ry     beta= 0.10
     Davidson diagonalization with overlap
     ethr =  2.52E-07,  avg # of iterations =  2.1

     negative rho (up, down):  0.000E+00 2.597E-04

     total cpu time spent up to now is     2065.2 secs

     total energy              =  -10534.96828715 Ry
     estimated scf accuracy    <       0.00095250 Ry

     total magnetization       =     0.01 Bohr mag/cell
     absolute magnetization    =    53.42 Bohr mag/cell

     iteration # 15     ecut=    71.00 Ry     beta= 0.10
     Davidson diagonalization with overlap
     ethr =  1.86E-07,  avg # of iterations =  1.8

     negative rho (up, down):  0.000E+00 2.565E-04

     total cpu time spent up to now is     2198.2 secs

     total energy              =  -10534.96865190 Ry
     estimated scf accuracy    <       0.00051788 Ry

     total magnetization       =     0.01 Bohr mag/cell
     absolute magnetization    =    53.38 Bohr mag/cell

     iteration # 16     ecut=    71.00 Ry     beta= 0.10
     Davidson diagonalization with overlap
     ethr =  1.01E-07,  avg # of iterations =  2.0

     negative rho (up, down):  0.000E+00 2.550E-04

     total cpu time spent up to now is     2355.6 secs

     total energy              =  -10534.96881379 Ry
     estimated scf accuracy    <       0.00004544 Ry

     total magnetization       =     0.01 Bohr mag/cell
     absolute magnetization    =    53.27 Bohr mag/cell

     iteration # 17     ecut=    71.00 Ry     beta= 0.10
     Davidson diagonalization with overlap
     ethr =  8.87E-09,  avg # of iterations =  2.0

     negative rho (up, down):  0.000E+00 2.540E-04

     total cpu time spent up to now is     2494.7 secs

     total energy              =  -10534.96883130 Ry
     estimated scf accuracy    <       0.00002497 Ry

     total magnetization       =     0.01 Bohr mag/cell
     absolute magnetization    =    53.26 Bohr mag/cell

     iteration # 18     ecut=    71.00 Ry     beta= 0.10
     Davidson diagonalization with overlap
     ethr =  4.88E-09,  avg # of iterations =  1.4

     negative rho (up, down):  0.000E+00 2.579E-04

     total cpu time spent up to now is     2621.4 secs

     total energy              =  -10534.96885256 Ry
     estimated scf accuracy    <       0.00002055 Ry

     total magnetization       =     0.01 Bohr mag/cell
     absolute magnetization    =    53.25 Bohr mag/cell

     iteration # 19     ecut=    71.00 Ry     beta= 0.10
     Davidson diagonalization with overlap
     ethr =  4.01E-09,  avg # of iterations =  2.1

     negative rho (up, down):  0.000E+00 2.569E-04

     total cpu time spent up to now is     2779.4 secs

     total energy              =  -10534.96886457 Ry
     estimated scf accuracy    <       0.00001249 Ry

     total magnetization       =     0.01 Bohr mag/cell
     absolute magnetization    =    53.22 Bohr mag/cell

     iteration # 20     ecut=    71.00 Ry     beta= 0.10
     Davidson diagonalization with overlap
     ethr =  2.44E-09,  avg # of iterations =  2.1

     negative rho (up, down):  0.000E+00 2.564E-04

     total cpu time spent up to now is     2918.5 secs

     total energy              =  -10534.96886927 Ry
     estimated scf accuracy    <       0.00000419 Ry

     total magnetization       =     0.01 Bohr mag/cell
     absolute magnetization    =    53.21 Bohr mag/cell

     iteration # 21     ecut=    71.00 Ry     beta= 0.10
     Davidson diagonalization with overlap
     ethr =  8.18E-10,  avg # of iterations =  2.0

     negative rho (up, down):  0.000E+00 2.571E-04

     total cpu time spent up to now is     3062.8 secs

     total energy              =  -10534.96887292 Ry
     estimated scf accuracy    <       0.00000353 Ry

     total magnetization       =     0.01 Bohr mag/cell
     absolute magnetization    =    53.20 Bohr mag/cell

     iteration # 22     ecut=    71.00 Ry     beta= 0.10
     Davidson diagonalization with overlap
     ethr =  6.90E-10,  avg # of iterations =  2.1

     negative rho (up, down):  0.000E+00 2.572E-04

     total cpu time spent up to now is     3198.6 secs

     total energy              =  -10534.96887658 Ry
     estimated scf accuracy    <       0.00000309 Ry

     total magnetization       =     0.01 Bohr mag/cell
     absolute magnetization    =    53.19 Bohr mag/cell

     iteration # 23     ecut=    71.00 Ry     beta= 0.10
     Davidson diagonalization with overlap
     ethr =  6.04E-10,  avg # of iterations =  2.1

     negative rho (up, down):  0.000E+00 2.581E-04

     total cpu time spent up to now is     3353.9 secs

     total energy              =  -10534.96888066 Ry
     estimated scf accuracy    <       0.00000182 Ry

     total magnetization       =     0.00 Bohr mag/cell
     absolute magnetization    =    53.17 Bohr mag/cell

     iteration # 24     ecut=    71.00 Ry     beta= 0.10
     Davidson diagonalization with overlap
     ethr =  3.55E-10,  avg # of iterations =  2.8

     negative rho (up, down):  0.000E+00 2.581E-04

     total cpu time spent up to now is     3512.6 secs

     total energy              =  -10534.96888321 Ry
     estimated scf accuracy    <       0.00000115 Ry

     total magnetization       =     0.00 Bohr mag/cell
     absolute magnetization    =    53.16 Bohr mag/cell

     iteration # 25     ecut=    71.00 Ry     beta= 0.10
     Davidson diagonalization with overlap
     ethr =  2.25E-10,  avg # of iterations =  2.0

     negative rho (up, down):  0.000E+00 2.584E-04

     total cpu time spent up to now is     3654.1 secs

     total energy              =  -10534.96888484 Ry
     estimated scf accuracy    <       0.00000085 Ry

     total magnetization       =     0.00 Bohr mag/cell
     absolute magnetization    =    53.15 Bohr mag/cell

     iteration # 26     ecut=    71.00 Ry     beta= 0.10
     Davidson diagonalization with overlap
     ethr =  1.65E-10,  avg # of iterations =  2.7

     negative rho (up, down):  0.000E+00 2.586E-04

     total cpu time spent up to now is     3812.5 secs

     total energy              =  -10534.96888619 Ry
     estimated scf accuracy    <       0.00000038 Ry

     total magnetization       =     0.00 Bohr mag/cell
     absolute magnetization    =    53.14 Bohr mag/cell

     iteration # 27     ecut=    71.00 Ry     beta= 0.10
     Davidson diagonalization with overlap
     ethr =  7.51E-11,  avg # of iterations =  3.9

     negative rho (up, down):  0.000E+00 2.589E-04

     total cpu time spent up to now is     3985.7 secs

     total energy              =  -10534.96888761 Ry
     estimated scf accuracy    <       0.00000018 Ry

     total magnetization       =     0.00 Bohr mag/cell
     absolute magnetization    =    53.12 Bohr mag/cell

     iteration # 28     ecut=    71.00 Ry     beta= 0.10
     Davidson diagonalization with overlap
     ethr =  3.56E-11,  avg # of iterations =  2.4

     negative rho (up, down):  0.000E+00 2.588E-04

     total cpu time spent up to now is     4140.7 secs

     total energy              =  -10534.96888830 Ry
     estimated scf accuracy    <       0.00000013 Ry

     total magnetization       =     0.00 Bohr mag/cell
     absolute magnetization    =    53.12 Bohr mag/cell

     iteration # 29     ecut=    71.00 Ry     beta= 0.10
     Davidson diagonalization with overlap
     ethr =  2.46E-11,  avg # of iterations =  2.0

     negative rho (up, down):  0.000E+00 2.590E-04
 
     Magnetic moment per site:
     atom:    1    charge:   14.4697    magn:    1.0049    constr:    0.0000
     atom:    2    charge:   14.3142    magn:   -2.1620    constr:    0.0000
     atom:    3    charge:   14.4685    magn:    1.0239    constr:    0.0000
     atom:    4    charge:   14.3142    magn:   -2.1620    constr:    0.0000
     atom:    5    charge:   14.4697    magn:    1.0030    constr:    0.0000
     atom:    6    charge:   14.3142    magn:   -2.1621    constr:    0.0000
     atom:    7    charge:   14.4685    magn:    1.0239    constr:    0.0000
     atom:    8    charge:   14.3142    magn:   -2.1620    constr:    0.0000
     atom:    9    charge:   14.3142    magn:    2.1622    constr:    0.0000
     atom:   10    charge:   14.4696    magn:   -1.0121    constr:    0.0000
     atom:   11    charge:   14.3135    magn:    2.1623    constr:    0.0000
     atom:   12    charge:   14.4696    magn:   -1.0121    constr:    0.0000
     atom:   13    charge:   14.3143    magn:    2.1618    constr:    0.0000
     atom:   14    charge:   14.4696    magn:   -1.0155    constr:    0.0000
     atom:   15    charge:   14.3135    magn:    2.1623    constr:    0.0000
     atom:   16    charge:   14.4696    magn:   -1.0121    constr:    0.0000
     atom:   17    charge:   14.4697    magn:    1.0030    constr:    0.0000
     atom:   18    charge:   14.3142    magn:   -2.1620    constr:    0.0000
     atom:   19    charge:   14.4685    magn:    1.0239    constr:    0.0000
     atom:   20    charge:   14.3142    magn:   -2.1621    constr:    0.0000
     atom:   21    charge:   14.4697    magn:    1.0041    constr:    0.0000
     atom:   22    charge:   14.3142    magn:   -2.1621    constr:    0.0000
     atom:   23    charge:   14.4685    magn:    1.0239    constr:    0.0000
     atom:   24    charge:   14.3142    magn:   -2.1621    constr:    0.0000
     atom:   25    charge:   14.3143    magn:    2.1618    constr:    0.0000
     atom:   26    charge:   14.4696    magn:   -1.0121    constr:    0.0000
     atom:   27    charge:   14.3135    magn:    2.1623    constr:    0.0000
     atom:   28    charge:   14.4696    magn:   -1.0155    constr:    0.0000
     atom:   29    charge:   14.3143    magn:    2.1614    constr:    0.0000
     atom:   30    charge:   14.4696    magn:   -1.0155    constr:    0.0000
     atom:   31    charge:   14.3135    magn:    2.1623    constr:    0.0000
     atom:   32    charge:   14.4696    magn:   -1.0155    constr:    0.0000

     total cpu time spent up to now is     4290.3 secs

     End of self-consistent calculation

     Number of k-points >= 100: set verbosity='high' to print the bands.

     the Fermi energy is    10.8596 ev

!    total energy              =  -10534.96889089 Ry

     total all-electron energy =    -81456.457949 Ry
     estimated scf accuracy    <       0.00000009 Ry
     smearing contrib. (-TS)   =       0.03710804 Ry
     internal energy E=F+TS    =  -10535.00599893 Ry

     The total energy is F=E-TS. E is the sum of the following terms:
     one-electron contribution =  -16137.88624990 Ry
     hartree contribution      =    8247.18754934 Ry
     xc contribution           =    -886.97296749 Ry
     ewald contribution        =     892.05154160 Ry
     one-center paw contrib.   =   -2649.38587249 Ry

     total magnetization       =     0.00 Bohr mag/cell
     absolute magnetization    =    53.11 Bohr mag/cell

     convergence has been achieved in  29 iterations

     negative rho (up, down):  0.000E+00 2.590E-04

     Forces acting on atoms (cartesian axes, Ry/au):

     atom    1 type  1   force =     0.00000000    0.00117040    0.00000000
     atom    2 type  2   force =     0.00001044    0.02363787    0.00000000
     atom    3 type  1   force =    -0.00001571    0.00103304   -0.00001571
     atom    4 type  2   force =     0.00000000    0.02363787    0.00001044
     atom    5 type  1   force =     0.00000000    0.00120771    0.00000000
     atom    6 type  2   force =    -0.00000520    0.02363660    0.00000000
     atom    7 type  1   force =    -0.00001571    0.00103304    0.00001571
     atom    8 type  2   force =     0.00000000    0.02363787   -0.00001044
     atom    9 type  1   force =     0.00000000   -0.02362357    0.00000000
     atom   10 type  2   force =     0.00002054   -0.00107938    0.00000000
     atom   11 type  1   force =    -0.00001164   -0.02373671   -0.00001164
     atom   12 type  2   force =     0.00000000   -0.00107938    0.00002054
     atom   13 type  1   force =     0.00000000   -0.02362802    0.00000000
     atom   14 type  2   force =     0.00000858   -0.00107123    0.00000000
     atom   15 type  1   force =    -0.00001164   -0.02373671    0.00001164
     atom   16 type  2   force =     0.00000000   -0.00107938   -0.00002054
     atom   17 type  1   force =     0.00000000    0.00120771    0.00000000
     atom   18 type  2   force =    -0.00001044    0.02363787    0.00000000
     atom   19 type  1   force =     0.00001571    0.00103304   -0.00001571
     atom   20 type  2   force =     0.00000000    0.02363660   -0.00000520
     atom   21 type  1   force =     0.00000000    0.00122958    0.00000000
     atom   22 type  2   force =     0.00000520    0.02363660    0.00000000
     atom   23 type  1   force =     0.00001571    0.00103304    0.00001571
     atom   24 type  2   force =     0.00000000    0.02363660    0.00000520
     atom   25 type  1   force =     0.00000000   -0.02362802    0.00000000
     atom   26 type  2   force =    -0.00002054   -0.00107938    0.00000000
     atom   27 type  1   force =     0.00001164   -0.02373671   -0.00001164
     atom   28 type  2   force =    -0.00000000   -0.00107123    0.00000858
     atom   29 type  1   force =     0.00000000   -0.02361654    0.00000000
     atom   30 type  2   force =    -0.00000858   -0.00107123    0.00000000
     atom   31 type  1   force =     0.00001164   -0.02373671    0.00001164
     atom   32 type  2   force =    -0.00000000   -0.00107123   -0.00000858

     Total force =     0.094737     Total SCF correction =     0.001169


     Computing stress (Cartesian axis) and pressure


     negative rho (up, down):  0.000E+00 2.590E-04
          total   stress  (Ry/bohr**3)                   (kbar)     P=       19.75
   0.00005746   0.00000000   0.00000000            8.45        0.00        0.00
   0.00000000   0.00028794   0.00000000            0.00       42.36        0.00
   0.00000000   0.00000000   0.00005746            0.00        0.00        8.45


     BFGS Geometry Optimization
     Energy error            =      0.0E+00
     Gradient error          =      2.4E-02

     number of scf cycles    =   1
     number of bfgs steps    =   0

     energy   new            =  -10534.9688908921 Ry

     new trust radius        =       0.0237367187 bohr
     new conv_thr            =       0.0000001000 Ry


ATOMIC_POSITIONS (crystal)
Fe1           0.0000000000        0.0000532122        0.0000000000
Fe2           0.2500008067        0.1481335201        0.0000000000
Fe1           0.2499987861        0.0000469673        0.2499987861
Fe2           0.0000000000        0.1481335201        0.2500008067
Fe1           0.0000000000        0.0000549087        0.5000000000
Fe2           0.2499995980        0.1481334627        0.5000000000
Fe1           0.2499987861        0.0000469673        0.7500012139
Fe2           0.0000000000        0.1481335201        0.7499991933
Fe1           0.0000000000        0.7048083064        0.0000000000
Fe2           0.2500015872        0.8528921024        0.0000000000
Fe1           0.2499991005        0.7048031624        0.2499991005
Fe2           0.0000000000        0.8528921024        0.2500015872
Fe1           0.0000000000        0.7048081039        0.5000000000
Fe2           0.2500006629        0.8528924729        0.5000000000
Fe1           0.2499991005        0.7048031624        0.7500008995
Fe2           0.0000000000        0.8528921024        0.7499984128
Fe1           0.5000000000        0.0000549087        0.0000000000
Fe2           0.7499991933        0.1481335201        0.0000000000
Fe1           0.7500012139        0.0000469673        0.2499987861
Fe2           0.5000000000        0.1481334627        0.2499995980
Fe1           0.5000000000        0.0000559027        0.5000000000
Fe2           0.7500004020        0.1481334627        0.5000000000
Fe1           0.7500012139        0.0000469673        0.7500012139
Fe2           0.5000000000        0.1481334627        0.7500004020
Fe1           0.5000000000        0.7048081039        0.0000000000
Fe2           0.7499984128        0.8528921024        0.0000000000
Fe1           0.7500008995        0.7048031624        0.2499991005
Fe2           0.5000000000        0.8528924729        0.2500006629
Fe1           0.5000000000        0.7048086260        0.5000000000
Fe2           0.7499993371        0.8528924729        0.5000000000
Fe1           0.7500008995        0.7048031624        0.7500008995
Fe2           0.5000000000        0.8528924729        0.7499993371



     Writing output data file /scratch/HMTQhhGmqUNOfnnL.save/
     NEW-OLD atomic charge density approx. for the potential

     Check: negative core charge=   -0.000004

     negative rho (up, down):  0.000E+00 4.922E-05
     Generating pointlists ...

     total cpu time spent up to now is     4514.2 secs

     Self-consistent Calculation

     iteration #  1     ecut=    71.00 Ry     beta= 0.10
     Davidson diagonalization with overlap
     ethr =  1.00E-06,  avg # of iterations =  7.1

     negative rho (up, down):  0.000E+00 1.791E-05

     total cpu time spent up to now is     4849.2 secs

     total energy              =  -10534.97195214 Ry
     estimated scf accuracy    <       0.01982854 Ry

     total magnetization       =     0.00 Bohr mag/cell
     absolute magnetization    =    53.45 Bohr mag/cell

     iteration #  2     ecut=    71.00 Ry     beta= 0.10
     Davidson diagonalization with overlap
     ethr =  3.87E-06,  avg # of iterations =  1.0

     total cpu time spent up to now is     4969.2 secs

     total energy              =  -10534.97295980 Ry
     estimated scf accuracy    <       0.00587219 Ry

     total magnetization       =     0.00 Bohr mag/cell
     absolute magnetization    =    53.49 Bohr mag/cell

     iteration #  3     ecut=    71.00 Ry     beta= 0.10
     Davidson diagonalization with overlap
     c_bands:  1 eigenvalues not converged
     ethr =  1.15E-06,  avg # of iterations =  2.2

     total cpu time spent up to now is     5108.6 secs

     total energy              =  -10534.97519738 Ry
     estimated scf accuracy    <       0.00150342 Ry

     total magnetization       =     0.00 Bohr mag/cell
     absolute magnetization    =    53.53 Bohr mag/cell

     iteration #  4     ecut=    71.00 Ry     beta= 0.10
     Davidson diagonalization with overlap
     ethr =  2.94E-07,  avg # of iterations =  2.0

     total cpu time spent up to now is     5270.3 secs

     total energy              =  -10534.97627078 Ry
     estimated scf accuracy    <       0.00055990 Ry

     total magnetization       =     0.00 Bohr mag/cell
     absolute magnetization    =    53.59 Bohr mag/cell

     iteration #  5     ecut=    71.00 Ry     beta= 0.10
     Davidson diagonalization with overlap
     ethr =  1.09E-07,  avg # of iterations =  2.0

     total cpu time spent up to now is     5406.4 secs

     total energy              =  -10534.97715093 Ry
     estimated scf accuracy    <       0.00051520 Ry

     total magnetization       =    -0.00 Bohr mag/cell
     absolute magnetization    =    53.62 Bohr mag/cell

     iteration #  6     ecut=    71.00 Ry     beta= 0.10
     Davidson diagonalization with overlap
     ethr =  1.01E-07,  avg # of iterations =  2.0

     total cpu time spent up to now is     5566.2 secs

     total energy              =  -10534.97735461 Ry
     estimated scf accuracy    <       0.00002890 Ry

     total magnetization       =    -0.00 Bohr mag/cell
     absolute magnetization    =    53.71 Bohr mag/cell

     iteration #  7     ecut=    71.00 Ry     beta= 0.10
     Davidson diagonalization with overlap
     ethr =  5.64E-09,  avg # of iterations =  3.0

     total cpu time spent up to now is     5732.5 secs

     total energy              =  -10534.97738797 Ry
     estimated scf accuracy    <       0.00001747 Ry

     total magnetization       =     0.00 Bohr mag/cell
     absolute magnetization    =    53.73 Bohr mag/cell

     iteration #  8     ecut=    71.00 Ry     beta= 0.10
     Davidson diagonalization with overlap
     ethr =  3.41E-09,  avg # of iterations =  2.3

     total cpu time spent up to now is     5888.1 secs

     total energy              =  -10534.97739413 Ry
     estimated scf accuracy    <       0.00000691 Ry

     total magnetization       =     0.00 Bohr mag/cell
     absolute magnetization    =    53.74 Bohr mag/cell

     iteration #  9     ecut=    71.00 Ry     beta= 0.10
     Davidson diagonalization with overlap
     ethr =  1.35E-09,  avg # of iterations =  2.2

     total cpu time spent up to now is     6032.8 secs

     total energy              =  -10534.97740010 Ry
     estimated scf accuracy    <       0.00000473 Ry

     total magnetization       =     0.00 Bohr mag/cell
     absolute magnetization    =    53.76 Bohr mag/cell

     iteration # 10     ecut=    71.00 Ry     beta= 0.10
     Davidson diagonalization with overlap
     ethr =  9.25E-10,  avg # of iterations =  2.0

     total cpu time spent up to now is     6169.4 secs

     total energy              =  -10534.97740647 Ry
     estimated scf accuracy    <       0.00000178 Ry

     total magnetization       =    -0.00 Bohr mag/cell
     absolute magnetization    =    53.78 Bohr mag/cell

     iteration # 11     ecut=    71.00 Ry     beta= 0.10
     Davidson diagonalization with overlap
     ethr =  3.47E-10,  avg # of iterations =  2.5

     total cpu time spent up to now is     6330.3 secs

     total energy              =  -10534.97740976 Ry
     estimated scf accuracy    <       0.00000120 Ry

     total magnetization       =    -0.00 Bohr mag/cell
     absolute magnetization    =    53.80 Bohr mag/cell

     iteration # 12     ecut=    71.00 Ry     beta= 0.10
     Davidson diagonalization with overlap
     ethr =  2.35E-10,  avg # of iterations =  2.0

     total cpu time spent up to now is     6472.2 secs

     total energy              =  -10534.97741257 Ry
     estimated scf accuracy    <       0.00000112 Ry

     total magnetization       =    -0.00 Bohr mag/cell
     absolute magnetization    =    53.81 Bohr mag/cell

     iteration # 13     ecut=    71.00 Ry     beta= 0.10
     Davidson diagonalization with overlap
     ethr =  2.19E-10,  avg # of iterations =  3.2

     total cpu time spent up to now is     6635.2 secs

     total energy              =  -10534.97741482 Ry
     estimated scf accuracy    <       0.00000045 Ry

     total magnetization       =    -0.00 Bohr mag/cell
     absolute magnetization    =    53.83 Bohr mag/cell

     iteration # 14     ecut=    71.00 Ry     beta= 0.10
     Davidson diagonalization with overlap
     ethr =  8.81E-11,  avg # of iterations =  4.0

     total cpu time spent up to now is     6809.3 secs

     total energy              =  -10534.97741692 Ry
     estimated scf accuracy    <       0.00000020 Ry

     total magnetization       =    -0.00 Bohr mag/cell
     absolute magnetization    =    53.85 Bohr mag/cell

     iteration # 15     ecut=    71.00 Ry     beta= 0.10
     Davidson diagonalization with overlap
     ethr =  3.94E-11,  avg # of iterations =  2.0

     total cpu time spent up to now is     6944.6 secs

     total energy              =  -10534.97741770 Ry
     estimated scf accuracy    <       0.00000019 Ry

     total magnetization       =    -0.00 Bohr mag/cell
     absolute magnetization    =    53.85 Bohr mag/cell

     iteration # 16     ecut=    71.00 Ry     beta= 0.10
     Davidson diagonalization with overlap
     ethr =  3.66E-11,  avg # of iterations =  3.7
 
     Magnetic moment per site:
     atom:    1    charge:   14.4642    magn:    1.0294    constr:    0.0000
     atom:    2    charge:   14.3089    magn:   -2.1810    constr:    0.0000
     atom:    3    charge:   14.4630    magn:    1.0495    constr:    0.0000
     atom:    4    charge:   14.3089    magn:   -2.1810    constr:    0.0000
     atom:    5    charge:   14.4642    magn:    1.0289    constr:    0.0000
     atom:    6    charge:   14.3089    magn:   -2.1810    constr:    0.0000
     atom:    7    charge:   14.4630    magn:    1.0495    constr:    0.0000
     atom:    8    charge:   14.3089    magn:   -2.1810    constr:    0.0000
     atom:    9    charge:   14.3091    magn:    2.1808    constr:    0.0000
     atom:   10    charge:   14.4641    magn:   -1.0391    constr:    0.0000
     atom:   11    charge:   14.3085    magn:    2.1813    constr:    0.0000
     atom:   12    charge:   14.4641    magn:   -1.0391    constr:    0.0000
     atom:   13    charge:   14.3091    magn:    2.1807    constr:    0.0000
     atom:   14    charge:   14.4641    magn:   -1.0398    constr:    0.0000
     atom:   15    charge:   14.3085    magn:    2.1813    constr:    0.0000
     atom:   16    charge:   14.4641    magn:   -1.0391    constr:    0.0000
     atom:   17    charge:   14.4642    magn:    1.0289    constr:    0.0000
     atom:   18    charge:   14.3089    magn:   -2.1810    constr:    0.0000
     atom:   19    charge:   14.4630    magn:    1.0495    constr:    0.0000
     atom:   20    charge:   14.3089    magn:   -2.1810    constr:    0.0000
     atom:   21    charge:   14.4642    magn:    1.0289    constr:    0.0000
     atom:   22    charge:   14.3089    magn:   -2.1810    constr:    0.0000
     atom:   23    charge:   14.4630    magn:    1.0495    constr:    0.0000
     atom:   24    charge:   14.3089    magn:   -2.1810    constr:    0.0000
     atom:   25    charge:   14.3091    magn:    2.1807    constr:    0.0000
     atom:   26    charge:   14.4641    magn:   -1.0391    constr:    0.0000
     atom:   27    charge:   14.3085    magn:    2.1813    constr:    0.0000
     atom:   28    charge:   14.4641    magn:   -1.0398    constr:    0.0000
     atom:   29    charge:   14.3091    magn:    2.1807    constr:    0.0000
     atom:   30    charge:   14.4641    magn:   -1.0398    constr:    0.0000
     atom:   31    charge:   14.3085    magn:    2.1813    constr:    0.0000
     atom:   32    charge:   14.4641    magn:   -1.0398    constr:    0.0000

     total cpu time spent up to now is     7125.1 secs

     End of self-consistent calculation

     Number of k-points >= 100: set verbosity='high' to print the bands.

     the Fermi energy is    10.8646 ev

!    total energy              =  -10534.97742255 Ry

     total all-electron energy =    -81456.466480 Ry
     estimated scf accuracy    <       0.00000006 Ry
     smearing contrib. (-TS)   =       0.03562759 Ry
     internal energy E=F+TS    =  -10535.01305014 Ry

     The total energy is F=E-TS. E is the sum of the following terms:
     one-electron contribution =  -15997.19262392 Ry
     hartree contribution      =    8176.95989753 Ry
     xc contribution           =    -886.92506494 Ry
     ewald contribution        =     821.52857864 Ry
     one-center paw contrib.   =   -2649.38383746 Ry

     total magnetization       =    -0.00 Bohr mag/cell
     absolute magnetization    =    53.87 Bohr mag/cell

     convergence has been achieved in  16 iterations

     Forces acting on atoms (cartesian axes, Ry/au):

     atom    1 type  1   force =     0.00000000    0.00252779    0.00000000
     atom    2 type  2   force =    -0.00000201    0.02124133    0.00000000
     atom    3 type  1   force =     0.00000038    0.00240837    0.00000038
     atom    4 type  2   force =     0.00000000    0.02124133   -0.00000201
     atom    5 type  1   force =     0.00000000    0.00252537    0.00000000
     atom    6 type  2   force =     0.00000049    0.02124022    0.00000000
     atom    7 type  1   force =     0.00000038    0.00240837   -0.00000038
     atom    8 type  2   force =     0.00000000    0.02124133    0.00000201
     atom    9 type  1   force =     0.00000000   -0.02133727    0.00000000
     atom   10 type  2   force =    -0.00000045   -0.00240107   -0.00000000
     atom   11 type  1   force =     0.00000050   -0.02127390    0.00000050
     atom   12 type  2   force =     0.00000000   -0.00240107   -0.00000045
     atom   13 type  1   force =     0.00000000   -0.02134210    0.00000000
     atom   14 type  2   force =     0.00000010   -0.00239986    0.00000000
     atom   15 type  1   force =     0.00000050   -0.02127390   -0.00000050
     atom   16 type  2   force =     0.00000000   -0.00240107    0.00000045
     atom   17 type  1   force =     0.00000000    0.00252537    0.00000000
     atom   18 type  2   force =     0.00000201    0.02124133    0.00000000
     atom   19 type  1   force =    -0.00000038    0.00240837    0.00000038
     atom   20 type  2   force =     0.00000000    0.02124022    0.00000049
     atom   21 type  1   force =     0.00000000    0.00252669    0.00000000
     atom   22 type  2   force =    -0.00000049    0.02124022    0.00000000
     atom   23 type  1   force =    -0.00000038    0.00240837   -0.00000038
     atom   24 type  2   force =     0.00000000    0.02124022   -0.00000049
     atom   25 type  1   force =     0.00000000   -0.02134210    0.00000000
     atom   26 type  2   force =     0.00000045   -0.00240107    0.00000000
     atom   27 type  1   force =    -0.00000050   -0.02127390    0.00000050
     atom   28 type  2   force =     0.00000000   -0.00239986    0.00000010
     atom   29 type  1   force =     0.00000000   -0.02134411    0.00000000
     atom   30 type  2   force =    -0.00000010   -0.00239986    0.00000000
     atom   31 type  1   force =    -0.00000050   -0.02127390   -0.00000050
     atom   32 type  2   force =     0.00000000   -0.00239986   -0.00000010

     Total force =     0.085652     Total SCF correction =     0.001049


     Computing stress (Cartesian axis) and pressure

          total   stress  (Ry/bohr**3)                   (kbar)     P=       15.09
   0.00003150   0.00000000   0.00000000            4.63        0.00        0.00
   0.00000000   0.00024477   0.00000000            0.00       36.01        0.00
   0.00000000   0.00000000   0.00003150            0.00        0.00        4.63

     Energy error            =      8.5E-03
     Gradient error          =      2.1E-02

     number of scf cycles    =   2
     number of bfgs steps    =   1

     energy   old            =  -10534.9688908921 Ry
     energy   new            =  -10534.9774225514 Ry

     CASE: energy  _new < energy  _old


     WARNING: bfgs curvature condition failed, Theta= 0.887
     new trust radius        =       0.0261103905 bohr
     new conv_thr            =       0.0000000213 Ry


ATOMIC_POSITIONS (crystal)
Fe1           0.0000000000        0.0001764701        0.0000000000
Fe2           0.2500008457        0.1493163179        0.0000000000
Fe1           0.2499985301        0.0001635280        0.2499985301
Fe2           0.0000000000        0.1493163179        0.2500008457
Fe1           0.0000000000        0.0001784582        0.5000000000
Fe2           0.2499995400        0.1493161987        0.5000000000
Fe1           0.2499985301        0.0001635280        0.7500014699
Fe2           0.0000000000        0.1493163179        0.7499991543
Fe1           0.0000000000        0.7036214557        0.0000000000
Fe2           0.2500019258        0.8527753680       -0.0000000000
Fe1           0.2499989272        0.7036178840        0.2499989272
Fe2           0.0000000000        0.8527753680        0.2500019258
Fe1           0.0000000000        0.7036209941        0.5000000000
Fe2           0.2500008257        0.8527758784        0.5000000000
Fe1           0.2499989272        0.7036178840        0.7500010728
Fe2           0.0000000000        0.8527753680        0.7499980742
Fe1           0.5000000000        0.0001784582        0.0000000000
Fe2           0.7499991543        0.1493163179        0.0000000000
Fe1           0.7500014699        0.0001635280        0.2499985301
Fe2           0.5000000000        0.1493161987        0.2499995400
Fe1           0.5000000000        0.0001797426        0.5000000000
Fe2           0.7500004600        0.1493161987        0.5000000000
Fe1           0.7500014699        0.0001635280        0.7500014699
Fe2           0.5000000000        0.1493161987        0.7500004600
Fe1           0.5000000000        0.7036209941        0.0000000000
Fe2           0.7499980742        0.8527753680        0.0000000000
Fe1           0.7500010728        0.7036178840        0.2499989272
Fe2           0.5000000000        0.8527758784        0.2500008257
Fe1           0.5000000000        0.7036215507        0.5000000000
Fe2           0.7499991743        0.8527758784        0.5000000000
Fe1           0.7500010728        0.7036178840        0.7500010728
Fe2           0.5000000000        0.8527758784        0.7499991743



     Writing output data file /scratch/HMTQhhGmqUNOfnnL.save/
     NEW-OLD atomic charge density approx. for the potential

     Check: negative core charge=   -0.000004

     negative rho (up, down):  0.000E+00 2.951E-04
     Generating pointlists ...

     total cpu time spent up to now is     7350.9 secs

     Self-consistent Calculation

     iteration #  1     ecut=    71.00 Ry     beta= 0.10
     Davidson diagonalization with overlap
     ethr =  1.00E-06,  avg # of iterations =  8.0

     negative rho (up, down):  0.000E+00 2.968E-04

     total cpu time spent up to now is     7704.2 secs

     total energy              =  -10534.97920262 Ry
     estimated scf accuracy    <       0.02531785 Ry

     total magnetization       =    -0.00 Bohr mag/cell
     absolute magnetization    =    54.23 Bohr mag/cell

     iteration #  2     ecut=    71.00 Ry     beta= 0.10
     Davidson diagonalization with overlap
     ethr =  4.94E-06,  avg # of iterations =  1.0

     negative rho (up, down):  0.000E+00 2.892E-04

     total cpu time spent up to now is     7823.6 secs

     total energy              =  -10534.98043365 Ry
     estimated scf accuracy    <       0.00746164 Ry

     total magnetization       =    -0.00 Bohr mag/cell
     absolute magnetization    =    54.28 Bohr mag/cell

     iteration #  3     ecut=    71.00 Ry     beta= 0.10
     Davidson diagonalization with overlap
     ethr =  1.46E-06,  avg # of iterations =  2.1

     negative rho (up, down):  0.000E+00 2.681E-04

     total cpu time spent up to now is     7960.5 secs

     total energy              =  -10534.98315737 Ry
     estimated scf accuracy    <       0.00176523 Ry

     total magnetization       =    -0.00 Bohr mag/cell
     absolute magnetization    =    54.32 Bohr mag/cell

     iteration #  4     ecut=    71.00 Ry     beta= 0.10
     Davidson diagonalization with overlap
     ethr =  3.45E-07,  avg # of iterations =  2.0

     negative rho (up, down):  0.000E+00 2.527E-04

     total cpu time spent up to now is     8122.0 secs

     total energy              =  -10534.98457426 Ry
     estimated scf accuracy    <       0.00065498 Ry

     total magnetization       =    -0.00 Bohr mag/cell
     absolute magnetization    =    54.39 Bohr mag/cell

     iteration #  5     ecut=    71.00 Ry     beta= 0.10
     Davidson diagonalization with overlap
     ethr =  1.28E-07,  avg # of iterations =  2.0

     negative rho (up, down):  0.000E+00 1.928E-04

     total cpu time spent up to now is     8261.1 secs

     total energy              =  -10534.98559223 Ry
     estimated scf accuracy    <       0.00058159 Ry

     total magnetization       =    -0.00 Bohr mag/cell
     absolute magnetization    =    54.42 Bohr mag/cell

     iteration #  6     ecut=    71.00 Ry     beta= 0.10
     Davidson diagonalization with overlap
     ethr =  1.14E-07,  avg # of iterations =  2.0

     negative rho (up, down):  0.000E+00 1.813E-04

     total cpu time spent up to now is     8419.9 secs

     total energy              =  -10534.98578820 Ry
     estimated scf accuracy    <       0.00004183 Ry

     total magnetization       =    -0.00 Bohr mag/cell
     absolute magnetization    =    54.52 Bohr mag/cell

     iteration #  7     ecut=    71.00 Ry     beta= 0.10
     Davidson diagonalization with overlap
     ethr =  8.17E-09,  avg # of iterations =  2.9

     negative rho (up, down):  0.000E+00 1.873E-04

     total cpu time spent up to now is     8585.5 secs

     total energy              =  -10534.98584813 Ry
     estimated scf accuracy    <       0.00001971 Ry

     total magnetization       =    -0.00 Bohr mag/cell
     absolute magnetization    =    54.55 Bohr mag/cell

     iteration #  8     ecut=    71.00 Ry     beta= 0.10
     Davidson diagonalization with overlap
     ethr =  3.85E-09,  avg # of iterations =  2.0

     negative rho (up, down):  0.000E+00 1.864E-04

     total cpu time spent up to now is     8746.6 secs

     total energy              =  -10534.98585966 Ry
     estimated scf accuracy    <       0.00000637 Ry

     total magnetization       =    -0.00 Bohr mag/cell
     absolute magnetization    =    54.57 Bohr mag/cell

     iteration #  9     ecut=    71.00 Ry     beta= 0.10
     Davidson diagonalization with overlap
     ethr =  1.24E-09,  avg # of iterations =  2.0

     negative rho (up, down):  0.000E+00 1.877E-04

     total cpu time spent up to now is     8881.7 secs

     total energy              =  -10534.98586792 Ry
     estimated scf accuracy    <       0.00000571 Ry

     total magnetization       =    -0.00 Bohr mag/cell
     absolute magnetization    =    54.58 Bohr mag/cell

     iteration # 10     ecut=    71.00 Ry     beta= 0.10
     Davidson diagonalization with overlap
     ethr =  1.12E-09,  avg # of iterations =  2.1

     negative rho (up, down):  0.000E+00 1.901E-04

     total cpu time spent up to now is     9018.6 secs

     total energy              =  -10534.98587637 Ry
     estimated scf accuracy    <       0.00000273 Ry

     total magnetization       =    -0.00 Bohr mag/cell
     absolute magnetization    =    54.60 Bohr mag/cell

     iteration # 11     ecut=    71.00 Ry     beta= 0.10
     Davidson diagonalization with overlap
     ethr =  5.34E-10,  avg # of iterations =  3.0

     negative rho (up, down):  0.000E+00 1.908E-04

     total cpu time spent up to now is     9184.2 secs

     total energy              =  -10534.98588136 Ry
     estimated scf accuracy    <       0.00000262 Ry

     total magnetization       =    -0.00 Bohr mag/cell
     absolute magnetization    =    54.63 Bohr mag/cell

     iteration # 12     ecut=    71.00 Ry     beta= 0.10
     Davidson diagonalization with overlap
     ethr =  5.12E-10,  avg # of iterations =  1.0

     negative rho (up, down):  0.000E+00 1.967E-04

     total cpu time spent up to now is     9304.2 secs

     total energy              =  -10534.98588079 Ry
     estimated scf accuracy    <       0.00000206 Ry

     total magnetization       =    -0.00 Bohr mag/cell
     absolute magnetization    =    54.64 Bohr mag/cell

     iteration # 13     ecut=    71.00 Ry     beta= 0.10
     Davidson diagonalization with overlap
     ethr =  4.02E-10,  avg # of iterations =  3.4

     negative rho (up, down):  0.000E+00 1.962E-04

     total cpu time spent up to now is     9472.4 secs

     total energy              =  -10534.98588809 Ry
     estimated scf accuracy    <       0.00000137 Ry

     total magnetization       =    -0.00 Bohr mag/cell
     absolute magnetization    =    54.69 Bohr mag/cell

     iteration # 14     ecut=    71.00 Ry     beta= 0.10
     Davidson diagonalization with overlap
     ethr =  2.67E-10,  avg # of iterations =  2.0

     negative rho (up, down):  0.000E+00 1.955E-04

     total cpu time spent up to now is     9608.3 secs

     total energy              =  -10534.98588992 Ry
     estimated scf accuracy    <       0.00000033 Ry

     total magnetization       =    -0.00 Bohr mag/cell
     absolute magnetization    =    54.69 Bohr mag/cell

     iteration # 15     ecut=    71.00 Ry     beta= 0.10
     Davidson diagonalization with overlap
     ethr =  6.37E-11,  avg # of iterations =  2.0

     negative rho (up, down):  0.000E+00 1.931E-04

     total cpu time spent up to now is     9761.0 secs

     total energy              =  -10534.98589115 Ry
     estimated scf accuracy    <       0.00000018 Ry

     total magnetization       =    -0.00 Bohr mag/cell
     absolute magnetization    =    54.70 Bohr mag/cell

     iteration # 16     ecut=    71.00 Ry     beta= 0.10
     Davidson diagonalization with overlap
     ethr =  3.59E-11,  avg # of iterations =  2.1

     negative rho (up, down):  0.000E+00 1.931E-04

     total cpu time spent up to now is     9917.8 secs

     total energy              =  -10534.98589217 Ry
     estimated scf accuracy    <       0.00000009 Ry

     total magnetization       =    -0.00 Bohr mag/cell
     absolute magnetization    =    54.69 Bohr mag/cell

     iteration # 17     ecut=    71.00 Ry     beta= 0.10
     Davidson diagonalization with overlap
     ethr =  1.84E-11,  avg # of iterations =  3.8

     negative rho (up, down):  0.000E+00 1.945E-04
 
     Magnetic moment per site:
     atom:    1    charge:   14.4580    magn:    1.0605    constr:    0.0000
     atom:    2    charge:   14.3038    magn:   -2.1990    constr:    0.0000
     atom:    3    charge:   14.4567    magn:    1.0806    constr:    0.0000
     atom:    4    charge:   14.3038    magn:   -2.1990    constr:    0.0000
     atom:    5    charge:   14.4580    magn:    1.0603    constr:    0.0000
     atom:    6    charge:   14.3038    magn:   -2.1990    constr:    0.0000
     atom:    7    charge:   14.4567    magn:    1.0806    constr:    0.0000
     atom:    8    charge:   14.3038    magn:   -2.1990    constr:    0.0000
     atom:    9    charge:   14.3040    magn:    2.1989    constr:    0.0000
     atom:   10    charge:   14.4578    magn:   -1.0708    constr:    0.0000
     atom:   11    charge:   14.3034    magn:    2.1995    constr:    0.0000
     atom:   12    charge:   14.4578    magn:   -1.0708    constr:    0.0000
     atom:   13    charge:   14.3040    magn:    2.1989    constr:    0.0000
     atom:   14    charge:   14.4578    magn:   -1.0710    constr:    0.0000
     atom:   15    charge:   14.3034    magn:    2.1995    constr:    0.0000
     atom:   16    charge:   14.4578    magn:   -1.0708    constr:    0.0000
     atom:   17    charge:   14.4580    magn:    1.0603    constr:    0.0000
     atom:   18    charge:   14.3038    magn:   -2.1990    constr:    0.0000
     atom:   19    charge:   14.4567    magn:    1.0806    constr:    0.0000
     atom:   20    charge:   14.3038    magn:   -2.1990    constr:    0.0000
     atom:   21    charge:   14.4580    magn:    1.0602    constr:    0.0000
     atom:   22    charge:   14.3038    magn:   -2.1990    constr:    0.0000
     atom:   23    charge:   14.4567    magn:    1.0806    constr:    0.0000
     atom:   24    charge:   14.3038    magn:   -2.1990    constr:    0.0000
     atom:   25    charge:   14.3040    magn:    2.1989    constr:    0.0000
     atom:   26    charge:   14.4578    magn:   -1.0708    constr:    0.0000
     atom:   27    charge:   14.3034    magn:    2.1995    constr:    0.0000
     atom:   28    charge:   14.4578    magn:   -1.0710    constr:    0.0000
     atom:   29    charge:   14.3040    magn:    2.1989    constr:    0.0000
     atom:   30    charge:   14.4578    magn:   -1.0710    constr:    0.0000
     atom:   31    charge:   14.3034    magn:    2.1995    constr:    0.0000
     atom:   32    charge:   14.4578    magn:   -1.0710    constr:    0.0000

     total cpu time spent up to now is    10096.9 secs

     End of self-consistent calculation

     Number of k-points >= 100: set verbosity='high' to print the bands.

     the Fermi energy is    10.8699 ev

!    total energy              =  -10534.98589686 Ry

     total all-electron energy =    -81456.474955 Ry
     estimated scf accuracy    <       0.00000002 Ry
     smearing contrib. (-TS)   =       0.03422059 Ry
     internal energy E=F+TS    =  -10535.02011745 Ry

     The total energy is F=E-TS. E is the sum of the following terms:
     one-electron contribution =  -15840.49878864 Ry
     hartree contribution      =    8098.75570545 Ry
     xc contribution           =    -886.87361949 Ry
     ewald contribution        =     742.97816361 Ry
     one-center paw contrib.   =   -2649.38157838 Ry

     total magnetization       =    -0.00 Bohr mag/cell
     absolute magnetization    =    54.70 Bohr mag/cell

     convergence has been achieved in  17 iterations

     negative rho (up, down):  0.000E+00 1.945E-04

     Forces acting on atoms (cartesian axes, Ry/au):

     atom    1 type  1   force =     0.00000000    0.00361873    0.00000000
     atom    2 type  2   force =    -0.00000332    0.01878937    0.00000000
     atom    3 type  1   force =     0.00000382    0.00355798    0.00000382
     atom    4 type  2   force =     0.00000000    0.01878937   -0.00000332
     atom    5 type  1   force =     0.00000000    0.00361213    0.00000000
     atom    6 type  2   force =     0.00000077    0.01878909    0.00000000
     atom    7 type  1   force =     0.00000382    0.00355798   -0.00000382
     atom    8 type  2   force =    -0.00000000    0.01878937    0.00000332
     atom    9 type  1   force =     0.00000000   -0.01892673    0.00000000
     atom   10 type  2   force =    -0.00000412   -0.00354256    0.00000000
     atom   11 type  1   force =     0.00000270   -0.01873585    0.00000270
     atom   12 type  2   force =    -0.00000000   -0.00354256   -0.00000412
     atom   13 type  1   force =     0.00000000   -0.01892847    0.00000000
     atom   14 type  2   force =    -0.00000125   -0.00354243    0.00000000
     atom   15 type  1   force =     0.00000270   -0.01873585   -0.00000270
     atom   16 type  2   force =     0.00000000   -0.00354256    0.00000412
     atom   17 type  1   force =     0.00000000    0.00361213    0.00000000
     atom   18 type  2   force =     0.00000332    0.01878937    0.00000000
     atom   19 type  1   force =    -0.00000382    0.00355798    0.00000382
     atom   20 type  2   force =    -0.00000000    0.01878909    0.00000077
     atom   21 type  1   force =     0.00000000    0.00360871    0.00000000
     atom   22 type  2   force =    -0.00000077    0.01878909   -0.00000000
     atom   23 type  1   force =    -0.00000382    0.00355798   -0.00000382
     atom   24 type  2   force =    -0.00000000    0.01878909   -0.00000077
     atom   25 type  1   force =     0.00000000   -0.01892847    0.00000000
     atom   26 type  2   force =     0.00000412   -0.00354256    0.00000000
     atom   27 type  1   force =    -0.00000270   -0.01873585    0.00000270
     atom   28 type  2   force =     0.00000000   -0.00354243   -0.00000125
     atom   29 type  1   force =     0.00000000   -0.01893036    0.00000000
     atom   30 type  2   force =     0.00000125   -0.00354243    0.00000000
     atom   31 type  1   force =    -0.00000270   -0.01873585   -0.00000270
     atom   32 type  2   force =     0.00000000   -0.00354243    0.00000125

     Total force =     0.076582     Total SCF correction =     0.000840


     Computing stress (Cartesian axis) and pressure


     negative rho (up, down):  0.000E+00 1.945E-04
          total   stress  (Ry/bohr**3)                   (kbar)     P=       10.61
   0.00000710   0.00000000   0.00000000            1.04        0.00        0.00
   0.00000000   0.00020211   0.00000000            0.00       29.73        0.00
   0.00000000   0.00000000   0.00000710            0.00        0.00        1.04

     Energy error            =      8.5E-03
     Gradient error          =      1.9E-02

     number of scf cycles    =   3
     number of bfgs steps    =   2

     energy   old            =  -10534.9774225514 Ry
     energy   new            =  -10534.9858968572 Ry

     CASE: energy  _new < energy  _old

     new trust radius        =       0.0391655858 bohr
     new conv_thr            =       0.0000000189 Ry


ATOMIC_POSITIONS (crystal)
Fe1           0.0000000000        0.0004604813        0.0000000000
Fe2           0.2500007518        0.1510870558        0.0000000000
Fe1           0.2499985329        0.0004408375        0.2499985329
Fe2           0.0000000000        0.1510870558        0.2500007518
Fe1           0.0000000000        0.0004626529        0.5000000000
Fe2           0.2499994770        0.1510868955        0.5000000000
Fe1           0.2499985329        0.0004408375        0.7500014671
Fe2          -0.0000000000        0.1510870558        0.7499992482
Fe1           0.0000000000        0.7018409886        0.0000000000
Fe2           0.2500020330        0.8524983570       -0.0000000000
Fe1           0.2499989120        0.7018494247        0.2499989120
Fe2           0.0000000000        0.8524983570        0.2500020330
Fe1           0.0000000000        0.7018403292        0.5000000000
Fe2           0.2500009287        0.8524990200        0.5000000000
Fe1           0.2499989120        0.7018494247        0.7500010880
Fe2           0.0000000000        0.8524983570        0.7499979670
Fe1           0.5000000000        0.0004626529        0.0000000000
Fe2           0.7499992482        0.1510870558        0.0000000000
Fe1           0.7500014671        0.0004408375        0.2499985329
Fe2           0.5000000000        0.1510868955        0.2499994770
Fe1           0.5000000000        0.0004640718        0.5000000000
Fe2           0.7500005230        0.1510868955        0.5000000000
Fe1           0.7500014671        0.0004408375        0.7500014671
Fe2           0.5000000000        0.1510868955        0.7500005230
Fe1           0.5000000000        0.7018403292        0.0000000000
Fe2           0.7499979670        0.8524983570        0.0000000000
Fe1           0.7500010880        0.7018494247        0.2499989120
Fe2           0.5000000000        0.8524990200        0.2500009287
Fe1           0.5000000000        0.7018409553        0.5000000000
Fe2           0.7499990713        0.8524990200        0.5000000000
Fe1           0.7500010880        0.7018494247        0.7500010880
Fe2           0.5000000000        0.8524990200        0.7499990713



     Writing output data file /scratch/HMTQhhGmqUNOfnnL.save/
     NEW-OLD atomic charge density approx. for the potential

     Check: negative core charge=   -0.000004

     negative rho (up, down):  0.000E+00 8.909E-04
     Generating pointlists ...

     total cpu time spent up to now is    10321.0 secs

     Self-consistent Calculation

     iteration #  1     ecut=    71.00 Ry     beta= 0.10
     Davidson diagonalization with overlap
     ethr =  1.00E-06,  avg # of iterations =  8.2

     negative rho (up, down):  0.000E+00 8.768E-04

     total cpu time spent up to now is    10717.2 secs

     total energy              =  -10534.98078011 Ry
     estimated scf accuracy    <       0.06252617 Ry

     total magnetization       =    -0.00 Bohr mag/cell
     absolute magnetization    =    55.25 Bohr mag/cell

     iteration #  2     ecut=    71.00 Ry     beta= 0.10
     Davidson diagonalization with overlap
     ethr =  1.22E-05,  avg # of iterations =  1.0

     negative rho (up, down):  0.000E+00 8.439E-04

     total cpu time spent up to now is    10836.7 secs

     total energy              =  -10534.98383024 Ry
     estimated scf accuracy    <       0.01802634 Ry

     total magnetization       =    -0.00 Bohr mag/cell
     absolute magnetization    =    55.32 Bohr mag/cell

     iteration #  3     ecut=    71.00 Ry     beta= 0.10
     Davidson diagonalization with overlap
     ethr =  3.52E-06,  avg # of iterations =  2.0

     negative rho (up, down):  0.000E+00 7.641E-04

     total cpu time spent up to now is    10972.0 secs

     total energy              =  -10534.99050420 Ry
     estimated scf accuracy    <       0.00397407 Ry

     total magnetization       =    -0.00 Bohr mag/cell
     absolute magnetization    =    55.39 Bohr mag/cell

     iteration #  4     ecut=    71.00 Ry     beta= 0.10
     Davidson diagonalization with overlap
     ethr =  7.76E-07,  avg # of iterations =  2.1

     negative rho (up, down):  0.000E+00 7.342E-04

     total cpu time spent up to now is    11135.3 secs

     total energy              =  -10534.99405791 Ry
     estimated scf accuracy    <       0.00149422 Ry

     total magnetization       =    -0.00 Bohr mag/cell
     absolute magnetization    =    55.49 Bohr mag/cell

     iteration #  5     ecut=    71.00 Ry     beta= 0.10
     Davidson diagonalization with overlap
     ethr =  2.92E-07,  avg # of iterations =  2.1

     negative rho (up, down):  0.000E+00 6.482E-04

     total cpu time spent up to now is    11276.4 secs

     total energy              =  -10534.99613898 Ry
     estimated scf accuracy    <       0.00184294 Ry

     total magnetization       =    -0.00 Bohr mag/cell
     absolute magnetization    =    55.55 Bohr mag/cell

     iteration #  6     ecut=    71.00 Ry     beta= 0.10
     Davidson diagonalization with overlap
     ethr =  2.92E-07,  avg # of iterations =  2.0

     negative rho (up, down):  0.000E+00 6.323E-04

     total cpu time spent up to now is    11437.6 secs

     total energy              =  -10534.99662200 Ry
     estimated scf accuracy    <       0.00006742 Ry

     total magnetization       =    -0.00 Bohr mag/cell
     absolute magnetization    =    55.69 Bohr mag/cell

     iteration #  7     ecut=    71.00 Ry     beta= 0.10
     Davidson diagonalization with overlap
     ethr =  1.32E-08,  avg # of iterations =  3.5

     negative rho (up, down):  0.000E+00 6.459E-04

     total cpu time spent up to now is    11605.5 secs

     total energy              =  -10534.99674841 Ry
     estimated scf accuracy    <       0.00005431 Ry

     total magnetization       =    -0.00 Bohr mag/cell
     absolute magnetization    =    55.74 Bohr mag/cell

     iteration #  8     ecut=    71.00 Ry     beta= 0.10
     Davidson diagonalization with overlap
     ethr =  1.06E-08,  avg # of iterations =  2.1

     negative rho (up, down):  0.000E+00 6.439E-04

     total cpu time spent up to now is    11766.4 secs

     total energy              =  -10534.99677687 Ry
     estimated scf accuracy    <       0.00001402 Ry

     total magnetization       =    -0.00 Bohr mag/cell
     absolute magnetization    =    55.75 Bohr mag/cell

     iteration #  9     ecut=    71.00 Ry     beta= 0.10
     Davidson diagonalization with overlap
     ethr =  2.74E-09,  avg # of iterations =  2.0

     negative rho (up, down):  0.000E+00 6.459E-04

     total cpu time spent up to now is    11903.2 secs

     total energy              =  -10534.99679598 Ry
     estimated scf accuracy    <       0.00001445 Ry

     total magnetization       =    -0.00 Bohr mag/cell
     absolute magnetization    =    55.77 Bohr mag/cell

     iteration # 10     ecut=    71.00 Ry     beta= 0.10
     Davidson diagonalization with overlap
     ethr =  2.74E-09,  avg # of iterations =  2.0

     negative rho (up, down):  0.000E+00 6.474E-04

     total cpu time spent up to now is    12045.1 secs

     total energy              =  -10534.99681331 Ry
     estimated scf accuracy    <       0.00000605 Ry

     total magnetization       =    -0.00 Bohr mag/cell
     absolute magnetization    =    55.82 Bohr mag/cell

     iteration # 11     ecut=    71.00 Ry     beta= 0.10
     Davidson diagonalization with overlap
     ethr =  1.18E-09,  avg # of iterations =  2.8

     negative rho (up, down):  0.000E+00 6.485E-04

     total cpu time spent up to now is    12201.9 secs

     total energy              =  -10534.99682368 Ry
     estimated scf accuracy    <       0.00000723 Ry

     total magnetization       =    -0.00 Bohr mag/cell
     absolute magnetization    =    55.86 Bohr mag/cell

     iteration # 12     ecut=    71.00 Ry     beta= 0.10
     Davidson diagonalization with overlap
     ethr =  1.18E-09,  avg # of iterations =  2.0

     negative rho (up, down):  0.000E+00 6.548E-04

     total cpu time spent up to now is    12337.9 secs

     total energy              =  -10534.99682582 Ry
     estimated scf accuracy    <       0.00000276 Ry

     total magnetization       =    -0.00 Bohr mag/cell
     absolute magnetization    =    55.88 Bohr mag/cell

     iteration # 13     ecut=    71.00 Ry     beta= 0.10
     Davidson diagonalization with overlap
     ethr =  5.39E-10,  avg # of iterations =  4.0

     negative rho (up, down):  0.000E+00 6.541E-04

     total cpu time spent up to now is    12517.1 secs

     total energy              =  -10534.99684007 Ry
     estimated scf accuracy    <       0.00000095 Ry

     total magnetization       =    -0.00 Bohr mag/cell
     absolute magnetization    =    55.94 Bohr mag/cell

     iteration # 14     ecut=    71.00 Ry     beta= 0.10
     Davidson diagonalization with overlap
     ethr =  1.86E-10,  avg # of iterations =  2.0

     negative rho (up, down):  0.000E+00 6.527E-04

     total cpu time spent up to now is    12669.0 secs

     total energy              =  -10534.99684401 Ry
     estimated scf accuracy    <       0.00000100 Ry

     total magnetization       =    -0.00 Bohr mag/cell
     absolute magnetization    =    55.95 Bohr mag/cell

     iteration # 15     ecut=    71.00 Ry     beta= 0.10
     Davidson diagonalization with overlap
     ethr =  1.86E-10,  avg # of iterations =  2.0

     negative rho (up, down):  0.000E+00 6.521E-04

     total cpu time spent up to now is    12819.6 secs

     total energy              =  -10534.99684714 Ry
     estimated scf accuracy    <       0.00000042 Ry

     total magnetization       =    -0.00 Bohr mag/cell
     absolute magnetization    =    55.95 Bohr mag/cell

     iteration # 16     ecut=    71.00 Ry     beta= 0.10
     Davidson diagonalization with overlap
     ethr =  8.20E-11,  avg # of iterations =  2.0

     negative rho (up, down):  0.000E+00 6.511E-04

     total cpu time spent up to now is    12960.3 secs

     total energy              =  -10534.99684960 Ry
     estimated scf accuracy    <       0.00000018 Ry

     total magnetization       =    -0.00 Bohr mag/cell
     absolute magnetization    =    55.96 Bohr mag/cell

     iteration # 17     ecut=    71.00 Ry     beta= 0.10
     Davidson diagonalization with overlap
     ethr =  3.50E-11,  avg # of iterations =  3.4

     negative rho (up, down):  0.000E+00 6.513E-04

     total cpu time spent up to now is    13126.4 secs

     total energy              =  -10534.99685170 Ry
     estimated scf accuracy    <       0.00000004 Ry

     total magnetization       =    -0.00 Bohr mag/cell
     absolute magnetization    =    55.96 Bohr mag/cell

     iteration # 18     ecut=    71.00 Ry     beta= 0.10
     Davidson diagonalization with overlap
     ethr =  7.22E-12,  avg # of iterations =  3.2

     negative rho (up, down):  0.000E+00 6.511E-04

     total cpu time spent up to now is    13293.6 secs

     total energy              =  -10534.99685326 Ry
     estimated scf accuracy    <       0.00000003 Ry

     total magnetization       =    -0.00 Bohr mag/cell
     absolute magnetization    =    55.96 Bohr mag/cell

     iteration # 19     ecut=    71.00 Ry     beta= 0.10
     Davidson diagonalization with overlap
     ethr =  5.34E-12,  avg # of iterations =  2.3

     negative rho (up, down):  0.000E+00 6.522E-04
 
     Magnetic moment per site:
     atom:    1    charge:   14.4483    magn:    1.1120    constr:    0.0000
     atom:    2    charge:   14.2969    magn:   -2.2226    constr:    0.0000
[...]
     atom   21 type  1   force =     0.00000000    0.00008158    0.00000000
     atom   22 type  2   force =    -0.00000064   -0.00003888    0.00000000
     atom   23 type  1   force =    -0.00000129   -0.00000685   -0.00000129
     atom   24 type  2   force =     0.00000000   -0.00003888   -0.00000064
     atom   25 type  1   force =     0.00000000    0.00004354    0.00000000
     atom   26 type  2   force =     0.00000149   -0.00001623    0.00000000
     atom   27 type  1   force =    -0.00000111   -0.00000847    0.00000111
     atom   28 type  2   force =     0.00000000   -0.00001775   -0.00000068
     atom   29 type  1   force =     0.00000000    0.00004254    0.00000000
     atom   30 type  2   force =     0.00000068   -0.00001775    0.00000000
     atom   31 type  1   force =    -0.00000111   -0.00000847   -0.00000111
     atom   32 type  2   force =     0.00000000   -0.00001775    0.00000068

     Total force =     0.000227     Total SCF correction =     0.000106
     SCF correction compared to forces is large: reduce conv_thr to get better values


     Computing stress (Cartesian axis) and pressure


     negative rho (up, down):  0.000E+00 1.472E-04
          total   stress  (Ry/bohr**3)                   (kbar)     P=      -31.66
  -0.00021209   0.00000000   0.00000000          -31.20        0.00        0.00
   0.00000000  -0.00022155   0.00000000            0.00      -32.59        0.00
   0.00000000   0.00000000  -0.00021209            0.00        0.00      -31.20

     Energy error            =      2.0E-04
     Gradient error          =      8.9E-05

     number of scf cycles    =  10
     number of bfgs steps    =   9

     energy   old            =  -10535.0251266058 Ry
     energy   new            =  -10535.0253315871 Ry

     CASE: energy  _new < energy  _old

     new trust radius        =       0.0002760589 bohr
     new conv_thr            =       0.0000000010 Ry


ATOMIC_POSITIONS (crystal)
Fe1           0.0000000000        0.0043750715        0.0000000000
Fe2           0.2499996702        0.1611522424        0.0000000000
Fe1           0.2499996530        0.0043518787        0.2499996530
Fe2           0.0000000000        0.1611522424        0.2499996702
Fe1           0.0000000000        0.0043768587        0.5000000000
Fe2           0.2499995173        0.1611525160        0.5000000000
Fe1           0.2499996530        0.0043518787        0.7500003470
Fe2          -0.0000000000        0.1611522424        0.7500003298
Fe1           0.0000000000        0.6917998914        0.0000000000
Fe2           0.2500007683        0.8485751600       -0.0000000000
Fe1           0.2499997338        0.6917812048        0.2499997338
Fe2          -0.0000000000        0.8485751600        0.2500007683
Fe1           0.0000000000        0.6917986561        0.5000000000
Fe2           0.2500002852        0.8485758383        0.5000000000
Fe1           0.2499997338        0.6917812048        0.7500002662
Fe2           0.0000000000        0.8485751600        0.7499992317
Fe1           0.5000000000        0.0043768587        0.0000000000
Fe2           0.7500003298        0.1611522424        0.0000000000
Fe1           0.7500003470        0.0043518787        0.2499996530
Fe2           0.5000000000        0.1611525160        0.2499995173
Fe1           0.5000000000        0.0043779523        0.5000000000
Fe2           0.7500004827        0.1611525160        0.5000000000
Fe1           0.7500003470        0.0043518787        0.7500003470
Fe2           0.5000000000        0.1611525160        0.7500004827
Fe1           0.5000000000        0.6917986561        0.0000000000
Fe2           0.7499992317        0.8485751600        0.0000000000
Fe1           0.7500002662        0.6917812048        0.2499997338
Fe2           0.5000000000        0.8485758383        0.2500002852
Fe1           0.5000000000        0.6917995178        0.5000000000
Fe2           0.7499997148        0.8485758383        0.5000000000
Fe1           0.7500002662        0.6917812048        0.7500002662
Fe2           0.5000000000        0.8485758383        0.7499997148



     Writing output data file /scratch/HMTQhhGmqUNOfnnL.save/
     NEW-OLD atomic charge density approx. for the potential

     Check: negative core charge=   -0.000004

     negative rho (up, down):  0.000E+00 1.500E-04
     Generating pointlists ...

     total cpu time spent up to now is    34116.1 secs

     Self-consistent Calculation

     iteration #  1     ecut=    71.00 Ry     beta= 0.10
     Davidson diagonalization with overlap
     ethr =  1.00E-06,  avg # of iterations =  2.0

     Threshold (ethr) on eigenvalues was too large:
     Diagonalizing with lowered threshold

     Davidson diagonalization with overlap
     ethr =  3.67E-10,  avg # of iterations =  5.1

     negative rho (up, down):  0.000E+00 1.503E-04

     total cpu time spent up to now is    34476.9 secs

     total energy              =  -10535.02533106 Ry
     estimated scf accuracy    <       0.00000183 Ry

     total magnetization       =    -0.00 Bohr mag/cell
     absolute magnetization    =    63.10 Bohr mag/cell

     iteration #  2     ecut=    71.00 Ry     beta= 0.10
     Davidson diagonalization with overlap
     ethr =  3.57E-10,  avg # of iterations =  1.0

     negative rho (up, down):  0.000E+00 1.507E-04

     total cpu time spent up to now is    34595.2 secs

     total energy              =  -10535.02533118 Ry
     estimated scf accuracy    <       0.00000064 Ry

     total magnetization       =     0.00 Bohr mag/cell
     absolute magnetization    =    63.10 Bohr mag/cell

     iteration #  3     ecut=    71.00 Ry     beta= 0.10
     Davidson diagonalization with overlap
     ethr =  1.24E-10,  avg # of iterations =  2.0

     negative rho (up, down):  0.000E+00 1.515E-04

     total cpu time spent up to now is    34730.2 secs

     total energy              =  -10535.02533139 Ry
     estimated scf accuracy    <       0.00000018 Ry

     total magnetization       =     0.00 Bohr mag/cell
     absolute magnetization    =    63.10 Bohr mag/cell

     iteration #  4     ecut=    71.00 Ry     beta= 0.10
     Davidson diagonalization with overlap
     ethr =  3.44E-11,  avg # of iterations =  2.0

     negative rho (up, down):  0.000E+00 1.518E-04

     total cpu time spent up to now is    34882.9 secs

     total energy              =  -10535.02533152 Ry
     estimated scf accuracy    <       0.00000007 Ry

     total magnetization       =     0.00 Bohr mag/cell
     absolute magnetization    =    63.10 Bohr mag/cell

     iteration #  5     ecut=    71.00 Ry     beta= 0.10
     Davidson diagonalization with overlap
     ethr =  1.42E-11,  avg # of iterations =  2.0

     negative rho (up, down):  0.000E+00 1.520E-04

     total cpu time spent up to now is    35032.2 secs

     total energy              =  -10535.02533161 Ry
     estimated scf accuracy    <       0.00000005 Ry

     total magnetization       =     0.00 Bohr mag/cell
     absolute magnetization    =    63.10 Bohr mag/cell

     iteration #  6     ecut=    71.00 Ry     beta= 0.10
     Davidson diagonalization with overlap
     ethr =  1.04E-11,  avg # of iterations =  2.0

     negative rho (up, down):  0.000E+00 1.522E-04

     total cpu time spent up to now is    35178.5 secs

     total energy              =  -10535.02533164 Ry
     estimated scf accuracy    <       0.00000003 Ry

     total magnetization       =     0.00 Bohr mag/cell
     absolute magnetization    =    63.10 Bohr mag/cell

     iteration #  7     ecut=    71.00 Ry     beta= 0.10
     Davidson diagonalization with overlap
     ethr =  5.38E-12,  avg # of iterations =  2.0

     negative rho (up, down):  0.000E+00 1.522E-04

     total cpu time spent up to now is    35334.7 secs

     total energy              =  -10535.02533165 Ry
     estimated scf accuracy    <          2.6E-09 Ry

     total magnetization       =     0.00 Bohr mag/cell
     absolute magnetization    =    63.10 Bohr mag/cell

     iteration #  8     ecut=    71.00 Ry     beta= 0.10
     Davidson diagonalization with overlap
     ethr =  5.14E-13,  avg # of iterations =  2.0

     negative rho (up, down):  0.000E+00 1.522E-04
 
     Magnetic moment per site:
     atom:    1    charge:   14.3857    magn:    1.4693    constr:    0.0000
     atom:    2    charge:   14.2717    magn:   -2.2972    constr:    0.0000
     atom:    3    charge:   14.3852    magn:    1.4706    constr:    0.0000
     atom:    4    charge:   14.2717    magn:   -2.2972    constr:    0.0000
     atom:    5    charge:   14.3857    magn:    1.4693    constr:    0.0000
     atom:    6    charge:   14.2717    magn:   -2.2972    constr:    0.0000
     atom:    7    charge:   14.3852    magn:    1.4706    constr:    0.0000
     atom:    8    charge:   14.2717    magn:   -2.2972    constr:    0.0000
     atom:    9    charge:   14.2719    magn:    2.2970    constr:    0.0000
     atom:   10    charge:   14.3856    magn:   -1.4698    constr:    0.0000
     atom:   11    charge:   14.2711    magn:    2.2974    constr:    0.0000
     atom:   12    charge:   14.3856    magn:   -1.4698    constr:    0.0000
     atom:   13    charge:   14.2719    magn:    2.2970    constr:    0.0000
     atom:   14    charge:   14.3856    magn:   -1.4699    constr:    0.0000
     atom:   15    charge:   14.2711    magn:    2.2974    constr:    0.0000
     atom:   16    charge:   14.3856    magn:   -1.4698    constr:    0.0000
     atom:   17    charge:   14.3857    magn:    1.4693    constr:    0.0000
     atom:   18    charge:   14.2717    magn:   -2.2972    constr:    0.0000
     atom:   19    charge:   14.3852    magn:    1.4706    constr:    0.0000
     atom:   20    charge:   14.2717    magn:   -2.2972    constr:    0.0000
     atom:   21    charge:   14.3857    magn:    1.4692    constr:    0.0000
     atom:   22    charge:   14.2717    magn:   -2.2972    constr:    0.0000
     atom:   23    charge:   14.3852    magn:    1.4706    constr:    0.0000
     atom:   24    charge:   14.2717    magn:   -2.2972    constr:    0.0000
     atom:   25    charge:   14.2719    magn:    2.2970    constr:    0.0000
     atom:   26    charge:   14.3856    magn:   -1.4698    constr:    0.0000
     atom:   27    charge:   14.2711    magn:    2.2974    constr:    0.0000
     atom:   28    charge:   14.3856    magn:   -1.4699    constr:    0.0000
     atom:   29    charge:   14.2719    magn:    2.2970    constr:    0.0000
     atom:   30    charge:   14.3856    magn:   -1.4699    constr:    0.0000
     atom:   31    charge:   14.2711    magn:    2.2974    constr:    0.0000
     atom:   32    charge:   14.3856    magn:   -1.4699    constr:    0.0000

     total cpu time spent up to now is    35475.8 secs

     End of self-consistent calculation

     Number of k-points >= 100: set verbosity='high' to print the bands.

     the Fermi energy is    10.9276 ev

!    total energy              =  -10535.02533166 Ry

     total all-electron energy =    -81456.514390 Ry
     estimated scf accuracy    <          6.3E-10 Ry
     smearing contrib. (-TS)   =       0.02922301 Ry
     internal energy E=F+TS    =  -10535.05455467 Ry

     The total energy is F=E-TS. E is the sum of the following terms:
     one-electron contribution =  -14210.50774763 Ry
     hartree contribution      =    7285.24682689 Ry
     xc contribution           =    -886.44427201 Ry
     ewald contribution        =     -73.99407600 Ry
     one-center paw contrib.   =   -2649.35528591 Ry

     total magnetization       =     0.00 Bohr mag/cell
     absolute magnetization    =    63.10 Bohr mag/cell

     convergence has been achieved in   8 iterations

     negative rho (up, down):  0.000E+00 1.522E-04

     Forces acting on atoms (cartesian axes, Ry/au):

     atom    1 type  1   force =     0.00000000    0.00004636    0.00000000
     atom    2 type  2   force =    -0.00000031   -0.00002363    0.00000000
     atom    3 type  1   force =     0.00000099   -0.00004434    0.00000099
     atom    4 type  2   force =     0.00000000   -0.00002363   -0.00000031
     atom    5 type  1   force =     0.00000000    0.00004210    0.00000000
     atom    6 type  2   force =     0.00000047   -0.00002308    0.00000000
     atom    7 type  1   force =     0.00000099   -0.00004434   -0.00000099
     atom    8 type  2   force =     0.00000000   -0.00002363    0.00000031
     atom    9 type  1   force =     0.00000000    0.00002943    0.00000000
     atom   10 type  2   force =    -0.00000135    0.00002123    0.00000000
     atom   11 type  1   force =     0.00000092   -0.00002258    0.00000092
     atom   12 type  2   force =     0.00000000    0.00002123   -0.00000135
     atom   13 type  1   force =     0.00000000    0.00003106    0.00000000
     atom   14 type  2   force =    -0.00000064    0.00001959    0.00000000
     atom   15 type  1   force =     0.00000092   -0.00002258   -0.00000092
     atom   16 type  2   force =     0.00000000    0.00002123    0.00000135
     atom   17 type  1   force =     0.00000000    0.00004210    0.00000000
     atom   18 type  2   force =     0.00000031   -0.00002363    0.00000000
     atom   19 type  1   force =    -0.00000099   -0.00004434    0.00000099
     atom   20 type  2   force =     0.00000000   -0.00002308    0.00000047
     atom   21 type  1   force =     0.00000000    0.00003908    0.00000000
     atom   22 type  2   force =    -0.00000047   -0.00002308    0.00000000
     atom   23 type  1   force =    -0.00000099   -0.00004434   -0.00000099
     atom   24 type  2   force =     0.00000000   -0.00002308   -0.00000047
     atom   25 type  1   force =     0.00000000    0.00003106    0.00000000
     atom   26 type  2   force =     0.00000135    0.00002123    0.00000000
     atom   27 type  1   force =    -0.00000092   -0.00002258    0.00000092
     atom   28 type  2   force =     0.00000000    0.00001959   -0.00000064
     atom   29 type  1   force =     0.00000000    0.00003003    0.00000000
     atom   30 type  2   force =     0.00000064    0.00001959    0.00000000
     atom   31 type  1   force =    -0.00000092   -0.00002258   -0.00000092
     atom   32 type  2   force =     0.00000000    0.00001959    0.00000064

     Total force =     0.000169     Total SCF correction =     0.000290
     SCF correction compared to forces is large: reduce conv_thr to get better values


     Computing stress (Cartesian axis) and pressure


     negative rho (up, down):  0.000E+00 1.522E-04
          total   stress  (Ry/bohr**3)                   (kbar)     P=      -31.57
  -0.00021152   0.00000000   0.00000000          -31.12        0.00        0.00
   0.00000000  -0.00022079   0.00000000            0.00      -32.48        0.00
   0.00000000   0.00000000  -0.00021152            0.00        0.00      -31.12

     Energy error            =      7.0E-08
     Gradient error          =      4.6E-05

     bfgs converged in  11 scf cycles and  10 bfgs steps
     (criteria: energy <  1.0E-04 Ry, force <  1.0E-03 Ry/Bohr)

     End of BFGS Geometry Optimization

     Final energy   =  -10535.0253316571 Ry

     File /scratch/HMTQhhGmqUNOfnnL.bfgs deleted, as requested
Begin final coordinates

ATOMIC_POSITIONS (crystal)
Fe1           0.0000000000        0.0043750715        0.0000000000
Fe2           0.2499996702        0.1611522424        0.0000000000
Fe1           0.2499996530        0.0043518787        0.2499996530
Fe2           0.0000000000        0.1611522424        0.2499996702
Fe1           0.0000000000        0.0043768587        0.5000000000
Fe2           0.2499995173        0.1611525160        0.5000000000
Fe1           0.2499996530        0.0043518787        0.7500003470
Fe2          -0.0000000000        0.1611522424        0.7500003298
Fe1           0.0000000000        0.6917998914        0.0000000000
Fe2           0.2500007683        0.8485751600       -0.0000000000
Fe1           0.2499997338        0.6917812048        0.2499997338
Fe2          -0.0000000000        0.8485751600        0.2500007683
Fe1           0.0000000000        0.6917986561        0.5000000000
Fe2           0.2500002852        0.8485758383        0.5000000000
Fe1           0.2499997338        0.6917812048        0.7500002662
Fe2           0.0000000000        0.8485751600        0.7499992317
Fe1           0.5000000000        0.0043768587        0.0000000000
Fe2           0.7500003298        0.1611522424        0.0000000000
Fe1           0.7500003470        0.0043518787        0.2499996530
Fe2           0.5000000000        0.1611525160        0.2499995173
Fe1           0.5000000000        0.0043779523        0.5000000000
Fe2           0.7500004827        0.1611525160        0.5000000000
Fe1           0.7500003470        0.0043518787        0.7500003470
Fe2           0.5000000000        0.1611525160        0.7500004827
Fe1           0.5000000000        0.6917986561        0.0000000000
Fe2           0.7499992317        0.8485751600        0.0000000000
Fe1           0.7500002662        0.6917812048        0.2499997338
Fe2           0.5000000000        0.8485758383        0.2500002852
Fe1           0.5000000000        0.6917995178        0.5000000000
Fe2           0.7499997148        0.8485758383        0.5000000000
Fe1           0.7500002662        0.6917812048        0.7500002662
Fe2           0.5000000000        0.8485758383        0.7499997148
End final coordinates



     Writing output data file /scratch/HMTQhhGmqUNOfnnL.save/
 
     init_run     :     45.52s CPU     46.42s WALL (       1 calls)
     electrons    :  32839.85s CPU  33187.28s WALL (      11 calls)
     update_pot   :      5.04s CPU      5.15s WALL (      10 calls)
     forces       :    279.33s CPU    281.54s WALL (      11 calls)
     stress       :   2096.22s CPU   2110.22s WALL (      11 calls)

     Called by init_run:
     wfcinit      :     44.53s CPU     45.33s WALL (       1 calls)
     potinit      :      0.48s CPU      0.50s WALL (       1 calls)
     hinit0       :      0.26s CPU      0.27s WALL (       1 calls)

     Called by electrons:
     c_bands      :  29205.00s CPU  29494.11s WALL (     209 calls)
     sum_band     :   3564.45s CPU   3615.80s WALL (     209 calls)
     v_of_rho     :      9.11s CPU      9.45s WALL (     219 calls)
     newd         :     13.04s CPU     16.54s WALL (     219 calls)
     PAW_pot      :     39.93s CPU     41.99s WALL (     229 calls)
     mix_rho      :     11.28s CPU     11.86s WALL (     209 calls)

     Called by c_bands:
     init_us_2    :    155.66s CPU    157.52s WALL (   67650 calls)
     cegterg      :  28612.25s CPU  28891.72s WALL (   31350 calls)

     Called by *egterg:
     cdiaghg      :   2898.13s CPU   2912.41s WALL (  110556 calls)
     h_psi        :  15042.56s CPU  15242.63s WALL (  112356 calls)
     s_psi        :   1349.24s CPU   1357.70s WALL (  112356 calls)
     g_psi        :     37.26s CPU     37.84s WALL (   80856 calls)

     Called by h_psi:
     h_psi:calbec :   2340.97s CPU   2355.96s WALL (  112356 calls)
     vloc_psi     :  11268.85s CPU  11438.70s WALL (  112356 calls)
     add_vuspsi   :   1338.75s CPU   1353.21s WALL (  112356 calls)

     General routines
     calbec       :   3821.84s CPU   3846.03s WALL (  153456 calls)
     fft          :      8.96s CPU      9.11s WALL (    5905 calls)
     ffts         :      6.88s CPU      7.02s WALL (   14747 calls)
     fftw         :  13257.37s CPU  13455.79s WALL (59647662 calls)
     interpolate  :      0.97s CPU      0.98s WALL (     438 calls)
 
     Parallel routines
     fft_scatt_xy :    692.57s CPU    703.23s WALL (59668314 calls)
     fft_scatt_yz :  11187.53s CPU  11356.43s WALL (59668314 calls)
 
     PWSCF        :      9h49m CPU      9h55m WALL

 
   This run was terminated on:  20: 5:54  16Jan2022            

=------------------------------------------------------------------------------=
   JOB DONE.
=------------------------------------------------------------------------------=
