
     Program PWSCF v.6.7MaX starts on 15Jan2022 at 12:52:17 

     This program is part of the open-source Quantum ESPRESSO suite
     for quantum simulation of materials; please cite
         "P. Giannozzi et al., J. Phys.:Condens. Matter 21 395502 (2009);
         "P. Giannozzi et al., J. Phys.:Condens. Matter 29 465901 (2017);
          URL http://www.quantum-espresso.org", 
     in publications or presentations arising from this work. More details at
     http://www.quantum-espresso.org/quote

     Parallel version (MPI & OpenMP), running on      72 processor cores
     Number of MPI processes:                72
     Threads/MPI process:                     1

     MPI processes distributed on     1 nodes
     R & G space division:  proc/nbgrp/npool/nimage =      72
     Reading input from relax_4.in
Warning: card &CELL ignored
Warning: card CELL_DYNAMICS = 'BFGS', ignored
Warning: card CELL_FACTOR = 2.0, ignored
Warning: card PRESS = 0.0, ignored
Warning: card / ignored

     Current dimensions of program PWSCF are:
     Max number of different atomic species (ntypx) = 10
     Max number of k-points (npk) =  40000
     Max angular momentum in pseudopotentials (lmaxx) =  3
     file Fe.pbe-spn-kjpaw_psl.1.0.0.UPF: wavefunction(s)  3P 3D renormalized
     file Fe.pbe-spn-kjpaw_psl.1.0.0.UPF: wavefunction(s)  3P 3D renormalized

     Subspace diagonalization in iterative solution of the eigenvalue problem:
     one sub-group per band group will be used
     ELPA distributed-memory algorithm (size of sub-group:  8*  8 procs)

     Found symmetry operation: I + (  0.2500  0.0000  0.2500)
     This is a supercell, fractional translations are disabled
     Message from routine setup:
     using ibrav=0 with symmetry is DISCOURAGED, use correct ibrav instead
 
     Parallelization info
     --------------------
     sticks:   dense  smooth     PW     G-vecs:    dense   smooth      PW
     Min          95      63     17                 5433     2915     417
     Max          96      64     18                 5440     2919     422
     Sum        6871    4543   1243               391327   210019   30155
 


     bravais-lattice index     =            0
     lattice parameter (alat)  =      12.9382  a.u.
     unit-cell volume          =    2598.9733 (a.u.)^3
     number of atoms/cell      =           32
     number of atomic types    =            2
     number of electrons       =       512.00
     number of Kohn-Sham states=          325
     kinetic-energy cutoff     =      71.0000  Ry
     charge density cutoff     =     430.0000  Ry
     scf convergence threshold =      1.0E-07
     mixing beta               =       0.1000
     number of iterations used =           10  local-TF  mixing
     energy convergence thresh.=      1.0E-04
     force convergence thresh. =      1.0E-03
     Exchange-correlation= SLA  PW   PBX  PBC
                           (   1   4   3   4   0   0   0)
     nstep                     =           50


     celldm(1)=  12.938190  celldm(2)=   0.000000  celldm(3)=   0.000000
     celldm(4)=   0.000000  celldm(5)=   0.000000  celldm(6)=   0.000000

     crystal axes: (cart. coord. in units of alat)
               a(1) = (   1.000000   0.000000   0.000000 )  
               a(2) = (   0.000000   1.200000   0.000000 )  
               a(3) = (   0.000000   0.000000   1.000000 )  

     reciprocal axes: (cart. coord. in units 2 pi/alat)
               b(1) = (  1.000000  0.000000  0.000000 )  
               b(2) = (  0.000000  0.833333  0.000000 )  
               b(3) = (  0.000000  0.000000  1.000000 )  


     PseudoPot. # 1 for Fe read from file:
     /rds/homes/b/bxp912/pp/Fe.pbe-spn-kjpaw_psl.1.0.0.UPF
     MD5 check sum: 42f43b795421b414b0dc916aa790dbcb
     Pseudo is Projector augmented-wave + core cor, Zval = 16.0
     Generated using &quot;atomic&quot; code by A. Dal Corso  v.6.3
     Shape of augmentation charge: PSQ
     Using radial grid of 1191 points,  6 beta functions with: 
                l(1) =   0
                l(2) =   0
                l(3) =   1
                l(4) =   1
                l(5) =   2
                l(6) =   2
     Q(r) pseudized with 0 coefficients 


     PseudoPot. # 2 for Fe read from file:
     /rds/homes/b/bxp912/pp/Fe.pbe-spn-kjpaw_psl.1.0.0.UPF
     MD5 check sum: 42f43b795421b414b0dc916aa790dbcb
     Pseudo is Projector augmented-wave + core cor, Zval = 16.0
     Generated using &quot;atomic&quot; code by A. Dal Corso  v.6.3
     Shape of augmentation charge: PSQ
     Using radial grid of 1191 points,  6 beta functions with: 
                l(1) =   0
                l(2) =   0
                l(3) =   1
                l(4) =   1
                l(5) =   2
                l(6) =   2
     Q(r) pseudized with 0 coefficients 


     atomic species   valence    mass     pseudopotential
        Fe1           16.00    55.84500     Fe( 1.00)
        Fe2           16.00    55.84500     Fe( 1.00)

     Starting magnetic structure 
     atomic species   magnetization
        Fe1          0.100
        Fe2         -0.100

      8 Sym. Ops. (no inversion) found



   Cartesian axes

     site n.     atom                  positions (alat units)
         1           Fe1 tau(   1) = (   0.0000000   0.0000000   0.0000000  )
         2           Fe2 tau(   2) = (   0.2500000   0.2500000   0.0000000  )
         3           Fe1 tau(   3) = (   0.2500000   0.0000000   0.2500000  )
         4           Fe2 tau(   4) = (   0.0000000   0.2500000   0.2500000  )
         5           Fe1 tau(   5) = (   0.0000000   0.0000000   0.5000000  )
         6           Fe2 tau(   6) = (   0.2500000   0.2500000   0.5000000  )
         7           Fe1 tau(   7) = (   0.2500000   0.0000000   0.7500000  )
         8           Fe2 tau(   8) = (   0.0000000   0.2500000   0.7500000  )
         9           Fe1 tau(   9) = (   0.0000000   0.7000000   0.0000000  )
        10           Fe2 tau(  10) = (   0.2500000   0.9500000   0.0000000  )
        11           Fe1 tau(  11) = (   0.2500000   0.7000000   0.2500000  )
        12           Fe2 tau(  12) = (   0.0000000   0.9500000   0.2500000  )
        13           Fe1 tau(  13) = (   0.0000000   0.7000000   0.5000000  )
        14           Fe2 tau(  14) = (   0.2500000   0.9500000   0.5000000  )
        15           Fe1 tau(  15) = (   0.2500000   0.7000000   0.7500000  )
        16           Fe2 tau(  16) = (   0.0000000   0.9500000   0.7500000  )
        17           Fe1 tau(  17) = (   0.5000000   0.0000000   0.0000000  )
        18           Fe2 tau(  18) = (   0.7500000   0.2500000   0.0000000  )
        19           Fe1 tau(  19) = (   0.7500000   0.0000000   0.2500000  )
        20           Fe2 tau(  20) = (   0.5000000   0.2500000   0.2500000  )
        21           Fe1 tau(  21) = (   0.5000000   0.0000000   0.5000000  )
        22           Fe2 tau(  22) = (   0.7500000   0.2500000   0.5000000  )
        23           Fe1 tau(  23) = (   0.7500000   0.0000000   0.7500000  )
        24           Fe2 tau(  24) = (   0.5000000   0.2500000   0.7500000  )
        25           Fe1 tau(  25) = (   0.5000000   0.7000000   0.0000000  )
        26           Fe2 tau(  26) = (   0.7500000   0.9500000   0.0000000  )
        27           Fe1 tau(  27) = (   0.7500000   0.7000000   0.2500000  )
        28           Fe2 tau(  28) = (   0.5000000   0.9500000   0.2500000  )
        29           Fe1 tau(  29) = (   0.5000000   0.7000000   0.5000000  )
        30           Fe2 tau(  30) = (   0.7500000   0.9500000   0.5000000  )
        31           Fe1 tau(  31) = (   0.7500000   0.7000000   0.7500000  )
        32           Fe2 tau(  32) = (   0.5000000   0.9500000   0.7500000  )

     number of k points=    75  Marzari-Vanderbilt smearing, width (Ry)=  0.0400
                       cart. coord. in units 2pi/alat
        k(    1) = (   0.0555556   0.0462963   0.0555556), wk =   0.0109739
        k(    2) = (   0.0555556   0.0462963   0.1666667), wk =   0.0219479
        k(    3) = (   0.0555556   0.0462963   0.2777778), wk =   0.0219479
        k(    4) = (   0.0555556   0.0462963   0.3888889), wk =   0.0219479
        k(    5) = (   0.0555556   0.0462963  -0.5000000), wk =   0.0109739
        k(    6) = (   0.0555556   0.1388889   0.0555556), wk =   0.0109739
        k(    7) = (   0.0555556   0.1388889   0.1666667), wk =   0.0219479
        k(    8) = (   0.0555556   0.1388889   0.2777778), wk =   0.0219479
        k(    9) = (   0.0555556   0.1388889   0.3888889), wk =   0.0219479
        k(   10) = (   0.0555556   0.1388889  -0.5000000), wk =   0.0109739
        k(   11) = (   0.0555556   0.2314815   0.0555556), wk =   0.0109739
        k(   12) = (   0.0555556   0.2314815   0.1666667), wk =   0.0219479
        k(   13) = (   0.0555556   0.2314815   0.2777778), wk =   0.0219479
        k(   14) = (   0.0555556   0.2314815   0.3888889), wk =   0.0219479
        k(   15) = (   0.0555556   0.2314815  -0.5000000), wk =   0.0109739
        k(   16) = (   0.0555556   0.3240741   0.0555556), wk =   0.0109739
        k(   17) = (   0.0555556   0.3240741   0.1666667), wk =   0.0219479
        k(   18) = (   0.0555556   0.3240741   0.2777778), wk =   0.0219479
        k(   19) = (   0.0555556   0.3240741   0.3888889), wk =   0.0219479
        k(   20) = (   0.0555556   0.3240741  -0.5000000), wk =   0.0109739
        k(   21) = (   0.0555556  -0.4166667   0.0555556), wk =   0.0054870
        k(   22) = (   0.0555556  -0.4166667   0.1666667), wk =   0.0109739
        k(   23) = (   0.0555556  -0.4166667   0.2777778), wk =   0.0109739
        k(   24) = (   0.0555556  -0.4166667   0.3888889), wk =   0.0109739
        k(   25) = (   0.0555556  -0.4166667  -0.5000000), wk =   0.0054870
        k(   26) = (   0.1666667   0.0462963   0.1666667), wk =   0.0109739
        k(   27) = (   0.1666667   0.0462963   0.2777778), wk =   0.0219479
        k(   28) = (   0.1666667   0.0462963   0.3888889), wk =   0.0219479
        k(   29) = (   0.1666667   0.0462963  -0.5000000), wk =   0.0109739
        k(   30) = (   0.1666667   0.1388889   0.1666667), wk =   0.0109739
        k(   31) = (   0.1666667   0.1388889   0.2777778), wk =   0.0219479
        k(   32) = (   0.1666667   0.1388889   0.3888889), wk =   0.0219479
        k(   33) = (   0.1666667   0.1388889  -0.5000000), wk =   0.0109739
        k(   34) = (   0.1666667   0.2314815   0.1666667), wk =   0.0109739
        k(   35) = (   0.1666667   0.2314815   0.2777778), wk =   0.0219479
        k(   36) = (   0.1666667   0.2314815   0.3888889), wk =   0.0219479
        k(   37) = (   0.1666667   0.2314815  -0.5000000), wk =   0.0109739
        k(   38) = (   0.1666667   0.3240741   0.1666667), wk =   0.0109739
        k(   39) = (   0.1666667   0.3240741   0.2777778), wk =   0.0219479
        k(   40) = (   0.1666667   0.3240741   0.3888889), wk =   0.0219479
        k(   41) = (   0.1666667   0.3240741  -0.5000000), wk =   0.0109739
        k(   42) = (   0.1666667  -0.4166667   0.1666667), wk =   0.0054870
        k(   43) = (   0.1666667  -0.4166667   0.2777778), wk =   0.0109739
        k(   44) = (   0.1666667  -0.4166667   0.3888889), wk =   0.0109739
        k(   45) = (   0.1666667  -0.4166667  -0.5000000), wk =   0.0054870
        k(   46) = (   0.2777778   0.0462963   0.2777778), wk =   0.0109739
        k(   47) = (   0.2777778   0.0462963   0.3888889), wk =   0.0219479
        k(   48) = (   0.2777778   0.0462963  -0.5000000), wk =   0.0109739
        k(   49) = (   0.2777778   0.1388889   0.2777778), wk =   0.0109739
        k(   50) = (   0.2777778   0.1388889   0.3888889), wk =   0.0219479
        k(   51) = (   0.2777778   0.1388889  -0.5000000), wk =   0.0109739
        k(   52) = (   0.2777778   0.2314815   0.2777778), wk =   0.0109739
        k(   53) = (   0.2777778   0.2314815   0.3888889), wk =   0.0219479
        k(   54) = (   0.2777778   0.2314815  -0.5000000), wk =   0.0109739
        k(   55) = (   0.2777778   0.3240741   0.2777778), wk =   0.0109739
        k(   56) = (   0.2777778   0.3240741   0.3888889), wk =   0.0219479
        k(   57) = (   0.2777778   0.3240741  -0.5000000), wk =   0.0109739
        k(   58) = (   0.2777778  -0.4166667   0.2777778), wk =   0.0054870
        k(   59) = (   0.2777778  -0.4166667   0.3888889), wk =   0.0109739
        k(   60) = (   0.2777778  -0.4166667  -0.5000000), wk =   0.0054870
        k(   61) = (   0.3888889   0.0462963   0.3888889), wk =   0.0109739
        k(   62) = (   0.3888889   0.0462963  -0.5000000), wk =   0.0109739
        k(   63) = (   0.3888889   0.1388889   0.3888889), wk =   0.0109739
        k(   64) = (   0.3888889   0.1388889  -0.5000000), wk =   0.0109739
        k(   65) = (   0.3888889   0.2314815   0.3888889), wk =   0.0109739
        k(   66) = (   0.3888889   0.2314815  -0.5000000), wk =   0.0109739
        k(   67) = (   0.3888889   0.3240741   0.3888889), wk =   0.0109739
        k(   68) = (   0.3888889   0.3240741  -0.5000000), wk =   0.0109739
        k(   69) = (   0.3888889  -0.4166667   0.3888889), wk =   0.0054870
        k(   70) = (   0.3888889  -0.4166667  -0.5000000), wk =   0.0054870
        k(   71) = (  -0.5000000   0.0462963  -0.5000000), wk =   0.0027435
        k(   72) = (  -0.5000000   0.1388889  -0.5000000), wk =   0.0027435
        k(   73) = (  -0.5000000   0.2314815  -0.5000000), wk =   0.0027435
        k(   74) = (  -0.5000000   0.3240741  -0.5000000), wk =   0.0027435
        k(   75) = (  -0.5000000  -0.4166667  -0.5000000), wk =   0.0013717

     Dense  grid:   391327 G-vectors     FFT dimensions: (  90, 108,  90)

     Smooth grid:   210019 G-vectors     FFT dimensions: (  72,  90,  72)

     Estimated max dynamical RAM per process >     305.35 MB

     Estimated total dynamical RAM >      21.47 GB

     Check: negative core charge=   -0.000005
     Generating pointlists ...
     new r_m :   0.1458 (alat units)  1.8869 (a.u.) for type    1
     new r_m :   0.1458 (alat units)  1.8869 (a.u.) for type    2

     Initial potential from superposition of free atoms

     starting charge  511.98600, renormalised to  512.00000
     Starting wfcs are  320 randomized atomic wfcs +    5 random wfcs
     Checking if some PAW data can be deallocated... 

     total cpu time spent up to now is       40.9 secs

     Self-consistent Calculation

     iteration #  1     ecut=    71.00 Ry     beta= 0.10
     Davidson diagonalization with overlap
     ethr =  1.00E-02,  avg # of iterations =  3.0

     total cpu time spent up to now is      181.2 secs

     total energy              =  -10536.23418684 Ry
     estimated scf accuracy    <      22.82438099 Ry

     total magnetization       =     0.03 Bohr mag/cell
     absolute magnetization    =    44.93 Bohr mag/cell

     iteration #  2     ecut=    71.00 Ry     beta= 0.10
     Davidson diagonalization with overlap
     ethr =  4.46E-03,  avg # of iterations =  1.0

     total cpu time spent up to now is      282.0 secs

     total energy              =  -10535.94312196 Ry
     estimated scf accuracy    <       5.71623871 Ry

     total magnetization       =     0.05 Bohr mag/cell
     absolute magnetization    =    47.22 Bohr mag/cell

     iteration #  3     ecut=    71.00 Ry     beta= 0.10
     Davidson diagonalization with overlap
     ethr =  1.12E-03,  avg # of iterations =  1.0

     negative rho (up, down):  3.227E-04 1.993E-03

     total cpu time spent up to now is      382.5 secs

     total energy              =  -10535.08070590 Ry
     estimated scf accuracy    <       2.94606631 Ry

     total magnetization       =     0.07 Bohr mag/cell
     absolute magnetization    =    47.69 Bohr mag/cell

     iteration #  4     ecut=    71.00 Ry     beta= 0.10
     Davidson diagonalization with overlap
     ethr =  5.75E-04,  avg # of iterations =  2.0

     negative rho (up, down):  1.529E-03 2.656E-03

     total cpu time spent up to now is      505.1 secs

     total energy              =  -10535.29077311 Ry
     estimated scf accuracy    <       0.86702862 Ry

     total magnetization       =     0.07 Bohr mag/cell
     absolute magnetization    =    49.15 Bohr mag/cell

     iteration #  5     ecut=    71.00 Ry     beta= 0.10
     Davidson diagonalization with overlap
     ethr =  1.69E-04,  avg # of iterations =  4.5

     negative rho (up, down):  0.000E+00 1.080E-03

     total cpu time spent up to now is      643.8 secs

     total energy              =  -10535.39337051 Ry
     estimated scf accuracy    <       0.41290926 Ry

     total magnetization       =     0.09 Bohr mag/cell
     absolute magnetization    =    50.40 Bohr mag/cell

     iteration #  6     ecut=    71.00 Ry     beta= 0.10
     Davidson diagonalization with overlap
     c_bands:  1 eigenvalues not converged
     ethr =  8.06E-05,  avg # of iterations =  3.6

     negative rho (up, down):  0.000E+00 1.657E-04

     total cpu time spent up to now is      762.7 secs

     total energy              =  -10535.39920706 Ry
     estimated scf accuracy    <       0.18935831 Ry

     total magnetization       =     0.11 Bohr mag/cell
     absolute magnetization    =    51.06 Bohr mag/cell

     iteration #  7     ecut=    71.00 Ry     beta= 0.10
     Davidson diagonalization with overlap
     c_bands:  1 eigenvalues not converged
     c_bands:  1 eigenvalues not converged
     ethr =  3.70E-05,  avg # of iterations =  5.8

     negative rho (up, down):  0.000E+00 1.497E-04

     total cpu time spent up to now is      887.9 secs

     total energy              =  -10535.40145860 Ry
     estimated scf accuracy    <       0.05093981 Ry

     total magnetization       =     0.09 Bohr mag/cell
     absolute magnetization    =    51.66 Bohr mag/cell

     iteration #  8     ecut=    71.00 Ry     beta= 0.10
     Davidson diagonalization with overlap
     c_bands:  2 eigenvalues not converged
     ethr =  9.95E-06,  avg # of iterations =  6.5

     negative rho (up, down):  0.000E+00 2.638E-04

     total cpu time spent up to now is     1016.3 secs

     total energy              =  -10535.40542289 Ry
     estimated scf accuracy    <       0.02538531 Ry

     total magnetization       =     0.07 Bohr mag/cell
     absolute magnetization    =    51.96 Bohr mag/cell

     iteration #  9     ecut=    71.00 Ry     beta= 0.10
     Davidson diagonalization with overlap
     c_bands:  1 eigenvalues not converged
     ethr =  4.96E-06,  avg # of iterations =  3.9

     negative rho (up, down):  0.000E+00 2.991E-04

     total cpu time spent up to now is     1135.8 secs

     total energy              =  -10535.41026947 Ry
     estimated scf accuracy    <       0.00858727 Ry

     total magnetization       =     0.04 Bohr mag/cell
     absolute magnetization    =    52.63 Bohr mag/cell

     iteration # 10     ecut=    71.00 Ry     beta= 0.10
     Davidson diagonalization with overlap
     c_bands:  1 eigenvalues not converged
     ethr =  1.68E-06,  avg # of iterations =  3.9

     negative rho (up, down):  0.000E+00 3.092E-04

     total cpu time spent up to now is     1255.4 secs

     total energy              =  -10535.41170833 Ry
     estimated scf accuracy    <       0.00463869 Ry

     total magnetization       =     0.04 Bohr mag/cell
     absolute magnetization    =    52.92 Bohr mag/cell

     iteration # 11     ecut=    71.00 Ry     beta= 0.10
     Davidson diagonalization with overlap
     ethr =  9.06E-07,  avg # of iterations =  1.1

     negative rho (up, down):  0.000E+00 3.912E-04

     total cpu time spent up to now is     1356.3 secs

     total energy              =  -10535.41275042 Ry
     estimated scf accuracy    <       0.00420308 Ry

     total magnetization       =     0.04 Bohr mag/cell
     absolute magnetization    =    53.01 Bohr mag/cell

     iteration # 12     ecut=    71.00 Ry     beta= 0.10
     Davidson diagonalization with overlap
     ethr =  8.21E-07,  avg # of iterations =  3.0

     negative rho (up, down):  0.000E+00 4.304E-04

     total cpu time spent up to now is     1481.7 secs

     total energy              =  -10535.41442780 Ry
     estimated scf accuracy    <       0.00147675 Ry

     total magnetization       =     0.03 Bohr mag/cell
     absolute magnetization    =    53.48 Bohr mag/cell

     iteration # 13     ecut=    71.00 Ry     beta= 0.10
     Davidson diagonalization with overlap
     ethr =  2.88E-07,  avg # of iterations =  2.0

     negative rho (up, down):  0.000E+00 4.364E-04

     total cpu time spent up to now is     1596.2 secs

     total energy              =  -10535.41477083 Ry
     estimated scf accuracy    <       0.00032165 Ry

     total magnetization       =     0.02 Bohr mag/cell
     absolute magnetization    =    53.62 Bohr mag/cell

     iteration # 14     ecut=    71.00 Ry     beta= 0.10
     Davidson diagonalization with overlap
     ethr =  6.28E-08,  avg # of iterations =  2.0

     negative rho (up, down):  0.000E+00 4.494E-04

     total cpu time spent up to now is     1715.6 secs

     total energy              =  -10535.41488156 Ry
     estimated scf accuracy    <       0.00023865 Ry

     total magnetization       =     0.01 Bohr mag/cell
     absolute magnetization    =    53.62 Bohr mag/cell

     iteration # 15     ecut=    71.00 Ry     beta= 0.10
     Davidson diagonalization with overlap
     ethr =  4.66E-08,  avg # of iterations =  2.0

     negative rho (up, down):  0.000E+00 4.597E-04

     total cpu time spent up to now is     1836.6 secs

     total energy              =  -10535.41496708 Ry
     estimated scf accuracy    <       0.00011750 Ry

     total magnetization       =     0.01 Bohr mag/cell
     absolute magnetization    =    53.56 Bohr mag/cell

     iteration # 16     ecut=    71.00 Ry     beta= 0.10
     Davidson diagonalization with overlap
     ethr =  2.29E-08,  avg # of iterations =  2.7

     negative rho (up, down):  0.000E+00 4.605E-04

     total cpu time spent up to now is     1972.2 secs

     total energy              =  -10535.41506968 Ry
     estimated scf accuracy    <       0.00004612 Ry

     total magnetization       =     0.01 Bohr mag/cell
     absolute magnetization    =    53.49 Bohr mag/cell

     iteration # 17     ecut=    71.00 Ry     beta= 0.10
     Davidson diagonalization with overlap
     ethr =  9.01E-09,  avg # of iterations =  1.8

     negative rho (up, down):  0.000E+00 4.634E-04

     total cpu time spent up to now is     2082.5 secs

     total energy              =  -10535.41509540 Ry
     estimated scf accuracy    <       0.00004040 Ry

     total magnetization       =     0.01 Bohr mag/cell
     absolute magnetization    =    53.46 Bohr mag/cell

     iteration # 18     ecut=    71.00 Ry     beta= 0.10
     Davidson diagonalization with overlap
     ethr =  7.89E-09,  avg # of iterations =  2.0

     negative rho (up, down):  0.000E+00 4.637E-04

     total cpu time spent up to now is     2202.1 secs

     total energy              =  -10535.41512024 Ry
     estimated scf accuracy    <       0.00002488 Ry

     total magnetization       =     0.01 Bohr mag/cell
     absolute magnetization    =    53.40 Bohr mag/cell

     iteration # 19     ecut=    71.00 Ry     beta= 0.10
     Davidson diagonalization with overlap
     ethr =  4.86E-09,  avg # of iterations =  3.3

     negative rho (up, down):  0.000E+00 4.649E-04

     total cpu time spent up to now is     2336.7 secs

     total energy              =  -10535.41514586 Ry
     estimated scf accuracy    <       0.00001150 Ry

     total magnetization       =     0.01 Bohr mag/cell
     absolute magnetization    =    53.30 Bohr mag/cell

     iteration # 20     ecut=    71.00 Ry     beta= 0.10
     Davidson diagonalization with overlap
     ethr =  2.25E-09,  avg # of iterations =  3.2

     negative rho (up, down):  0.000E+00 4.644E-04

     total cpu time spent up to now is     2478.2 secs

     total energy              =  -10535.41516893 Ry
     estimated scf accuracy    <       0.00000660 Ry

     total magnetization       =     0.00 Bohr mag/cell
     absolute magnetization    =    53.22 Bohr mag/cell

     iteration # 21     ecut=    71.00 Ry     beta= 0.10
     Davidson diagonalization with overlap
     ethr =  1.29E-09,  avg # of iterations =  1.4

     negative rho (up, down):  0.000E+00 4.640E-04

     total cpu time spent up to now is     2584.5 secs

     total energy              =  -10535.41516511 Ry
     estimated scf accuracy    <       0.00000559 Ry

     total magnetization       =     0.00 Bohr mag/cell
     absolute magnetization    =    53.21 Bohr mag/cell

     iteration # 22     ecut=    71.00 Ry     beta= 0.10
     Davidson diagonalization with overlap
     ethr =  1.09E-09,  avg # of iterations =  3.2

     negative rho (up, down):  0.000E+00 4.635E-04

     total cpu time spent up to now is     2724.3 secs

     total energy              =  -10535.41517928 Ry
     estimated scf accuracy    <       0.00000172 Ry

     total magnetization       =     0.00 Bohr mag/cell
     absolute magnetization    =    53.13 Bohr mag/cell

     iteration # 23     ecut=    71.00 Ry     beta= 0.10
     Davidson diagonalization with overlap
     ethr =  3.36E-10,  avg # of iterations =  2.0

     negative rho (up, down):  0.000E+00 4.629E-04

     total cpu time spent up to now is     2838.0 secs

     total energy              =  -10535.41518063 Ry
     estimated scf accuracy    <       0.00000071 Ry

     total magnetization       =     0.00 Bohr mag/cell
     absolute magnetization    =    53.13 Bohr mag/cell

     iteration # 24     ecut=    71.00 Ry     beta= 0.10
     Davidson diagonalization with overlap
     ethr =  1.39E-10,  avg # of iterations =  2.9

     negative rho (up, down):  0.000E+00 4.624E-04

     total cpu time spent up to now is     2968.2 secs

     total energy              =  -10535.41518195 Ry
     estimated scf accuracy    <       0.00000039 Ry

     total magnetization       =     0.00 Bohr mag/cell
     absolute magnetization    =    53.11 Bohr mag/cell

     iteration # 25     ecut=    71.00 Ry     beta= 0.10
     Davidson diagonalization with overlap
     ethr =  7.69E-11,  avg # of iterations =  2.0

     negative rho (up, down):  0.000E+00 4.620E-04

     total cpu time spent up to now is     3085.7 secs

     total energy              =  -10535.41518293 Ry
     estimated scf accuracy    <       0.00000024 Ry

     total magnetization       =     0.00 Bohr mag/cell
     absolute magnetization    =    53.11 Bohr mag/cell

     iteration # 26     ecut=    71.00 Ry     beta= 0.10
     Davidson diagonalization with overlap
     ethr =  4.71E-11,  avg # of iterations =  2.0

     negative rho (up, down):  0.000E+00 4.626E-04
 
     Magnetic moment per site:
     atom:    1    charge:   14.4696    magn:    1.0168    constr:    0.0000
     atom:    2    charge:   14.2982    magn:   -2.1554    constr:    0.0000
     atom:    3    charge:   14.4689    magn:    1.0288    constr:    0.0000
     atom:    4    charge:   14.2982    magn:   -2.1554    constr:    0.0000
     atom:    5    charge:   14.4696    magn:    1.0157    constr:    0.0000
     atom:    6    charge:   14.2982    magn:   -2.1554    constr:    0.0000
     atom:    7    charge:   14.4689    magn:    1.0288    constr:    0.0000
     atom:    8    charge:   14.2982    magn:   -2.1554    constr:    0.0000
     atom:    9    charge:   14.2985    magn:    2.1554    constr:    0.0000
     atom:   10    charge:   14.4690    magn:   -1.0211    constr:    0.0000
     atom:   11    charge:   14.2981    magn:    2.1556    constr:    0.0000
     atom:   12    charge:   14.4690    magn:   -1.0211    constr:    0.0000
     atom:   13    charge:   14.2985    magn:    2.1553    constr:    0.0000
     atom:   14    charge:   14.4690    magn:   -1.0234    constr:    0.0000
     atom:   15    charge:   14.2981    magn:    2.1556    constr:    0.0000
     atom:   16    charge:   14.4690    magn:   -1.0211    constr:    0.0000
     atom:   17    charge:   14.4696    magn:    1.0157    constr:    0.0000
     atom:   18    charge:   14.2982    magn:   -2.1554    constr:    0.0000
     atom:   19    charge:   14.4689    magn:    1.0288    constr:    0.0000
     atom:   20    charge:   14.2982    magn:   -2.1554    constr:    0.0000
     atom:   21    charge:   14.4696    magn:    1.0157    constr:    0.0000
     atom:   22    charge:   14.2982    magn:   -2.1554    constr:    0.0000
     atom:   23    charge:   14.4689    magn:    1.0288    constr:    0.0000
     atom:   24    charge:   14.2982    magn:   -2.1554    constr:    0.0000
     atom:   25    charge:   14.2985    magn:    2.1553    constr:    0.0000
     atom:   26    charge:   14.4690    magn:   -1.0211    constr:    0.0000
     atom:   27    charge:   14.2981    magn:    2.1556    constr:    0.0000
     atom:   28    charge:   14.4690    magn:   -1.0234    constr:    0.0000
     atom:   29    charge:   14.2985    magn:    2.1550    constr:    0.0000
     atom:   30    charge:   14.4690    magn:   -1.0234    constr:    0.0000
     atom:   31    charge:   14.2981    magn:    2.1556    constr:    0.0000
     atom:   32    charge:   14.4690    magn:   -1.0234    constr:    0.0000

     total cpu time spent up to now is     3205.3 secs

     End of self-consistent calculation

     Number of k-points >= 100: set verbosity='high' to print the bands.

     the Fermi energy is    17.2445 ev

!    total energy              =  -10535.41518641 Ry

     total all-electron energy =    -81456.904244 Ry
     estimated scf accuracy    <       0.00000009 Ry
     smearing contrib. (-TS)   =       0.02205619 Ry
     internal energy E=F+TS    =  -10535.43724259 Ry

     The total energy is F=E-TS. E is the sum of the following terms:
     one-electron contribution =   -4908.20946645 Ry
     hartree contribution      =    2751.66255610 Ry
     xc contribution           =    -886.96254802 Ry
     ewald contribution        =   -4842.51001293 Ry
     one-center paw contrib.   =   -2649.41777129 Ry

     total magnetization       =     0.00 Bohr mag/cell
     absolute magnetization    =    53.11 Bohr mag/cell

     convergence has been achieved in  26 iterations

     negative rho (up, down):  0.000E+00 4.626E-04

     Forces acting on atoms (cartesian axes, Ry/au):

     atom    1 type  1   force =     0.00000000    0.00356246    0.00000000
     atom    2 type  2   force =     0.00000933    0.06280443    0.00000000
     atom    3 type  1   force =    -0.00000325    0.00345780   -0.00000325
     atom    4 type  2   force =     0.00000000    0.06280443    0.00000933
     atom    5 type  1   force =     0.00000000    0.00356058    0.00000000
     atom    6 type  2   force =     0.00000084    0.06280936    0.00000000
     atom    7 type  1   force =    -0.00000325    0.00345780    0.00000325
     atom    8 type  2   force =     0.00000000    0.06280443   -0.00000933
     atom    9 type  1   force =     0.00000000   -0.06252116    0.00000000
     atom   10 type  2   force =    -0.00000383   -0.00370983    0.00000000
     atom   11 type  1   force =    -0.00001816   -0.06270324   -0.00001816
     atom   12 type  2   force =     0.00000000   -0.00370983   -0.00000383
     atom   13 type  1   force =     0.00000000   -0.06253935    0.00000000
     atom   14 type  2   force =    -0.00000979   -0.00369985    0.00000000
     atom   15 type  1   force =    -0.00001816   -0.06270324    0.00001816
     atom   16 type  2   force =     0.00000000   -0.00370983    0.00000383
     atom   17 type  1   force =     0.00000000    0.00356058    0.00000000
     atom   18 type  2   force =    -0.00000933    0.06280443    0.00000000
     atom   19 type  1   force =     0.00000325    0.00345780   -0.00000325
     atom   20 type  2   force =     0.00000000    0.06280936    0.00000084
     atom   21 type  1   force =     0.00000000    0.00359913    0.00000000
     atom   22 type  2   force =    -0.00000084    0.06280936    0.00000000
     atom   23 type  1   force =     0.00000325    0.00345780    0.00000325
     atom   24 type  2   force =     0.00000000    0.06280936   -0.00000084
     atom   25 type  1   force =     0.00000000   -0.06253935    0.00000000
     atom   26 type  2   force =     0.00000383   -0.00370983    0.00000000
     atom   27 type  1   force =     0.00001816   -0.06270324   -0.00001816
     atom   28 type  2   force =     0.00000000   -0.00369985   -0.00000979
     atom   29 type  1   force =     0.00000000   -0.06251760    0.00000000
     atom   30 type  2   force =     0.00000979   -0.00369985    0.00000000
     atom   31 type  1   force =     0.00001816   -0.06270324    0.00001816
     atom   32 type  2   force =     0.00000000   -0.00369985    0.00000979

     Total force =     0.251262     Total SCF correction =     0.001386


     Computing stress (Cartesian axis) and pressure


     negative rho (up, down):  0.000E+00 4.626E-04
          total   stress  (Ry/bohr**3)                   (kbar)     P=        6.67
   0.00015438   0.00000000   0.00000000           22.71        0.00        0.00
   0.00000000  -0.00017269   0.00000000            0.00      -25.40        0.00
   0.00000000   0.00000000   0.00015438            0.00        0.00       22.71


     BFGS Geometry Optimization
     Energy error            =      0.0E+00
     Gradient error          =      6.3E-02

     number of scf cycles    =   1
     number of bfgs steps    =   0

     energy   new            =  -10535.4151864074 Ry

     new trust radius        =       0.0628093633 bohr
     new conv_thr            =       0.0000001000 Ry


ATOMIC_POSITIONS (crystal)
Fe1           0.0000000000        0.0002294536        0.0000000000
Fe2           0.2500007215        0.2123784915        0.0000000000
Fe1           0.2499997489        0.0002227126        0.2499997489
Fe2           0.0000000000        0.2123784915        0.2500007215
Fe1           0.0000000000        0.0002293326        0.5000000000
Fe2           0.2500000646        0.2123788093        0.5000000000
Fe1           0.2499997489        0.0002227126        0.7500002511
Fe2           0.0000000000        0.2123784915        0.7499992785
Fe1           0.0000000000        0.5793064203        0.0000000000
Fe2           0.2499997043        0.7914277211        0.0000000000
Fe1           0.2499985966        0.5792946929        0.2499985966
Fe2           0.0000000000        0.7914277211        0.2499997043
Fe1           0.0000000000        0.5793052488        0.5000000000
Fe2           0.2499992433        0.7914283639        0.5000000000
Fe1           0.2499985966        0.5792946929        0.7500014034
Fe2           0.0000000000        0.7914277211        0.7500002957
Fe1           0.5000000000        0.0002293326        0.0000000000
Fe2           0.7499992785        0.2123784915        0.0000000000
Fe1           0.7500002511        0.0002227126        0.2499997489
Fe2           0.5000000000        0.2123788093        0.2500000646
Fe1           0.5000000000        0.0002318154        0.5000000000
Fe2           0.7499999354        0.2123788093        0.5000000000
Fe1           0.7500002511        0.0002227126        0.7500002511
Fe2           0.5000000000        0.2123788093        0.7499999354
Fe1           0.5000000000        0.5793052488        0.0000000000
Fe2           0.7500002957        0.7914277211        0.0000000000
Fe1           0.7500014034        0.5792946929        0.2499985966
Fe2           0.5000000000        0.7914283639        0.2499992433
Fe1           0.5000000000        0.5793066494        0.5000000000
Fe2           0.7500007567        0.7914283639        0.5000000000
Fe1           0.7500014034        0.5792946929        0.7500014034
Fe2           0.5000000000        0.7914283639        0.7500007567



     Writing output data file /scratch/xVpfBVzRFFGdvxVn.save/
     NEW-OLD atomic charge density approx. for the potential

     Check: negative core charge=   -0.000005

     negative rho (up, down):  1.317E-04 1.889E-04
     Generating pointlists ...

     total cpu time spent up to now is     3350.4 secs

     Self-consistent Calculation

     iteration #  1     ecut=    71.00 Ry     beta= 0.10
     Davidson diagonalization with overlap
     ethr =  1.00E-06,  avg # of iterations =  8.9

     negative rho (up, down):  0.000E+00 2.089E-04

     total cpu time spent up to now is     3698.4 secs

     total energy              =  -10535.42946272 Ry
     estimated scf accuracy    <       0.14383042 Ry

     total magnetization       =     0.00 Bohr mag/cell
     absolute magnetization    =    53.86 Bohr mag/cell

     iteration #  2     ecut=    71.00 Ry     beta= 0.10
     Davidson diagonalization with overlap
     ethr =  2.81E-05,  avg # of iterations =  1.0

     negative rho (up, down):  0.000E+00 2.160E-04

     total cpu time spent up to now is     3799.4 secs

     total energy              =  -10535.43878750 Ry
     estimated scf accuracy    <       0.03867472 Ry

     total magnetization       =     0.00 Bohr mag/cell
     absolute magnetization    =    54.00 Bohr mag/cell

     iteration #  3     ecut=    71.00 Ry     beta= 0.10
     Davidson diagonalization with overlap
     ethr =  7.55E-06,  avg # of iterations =  1.9

     negative rho (up, down):  0.000E+00 2.253E-04

     total cpu time spent up to now is     3912.2 secs

     total energy              =  -10535.45802992 Ry
     estimated scf accuracy    <       0.01019387 Ry

     total magnetization       =     0.00 Bohr mag/cell
     absolute magnetization    =    54.12 Bohr mag/cell

     iteration #  4     ecut=    71.00 Ry     beta= 0.10
     Davidson diagonalization with overlap
     ethr =  1.99E-06,  avg # of iterations =  2.1

     negative rho (up, down):  0.000E+00 1.839E-04

     total cpu time spent up to now is     4048.7 secs

     total energy              =  -10535.46870978 Ry
     estimated scf accuracy    <       0.00404609 Ry

     total magnetization       =     0.00 Bohr mag/cell
     absolute magnetization    =    54.28 Bohr mag/cell

     iteration #  5     ecut=    71.00 Ry     beta= 0.10
     Davidson diagonalization with overlap
     ethr =  7.90E-07,  avg # of iterations =  2.0

     negative rho (up, down):  0.000E+00 4.794E-05

     total cpu time spent up to now is     4172.3 secs

     total energy              =  -10535.47412867 Ry
     estimated scf accuracy    <       0.00347911 Ry

     total magnetization       =     0.00 Bohr mag/cell
     absolute magnetization    =    54.41 Bohr mag/cell

     iteration #  6     ecut=    71.00 Ry     beta= 0.10
     Davidson diagonalization with overlap
     ethr =  6.80E-07,  avg # of iterations =  2.0

     negative rho (up, down):  0.000E+00 2.962E-05

     total cpu time spent up to now is     4311.5 secs

     total energy              =  -10535.47567917 Ry
     estimated scf accuracy    <       0.00017831 Ry

     total magnetization       =    -0.00 Bohr mag/cell
     absolute magnetization    =    54.68 Bohr mag/cell

     iteration #  7     ecut=    71.00 Ry     beta= 0.10
     Davidson diagonalization with overlap
     ethr =  3.48E-08,  avg # of iterations =  2.8

     negative rho (up, down):  0.000E+00 5.194E-05

     total cpu time spent up to now is     4448.2 secs

     total energy              =  -10535.47610392 Ry
     estimated scf accuracy    <       0.00010719 Ry

     total magnetization       =     0.00 Bohr mag/cell
     absolute magnetization    =    54.75 Bohr mag/cell

     iteration #  8     ecut=    71.00 Ry     beta= 0.10
     Davidson diagonalization with overlap
     ethr =  2.09E-08,  avg # of iterations =  2.0

     negative rho (up, down):  0.000E+00 4.716E-05

     total cpu time spent up to now is     4588.5 secs

     total energy              =  -10535.47617365 Ry
     estimated scf accuracy    <       0.00003661 Ry

     total magnetization       =     0.00 Bohr mag/cell
     absolute magnetization    =    54.77 Bohr mag/cell

     iteration #  9     ecut=    71.00 Ry     beta= 0.10
     Davidson diagonalization with overlap
     ethr =  7.15E-09,  avg # of iterations =  2.0

     negative rho (up, down):  0.000E+00 5.450E-05

     total cpu time spent up to now is     4716.0 secs

     total energy              =  -10535.47622285 Ry
     estimated scf accuracy    <       0.00002736 Ry

     total magnetization       =     0.00 Bohr mag/cell
     absolute magnetization    =    54.81 Bohr mag/cell

     iteration # 10     ecut=    71.00 Ry     beta= 0.10
     Davidson diagonalization with overlap
     ethr =  5.34E-09,  avg # of iterations =  2.0

     negative rho (up, down):  0.000E+00 5.599E-05

     total cpu time spent up to now is     4844.6 secs

     total energy              =  -10535.47624433 Ry
     estimated scf accuracy    <       0.00002031 Ry

     total magnetization       =     0.00 Bohr mag/cell
     absolute magnetization    =    54.86 Bohr mag/cell

     iteration # 11     ecut=    71.00 Ry     beta= 0.10
     Davidson diagonalization with overlap
     ethr =  3.97E-09,  avg # of iterations =  2.0

     negative rho (up, down):  0.000E+00 6.016E-05

     total cpu time spent up to now is     4962.1 secs

     total energy              =  -10535.47626087 Ry
     estimated scf accuracy    <       0.00002118 Ry

     total magnetization       =     0.00 Bohr mag/cell
     absolute magnetization    =    54.91 Bohr mag/cell

     iteration # 12     ecut=    71.00 Ry     beta= 0.10
     Davidson diagonalization with overlap
     ethr =  3.97E-09,  avg # of iterations =  2.0

     negative rho (up, down):  0.000E+00 6.888E-05

     total cpu time spent up to now is     5075.5 secs

     total energy              =  -10535.47626296 Ry
     estimated scf accuracy    <       0.00000997 Ry

     total magnetization       =     0.00 Bohr mag/cell
     absolute magnetization    =    54.96 Bohr mag/cell

     iteration # 13     ecut=    71.00 Ry     beta= 0.10
     Davidson diagonalization with overlap
     ethr =  1.95E-09,  avg # of iterations =  3.5

     negative rho (up, down):  0.000E+00 6.999E-05

     total cpu time spent up to now is     5214.2 secs

     total energy              =  -10535.47627952 Ry
     estimated scf accuracy    <       0.00000451 Ry

     total magnetization       =     0.00 Bohr mag/cell
     absolute magnetization    =    55.03 Bohr mag/cell

     iteration # 14     ecut=    71.00 Ry     beta= 0.10
     Davidson diagonalization with overlap
     ethr =  8.82E-10,  avg # of iterations =  3.0

     negative rho (up, down):  0.000E+00 6.797E-05

     total cpu time spent up to now is     5349.7 secs

     total energy              =  -10535.47628720 Ry
     estimated scf accuracy    <       0.00000618 Ry

     total magnetization       =     0.00 Bohr mag/cell
     absolute magnetization    =    55.07 Bohr mag/cell

     iteration # 15     ecut=    71.00 Ry     beta= 0.10
     Davidson diagonalization with overlap
     ethr =  8.82E-10,  avg # of iterations =  2.0

     negative rho (up, down):  0.000E+00 6.335E-05

     total cpu time spent up to now is     5474.4 secs

     total energy              =  -10535.47628821 Ry
     estimated scf accuracy    <       0.00000166 Ry

     total magnetization       =     0.00 Bohr mag/cell
     absolute magnetization    =    55.07 Bohr mag/cell

     iteration # 16     ecut=    71.00 Ry     beta= 0.10
     Davidson diagonalization with overlap
     ethr =  3.25E-10,  avg # of iterations =  3.3

     negative rho (up, down):  0.000E+00 6.389E-05

     total cpu time spent up to now is     5615.9 secs

     total energy              =  -10535.47629307 Ry
     estimated scf accuracy    <       0.00000156 Ry

     total magnetization       =     0.00 Bohr mag/cell
     absolute magnetization    =    55.09 Bohr mag/cell

     iteration # 17     ecut=    71.00 Ry     beta= 0.10
     Davidson diagonalization with overlap
     ethr =  3.04E-10,  avg # of iterations =  1.0

     negative rho (up, down):  0.000E+00 6.422E-05

     total cpu time spent up to now is     5717.3 secs

     total energy              =  -10535.47629473 Ry
     estimated scf accuracy    <       0.00000013 Ry

     total magnetization       =     0.00 Bohr mag/cell
     absolute magnetization    =    55.09 Bohr mag/cell

     iteration # 18     ecut=    71.00 Ry     beta= 0.10
     Davidson diagonalization with overlap
     ethr =  2.51E-11,  avg # of iterations =  2.0

     negative rho (up, down):  0.000E+00 6.775E-05
 
     Magnetic moment per site:
     atom:    1    charge:   14.4548    magn:    1.0898    constr:    0.0000
     atom:    2    charge:   14.2852    magn:   -2.1976    constr:    0.0000
     atom:    3    charge:   14.4539    magn:    1.1081    constr:    0.0000
     atom:    4    charge:   14.2852    magn:   -2.1976    constr:    0.0000
     atom:    5    charge:   14.4548    magn:    1.0895    constr:    0.0000
     atom:    6    charge:   14.2852    magn:   -2.1976    constr:    0.0000
     atom:    7    charge:   14.4539    magn:    1.1081    constr:    0.0000
     atom:    8    charge:   14.2852    magn:   -2.1976    constr:    0.0000
     atom:    9    charge:   14.2853    magn:    2.1969    constr:    0.0000
     atom:   10    charge:   14.4542    magn:   -1.0980    constr:    0.0000
     atom:   11    charge:   14.2845    magn:    2.1976    constr:    0.0000
     atom:   12    charge:   14.4542    magn:   -1.0980    constr:    0.0000
     atom:   13    charge:   14.2853    magn:    2.1969    constr:    0.0000
     atom:   14    charge:   14.4542    magn:   -1.0984    constr:    0.0000
     atom:   15    charge:   14.2845    magn:    2.1976    constr:    0.0000
     atom:   16    charge:   14.4542    magn:   -1.0980    constr:    0.0000
     atom:   17    charge:   14.4548    magn:    1.0895    constr:    0.0000
     atom:   18    charge:   14.2852    magn:   -2.1976    constr:    0.0000
     atom:   19    charge:   14.4539    magn:    1.1081    constr:    0.0000
     atom:   20    charge:   14.2852    magn:   -2.1976    constr:    0.0000
     atom:   21    charge:   14.4548    magn:    1.0894    constr:    0.0000
     atom:   22    charge:   14.2852    magn:   -2.1976    constr:    0.0000
     atom:   23    charge:   14.4539    magn:    1.1081    constr:    0.0000
     atom:   24    charge:   14.2852    magn:   -2.1976    constr:    0.0000
     atom:   25    charge:   14.2853    magn:    2.1969    constr:    0.0000
     atom:   26    charge:   14.4542    magn:   -1.0980    constr:    0.0000
     atom:   27    charge:   14.2845    magn:    2.1976    constr:    0.0000
     atom:   28    charge:   14.4542    magn:   -1.0984    constr:    0.0000
     atom:   29    charge:   14.2853    magn:    2.1969    constr:    0.0000
     atom:   30    charge:   14.4542    magn:   -1.0984    constr:    0.0000
     atom:   31    charge:   14.2845    magn:    2.1976    constr:    0.0000
     atom:   32    charge:   14.4542    magn:   -1.0984    constr:    0.0000

     total cpu time spent up to now is     5837.1 secs

     End of self-consistent calculation

     Number of k-points >= 100: set verbosity='high' to print the bands.

     the Fermi energy is    17.2566 ev

!    total energy              =  -10535.47630132 Ry

     total all-electron energy =    -81456.965359 Ry
     estimated scf accuracy    <       0.00000009 Ry
     smearing contrib. (-TS)   =       0.01980378 Ry
     internal energy E=F+TS    =  -10535.49610510 Ry

     The total energy is F=E-TS. E is the sum of the following terms:
     one-electron contribution =   -4768.03294368 Ry
     hartree contribution      =    2681.85777797 Ry
     xc contribution           =    -886.84802932 Ry
     ewald contribution        =   -4913.05562973 Ry
     one-center paw contrib.   =   -2649.41728033 Ry

     total magnetization       =     0.00 Bohr mag/cell
     absolute magnetization    =    55.09 Bohr mag/cell

     convergence has been achieved in  18 iterations

     negative rho (up, down):  0.000E+00 6.775E-05

     Forces acting on atoms (cartesian axes, Ry/au):

     atom    1 type  1   force =     0.00000000    0.00703833    0.00000000
     atom    2 type  2   force =    -0.00000073    0.05855038    0.00000000
     atom    3 type  1   force =    -0.00000105    0.00695201   -0.00000105
     atom    4 type  2   force =     0.00000000    0.05855038   -0.00000073
     atom    5 type  1   force =     0.00000000    0.00704176    0.00000000
     atom    6 type  2   force =    -0.00000016    0.05854886    0.00000000
     atom    7 type  1   force =    -0.00000105    0.00695201    0.00000105
     atom    8 type  2   force =     0.00000000    0.05855038    0.00000073
     atom    9 type  1   force =     0.00000000   -0.05877152    0.00000000
     atom   10 type  2   force =     0.00000391   -0.00685225    0.00000000
     atom   11 type  1   force =     0.00000310   -0.05861276    0.00000310
     atom   12 type  2   force =     0.00000000   -0.00685225    0.00000391
     atom   13 type  1   force =     0.00000000   -0.05877159    0.00000000
     atom   14 type  2   force =     0.00000558   -0.00685294    0.00000000
     atom   15 type  1   force =     0.00000310   -0.05861276   -0.00000310
     atom   16 type  2   force =     0.00000000   -0.00685225   -0.00000391
     atom   17 type  1   force =     0.00000000    0.00704176    0.00000000
     atom   18 type  2   force =     0.00000073    0.05855038    0.00000000
     atom   19 type  1   force =     0.00000105    0.00695201   -0.00000105
     atom   20 type  2   force =     0.00000000    0.05854886   -0.00000016
     atom   21 type  1   force =     0.00000000    0.00703489    0.00000000
     atom   22 type  2   force =     0.00000016    0.05854886    0.00000000
     atom   23 type  1   force =     0.00000105    0.00695201    0.00000105
     atom   24 type  2   force =     0.00000000    0.05854886    0.00000016
     atom   25 type  1   force =     0.00000000   -0.05877159    0.00000000
     atom   26 type  2   force =    -0.00000391   -0.00685225    0.00000000
     atom   27 type  1   force =    -0.00000310   -0.05861276    0.00000310
     atom   28 type  2   force =     0.00000000   -0.00685294    0.00000558
     atom   29 type  1   force =     0.00000000   -0.05877522    0.00000000
     atom   30 type  2   force =    -0.00000558   -0.00685294    0.00000000
     atom   31 type  1   force =    -0.00000310   -0.05861276   -0.00000310
     atom   32 type  2   force =     0.00000000   -0.00685294   -0.00000558

     Total force =     0.236115     Total SCF correction =     0.001376


     Computing stress (Cartesian axis) and pressure


     negative rho (up, down):  0.000E+00 6.775E-05
          total   stress  (Ry/bohr**3)                   (kbar)     P=      -10.61
   0.00006713   0.00000000   0.00000000            9.88        0.00        0.00
   0.00000000  -0.00035069   0.00000000            0.00      -51.59        0.00
   0.00000000   0.00000000   0.00006713            0.00        0.00        9.88

     Energy error            =      6.1E-02
     Gradient error          =      5.9E-02

     number of scf cycles    =   2
     number of bfgs steps    =   1

     energy   old            =  -10535.4151864074 Ry
     energy   new            =  -10535.4763013160 Ry

     CASE: energy  _new < energy  _old


     WARNING: bfgs curvature condition failed, Theta= 0.853
     new trust radius        =       0.0690902996 bohr
     new conv_thr            =       0.0000000588 Ry


ATOMIC_POSITIONS (crystal)
Fe1           0.0000000000        0.0006617853        0.0000000000
Fe2           0.2500009657        0.2168245850        0.0000000000
Fe1           0.2499995879        0.0006481800        0.2499995879
Fe2           0.0000000000        0.2168245850        0.2500009657
Fe1           0.0000000000        0.0006617821        0.5000000000
Fe2           0.2500000812        0.2168249555        0.5000000000
Fe1           0.2499995879        0.0006481800        0.7500004121
Fe2           0.0000000000        0.2168245850        0.7499990343
Fe1           0.0000000000        0.5748568665        0.0000000000
Fe2           0.2499998138        0.7910006323        0.0000000000
Fe1           0.2499982184        0.5748481685        0.2499982184
Fe2           0.0000000000        0.7910006323        0.2499998138
Fe1           0.0000000000        0.5748552253        0.5000000000
Fe2           0.2499992666        0.7910014971        0.5000000000
Fe1           0.2499982184        0.5748481685        0.7500017816
Fe2           0.0000000000        0.7910006323        0.7500001862
Fe1           0.5000000000        0.0006617821        0.0000000000
Fe2           0.7499990343        0.2168245850        0.0000000000
Fe1           0.7500004121        0.0006481800        0.2499995879
Fe2           0.5000000000        0.2168249555        0.2500000812
Fe1           0.5000000000        0.0006649193        0.5000000000
Fe2           0.7499999188        0.2168249555        0.5000000000
Fe1           0.7500004121        0.0006481800        0.7500004121
Fe2           0.5000000000        0.2168249555        0.7499999188
Fe1           0.5000000000        0.5748552253        0.0000000000
Fe2           0.7500001862        0.7910006323        0.0000000000
Fe1           0.7500017816        0.5748481685        0.2499982184
Fe2           0.5000000000        0.7910014971        0.2499992666
Fe1           0.5000000000        0.5748570072        0.5000000000
Fe2           0.7500007334        0.7910014971        0.5000000000
Fe1           0.7500017816        0.5748481685        0.7500017816
Fe2           0.5000000000        0.7910014971        0.7500007334



     Writing output data file /scratch/xVpfBVzRFFGdvxVn.save/
     NEW-OLD atomic charge density approx. for the potential

     Check: negative core charge=   -0.000005

     negative rho (up, down):  0.000E+00 1.008E-03
     Generating pointlists ...

     total cpu time spent up to now is     5979.5 secs

     Self-consistent Calculation

     iteration #  1     ecut=    71.00 Ry     beta= 0.10
     Davidson diagonalization with overlap
     ethr =  1.00E-06,  avg # of iterations =  9.0

     negative rho (up, down):  0.000E+00 9.783E-04

     total cpu time spent up to now is     6341.7 secs

     total energy              =  -10535.48091467 Ry
     estimated scf accuracy    <       0.17545088 Ry

     total magnetization       =     0.00 Bohr mag/cell
     absolute magnetization    =    55.88 Bohr mag/cell

     iteration #  2     ecut=    71.00 Ry     beta= 0.10
     Davidson diagonalization with overlap
     ethr =  3.43E-05,  avg # of iterations =  1.0

     negative rho (up, down):  0.000E+00 9.173E-04

     total cpu time spent up to now is     6442.1 secs

     total energy              =  -10535.49304207 Ry
     estimated scf accuracy    <       0.04848489 Ry

     total magnetization       =     0.00 Bohr mag/cell
     absolute magnetization    =    56.03 Bohr mag/cell

     iteration #  3     ecut=    71.00 Ry     beta= 0.10
     Davidson diagonalization with overlap
     ethr =  9.47E-06,  avg # of iterations =  1.9

     negative rho (up, down):  0.000E+00 7.789E-04

     total cpu time spent up to now is     6554.1 secs

     total energy              =  -10535.51737450 Ry
     estimated scf accuracy    <       0.01200682 Ry

     total magnetization       =     0.00 Bohr mag/cell
     absolute magnetization    =    56.16 Bohr mag/cell

     iteration #  4     ecut=    71.00 Ry     beta= 0.10
     Davidson diagonalization with overlap
     ethr =  2.35E-06,  avg # of iterations =  2.2

     negative rho (up, down):  0.000E+00 7.213E-04

     total cpu time spent up to now is     6691.7 secs

     total energy              =  -10535.53073335 Ry
     estimated scf accuracy    <       0.00487450 Ry

     total magnetization       =     0.00 Bohr mag/cell
     absolute magnetization    =    56.32 Bohr mag/cell

     iteration #  5     ecut=    71.00 Ry     beta= 0.10
     Davidson diagonalization with overlap
     ethr =  9.52E-07,  avg # of iterations =  2.0

     negative rho (up, down):  0.000E+00 5.974E-04

     total cpu time spent up to now is     6817.5 secs

     total energy              =  -10535.53707940 Ry
     estimated scf accuracy    <       0.00427237 Ry

     total magnetization       =     0.00 Bohr mag/cell
     absolute magnetization    =    56.46 Bohr mag/cell

     iteration #  6     ecut=    71.00 Ry     beta= 0.10
     Davidson diagonalization with overlap
     ethr =  8.34E-07,  avg # of iterations =  2.2

     negative rho (up, down):  0.000E+00 5.855E-04

     total cpu time spent up to now is     6956.0 secs

     total energy              =  -10535.53893443 Ry
     estimated scf accuracy    <       0.00020345 Ry

     total magnetization       =     0.00 Bohr mag/cell
     absolute magnetization    =    56.72 Bohr mag/cell

     iteration #  7     ecut=    71.00 Ry     beta= 0.10
     Davidson diagonalization with overlap
     ethr =  3.97E-08,  avg # of iterations =  2.7

     negative rho (up, down):  0.000E+00 6.122E-04

     total cpu time spent up to now is     7092.4 secs

     total energy              =  -10535.53930361 Ry
     estimated scf accuracy    <       0.00011943 Ry

     total magnetization       =     0.00 Bohr mag/cell
     absolute magnetization    =    56.79 Bohr mag/cell

     iteration #  8     ecut=    71.00 Ry     beta= 0.10
     Davidson diagonalization with overlap
     ethr =  2.33E-08,  avg # of iterations =  2.0

     negative rho (up, down):  0.000E+00 6.041E-04

     total cpu time spent up to now is     7232.1 secs

     total energy              =  -10535.53940681 Ry
     estimated scf accuracy    <       0.00004218 Ry

     total magnetization       =     0.00 Bohr mag/cell
     absolute magnetization    =    56.82 Bohr mag/cell

     iteration #  9     ecut=    71.00 Ry     beta= 0.10
     Davidson diagonalization with overlap
     ethr =  8.24E-09,  avg # of iterations =  2.0

     negative rho (up, down):  0.000E+00 6.074E-04

     total cpu time spent up to now is     7362.3 secs

     total energy              =  -10535.53945437 Ry
     estimated scf accuracy    <       0.00003050 Ry

     total magnetization       =     0.00 Bohr mag/cell
     absolute magnetization    =    56.86 Bohr mag/cell

     iteration # 10     ecut=    71.00 Ry     beta= 0.10
     Davidson diagonalization with overlap
     ethr =  5.96E-09,  avg # of iterations =  2.5

     negative rho (up, down):  0.000E+00 6.070E-04

     total cpu time spent up to now is     7492.8 secs

     total energy              =  -10535.53947640 Ry
     estimated scf accuracy    <       0.00001809 Ry

     total magnetization       =     0.00 Bohr mag/cell
     absolute magnetization    =    56.95 Bohr mag/cell

     iteration # 11     ecut=    71.00 Ry     beta= 0.10
     Davidson diagonalization with overlap
     ethr =  3.53E-09,  avg # of iterations =  2.0

     negative rho (up, down):  0.000E+00 6.104E-04

     total cpu time spent up to now is     7606.8 secs

     total energy              =  -10535.53949157 Ry
     estimated scf accuracy    <       0.00002113 Ry

     total magnetization       =     0.00 Bohr mag/cell
     absolute magnetization    =    56.97 Bohr mag/cell

     iteration # 12     ecut=    71.00 Ry     beta= 0.10
     Davidson diagonalization with overlap
     ethr =  3.53E-09,  avg # of iterations =  3.0

     negative rho (up, down):  0.000E+00 6.184E-04

     total cpu time spent up to now is     7738.2 secs

     total energy              =  -10535.53950030 Ry
     estimated scf accuracy    <       0.00001718 Ry

     total magnetization       =     0.00 Bohr mag/cell
     absolute magnetization    =    57.05 Bohr mag/cell

     iteration # 13     ecut=    71.00 Ry     beta= 0.10
     Davidson diagonalization with overlap
     ethr =  3.35E-09,  avg # of iterations =  2.0

     negative rho (up, down):  0.000E+00 6.165E-04

     total cpu time spent up to now is     7869.3 secs

     total energy              =  -10535.53951961 Ry
     estimated scf accuracy    <       0.00000549 Ry

     total magnetization       =     0.00 Bohr mag/cell
     absolute magnetization    =    57.10 Bohr mag/cell

     iteration # 14     ecut=    71.00 Ry     beta= 0.10
     Davidson diagonalization with overlap
     ethr =  1.07E-09,  avg # of iterations =  2.8

     negative rho (up, down):  0.000E+00 6.153E-04

     total cpu time spent up to now is     8003.8 secs

     total energy              =  -10535.53952595 Ry
     estimated scf accuracy    <       0.00000172 Ry

     total magnetization       =     0.00 Bohr mag/cell
     absolute magnetization    =    57.13 Bohr mag/cell

     iteration # 15     ecut=    71.00 Ry     beta= 0.10
     Davidson diagonalization with overlap
     ethr =  3.36E-10,  avg # of iterations =  2.0

     negative rho (up, down):  0.000E+00 6.144E-04

     total cpu time spent up to now is     8126.6 secs

     total energy              =  -10535.53952842 Ry
     estimated scf accuracy    <       0.00000099 Ry

     total magnetization       =     0.00 Bohr mag/cell
     absolute magnetization    =    57.12 Bohr mag/cell

     iteration # 16     ecut=    71.00 Ry     beta= 0.10
     Davidson diagonalization with overlap
     ethr =  1.93E-10,  avg # of iterations =  3.0

     negative rho (up, down):  0.000E+00 6.139E-04

     total cpu time spent up to now is     8264.9 secs

     total energy              =  -10535.53953149 Ry
     estimated scf accuracy    <       0.00000020 Ry

     total magnetization       =     0.00 Bohr mag/cell
     absolute magnetization    =    57.14 Bohr mag/cell

     iteration # 17     ecut=    71.00 Ry     beta= 0.10
     Davidson diagonalization with overlap
     ethr =  3.83E-11,  avg # of iterations =  2.8

     negative rho (up, down):  0.000E+00 6.141E-04

     total cpu time spent up to now is     8399.3 secs

     total energy              =  -10535.53953324 Ry
     estimated scf accuracy    <       0.00000012 Ry

     total magnetization       =     0.00 Bohr mag/cell
     absolute magnetization    =    57.13 Bohr mag/cell

     iteration # 18     ecut=    71.00 Ry     beta= 0.10
     Davidson diagonalization with overlap
     ethr =  2.26E-11,  avg # of iterations =  3.8

     negative rho (up, down):  0.000E+00 6.138E-04

     total cpu time spent up to now is     8547.4 secs

     total energy              =  -10535.53953508 Ry
     estimated scf accuracy    <       0.00000007 Ry

     total magnetization       =     0.00 Bohr mag/cell
     absolute magnetization    =    57.14 Bohr mag/cell

     iteration # 19     ecut=    71.00 Ry     beta= 0.10
     Davidson diagonalization with overlap
     ethr =  1.37E-11,  avg # of iterations =  2.0

     negative rho (up, down):  0.000E+00 6.150E-04
 
     Magnetic moment per site:
     atom:    1    charge:   14.4386    magn:    1.1715    constr:    0.0000
     atom:    2    charge:   14.2717    magn:   -2.2347    constr:    0.0000
     atom:    3    charge:   14.4376    magn:    1.1941    constr:    0.0000
     atom:    4    charge:   14.2717    magn:   -2.2347    constr:    0.0000
     atom:    5    charge:   14.4386    magn:    1.1714    constr:    0.0000
     atom:    6    charge:   14.2717    magn:   -2.2347    constr:    0.0000
     atom:    7    charge:   14.4376    magn:    1.1941    constr:    0.0000
     atom:    8    charge:   14.2717    magn:   -2.2347    constr:    0.0000
     atom:    9    charge:   14.2721    magn:    2.2339    constr:    0.0000
     atom:   10    charge:   14.4380    magn:   -1.1823    constr:    0.0000
     atom:   11    charge:   14.2715    magn:    2.2349    constr:    0.0000
     atom:   12    charge:   14.4380    magn:   -1.1823    constr:    0.0000
     atom:   13    charge:   14.2721    magn:    2.2340    constr:    0.0000
     atom:   14    charge:   14.4380    magn:   -1.1824    constr:    0.0000
     atom:   15    charge:   14.2715    magn:    2.2349    constr:    0.0000
     atom:   16    charge:   14.4380    magn:   -1.1823    constr:    0.0000
     atom:   17    charge:   14.4386    magn:    1.1714    constr:    0.0000
     atom:   18    charge:   14.2717    magn:   -2.2347    constr:    0.0000
     atom:   19    charge:   14.4376    magn:    1.1941    constr:    0.0000
     atom:   20    charge:   14.2717    magn:   -2.2347    constr:    0.0000
     atom:   21    charge:   14.4386    magn:    1.1714    constr:    0.0000
     atom:   22    charge:   14.2717    magn:   -2.2347    constr:    0.0000
     atom:   23    charge:   14.4376    magn:    1.1941    constr:    0.0000
     atom:   24    charge:   14.2717    magn:   -2.2347    constr:    0.0000
     atom:   25    charge:   14.2721    magn:    2.2340    constr:    0.0000
     atom:   26    charge:   14.4380    magn:   -1.1823    constr:    0.0000
     atom:   27    charge:   14.2715    magn:    2.2349    constr:    0.0000
     atom:   28    charge:   14.4380    magn:   -1.1824    constr:    0.0000
     atom:   29    charge:   14.2720    magn:    2.2340    constr:    0.0000
     atom:   30    charge:   14.4380    magn:   -1.1824    constr:    0.0000
     atom:   31    charge:   14.2715    magn:    2.2349    constr:    0.0000
     atom:   32    charge:   14.4380    magn:   -1.1824    constr:    0.0000

     total cpu time spent up to now is     8667.7 secs

     End of self-consistent calculation

     Number of k-points >= 100: set verbosity='high' to print the bands.

     the Fermi energy is    17.2675 ev

!    total energy              =  -10535.53954132 Ry

     total all-electron energy =    -81457.028599 Ry
     estimated scf accuracy    <       0.00000002 Ry
     smearing contrib. (-TS)   =       0.01963535 Ry
     internal energy E=F+TS    =  -10535.55917667 Ry

     The total energy is F=E-TS. E is the sum of the following terms:
     one-electron contribution =   -4622.11710373 Ry
     hartree contribution      =    2609.18267155 Ry
     xc contribution           =    -886.72886048 Ry
     ewald contribution        =   -4986.47891916 Ry
     one-center paw contrib.   =   -2649.41696484 Ry

     total magnetization       =     0.00 Bohr mag/cell
     absolute magnetization    =    57.13 Bohr mag/cell

     convergence has been achieved in  19 iterations

     negative rho (up, down):  0.000E+00 6.150E-04

     Forces acting on atoms (cartesian axes, Ry/au):

     atom    1 type  1   force =     0.00000000    0.00994157    0.00000000
     atom    2 type  2   force =    -0.00000253    0.05446196    0.00000000
     atom    3 type  1   force =     0.00000063    0.00991815    0.00000063
     atom    4 type  2   force =     0.00000000    0.05446196   -0.00000253
     atom    5 type  1   force =     0.00000000    0.00994163    0.00000000
     atom    6 type  2   force =    -0.00000171    0.05446121    0.00000000
     atom    7 type  1   force =     0.00000063    0.00991815   -0.00000063
     atom    8 type  2   force =     0.00000000    0.05446196    0.00000253
     atom    9 type  1   force =     0.00000000   -0.05424462    0.00000000
     atom   10 type  2   force =     0.00000144   -0.01009323    0.00000000
     atom   11 type  1   force =     0.00000452   -0.05434638    0.00000452
     atom   12 type  2   force =     0.00000000   -0.01009323    0.00000144
     atom   13 type  1   force =     0.00000000   -0.05424248    0.00000000
     atom   14 type  2   force =     0.00000318   -0.01009689    0.00000000
     atom   15 type  1   force =     0.00000452   -0.05434638   -0.00000452
     atom   16 type  2   force =    -0.00000000   -0.01009323   -0.00000144
     atom   17 type  1   force =     0.00000000    0.00994163    0.00000000
     atom   18 type  2   force =     0.00000253    0.05446196    0.00000000
     atom   19 type  1   force =    -0.00000063    0.00991815    0.00000063
     atom   20 type  2   force =     0.00000000    0.05446121   -0.00000171
     atom   21 type  1   force =     0.00000000    0.00993062    0.00000000
     atom   22 type  2   force =     0.00000171    0.05446121    0.00000000
     atom   23 type  1   force =    -0.00000063    0.00991815   -0.00000063
     atom   24 type  2   force =    -0.00000000    0.05446121    0.00000171
     atom   25 type  1   force =     0.00000000   -0.05424248    0.00000000
     atom   26 type  2   force =    -0.00000144   -0.01009323    0.00000000
     atom   27 type  1   force =    -0.00000452   -0.05434638    0.00000452
     atom   28 type  2   force =     0.00000000   -0.01009689    0.00000318
     atom   29 type  1   force =     0.00000000   -0.05424519    0.00000000
     atom   30 type  2   force =    -0.00000318   -0.01009689    0.00000000
     atom   31 type  1   force =    -0.00000452   -0.05434638   -0.00000452
     atom   32 type  2   force =     0.00000000   -0.01009689   -0.00000318

     Total force =     0.221170     Total SCF correction =     0.000808


     Computing stress (Cartesian axis) and pressure


     negative rho (up, down):  0.000E+00 6.150E-04
          total   stress  (Ry/bohr**3)                   (kbar)     P=      -28.66
  -0.00002225   0.00000000   0.00000000           -3.27        0.00        0.00
   0.00000000  -0.00053999   0.00000000            0.00      -79.44        0.00
   0.00000000   0.00000000  -0.00002225            0.00        0.00       -3.27

     Energy error            =      6.3E-02
     Gradient error          =      5.4E-02

     number of scf cycles    =   3
     number of bfgs steps    =   2

     energy   old            =  -10535.4763013160 Ry
     energy   new            =  -10535.5395413176 Ry

     CASE: energy  _new < energy  _old

     new trust radius        =       0.1036354494 bohr
     new conv_thr            =       0.0000000545 Ry


ATOMIC_POSITIONS (crystal)
Fe1           0.0000000000        0.0016361988        0.0000000000
Fe2           0.2500011462        0.2234994571        0.0000000000
Fe1           0.2499995298        0.0016178930        0.2499995298
Fe2           0.0000000000        0.2234994571        0.2500011462
Fe1           0.0000000000        0.0016360472        0.5000000000
Fe2           0.2499999229        0.2234999908        0.5000000000
Fe1           0.2499995298        0.0016178930        0.7500004702
Fe2           0.0000000000        0.2234994571        0.7499988538
Fe1           0.0000000000        0.5682202046        0.0000000000
Fe2           0.2499996907        0.7900009173        0.0000000000
Fe1           0.2499977731        0.5681903343        0.2499977731
Fe2           0.0000000000        0.7900009173        0.2499996907
Fe1           0.0000000000        0.5682180269        0.5000000000
Fe2           0.2499990102        0.7900018473        0.5000000000
Fe1           0.2499977731        0.5681903343        0.7500022269
Fe2          -0.0000000000        0.7900009173        0.7500003093
Fe1           0.5000000000        0.0016360472        0.0000000000
Fe2           0.7499988538        0.2234994571        0.0000000000
Fe1           0.7500004702        0.0016178930        0.2499995298
Fe2           0.5000000000        0.2234999908        0.2499999229
Fe1           0.5000000000        0.0016398377        0.5000000000
Fe2           0.7500000771        0.2234999908        0.5000000000
Fe1           0.7500004702        0.0016178930        0.7500004702
Fe2           0.5000000000        0.2234999908        0.7500000771
Fe1           0.5000000000        0.5682180269        0.0000000000
Fe2           0.7500003093        0.7900009173        0.0000000000
Fe1           0.7500022269        0.5681903343        0.2499977731
Fe2           0.5000000000        0.7900018473        0.2499990102
Fe1           0.5000000000        0.5682205185        0.5000000000
Fe2           0.7500009898        0.7900018473        0.5000000000
Fe1           0.7500022269        0.5681903343        0.7500022269
Fe2           0.5000000000        0.7900018473        0.7500009898



     Writing output data file /scratch/xVpfBVzRFFGdvxVn.save/
     NEW-OLD atomic charge density approx. for the potential

     Check: negative core charge=   -0.000005

     negative rho (up, down):  1.558E-04 6.738E-04
     Generating pointlists ...

     total cpu time spent up to now is     8811.2 secs

     Self-consistent Calculation

     iteration #  1     ecut=    71.00 Ry     beta= 0.10
     Davidson diagonalization with overlap
     ethr =  1.00E-06,  avg # of iterations =  9.5

     negative rho (up, down):  0.000E+00 7.062E-04

     total cpu time spent up to now is     9204.7 secs

     total energy              =  -10535.46438470 Ry
     estimated scf accuracy    <       0.43587794 Ry

     total magnetization       =     0.01 Bohr mag/cell
     absolute magnetization    =    58.25 Bohr mag/cell

     iteration #  2     ecut=    71.00 Ry     beta= 0.10
     Davidson diagonalization with overlap
     ethr =  8.51E-05,  avg # of iterations =  1.0

     negative rho (up, down):  0.000E+00 7.213E-04

     total cpu time spent up to now is     9305.0 secs

     total energy              =  -10535.50397956 Ry
     estimated scf accuracy    <       0.11772423 Ry

     total magnetization       =     0.00 Bohr mag/cell
     absolute magnetization    =    58.49 Bohr mag/cell

     iteration #  3     ecut=    71.00 Ry     beta= 0.10
     Davidson diagonalization with overlap
     ethr =  2.30E-05,  avg # of iterations =  1.6

     negative rho (up, down):  0.000E+00 7.465E-04

     total cpu time spent up to now is     9413.0 secs

     total energy              =  -10535.58003533 Ry
     estimated scf accuracy    <       0.02696218 Ry

     total magnetization       =     0.00 Bohr mag/cell
     absolute magnetization    =    58.68 Bohr mag/cell

     iteration #  4     ecut=    71.00 Ry     beta= 0.10
     Davidson diagonalization with overlap
     ethr =  5.27E-06,  avg # of iterations =  2.0

     negative rho (up, down):  0.000E+00 6.809E-04

     total cpu time spent up to now is     9555.0 secs

     total energy              =  -10535.60717272 Ry
     estimated scf accuracy    <       0.01056828 Ry

     total magnetization       =     0.00 Bohr mag/cell
     absolute magnetization    =    58.89 Bohr mag/cell

     iteration #  5     ecut=    71.00 Ry     beta= 0.10
     Davidson diagonalization with overlap
     ethr =  2.06E-06,  avg # of iterations =  2.0

     negative rho (up, down):  0.000E+00 4.520E-04

     total cpu time spent up to now is     9674.8 secs

     total energy              =  -10535.62287931 Ry
     estimated scf accuracy    <       0.00877340 Ry

     total magnetization       =     0.00 Bohr mag/cell
     absolute magnetization    =    59.06 Bohr mag/cell

     iteration #  6     ecut=    71.00 Ry     beta= 0.10
     Davidson diagonalization with overlap
     ethr =  1.71E-06,  avg # of iterations =  3.1

     negative rho (up, down):  0.000E+00 4.295E-04

     total cpu time spent up to now is     9818.1 secs

     total energy              =  -10535.62628894 Ry
     estimated scf accuracy    <       0.00030343 Ry

     total magnetization       =     0.00 Bohr mag/cell
     absolute magnetization    =    59.42 Bohr mag/cell

     iteration #  7     ecut=    71.00 Ry     beta= 0.10
     Davidson diagonalization with overlap
     ethr =  5.93E-08,  avg # of iterations =  3.4

     negative rho (up, down):  0.000E+00 4.622E-04

     total cpu time spent up to now is     9960.4 secs

     total energy              =  -10535.62718703 Ry
     estimated scf accuracy    <       0.00020146 Ry

     total magnetization       =     0.00 Bohr mag/cell
     absolute magnetization    =    59.50 Bohr mag/cell

     iteration #  8     ecut=    71.00 Ry     beta= 0.10
     Davidson diagonalization with overlap
     ethr =  3.93E-08,  avg # of iterations =  2.0

     negative rho (up, down):  0.000E+00 4.581E-04

     total cpu time spent up to now is    10100.2 secs

     total energy              =  -10535.62726032 Ry
     estimated scf accuracy    <       0.00009009 Ry

     total magnetization       =     0.00 Bohr mag/cell
     absolute magnetization    =    59.53 Bohr mag/cell

     iteration #  9     ecut=    71.00 Ry     beta= 0.10
     Davidson diagonalization with overlap
     ethr =  1.76E-08,  avg # of iterations =  2.1

     negative rho (up, down):  0.000E+00 4.676E-04

     total cpu time spent up to now is    10231.9 secs

     total energy              =  -10535.62742150 Ry
     estimated scf accuracy    <       0.00012019 Ry

     total magnetization       =     0.00 Bohr mag/cell
     absolute magnetization    =    59.65 Bohr mag/cell

     iteration # 10     ecut=    71.00 Ry     beta= 0.10
     Davidson diagonalization with overlap
     ethr =  1.76E-08,  avg # of iterations =  2.0

     negative rho (up, down):  0.000E+00 4.773E-04

     total cpu time spent up to now is    10357.7 secs

     total energy              =  -10535.62747095 Ry
     estimated scf accuracy    <       0.00003165 Ry

     total magnetization       =     0.00 Bohr mag/cell
     absolute magnetization    =    59.69 Bohr mag/cell

     iteration # 11     ecut=    71.00 Ry     beta= 0.10
     Davidson diagonalization with overlap
     ethr =  6.18E-09,  avg # of iterations =  2.0

     negative rho (up, down):  0.000E+00 4.823E-04

     total cpu time spent up to now is    10487.2 secs

     total energy              =  -10535.62748507 Ry
     estimated scf accuracy    <       0.00005531 Ry

     total magnetization       =     0.00 Bohr mag/cell
     absolute magnetization    =    59.73 Bohr mag/cell

     iteration # 12     ecut=    71.00 Ry     beta= 0.10
     Davidson diagonalization with overlap
     ethr =  6.18E-09,  avg # of iterations =  2.3

     negative rho (up, down):  0.000E+00 4.855E-04

     total cpu time spent up to now is    10617.3 secs

     total energy              =  -10535.62751545 Ry
     estimated scf accuracy    <       0.00002429 Ry

     total magnetization       =     0.00 Bohr mag/cell
     absolute magnetization    =    59.80 Bohr mag/cell

     iteration # 13     ecut=    71.00 Ry     beta= 0.10
     Davidson diagonalization with overlap
     ethr =  4.74E-09,  avg # of iterations =  3.1

     negative rho (up, down):  0.000E+00 4.842E-04

     total cpu time spent up to now is    10749.6 secs

     total energy              =  -10535.62754303 Ry
     estimated scf accuracy    <       0.00001594 Ry

     total magnetization       =     0.00 Bohr mag/cell
     absolute magnetization    =    59.89 Bohr mag/cell

     iteration # 14     ecut=    71.00 Ry     beta= 0.10
     Davidson diagonalization with overlap
     ethr =  3.11E-09,  avg # of iterations =  2.0

     negative rho (up, down):  0.000E+00 4.813E-04

     total cpu time spent up to now is    10865.9 secs

     total energy              =  -10535.62755759 Ry
     estimated scf accuracy    <       0.00000677 Ry

     total magnetization       =     0.00 Bohr mag/cell
     absolute magnetization    =    59.92 Bohr mag/cell

     iteration # 15     ecut=    71.00 Ry     beta= 0.10
     Davidson diagonalization with overlap
     ethr =  1.32E-09,  avg # of iterations =  2.0

     negative rho (up, down):  0.000E+00 4.804E-04

     total cpu time spent up to now is    10998.3 secs

     total energy              =  -10535.62756339 Ry
     estimated scf accuracy    <       0.00000349 Ry

     total magnetization       =     0.01 Bohr mag/cell
     absolute magnetization    =    59.93 Bohr mag/cell

     iteration # 16     ecut=    71.00 Ry     beta= 0.10
     Davidson diagonalization with overlap
     ethr =  6.82E-10,  avg # of iterations =  2.5

     negative rho (up, down):  0.000E+00 4.814E-04

     total cpu time spent up to now is    11130.6 secs

     total energy              =  -10535.62757111 Ry
     estimated scf accuracy    <       0.00000352 Ry

     total magnetization       =     0.01 Bohr mag/cell
     absolute magnetization    =    59.94 Bohr mag/cell

[...]
     Davidson diagonalization with overlap
     ethr =  1.00E-02,  avg # of iterations =  1.0

     negative rho (up, down):  3.950E+02 3.961E+02

     total cpu time spent up to now is    27240.0 secs

     total energy              =  -11040.14403210 Ry
     estimated scf accuracy    <      73.55153283 Ry

     total magnetization       =    -7.35 Bohr mag/cell
     absolute magnetization    =     9.30 Bohr mag/cell

     iteration # 66     ecut=    71.00 Ry     beta= 0.10
     Davidson diagonalization with overlap
     ethr =  1.00E-02,  avg # of iterations =  1.5

     negative rho (up, down):  3.968E+02 3.980E+02

     total cpu time spent up to now is    27346.1 secs

     total energy              =  -11037.45520535 Ry
     estimated scf accuracy    <      73.97422671 Ry

     total magnetization       =     0.81 Bohr mag/cell
     absolute magnetization    =     7.40 Bohr mag/cell

     iteration # 67     ecut=    71.00 Ry     beta= 0.10
     Davidson diagonalization with overlap
     ethr =  1.00E-02,  avg # of iterations =  1.5

     negative rho (up, down):  3.961E+02 3.973E+02

     total cpu time spent up to now is    27451.8 secs

     total energy              =  -11039.38604415 Ry
     estimated scf accuracy    <      78.28746059 Ry

     total magnetization       =     4.27 Bohr mag/cell
     absolute magnetization    =    12.09 Bohr mag/cell

     iteration # 68     ecut=    71.00 Ry     beta= 0.10
     Davidson diagonalization with overlap
     ethr =  1.00E-02,  avg # of iterations =  1.0

     negative rho (up, down):  3.952E+02 3.963E+02

     total cpu time spent up to now is    27551.8 secs

     total energy              =  -11041.47896773 Ry
     estimated scf accuracy    <      79.84536837 Ry

     total magnetization       =    10.73 Bohr mag/cell
     absolute magnetization    =    19.96 Bohr mag/cell

     iteration # 69     ecut=    71.00 Ry     beta= 0.10
     Davidson diagonalization with overlap
     ethr =  1.00E-02,  avg # of iterations =  2.0

     negative rho (up, down):  3.991E+02 4.008E+02

     total cpu time spent up to now is    27664.6 secs

     total energy              =  -11024.54019826 Ry
     estimated scf accuracy    <      76.16862009 Ry

     total magnetization       =     4.20 Bohr mag/cell
     absolute magnetization    =    15.12 Bohr mag/cell

     iteration # 70     ecut=    71.00 Ry     beta= 0.10
     Davidson diagonalization with overlap
     ethr =  1.00E-02,  avg # of iterations =  3.0

     negative rho (up, down):  3.990E+02 4.005E+02

     total cpu time spent up to now is    27784.4 secs

     total energy              =  -11029.52048660 Ry
     estimated scf accuracy    <     132.22142159 Ry

     total magnetization       =    11.66 Bohr mag/cell
     absolute magnetization    =    23.14 Bohr mag/cell

     iteration # 71     ecut=    71.00 Ry     beta= 0.10
     Davidson diagonalization with overlap
     ethr =  1.00E-02,  avg # of iterations =  2.0

     negative rho (up, down):  3.970E+02 3.982E+02

     total cpu time spent up to now is    27896.2 secs

     total energy              =  -11030.92222302 Ry
     estimated scf accuracy    <     130.38591112 Ry

     total magnetization       =    14.17 Bohr mag/cell
     absolute magnetization    =    24.13 Bohr mag/cell

     iteration # 72     ecut=    71.00 Ry     beta= 0.10
     Davidson diagonalization with overlap
     ethr =  1.00E-02,  avg # of iterations =  3.8

     negative rho (up, down):  3.977E+02 3.989E+02

     total cpu time spent up to now is    28020.3 secs

     total energy              =  -11033.49591653 Ry
     estimated scf accuracy    <      76.51599725 Ry

     total magnetization       =     1.24 Bohr mag/cell
     absolute magnetization    =    13.00 Bohr mag/cell

     iteration # 73     ecut=    71.00 Ry     beta= 0.10
     Davidson diagonalization with overlap
     ethr =  1.00E-02,  avg # of iterations =  1.0

     negative rho (up, down):  3.982E+02 3.996E+02

     total cpu time spent up to now is    28119.3 secs

     total energy              =  -11030.71171136 Ry
     estimated scf accuracy    <      78.06500312 Ry

     total magnetization       =    12.92 Bohr mag/cell
     absolute magnetization    =    23.35 Bohr mag/cell

     iteration # 74     ecut=    71.00 Ry     beta= 0.10
     Davidson diagonalization with overlap
     ethr =  1.00E-02,  avg # of iterations =  1.0

     negative rho (up, down):  3.978E+02 3.994E+02

     total cpu time spent up to now is    28219.3 secs

     total energy              =  -11026.63592284 Ry
     estimated scf accuracy    <      80.38479979 Ry

     total magnetization       =    13.07 Bohr mag/cell
     absolute magnetization    =    22.87 Bohr mag/cell

     iteration # 75     ecut=    71.00 Ry     beta= 0.10
     Davidson diagonalization with overlap
     ethr =  1.00E-02,  avg # of iterations =  1.0

     negative rho (up, down):  3.979E+02 3.990E+02

     total cpu time spent up to now is    28318.5 secs

     total energy              =  -11032.97331847 Ry
     estimated scf accuracy    <     101.33703969 Ry

     total magnetization       =    14.84 Bohr mag/cell
     absolute magnetization    =    26.13 Bohr mag/cell

     iteration # 76     ecut=    71.00 Ry     beta= 0.10
     Davidson diagonalization with overlap
     ethr =  1.00E-02,  avg # of iterations =  2.0

     negative rho (up, down):  3.983E+02 3.992E+02

     total cpu time spent up to now is    28432.5 secs

     total energy              =  -11035.02432216 Ry
     estimated scf accuracy    <      83.16279193 Ry

     total magnetization       =     2.88 Bohr mag/cell
     absolute magnetization    =    17.49 Bohr mag/cell

     iteration # 77     ecut=    71.00 Ry     beta= 0.10
     Davidson diagonalization with overlap
     ethr =  1.00E-02,  avg # of iterations =  2.0

     negative rho (up, down):  4.012E+02 4.020E+02

     total cpu time spent up to now is    28545.8 secs

     total energy              =  -11033.18728530 Ry
     estimated scf accuracy    <      80.57984402 Ry

     total magnetization       =    -9.70 Bohr mag/cell
     absolute magnetization    =    18.68 Bohr mag/cell

     iteration # 78     ecut=    71.00 Ry     beta= 0.10
     Davidson diagonalization with overlap
     ethr =  1.00E-02,  avg # of iterations =  1.0

     negative rho (up, down):  3.998E+02 4.004E+02

     total cpu time spent up to now is    28645.1 secs

     total energy              =  -11037.91629296 Ry
     estimated scf accuracy    <      85.60661018 Ry

     total magnetization       =    -3.58 Bohr mag/cell
     absolute magnetization    =    10.36 Bohr mag/cell

     iteration # 79     ecut=    71.00 Ry     beta= 0.10
     Davidson diagonalization with overlap
     ethr =  1.00E-02,  avg # of iterations =  2.0

     negative rho (up, down):  3.994E+02 3.996E+02

     total cpu time spent up to now is    28758.8 secs

     total energy              =  -11038.07645927 Ry
     estimated scf accuracy    <      77.44849014 Ry

     total magnetization       =    -0.44 Bohr mag/cell
     absolute magnetization    =    10.63 Bohr mag/cell

     iteration # 80     ecut=    71.00 Ry     beta= 0.10
     Davidson diagonalization with overlap
     ethr =  1.00E-02,  avg # of iterations =  2.0

     negative rho (up, down):  3.970E+02 3.971E+02

     total cpu time spent up to now is    28874.3 secs

     total energy              =  -11040.56360618 Ry
     estimated scf accuracy    <      69.24772965 Ry

     total magnetization       =     6.63 Bohr mag/cell
     absolute magnetization    =    22.02 Bohr mag/cell

     iteration # 81     ecut=    71.00 Ry     beta= 0.10
     Davidson diagonalization with overlap
     ethr =  1.00E-02,  avg # of iterations =  2.0

     negative rho (up, down):  3.902E+02 3.905E+02

     total cpu time spent up to now is    28986.5 secs

     total energy              =  -11039.22269983 Ry
     estimated scf accuracy    <      62.00322514 Ry

     total magnetization       =     9.24 Bohr mag/cell
     absolute magnetization    =    27.55 Bohr mag/cell

     iteration # 82     ecut=    71.00 Ry     beta= 0.10
     Davidson diagonalization with overlap
     ethr =  1.00E-02,  avg # of iterations =  2.4

     negative rho (up, down):  3.904E+02 3.904E+02

     total cpu time spent up to now is    29106.3 secs

     total energy              =  -11044.99664743 Ry
     estimated scf accuracy    <      61.81138400 Ry

     total magnetization       =    21.78 Bohr mag/cell
     absolute magnetization    =    35.43 Bohr mag/cell

     iteration # 83     ecut=    71.00 Ry     beta= 0.10
     Davidson diagonalization with overlap
     ethr =  1.00E-02,  avg # of iterations =  1.6

     negative rho (up, down):  3.904E+02 3.907E+02

     total cpu time spent up to now is    29213.3 secs

     total energy              =  -11045.24528292 Ry
     estimated scf accuracy    <      71.21401491 Ry

     total magnetization       =    29.38 Bohr mag/cell
     absolute magnetization    =    40.58 Bohr mag/cell

     iteration # 84     ecut=    71.00 Ry     beta= 0.10
     Davidson diagonalization with overlap
     ethr =  1.00E-02,  avg # of iterations =  1.0

     negative rho (up, down):  3.903E+02 3.905E+02

     total cpu time spent up to now is    29312.7 secs

     total energy              =  -11044.90618818 Ry
     estimated scf accuracy    <      75.66431614 Ry

     total magnetization       =    27.05 Bohr mag/cell
     absolute magnetization    =    39.94 Bohr mag/cell

     iteration # 85     ecut=    71.00 Ry     beta= 0.10
     Davidson diagonalization with overlap
     ethr =  1.00E-02,  avg # of iterations =  1.0

     negative rho (up, down):  3.932E+02 3.937E+02

     total cpu time spent up to now is    29413.2 secs

     total energy              =  -11040.82148851 Ry
     estimated scf accuracy    <      70.15909307 Ry

     total magnetization       =    27.84 Bohr mag/cell
     absolute magnetization    =    39.97 Bohr mag/cell

     iteration # 86     ecut=    71.00 Ry     beta= 0.10
     Davidson diagonalization with overlap
     ethr =  1.00E-02,  avg # of iterations =  2.0

     negative rho (up, down):  3.882E+02 3.882E+02

     total cpu time spent up to now is    29528.7 secs

     total energy              =  -11038.39332309 Ry
     estimated scf accuracy    <     129.75243271 Ry

     total magnetization       =    24.88 Bohr mag/cell
     absolute magnetization    =    42.13 Bohr mag/cell

     iteration # 87     ecut=    71.00 Ry     beta= 0.10
     Davidson diagonalization with overlap
     ethr =  1.00E-02,  avg # of iterations =  3.0

     negative rho (up, down):  3.898E+02 3.898E+02

     total cpu time spent up to now is    29650.6 secs

     total energy              =  -11042.50308287 Ry
     estimated scf accuracy    <      34.57644053 Ry

     total magnetization       =    24.96 Bohr mag/cell
     absolute magnetization    =    37.36 Bohr mag/cell

     iteration # 88     ecut=    71.00 Ry     beta= 0.10
     Davidson diagonalization with overlap
     ethr =  6.75E-03,  avg # of iterations =  2.0

     negative rho (up, down):  3.906E+02 3.906E+02

     total cpu time spent up to now is    29763.3 secs

     total energy              =  -11044.06151108 Ry
     estimated scf accuracy    <      33.66578394 Ry

     total magnetization       =    18.78 Bohr mag/cell
     absolute magnetization    =    32.75 Bohr mag/cell

     iteration # 89     ecut=    71.00 Ry     beta= 0.10
     Davidson diagonalization with overlap
     ethr =  6.58E-03,  avg # of iterations =  1.6

     negative rho (up, down):  3.905E+02 3.905E+02

     total cpu time spent up to now is    29870.6 secs

     total energy              =  -11044.69697995 Ry
     estimated scf accuracy    <      32.59141507 Ry

     total magnetization       =    26.80 Bohr mag/cell
     absolute magnetization    =    38.18 Bohr mag/cell

     iteration # 90     ecut=    71.00 Ry     beta= 0.10
     Davidson diagonalization with overlap
     ethr =  6.37E-03,  avg # of iterations =  2.0

     negative rho (up, down):  3.907E+02 3.907E+02

     total cpu time spent up to now is    29983.2 secs

     total energy              =  -11045.85917702 Ry
     estimated scf accuracy    <      28.62467541 Ry

     total magnetization       =    25.31 Bohr mag/cell
     absolute magnetization    =    35.21 Bohr mag/cell

     iteration # 91     ecut=    71.00 Ry     beta= 0.10
     Davidson diagonalization with overlap
     ethr =  5.59E-03,  avg # of iterations =  1.0

     negative rho (up, down):  3.907E+02 3.907E+02

     total cpu time spent up to now is    30082.7 secs

     total energy              =  -11043.59476932 Ry
     estimated scf accuracy    <      30.13028124 Ry

     total magnetization       =    26.63 Bohr mag/cell
     absolute magnetization    =    37.79 Bohr mag/cell

     iteration # 92     ecut=    71.00 Ry     beta= 0.10
     Davidson diagonalization with overlap
     ethr =  5.59E-03,  avg # of iterations =  2.0

     negative rho (up, down):  3.908E+02 3.907E+02

     total cpu time spent up to now is    30198.1 secs

     total energy              =  -11043.69823263 Ry
     estimated scf accuracy    <      29.48088736 Ry

     total magnetization       =    23.33 Bohr mag/cell
     absolute magnetization    =    36.84 Bohr mag/cell

     iteration # 93     ecut=    71.00 Ry     beta= 0.10
     Davidson diagonalization with overlap
     ethr =  5.59E-03,  avg # of iterations =  1.0

     negative rho (up, down):  3.907E+02 3.907E+02

     total cpu time spent up to now is    30297.1 secs

     total energy              =  -11044.64710457 Ry
     estimated scf accuracy    <      32.81806522 Ry

     total magnetization       =    22.95 Bohr mag/cell
     absolute magnetization    =    37.92 Bohr mag/cell

     iteration # 94     ecut=    71.00 Ry     beta= 0.10
     Davidson diagonalization with overlap
     ethr =  5.59E-03,  avg # of iterations =  1.0

     negative rho (up, down):  3.907E+02 3.908E+02

     total cpu time spent up to now is    30396.3 secs

     total energy              =  -11045.32805958 Ry
     estimated scf accuracy    <      31.51119379 Ry

     total magnetization       =    27.56 Bohr mag/cell
     absolute magnetization    =    40.47 Bohr mag/cell

     iteration # 95     ecut=    71.00 Ry     beta= 0.10
     Davidson diagonalization with overlap
     ethr =  5.59E-03,  avg # of iterations =  1.0

     negative rho (up, down):  3.911E+02 3.912E+02

     total cpu time spent up to now is    30496.6 secs

     total energy              =  -11045.49806538 Ry
     estimated scf accuracy    <      36.62419106 Ry

     total magnetization       =    29.86 Bohr mag/cell
     absolute magnetization    =    43.27 Bohr mag/cell

     iteration # 96     ecut=    71.00 Ry     beta= 0.10
     Davidson diagonalization with overlap
     ethr =  5.59E-03,  avg # of iterations =  2.0

     negative rho (up, down):  3.900E+02 3.900E+02

     total cpu time spent up to now is    30609.1 secs

     total energy              =  -11045.77325868 Ry
     estimated scf accuracy    <      43.04212978 Ry

     total magnetization       =    31.46 Bohr mag/cell
     absolute magnetization    =    45.32 Bohr mag/cell

     iteration # 97     ecut=    71.00 Ry     beta= 0.10
     Davidson diagonalization with overlap
     ethr =  5.59E-03,  avg # of iterations =  2.0

     negative rho (up, down):  3.919E+02 3.920E+02

     total cpu time spent up to now is    30721.5 secs

     total energy              =  -11043.35886553 Ry
     estimated scf accuracy    <      39.08308290 Ry

     total magnetization       =    30.14 Bohr mag/cell
     absolute magnetization    =    43.56 Bohr mag/cell

     iteration # 98     ecut=    71.00 Ry     beta= 0.10
     Davidson diagonalization with overlap
     ethr =  5.59E-03,  avg # of iterations =  2.0

     negative rho (up, down):  3.924E+02 3.925E+02

     total cpu time spent up to now is    30833.7 secs

     total energy              =  -11043.05105842 Ry
     estimated scf accuracy    <      35.60750120 Ry

     total magnetization       =    25.76 Bohr mag/cell
     absolute magnetization    =    39.50 Bohr mag/cell

     iteration # 99     ecut=    71.00 Ry     beta= 0.10
     Davidson diagonalization with overlap
     ethr =  5.59E-03,  avg # of iterations =  1.0

     negative rho (up, down):  3.921E+02 3.924E+02

     total cpu time spent up to now is    30932.9 secs

     total energy              =  -11042.60839141 Ry
     estimated scf accuracy    <      37.58186245 Ry

     total magnetization       =    24.76 Bohr mag/cell
     absolute magnetization    =    39.86 Bohr mag/cell

     iteration #100     ecut=    71.00 Ry     beta= 0.10
     Davidson diagonalization with overlap
     ethr =  5.59E-03,  avg # of iterations =  2.0

     negative rho (up, down):  3.931E+02 3.937E+02

     total cpu time spent up to now is    31050.2 secs

     total energy              =  -11038.79255808 Ry
     estimated scf accuracy    <      49.69951262 Ry

     total magnetization       =    33.20 Bohr mag/cell
     absolute magnetization    =    47.06 Bohr mag/cell

     End of self-consistent calculation

     convergence NOT achieved after 100 iterations: stopping

     Writing output data file /scratch/xVpfBVzRFFGdvxVn.save/
 
     init_run     :     37.08s CPU     38.04s WALL (       1 calls)
     electrons    :  29755.87s CPU  30142.56s WALL (       7 calls)
     update_pot   :      2.13s CPU      2.21s WALL (       6 calls)
     forces       :    132.47s CPU    133.57s WALL (       6 calls)
     stress       :    695.25s CPU    700.76s WALL (       6 calls)

     Called by init_run:
     wfcinit      :     36.22s CPU     37.04s WALL (       1 calls)
     potinit      :      0.38s CPU      0.45s WALL (       1 calls)
     hinit0       :      0.22s CPU      0.23s WALL (       1 calls)

     Called by electrons:
     c_bands      :  26402.11s CPU  26733.57s WALL (     226 calls)
     sum_band     :   3284.20s CPU   3333.91s WALL (     226 calls)
     v_of_rho     :      6.75s CPU      7.10s WALL (     233 calls)
     newd         :      9.85s CPU     12.34s WALL (     233 calls)
     PAW_pot      :     40.96s CPU     43.06s WALL (     239 calls)
     mix_rho      :     13.43s CPU     13.80s WALL (     226 calls)

     Called by c_bands:
     init_us_2    :    126.22s CPU    128.00s WALL (   70650 calls)
     cegterg      :  25933.14s CPU  26219.41s WALL (   34145 calls)

     Called by *egterg:
     cdiaghg      :   3203.72s CPU   3220.78s WALL (  122792 calls)
     h_psi        :  13861.19s CPU  14073.08s WALL (  124081 calls)
     s_psi        :   1108.70s CPU   1116.23s WALL (  124081 calls)
     g_psi        :     27.83s CPU     28.21s WALL (   89786 calls)

     Called by h_psi:
     h_psi:calbec :   2057.81s CPU   2070.79s WALL (  124081 calls)
     vloc_psi     :  10680.87s CPU  10862.49s WALL (  124081 calls)
     add_vuspsi   :   1056.69s CPU   1073.47s WALL (  124081 calls)

     General routines
     calbec       :   3163.94s CPU   3184.02s WALL (  163381 calls)
     fft          :      5.93s CPU      6.25s WALL (    6057 calls)
     ffts         :      8.61s CPU      8.72s WALL (   23620 calls)
     fftw         :  12591.89s CPU  12805.47s WALL (64570912 calls)
     interpolate  :      0.69s CPU      0.76s WALL (     466 calls)
     davcio       :      0.02s CPU      0.30s WALL (     172 calls)
 
     Parallel routines
     fft_scatt_xy :    591.94s CPU    601.86s WALL (64600589 calls)
     fft_scatt_yz :  10786.34s CPU  10969.86s WALL (64600589 calls)
 
     PWSCF        :      8h30m CPU      8h37m WALL

 
   This run was terminated on:  21:29:48  15Jan2022            

=------------------------------------------------------------------------------=
   JOB DONE.
=------------------------------------------------------------------------------=
