
     Program PWSCF v.6.7MaX starts on 16Jan2022 at  0:13: 3 

     This program is part of the open-source Quantum ESPRESSO suite
     for quantum simulation of materials; please cite
         "P. Giannozzi et al., J. Phys.:Condens. Matter 21 395502 (2009);
         "P. Giannozzi et al., J. Phys.:Condens. Matter 29 465901 (2017);
          URL http://www.quantum-espresso.org", 
     in publications or presentations arising from this work. More details at
     http://www.quantum-espresso.org/quote

     Parallel version (MPI & OpenMP), running on      72 processor cores
     Number of MPI processes:                72
     Threads/MPI process:                     1

     MPI processes distributed on     1 nodes
     R & G space division:  proc/nbgrp/npool/nimage =      72
     Reading input from relax_8.in
Warning: card &CELL ignored
Warning: card CELL_DYNAMICS = 'BFGS', ignored
Warning: card CELL_FACTOR = 2.0, ignored
Warning: card PRESS = 0.0, ignored
Warning: card / ignored

     Current dimensions of program PWSCF are:
     Max number of different atomic species (ntypx) = 10
     Max number of k-points (npk) =  40000
     Max angular momentum in pseudopotentials (lmaxx) =  3
     file Fe.pbe-spn-kjpaw_psl.1.0.0.UPF: wavefunction(s)  3P 3D renormalized
     file Fe.pbe-spn-kjpaw_psl.1.0.0.UPF: wavefunction(s)  3P 3D renormalized

     Subspace diagonalization in iterative solution of the eigenvalue problem:
     one sub-group per band group will be used
     ELPA distributed-memory algorithm (size of sub-group:  8*  8 procs)

     Found symmetry operation: I + (  0.2500  0.0000  0.2500)
     This is a supercell, fractional translations are disabled
     Message from routine setup:
     using ibrav=0 with symmetry is DISCOURAGED, use correct ibrav instead
 
     Parallelization info
     --------------------
     sticks:   dense  smooth     PW     G-vecs:    dense   smooth      PW
     Min         127      84     23                 7248     3888     551
     Max         129      85     24                 7252     3892     555
     Sum        9173    6055   1657               521953   280103   39857
 


     bravais-lattice index     =            0
     lattice parameter (alat)  =      12.9382  a.u.
     unit-cell volume          =    3465.2977 (a.u.)^3
     number of atoms/cell      =           32
     number of atomic types    =            2
     number of electrons       =       512.00
     number of Kohn-Sham states=          325
     kinetic-energy cutoff     =      71.0000  Ry
     charge density cutoff     =     430.0000  Ry
     scf convergence threshold =      1.0E-07
     mixing beta               =       0.1000
     number of iterations used =           10  local-TF  mixing
     energy convergence thresh.=      1.0E-04
     force convergence thresh. =      1.0E-03
     Exchange-correlation= SLA  PW   PBX  PBC
                           (   1   4   3   4   0   0   0)
     nstep                     =           50


     celldm(1)=  12.938190  celldm(2)=   0.000000  celldm(3)=   0.000000
     celldm(4)=   0.000000  celldm(5)=   0.000000  celldm(6)=   0.000000

     crystal axes: (cart. coord. in units of alat)
               a(1) = (   1.000000   0.000000   0.000000 )  
               a(2) = (   0.000000   1.600000   0.000000 )  
               a(3) = (   0.000000   0.000000   1.000000 )  

     reciprocal axes: (cart. coord. in units 2 pi/alat)
               b(1) = (  1.000000  0.000000  0.000000 )  
               b(2) = (  0.000000  0.625000  0.000000 )  
               b(3) = (  0.000000  0.000000  1.000000 )  


     PseudoPot. # 1 for Fe read from file:
     /rds/homes/b/bxp912/pp/Fe.pbe-spn-kjpaw_psl.1.0.0.UPF
     MD5 check sum: 42f43b795421b414b0dc916aa790dbcb
     Pseudo is Projector augmented-wave + core cor, Zval = 16.0
     Generated using &quot;atomic&quot; code by A. Dal Corso  v.6.3
     Shape of augmentation charge: PSQ
     Using radial grid of 1191 points,  6 beta functions with: 
                l(1) =   0
                l(2) =   0
                l(3) =   1
                l(4) =   1
                l(5) =   2
                l(6) =   2
     Q(r) pseudized with 0 coefficients 


     PseudoPot. # 2 for Fe read from file:
     /rds/homes/b/bxp912/pp/Fe.pbe-spn-kjpaw_psl.1.0.0.UPF
     MD5 check sum: 42f43b795421b414b0dc916aa790dbcb
     Pseudo is Projector augmented-wave + core cor, Zval = 16.0
     Generated using &quot;atomic&quot; code by A. Dal Corso  v.6.3
     Shape of augmentation charge: PSQ
     Using radial grid of 1191 points,  6 beta functions with: 
                l(1) =   0
                l(2) =   0
                l(3) =   1
                l(4) =   1
                l(5) =   2
                l(6) =   2
     Q(r) pseudized with 0 coefficients 


     atomic species   valence    mass     pseudopotential
        Fe1           16.00    55.84500     Fe( 1.00)
        Fe2           16.00    55.84500     Fe( 1.00)

     Starting magnetic structure 
     atomic species   magnetization
        Fe1          0.100
        Fe2         -0.100

      8 Sym. Ops. (no inversion) found



   Cartesian axes

     site n.     atom                  positions (alat units)
         1           Fe1 tau(   1) = (   0.0000000   0.0000000   0.0000000  )
         2           Fe2 tau(   2) = (   0.2500000   0.2500000   0.0000000  )
         3           Fe1 tau(   3) = (   0.2500000   0.0000000   0.2500000  )
         4           Fe2 tau(   4) = (   0.0000000   0.2500000   0.2500000  )
         5           Fe1 tau(   5) = (   0.0000000   0.0000000   0.5000000  )
         6           Fe2 tau(   6) = (   0.2500000   0.2500000   0.5000000  )
         7           Fe1 tau(   7) = (   0.2500000   0.0000000   0.7500000  )
         8           Fe2 tau(   8) = (   0.0000000   0.2500000   0.7500000  )
         9           Fe1 tau(   9) = (   0.0000000   1.1000000   0.0000000  )
        10           Fe2 tau(  10) = (   0.2500000   1.3500000   0.0000000  )
        11           Fe1 tau(  11) = (   0.2500000   1.1000000   0.2500000  )
        12           Fe2 tau(  12) = (   0.0000000   1.3500000   0.2500000  )
        13           Fe1 tau(  13) = (   0.0000000   1.1000000   0.5000000  )
        14           Fe2 tau(  14) = (   0.2500000   1.3500000   0.5000000  )
        15           Fe1 tau(  15) = (   0.2500000   1.1000000   0.7500000  )
        16           Fe2 tau(  16) = (   0.0000000   1.3500000   0.7500000  )
        17           Fe1 tau(  17) = (   0.5000000   0.0000000   0.0000000  )
        18           Fe2 tau(  18) = (   0.7500000   0.2500000   0.0000000  )
        19           Fe1 tau(  19) = (   0.7500000   0.0000000   0.2500000  )
        20           Fe2 tau(  20) = (   0.5000000   0.2500000   0.2500000  )
        21           Fe1 tau(  21) = (   0.5000000   0.0000000   0.5000000  )
        22           Fe2 tau(  22) = (   0.7500000   0.2500000   0.5000000  )
        23           Fe1 tau(  23) = (   0.7500000   0.0000000   0.7500000  )
        24           Fe2 tau(  24) = (   0.5000000   0.2500000   0.7500000  )
        25           Fe1 tau(  25) = (   0.5000000   1.1000000   0.0000000  )
        26           Fe2 tau(  26) = (   0.7500000   1.3500000   0.0000000  )
        27           Fe1 tau(  27) = (   0.7500000   1.1000000   0.2500000  )
        28           Fe2 tau(  28) = (   0.5000000   1.3500000   0.2500000  )
        29           Fe1 tau(  29) = (   0.5000000   1.1000000   0.5000000  )
        30           Fe2 tau(  30) = (   0.7500000   1.3500000   0.5000000  )
        31           Fe1 tau(  31) = (   0.7500000   1.1000000   0.7500000  )
        32           Fe2 tau(  32) = (   0.5000000   1.3500000   0.7500000  )

     number of k points=    75  Marzari-Vanderbilt smearing, width (Ry)=  0.0400
                       cart. coord. in units 2pi/alat
        k(    1) = (   0.0555556   0.0347222   0.0555556), wk =   0.0109739
        k(    2) = (   0.0555556   0.0347222   0.1666667), wk =   0.0219479
        k(    3) = (   0.0555556   0.0347222   0.2777778), wk =   0.0219479
        k(    4) = (   0.0555556   0.0347222   0.3888889), wk =   0.0219479
        k(    5) = (   0.0555556   0.0347222  -0.5000000), wk =   0.0109739
        k(    6) = (   0.0555556   0.1041667   0.0555556), wk =   0.0109739
        k(    7) = (   0.0555556   0.1041667   0.1666667), wk =   0.0219479
        k(    8) = (   0.0555556   0.1041667   0.2777778), wk =   0.0219479
        k(    9) = (   0.0555556   0.1041667   0.3888889), wk =   0.0219479
        k(   10) = (   0.0555556   0.1041667  -0.5000000), wk =   0.0109739
        k(   11) = (   0.0555556   0.1736111   0.0555556), wk =   0.0109739
        k(   12) = (   0.0555556   0.1736111   0.1666667), wk =   0.0219479
        k(   13) = (   0.0555556   0.1736111   0.2777778), wk =   0.0219479
        k(   14) = (   0.0555556   0.1736111   0.3888889), wk =   0.0219479
        k(   15) = (   0.0555556   0.1736111  -0.5000000), wk =   0.0109739
        k(   16) = (   0.0555556   0.2430556   0.0555556), wk =   0.0109739
        k(   17) = (   0.0555556   0.2430556   0.1666667), wk =   0.0219479
        k(   18) = (   0.0555556   0.2430556   0.2777778), wk =   0.0219479
        k(   19) = (   0.0555556   0.2430556   0.3888889), wk =   0.0219479
        k(   20) = (   0.0555556   0.2430556  -0.5000000), wk =   0.0109739
        k(   21) = (   0.0555556  -0.3125000   0.0555556), wk =   0.0054870
        k(   22) = (   0.0555556  -0.3125000   0.1666667), wk =   0.0109739
        k(   23) = (   0.0555556  -0.3125000   0.2777778), wk =   0.0109739
        k(   24) = (   0.0555556  -0.3125000   0.3888889), wk =   0.0109739
        k(   25) = (   0.0555556  -0.3125000  -0.5000000), wk =   0.0054870
        k(   26) = (   0.1666667   0.0347222   0.1666667), wk =   0.0109739
        k(   27) = (   0.1666667   0.0347222   0.2777778), wk =   0.0219479
        k(   28) = (   0.1666667   0.0347222   0.3888889), wk =   0.0219479
        k(   29) = (   0.1666667   0.0347222  -0.5000000), wk =   0.0109739
        k(   30) = (   0.1666667   0.1041667   0.1666667), wk =   0.0109739
        k(   31) = (   0.1666667   0.1041667   0.2777778), wk =   0.0219479
        k(   32) = (   0.1666667   0.1041667   0.3888889), wk =   0.0219479
        k(   33) = (   0.1666667   0.1041667  -0.5000000), wk =   0.0109739
        k(   34) = (   0.1666667   0.1736111   0.1666667), wk =   0.0109739
        k(   35) = (   0.1666667   0.1736111   0.2777778), wk =   0.0219479
        k(   36) = (   0.1666667   0.1736111   0.3888889), wk =   0.0219479
        k(   37) = (   0.1666667   0.1736111  -0.5000000), wk =   0.0109739
        k(   38) = (   0.1666667   0.2430556   0.1666667), wk =   0.0109739
        k(   39) = (   0.1666667   0.2430556   0.2777778), wk =   0.0219479
        k(   40) = (   0.1666667   0.2430556   0.3888889), wk =   0.0219479
        k(   41) = (   0.1666667   0.2430556  -0.5000000), wk =   0.0109739
        k(   42) = (   0.1666667  -0.3125000   0.1666667), wk =   0.0054870
        k(   43) = (   0.1666667  -0.3125000   0.2777778), wk =   0.0109739
        k(   44) = (   0.1666667  -0.3125000   0.3888889), wk =   0.0109739
        k(   45) = (   0.1666667  -0.3125000  -0.5000000), wk =   0.0054870
        k(   46) = (   0.2777778   0.0347222   0.2777778), wk =   0.0109739
        k(   47) = (   0.2777778   0.0347222   0.3888889), wk =   0.0219479
        k(   48) = (   0.2777778   0.0347222  -0.5000000), wk =   0.0109739
        k(   49) = (   0.2777778   0.1041667   0.2777778), wk =   0.0109739
        k(   50) = (   0.2777778   0.1041667   0.3888889), wk =   0.0219479
        k(   51) = (   0.2777778   0.1041667  -0.5000000), wk =   0.0109739
        k(   52) = (   0.2777778   0.1736111   0.2777778), wk =   0.0109739
        k(   53) = (   0.2777778   0.1736111   0.3888889), wk =   0.0219479
        k(   54) = (   0.2777778   0.1736111  -0.5000000), wk =   0.0109739
        k(   55) = (   0.2777778   0.2430556   0.2777778), wk =   0.0109739
        k(   56) = (   0.2777778   0.2430556   0.3888889), wk =   0.0219479
        k(   57) = (   0.2777778   0.2430556  -0.5000000), wk =   0.0109739
        k(   58) = (   0.2777778  -0.3125000   0.2777778), wk =   0.0054870
        k(   59) = (   0.2777778  -0.3125000   0.3888889), wk =   0.0109739
        k(   60) = (   0.2777778  -0.3125000  -0.5000000), wk =   0.0054870
        k(   61) = (   0.3888889   0.0347222   0.3888889), wk =   0.0109739
        k(   62) = (   0.3888889   0.0347222  -0.5000000), wk =   0.0109739
        k(   63) = (   0.3888889   0.1041667   0.3888889), wk =   0.0109739
        k(   64) = (   0.3888889   0.1041667  -0.5000000), wk =   0.0109739
        k(   65) = (   0.3888889   0.1736111   0.3888889), wk =   0.0109739
        k(   66) = (   0.3888889   0.1736111  -0.5000000), wk =   0.0109739
        k(   67) = (   0.3888889   0.2430556   0.3888889), wk =   0.0109739
        k(   68) = (   0.3888889   0.2430556  -0.5000000), wk =   0.0109739
        k(   69) = (   0.3888889  -0.3125000   0.3888889), wk =   0.0054870
        k(   70) = (   0.3888889  -0.3125000  -0.5000000), wk =   0.0054870
        k(   71) = (  -0.5000000   0.0347222  -0.5000000), wk =   0.0027435
        k(   72) = (  -0.5000000   0.1041667  -0.5000000), wk =   0.0027435
        k(   73) = (  -0.5000000   0.1736111  -0.5000000), wk =   0.0027435
        k(   74) = (  -0.5000000   0.2430556  -0.5000000), wk =   0.0027435
        k(   75) = (  -0.5000000  -0.3125000  -0.5000000), wk =   0.0013717

     Dense  grid:   521953 G-vectors     FFT dimensions: (  90, 144,  90)

     Smooth grid:   280103 G-vectors     FFT dimensions: (  72, 120,  72)

     Estimated max dynamical RAM per process >     406.50 MB

     Estimated total dynamical RAM >      28.58 GB

     Check: negative core charge=   -0.000005
     Generating pointlists ...
     new r_m :   0.1458 (alat units)  1.8869 (a.u.) for type    1
     new r_m :   0.1458 (alat units)  1.8869 (a.u.) for type    2

     Initial potential from superposition of free atoms

     starting charge  511.98600, renormalised to  512.00000
     Starting wfcs are  320 randomized atomic wfcs +    5 random wfcs
     Checking if some PAW data can be deallocated... 

     total cpu time spent up to now is       47.2 secs

     Self-consistent Calculation

     iteration #  1     ecut=    71.00 Ry     beta= 0.10
     Davidson diagonalization with overlap
     ethr =  1.00E-02,  avg # of iterations =  3.0

     total cpu time spent up to now is      208.6 secs

     total energy              =  -10536.27343573 Ry
     estimated scf accuracy    <      32.01784523 Ry

     total magnetization       =     0.01 Bohr mag/cell
     absolute magnetization    =    45.30 Bohr mag/cell

     iteration #  2     ecut=    71.00 Ry     beta= 0.10
     Davidson diagonalization with overlap
     ethr =  6.25E-03,  avg # of iterations =  1.0

     total cpu time spent up to now is      325.0 secs

     total energy              =  -10535.91206437 Ry
     estimated scf accuracy    <       9.83440956 Ry

     total magnetization       =     0.04 Bohr mag/cell
     absolute magnetization    =    47.16 Bohr mag/cell

     iteration #  3     ecut=    71.00 Ry     beta= 0.10
     Davidson diagonalization with overlap
     ethr =  1.92E-03,  avg # of iterations =  1.0

     negative rho (up, down):  1.575E-03 2.964E-03

     total cpu time spent up to now is      441.8 secs

     total energy              =  -10534.63590602 Ry
     estimated scf accuracy    <       5.89452874 Ry

     total magnetization       =     0.07 Bohr mag/cell
     absolute magnetization    =    47.43 Bohr mag/cell

     iteration #  4     ecut=    71.00 Ry     beta= 0.10
     Davidson diagonalization with overlap
     ethr =  1.15E-03,  avg # of iterations =  2.1

     negative rho (up, down):  2.806E-03 3.921E-03

     total cpu time spent up to now is      579.1 secs

     total energy              =  -10534.94429014 Ry
     estimated scf accuracy    <       1.89324692 Ry

     total magnetization       =     0.07 Bohr mag/cell
     absolute magnetization    =    48.88 Bohr mag/cell

     iteration #  5     ecut=    71.00 Ry     beta= 0.10
     Davidson diagonalization with overlap
     ethr =  3.70E-04,  avg # of iterations =  5.2

     negative rho (up, down):  3.324E-04 1.967E-03

     total cpu time spent up to now is      732.1 secs

     total energy              =  -10535.03772980 Ry
     estimated scf accuracy    <       0.78297238 Ry

     total magnetization       =     0.13 Bohr mag/cell
     absolute magnetization    =    50.14 Bohr mag/cell

     iteration #  6     ecut=    71.00 Ry     beta= 0.10
     Davidson diagonalization with overlap
     ethr =  1.53E-04,  avg # of iterations =  3.9

     negative rho (up, down):  0.000E+00 2.807E-04

     total cpu time spent up to now is      870.2 secs

     total energy              =  -10534.96271997 Ry
     estimated scf accuracy    <       0.41706940 Ry

     total magnetization       =     0.09 Bohr mag/cell
     absolute magnetization    =    50.61 Bohr mag/cell

     iteration #  7     ecut=    71.00 Ry     beta= 0.10
     Davidson diagonalization with overlap
     ethr =  8.15E-05,  avg # of iterations =  5.0

     negative rho (up, down):  0.000E+00 2.482E-04

     total cpu time spent up to now is     1013.1 secs

     total energy              =  -10534.96617232 Ry
     estimated scf accuracy    <       0.09994239 Ry

     total magnetization       =     0.10 Bohr mag/cell
     absolute magnetization    =    51.50 Bohr mag/cell

     iteration #  8     ecut=    71.00 Ry     beta= 0.10
     Davidson diagonalization with overlap
     c_bands:  1 eigenvalues not converged
     c_bands:  2 eigenvalues not converged
     c_bands:  1 eigenvalues not converged
     c_bands:  1 eigenvalues not converged
     ethr =  1.95E-05,  avg # of iterations =  6.7

     negative rho (up, down):  0.000E+00 3.108E-04

     total cpu time spent up to now is     1162.8 secs

     total energy              =  -10534.96300686 Ry
     estimated scf accuracy    <       0.06461360 Ry

     total magnetization       =     0.07 Bohr mag/cell
     absolute magnetization    =    51.90 Bohr mag/cell

     iteration #  9     ecut=    71.00 Ry     beta= 0.10
     Davidson diagonalization with overlap
     c_bands:  1 eigenvalues not converged
     ethr =  1.26E-05,  avg # of iterations =  3.4

     negative rho (up, down):  0.000E+00 4.192E-04

     total cpu time spent up to now is     1299.1 secs

     total energy              =  -10534.96143722 Ry
     estimated scf accuracy    <       0.03789116 Ry

     total magnetization       =    -0.00 Bohr mag/cell
     absolute magnetization    =    52.50 Bohr mag/cell

     iteration # 10     ecut=    71.00 Ry     beta= 0.10
     Davidson diagonalization with overlap
     c_bands:  1 eigenvalues not converged
     c_bands:  1 eigenvalues not converged
     ethr =  7.40E-06,  avg # of iterations =  3.8

     negative rho (up, down):  0.000E+00 4.017E-04

     total cpu time spent up to now is     1443.5 secs

     total energy              =  -10534.96663534 Ry
     estimated scf accuracy    <       0.02021350 Ry

     total magnetization       =     0.02 Bohr mag/cell
     absolute magnetization    =    53.00 Bohr mag/cell

     iteration # 11     ecut=    71.00 Ry     beta= 0.10
     Davidson diagonalization with overlap
     ethr =  3.95E-06,  avg # of iterations =  1.7

     negative rho (up, down):  0.000E+00 4.576E-04

     total cpu time spent up to now is     1566.8 secs

     total energy              =  -10534.96858328 Ry
     estimated scf accuracy    <       0.01643126 Ry

     total magnetization       =     0.05 Bohr mag/cell
     absolute magnetization    =    53.06 Bohr mag/cell

     iteration # 12     ecut=    71.00 Ry     beta= 0.10
     Davidson diagonalization with overlap
     c_bands:  1 eigenvalues not converged
     c_bands:  1 eigenvalues not converged
     ethr =  3.21E-06,  avg # of iterations =  3.3

     negative rho (up, down):  0.000E+00 4.478E-04

     total cpu time spent up to now is     1706.6 secs

     total energy              =  -10534.97093076 Ry
     estimated scf accuracy    <       0.00440508 Ry

     total magnetization       =     0.04 Bohr mag/cell
     absolute magnetization    =    53.48 Bohr mag/cell

     iteration # 13     ecut=    71.00 Ry     beta= 0.10
     Davidson diagonalization with overlap
     c_bands:  1 eigenvalues not converged
     ethr =  8.60E-07,  avg # of iterations =  3.3

     negative rho (up, down):  0.000E+00 4.528E-04

     total cpu time spent up to now is     1844.2 secs

     total energy              =  -10534.97163391 Ry
     estimated scf accuracy    <       0.00070282 Ry

     total magnetization       =     0.02 Bohr mag/cell
     absolute magnetization    =    53.37 Bohr mag/cell

     iteration # 14     ecut=    71.00 Ry     beta= 0.10
     Davidson diagonalization with overlap
     ethr =  1.37E-07,  avg # of iterations =  2.5

     negative rho (up, down):  0.000E+00 4.579E-04

     total cpu time spent up to now is     1999.2 secs

     total energy              =  -10534.97181195 Ry
     estimated scf accuracy    <       0.00053233 Ry

     total magnetization       =     0.01 Bohr mag/cell
     absolute magnetization    =    53.44 Bohr mag/cell

     iteration # 15     ecut=    71.00 Ry     beta= 0.10
     Davidson diagonalization with overlap
     ethr =  1.04E-07,  avg # of iterations =  1.0

     negative rho (up, down):  0.000E+00 4.728E-04

     total cpu time spent up to now is     2115.8 secs

     total energy              =  -10534.97203416 Ry
     estimated scf accuracy    <       0.00035240 Ry

     total magnetization       =     0.01 Bohr mag/cell
     absolute magnetization    =    53.42 Bohr mag/cell

     iteration # 16     ecut=    71.00 Ry     beta= 0.10
     Davidson diagonalization with overlap
     ethr =  6.88E-08,  avg # of iterations =  3.5

     negative rho (up, down):  0.000E+00 4.711E-04

     total cpu time spent up to now is     2282.5 secs

     total energy              =  -10534.97218582 Ry
     estimated scf accuracy    <       0.00007201 Ry

     total magnetization       =     0.01 Bohr mag/cell
     absolute magnetization    =    53.34 Bohr mag/cell

     iteration # 17     ecut=    71.00 Ry     beta= 0.10
     Davidson diagonalization with overlap
     ethr =  1.41E-08,  avg # of iterations =  2.1

     negative rho (up, down):  0.000E+00 4.685E-04

     total cpu time spent up to now is     2416.3 secs

     total energy              =  -10534.97220345 Ry
     estimated scf accuracy    <       0.00002497 Ry

     total magnetization       =     0.01 Bohr mag/cell
     absolute magnetization    =    53.34 Bohr mag/cell

     iteration # 18     ecut=    71.00 Ry     beta= 0.10
     Davidson diagonalization with overlap
     ethr =  4.88E-09,  avg # of iterations =  2.0

     negative rho (up, down):  0.000E+00 4.753E-04

     total cpu time spent up to now is     2567.4 secs

     total energy              =  -10534.97221984 Ry
     estimated scf accuracy    <       0.00002551 Ry

     total magnetization       =     0.01 Bohr mag/cell
     absolute magnetization    =    53.32 Bohr mag/cell

     iteration # 19     ecut=    71.00 Ry     beta= 0.10
     Davidson diagonalization with overlap
     ethr =  4.88E-09,  avg # of iterations =  3.1

     negative rho (up, down):  0.000E+00 4.748E-04

     total cpu time spent up to now is     2734.3 secs

     total energy              =  -10534.97224076 Ry
     estimated scf accuracy    <       0.00003132 Ry

     total magnetization       =     0.01 Bohr mag/cell
     absolute magnetization    =    53.30 Bohr mag/cell

     iteration # 20     ecut=    71.00 Ry     beta= 0.10
     Davidson diagonalization with overlap
     ethr =  4.88E-09,  avg # of iterations =  2.1

     negative rho (up, down):  0.000E+00 4.733E-04

     total cpu time spent up to now is     2871.1 secs

     total energy              =  -10534.97225101 Ry
     estimated scf accuracy    <       0.00001067 Ry

     total magnetization       =     0.01 Bohr mag/cell
     absolute magnetization    =    53.26 Bohr mag/cell

     iteration # 21     ecut=    71.00 Ry     beta= 0.10
     Davidson diagonalization with overlap
     ethr =  2.08E-09,  avg # of iterations =  2.0

     negative rho (up, down):  0.000E+00 4.742E-04

     total cpu time spent up to now is     3016.5 secs

     total energy              =  -10534.97225869 Ry
     estimated scf accuracy    <       0.00000592 Ry

     total magnetization       =     0.01 Bohr mag/cell
     absolute magnetization    =    53.25 Bohr mag/cell

     iteration # 22     ecut=    71.00 Ry     beta= 0.10
     Davidson diagonalization with overlap
     ethr =  1.16E-09,  avg # of iterations =  2.0

     negative rho (up, down):  0.000E+00 4.747E-04

     total cpu time spent up to now is     3149.4 secs

     total energy              =  -10534.97226598 Ry
     estimated scf accuracy    <       0.00000526 Ry

     total magnetization       =     0.00 Bohr mag/cell
     absolute magnetization    =    53.24 Bohr mag/cell

     iteration # 23     ecut=    71.00 Ry     beta= 0.10
     Davidson diagonalization with overlap
     ethr =  1.03E-09,  avg # of iterations =  2.1

     negative rho (up, down):  0.000E+00 4.752E-04

     total cpu time spent up to now is     3296.7 secs

     total energy              =  -10534.97227233 Ry
     estimated scf accuracy    <       0.00000279 Ry

     total magnetization       =     0.00 Bohr mag/cell
     absolute magnetization    =    53.21 Bohr mag/cell

     iteration # 24     ecut=    71.00 Ry     beta= 0.10
     Davidson diagonalization with overlap
     ethr =  5.46E-10,  avg # of iterations =  3.5

     negative rho (up, down):  0.000E+00 4.754E-04

     total cpu time spent up to now is     3457.0 secs

     total energy              =  -10534.97227901 Ry
     estimated scf accuracy    <       0.00000122 Ry

     total magnetization       =     0.00 Bohr mag/cell
     absolute magnetization    =    53.17 Bohr mag/cell

     iteration # 25     ecut=    71.00 Ry     beta= 0.10
     Davidson diagonalization with overlap
     ethr =  2.37E-10,  avg # of iterations =  3.0

     negative rho (up, down):  0.000E+00 4.754E-04

     total cpu time spent up to now is     3614.5 secs

     total energy              =  -10534.97228222 Ry
     estimated scf accuracy    <       0.00000072 Ry

     total magnetization       =     0.00 Bohr mag/cell
     absolute magnetization    =    53.15 Bohr mag/cell

     iteration # 26     ecut=    71.00 Ry     beta= 0.10
     Davidson diagonalization with overlap
     ethr =  1.41E-10,  avg # of iterations =  2.0

     negative rho (up, down):  0.000E+00 4.753E-04

     total cpu time spent up to now is     3748.4 secs

     total energy              =  -10534.97228380 Ry
     estimated scf accuracy    <       0.00000056 Ry

     total magnetization       =     0.00 Bohr mag/cell
     absolute magnetization    =    53.15 Bohr mag/cell

     iteration # 27     ecut=    71.00 Ry     beta= 0.10
     Davidson diagonalization with overlap
     ethr =  1.10E-10,  avg # of iterations =  2.6

     negative rho (up, down):  0.000E+00 4.756E-04

     total cpu time spent up to now is     3904.0 secs

     total energy              =  -10534.97228564 Ry
     estimated scf accuracy    <       0.00000028 Ry

     total magnetization       =     0.00 Bohr mag/cell
     absolute magnetization    =    53.13 Bohr mag/cell

     iteration # 28     ecut=    71.00 Ry     beta= 0.10
     Davidson diagonalization with overlap
     ethr =  5.44E-11,  avg # of iterations =  2.2

     negative rho (up, down):  0.000E+00 4.758E-04

     total cpu time spent up to now is     4055.6 secs

     total energy              =  -10534.97228680 Ry
     estimated scf accuracy    <       0.00000016 Ry

     total magnetization       =     0.00 Bohr mag/cell
     absolute magnetization    =    53.13 Bohr mag/cell

     iteration # 29     ecut=    71.00 Ry     beta= 0.10
     Davidson diagonalization with overlap
     ethr =  3.20E-11,  avg # of iterations =  3.2

     negative rho (up, down):  0.000E+00 4.759E-04
 
     Magnetic moment per site:
     atom:    1    charge:   14.4699    magn:    1.0048    constr:    0.0000
     atom:    2    charge:   14.3137    magn:   -2.1635    constr:    0.0000
     atom:    3    charge:   14.4691    magn:    1.0230    constr:    0.0000
     atom:    4    charge:   14.3137    magn:   -2.1635    constr:    0.0000
     atom:    5    charge:   14.4699    magn:    1.0032    constr:    0.0000
     atom:    6    charge:   14.3137    magn:   -2.1636    constr:    0.0000
     atom:    7    charge:   14.4691    magn:    1.0230    constr:    0.0000
     atom:    8    charge:   14.3137    magn:   -2.1635    constr:    0.0000
     atom:    9    charge:   14.3140    magn:    2.1637    constr:    0.0000
     atom:   10    charge:   14.4693    magn:   -1.0119    constr:    0.0000
     atom:   11    charge:   14.3136    magn:    2.1639    constr:    0.0000
     atom:   12    charge:   14.4693    magn:   -1.0119    constr:    0.0000
     atom:   13    charge:   14.3140    magn:    2.1634    constr:    0.0000
     atom:   14    charge:   14.4693    magn:   -1.0148    constr:    0.0000
     atom:   15    charge:   14.3136    magn:    2.1639    constr:    0.0000
     atom:   16    charge:   14.4693    magn:   -1.0119    constr:    0.0000
     atom:   17    charge:   14.4699    magn:    1.0032    constr:    0.0000
     atom:   18    charge:   14.3137    magn:   -2.1635    constr:    0.0000
     atom:   19    charge:   14.4691    magn:    1.0230    constr:    0.0000
     atom:   20    charge:   14.3137    magn:   -2.1636    constr:    0.0000
     atom:   21    charge:   14.4699    magn:    1.0040    constr:    0.0000
     atom:   22    charge:   14.3137    magn:   -2.1636    constr:    0.0000
     atom:   23    charge:   14.4691    magn:    1.0230    constr:    0.0000
     atom:   24    charge:   14.3137    magn:   -2.1636    constr:    0.0000
     atom:   25    charge:   14.3140    magn:    2.1634    constr:    0.0000
     atom:   26    charge:   14.4693    magn:   -1.0119    constr:    0.0000
     atom:   27    charge:   14.3136    magn:    2.1639    constr:    0.0000
     atom:   28    charge:   14.4693    magn:   -1.0148    constr:    0.0000
     atom:   29    charge:   14.3141    magn:    2.1630    constr:    0.0000
     atom:   30    charge:   14.4693    magn:   -1.0148    constr:    0.0000
     atom:   31    charge:   14.3136    magn:    2.1639    constr:    0.0000
     atom:   32    charge:   14.4693    magn:   -1.0148    constr:    0.0000

     total cpu time spent up to now is     4216.4 secs

     End of self-consistent calculation

     Number of k-points >= 100: set verbosity='high' to print the bands.

     the Fermi energy is    11.8306 ev

!    total energy              =  -10534.97229179 Ry

     total all-electron energy =    -81456.461350 Ry
     estimated scf accuracy    <       0.00000007 Ry
     smearing contrib. (-TS)   =       0.03765039 Ry
     internal energy E=F+TS    =  -10535.00994218 Ry

     The total energy is F=E-TS. E is the sum of the following terms:
     one-electron contribution =  -13393.53571109 Ry
     hartree contribution      =    6893.28558118 Ry
     xc contribution           =    -886.97391937 Ry
     ewald contribution        =    -498.40013261 Ry
     one-center paw contrib.   =   -2649.38576029 Ry

     total magnetization       =    -0.00 Bohr mag/cell
     absolute magnetization    =    53.13 Bohr mag/cell

     convergence has been achieved in  29 iterations

     negative rho (up, down):  0.000E+00 4.759E-04

     Forces acting on atoms (cartesian axes, Ry/au):

     atom    1 type  1   force =     0.00000000    0.00107058    0.00000000
     atom    2 type  2   force =     0.00001050    0.02424906    0.00000000
     atom    3 type  1   force =    -0.00001400    0.00094633   -0.00001400
     atom    4 type  2   force =     0.00000000    0.02424906    0.00001050
     atom    5 type  1   force =     0.00000000    0.00108812    0.00000000
     atom    6 type  2   force =    -0.00000207    0.02424467    0.00000000
     atom    7 type  1   force =    -0.00001400    0.00094633    0.00001400
     atom    8 type  2   force =     0.00000000    0.02424906   -0.00001050
     atom    9 type  1   force =     0.00000000   -0.02390486    0.00000000
     atom   10 type  2   force =     0.00002833   -0.00123348    0.00000000
     atom   11 type  1   force =    -0.00000656   -0.02414102   -0.00000656
     atom   12 type  2   force =     0.00000000   -0.00123348    0.00002833
     atom   13 type  1   force =     0.00000000   -0.02392639    0.00000000
     atom   14 type  2   force =     0.00001390   -0.00122930    0.00000000
     atom   15 type  1   force =    -0.00000656   -0.02414102    0.00000656
     atom   16 type  2   force =     0.00000000   -0.00123348   -0.00002833
     atom   17 type  1   force =     0.00000000    0.00108812    0.00000000
     atom   18 type  2   force =    -0.00001050    0.02424906    0.00000000
     atom   19 type  1   force =     0.00001400    0.00094633   -0.00001400
     atom   20 type  2   force =     0.00000000    0.02424467   -0.00000207
     atom   21 type  1   force =     0.00000000    0.00112056    0.00000000
     atom   22 type  2   force =     0.00000207    0.02424467    0.00000000
     atom   23 type  1   force =     0.00001400    0.00094633    0.00001400
     atom   24 type  2   force =     0.00000000    0.02424467    0.00000207
     atom   25 type  1   force =     0.00000000   -0.02392639    0.00000000
     atom   26 type  2   force =    -0.00002833   -0.00123348    0.00000000
     atom   27 type  1   force =     0.00000656   -0.02414102   -0.00000656
     atom   28 type  2   force =    -0.00000000   -0.00122930    0.00001390
     atom   29 type  1   force =     0.00000000   -0.02395482    0.00000000
     atom   30 type  2   force =    -0.00001390   -0.00122930    0.00000000
     atom   31 type  1   force =     0.00000656   -0.02414102    0.00000656
     atom   32 type  2   force =     0.00000000   -0.00122930   -0.00001390

     Total force =     0.096670     Total SCF correction =     0.000511


     Computing stress (Cartesian axis) and pressure


     negative rho (up, down):  0.000E+00 4.759E-04
          total   stress  (Ry/bohr**3)                   (kbar)     P=       21.82
   0.00006919   0.00000000   0.00000000           10.18        0.00        0.00
   0.00000000   0.00030657   0.00000000            0.00       45.10        0.00
   0.00000000   0.00000000   0.00006919            0.00        0.00       10.18


     BFGS Geometry Optimization
     Energy error            =      0.0E+00
     Gradient error          =      2.4E-02

     number of scf cycles    =   1
     number of bfgs steps    =   0

     energy   new            =  -10534.9722917933 Ry

     new trust radius        =       0.0242490656 bohr
     new conv_thr            =       0.0000001000 Ry


ATOMIC_POSITIONS (crystal)
Fe1           0.0000000000        0.0000517162        0.0000000000
Fe2           0.2500008117        0.1574213899        0.0000000000
Fe1           0.2499989181        0.0000457140        0.2499989181
Fe2           0.0000000000        0.1574213899        0.2500008117
Fe1           0.0000000000        0.0000525632        0.5000000000
Fe2           0.2499998400        0.1574211775        0.5000000000
Fe1           0.2499989181        0.0000457140        0.7500010819
Fe2           0.0000000000        0.1574213899        0.7499991883
Fe1           0.0000000000        0.6863452376        0.0000000000
Fe2           0.2500021899        0.8436904150        0.0000000000
Fe1           0.2499994927        0.6863338296        0.2499994927
Fe2           0.0000000000        0.8436904150        0.2500021899
Fe1           0.0000000000        0.6863441976        0.5000000000
Fe2           0.2500010742        0.8436906167        0.5000000000
Fe1           0.2499994927        0.6863338296        0.7500005073
Fe2           0.0000000000        0.8436904150        0.7499978101
Fe1           0.5000000000        0.0000525632        0.0000000000
Fe2           0.7499991883        0.1574213899        0.0000000000
Fe1           0.7500010819        0.0000457140        0.2499989181
Fe2           0.5000000000        0.1574211775        0.2499998400
Fe1           0.5000000000        0.0000541306        0.5000000000
Fe2           0.7500001600        0.1574211775        0.5000000000
Fe1           0.7500010819        0.0000457140        0.7500010819
Fe2           0.5000000000        0.1574211775        0.7500001600
Fe1           0.5000000000        0.6863441976        0.0000000000
Fe2           0.7499978101        0.8436904150        0.0000000000
Fe1           0.7500005073        0.6863338296        0.2499994927
Fe2           0.5000000000        0.8436906167        0.2500010742
Fe1           0.5000000000        0.6863428239        0.5000000000
Fe2           0.7499989258        0.8436906167        0.5000000000
Fe1           0.7500005073        0.6863338296        0.7500005073
Fe2           0.5000000000        0.8436906167        0.7499989258



     Writing output data file /scratch/qIzVwoxYQMYFpMVq.save/
     NEW-OLD atomic charge density approx. for the potential

     Check: negative core charge=   -0.000005

     negative rho (up, down):  0.000E+00 3.901E-04
     Generating pointlists ...

     total cpu time spent up to now is     4426.5 secs

     Self-consistent Calculation

     iteration #  1     ecut=    71.00 Ry     beta= 0.10
     Davidson diagonalization with overlap
     ethr =  1.00E-06,  avg # of iterations =  7.1

     negative rho (up, down):  0.000E+00 3.617E-04

     total cpu time spent up to now is     4753.4 secs

     total energy              =  -10534.97542306 Ry
     estimated scf accuracy    <       0.02103833 Ry

     total magnetization       =     0.00 Bohr mag/cell
     absolute magnetization    =    53.47 Bohr mag/cell

     iteration #  2     ecut=    71.00 Ry     beta= 0.10
     Davidson diagonalization with overlap
     ethr =  4.11E-06,  avg # of iterations =  1.0

     negative rho (up, down):  0.000E+00 3.214E-04

     total cpu time spent up to now is     4869.5 secs

     total energy              =  -10534.97647740 Ry
     estimated scf accuracy    <       0.00620344 Ry

     total magnetization       =    -0.00 Bohr mag/cell
     absolute magnetization    =    53.51 Bohr mag/cell

     iteration #  3     ecut=    71.00 Ry     beta= 0.10
     Davidson diagonalization with overlap
     ethr =  1.21E-06,  avg # of iterations =  2.1

     negative rho (up, down):  0.000E+00 2.253E-04

     total cpu time spent up to now is     5002.1 secs

     total energy              =  -10534.97880660 Ry
     estimated scf accuracy    <       0.00156977 Ry

     total magnetization       =     0.00 Bohr mag/cell
     absolute magnetization    =    53.55 Bohr mag/cell

     iteration #  4     ecut=    71.00 Ry     beta= 0.10
     Davidson diagonalization with overlap
     ethr =  3.07E-07,  avg # of iterations =  2.0

     negative rho (up, down):  0.000E+00 2.168E-04

     total cpu time spent up to now is     5159.3 secs

     total energy              =  -10534.97992879 Ry
     estimated scf accuracy    <       0.00058267 Ry

     total magnetization       =     0.00 Bohr mag/cell
     absolute magnetization    =    53.61 Bohr mag/cell

     iteration #  5     ecut=    71.00 Ry     beta= 0.10
     Davidson diagonalization with overlap
     ethr =  1.14E-07,  avg # of iterations =  2.0

     negative rho (up, down):  0.000E+00 1.706E-04

     total cpu time spent up to now is     5291.6 secs

     total energy              =  -10534.98084784 Ry
     estimated scf accuracy    <       0.00051876 Ry

     total magnetization       =     0.00 Bohr mag/cell
     absolute magnetization    =    53.64 Bohr mag/cell

     iteration #  6     ecut=    71.00 Ry     beta= 0.10
     Davidson diagonalization with overlap
     ethr =  1.01E-07,  avg # of iterations =  2.0

     negative rho (up, down):  0.000E+00 1.606E-04

     total cpu time spent up to now is     5447.1 secs

     total energy              =  -10534.98106412 Ry
     estimated scf accuracy    <       0.00003341 Ry

     total magnetization       =    -0.00 Bohr mag/cell
     absolute magnetization    =    53.73 Bohr mag/cell

     iteration #  7     ecut=    71.00 Ry     beta= 0.10
     Davidson diagonalization with overlap
     ethr =  6.52E-09,  avg # of iterations =  2.6

     negative rho (up, down):  0.000E+00 1.683E-04

     total cpu time spent up to now is     5605.2 secs

     total energy              =  -10534.98110385 Ry
     estimated scf accuracy    <       0.00002045 Ry

     total magnetization       =     0.00 Bohr mag/cell
     absolute magnetization    =    53.76 Bohr mag/cell

     iteration #  8     ecut=    71.00 Ry     beta= 0.10
     Davidson diagonalization with overlap
     ethr =  4.00E-09,  avg # of iterations =  2.0

     negative rho (up, down):  0.000E+00 1.664E-04

     total cpu time spent up to now is     5755.6 secs

     total energy              =  -10534.98111154 Ry
     estimated scf accuracy    <       0.00000696 Ry

     total magnetization       =     0.00 Bohr mag/cell
     absolute magnetization    =    53.77 Bohr mag/cell

     iteration #  9     ecut=    71.00 Ry     beta= 0.10
     Davidson diagonalization with overlap
     ethr =  1.36E-09,  avg # of iterations =  2.0

     negative rho (up, down):  0.000E+00 1.673E-04

     total cpu time spent up to now is     5899.6 secs

     total energy              =  -10534.98112239 Ry
     estimated scf accuracy    <       0.00000479 Ry

     total magnetization       =     0.00 Bohr mag/cell
     absolute magnetization    =    53.78 Bohr mag/cell

     iteration # 10     ecut=    71.00 Ry     beta= 0.10
     Davidson diagonalization with overlap
     ethr =  9.35E-10,  avg # of iterations =  2.0

     negative rho (up, down):  0.000E+00 1.687E-04

     total cpu time spent up to now is     6031.5 secs

     total energy              =  -10534.98113050 Ry
     estimated scf accuracy    <       0.00000257 Ry

     total magnetization       =     0.00 Bohr mag/cell
     absolute magnetization    =    53.80 Bohr mag/cell

     iteration # 11     ecut=    71.00 Ry     beta= 0.10
     Davidson diagonalization with overlap
     ethr =  5.01E-10,  avg # of iterations =  2.0

     negative rho (up, down):  0.000E+00 1.682E-04

     total cpu time spent up to now is     6180.9 secs

     total energy              =  -10534.98113583 Ry
     estimated scf accuracy    <       0.00000139 Ry

     total magnetization       =     0.00 Bohr mag/cell
     absolute magnetization    =    53.82 Bohr mag/cell

     iteration # 12     ecut=    71.00 Ry     beta= 0.10
     Davidson diagonalization with overlap
     ethr =  2.71E-10,  avg # of iterations =  2.2

     negative rho (up, down):  0.000E+00 1.700E-04

     total cpu time spent up to now is     6321.5 secs

     total energy              =  -10534.98114066 Ry
     estimated scf accuracy    <       0.00000121 Ry

     total magnetization       =     0.00 Bohr mag/cell
     absolute magnetization    =    53.84 Bohr mag/cell

     iteration # 13     ecut=    71.00 Ry     beta= 0.10
     Davidson diagonalization with overlap
     ethr =  2.35E-10,  avg # of iterations =  2.0

     negative rho (up, down):  0.000E+00 1.704E-04

     total cpu time spent up to now is     6473.0 secs

     total energy              =  -10534.98114341 Ry
     estimated scf accuracy    <       0.00000065 Ry

     total magnetization       =     0.00 Bohr mag/cell
     absolute magnetization    =    53.85 Bohr mag/cell

     iteration # 14     ecut=    71.00 Ry     beta= 0.10
     Davidson diagonalization with overlap
     ethr =  1.27E-10,  avg # of iterations =  4.1

     negative rho (up, down):  0.000E+00 1.704E-04

     total cpu time spent up to now is     6645.8 secs

     total energy              =  -10534.98114725 Ry
     estimated scf accuracy    <       0.00000019 Ry

     total magnetization       =     0.00 Bohr mag/cell
     absolute magnetization    =    53.88 Bohr mag/cell

     iteration # 15     ecut=    71.00 Ry     beta= 0.10
     Davidson diagonalization with overlap
     ethr =  3.79E-11,  avg # of iterations =  1.9

     negative rho (up, down):  0.000E+00 1.700E-04

     total cpu time spent up to now is     6775.7 secs

     total energy              =  -10534.98114895 Ry
     estimated scf accuracy    <       0.00000019 Ry

     total magnetization       =     0.00 Bohr mag/cell
     absolute magnetization    =    53.88 Bohr mag/cell

     iteration # 16     ecut=    71.00 Ry     beta= 0.10
     Davidson diagonalization with overlap
     ethr =  3.75E-11,  avg # of iterations =  3.0

     negative rho (up, down):  0.000E+00 1.696E-04

     total cpu time spent up to now is     6934.3 secs

     total energy              =  -10534.98115069 Ry
     estimated scf accuracy    <       0.00000010 Ry

     total magnetization       =     0.00 Bohr mag/cell
     absolute magnetization    =    53.89 Bohr mag/cell

     iteration # 17     ecut=    71.00 Ry     beta= 0.10
     Davidson diagonalization with overlap
     ethr =  2.02E-11,  avg # of iterations =  2.1

     negative rho (up, down):  0.000E+00 1.689E-04
 
     Magnetic moment per site:
     atom:    1    charge:   14.4642    magn:    1.0303    constr:    0.0000
     atom:    2    charge:   14.3085    magn:   -2.1829    constr:    0.0000
     atom:    3    charge:   14.4634    magn:    1.0495    constr:    0.0000
     atom:    4    charge:   14.3085    magn:   -2.1829    constr:    0.0000
     atom:    5    charge:   14.4642    magn:    1.0299    constr:    0.0000
     atom:    6    charge:   14.3085    magn:   -2.1829    constr:    0.0000
     atom:    7    charge:   14.4634    magn:    1.0495    constr:    0.0000
     atom:    8    charge:   14.3085    magn:   -2.1829    constr:    0.0000
     atom:    9    charge:   14.3087    magn:    2.1823    constr:    0.0000
     atom:   10    charge:   14.4637    magn:   -1.0387    constr:    0.0000
     atom:   11    charge:   14.3082    magn:    2.1829    constr:    0.0000
     atom:   12    charge:   14.4637    magn:   -1.0387    constr:    0.0000
     atom:   13    charge:   14.3087    magn:    2.1822    constr:    0.0000
     atom:   14    charge:   14.4637    magn:   -1.0394    constr:    0.0000
     atom:   15    charge:   14.3082    magn:    2.1829    constr:    0.0000
     atom:   16    charge:   14.4637    magn:   -1.0387    constr:    0.0000
     atom:   17    charge:   14.4642    magn:    1.0299    constr:    0.0000
     atom:   18    charge:   14.3085    magn:   -2.1829    constr:    0.0000
     atom:   19    charge:   14.4634    magn:    1.0495    constr:    0.0000
     atom:   20    charge:   14.3085    magn:   -2.1829    constr:    0.0000
     atom:   21    charge:   14.4642    magn:    1.0298    constr:    0.0000
     atom:   22    charge:   14.3085    magn:   -2.1829    constr:    0.0000
     atom:   23    charge:   14.4634    magn:    1.0495    constr:    0.0000
     atom:   24    charge:   14.3085    magn:   -2.1829    constr:    0.0000
     atom:   25    charge:   14.3087    magn:    2.1822    constr:    0.0000
     atom:   26    charge:   14.4637    magn:   -1.0387    constr:    0.0000
     atom:   27    charge:   14.3082    magn:    2.1829    constr:    0.0000
     atom:   28    charge:   14.4637    magn:   -1.0394    constr:    0.0000
     atom:   29    charge:   14.3087    magn:    2.1822    constr:    0.0000
     atom:   30    charge:   14.4637    magn:   -1.0394    constr:    0.0000
     atom:   31    charge:   14.3082    magn:    2.1829    constr:    0.0000
     atom:   32    charge:   14.4637    magn:   -1.0394    constr:    0.0000

     total cpu time spent up to now is     7084.6 secs

     End of self-consistent calculation

     Number of k-points >= 100: set verbosity='high' to print the bands.

     the Fermi energy is    11.8358 ev

!    total energy              =  -10534.98115689 Ry

     total all-electron energy =    -81456.470215 Ry
     estimated scf accuracy    <       0.00000003 Ry
     smearing contrib. (-TS)   =       0.03621803 Ry
     internal energy E=F+TS    =  -10535.01737492 Ry

     The total energy is F=E-TS. E is the sum of the following terms:
     one-electron contribution =  -13263.31478574 Ry
     hartree contribution      =    6828.29802898 Ry
     xc contribution           =    -886.92358128 Ry
     ewald contribution        =    -563.69342766 Ry
     one-center paw contrib.   =   -2649.38360922 Ry

     total magnetization       =     0.00 Bohr mag/cell
     absolute magnetization    =    53.89 Bohr mag/cell

     convergence has been achieved in  17 iterations

     negative rho (up, down):  0.000E+00 1.689E-04

     Forces acting on atoms (cartesian axes, Ry/au):

     atom    1 type  1   force =     0.00000000    0.00249300    0.00000000
     atom    2 type  2   force =    -0.00000141    0.02167157    0.00000000
     atom    3 type  1   force =     0.00000023    0.00237558    0.00000023
     atom    4 type  2   force =     0.00000000    0.02167157   -0.00000141
     atom    5 type  1   force =     0.00000000    0.00249563    0.00000000
     atom    6 type  2   force =    -0.00000011    0.02167098    0.00000000
     atom    7 type  1   force =     0.00000023    0.00237558   -0.00000023
     atom    8 type  2   force =    -0.00000000    0.02167157    0.00000141
     atom    9 type  1   force =     0.00000000   -0.02154929    0.00000000
     atom   10 type  2   force =    -0.00000268   -0.00251845    0.00000000
     atom   11 type  1   force =    -0.00000035   -0.02162662   -0.00000035
     atom   12 type  2   force =     0.00000000   -0.00251845   -0.00000268
     atom   13 type  1   force =     0.00000000   -0.02155204    0.00000000
     atom   14 type  2   force =     0.00000036   -0.00251648    0.00000000
     atom   15 type  1   force =    -0.00000035   -0.02162662    0.00000035
     atom   16 type  2   force =     0.00000000   -0.00251845    0.00000268
     atom   17 type  1   force =     0.00000000    0.00249563    0.00000000
     atom   18 type  2   force =     0.00000141    0.02167157    0.00000000
     atom   19 type  1   force =    -0.00000023    0.00237558    0.00000023
     atom   20 type  2   force =     0.00000000    0.02167098   -0.00000011
     atom   21 type  1   force =     0.00000000    0.00249370    0.00000000
     atom   22 type  2   force =     0.00000011    0.02167098    0.00000000
     atom   23 type  1   force =    -0.00000023    0.00237558   -0.00000023
     atom   24 type  2   force =     0.00000000    0.02167098    0.00000011
     atom   25 type  1   force =     0.00000000   -0.02155204    0.00000000
     atom   26 type  2   force =     0.00000268   -0.00251845    0.00000000
     atom   27 type  1   force =     0.00000035   -0.02162662   -0.00000035
     atom   28 type  2   force =     0.00000000   -0.00251648    0.00000036
     atom   29 type  1   force =     0.00000000   -0.02155094    0.00000000
     atom   30 type  2   force =    -0.00000036   -0.00251648    0.00000000
     atom   31 type  1   force =     0.00000035   -0.02162662    0.00000035
     atom   32 type  2   force =     0.00000000   -0.00251648   -0.00000036

     Total force =     0.087086     Total SCF correction =     0.000497


     Computing stress (Cartesian axis) and pressure


     negative rho (up, down):  0.000E+00 1.689E-04
          total   stress  (Ry/bohr**3)                   (kbar)     P=       16.38
   0.00003850   0.00000000   0.00000000            5.66        0.00        0.00
   0.00000000   0.00025710   0.00000000            0.00       37.82        0.00
   0.00000000   0.00000000   0.00003850            0.00        0.00        5.66

     Energy error            =      8.9E-03
     Gradient error          =      2.2E-02

     number of scf cycles    =   2
     number of bfgs steps    =   1

     energy   old            =  -10534.9722917933 Ry
     energy   new            =  -10534.9811568935 Ry

     CASE: energy  _new < energy  _old


     WARNING: bfgs curvature condition failed, Theta= 0.890
     new trust radius        =       0.0266739722 bohr
     new conv_thr            =       0.0000000217 Ry


ATOMIC_POSITIONS (crystal)
Fe1           0.0000000000        0.0001814261        0.0000000000
Fe2           0.2500008859        0.1587099188        0.0000000000
Fe1           0.2499986944        0.0001685192        0.2499986944
Fe2           0.0000000000        0.1587099188        0.2500008859
Fe1           0.0000000000        0.0001825864        0.5000000000
Fe2           0.2499997963        0.1587096309        0.5000000000
Fe1           0.2499986944        0.0001685192        0.7500013056
Fe2          -0.0000000000        0.1587099188        0.7499991141
Fe1           0.0000000000        0.6850662131        0.0000000000
Fe2           0.2500024752        0.8435577440        0.0000000000
Fe1           0.2499993531        0.6850485956        0.2499993531
Fe2           0.0000000000        0.8435577440        0.2500024752
Fe1           0.0000000000        0.6850648110        0.5000000000
Fe2           0.2500013413        0.8435580842        0.5000000000
Fe1           0.2499993531        0.6850485956        0.7500006469
Fe2           0.0000000000        0.8435577440        0.7499975248
Fe1           0.5000000000        0.0001825864        0.0000000000
Fe2           0.7499991141        0.1587099188        0.0000000000
Fe1           0.7500013056        0.0001685192        0.2499986944
Fe2           0.5000000000        0.1587096309        0.2499997963
Fe1           0.5000000000        0.0001844119        0.5000000000
Fe2           0.7500002037        0.1587096309        0.5000000000
Fe1           0.7500013056        0.0001685192        0.7500013056
Fe2           0.5000000000        0.1587096309        0.7500002037
Fe1           0.5000000000        0.6850648110        0.0000000000
Fe2           0.7499975248        0.8435577440        0.0000000000
Fe1           0.7500006469        0.6850485956        0.2499993531
Fe2           0.5000000000        0.8435580842        0.2500013413
Fe1           0.5000000000        0.6850631828        0.5000000000
Fe2           0.7499986587        0.8435580842        0.5000000000
Fe1           0.7500006469        0.6850485956        0.7500006469
Fe2           0.5000000000        0.8435580842        0.7499986587



     Writing output data file /scratch/qIzVwoxYQMYFpMVq.save/
     NEW-OLD atomic charge density approx. for the potential

     Check: negative core charge=   -0.000005
     Generating pointlists ...

     total cpu time spent up to now is     7292.3 secs

     Self-consistent Calculation

     iteration #  1     ecut=    71.00 Ry     beta= 0.10
     Davidson diagonalization with overlap
     ethr =  1.00E-06,  avg # of iterations =  8.0

     total cpu time spent up to now is     7636.0 secs

     total energy              =  -10534.98287579 Ry
     estimated scf accuracy    <       0.02675435 Ry

     total magnetization       =     0.00 Bohr mag/cell
     absolute magnetization    =    54.26 Bohr mag/cell

     iteration #  2     ecut=    71.00 Ry     beta= 0.10
     Davidson diagonalization with overlap
     ethr =  5.23E-06,  avg # of iterations =  1.0

     total cpu time spent up to now is     7753.1 secs

     total energy              =  -10534.98417779 Ry
     estimated scf accuracy    <       0.00788313 Ry

     total magnetization       =     0.00 Bohr mag/cell
     absolute magnetization    =    54.31 Bohr mag/cell

     iteration #  3     ecut=    71.00 Ry     beta= 0.10
     Davidson diagonalization with overlap
     ethr =  1.54E-06,  avg # of iterations =  2.1

     total cpu time spent up to now is     7884.6 secs

     total energy              =  -10534.98702550 Ry
     estimated scf accuracy    <       0.00185896 Ry

     total magnetization       =     0.00 Bohr mag/cell
     absolute magnetization    =    54.36 Bohr mag/cell

     iteration #  4     ecut=    71.00 Ry     beta= 0.10
     Davidson diagonalization with overlap
     ethr =  3.63E-07,  avg # of iterations =  2.0

     total cpu time spent up to now is     8041.8 secs

     total energy              =  -10534.98845913 Ry
     estimated scf accuracy    <       0.00068674 Ry

     total magnetization       =     0.00 Bohr mag/cell
     absolute magnetization    =    54.43 Bohr mag/cell

     iteration #  5     ecut=    71.00 Ry     beta= 0.10
     Davidson diagonalization with overlap
     ethr =  1.34E-07,  avg # of iterations =  2.0

     total cpu time spent up to now is     8176.2 secs

     total energy              =  -10534.98957013 Ry
     estimated scf accuracy    <       0.00052156 Ry

     total magnetization       =     0.00 Bohr mag/cell
     absolute magnetization    =    54.46 Bohr mag/cell

     iteration #  6     ecut=    71.00 Ry     beta= 0.10
     Davidson diagonalization with overlap
     ethr =  1.02E-07,  avg # of iterations =  2.1

     total cpu time spent up to now is     8332.6 secs

     total energy              =  -10534.98977745 Ry
     estimated scf accuracy    <       0.00004556 Ry

     total magnetization       =     0.00 Bohr mag/cell
     absolute magnetization    =    54.57 Bohr mag/cell

     iteration #  7     ecut=    71.00 Ry     beta= 0.10
     Davidson diagonalization with overlap
     ethr =  8.90E-09,  avg # of iterations =  2.8

     total cpu time spent up to now is     8493.0 secs

     total energy              =  -10534.98984909 Ry
     estimated scf accuracy    <       0.00002232 Ry

     total magnetization       =     0.00 Bohr mag/cell
     absolute magnetization    =    54.60 Bohr mag/cell

     iteration #  8     ecut=    71.00 Ry     beta= 0.10
     Davidson diagonalization with overlap
     ethr =  4.36E-09,  avg # of iterations =  2.0

     total cpu time spent up to now is     8650.3 secs

     total energy              =  -10534.98986411 Ry
     estimated scf accuracy    <       0.00000635 Ry

     total magnetization       =     0.00 Bohr mag/cell
     absolute magnetization    =    54.61 Bohr mag/cell

     iteration #  9     ecut=    71.00 Ry     beta= 0.10
     Davidson diagonalization with overlap
     ethr =  1.24E-09,  avg # of iterations =  2.0

     total cpu time spent up to now is     8782.2 secs

     total energy              =  -10534.98987739 Ry
     estimated scf accuracy    <       0.00000586 Ry

     total magnetization       =     0.00 Bohr mag/cell
     absolute magnetization    =    54.62 Bohr mag/cell

     iteration # 10     ecut=    71.00 Ry     beta= 0.10
     Davidson diagonalization with overlap
     ethr =  1.15E-09,  avg # of iterations =  2.0

     total cpu time spent up to now is     8923.3 secs

     total energy              =  -10534.98988851 Ry
     estimated scf accuracy    <       0.00000277 Ry

     total magnetization       =     0.00 Bohr mag/cell
     absolute magnetization    =    54.65 Bohr mag/cell

     iteration # 11     ecut=    71.00 Ry     beta= 0.10
     Davidson diagonalization with overlap
     ethr =  5.41E-10,  avg # of iterations =  2.8

     total cpu time spent up to now is     9079.2 secs

     total energy              =  -10534.98989525 Ry
     estimated scf accuracy    <       0.00000304 Ry

     total magnetization       =     0.00 Bohr mag/cell
     absolute magnetization    =    54.67 Bohr mag/cell

     iteration # 12     ecut=    71.00 Ry     beta= 0.10
     Davidson diagonalization with overlap
     ethr =  5.41E-10,  avg # of iterations =  1.8

     total cpu time spent up to now is     9207.9 secs

     total energy              =  -10534.98989922 Ry
     estimated scf accuracy    <       0.00000194 Ry

     total magnetization       =     0.00 Bohr mag/cell
     absolute magnetization    =    54.69 Bohr mag/cell

     iteration # 13     ecut=    71.00 Ry     beta= 0.10
     Davidson diagonalization with overlap
     ethr =  3.78E-10,  avg # of iterations =  3.4

     total cpu time spent up to now is     9367.0 secs

     total energy              =  -10534.98990463 Ry
     estimated scf accuracy    <       0.00000054 Ry

     total magnetization       =     0.00 Bohr mag/cell
     absolute magnetization    =    54.72 Bohr mag/cell

     iteration # 14     ecut=    71.00 Ry     beta= 0.10
     Davidson diagonalization with overlap
     ethr =  1.05E-10,  avg # of iterations =  3.7

     total cpu time spent up to now is     9530.0 secs

     total energy              =  -10534.98990791 Ry
     estimated scf accuracy    <       0.00000027 Ry

     total magnetization       =     0.00 Bohr mag/cell
     absolute magnetization    =    54.74 Bohr mag/cell

     iteration # 15     ecut=    71.00 Ry     beta= 0.10
     Davidson diagonalization with overlap
     ethr =  5.35E-11,  avg # of iterations =  2.0

     total cpu time spent up to now is     9680.6 secs

     total energy              =  -10534.98990979 Ry
     estimated scf accuracy    <       0.00000018 Ry

     total magnetization       =     0.00 Bohr mag/cell
     absolute magnetization    =    54.74 Bohr mag/cell

     iteration # 16     ecut=    71.00 Ry     beta= 0.10
     Davidson diagonalization with overlap
     ethr =  3.60E-11,  avg # of iterations =  3.0

     total cpu time spent up to now is     9840.6 secs

     total energy              =  -10534.98991190 Ry
     estimated scf accuracy    <       0.00000008 Ry

     total magnetization       =     0.00 Bohr mag/cell
     absolute magnetization    =    54.75 Bohr mag/cell

     iteration # 17     ecut=    71.00 Ry     beta= 0.10
     Davidson diagonalization with overlap
     ethr =  1.60E-11,  avg # of iterations =  2.0

     total cpu time spent up to now is     9992.2 secs

     total energy              =  -10534.98991329 Ry
     estimated scf accuracy    <       0.00000002 Ry

     total magnetization       =     0.00 Bohr mag/cell
     absolute magnetization    =    54.75 Bohr mag/cell

     iteration # 18     ecut=    71.00 Ry     beta= 0.10
     Davidson diagonalization with overlap
     ethr =  4.32E-12,  avg # of iterations =  2.2
 
     Magnetic moment per site:
     atom:    1    charge:   14.4578    magn:    1.0628    constr:    0.0000
     atom:    2    charge:   14.3035    magn:   -2.2016    constr:    0.0000
     atom:    3    charge:   14.4569    magn:    1.0819    constr:    0.0000
     atom:    4    charge:   14.3035    magn:   -2.2016    constr:    0.0000
     atom:    5    charge:   14.4578    magn:    1.0626    constr:    0.0000
     atom:    6    charge:   14.3035    magn:   -2.2016    constr:    0.0000
     atom:    7    charge:   14.4569    magn:    1.0819    constr:    0.0000
     atom:    8    charge:   14.3035    magn:   -2.2016    constr:    0.0000
     atom:    9    charge:   14.3037    magn:    2.2007    constr:    0.0000
     atom:   10    charge:   14.4573    magn:   -1.0711    constr:    0.0000
     atom:   11    charge:   14.3029    magn:    2.2015    constr:    0.0000
     atom:   12    charge:   14.4573    magn:   -1.0711    constr:    0.0000
     atom:   13    charge:   14.3037    magn:    2.2007    constr:    0.0000
     atom:   14    charge:   14.4573    magn:   -1.0713    constr:    0.0000
     atom:   15    charge:   14.3029    magn:    2.2015    constr:    0.0000
     atom:   16    charge:   14.4573    magn:   -1.0711    constr:    0.0000
     atom:   17    charge:   14.4578    magn:    1.0626    constr:    0.0000
     atom:   18    charge:   14.3035    magn:   -2.2016    constr:    0.0000
     atom:   19    charge:   14.4569    magn:    1.0819    constr:    0.0000
     atom:   20    charge:   14.3035    magn:   -2.2016    constr:    0.0000
     atom:   21    charge:   14.4578    magn:    1.0625    constr:    0.0000
     atom:   22    charge:   14.3035    magn:   -2.2016    constr:    0.0000
     atom:   23    charge:   14.4569    magn:    1.0819    constr:    0.0000
     atom:   24    charge:   14.3035    magn:   -2.2016    constr:    0.0000
     atom:   25    charge:   14.3037    magn:    2.2007    constr:    0.0000
     atom:   26    charge:   14.4573    magn:   -1.0711    constr:    0.0000
     atom:   27    charge:   14.3029    magn:    2.2015    constr:    0.0000
     atom:   28    charge:   14.4573    magn:   -1.0713    constr:    0.0000
     atom:   29    charge:   14.3037    magn:    2.2007    constr:    0.0000
     atom:   30    charge:   14.4573    magn:   -1.0713    constr:    0.0000
     atom:   31    charge:   14.3029    magn:    2.2015    constr:    0.0000
     atom:   32    charge:   14.4573    magn:   -1.0713    constr:    0.0000

     total cpu time spent up to now is    10134.3 secs

     End of self-consistent calculation

     Number of k-points >= 100: set verbosity='high' to print the bands.

     the Fermi energy is    11.8414 ev

!    total energy              =  -10534.98991901 Ry

     total all-electron energy =    -81456.478977 Ry
     estimated scf accuracy    <       0.00000001 Ry
     smearing contrib. (-TS)   =       0.03480518 Ry
     internal energy E=F+TS    =  -10535.02472419 Ry

     The total energy is F=E-TS. E is the sum of the following terms:
     one-electron contribution =  -13118.28646880 Ry
     hartree contribution      =    6755.92429233 Ry
     xc contribution           =    -886.87027988 Ry
     ewald contribution        =    -636.41103970 Ry
     one-center paw contrib.   =   -2649.38122814 Ry

     total magnetization       =     0.00 Bohr mag/cell
     absolute magnetization    =    54.75 Bohr mag/cell

     convergence has been achieved in  18 iterations

     Forces acting on atoms (cartesian axes, Ry/au):

     atom    1 type  1   force =     0.00000000    0.00373058    0.00000000
     atom    2 type  2   force =    -0.00000285    0.01890908    0.00000000
     atom    3 type  1   force =     0.00000308    0.00366366    0.00000308
     atom    4 type  2   force =     0.00000000    0.01890908   -0.00000285
     atom    5 type  1   force =     0.00000000    0.00372842    0.00000000
     atom    6 type  2   force =    -0.00000012    0.01890941    0.00000000
     atom    7 type  1   force =     0.00000308    0.00366366   -0.00000308
     atom    8 type  2   force =     0.00000000    0.01890908    0.00000285
     atom    9 type  1   force =     0.00000000   -0.01913047    0.00000000
     atom   10 type  2   force =    -0.00000636   -0.00354818    0.00000000
     atom   11 type  1   force =     0.00000104   -0.01898305    0.00000104
     atom   12 type  2   force =    -0.00000000   -0.00354818   -0.00000636
     atom   13 type  1   force =     0.00000000   -0.01913157    0.00000000
     atom   14 type  2   force =    -0.00000229   -0.00354799    0.00000000
     atom   15 type  1   force =     0.00000104   -0.01898305   -0.00000104
     atom   16 type  2   force =     0.00000000   -0.00354818    0.00000636
     atom   17 type  1   force =     0.00000000    0.00372842    0.00000000
     atom   18 type  2   force =     0.00000285    0.01890908    0.00000000
     atom   19 type  1   force =    -0.00000308    0.00366366    0.00000308
     atom   20 type  2   force =     0.00000000    0.01890941   -0.00000012
     atom   21 type  1   force =     0.00000000    0.00372305    0.00000000
     atom   22 type  2   force =     0.00000012    0.01890941    0.00000000
     atom   23 type  1   force =    -0.00000308    0.00366366   -0.00000308
     atom   24 type  2   force =     0.00000000    0.01890941    0.00000012
     atom   25 type  1   force =     0.00000000   -0.01913157    0.00000000
     atom   26 type  2   force =     0.00000636   -0.00354818    0.00000000
     atom   27 type  1   force =    -0.00000104   -0.01898305    0.00000104
     atom   28 type  2   force =     0.00000000   -0.00354799   -0.00000229
     atom   29 type  1   force =     0.00000000   -0.01912856    0.00000000
     atom   30 type  2   force =     0.00000229   -0.00354799    0.00000000
     atom   31 type  1   force =    -0.00000104   -0.01898305   -0.00000104
     atom   32 type  2   force =     0.00000000   -0.00354799    0.00000229

     Total force =     0.077303     Total SCF correction =     0.000757


     Computing stress (Cartesian axis) and pressure

          total   stress  (Ry/bohr**3)                   (kbar)     P=       11.00
   0.00000867   0.00000000   0.00000000            1.27        0.00        0.00
   0.00000000   0.00020696   0.00000000            0.00       30.44        0.00
   0.00000000   0.00000000   0.00000867            0.00        0.00        1.27

     Energy error            =      8.8E-03
     Gradient error          =      1.9E-02

     number of scf cycles    =   3
     number of bfgs steps    =   2

     energy   old            =  -10534.9811568935 Ry
     energy   new            =  -10534.9899190100 Ry

     CASE: energy  _new < energy  _old

     new trust radius        =       0.0400109582 bohr
     new conv_thr            =       0.0000000191 Ry


ATOMIC_POSITIONS (crystal)
Fe1           0.0000000000        0.0004948594        0.0000000000
Fe2           0.2500008319        0.1606304545        0.0000000000
Fe1           0.2499986790        0.0004745051        0.2499986790
Fe2           0.0000000000        0.1606304545        0.2500008319
Fe1           0.0000000000        0.0004961636        0.5000000000
Fe2           0.2499997208        0.1606301142        0.5000000000
Fe1           0.2499986790        0.0004745051        0.7500013210
Fe2          -0.0000000000        0.1606304545        0.7499991681
Fe1           0.0000000000        0.6831341751        0.0000000000
Fe2           0.2500024964        0.8432558942        0.0000000000
Fe1           0.2499992946        0.6831240847        0.2499992946
Fe2          -0.0000000000        0.8432558942        0.2500024964
Fe1           0.0000000000        0.6831322967        0.5000000000
Fe2           0.2500014543        0.8432563225        0.5000000000
Fe1           0.2499992946        0.6831240847        0.7500007054
Fe2           0.0000000000        0.8432558942        0.7499975036
Fe1           0.5000000000        0.0004961636        0.0000000000
Fe2           0.7499991681        0.1606304545        0.0000000000
Fe1           0.7500013210        0.0004745051        0.2499986790
Fe2           0.5000000000        0.1606301142        0.2499997208
Fe1           0.5000000000        0.0004981549        0.5000000000
Fe2           0.7500002792        0.1606301142        0.5000000000
Fe1           0.7500013210        0.0004745051        0.7500013210
Fe2           0.5000000000        0.1606301142        0.7500002792
Fe1           0.5000000000        0.6831322967        0.0000000000
Fe2           0.7499975036        0.8432558942        0.0000000000
Fe1           0.7500007054        0.6831240847        0.2499992946
Fe2           0.5000000000        0.8432563225        0.2500014543
Fe1           0.5000000000        0.6831303894        0.5000000000
Fe2           0.7499985457        0.8432563225        0.5000000000
Fe1           0.7500007054        0.6831240847        0.7500007054
Fe2           0.5000000000        0.8432563225        0.7499985457



     Writing output data file /scratch/qIzVwoxYQMYFpMVq.save/
     NEW-OLD atomic charge density approx. for the potential

     Check: negative core charge=   -0.000005

     negative rho (up, down):  0.000E+00 7.586E-04
     Generating pointlists ...

     total cpu time spent up to now is    10346.5 secs

     Self-consistent Calculation

     iteration #  1     ecut=    71.00 Ry     beta= 0.10
     Davidson diagonalization with overlap
     ethr =  1.00E-06,  avg # of iterations =  8.2

     negative rho (up, down):  0.000E+00 7.515E-04

     total cpu time spent up to now is    10731.0 secs

     total energy              =  -10534.98436226 Ry
     estimated scf accuracy    <       0.06567302 Ry

     total magnetization       =     0.00 Bohr mag/cell
     absolute magnetization    =    55.31 Bohr mag/cell

     iteration #  2     ecut=    71.00 Ry     beta= 0.10
     Davidson diagonalization with overlap
     ethr =  1.28E-05,  avg # of iterations =  1.0

     negative rho (up, down):  0.000E+00 7.269E-04

     total cpu time spent up to now is    10847.5 secs

     total energy              =  -10534.98758094 Ry
     estimated scf accuracy    <       0.01895119 Ry

     total magnetization       =     0.00 Bohr mag/cell
     absolute magnetization    =    55.38 Bohr mag/cell

     iteration #  3     ecut=    71.00 Ry     beta= 0.10
     Davidson diagonalization with overlap
     ethr =  3.70E-06,  avg # of iterations =  2.0

     negative rho (up, down):  0.000E+00 6.660E-04

     total cpu time spent up to now is    10978.9 secs

     total energy              =  -10534.99457450 Ry
     estimated scf accuracy    <       0.00417191 Ry

     total magnetization       =     0.00 Bohr mag/cell
     absolute magnetization    =    55.45 Bohr mag/cell

     iteration #  4     ecut=    71.00 Ry     beta= 0.10
     Davidson diagonalization with overlap
     ethr =  8.15E-07,  avg # of iterations =  2.4

     negative rho (up, down):  0.000E+00 6.371E-04

     total cpu time spent up to now is    11138.5 secs

     total energy              =  -10534.99827699 Ry
     estimated scf accuracy    <       0.00155365 Ry

     total magnetization       =     0.00 Bohr mag/cell
     absolute magnetization    =    55.55 Bohr mag/cell

     iteration #  5     ecut=    71.00 Ry     beta= 0.10
     Davidson diagonalization with overlap
     ethr =  3.03E-07,  avg # of iterations =  2.0

     negative rho (up, down):  0.000E+00 5.525E-04

     total cpu time spent up to now is    11275.7 secs

     total energy              =  -10535.00044656 Ry
     estimated scf accuracy    <       0.00185965 Ry

     total magnetization       =     0.00 Bohr mag/cell
     absolute magnetization    =    55.62 Bohr mag/cell

     iteration #  6     ecut=    71.00 Ry     beta= 0.10
     Davidson diagonalization with overlap
     ethr =  3.03E-07,  avg # of iterations =  2.0

     negative rho (up, down):  0.000E+00 5.372E-04

     total cpu time spent up to now is    11431.2 secs

     total energy              =  -10535.00095983 Ry
     estimated scf accuracy    <       0.00007366 Ry

     total magnetization       =     0.00 Bohr mag/cell
     absolute magnetization    =    55.76 Bohr mag/cell

     iteration #  7     ecut=    71.00 Ry     beta= 0.10
     Davidson diagonalization with overlap
     ethr =  1.44E-08,  avg # of iterations =  3.3

     negative rho (up, down):  0.000E+00 5.493E-04

     total cpu time spent up to now is    11594.3 secs

     total energy              =  -10535.00109706 Ry
     estimated scf accuracy    <       0.00005777 Ry

     total magnetization       =     0.00 Bohr mag/cell
     absolute magnetization    =    55.81 Bohr mag/cell

     iteration #  8     ecut=    71.00 Ry     beta= 0.10
     Davidson diagonalization with overlap
     ethr =  1.13E-08,  avg # of iterations =  2.0

     negative rho (up, down):  0.000E+00 5.466E-04

     total cpu time spent up to now is    11749.3 secs

     total energy              =  -10535.00113075 Ry
     estimated scf accuracy    <       0.00001502 Ry

     total magnetization       =     0.00 Bohr mag/cell
     absolute magnetization    =    55.83 Bohr mag/cell

     iteration #  9     ecut=    71.00 Ry     beta= 0.10
     Davidson diagonalization with overlap
     ethr =  2.93E-09,  avg # of iterations =  2.0

     negative rho (up, down):  0.000E+00 5.492E-04

     total cpu time spent up to now is    11886.2 secs

     total energy              =  -10535.00115787 Ry
     estimated scf accuracy    <       0.00001481 Ry

     total magnetization       =     0.00 Bohr mag/cell
     absolute magnetization    =    55.84 Bohr mag/cell

     iteration # 10     ecut=    71.00 Ry     beta= 0.10
     Davidson diagonalization with overlap
     ethr =  2.89E-09,  avg # of iterations =  2.0

     negative rho (up, down):  0.000E+00 5.498E-04

     total cpu time spent up to now is    12025.2 secs

     total energy              =  -10535.00117942 Ry
     estimated scf accuracy    <       0.00000639 Ry

     total magnetization       =     0.00 Bohr mag/cell
     absolute magnetization    =    55.90 Bohr mag/cell

     iteration # 11     ecut=    71.00 Ry     beta= 0.10
     Davidson diagonalization with overlap
     ethr =  1.25E-09,  avg # of iterations =  2.4

     negative rho (up, down):  0.000E+00 5.520E-04

     total cpu time spent up to now is    12170.1 secs

     total energy              =  -10535.00119367 Ry
     estimated scf accuracy    <       0.00000644 Ry

     total magnetization       =     0.00 Bohr mag/cell
     absolute magnetization    =    55.93 Bohr mag/cell

     iteration # 12     ecut=    71.00 Ry     beta= 0.10
     Davidson diagonalization with overlap
     ethr =  1.25E-09,  avg # of iterations =  2.2

     negative rho (up, down):  0.000E+00 5.582E-04

     total cpu time spent up to now is    12305.8 secs

     total energy              =  -10535.00120067 Ry
     estimated scf accuracy    <       0.00000284 Ry

     total magnetization       =     0.00 Bohr mag/cell
     absolute magnetization    =    55.96 Bohr mag/cell

     iteration # 13     ecut=    71.00 Ry     beta= 0.10
     Davidson diagonalization with overlap
     ethr =  5.54E-10,  avg # of iterations =  4.0

     negative rho (up, down):  0.000E+00 5.575E-04

     total cpu time spent up to now is    12479.6 secs

     total energy              =  -10535.00121621 Ry
     estimated scf accuracy    <       0.00000111 Ry

     total magnetization       =     0.00 Bohr mag/cell
     absolute magnetization    =    56.02 Bohr mag/cell

     iteration # 14     ecut=    71.00 Ry     beta= 0.10
     Davidson diagonalization with overlap
     ethr =  2.17E-10,  avg # of iterations =  2.0

     negative rho (up, down):  0.000E+00 5.564E-04

     total cpu time spent up to now is    12628.0 secs

     total energy              =  -10535.00122215 Ry
     estimated scf accuracy    <       0.00000090 Ry

     total magnetization       =     0.00 Bohr mag/cell
     absolute magnetization    =    56.03 Bohr mag/cell

     iteration # 15     ecut=    71.00 Ry     beta= 0.10
     Davidson diagonalization with overlap
     ethr =  1.76E-10,  avg # of iterations =  2.0

     negative rho (up, down):  0.000E+00 5.553E-04

     total cpu time spent up to now is    12762.9 secs

     total energy              =  -10535.00122659 Ry
     estimated scf accuracy    <       0.00000050 Ry

     total magnetization       =     0.00 Bohr mag/cell
     absolute magnetization    =    56.03 Bohr mag/cell

     iteration # 16     ecut=    71.00 Ry     beta= 0.10
     Davidson diagonalization with overlap
     ethr =  9.80E-11,  avg # of iterations =  2.7

     negative rho (up, down):  0.000E+00 5.547E-04

     total cpu time spent up to now is    12918.7 secs

     total energy              =  -10535.00123071 Ry
     estimated scf accuracy    <       0.00000008 Ry

     total magnetization       =     0.00 Bohr mag/cell
     absolute magnetization    =    56.04 Bohr mag/cell

     iteration # 17     ecut=    71.00 Ry     beta= 0.10
     Davidson diagonalization with overlap
     ethr =  1.55E-11,  avg # of iterations =  2.0

     negative rho (up, down):  0.000E+00 5.546E-04

     total cpu time spent up to now is    13072.1 secs

     total energy              =  -10535.00123362 Ry
     estimated scf accuracy    <       0.00000004 Ry

     total magnetization       =     0.00 Bohr mag/cell
     absolute magnetization    =    56.04 Bohr mag/cell

[...]
Fe1           0.2499994723        0.6717129598        0.7500005277
Fe2           0.0000000000        0.8389144764        0.7499990485
Fe1           0.5000000000        0.0048651660        0.0000000000
Fe2           0.7500001354        0.1720169376        0.0000000000
Fe1           0.7500002767        0.0048305255        0.2499997233
Fe2           0.5000000000        0.1720169801        0.2499995575
Fe1           0.5000000000        0.0048666076        0.5000000000
Fe2           0.7500004425        0.1720169801        0.5000000000
Fe1           0.7500002767        0.0048305255        0.7500002767
Fe2           0.5000000000        0.1720169801        0.7500004425
Fe1           0.5000000000        0.6717283864        0.0000000000
Fe2           0.7499990485        0.8389144764        0.0000000000
Fe1           0.7500005277        0.6717129598        0.2499994723
Fe2           0.5000000000        0.8389144129        0.2500008080
Fe1           0.5000000000        0.6717258044        0.5000000000
Fe2           0.7499991920        0.8389144129        0.5000000000
Fe1           0.7500005277        0.6717129598        0.7500005277
Fe2           0.5000000000        0.8389144129        0.7499991920



     Writing output data file /scratch/qIzVwoxYQMYFpMVq.save/
     NEW-OLD atomic charge density approx. for the potential

     Check: negative core charge=   -0.000005

     negative rho (up, down):  0.000E+00 4.937E-05
     Generating pointlists ...

     total cpu time spent up to now is    33382.6 secs

     Self-consistent Calculation

     iteration #  1     ecut=    71.00 Ry     beta= 0.10
     Davidson diagonalization with overlap
     ethr =  1.00E-06,  avg # of iterations =  4.6

     Threshold (ethr) on eigenvalues was too large:
     Diagonalizing with lowered threshold

     Davidson diagonalization with overlap
     ethr =  1.02E-08,  avg # of iterations =  4.0

     negative rho (up, down):  0.000E+00 5.095E-05

     total cpu time spent up to now is    33748.2 secs

     total energy              =  -10535.03222187 Ry
     estimated scf accuracy    <       0.00006240 Ry

     total magnetization       =    -0.00 Bohr mag/cell
     absolute magnetization    =    63.60 Bohr mag/cell

     iteration #  2     ecut=    71.00 Ry     beta= 0.10
     Davidson diagonalization with overlap
     ethr =  1.22E-08,  avg # of iterations =  1.0

     negative rho (up, down):  0.000E+00 5.346E-05

     total cpu time spent up to now is    33863.5 secs

     total energy              =  -10535.03222568 Ry
     estimated scf accuracy    <       0.00002279 Ry

     total magnetization       =    -0.00 Bohr mag/cell
     absolute magnetization    =    63.60 Bohr mag/cell

     iteration #  3     ecut=    71.00 Ry     beta= 0.10
     Davidson diagonalization with overlap
     ethr =  4.45E-09,  avg # of iterations =  2.0

     negative rho (up, down):  0.000E+00 5.795E-05

     total cpu time spent up to now is    33995.4 secs

     total energy              =  -10535.03223320 Ry
     estimated scf accuracy    <       0.00000443 Ry

     total magnetization       =    -0.00 Bohr mag/cell
     absolute magnetization    =    63.60 Bohr mag/cell

     iteration #  4     ecut=    71.00 Ry     beta= 0.10
     Davidson diagonalization with overlap
     ethr =  8.65E-10,  avg # of iterations =  2.2

     negative rho (up, down):  0.000E+00 5.802E-05

     total cpu time spent up to now is    34148.1 secs

     total energy              =  -10535.03223597 Ry
     estimated scf accuracy    <       0.00000202 Ry

     total magnetization       =    -0.00 Bohr mag/cell
     absolute magnetization    =    63.60 Bohr mag/cell

     iteration #  5     ecut=    71.00 Ry     beta= 0.10
     Davidson diagonalization with overlap
     ethr =  3.94E-10,  avg # of iterations =  1.0

     negative rho (up, down):  0.000E+00 5.996E-05

     total cpu time spent up to now is    34264.2 secs

     total energy              =  -10535.03223980 Ry
     estimated scf accuracy    <       0.00000131 Ry

     total magnetization       =    -0.00 Bohr mag/cell
     absolute magnetization    =    63.59 Bohr mag/cell

     iteration #  6     ecut=    71.00 Ry     beta= 0.10
     Davidson diagonalization with overlap
     ethr =  2.57E-10,  avg # of iterations =  2.1

     negative rho (up, down):  0.000E+00 6.095E-05

     total cpu time spent up to now is    34416.2 secs

     total energy              =  -10535.03224067 Ry
     estimated scf accuracy    <       0.00000074 Ry

     total magnetization       =    -0.00 Bohr mag/cell
     absolute magnetization    =    63.59 Bohr mag/cell

     iteration #  7     ecut=    71.00 Ry     beta= 0.10
     Davidson diagonalization with overlap
     ethr =  1.45E-10,  avg # of iterations =  2.0

     negative rho (up, down):  0.000E+00 6.059E-05

     total cpu time spent up to now is    34566.2 secs

     total energy              =  -10535.03224104 Ry
     estimated scf accuracy    <       0.00000004 Ry

     total magnetization       =    -0.00 Bohr mag/cell
     absolute magnetization    =    63.59 Bohr mag/cell

     iteration #  8     ecut=    71.00 Ry     beta= 0.10
     Davidson diagonalization with overlap
     ethr =  8.67E-12,  avg # of iterations =  2.4

     negative rho (up, down):  0.000E+00 6.078E-05

     total cpu time spent up to now is    34722.0 secs

     total energy              =  -10535.03224104 Ry
     estimated scf accuracy    <       0.00000003 Ry

     total magnetization       =    -0.00 Bohr mag/cell
     absolute magnetization    =    63.59 Bohr mag/cell

     iteration #  9     ecut=    71.00 Ry     beta= 0.10
     Davidson diagonalization with overlap
     ethr =  5.77E-12,  avg # of iterations =  2.0

     negative rho (up, down):  0.000E+00 6.077E-05

     total cpu time spent up to now is    34871.7 secs

     total energy              =  -10535.03224107 Ry
     estimated scf accuracy    <       0.00000001 Ry

     total magnetization       =    -0.00 Bohr mag/cell
     absolute magnetization    =    63.59 Bohr mag/cell

     iteration # 10     ecut=    71.00 Ry     beta= 0.10
     Davidson diagonalization with overlap
     ethr =  2.51E-12,  avg # of iterations =  1.0

     negative rho (up, down):  0.000E+00 6.067E-05

     total cpu time spent up to now is    34987.0 secs

     total energy              =  -10535.03224112 Ry
     estimated scf accuracy    <       0.00000001 Ry

     total magnetization       =    -0.00 Bohr mag/cell
     absolute magnetization    =    63.59 Bohr mag/cell

     iteration # 11     ecut=    71.00 Ry     beta= 0.10
     Davidson diagonalization with overlap
     ethr =  2.37E-12,  avg # of iterations =  2.0

     negative rho (up, down):  0.000E+00 6.066E-05

     total cpu time spent up to now is    35140.5 secs

     total energy              =  -10535.03224115 Ry
     estimated scf accuracy    <          3.1E-09 Ry

     total magnetization       =    -0.00 Bohr mag/cell
     absolute magnetization    =    63.59 Bohr mag/cell

     iteration # 12     ecut=    71.00 Ry     beta= 0.10
     Davidson diagonalization with overlap
     ethr =  6.12E-13,  avg # of iterations =  3.0

     negative rho (up, down):  0.000E+00 6.068E-05

     total cpu time spent up to now is    35290.3 secs

     total energy              =  -10535.03224116 Ry
     estimated scf accuracy    <          2.7E-09 Ry

     total magnetization       =    -0.00 Bohr mag/cell
     absolute magnetization    =    63.58 Bohr mag/cell

     iteration # 13     ecut=    71.00 Ry     beta= 0.10
     Davidson diagonalization with overlap
     ethr =  5.21E-13,  avg # of iterations =  2.0

     negative rho (up, down):  0.000E+00 6.062E-05

     total cpu time spent up to now is    35428.0 secs

     total energy              =  -10535.03224118 Ry
     estimated scf accuracy    <          1.6E-09 Ry

     total magnetization       =    -0.00 Bohr mag/cell
     absolute magnetization    =    63.58 Bohr mag/cell

     iteration # 14     ecut=    71.00 Ry     beta= 0.10
     Davidson diagonalization with overlap
     ethr =  3.16E-13,  avg # of iterations =  2.5

     negative rho (up, down):  0.000E+00 6.069E-05
 
     Magnetic moment per site:
     atom:    1    charge:   14.3819    magn:    1.4878    constr:    0.0000
     atom:    2    charge:   14.2692    magn:   -2.3073    constr:    0.0000
     atom:    3    charge:   14.3812    magn:    1.4893    constr:    0.0000
     atom:    4    charge:   14.2692    magn:   -2.3073    constr:    0.0000
     atom:    5    charge:   14.3819    magn:    1.4878    constr:    0.0000
     atom:    6    charge:   14.2692    magn:   -2.3073    constr:    0.0000
     atom:    7    charge:   14.3812    magn:    1.4893    constr:    0.0000
     atom:    8    charge:   14.2692    magn:   -2.3073    constr:    0.0000
     atom:    9    charge:   14.2691    magn:    2.3074    constr:    0.0000
     atom:   10    charge:   14.3818    magn:   -1.4891    constr:    0.0000
     atom:   11    charge:   14.2684    magn:    2.3078    constr:    0.0000
     atom:   12    charge:   14.3818    magn:   -1.4891    constr:    0.0000
     atom:   13    charge:   14.2691    magn:    2.3074    constr:    0.0000
     atom:   14    charge:   14.3818    magn:   -1.4891    constr:    0.0000
     atom:   15    charge:   14.2684    magn:    2.3078    constr:    0.0000
     atom:   16    charge:   14.3818    magn:   -1.4891    constr:    0.0000
     atom:   17    charge:   14.3819    magn:    1.4878    constr:    0.0000
     atom:   18    charge:   14.2692    magn:   -2.3073    constr:    0.0000
     atom:   19    charge:   14.3812    magn:    1.4893    constr:    0.0000
     atom:   20    charge:   14.2692    magn:   -2.3073    constr:    0.0000
     atom:   21    charge:   14.3819    magn:    1.4878    constr:    0.0000
     atom:   22    charge:   14.2692    magn:   -2.3073    constr:    0.0000
     atom:   23    charge:   14.3812    magn:    1.4893    constr:    0.0000
     atom:   24    charge:   14.2692    magn:   -2.3073    constr:    0.0000
     atom:   25    charge:   14.2691    magn:    2.3074    constr:    0.0000
     atom:   26    charge:   14.3818    magn:   -1.4891    constr:    0.0000
     atom:   27    charge:   14.2684    magn:    2.3078    constr:    0.0000
     atom:   28    charge:   14.3818    magn:   -1.4891    constr:    0.0000
     atom:   29    charge:   14.2691    magn:    2.3075    constr:    0.0000
     atom:   30    charge:   14.3818    magn:   -1.4891    constr:    0.0000
     atom:   31    charge:   14.2684    magn:    2.3078    constr:    0.0000
     atom:   32    charge:   14.3818    magn:   -1.4891    constr:    0.0000

     total cpu time spent up to now is    35581.8 secs

     End of self-consistent calculation

     Number of k-points >= 100: set verbosity='high' to print the bands.

     the Fermi energy is    11.8990 ev

!    total energy              =  -10535.03224122 Ry

     total all-electron energy =    -81456.521299 Ry
     estimated scf accuracy    <          5.5E-10 Ry
     smearing contrib. (-TS)   =       0.03079354 Ry
     internal energy E=F+TS    =  -10535.06303476 Ry

     The total energy is F=E-TS. E is the sum of the following terms:
     one-electron contribution =  -11571.54217968 Ry
     hartree contribution      =    5984.05834552 Ry
     xc contribution           =    -886.41769058 Ry
     ewald contribution        =   -1411.80894018 Ry
     one-center paw contrib.   =   -2649.35256983 Ry

     total magnetization       =    -0.00 Bohr mag/cell
     absolute magnetization    =    63.58 Bohr mag/cell

     convergence has been achieved in  14 iterations

     negative rho (up, down):  0.000E+00 6.069E-05

     Forces acting on atoms (cartesian axes, Ry/au):

     atom    1 type  1   force =     0.00000000    0.00006816    0.00000000
     atom    2 type  2   force =    -0.00000046   -0.00007126    0.00000000
     atom    3 type  1   force =     0.00000080   -0.00000846    0.00000080
     atom    4 type  2   force =     0.00000000   -0.00007126   -0.00000046
     atom    5 type  1   force =     0.00000000    0.00006586    0.00000000
     atom    6 type  2   force =     0.00000027   -0.00007038    0.00000000
     atom    7 type  1   force =     0.00000080   -0.00000846   -0.00000080
     atom    8 type  2   force =     0.00000000   -0.00007126    0.00000046
     atom    9 type  1   force =     0.00000000   -0.00002196    0.00000000
     atom   10 type  2   force =    -0.00000188    0.00006231    0.00000000
     atom   11 type  1   force =     0.00000039   -0.00002049    0.00000039
     atom   12 type  2   force =     0.00000000    0.00006231   -0.00000188
     atom   13 type  1   force =     0.00000000   -0.00001849    0.00000000
     atom   14 type  2   force =    -0.00000133    0.00006128    0.00000000
     atom   15 type  1   force =     0.00000039   -0.00002049   -0.00000039
     atom   16 type  2   force =     0.00000000    0.00006231    0.00000188
     atom   17 type  1   force =     0.00000000    0.00006586    0.00000000
     atom   18 type  2   force =     0.00000046   -0.00007126    0.00000000
     atom   19 type  1   force =    -0.00000080   -0.00000846    0.00000080
     atom   20 type  2   force =     0.00000000   -0.00007038    0.00000027
     atom   21 type  1   force =     0.00000000    0.00006229    0.00000000
     atom   22 type  2   force =    -0.00000027   -0.00007038    0.00000000
     atom   23 type  1   force =    -0.00000080   -0.00000846   -0.00000080
     atom   24 type  2   force =     0.00000000   -0.00007038   -0.00000027
     atom   25 type  1   force =     0.00000000   -0.00001849    0.00000000
     atom   26 type  2   force =     0.00000188    0.00006231    0.00000000
     atom   27 type  1   force =    -0.00000039   -0.00002049    0.00000039
     atom   28 type  2   force =     0.00000000    0.00006128   -0.00000133
     atom   29 type  1   force =     0.00000000   -0.00001523    0.00000000
     atom   30 type  2   force =     0.00000133    0.00006128    0.00000000
     atom   31 type  1   force =    -0.00000039   -0.00002049   -0.00000039
     atom   32 type  2   force =     0.00000000    0.00006128    0.00000133

     Total force =     0.000302     Total SCF correction =     0.000085
     SCF correction compared to forces is large: reduce conv_thr to get better values


     Computing stress (Cartesian axis) and pressure


     negative rho (up, down):  0.000E+00 6.069E-05
          total   stress  (Ry/bohr**3)                   (kbar)     P=      -36.78
  -0.00023621   0.00000000   0.00000000          -34.75        0.00        0.00
   0.00000000  -0.00027761   0.00000000            0.00      -40.84        0.00
   0.00000000   0.00000000  -0.00023621            0.00        0.00      -34.75

     Energy error            =      1.9E-06
     Gradient error          =      7.1E-05

     bfgs converged in  11 scf cycles and  10 bfgs steps
     (criteria: energy <  1.0E-04 Ry, force <  1.0E-03 Ry/Bohr)

     End of BFGS Geometry Optimization

     Final energy   =  -10535.0322412193 Ry

     File /scratch/qIzVwoxYQMYFpMVq.bfgs deleted, as requested
Begin final coordinates

ATOMIC_POSITIONS (crystal)
Fe1           0.0000000000        0.0048641461        0.0000000000
Fe2           0.2499998646        0.1720169376        0.0000000000
Fe1           0.2499997233        0.0048305255        0.2499997233
Fe2           0.0000000000        0.1720169376        0.2499998646
Fe1           0.0000000000        0.0048651660        0.5000000000
Fe2           0.2499995575        0.1720169801        0.5000000000
Fe1           0.2499997233        0.0048305255        0.7500002767
Fe2          -0.0000000000        0.1720169376        0.7500001354
Fe1           0.0000000000        0.6717311681        0.0000000000
Fe2           0.2500009515        0.8389144764        0.0000000000
Fe1           0.2499994723        0.6717129598        0.2499994723
Fe2          -0.0000000000        0.8389144764        0.2500009515
Fe1           0.0000000000        0.6717283864        0.5000000000
Fe2           0.2500008080        0.8389144129        0.5000000000
Fe1           0.2499994723        0.6717129598        0.7500005277
Fe2           0.0000000000        0.8389144764        0.7499990485
Fe1           0.5000000000        0.0048651660        0.0000000000
Fe2           0.7500001354        0.1720169376        0.0000000000
Fe1           0.7500002767        0.0048305255        0.2499997233
Fe2           0.5000000000        0.1720169801        0.2499995575
Fe1           0.5000000000        0.0048666076        0.5000000000
Fe2           0.7500004425        0.1720169801        0.5000000000
Fe1           0.7500002767        0.0048305255        0.7500002767
Fe2           0.5000000000        0.1720169801        0.7500004425
Fe1           0.5000000000        0.6717283864        0.0000000000
Fe2           0.7499990485        0.8389144764        0.0000000000
Fe1           0.7500005277        0.6717129598        0.2499994723
Fe2           0.5000000000        0.8389144129        0.2500008080
Fe1           0.5000000000        0.6717258044        0.5000000000
Fe2           0.7499991920        0.8389144129        0.5000000000
Fe1           0.7500005277        0.6717129598        0.7500005277
Fe2           0.5000000000        0.8389144129        0.7499991920
End final coordinates



     Writing output data file /scratch/qIzVwoxYQMYFpMVq.save/
 
     init_run     :     43.07s CPU     44.01s WALL (       1 calls)
     electrons    :  33096.02s CPU  33449.95s WALL (      11 calls)
     update_pot   :      4.79s CPU      4.91s WALL (      10 calls)
     forces       :    271.66s CPU    273.97s WALL (      11 calls)
     stress       :   1936.07s CPU   1950.19s WALL (      11 calls)

     Called by init_run:
     wfcinit      :     42.06s CPU     42.88s WALL (       1 calls)
     potinit      :      0.32s CPU      0.34s WALL (       1 calls)
     hinit0       :      0.19s CPU      0.20s WALL (       1 calls)

     Called by electrons:
     c_bands      :  29411.13s CPU  29706.59s WALL (     216 calls)
     sum_band     :   3617.73s CPU   3669.07s WALL (     216 calls)
     v_of_rho     :      8.82s CPU      9.14s WALL (     226 calls)
     newd         :     12.43s CPU     16.07s WALL (     226 calls)
     PAW_pot      :     41.03s CPU     43.16s WALL (     236 calls)
     mix_rho      :      8.10s CPU      8.55s WALL (     216 calls)

     Called by c_bands:
     init_us_2    :    144.83s CPU    146.54s WALL (   69750 calls)
     cegterg      :  28840.75s CPU  29128.04s WALL (   32400 calls)

     Called by *egterg:
     cdiaghg      :   2978.62s CPU   2993.40s WALL (  113490 calls)
     h_psi        :  15311.54s CPU  15518.08s WALL (  115290 calls)
     s_psi        :   1338.89s CPU   1347.42s WALL (  115290 calls)
     g_psi        :     33.76s CPU     34.32s WALL (   82740 calls)

     Called by h_psi:
     h_psi:calbec :   2351.38s CPU   2366.63s WALL (  115290 calls)
     vloc_psi     :  11576.90s CPU  11752.67s WALL (  115290 calls)
     add_vuspsi   :   1290.98s CPU   1305.55s WALL (  115290 calls)

     General routines
     calbec       :   3775.47s CPU   3800.10s WALL (  157440 calls)
     fft          :      7.76s CPU      8.08s WALL (    6080 calls)
     ffts         :      4.39s CPU      4.47s WALL (    9270 calls)
     fftw         :  13619.56s CPU  13825.34s WALL (61913804 calls)
     interpolate  :      0.87s CPU      0.96s WALL (     452 calls)
 
     Parallel routines
     fft_scatt_xy :    713.21s CPU    724.12s WALL (61929154 calls)
     fft_scatt_yz :  11496.84s CPU  11672.62s WALL (61929154 calls)
 
     PWSCF        :      9h50m CPU      9h57m WALL

 
   This run was terminated on:  10:10: 8  16Jan2022            

=------------------------------------------------------------------------------=
   JOB DONE.
=------------------------------------------------------------------------------=
