
     Program PWSCF v.6.7MaX starts on 16Jan2022 at  9:24:18 

     This program is part of the open-source Quantum ESPRESSO suite
     for quantum simulation of materials; please cite
         "P. Giannozzi et al., J. Phys.:Condens. Matter 21 395502 (2009);
         "P. Giannozzi et al., J. Phys.:Condens. Matter 29 465901 (2017);
          URL http://www.quantum-espresso.org", 
     in publications or presentations arising from this work. More details at
     http://www.quantum-espresso.org/quote

     Parallel version (MPI & OpenMP), running on      72 processor cores
     Number of MPI processes:                72
     Threads/MPI process:                     1

     MPI processes distributed on     1 nodes
     R & G space division:  proc/nbgrp/npool/nimage =      72
     Reading input from relax_7.in
Warning: card &CELL ignored
Warning: card CELL_DYNAMICS = 'BFGS', ignored
Warning: card CELL_FACTOR = 2.0, ignored
Warning: card PRESS = 0.0, ignored
Warning: card / ignored

     Current dimensions of program PWSCF are:
     Max number of different atomic species (ntypx) = 10
     Max number of k-points (npk) =  40000
     Max angular momentum in pseudopotentials (lmaxx) =  3
     file Fe.pbe-spn-kjpaw_psl.1.0.0.UPF: wavefunction(s)  3P 3D renormalized
     file Fe.pbe-spn-kjpaw_psl.1.0.0.UPF: wavefunction(s)  3P 3D renormalized

     Subspace diagonalization in iterative solution of the eigenvalue problem:
     one sub-group per band group will be used
     ELPA distributed-memory algorithm (size of sub-group:  8*  8 procs)

     Found symmetry operation: I + (  0.2500  0.0000  0.2500)
     This is a supercell, fractional translations are disabled
     Message from routine setup:
     using ibrav=0 with symmetry is DISCOURAGED, use correct ibrav instead
 
     Parallelization info
     --------------------
     sticks:   dense  smooth     PW     G-vecs:    dense   smooth      PW
     Min         119      78     21                 6789     3644     519
     Max         120      79     23                 6793     3649     522
     Sum        8581    5673   1555               488985   262593   37431
 


     bravais-lattice index     =            0
     lattice parameter (alat)  =      12.9382  a.u.
     unit-cell volume          =    3248.7166 (a.u.)^3
     number of atoms/cell      =           32
     number of atomic types    =            2
     number of electrons       =       512.00
     number of Kohn-Sham states=          325
     kinetic-energy cutoff     =      71.0000  Ry
     charge density cutoff     =     430.0000  Ry
     scf convergence threshold =      1.0E-07
     mixing beta               =       0.1000
     number of iterations used =           10  local-TF  mixing
     energy convergence thresh.=      1.0E-04
     force convergence thresh. =      1.0E-03
     Exchange-correlation= SLA  PW   PBX  PBC
                           (   1   4   3   4   0   0   0)
     nstep                     =           50


     celldm(1)=  12.938190  celldm(2)=   0.000000  celldm(3)=   0.000000
     celldm(4)=   0.000000  celldm(5)=   0.000000  celldm(6)=   0.000000

     crystal axes: (cart. coord. in units of alat)
               a(1) = (   1.000000   0.000000   0.000000 )  
               a(2) = (   0.000000   1.500000   0.000000 )  
               a(3) = (   0.000000   0.000000   1.000000 )  

     reciprocal axes: (cart. coord. in units 2 pi/alat)
               b(1) = (  1.000000  0.000000  0.000000 )  
               b(2) = (  0.000000  0.666667  0.000000 )  
               b(3) = (  0.000000  0.000000  1.000000 )  


     PseudoPot. # 1 for Fe read from file:
     /rds/homes/b/bxp912/pp/Fe.pbe-spn-kjpaw_psl.1.0.0.UPF
     MD5 check sum: 42f43b795421b414b0dc916aa790dbcb
     Pseudo is Projector augmented-wave + core cor, Zval = 16.0
     Generated using &quot;atomic&quot; code by A. Dal Corso  v.6.3
     Shape of augmentation charge: PSQ
     Using radial grid of 1191 points,  6 beta functions with: 
                l(1) =   0
                l(2) =   0
                l(3) =   1
                l(4) =   1
                l(5) =   2
                l(6) =   2
     Q(r) pseudized with 0 coefficients 


     PseudoPot. # 2 for Fe read from file:
     /rds/homes/b/bxp912/pp/Fe.pbe-spn-kjpaw_psl.1.0.0.UPF
     MD5 check sum: 42f43b795421b414b0dc916aa790dbcb
     Pseudo is Projector augmented-wave + core cor, Zval = 16.0
     Generated using &quot;atomic&quot; code by A. Dal Corso  v.6.3
     Shape of augmentation charge: PSQ
     Using radial grid of 1191 points,  6 beta functions with: 
                l(1) =   0
                l(2) =   0
                l(3) =   1
                l(4) =   1
                l(5) =   2
                l(6) =   2
     Q(r) pseudized with 0 coefficients 


     atomic species   valence    mass     pseudopotential
        Fe1           16.00    55.84500     Fe( 1.00)
        Fe2           16.00    55.84500     Fe( 1.00)

     Starting magnetic structure 
     atomic species   magnetization
        Fe1          0.100
        Fe2         -0.100

      8 Sym. Ops. (no inversion) found



   Cartesian axes

     site n.     atom                  positions (alat units)
         1           Fe1 tau(   1) = (   0.0000000   0.0000000   0.0000000  )
         2           Fe2 tau(   2) = (   0.2500000   0.2500000   0.0000000  )
         3           Fe1 tau(   3) = (   0.2500000   0.0000000   0.2500000  )
         4           Fe2 tau(   4) = (   0.0000000   0.2500000   0.2500000  )
         5           Fe1 tau(   5) = (   0.0000000   0.0000000   0.5000000  )
         6           Fe2 tau(   6) = (   0.2500000   0.2500000   0.5000000  )
         7           Fe1 tau(   7) = (   0.2500000   0.0000000   0.7500000  )
         8           Fe2 tau(   8) = (   0.0000000   0.2500000   0.7500000  )
         9           Fe1 tau(   9) = (   0.0000000   1.0000000   0.0000000  )
        10           Fe2 tau(  10) = (   0.2500000   1.2500000   0.0000000  )
        11           Fe1 tau(  11) = (   0.2500000   1.0000000   0.2500000  )
        12           Fe2 tau(  12) = (   0.0000000   1.2500000   0.2500000  )
        13           Fe1 tau(  13) = (   0.0000000   1.0000000   0.5000000  )
        14           Fe2 tau(  14) = (   0.2500000   1.2500000   0.5000000  )
        15           Fe1 tau(  15) = (   0.2500000   1.0000000   0.7500000  )
        16           Fe2 tau(  16) = (   0.0000000   1.2500000   0.7500000  )
        17           Fe1 tau(  17) = (   0.5000000   0.0000000   0.0000000  )
        18           Fe2 tau(  18) = (   0.7500000   0.2500000   0.0000000  )
        19           Fe1 tau(  19) = (   0.7500000   0.0000000   0.2500000  )
        20           Fe2 tau(  20) = (   0.5000000   0.2500000   0.2500000  )
        21           Fe1 tau(  21) = (   0.5000000   0.0000000   0.5000000  )
        22           Fe2 tau(  22) = (   0.7500000   0.2500000   0.5000000  )
        23           Fe1 tau(  23) = (   0.7500000   0.0000000   0.7500000  )
        24           Fe2 tau(  24) = (   0.5000000   0.2500000   0.7500000  )
        25           Fe1 tau(  25) = (   0.5000000   1.0000000   0.0000000  )
        26           Fe2 tau(  26) = (   0.7500000   1.2500000   0.0000000  )
        27           Fe1 tau(  27) = (   0.7500000   1.0000000   0.2500000  )
        28           Fe2 tau(  28) = (   0.5000000   1.2500000   0.2500000  )
        29           Fe1 tau(  29) = (   0.5000000   1.0000000   0.5000000  )
        30           Fe2 tau(  30) = (   0.7500000   1.2500000   0.5000000  )
        31           Fe1 tau(  31) = (   0.7500000   1.0000000   0.7500000  )
        32           Fe2 tau(  32) = (   0.5000000   1.2500000   0.7500000  )

     number of k points=    75  Marzari-Vanderbilt smearing, width (Ry)=  0.0400
                       cart. coord. in units 2pi/alat
        k(    1) = (   0.0555556   0.0370370   0.0555556), wk =   0.0109739
        k(    2) = (   0.0555556   0.0370370   0.1666667), wk =   0.0219479
        k(    3) = (   0.0555556   0.0370370   0.2777778), wk =   0.0219479
        k(    4) = (   0.0555556   0.0370370   0.3888889), wk =   0.0219479
        k(    5) = (   0.0555556   0.0370370  -0.5000000), wk =   0.0109739
        k(    6) = (   0.0555556   0.1111111   0.0555556), wk =   0.0109739
        k(    7) = (   0.0555556   0.1111111   0.1666667), wk =   0.0219479
        k(    8) = (   0.0555556   0.1111111   0.2777778), wk =   0.0219479
        k(    9) = (   0.0555556   0.1111111   0.3888889), wk =   0.0219479
        k(   10) = (   0.0555556   0.1111111  -0.5000000), wk =   0.0109739
        k(   11) = (   0.0555556   0.1851852   0.0555556), wk =   0.0109739
        k(   12) = (   0.0555556   0.1851852   0.1666667), wk =   0.0219479
        k(   13) = (   0.0555556   0.1851852   0.2777778), wk =   0.0219479
        k(   14) = (   0.0555556   0.1851852   0.3888889), wk =   0.0219479
        k(   15) = (   0.0555556   0.1851852  -0.5000000), wk =   0.0109739
        k(   16) = (   0.0555556   0.2592593   0.0555556), wk =   0.0109739
        k(   17) = (   0.0555556   0.2592593   0.1666667), wk =   0.0219479
        k(   18) = (   0.0555556   0.2592593   0.2777778), wk =   0.0219479
        k(   19) = (   0.0555556   0.2592593   0.3888889), wk =   0.0219479
        k(   20) = (   0.0555556   0.2592593  -0.5000000), wk =   0.0109739
        k(   21) = (   0.0555556  -0.3333333   0.0555556), wk =   0.0054870
        k(   22) = (   0.0555556  -0.3333333   0.1666667), wk =   0.0109739
        k(   23) = (   0.0555556  -0.3333333   0.2777778), wk =   0.0109739
        k(   24) = (   0.0555556  -0.3333333   0.3888889), wk =   0.0109739
        k(   25) = (   0.0555556  -0.3333333  -0.5000000), wk =   0.0054870
        k(   26) = (   0.1666667   0.0370370   0.1666667), wk =   0.0109739
        k(   27) = (   0.1666667   0.0370370   0.2777778), wk =   0.0219479
        k(   28) = (   0.1666667   0.0370370   0.3888889), wk =   0.0219479
        k(   29) = (   0.1666667   0.0370370  -0.5000000), wk =   0.0109739
        k(   30) = (   0.1666667   0.1111111   0.1666667), wk =   0.0109739
        k(   31) = (   0.1666667   0.1111111   0.2777778), wk =   0.0219479
        k(   32) = (   0.1666667   0.1111111   0.3888889), wk =   0.0219479
        k(   33) = (   0.1666667   0.1111111  -0.5000000), wk =   0.0109739
        k(   34) = (   0.1666667   0.1851852   0.1666667), wk =   0.0109739
        k(   35) = (   0.1666667   0.1851852   0.2777778), wk =   0.0219479
        k(   36) = (   0.1666667   0.1851852   0.3888889), wk =   0.0219479
        k(   37) = (   0.1666667   0.1851852  -0.5000000), wk =   0.0109739
        k(   38) = (   0.1666667   0.2592593   0.1666667), wk =   0.0109739
        k(   39) = (   0.1666667   0.2592593   0.2777778), wk =   0.0219479
        k(   40) = (   0.1666667   0.2592593   0.3888889), wk =   0.0219479
        k(   41) = (   0.1666667   0.2592593  -0.5000000), wk =   0.0109739
        k(   42) = (   0.1666667  -0.3333333   0.1666667), wk =   0.0054870
        k(   43) = (   0.1666667  -0.3333333   0.2777778), wk =   0.0109739
        k(   44) = (   0.1666667  -0.3333333   0.3888889), wk =   0.0109739
        k(   45) = (   0.1666667  -0.3333333  -0.5000000), wk =   0.0054870
        k(   46) = (   0.2777778   0.0370370   0.2777778), wk =   0.0109739
        k(   47) = (   0.2777778   0.0370370   0.3888889), wk =   0.0219479
        k(   48) = (   0.2777778   0.0370370  -0.5000000), wk =   0.0109739
        k(   49) = (   0.2777778   0.1111111   0.2777778), wk =   0.0109739
        k(   50) = (   0.2777778   0.1111111   0.3888889), wk =   0.0219479
        k(   51) = (   0.2777778   0.1111111  -0.5000000), wk =   0.0109739
        k(   52) = (   0.2777778   0.1851852   0.2777778), wk =   0.0109739
        k(   53) = (   0.2777778   0.1851852   0.3888889), wk =   0.0219479
        k(   54) = (   0.2777778   0.1851852  -0.5000000), wk =   0.0109739
        k(   55) = (   0.2777778   0.2592593   0.2777778), wk =   0.0109739
        k(   56) = (   0.2777778   0.2592593   0.3888889), wk =   0.0219479
        k(   57) = (   0.2777778   0.2592593  -0.5000000), wk =   0.0109739
        k(   58) = (   0.2777778  -0.3333333   0.2777778), wk =   0.0054870
        k(   59) = (   0.2777778  -0.3333333   0.3888889), wk =   0.0109739
        k(   60) = (   0.2777778  -0.3333333  -0.5000000), wk =   0.0054870
        k(   61) = (   0.3888889   0.0370370   0.3888889), wk =   0.0109739
        k(   62) = (   0.3888889   0.0370370  -0.5000000), wk =   0.0109739
        k(   63) = (   0.3888889   0.1111111   0.3888889), wk =   0.0109739
        k(   64) = (   0.3888889   0.1111111  -0.5000000), wk =   0.0109739
        k(   65) = (   0.3888889   0.1851852   0.3888889), wk =   0.0109739
        k(   66) = (   0.3888889   0.1851852  -0.5000000), wk =   0.0109739
        k(   67) = (   0.3888889   0.2592593   0.3888889), wk =   0.0109739
        k(   68) = (   0.3888889   0.2592593  -0.5000000), wk =   0.0109739
        k(   69) = (   0.3888889  -0.3333333   0.3888889), wk =   0.0054870
        k(   70) = (   0.3888889  -0.3333333  -0.5000000), wk =   0.0054870
        k(   71) = (  -0.5000000   0.0370370  -0.5000000), wk =   0.0027435
        k(   72) = (  -0.5000000   0.1111111  -0.5000000), wk =   0.0027435
        k(   73) = (  -0.5000000   0.1851852  -0.5000000), wk =   0.0027435
        k(   74) = (  -0.5000000   0.2592593  -0.5000000), wk =   0.0027435
        k(   75) = (  -0.5000000  -0.3333333  -0.5000000), wk =   0.0013717

     Dense  grid:   488985 G-vectors     FFT dimensions: (  90, 135,  90)

     Smooth grid:   262593 G-vectors     FFT dimensions: (  72, 108,  72)

     Estimated max dynamical RAM per process >     380.82 MB

     Estimated total dynamical RAM >      26.78 GB

     Check: negative core charge=   -0.000005
     Generating pointlists ...
     new r_m :   0.1458 (alat units)  1.8869 (a.u.) for type    1
     new r_m :   0.1458 (alat units)  1.8869 (a.u.) for type    2

     Initial potential from superposition of free atoms

     starting charge  511.98600, renormalised to  512.00000
     Starting wfcs are  320 randomized atomic wfcs +    5 random wfcs
     Checking if some PAW data can be deallocated... 

     total cpu time spent up to now is       46.3 secs

     Self-consistent Calculation

     iteration #  1     ecut=    71.00 Ry     beta= 0.10
     Davidson diagonalization with overlap
     ethr =  1.00E-02,  avg # of iterations =  3.0

     total cpu time spent up to now is      201.9 secs

     total energy              =  -10536.25978156 Ry
     estimated scf accuracy    <      31.93239400 Ry

     total magnetization       =     0.01 Bohr mag/cell
     absolute magnetization    =    45.30 Bohr mag/cell

     iteration #  2     ecut=    71.00 Ry     beta= 0.10
     Davidson diagonalization with overlap
     ethr =  6.24E-03,  avg # of iterations =  1.0

     total cpu time spent up to now is      313.7 secs

     total energy              =  -10535.89369479 Ry
     estimated scf accuracy    <       9.75400384 Ry

     total magnetization       =     0.04 Bohr mag/cell
     absolute magnetization    =    47.17 Bohr mag/cell

     iteration #  3     ecut=    71.00 Ry     beta= 0.10
     Davidson diagonalization with overlap
     ethr =  1.91E-03,  avg # of iterations =  1.0

     negative rho (up, down):  1.600E-03 2.977E-03

     total cpu time spent up to now is      425.6 secs

     total energy              =  -10534.59825231 Ry
     estimated scf accuracy    <       5.80132240 Ry

     total magnetization       =     0.07 Bohr mag/cell
     absolute magnetization    =    47.44 Bohr mag/cell

     iteration #  4     ecut=    71.00 Ry     beta= 0.10
     Davidson diagonalization with overlap
     ethr =  1.13E-03,  avg # of iterations =  2.1

     negative rho (up, down):  2.656E-03 3.671E-03

     total cpu time spent up to now is      558.3 secs

     total energy              =  -10534.93009621 Ry
     estimated scf accuracy    <       1.70049708 Ry

     total magnetization       =     0.07 Bohr mag/cell
     absolute magnetization    =    48.92 Bohr mag/cell

     iteration #  5     ecut=    71.00 Ry     beta= 0.10
     Davidson diagonalization with overlap
     ethr =  3.32E-04,  avg # of iterations =  5.7

     negative rho (up, down):  3.101E-04 1.870E-03

     total cpu time spent up to now is      706.6 secs

     total energy              =  -10535.01864904 Ry
     estimated scf accuracy    <       0.66832265 Ry

     total magnetization       =     0.12 Bohr mag/cell
     absolute magnetization    =    50.16 Bohr mag/cell

     iteration #  6     ecut=    71.00 Ry     beta= 0.10
     Davidson diagonalization with overlap
     ethr =  1.31E-04,  avg # of iterations =  3.8

     negative rho (up, down):  0.000E+00 2.424E-04

     total cpu time spent up to now is      839.2 secs

     total energy              =  -10534.96396086 Ry
     estimated scf accuracy    <       0.35155267 Ry

     total magnetization       =     0.10 Bohr mag/cell
     absolute magnetization    =    50.62 Bohr mag/cell

     iteration #  7     ecut=    71.00 Ry     beta= 0.10
     Davidson diagonalization with overlap
     ethr =  6.87E-05,  avg # of iterations =  5.0

     negative rho (up, down):  0.000E+00 2.132E-04

     total cpu time spent up to now is      976.0 secs

     total energy              =  -10534.97370865 Ry
     estimated scf accuracy    <       0.06798297 Ry

     total magnetization       =     0.10 Bohr mag/cell
     absolute magnetization    =    51.57 Bohr mag/cell

     iteration #  8     ecut=    71.00 Ry     beta= 0.10
     Davidson diagonalization with overlap
     ethr =  1.33E-05,  avg # of iterations =  6.4

     negative rho (up, down):  0.000E+00 2.919E-04

     total cpu time spent up to now is     1118.1 secs

     total energy              =  -10534.97459358 Ry
     estimated scf accuracy    <       0.04161319 Ry

     total magnetization       =     0.06 Bohr mag/cell
     absolute magnetization    =    51.91 Bohr mag/cell

     iteration #  9     ecut=    71.00 Ry     beta= 0.10
     Davidson diagonalization with overlap
     ethr =  8.13E-06,  avg # of iterations =  3.4

     negative rho (up, down):  0.000E+00 3.784E-04

     total cpu time spent up to now is     1249.7 secs

     total energy              =  -10534.97665771 Ry
     estimated scf accuracy    <       0.02224663 Ry

     total magnetization       =     0.01 Bohr mag/cell
     absolute magnetization    =    52.55 Bohr mag/cell

     iteration # 10     ecut=    71.00 Ry     beta= 0.10
     Davidson diagonalization with overlap
     ethr =  4.35E-06,  avg # of iterations =  2.8

     negative rho (up, down):  0.000E+00 3.677E-04

     total cpu time spent up to now is     1385.5 secs

     total energy              =  -10534.98006926 Ry
     estimated scf accuracy    <       0.01148965 Ry

     total magnetization       =     0.03 Bohr mag/cell
     absolute magnetization    =    52.96 Bohr mag/cell

     iteration # 11     ecut=    71.00 Ry     beta= 0.10
     Davidson diagonalization with overlap
     ethr =  2.24E-06,  avg # of iterations =  2.2

     negative rho (up, down):  0.000E+00 4.398E-04

     total cpu time spent up to now is     1506.9 secs

     total energy              =  -10534.98144573 Ry
     estimated scf accuracy    <       0.00969935 Ry

     total magnetization       =     0.05 Bohr mag/cell
     absolute magnetization    =    53.03 Bohr mag/cell

     iteration # 12     ecut=    71.00 Ry     beta= 0.10
     Davidson diagonalization with overlap
     ethr =  1.89E-06,  avg # of iterations =  3.2

     negative rho (up, down):  0.000E+00 4.386E-04

     total cpu time spent up to now is     1642.3 secs

     total energy              =  -10534.98327977 Ry
     estimated scf accuracy    <       0.00205368 Ry

     total magnetization       =     0.03 Bohr mag/cell
     absolute magnetization    =    53.47 Bohr mag/cell

     iteration # 13     ecut=    71.00 Ry     beta= 0.10
     Davidson diagonalization with overlap
     ethr =  4.01E-07,  avg # of iterations =  2.0

     negative rho (up, down):  0.000E+00 4.487E-04

     total cpu time spent up to now is     1769.8 secs

     total energy              =  -10534.98362209 Ry
     estimated scf accuracy    <       0.00044573 Ry

     total magnetization       =     0.02 Bohr mag/cell
     absolute magnetization    =    53.45 Bohr mag/cell

     iteration # 14     ecut=    71.00 Ry     beta= 0.10
     Davidson diagonalization with overlap
     ethr =  8.71E-08,  avg # of iterations =  2.2

     negative rho (up, down):  0.000E+00 4.562E-04

     total cpu time spent up to now is     1913.9 secs

     total energy              =  -10534.98373706 Ry
     estimated scf accuracy    <       0.00033224 Ry

     total magnetization       =     0.01 Bohr mag/cell
     absolute magnetization    =    53.52 Bohr mag/cell

     iteration # 15     ecut=    71.00 Ry     beta= 0.10
     Davidson diagonalization with overlap
     ethr =  6.49E-08,  avg # of iterations =  1.0

     negative rho (up, down):  0.000E+00 4.735E-04

     total cpu time spent up to now is     2026.1 secs

     total energy              =  -10534.98384300 Ry
     estimated scf accuracy    <       0.00018180 Ry

     total magnetization       =     0.01 Bohr mag/cell
     absolute magnetization    =    53.49 Bohr mag/cell

     iteration # 16     ecut=    71.00 Ry     beta= 0.10
     Davidson diagonalization with overlap
     ethr =  3.55E-08,  avg # of iterations =  3.3

     negative rho (up, down):  0.000E+00 4.749E-04

     total cpu time spent up to now is     2180.1 secs

     total energy              =  -10534.98396728 Ry
     estimated scf accuracy    <       0.00004121 Ry

     total magnetization       =     0.01 Bohr mag/cell
     absolute magnetization    =    53.45 Bohr mag/cell

     iteration # 17     ecut=    71.00 Ry     beta= 0.10
     Davidson diagonalization with overlap
     ethr =  8.05E-09,  avg # of iterations =  2.4

     negative rho (up, down):  0.000E+00 4.736E-04

     total cpu time spent up to now is     2311.0 secs

     total energy              =  -10534.98399112 Ry
     estimated scf accuracy    <       0.00003819 Ry

     total magnetization       =     0.01 Bohr mag/cell
     absolute magnetization    =    53.44 Bohr mag/cell

     iteration # 18     ecut=    71.00 Ry     beta= 0.10
     Davidson diagonalization with overlap
     ethr =  7.46E-09,  avg # of iterations =  1.0

     negative rho (up, down):  0.000E+00 4.826E-04

     total cpu time spent up to now is     2422.8 secs

     total energy              =  -10534.98399867 Ry
     estimated scf accuracy    <       0.00002617 Ry

     total magnetization       =     0.01 Bohr mag/cell
     absolute magnetization    =    53.43 Bohr mag/cell

     iteration # 19     ecut=    71.00 Ry     beta= 0.10
     Davidson diagonalization with overlap
     ethr =  5.11E-09,  avg # of iterations =  3.2

     negative rho (up, down):  0.000E+00 4.816E-04

     total cpu time spent up to now is     2585.7 secs

     total energy              =  -10534.98404674 Ry
     estimated scf accuracy    <       0.00002390 Ry

     total magnetization       =     0.00 Bohr mag/cell
     absolute magnetization    =    53.35 Bohr mag/cell

     iteration # 20     ecut=    71.00 Ry     beta= 0.10
     Davidson diagonalization with overlap
     ethr =  4.67E-09,  avg # of iterations =  2.0

     negative rho (up, down):  0.000E+00 4.809E-04

     total cpu time spent up to now is     2716.1 secs

     total energy              =  -10534.98405913 Ry
     estimated scf accuracy    <       0.00000862 Ry

     total magnetization       =     0.00 Bohr mag/cell
     absolute magnetization    =    53.33 Bohr mag/cell

     iteration # 21     ecut=    71.00 Ry     beta= 0.10
     Davidson diagonalization with overlap
     ethr =  1.68E-09,  avg # of iterations =  2.0

     negative rho (up, down):  0.000E+00 4.830E-04

     total cpu time spent up to now is     2849.1 secs

     total energy              =  -10534.98406776 Ry
     estimated scf accuracy    <       0.00000699 Ry

     total magnetization       =     0.00 Bohr mag/cell
     absolute magnetization    =    53.31 Bohr mag/cell

     iteration # 22     ecut=    71.00 Ry     beta= 0.10
     Davidson diagonalization with overlap
     ethr =  1.37E-09,  avg # of iterations =  2.3

     negative rho (up, down):  0.000E+00 4.831E-04

     total cpu time spent up to now is     2994.4 secs

     total energy              =  -10534.98407432 Ry
     estimated scf accuracy    <       0.00000553 Ry

     total magnetization       =     0.00 Bohr mag/cell
     absolute magnetization    =    53.28 Bohr mag/cell

     iteration # 23     ecut=    71.00 Ry     beta= 0.10
     Davidson diagonalization with overlap
     ethr =  1.08E-09,  avg # of iterations =  3.6

     negative rho (up, down):  0.000E+00 4.823E-04

     total cpu time spent up to now is     3150.8 secs

     total energy              =  -10534.98408650 Ry
     estimated scf accuracy    <       0.00000172 Ry

     total magnetization       =     0.00 Bohr mag/cell
     absolute magnetization    =    53.22 Bohr mag/cell

     iteration # 24     ecut=    71.00 Ry     beta= 0.10
     Davidson diagonalization with overlap
     ethr =  3.37E-10,  avg # of iterations =  2.8

     negative rho (up, down):  0.000E+00 4.822E-04

     total cpu time spent up to now is     3300.7 secs

     total energy              =  -10534.98409059 Ry
     estimated scf accuracy    <       0.00000084 Ry

     total magnetization       =     0.00 Bohr mag/cell
     absolute magnetization    =    53.20 Bohr mag/cell

     iteration # 25     ecut=    71.00 Ry     beta= 0.10
     Davidson diagonalization with overlap
     ethr =  1.64E-10,  avg # of iterations =  1.2

     negative rho (up, down):  0.000E+00 4.818E-04

     total cpu time spent up to now is     3412.5 secs

     total energy              =  -10534.98409238 Ry
     estimated scf accuracy    <       0.00000071 Ry

     total magnetization       =     0.00 Bohr mag/cell
     absolute magnetization    =    53.20 Bohr mag/cell

     iteration # 26     ecut=    71.00 Ry     beta= 0.10
     Davidson diagonalization with overlap
     ethr =  1.39E-10,  avg # of iterations =  3.1

     negative rho (up, down):  0.000E+00 4.818E-04

     total cpu time spent up to now is     3566.8 secs

     total energy              =  -10534.98409534 Ry
     estimated scf accuracy    <       0.00000033 Ry

     total magnetization       =    -0.00 Bohr mag/cell
     absolute magnetization    =    53.18 Bohr mag/cell

     iteration # 27     ecut=    71.00 Ry     beta= 0.10
     Davidson diagonalization with overlap
     ethr =  6.50E-11,  avg # of iterations =  2.0

     negative rho (up, down):  0.000E+00 4.820E-04

     total cpu time spent up to now is     3705.2 secs

     total energy              =  -10534.98409708 Ry
     estimated scf accuracy    <       0.00000011 Ry

     total magnetization       =    -0.00 Bohr mag/cell
     absolute magnetization    =    53.19 Bohr mag/cell

     iteration # 28     ecut=    71.00 Ry     beta= 0.10
     Davidson diagonalization with overlap
     ethr =  2.23E-11,  avg # of iterations =  2.1

     negative rho (up, down):  0.000E+00 4.820E-04
 
     Magnetic moment per site:
     atom:    1    charge:   14.4698    magn:    1.0045    constr:    0.0000
     atom:    2    charge:   14.3128    magn:   -2.1684    constr:    0.0000
     atom:    3    charge:   14.4691    magn:    1.0218    constr:    0.0000
     atom:    4    charge:   14.3128    magn:   -2.1684    constr:    0.0000
     atom:    5    charge:   14.4699    magn:    1.0029    constr:    0.0000
     atom:    6    charge:   14.3128    magn:   -2.1685    constr:    0.0000
     atom:    7    charge:   14.4691    magn:    1.0218    constr:    0.0000
     atom:    8    charge:   14.3128    magn:   -2.1684    constr:    0.0000
     atom:    9    charge:   14.3131    magn:    2.1685    constr:    0.0000
     atom:   10    charge:   14.4693    magn:   -1.0111    constr:    0.0000
     atom:   11    charge:   14.3126    magn:    2.1687    constr:    0.0000
     atom:   12    charge:   14.4693    magn:   -1.0111    constr:    0.0000
     atom:   13    charge:   14.3131    magn:    2.1683    constr:    0.0000
     atom:   14    charge:   14.4692    magn:   -1.0141    constr:    0.0000
     atom:   15    charge:   14.3126    magn:    2.1687    constr:    0.0000
     atom:   16    charge:   14.4693    magn:   -1.0111    constr:    0.0000
     atom:   17    charge:   14.4699    magn:    1.0029    constr:    0.0000
     atom:   18    charge:   14.3128    magn:   -2.1684    constr:    0.0000
     atom:   19    charge:   14.4691    magn:    1.0218    constr:    0.0000
     atom:   20    charge:   14.3128    magn:   -2.1685    constr:    0.0000
     atom:   21    charge:   14.4699    magn:    1.0036    constr:    0.0000
     atom:   22    charge:   14.3128    magn:   -2.1685    constr:    0.0000
     atom:   23    charge:   14.4691    magn:    1.0218    constr:    0.0000
     atom:   24    charge:   14.3128    magn:   -2.1685    constr:    0.0000
     atom:   25    charge:   14.3131    magn:    2.1683    constr:    0.0000
     atom:   26    charge:   14.4693    magn:   -1.0111    constr:    0.0000
     atom:   27    charge:   14.3126    magn:    2.1687    constr:    0.0000
     atom:   28    charge:   14.4692    magn:   -1.0141    constr:    0.0000
     atom:   29    charge:   14.3131    magn:    2.1678    constr:    0.0000
     atom:   30    charge:   14.4692    magn:   -1.0141    constr:    0.0000
     atom:   31    charge:   14.3126    magn:    2.1687    constr:    0.0000
     atom:   32    charge:   14.4692    magn:   -1.0141    constr:    0.0000

     total cpu time spent up to now is     3847.1 secs

     End of self-consistent calculation

     Number of k-points >= 100: set verbosity='high' to print the bands.

     the Fermi energy is    12.9179 ev

!    total energy              =  -10534.98410409 Ry

     total all-electron energy =    -81456.473162 Ry
     estimated scf accuracy    <       0.00000009 Ry
     smearing contrib. (-TS)   =       0.03870363 Ry
     internal energy E=F+TS    =  -10535.02280772 Ry

     The total energy is F=E-TS. E is the sum of the following terms:
     one-electron contribution =  -10848.53162093 Ry
     hartree contribution      =    5641.20820784 Ry
     xc contribution           =    -886.96547485 Ry
     ewald contribution        =   -1791.34864938 Ry
     one-center paw contrib.   =   -2649.38527040 Ry

     total magnetization       =    -0.00 Bohr mag/cell
     absolute magnetization    =    53.18 Bohr mag/cell

     convergence has been achieved in  28 iterations

     negative rho (up, down):  0.000E+00 4.820E-04

     Forces acting on atoms (cartesian axes, Ry/au):

     atom    1 type  1   force =     0.00000000    0.00102091    0.00000000
     atom    2 type  2   force =     0.00000986    0.02610093    0.00000000
     atom    3 type  1   force =    -0.00001558    0.00090568   -0.00001558
     atom    4 type  2   force =    -0.00000000    0.02610093    0.00000986
     atom    5 type  1   force =     0.00000000    0.00104813    0.00000000
     atom    6 type  2   force =    -0.00000316    0.02609577    0.00000000
     atom    7 type  1   force =    -0.00001558    0.00090568    0.00001558
     atom    8 type  2   force =     0.00000000    0.02610093   -0.00000986
     atom    9 type  1   force =     0.00000000   -0.02579423    0.00000000
     atom   10 type  2   force =     0.00002405   -0.00117577    0.00000000
     atom   11 type  1   force =    -0.00000832   -0.02599898   -0.00000832
     atom   12 type  2   force =     0.00000000   -0.00117577    0.00002405
     atom   13 type  1   force =     0.00000000   -0.02580339    0.00000000
     atom   14 type  2   force =     0.00001818   -0.00117009    0.00000000
     atom   15 type  1   force =    -0.00000832   -0.02599898    0.00000832
     atom   16 type  2   force =     0.00000000   -0.00117577   -0.00002405
     atom   17 type  1   force =     0.00000000    0.00104813    0.00000000
     atom   18 type  2   force =    -0.00000986    0.02610093    0.00000000
     atom   19 type  1   force =     0.00001558    0.00090568   -0.00001558
     atom   20 type  2   force =     0.00000000    0.02609577   -0.00000316
     atom   21 type  1   force =     0.00000000    0.00107099    0.00000000
     atom   22 type  2   force =     0.00000316    0.02609577    0.00000000
     atom   23 type  1   force =     0.00001558    0.00090568    0.00001558
     atom   24 type  2   force =     0.00000000    0.02609577    0.00000316
     atom   25 type  1   force =     0.00000000   -0.02580339    0.00000000
     atom   26 type  2   force =    -0.00002405   -0.00117577    0.00000000
     atom   27 type  1   force =     0.00000832   -0.02599898   -0.00000832
     atom   28 type  2   force =     0.00000000   -0.00117009    0.00001818
     atom   29 type  1   force =     0.00000000   -0.02581734    0.00000000
     atom   30 type  2   force =    -0.00001818   -0.00117009    0.00000000
     atom   31 type  1   force =     0.00000832   -0.02599898    0.00000832
     atom   32 type  2   force =     0.00000000   -0.00117009   -0.00001818

     Total force =     0.104091     Total SCF correction =     0.000655


     Computing stress (Cartesian axis) and pressure


     negative rho (up, down):  0.000E+00 4.820E-04
          total   stress  (Ry/bohr**3)                   (kbar)     P=       21.96
   0.00007592   0.00000000   0.00000000           11.17        0.00        0.00
   0.00000000   0.00029607   0.00000000            0.00       43.55        0.00
   0.00000000   0.00000000   0.00007592            0.00        0.00       11.17


     BFGS Geometry Optimization
     Energy error            =      0.0E+00
     Gradient error          =      2.6E-02

     number of scf cycles    =   1
     number of bfgs steps    =   0

     energy   new            =  -10534.9841040936 Ry

     new trust radius        =       0.0261009365 bohr
     new conv_thr            =       0.0000001000 Ry


ATOMIC_POSITIONS (crystal)
Fe1           0.0000000000        0.0000526043        0.0000000000
Fe2           0.2500007622        0.1680115706        0.0000000000
Fe1           0.2499987960        0.0000466671        0.2499987960
Fe2          -0.0000000000        0.1680115706        0.2500007622
Fe1           0.0000000000        0.0000540068        0.5000000000
Fe2           0.2499997554        0.1680113044        0.5000000000
Fe1           0.2499987960        0.0000466671        0.7500012040
Fe2           0.0000000000        0.1680115706        0.7499992378
Fe1           0.0000000000        0.6653375662        0.0000000000
Fe2           0.2500018586        0.8332727496        0.0000000000
Fe1           0.2499993573        0.6653270163        0.2499993573
Fe2           0.0000000000        0.8332727496        0.2500018586
Fe1           0.0000000000        0.6653370941        0.5000000000
Fe2           0.2500014049        0.8332730420        0.5000000000
Fe1           0.2499993573        0.6653270163        0.7500006427
Fe2           0.0000000000        0.8332727496        0.7499981414
Fe1           0.5000000000        0.0000540068        0.0000000000
Fe2           0.7499992378        0.1680115706        0.0000000000
Fe1           0.7500012040        0.0000466671        0.2499987960
Fe2           0.5000000000        0.1680113044        0.2499997554
Fe1           0.5000000000        0.0000551851        0.5000000000
Fe2           0.7500002446        0.1680113044        0.5000000000
Fe1           0.7500012040        0.0000466671        0.7500012040
Fe2           0.5000000000        0.1680113044        0.7500002446
Fe1           0.5000000000        0.6653370941        0.0000000000
Fe2           0.7499981414        0.8332727496        0.0000000000
Fe1           0.7500006427        0.6653270163        0.2499993573
Fe2           0.5000000000        0.8332730420        0.2500014049
Fe1           0.5000000000        0.6653363755        0.5000000000
Fe2           0.7499985951        0.8332730420        0.5000000000
Fe1           0.7500006427        0.6653270163        0.7500006427
Fe2           0.5000000000        0.8332730420        0.7499985951



     Writing output data file /scratch/rFSwOCeUrTTDfOen.save/
     NEW-OLD atomic charge density approx. for the potential

     Check: negative core charge=   -0.000005

     negative rho (up, down):  0.000E+00 3.822E-04
     Generating pointlists ...

     total cpu time spent up to now is     4039.5 secs

     Self-consistent Calculation

     iteration #  1     ecut=    71.00 Ry     beta= 0.10
     Davidson diagonalization with overlap
     c_bands:  1 eigenvalues not converged
     ethr =  1.00E-06,  avg # of iterations =  7.2

     negative rho (up, down):  0.000E+00 3.514E-04

     total cpu time spent up to now is     4360.1 secs

     total energy              =  -10534.98772909 Ry
     estimated scf accuracy    <       0.02358386 Ry

     total magnetization       =     0.00 Bohr mag/cell
     absolute magnetization    =    53.55 Bohr mag/cell

     iteration #  2     ecut=    71.00 Ry     beta= 0.10
     Davidson diagonalization with overlap
     ethr =  4.61E-06,  avg # of iterations =  1.0

     negative rho (up, down):  0.000E+00 3.078E-04

     total cpu time spent up to now is     4472.0 secs

     total energy              =  -10534.98895823 Ry
     estimated scf accuracy    <       0.00697515 Ry

     total magnetization       =     0.00 Bohr mag/cell
     absolute magnetization    =    53.59 Bohr mag/cell

     iteration #  3     ecut=    71.00 Ry     beta= 0.10
     Davidson diagonalization with overlap
     ethr =  1.36E-06,  avg # of iterations =  2.0

     negative rho (up, down):  0.000E+00 2.038E-04

     total cpu time spent up to now is     4597.7 secs

     total energy              =  -10534.99167465 Ry
     estimated scf accuracy    <       0.00180068 Ry

     total magnetization       =    -0.00 Bohr mag/cell
     absolute magnetization    =    53.64 Bohr mag/cell

     iteration #  4     ecut=    71.00 Ry     beta= 0.10
     Davidson diagonalization with overlap
     ethr =  3.52E-07,  avg # of iterations =  2.0

     negative rho (up, down):  0.000E+00 1.927E-04

     total cpu time spent up to now is     4749.4 secs

     total energy              =  -10534.99306844 Ry
     estimated scf accuracy    <       0.00066528 Ry

     total magnetization       =     0.00 Bohr mag/cell
     absolute magnetization    =    53.71 Bohr mag/cell

     iteration #  5     ecut=    71.00 Ry     beta= 0.10
     Davidson diagonalization with overlap
     ethr =  1.30E-07,  avg # of iterations =  2.0

     negative rho (up, down):  0.000E+00 1.456E-04

     total cpu time spent up to now is     4876.1 secs

     total energy              =  -10534.99405762 Ry
     estimated scf accuracy    <       0.00064918 Ry

     total magnetization       =     0.00 Bohr mag/cell
     absolute magnetization    =    53.74 Bohr mag/cell

     iteration #  6     ecut=    71.00 Ry     beta= 0.10
     Davidson diagonalization with overlap
     ethr =  1.27E-07,  avg # of iterations =  2.0

     negative rho (up, down):  0.000E+00 1.357E-04

     total cpu time spent up to now is     5024.4 secs

     total energy              =  -10534.99429566 Ry
     estimated scf accuracy    <       0.00003779 Ry

     total magnetization       =     0.00 Bohr mag/cell
     absolute magnetization    =    53.84 Bohr mag/cell

     iteration #  7     ecut=    71.00 Ry     beta= 0.10
     Davidson diagonalization with overlap
     ethr =  7.38E-09,  avg # of iterations =  2.5

     negative rho (up, down):  0.000E+00 1.445E-04

     total cpu time spent up to now is     5175.9 secs

     total energy              =  -10534.99434223 Ry
     estimated scf accuracy    <       0.00002354 Ry

     total magnetization       =     0.00 Bohr mag/cell
     absolute magnetization    =    53.87 Bohr mag/cell

     iteration #  8     ecut=    71.00 Ry     beta= 0.10
     Davidson diagonalization with overlap
     ethr =  4.60E-09,  avg # of iterations =  2.1

     negative rho (up, down):  0.000E+00 1.423E-04

     total cpu time spent up to now is     5323.0 secs

     total energy              =  -10534.99435367 Ry
     estimated scf accuracy    <       0.00000653 Ry

     total magnetization       =     0.00 Bohr mag/cell
     absolute magnetization    =    53.88 Bohr mag/cell

     iteration #  9     ecut=    71.00 Ry     beta= 0.10
     Davidson diagonalization with overlap
     ethr =  1.28E-09,  avg # of iterations =  2.0

     negative rho (up, down):  0.000E+00 1.428E-04

     total cpu time spent up to now is     5462.4 secs

     total energy              =  -10534.99436550 Ry
     estimated scf accuracy    <       0.00000558 Ry

     total magnetization       =     0.00 Bohr mag/cell
     absolute magnetization    =    53.89 Bohr mag/cell

     iteration # 10     ecut=    71.00 Ry     beta= 0.10
     Davidson diagonalization with overlap
     ethr =  1.09E-09,  avg # of iterations =  2.0

     negative rho (up, down):  0.000E+00 1.437E-04

     total cpu time spent up to now is     5591.4 secs

     total energy              =  -10534.99437448 Ry
     estimated scf accuracy    <       0.00000193 Ry

     total magnetization       =     0.00 Bohr mag/cell
     absolute magnetization    =    53.92 Bohr mag/cell

     iteration # 11     ecut=    71.00 Ry     beta= 0.10
     Davidson diagonalization with overlap
     ethr =  3.77E-10,  avg # of iterations =  2.9

     negative rho (up, down):  0.000E+00 1.435E-04

     total cpu time spent up to now is     5736.5 secs

     total energy              =  -10534.99438033 Ry
     estimated scf accuracy    <       0.00000141 Ry

     total magnetization       =     0.00 Bohr mag/cell
     absolute magnetization    =    53.94 Bohr mag/cell

     iteration # 12     ecut=    71.00 Ry     beta= 0.10
     Davidson diagonalization with overlap
     ethr =  2.75E-10,  avg # of iterations =  2.1

     negative rho (up, down):  0.000E+00 1.465E-04

     total cpu time spent up to now is     5865.3 secs

     total energy              =  -10534.99438416 Ry
     estimated scf accuracy    <       0.00000129 Ry

     total magnetization       =     0.00 Bohr mag/cell
     absolute magnetization    =    53.95 Bohr mag/cell

     iteration # 13     ecut=    71.00 Ry     beta= 0.10
     Davidson diagonalization with overlap
     ethr =  2.52E-10,  avg # of iterations =  3.9

     negative rho (up, down):  0.000E+00 1.458E-04

     total cpu time spent up to now is     6023.2 secs

     total energy              =  -10534.99438989 Ry
     estimated scf accuracy    <       0.00000034 Ry

     total magnetization       =     0.00 Bohr mag/cell
     absolute magnetization    =    53.99 Bohr mag/cell

     iteration # 14     ecut=    71.00 Ry     beta= 0.10
     Davidson diagonalization with overlap
     ethr =  6.71E-11,  avg # of iterations =  2.3

     negative rho (up, down):  0.000E+00 1.456E-04

     total cpu time spent up to now is     6169.5 secs

     total energy              =  -10534.99439260 Ry
     estimated scf accuracy    <       0.00000023 Ry

     total magnetization       =     0.00 Bohr mag/cell
     absolute magnetization    =    53.99 Bohr mag/cell

     iteration # 15     ecut=    71.00 Ry     beta= 0.10
     Davidson diagonalization with overlap
     ethr =  4.41E-11,  avg # of iterations =  2.1

     negative rho (up, down):  0.000E+00 1.456E-04

     total cpu time spent up to now is     6299.9 secs

     total energy              =  -10534.99439464 Ry
     estimated scf accuracy    <       0.00000021 Ry

     total magnetization       =     0.00 Bohr mag/cell
     absolute magnetization    =    54.00 Bohr mag/cell

     iteration # 16     ecut=    71.00 Ry     beta= 0.10
     Davidson diagonalization with overlap
     ethr =  4.02E-11,  avg # of iterations =  3.1

     negative rho (up, down):  0.000E+00 1.443E-04
 
     Magnetic moment per site:
     atom:    1    charge:   14.4638    magn:    1.0316    constr:    0.0000
     atom:    2    charge:   14.3072    magn:   -2.1895    constr:    0.0000
     atom:    3    charge:   14.4630    magn:    1.0503    constr:    0.0000
     atom:    4    charge:   14.3072    magn:   -2.1895    constr:    0.0000
     atom:    5    charge:   14.4638    magn:    1.0312    constr:    0.0000
     atom:    6    charge:   14.3072    magn:   -2.1895    constr:    0.0000
     atom:    7    charge:   14.4630    magn:    1.0503    constr:    0.0000
     atom:    8    charge:   14.3072    magn:   -2.1895    constr:    0.0000
     atom:    9    charge:   14.3073    magn:    2.1889    constr:    0.0000
     atom:   10    charge:   14.4633    magn:   -1.0399    constr:    0.0000
     atom:   11    charge:   14.3068    magn:    2.1895    constr:    0.0000
     atom:   12    charge:   14.4633    magn:   -1.0399    constr:    0.0000
     atom:   13    charge:   14.3073    magn:    2.1889    constr:    0.0000
     atom:   14    charge:   14.4633    magn:   -1.0405    constr:    0.0000
     atom:   15    charge:   14.3068    magn:    2.1895    constr:    0.0000
     atom:   16    charge:   14.4633    magn:   -1.0399    constr:    0.0000
     atom:   17    charge:   14.4638    magn:    1.0312    constr:    0.0000
     atom:   18    charge:   14.3072    magn:   -2.1895    constr:    0.0000
     atom:   19    charge:   14.4630    magn:    1.0503    constr:    0.0000
     atom:   20    charge:   14.3072    magn:   -2.1895    constr:    0.0000
     atom:   21    charge:   14.4638    magn:    1.0311    constr:    0.0000
     atom:   22    charge:   14.3072    magn:   -2.1895    constr:    0.0000
     atom:   23    charge:   14.4630    magn:    1.0503    constr:    0.0000
     atom:   24    charge:   14.3072    magn:   -2.1895    constr:    0.0000
     atom:   25    charge:   14.3073    magn:    2.1889    constr:    0.0000
     atom:   26    charge:   14.4633    magn:   -1.0399    constr:    0.0000
     atom:   27    charge:   14.3068    magn:    2.1895    constr:    0.0000
     atom:   28    charge:   14.4633    magn:   -1.0405    constr:    0.0000
     atom:   29    charge:   14.3073    magn:    2.1888    constr:    0.0000
     atom:   30    charge:   14.4633    magn:   -1.0405    constr:    0.0000
     atom:   31    charge:   14.3068    magn:    2.1895    constr:    0.0000
     atom:   32    charge:   14.4633    magn:   -1.0405    constr:    0.0000

     total cpu time spent up to now is     6451.9 secs

     End of self-consistent calculation

     Number of k-points >= 100: set verbosity='high' to print the bands.

     the Fermi energy is    12.9234 ev

!    total energy              =  -10534.99440342 Ry

     total all-electron energy =    -81456.483461 Ry
     estimated scf accuracy    <       0.00000005 Ry
     smearing contrib. (-TS)   =       0.03725008 Ry
     internal energy E=F+TS    =  -10535.03165350 Ry

     The total energy is F=E-TS. E is the sum of the following terms:
     one-electron contribution =  -10724.82105193 Ry
     hartree contribution      =    5579.48216126 Ry
     xc contribution           =    -886.91151998 Ry
     ewald contribution        =   -1853.39836295 Ry
     one-center paw contrib.   =   -2649.38287990 Ry

     total magnetization       =     0.00 Bohr mag/cell
     absolute magnetization    =    54.00 Bohr mag/cell

     convergence has been achieved in  16 iterations

     negative rho (up, down):  0.000E+00 1.443E-04

     Forces acting on atoms (cartesian axes, Ry/au):

     atom    1 type  1   force =     0.00000000    0.00260923    0.00000000
     atom    2 type  2   force =    -0.00000185    0.02332461    0.00000000
     atom    3 type  1   force =    -0.00000009    0.00249734   -0.00000009
     atom    4 type  2   force =     0.00000000    0.02332461   -0.00000185
     atom    5 type  1   force =     0.00000000    0.00260915    0.00000000
     atom    6 type  2   force =    -0.00000002    0.02332405    0.00000000
     atom    7 type  1   force =    -0.00000009    0.00249734    0.00000009
     atom    8 type  2   force =     0.00000000    0.02332461    0.00000185
     atom    9 type  1   force =     0.00000000   -0.02323085    0.00000000
     atom   10 type  2   force =    -0.00000193   -0.00261732    0.00000000
     atom   11 type  1   force =    -0.00000054   -0.02328887   -0.00000054
     atom   12 type  2   force =     0.00000000   -0.00261732   -0.00000193
     atom   13 type  1   force =     0.00000000   -0.02323625    0.00000000
     atom   14 type  2   force =    -0.00000253   -0.00261510    0.00000000
     atom   15 type  1   force =    -0.00000054   -0.02328887    0.00000054
     atom   16 type  2   force =     0.00000000   -0.00261732    0.00000193
     atom   17 type  1   force =     0.00000000    0.00260915    0.00000000
     atom   18 type  2   force =     0.00000185    0.02332461    0.00000000
     atom   19 type  1   force =     0.00000009    0.00249734   -0.00000009
     atom   20 type  2   force =     0.00000000    0.02332405   -0.00000002
     atom   21 type  1   force =     0.00000000    0.00261150    0.00000000
     atom   22 type  2   force =     0.00000002    0.02332405    0.00000000
     atom   23 type  1   force =     0.00000009    0.00249734    0.00000009
     atom   24 type  2   force =     0.00000000    0.02332405    0.00000002
     atom   25 type  1   force =     0.00000000   -0.02323625    0.00000000
     atom   26 type  2   force =     0.00000193   -0.00261732    0.00000000
     atom   27 type  1   force =     0.00000054   -0.02328887   -0.00000054
     atom   28 type  2   force =     0.00000000   -0.00261510   -0.00000253
     atom   29 type  1   force =     0.00000000   -0.02323451    0.00000000
     atom   30 type  2   force =     0.00000253   -0.00261510    0.00000000
     atom   31 type  1   force =     0.00000054   -0.02328887    0.00000054
     atom   32 type  2   force =     0.00000000   -0.00261510    0.00000253

     Total force =     0.093744     Total SCF correction =     0.001289


     Computing stress (Cartesian axis) and pressure


     negative rho (up, down):  0.000E+00 1.443E-04
          total   stress  (Ry/bohr**3)                   (kbar)     P=       15.78
   0.00004167   0.00000000   0.00000000            6.13        0.00        0.00
   0.00000000   0.00023842   0.00000000            0.00       35.07        0.00
   0.00000000   0.00000000   0.00004167            0.00        0.00        6.13

     Energy error            =      1.0E-02
     Gradient error          =      2.3E-02

     number of scf cycles    =   2
     number of bfgs steps    =   1

     energy   old            =  -10534.9841040936 Ry
     energy   new            =  -10534.9944034197 Ry

     CASE: energy  _new < energy  _old


     WARNING: bfgs curvature condition failed, Theta= 0.890
     new trust radius        =       0.0287110301 bohr
     new conv_thr            =       0.0000000233 Ry


ATOMIC_POSITIONS (crystal)
Fe1           0.0000000000        0.0001962748        0.0000000000
Fe2           0.2500007921        0.1694909651        0.0000000000
Fe1           0.2499985203        0.0001833555        0.2499985203
Fe2          -0.0000000000        0.1694909651        0.2500007921
Fe1           0.0000000000        0.0001979861        0.5000000000
Fe2           0.2499996991        0.1694906114        0.5000000000
Fe1           0.2499985203        0.0001833555        0.7500014797
Fe2           0.0000000000        0.1694909651        0.7499992079
Fe1           0.0000000000        0.6638664376        0.0000000000
Fe2           0.2500021267        0.8331268904        0.0000000000
Fe1           0.2499991732        0.6638506004        0.2499991732
Fe2           0.0000000000        0.8331268904        0.2500021267
Fe1           0.0000000000        0.6638655868        0.5000000000
Fe2           0.2500015262        0.8331273605        0.5000000000
Fe1           0.2499991732        0.6638506004        0.7500008268
Fe2           0.0000000000        0.8331268904        0.7499978733
Fe1           0.5000000000        0.0001979861        0.0000000000
Fe2           0.7499992079        0.1694909651        0.0000000000
Fe1           0.7500014797        0.0001833555        0.2499985203
Fe2           0.5000000000        0.1694906114        0.2499996991
Fe1           0.5000000000        0.0001995459        0.5000000000
Fe2           0.7500003009        0.1694906114        0.5000000000
Fe1           0.7500014797        0.0001833555        0.7500014797
Fe2           0.5000000000        0.1694906114        0.7500003009
Fe1           0.5000000000        0.6638655868        0.0000000000
Fe2           0.7499978733        0.8331268904        0.0000000000
Fe1           0.7500008268        0.6638506004        0.2499991732
Fe2           0.5000000000        0.8331273605        0.2500015262
Fe1           0.5000000000        0.6638647959        0.5000000000
Fe2           0.7499984738        0.8331273605        0.5000000000
Fe1           0.7500008268        0.6638506004        0.7500008268
Fe2           0.5000000000        0.8331273605        0.7499984738



     Writing output data file /scratch/rFSwOCeUrTTDfOen.save/
     NEW-OLD atomic charge density approx. for the potential

     Check: negative core charge=   -0.000005

     negative rho (up, down):  0.000E+00 9.233E-05
     Generating pointlists ...

     total cpu time spent up to now is     6642.5 secs

     Self-consistent Calculation

     iteration #  1     ecut=    71.00 Ry     beta= 0.10
     Davidson diagonalization with overlap
     ethr =  1.00E-06,  avg # of iterations =  8.0

     negative rho (up, down):  0.000E+00 9.794E-05

     total cpu time spent up to now is     6975.0 secs

     total energy              =  -10534.99639838 Ry
     estimated scf accuracy    <       0.02981430 Ry

     total magnetization       =     0.00 Bohr mag/cell
     absolute magnetization    =    54.41 Bohr mag/cell

     iteration #  2     ecut=    71.00 Ry     beta= 0.10
     Davidson diagonalization with overlap
     ethr =  5.82E-06,  avg # of iterations =  1.0

     negative rho (up, down):  0.000E+00 9.489E-05

     total cpu time spent up to now is     7086.7 secs

     total energy              =  -10534.99792648 Ry
     estimated scf accuracy    <       0.00882062 Ry

     total magnetization       =     0.00 Bohr mag/cell
     absolute magnetization    =    54.46 Bohr mag/cell

     iteration #  3     ecut=    71.00 Ry     beta= 0.10
     Davidson diagonalization with overlap
     ethr =  1.72E-06,  avg # of iterations =  2.2

     negative rho (up, down):  0.000E+00 8.431E-05

     total cpu time spent up to now is     7213.5 secs

     total energy              =  -10535.00125444 Ry
     estimated scf accuracy    <       0.00211836 Ry

     total magnetization       =     0.00 Bohr mag/cell
     absolute magnetization    =    54.51 Bohr mag/cell

     iteration #  4     ecut=    71.00 Ry     beta= 0.10
     Davidson diagonalization with overlap
     ethr =  4.14E-07,  avg # of iterations =  2.1

     negative rho (up, down):  0.000E+00 7.112E-05

     total cpu time spent up to now is     7363.9 secs

     total energy              =  -10535.00290768 Ry
     estimated scf accuracy    <       0.00078069 Ry

     total magnetization       =     0.00 Bohr mag/cell
     absolute magnetization    =    54.58 Bohr mag/cell

     iteration #  5     ecut=    71.00 Ry     beta= 0.10
     Davidson diagonalization with overlap
     ethr =  1.52E-07,  avg # of iterations =  2.0

     negative rho (up, down):  0.000E+00 7.013E-06

     total cpu time spent up to now is     7492.0 secs

     total energy              =  -10535.00420494 Ry
     estimated scf accuracy    <       0.00057569 Ry

     total magnetization       =     0.00 Bohr mag/cell
     absolute magnetization    =    54.62 Bohr mag/cell

     iteration #  6     ecut=    71.00 Ry     beta= 0.10
     Davidson diagonalization with overlap
     ethr =  1.12E-07,  avg # of iterations =  2.1

     total cpu time spent up to now is     7643.0 secs

     total energy              =  -10535.00445995 Ry
     estimated scf accuracy    <       0.00004780 Ry

     total magnetization       =     0.00 Bohr mag/cell
     absolute magnetization    =    54.73 Bohr mag/cell

     iteration #  7     ecut=    71.00 Ry     beta= 0.10
     Davidson diagonalization with overlap
     ethr =  9.34E-09,  avg # of iterations =  2.8

     negative rho (up, down):  0.000E+00 1.261E-06

     total cpu time spent up to now is     7795.0 secs

     total energy              =  -10535.00453783 Ry
     estimated scf accuracy    <       0.00002516 Ry

     total magnetization       =     0.00 Bohr mag/cell
     absolute magnetization    =    54.77 Bohr mag/cell

     iteration #  8     ecut=    71.00 Ry     beta= 0.10
     Davidson diagonalization with overlap
     ethr =  4.91E-09,  avg # of iterations =  2.0

     negative rho (up, down):  0.000E+00 4.492E-08

     total cpu time spent up to now is     7943.4 secs

     total energy              =  -10535.00455265 Ry
     estimated scf accuracy    <       0.00000920 Ry

     total magnetization       =     0.00 Bohr mag/cell
     absolute magnetization    =    54.78 Bohr mag/cell

     iteration #  9     ecut=    71.00 Ry     beta= 0.10
     Davidson diagonalization with overlap
     ethr =  1.80E-09,  avg # of iterations =  2.0

     negative rho (up, down):  0.000E+00 1.387E-06

     total cpu time spent up to now is     8069.9 secs

     total energy              =  -10535.00456739 Ry
     estimated scf accuracy    <       0.00000656 Ry

     total magnetization       =     0.00 Bohr mag/cell
     absolute magnetization    =    54.79 Bohr mag/cell

     iteration # 10     ecut=    71.00 Ry     beta= 0.10
     Davidson diagonalization with overlap
     ethr =  1.28E-09,  avg # of iterations =  2.0

     negative rho (up, down):  0.000E+00 3.840E-06

     total cpu time spent up to now is     8200.5 secs

     total energy              =  -10535.00457962 Ry
     estimated scf accuracy    <       0.00000407 Ry

     total magnetization       =     0.00 Bohr mag/cell
     absolute magnetization    =    54.81 Bohr mag/cell

     iteration # 11     ecut=    71.00 Ry     beta= 0.10
     Davidson diagonalization with overlap
     ethr =  7.95E-10,  avg # of iterations =  3.0

     negative rho (up, down):  0.000E+00 4.456E-06

     total cpu time spent up to now is     8352.1 secs

     total energy              =  -10535.00458765 Ry
     estimated scf accuracy    <       0.00000362 Ry

     total magnetization       =     0.00 Bohr mag/cell
     absolute magnetization    =    54.84 Bohr mag/cell

     iteration # 12     ecut=    71.00 Ry     beta= 0.10
     Davidson diagonalization with overlap
     ethr =  7.06E-10,  avg # of iterations =  1.1

     negative rho (up, down):  0.000E+00 7.626E-06

     total cpu time spent up to now is     8465.6 secs

     total energy              =  -10535.00459256 Ry
     estimated scf accuracy    <       0.00000207 Ry

     total magnetization       =     0.00 Bohr mag/cell
     absolute magnetization    =    54.86 Bohr mag/cell

     iteration # 13     ecut=    71.00 Ry     beta= 0.10
     Davidson diagonalization with overlap
     ethr =  4.05E-10,  avg # of iterations =  2.5

     negative rho (up, down):  0.000E+00 1.036E-05

     total cpu time spent up to now is     8609.1 secs

     total energy              =  -10535.00459689 Ry
     estimated scf accuracy    <       0.00000092 Ry

     total magnetization       =     0.00 Bohr mag/cell
     absolute magnetization    =    54.88 Bohr mag/cell

     iteration # 14     ecut=    71.00 Ry     beta= 0.10
     Davidson diagonalization with overlap
     ethr =  1.80E-10,  avg # of iterations =  3.8

     negative rho (up, down):  0.000E+00 1.053E-05

     total cpu time spent up to now is     8766.2 secs

     total energy              =  -10535.00460122 Ry
     estimated scf accuracy    <       0.00000032 Ry

     total magnetization       =     0.00 Bohr mag/cell
     absolute magnetization    =    54.91 Bohr mag/cell

     iteration # 15     ecut=    71.00 Ry     beta= 0.10
     Davidson diagonalization with overlap
     ethr =  6.33E-11,  avg # of iterations =  2.1

     negative rho (up, down):  0.000E+00 7.552E-06

     total cpu time spent up to now is     8909.6 secs

     total energy              =  -10535.00460332 Ry
     estimated scf accuracy    <       0.00000023 Ry

     total magnetization       =     0.00 Bohr mag/cell
     absolute magnetization    =    54.92 Bohr mag/cell

     iteration # 16     ecut=    71.00 Ry     beta= 0.10
     Davidson diagonalization with overlap
     ethr =  4.55E-11,  avg # of iterations =  2.2

     negative rho (up, down):  0.000E+00 7.451E-06

     total cpu time spent up to now is     9054.9 secs

     total energy              =  -10535.00460528 Ry
     estimated scf accuracy    <       0.00000026 Ry

     total magnetization       =     0.00 Bohr mag/cell
     absolute magnetization    =    54.92 Bohr mag/cell

     iteration # 17     ecut=    71.00 Ry     beta= 0.10
     Davidson diagonalization with overlap
     ethr =  4.55E-11,  avg # of iterations =  3.1

     negative rho (up, down):  0.000E+00 7.603E-06

     total cpu time spent up to now is     9206.7 secs

     total energy              =  -10535.00460699 Ry
     estimated scf accuracy    <       0.00000003 Ry

     total magnetization       =     0.00 Bohr mag/cell
     absolute magnetization    =    54.93 Bohr mag/cell

     iteration # 18     ecut=    71.00 Ry     beta= 0.10
     Davidson diagonalization with overlap
     ethr =  5.03E-12,  avg # of iterations =  2.2

     negative rho (up, down):  0.000E+00 9.334E-06
 
     Magnetic moment per site:
     atom:    1    charge:   14.4569    magn:    1.0660    constr:    0.0000
     atom:    2    charge:   14.3017    magn:   -2.2098    constr:    0.0000
     atom:    3    charge:   14.4561    magn:    1.0849    constr:    0.0000
     atom:    4    charge:   14.3017    magn:   -2.2098    constr:    0.0000
     atom:    5    charge:   14.4569    magn:    1.0657    constr:    0.0000
     atom:    6    charge:   14.3017    magn:   -2.2098    constr:    0.0000
     atom:    7    charge:   14.4561    magn:    1.0849    constr:    0.0000
     atom:    8    charge:   14.3017    magn:   -2.2098    constr:    0.0000
     atom:    9    charge:   14.3019    magn:    2.2090    constr:    0.0000
     atom:   10    charge:   14.4564    magn:   -1.0743    constr:    0.0000
     atom:   11    charge:   14.3011    magn:    2.2097    constr:    0.0000
     atom:   12    charge:   14.4564    magn:   -1.0743    constr:    0.0000
     atom:   13    charge:   14.3019    magn:    2.2090    constr:    0.0000
     atom:   14    charge:   14.4564    magn:   -1.0745    constr:    0.0000
     atom:   15    charge:   14.3011    magn:    2.2097    constr:    0.0000
     atom:   16    charge:   14.4564    magn:   -1.0743    constr:    0.0000
     atom:   17    charge:   14.4569    magn:    1.0657    constr:    0.0000
     atom:   18    charge:   14.3017    magn:   -2.2098    constr:    0.0000
     atom:   19    charge:   14.4561    magn:    1.0849    constr:    0.0000
     atom:   20    charge:   14.3017    magn:   -2.2098    constr:    0.0000
     atom:   21    charge:   14.4569    magn:    1.0656    constr:    0.0000
     atom:   22    charge:   14.3017    magn:   -2.2098    constr:    0.0000
     atom:   23    charge:   14.4561    magn:    1.0849    constr:    0.0000
     atom:   24    charge:   14.3017    magn:   -2.2098    constr:    0.0000
     atom:   25    charge:   14.3019    magn:    2.2090    constr:    0.0000
     atom:   26    charge:   14.4564    magn:   -1.0743    constr:    0.0000
     atom:   27    charge:   14.3011    magn:    2.2097    constr:    0.0000
     atom:   28    charge:   14.4564    magn:   -1.0745    constr:    0.0000
     atom:   29    charge:   14.3019    magn:    2.2090    constr:    0.0000
     atom:   30    charge:   14.4564    magn:   -1.0745    constr:    0.0000
     atom:   31    charge:   14.3011    magn:    2.2097    constr:    0.0000
     atom:   32    charge:   14.4564    magn:   -1.0745    constr:    0.0000

     total cpu time spent up to now is     9339.4 secs

     End of self-consistent calculation

     Number of k-points >= 100: set verbosity='high' to print the bands.

     the Fermi energy is    12.9292 ev

!    total energy              =  -10535.00461302 Ry

     total all-electron energy =    -81456.493671 Ry
     estimated scf accuracy    <       0.00000002 Ry
     smearing contrib. (-TS)   =       0.03587518 Ry
     internal energy E=F+TS    =  -10535.04048820 Ry

     The total energy is F=E-TS. E is the sum of the following terms:
     one-electron contribution =  -10587.30995632 Ry
     hartree contribution      =    5510.87637838 Ry
     xc contribution           =    -886.85402233 Ry
     ewald contribution        =   -1922.37263626 Ry
     one-center paw contrib.   =   -2649.38025168 Ry

     total magnetization       =     0.00 Bohr mag/cell
     absolute magnetization    =    54.93 Bohr mag/cell

     convergence has been achieved in  18 iterations

     negative rho (up, down):  0.000E+00 9.334E-06

     Forces acting on atoms (cartesian axes, Ry/au):

     atom    1 type  1   force =     0.00000000    0.00397698    0.00000000
     atom    2 type  2   force =    -0.00000289    0.02053423    0.00000000
     atom    3 type  1   force =     0.00000344    0.00391283    0.00000344
     atom    4 type  2   force =     0.00000000    0.02053423   -0.00000289
     atom    5 type  1   force =     0.00000000    0.00397251    0.00000000
     atom    6 type  2   force =     0.00000025    0.02053448    0.00000000
     atom    7 type  1   force =     0.00000344    0.00391283   -0.00000344
     atom    8 type  2   force =     0.00000000    0.02053423    0.00000289
     atom    9 type  1   force =     0.00000000   -0.02076778    0.00000000
     atom   10 type  2   force =    -0.00000524   -0.00378703    0.00000000
     atom   11 type  1   force =     0.00000158   -0.02061183    0.00000158
     atom   12 type  2   force =     0.00000000   -0.00378703   -0.00000524
     atom   13 type  1   force =     0.00000000   -0.02076944    0.00000000
     atom   14 type  2   force =    -0.00000350   -0.00378661    0.00000000
     atom   15 type  1   force =     0.00000158   -0.02061183   -0.00000158
     atom   16 type  2   force =     0.00000000   -0.00378703    0.00000524
     atom   17 type  1   force =     0.00000000    0.00397251    0.00000000
     atom   18 type  2   force =     0.00000289    0.02053423    0.00000000
     atom   19 type  1   force =    -0.00000344    0.00391283    0.00000344
     atom   20 type  2   force =     0.00000000    0.02053448    0.00000025
     atom   21 type  1   force =     0.00000000    0.00396972    0.00000000
     atom   22 type  2   force =    -0.00000025    0.02053448    0.00000000
     atom   23 type  1   force =    -0.00000344    0.00391283   -0.00000344
     atom   24 type  2   force =     0.00000000    0.02053448   -0.00000025
     atom   25 type  1   force =     0.00000000   -0.02076944    0.00000000
     atom   26 type  2   force =     0.00000524   -0.00378703    0.00000000
     atom   27 type  1   force =    -0.00000158   -0.02061183    0.00000158
     atom   28 type  2   force =     0.00000000   -0.00378661   -0.00000350
     atom   29 type  1   force =     0.00000000   -0.02076925    0.00000000
     atom   30 type  2   force =     0.00000350   -0.00378661    0.00000000
     atom   31 type  1   force =    -0.00000158   -0.02061183   -0.00000158
     atom   32 type  2   force =     0.00000000   -0.00378661    0.00000350

     Total force =     0.083888     Total SCF correction =     0.000905


     Computing stress (Cartesian axis) and pressure


     negative rho (up, down):  0.000E+00 9.334E-06
          total   stress  (Ry/bohr**3)                   (kbar)     P=        9.63
   0.00000837   0.00000000   0.00000000            1.23        0.00        0.00
   0.00000000   0.00017965   0.00000000            0.00       26.43        0.00
   0.00000000   0.00000000   0.00000837            0.00        0.00        1.23

     Energy error            =      1.0E-02
     Gradient error          =      2.1E-02

     number of scf cycles    =   3
     number of bfgs steps    =   2

     energy   old            =  -10534.9944034197 Ry
     energy   new            =  -10535.0046130153 Ry

     CASE: energy  _new < energy  _old

     new trust radius        =       0.0430665452 bohr
     new conv_thr            =       0.0000000208 Ry


ATOMIC_POSITIONS (crystal)
Fe1           0.0000000000        0.0005469758        0.0000000000
Fe2           0.2500007194        0.1716957436        0.0000000000
Fe1           0.2499984986        0.0005265573        0.2499984986
Fe2          -0.0000000000        0.1716957436        0.2500007194
Fe1           0.0000000000        0.0005488412        0.5000000000
Fe2           0.2499996381        0.1716953110        0.5000000000
Fe1           0.2499984986        0.0005265573        0.7500015014
Fe2           0.0000000000        0.1716957436        0.7499992806
Fe1           0.0000000000        0.6616479150        0.0000000000
Fe2           0.2500021716        0.8327891299        0.0000000000
Fe1           0.2499991304        0.6616412504        0.2499991304
Fe2           0.0000000000        0.8327891299        0.2500021716
Fe1           0.0000000000        0.6616467525        0.5000000000
Fe2           0.2500016203        0.8327897434        0.5000000000
Fe1           0.2499991304        0.6616412504        0.7500008696
Fe2           0.0000000000        0.8327891299        0.7499978284
Fe1           0.5000000000        0.0005488412        0.0000000000
Fe2           0.7499992806        0.1716957436        0.0000000000
Fe1           0.7500015014        0.0005265573        0.2499984986
Fe2           0.5000000000        0.1716953110        0.2499996381
Fe1           0.5000000000        0.0005506088        0.5000000000
Fe2           0.7500003619        0.1716953110        0.5000000000
Fe1           0.7500015014        0.0005265573        0.7500015014
Fe2           0.5000000000        0.1716953110        0.7500003619
Fe1           0.5000000000        0.6616467525        0.0000000000
Fe2           0.7499978284        0.8327891299        0.0000000000
Fe1           0.7500008696        0.6616412504        0.2499991304
Fe2           0.5000000000        0.8327897434        0.2500016203
Fe1           0.5000000000        0.6616457042        0.5000000000
Fe2           0.7499983797        0.8327897434        0.5000000000
Fe1           0.7500008696        0.6616412504        0.7500008696
Fe2           0.5000000000        0.8327897434        0.7499983797



     Writing output data file /scratch/rFSwOCeUrTTDfOen.save/
     NEW-OLD atomic charge density approx. for the potential

     Check: negative core charge=   -0.000005

     negative rho (up, down):  0.000E+00 8.514E-04
     Generating pointlists ...

     total cpu time spent up to now is     9533.2 secs

     Self-consistent Calculation

     iteration #  1     ecut=    71.00 Ry     beta= 0.10
     Davidson diagonalization with overlap
     ethr =  1.00E-06,  avg # of iterations =  8.1

     negative rho (up, down):  0.000E+00 8.410E-04

     total cpu time spent up to now is     9905.1 secs

     total energy              =  -10534.99808489 Ry
     estimated scf accuracy    <       0.07488829 Ry

     total magnetization       =     0.00 Bohr mag/cell
     absolute magnetization    =    55.53 Bohr mag/cell

     iteration #  2     ecut=    71.00 Ry     beta= 0.10
     Davidson diagonalization with overlap
     ethr =  1.46E-05,  avg # of iterations =  1.0

     negative rho (up, down):  0.000E+00 8.111E-04

     total cpu time spent up to now is    10016.4 secs

     total energy              =  -10535.00190353 Ry
     estimated scf accuracy    <       0.02156950 Ry

     total magnetization       =     0.00 Bohr mag/cell
     absolute magnetization    =    55.61 Bohr mag/cell

     iteration #  3     ecut=    71.00 Ry     beta= 0.10
     Davidson diagonalization with overlap
     ethr =  4.21E-06,  avg # of iterations =  2.0

     negative rho (up, down):  0.000E+00 7.378E-04

     total cpu time spent up to now is    10142.4 secs

     total energy              =  -10535.01014697 Ry
     estimated scf accuracy    <       0.00478442 Ry

     total magnetization       =     0.00 Bohr mag/cell
     absolute magnetization    =    55.69 Bohr mag/cell

     iteration #  4     ecut=    71.00 Ry     beta= 0.10
     Davidson diagonalization with overlap
     ethr =  9.34E-07,  avg # of iterations =  2.0

     negative rho (up, down):  0.000E+00 7.055E-04

     total cpu time spent up to now is    10293.9 secs

     total energy              =  -10535.01449398 Ry
     estimated scf accuracy    <       0.00178416 Ry

     total magnetization       =     0.00 Bohr mag/cell
     absolute magnetization    =    55.79 Bohr mag/cell

     iteration #  5     ecut=    71.00 Ry     beta= 0.10
     Davidson diagonalization with overlap
     ethr =  3.48E-07,  avg # of iterations =  2.0

     negative rho (up, down):  0.000E+00 6.135E-04

     total cpu time spent up to now is    10425.4 secs

     total energy              =  -10535.01699148 Ry
     estimated scf accuracy    <       0.00202780 Ry

     total magnetization       =     0.00 Bohr mag/cell
     absolute magnetization    =    55.87 Bohr mag/cell

     iteration #  6     ecut=    71.00 Ry     beta= 0.10
     Davidson diagonalization with overlap
     ethr =  3.48E-07,  avg # of iterations =  2.0

     negative rho (up, down):  0.000E+00 5.975E-04

     total cpu time spent up to now is    10574.8 secs

     total energy              =  -10535.01756620 Ry
     estimated scf accuracy    <       0.00008077 Ry

     total magnetization       =     0.00 Bohr mag/cell
     absolute magnetization    =    56.02 Bohr mag/cell

     iteration #  7     ecut=    71.00 Ry     beta= 0.10
     Davidson diagonalization with overlap
     ethr =  1.58E-08,  avg # of iterations =  3.5

     negative rho (up, down):  0.000E+00 6.119E-04

     total cpu time spent up to now is    10731.9 secs

     total energy              =  -10535.01772179 Ry
     estimated scf accuracy    <       0.00005875 Ry

     total magnetization       =     0.00 Bohr mag/cell
     absolute magnetization    =    56.08 Bohr mag/cell

     iteration #  8     ecut=    71.00 Ry     beta= 0.10
     Davidson diagonalization with overlap
     ethr =  1.15E-08,  avg # of iterations =  2.0

     negative rho (up, down):  0.000E+00 6.093E-04

     total cpu time spent up to now is    10884.2 secs

     total energy              =  -10535.01775837 Ry
     estimated scf accuracy    <       0.00001668 Ry

     total magnetization       =     0.00 Bohr mag/cell
     absolute magnetization    =    56.09 Bohr mag/cell

     iteration #  9     ecut=    71.00 Ry     beta= 0.10
     Davidson diagonalization with overlap
     ethr =  3.26E-09,  avg # of iterations =  2.0

     negative rho (up, down):  0.000E+00 6.123E-04

     total cpu time spent up to now is    11015.8 secs

     total energy              =  -10535.01778544 Ry
     estimated scf accuracy    <       0.00001606 Ry

     total magnetization       =     0.00 Bohr mag/cell
     absolute magnetization    =    56.11 Bohr mag/cell

     iteration # 10     ecut=    71.00 Ry     beta= 0.10
     Davidson diagonalization with overlap
     ethr =  3.14E-09,  avg # of iterations =  2.0

     negative rho (up, down):  0.000E+00 6.135E-04

     total cpu time spent up to now is    11148.6 secs

     total energy              =  -10535.01780739 Ry
     estimated scf accuracy    <       0.00000718 Ry

     total magnetization       =     0.00 Bohr mag/cell
     absolute magnetization    =    56.17 Bohr mag/cell

     iteration # 11     ecut=    71.00 Ry     beta= 0.10
     Davidson diagonalization with overlap
     ethr =  1.40E-09,  avg # of iterations =  2.6

     negative rho (up, down):  0.000E+00 6.155E-04

     total cpu time spent up to now is    11288.5 secs

     total energy              =  -10535.01782093 Ry
     estimated scf accuracy    <       0.00000798 Ry

     total magnetization       =     0.00 Bohr mag/cell
     absolute magnetization    =    56.20 Bohr mag/cell

     iteration # 12     ecut=    71.00 Ry     beta= 0.10
     Davidson diagonalization with overlap
     ethr =  1.40E-09,  avg # of iterations =  2.0

     negative rho (up, down):  0.000E+00 6.217E-04

     total cpu time spent up to now is    11416.3 secs

     total energy              =  -10535.01782640 Ry
     estimated scf accuracy    <       0.00000279 Ry

     total magnetization       =     0.00 Bohr mag/cell
     absolute magnetization    =    56.23 Bohr mag/cell

     iteration # 13     ecut=    71.00 Ry     beta= 0.10
     Davidson diagonalization with overlap
     ethr =  5.45E-10,  avg # of iterations =  4.1

     negative rho (up, down):  0.000E+00 6.211E-04

     total cpu time spent up to now is    11582.8 secs

     total energy              =  -10535.01784177 Ry
     estimated scf accuracy    <       0.00000102 Ry

     total magnetization       =     0.00 Bohr mag/cell
     absolute magnetization    =    56.29 Bohr mag/cell

     iteration # 14     ecut=    71.00 Ry     beta= 0.10
     Davidson diagonalization with overlap
     ethr =  1.99E-10,  avg # of iterations =  2.0

     negative rho (up, down):  0.000E+00 6.199E-04

     total cpu time spent up to now is    11726.6 secs

     total energy              =  -10535.01784736 Ry
     estimated scf accuracy    <       0.00000117 Ry

     total magnetization       =     0.00 Bohr mag/cell
     absolute magnetization    =    56.30 Bohr mag/cell

     iteration # 15     ecut=    71.00 Ry     beta= 0.10
     Davidson diagonalization with overlap
     ethr =  1.99E-10,  avg # of iterations =  2.0

     negative rho (up, down):  0.000E+00 6.193E-04

     total cpu time spent up to now is    11861.7 secs

     total energy              =  -10535.01785139 Ry
     estimated scf accuracy    <       0.00000044 Ry

     total magnetization       =     0.00 Bohr mag/cell
     absolute magnetization    =    56.30 Bohr mag/cell

     iteration # 16     ecut=    71.00 Ry     beta= 0.10
     Davidson diagonalization with overlap
     ethr =  8.66E-11,  avg # of iterations =  2.9

     negative rho (up, down):  0.000E+00 6.179E-04

     total cpu time spent up to now is    12013.2 secs

     total energy              =  -10535.01785521 Ry
     estimated scf accuracy    <       0.00000023 Ry

     total magnetization       =     0.00 Bohr mag/cell
     absolute magnetization    =    56.31 Bohr mag/cell

     iteration # 17     ecut=    71.00 Ry     beta= 0.10
     Davidson diagonalization with overlap
     ethr =  4.50E-11,  avg # of iterations =  2.0

     negative rho (up, down):  0.000E+00 6.179E-04

     total cpu time spent up to now is    12158.2 secs

     total energy              =  -10535.01785791 Ry
     estimated scf accuracy    <       0.00000005 Ry

     total magnetization       =     0.00 Bohr mag/cell
     absolute magnetization    =    56.31 Bohr mag/cell

     iteration # 18     ecut=    71.00 Ry     beta= 0.10
     Davidson diagonalization with overlap
     ethr =  9.22E-12,  avg # of iterations =  2.9

     negative rho (up, down):  0.000E+00 6.179E-04

     total cpu time spent up to now is    12304.1 secs

     total energy              =  -10535.01786006 Ry
[...]



     Writing output data file /scratch/rFSwOCeUrTTDfOen.save/
     NEW-OLD atomic charge density approx. for the potential

     Check: negative core charge=   -0.000005

     negative rho (up, down):  0.000E+00 6.636E-04
     Generating pointlists ...

     total cpu time spent up to now is    32813.1 secs

     Self-consistent Calculation

     iteration #  1     ecut=    71.00 Ry     beta= 0.10
     Davidson diagonalization with overlap
     ethr =  1.00E-06,  avg # of iterations =  5.5

     negative rho (up, down):  0.000E+00 6.660E-04

     total cpu time spent up to now is    33041.2 secs

     total energy              =  -10535.05792519 Ry
     estimated scf accuracy    <       0.00067188 Ry

     total magnetization       =    -0.01 Bohr mag/cell
     absolute magnetization    =    65.43 Bohr mag/cell

     iteration #  2     ecut=    71.00 Ry     beta= 0.10
     Davidson diagonalization with overlap
     ethr =  1.31E-07,  avg # of iterations =  1.9

     negative rho (up, down):  0.000E+00 6.715E-04

     total cpu time spent up to now is    33163.9 secs

     total energy              =  -10535.05800182 Ry
     estimated scf accuracy    <       0.00027153 Ry

     total magnetization       =    -0.00 Bohr mag/cell
     absolute magnetization    =    65.42 Bohr mag/cell

     iteration #  3     ecut=    71.00 Ry     beta= 0.10
     Davidson diagonalization with overlap
     ethr =  5.30E-08,  avg # of iterations =  2.0

     negative rho (up, down):  0.000E+00 6.826E-04

     total cpu time spent up to now is    33291.0 secs

     total energy              =  -10535.05812792 Ry
     estimated scf accuracy    <       0.00007178 Ry

     total magnetization       =    -0.00 Bohr mag/cell
     absolute magnetization    =    65.42 Bohr mag/cell

     iteration #  4     ecut=    71.00 Ry     beta= 0.10
     Davidson diagonalization with overlap
     ethr =  1.40E-08,  avg # of iterations =  2.1

     negative rho (up, down):  0.000E+00 6.834E-04

     total cpu time spent up to now is    33439.3 secs

     total energy              =  -10535.05817091 Ry
     estimated scf accuracy    <       0.00003150 Ry

     total magnetization       =    -0.01 Bohr mag/cell
     absolute magnetization    =    65.40 Bohr mag/cell

     iteration #  5     ecut=    71.00 Ry     beta= 0.10
     Davidson diagonalization with overlap
     ethr =  6.15E-09,  avg # of iterations =  1.1

     negative rho (up, down):  0.000E+00 6.933E-04

     total cpu time spent up to now is    33551.2 secs

     total energy              =  -10535.05823195 Ry
     estimated scf accuracy    <       0.00002630 Ry

     total magnetization       =    -0.00 Bohr mag/cell
     absolute magnetization    =    65.40 Bohr mag/cell

     iteration #  6     ecut=    71.00 Ry     beta= 0.10
     Davidson diagonalization with overlap
     ethr =  5.14E-09,  avg # of iterations =  2.0

     negative rho (up, down):  0.000E+00 6.995E-04

     total cpu time spent up to now is    33693.3 secs

     total energy              =  -10535.05823518 Ry
     estimated scf accuracy    <       0.00000386 Ry

     total magnetization       =    -0.00 Bohr mag/cell
     absolute magnetization    =    65.39 Bohr mag/cell

     iteration #  7     ecut=    71.00 Ry     beta= 0.10
     Davidson diagonalization with overlap
     ethr =  7.54E-10,  avg # of iterations =  3.3

     negative rho (up, down):  0.000E+00 6.987E-04

     total cpu time spent up to now is    33853.9 secs

     total energy              =  -10535.05824206 Ry
     estimated scf accuracy    <       0.00000065 Ry

     total magnetization       =    -0.00 Bohr mag/cell
     absolute magnetization    =    65.38 Bohr mag/cell

     iteration #  8     ecut=    71.00 Ry     beta= 0.10
     Davidson diagonalization with overlap
     ethr =  1.26E-10,  avg # of iterations =  2.0

     negative rho (up, down):  0.000E+00 6.978E-04

     total cpu time spent up to now is    33993.8 secs

     total energy              =  -10535.05824343 Ry
     estimated scf accuracy    <       0.00000033 Ry

     total magnetization       =    -0.01 Bohr mag/cell
     absolute magnetization    =    65.38 Bohr mag/cell

     iteration #  9     ecut=    71.00 Ry     beta= 0.10
     Davidson diagonalization with overlap
     ethr =  6.36E-11,  avg # of iterations =  2.0

     negative rho (up, down):  0.000E+00 6.978E-04

     total cpu time spent up to now is    34146.0 secs

     total energy              =  -10535.05824389 Ry
     estimated scf accuracy    <       0.00000012 Ry

     total magnetization       =    -0.01 Bohr mag/cell
     absolute magnetization    =    65.38 Bohr mag/cell

     iteration # 10     ecut=    71.00 Ry     beta= 0.10
     Davidson diagonalization with overlap
     ethr =  2.29E-11,  avg # of iterations =  2.0

     negative rho (up, down):  0.000E+00 6.974E-04

     total cpu time spent up to now is    34272.9 secs

     total energy              =  -10535.05824426 Ry
     estimated scf accuracy    <       0.00000005 Ry

     total magnetization       =    -0.01 Bohr mag/cell
     absolute magnetization    =    65.37 Bohr mag/cell

     iteration # 11     ecut=    71.00 Ry     beta= 0.10
     Davidson diagonalization with overlap
     ethr =  1.01E-11,  avg # of iterations =  2.0

     negative rho (up, down):  0.000E+00 6.973E-04

     total cpu time spent up to now is    34415.7 secs

     total energy              =  -10535.05824446 Ry
     estimated scf accuracy    <       0.00000003 Ry

     total magnetization       =    -0.01 Bohr mag/cell
     absolute magnetization    =    65.37 Bohr mag/cell

     iteration # 12     ecut=    71.00 Ry     beta= 0.10
     Davidson diagonalization with overlap
     ethr =  6.25E-12,  avg # of iterations =  2.9

     negative rho (up, down):  0.000E+00 6.971E-04

     total cpu time spent up to now is    34556.1 secs

     total energy              =  -10535.05824466 Ry
     estimated scf accuracy    <       0.00000001 Ry

     total magnetization       =    -0.01 Bohr mag/cell
     absolute magnetization    =    65.37 Bohr mag/cell

     iteration # 13     ecut=    71.00 Ry     beta= 0.10
     Davidson diagonalization with overlap
     ethr =  2.92E-12,  avg # of iterations =  3.7

     negative rho (up, down):  0.000E+00 6.971E-04

     total cpu time spent up to now is    34709.3 secs

     total energy              =  -10535.05824479 Ry
     estimated scf accuracy    <       0.00000001 Ry

     total magnetization       =    -0.01 Bohr mag/cell
     absolute magnetization    =    65.37 Bohr mag/cell

     iteration # 14     ecut=    71.00 Ry     beta= 0.10
     Davidson diagonalization with overlap
     ethr =  2.30E-12,  avg # of iterations =  1.0

     negative rho (up, down):  0.000E+00 6.967E-04

     total cpu time spent up to now is    34820.1 secs

     total energy              =  -10535.05824491 Ry
     estimated scf accuracy    <          8.7E-09 Ry

     total magnetization       =    -0.01 Bohr mag/cell
     absolute magnetization    =    65.37 Bohr mag/cell

     iteration # 15     ecut=    71.00 Ry     beta= 0.10
     Davidson diagonalization with overlap
     ethr =  1.69E-12,  avg # of iterations =  3.1

     negative rho (up, down):  0.000E+00 6.967E-04

     total cpu time spent up to now is    34971.5 secs

     total energy              =  -10535.05824500 Ry
     estimated scf accuracy    <          1.8E-09 Ry

     total magnetization       =    -0.01 Bohr mag/cell
     absolute magnetization    =    65.37 Bohr mag/cell

     iteration # 16     ecut=    71.00 Ry     beta= 0.10
     Davidson diagonalization with overlap
     ethr =  3.51E-13,  avg # of iterations =  2.0

     negative rho (up, down):  0.000E+00 6.968E-04

     total cpu time spent up to now is    35098.7 secs

     total energy              =  -10535.05824507 Ry
     estimated scf accuracy    <          1.2E-09 Ry

     total magnetization       =    -0.01 Bohr mag/cell
     absolute magnetization    =    65.37 Bohr mag/cell

     iteration # 17     ecut=    71.00 Ry     beta= 0.10
     Davidson diagonalization with overlap
     ethr =  2.44E-13,  avg # of iterations =  2.9

     negative rho (up, down):  0.000E+00 6.967E-04
 
     Magnetic moment per site:
     atom:    1    charge:   14.3674    magn:    1.5601    constr:    0.0000
     atom:    2    charge:   14.2601    magn:   -2.3408    constr:    0.0000
     atom:    3    charge:   14.3670    magn:    1.5614    constr:    0.0000
     atom:    4    charge:   14.2601    magn:   -2.3408    constr:    0.0000
     atom:    5    charge:   14.3674    magn:    1.5600    constr:    0.0000
     atom:    6    charge:   14.2601    magn:   -2.3408    constr:    0.0000
     atom:    7    charge:   14.3670    magn:    1.5614    constr:    0.0000
     atom:    8    charge:   14.2601    magn:   -2.3408    constr:    0.0000
     atom:    9    charge:   14.2599    magn:    2.3418    constr:    0.0000
     atom:   10    charge:   14.3670    magn:   -1.5624    constr:    0.0000
     atom:   11    charge:   14.2593    magn:    2.3419    constr:    0.0000
     atom:   12    charge:   14.3670    magn:   -1.5624    constr:    0.0000
     atom:   13    charge:   14.2599    magn:    2.3418    constr:    0.0000
     atom:   14    charge:   14.3670    magn:   -1.5624    constr:    0.0000
     atom:   15    charge:   14.2593    magn:    2.3419    constr:    0.0000
     atom:   16    charge:   14.3670    magn:   -1.5624    constr:    0.0000
     atom:   17    charge:   14.3674    magn:    1.5600    constr:    0.0000
     atom:   18    charge:   14.2601    magn:   -2.3408    constr:    0.0000
     atom:   19    charge:   14.3670    magn:    1.5614    constr:    0.0000
     atom:   20    charge:   14.2601    magn:   -2.3408    constr:    0.0000
     atom:   21    charge:   14.3674    magn:    1.5600    constr:    0.0000
     atom:   22    charge:   14.2601    magn:   -2.3408    constr:    0.0000
     atom:   23    charge:   14.3670    magn:    1.5614    constr:    0.0000
     atom:   24    charge:   14.2601    magn:   -2.3408    constr:    0.0000
     atom:   25    charge:   14.2599    magn:    2.3418    constr:    0.0000
     atom:   26    charge:   14.3670    magn:   -1.5624    constr:    0.0000
     atom:   27    charge:   14.2593    magn:    2.3419    constr:    0.0000
     atom:   28    charge:   14.3670    magn:   -1.5624    constr:    0.0000
     atom:   29    charge:   14.2599    magn:    2.3419    constr:    0.0000
     atom:   30    charge:   14.3670    magn:   -1.5624    constr:    0.0000
     atom:   31    charge:   14.2593    magn:    2.3419    constr:    0.0000
     atom:   32    charge:   14.3670    magn:   -1.5624    constr:    0.0000

     total cpu time spent up to now is    35247.9 secs

     End of self-consistent calculation

     Number of k-points >= 100: set verbosity='high' to print the bands.

     the Fermi energy is    12.9946 ev

!    total energy              =  -10535.05824535 Ry

     total all-electron energy =    -81456.547303 Ry
     estimated scf accuracy    <          9.4E-10 Ry
     smearing contrib. (-TS)   =       0.03496962 Ry
     internal energy E=F+TS    =  -10535.09321497 Ry

     The total energy is F=E-TS. E is the sum of the following terms:
     one-electron contribution =   -8977.87424703 Ry
     hartree contribution      =    4707.92630598 Ry
     xc contribution           =    -886.32929998 Ry
     ewald contribution        =   -2729.47248652 Ry
     one-center paw contrib.   =   -2649.34348742 Ry

     total magnetization       =    -0.01 Bohr mag/cell
     absolute magnetization    =    65.37 Bohr mag/cell

     convergence has been achieved in  17 iterations

     negative rho (up, down):  0.000E+00 6.967E-04

     Forces acting on atoms (cartesian axes, Ry/au):

     atom    1 type  1   force =     0.00000000    0.00004131    0.00000000
     atom    2 type  2   force =    -0.00000035   -0.00013046    0.00000000
     atom    3 type  1   force =     0.00000111    0.00000742    0.00000111
     atom    4 type  2   force =     0.00000000   -0.00013046   -0.00000035
     atom    5 type  1   force =     0.00000000    0.00003790    0.00000000
     atom    6 type  2   force =     0.00000042   -0.00012933    0.00000000
     atom    7 type  1   force =     0.00000111    0.00000742   -0.00000111
     atom    8 type  2   force =     0.00000000   -0.00013046    0.00000035
     atom    9 type  1   force =     0.00000000    0.00000564    0.00000000
     atom   10 type  2   force =    -0.00000171    0.00007499    0.00000000
     atom   11 type  1   force =     0.00000070    0.00005771    0.00000070
     atom   12 type  2   force =     0.00000000    0.00007499   -0.00000171
     atom   13 type  1   force =     0.00000000    0.00000810    0.00000000
     atom   14 type  2   force =    -0.00000137    0.00007369    0.00000000
     atom   15 type  1   force =     0.00000070    0.00005771   -0.00000070
     atom   16 type  2   force =     0.00000000    0.00007499    0.00000171
     atom   17 type  1   force =     0.00000000    0.00003790    0.00000000
     atom   18 type  2   force =     0.00000035   -0.00013046    0.00000000
     atom   19 type  1   force =    -0.00000111    0.00000742    0.00000111
     atom   20 type  2   force =     0.00000000   -0.00012933    0.00000042
     atom   21 type  1   force =     0.00000000    0.00003435    0.00000000
     atom   22 type  2   force =    -0.00000042   -0.00012933    0.00000000
     atom   23 type  1   force =    -0.00000111    0.00000742   -0.00000111
     atom   24 type  2   force =     0.00000000   -0.00012933   -0.00000042
     atom   25 type  1   force =     0.00000000    0.00000810    0.00000000
     atom   26 type  2   force =     0.00000171    0.00007499    0.00000000
     atom   27 type  1   force =    -0.00000070    0.00005771    0.00000070
     atom   28 type  2   force =     0.00000000    0.00007369   -0.00000137
     atom   29 type  1   force =     0.00000000    0.00001062    0.00000000
     atom   30 type  2   force =     0.00000137    0.00007369    0.00000000
     atom   31 type  1   force =    -0.00000070    0.00005771   -0.00000070
     atom   32 type  2   force =     0.00000000    0.00007369    0.00000137

     Total force =     0.000446     Total SCF correction =     0.000159
     SCF correction compared to forces is large: reduce conv_thr to get better values


     Computing stress (Cartesian axis) and pressure


     negative rho (up, down):  0.000E+00 6.967E-04
          total   stress  (Ry/bohr**3)                   (kbar)     P=      -51.17
  -0.00029187   0.00000000   0.00000000          -42.94        0.00        0.00
   0.00000000  -0.00045981   0.00000000            0.00      -67.64        0.00
   0.00000000   0.00000000  -0.00029187            0.00        0.00      -42.94

     Energy error            =      2.8E-05
     Gradient error          =      1.3E-04

     bfgs converged in  11 scf cycles and  10 bfgs steps
     (criteria: energy <  1.0E-04 Ry, force <  1.0E-03 Ry/Bohr)

     End of BFGS Geometry Optimization

     Final energy   =  -10535.0582453512 Ry

     File /scratch/rFSwOCeUrTTDfOen.bfgs deleted, as requested
Begin final coordinates

ATOMIC_POSITIONS (crystal)
Fe1           0.0000000000        0.0061785854        0.0000000000
Fe2           0.2499998179        0.1866651968        0.0000000000
Fe1           0.2499995723        0.0061360045        0.2499995723
Fe2          -0.0000000000        0.1866651968        0.2499998179
Fe1           0.0000000000        0.0061800049        0.5000000000
Fe2           0.2499995496        0.1866650888        0.5000000000
Fe1           0.2499995723        0.0061360045        0.7500004277
Fe2           0.0000000000        0.1866651968        0.7500001821
Fe1           0.0000000000        0.6466217965        0.0000000000
Fe2           0.2500008124        0.8272198728        0.0000000000
Fe1           0.2499995368        0.6466267825        0.2499995368
Fe2           0.0000000000        0.8272198728        0.2500008124
Fe1           0.0000000000        0.6466201094        0.5000000000
Fe2           0.2500007262        0.8272202383        0.5000000000
Fe1           0.2499995368        0.6466267825        0.7500004632
Fe2          -0.0000000000        0.8272198728        0.7499991876
Fe1           0.5000000000        0.0061800049        0.0000000000
Fe2           0.7500001821        0.1866651968        0.0000000000
Fe1           0.7500004277        0.0061360045        0.2499995723
Fe2           0.5000000000        0.1866650888        0.2499995496
Fe1           0.5000000000        0.0061815468        0.5000000000
Fe2           0.7500004504        0.1866650888        0.5000000000
Fe1           0.7500004277        0.0061360045        0.7500004277
Fe2           0.5000000000        0.1866650888        0.7500004504
Fe1           0.5000000000        0.6466201094        0.0000000000
Fe2           0.7499991876        0.8272198728        0.0000000000
Fe1           0.7500004632        0.6466267825        0.2499995368
Fe2           0.5000000000        0.8272202383        0.2500007262
Fe1           0.5000000000        0.6466184410        0.5000000000
Fe2           0.7499992738        0.8272202383        0.5000000000
Fe1           0.7500004632        0.6466267825        0.7500004632
Fe2           0.5000000000        0.8272202383        0.7499992738
End final coordinates



     Writing output data file /scratch/rFSwOCeUrTTDfOen.save/
 
     init_run     :     42.30s CPU     43.26s WALL (       1 calls)
     electrons    :  32900.50s CPU  33282.24s WALL (      11 calls)
     update_pot   :      3.56s CPU      3.66s WALL (      10 calls)
     forces       :    260.41s CPU    262.57s WALL (      11 calls)
     stress       :   1773.22s CPU   1787.33s WALL (      11 calls)

     Called by init_run:
     wfcinit      :     41.48s CPU     42.33s WALL (       1 calls)
     potinit      :      0.36s CPU      0.40s WALL (       1 calls)
     hinit0       :      0.17s CPU      0.17s WALL (       1 calls)

     Called by electrons:
     c_bands      :  29184.40s CPU  29496.78s WALL (     227 calls)
     sum_band     :   3648.91s CPU   3711.59s WALL (     227 calls)
     v_of_rho     :      8.42s CPU      8.92s WALL (     238 calls)
     newd         :     12.30s CPU     15.73s WALL (     238 calls)
     PAW_pot      :     42.67s CPU     44.57s WALL (     248 calls)
     mix_rho      :      6.80s CPU      7.22s WALL (     227 calls)

     Called by c_bands:
     init_us_2    :    140.37s CPU    142.42s WALL (   73050 calls)
     cegterg      :  28625.06s CPU  28917.34s WALL (   34050 calls)

     Called by *egterg:
     cdiaghg      :   3058.59s CPU   3074.46s WALL (  117580 calls)
     h_psi        :  15368.88s CPU  15582.47s WALL (  119230 calls)
     s_psi        :   1271.66s CPU   1279.74s WALL (  119230 calls)
     g_psi        :     41.27s CPU     41.92s WALL (   85030 calls)

     Called by h_psi:
     h_psi:calbec :   2289.27s CPU   2303.92s WALL (  119230 calls)
     vloc_psi     :  11757.66s CPU  11940.64s WALL (  119230 calls)
     add_vuspsi   :   1232.21s CPU   1247.23s WALL (  119230 calls)

     General routines
     calbec       :   3680.52s CPU   3704.13s WALL (  163030 calls)
     fft          :      7.26s CPU      7.47s WALL (    6378 calls)
     ffts         :      3.59s CPU      3.64s WALL (    8398 calls)
     fftw         :  13866.47s CPU  14081.72s WALL (64516550 calls)
     interpolate  :      0.78s CPU      0.79s WALL (     476 calls)
 
     Parallel routines
     fft_scatt_xy :    682.94s CPU    693.74s WALL (64531326 calls)
     fft_scatt_yz :  11848.54s CPU  12034.69s WALL (64531326 calls)
 
     PWSCF        :      9h44m CPU      9h51m WALL

 
   This run was terminated on:  19:15:35  16Jan2022            

=------------------------------------------------------------------------------=
   JOB DONE.
=------------------------------------------------------------------------------=
