
     Program PWSCF v.6.7MaX starts on 23Nov2021 at 14:29:31 

     This program is part of the open-source Quantum ESPRESSO suite
     for quantum simulation of materials; please cite
         "P. Giannozzi et al., J. Phys.:Condens. Matter 21 395502 (2009);
         "P. Giannozzi et al., J. Phys.:Condens. Matter 29 465901 (2017);
          URL http://www.quantum-espresso.org", 
     in publications or presentations arising from this work. More details at
     http://www.quantum-espresso.org/quote

     Parallel version (MPI & OpenMP), running on      72 processor cores
     Number of MPI processes:                72
     Threads/MPI process:                     1

     MPI processes distributed on     1 nodes
     R & G space division:  proc/nbgrp/npool/nimage =      72
     Reading input from /rds/homes/b/bxp912/jobs/20211014_ru_eos/wd/ec/ec_1_004.in
Warning: card &CELL ignored
Warning: card CELL_DYNAMICS = 'BFGS', ignored
Warning: card CELL_FACTOR = 2.0, ignored
Warning: card PRESS = 0.0, ignored
Warning: card / ignored

     Current dimensions of program PWSCF are:
     Max number of different atomic species (ntypx) = 10
     Max number of k-points (npk) =  40000
     Max angular momentum in pseudopotentials (lmaxx) =  3
     file Ru.pbe-spn-kjpaw_psl.1.0.0.UPF: wavefunction(s)  4D renormalized

     Subspace diagonalization in iterative solution of the eigenvalue problem:
     one sub-group per band group will be used
     ELPA distributed-memory algorithm (size of sub-group:  8*  8 procs)

     Found symmetry operation: I + (  0.2500  0.2500  0.0000)
     This is a supercell, fractional translations are disabled
     Message from routine setup:
     using ibrav=0 with symmetry is DISCOURAGED, use correct ibrav instead
 
     Parallelization info
     --------------------
     sticks:   dense  smooth     PW     G-vecs:    dense   smooth      PW
     Min          98      65     17                 6256     3357     475
     Max          99      66     18                 6261     3362     482
     Sum        7125    4705   1281               450647   241905   34465
 


     bravais-lattice index     =            0
     lattice parameter (alat)  =      14.4007  a.u.
     unit-cell volume          =    2992.0449 (a.u.)^3
     number of atoms/cell      =           32
     number of atomic types    =            1
     number of electrons       =       512.00
     number of Kohn-Sham states=          307
     kinetic-energy cutoff     =      71.0000  Ry
     charge density cutoff     =     430.0000  Ry
     scf convergence threshold =      1.0E-06
     mixing beta               =       0.1000
     number of iterations used =           10  plain     mixing
     Exchange-correlation= SLA  PW   PBX  PBC
                           (   1   4   3   4   0   0   0)

     celldm(1)=  14.400742  celldm(2)=   0.000000  celldm(3)=   0.000000
     celldm(4)=   0.000000  celldm(5)=   0.000000  celldm(6)=   0.000000

     crystal axes: (cart. coord. in units of alat)
               a(1) = (   1.001875   0.000000   0.000000 )  
               a(2) = (   0.000000   1.000000   0.000000 )  
               a(3) = (   0.000000   0.000000   1.000000 )  

     reciprocal axes: (cart. coord. in units 2 pi/alat)
               b(1) = (  0.998129  0.000000  0.000000 )  
               b(2) = (  0.000000  1.000000  0.000000 )  
               b(3) = (  0.000000  0.000000  1.000000 )  


     PseudoPot. # 1 for Ru read from file:
     /rds/homes/b/bxp912/pp/Ru.pbe-spn-kjpaw_psl.1.0.0.UPF
     MD5 check sum: 0ae1f594dea09af7be8575c3a481d1ae
     Pseudo is Projector augmented-wave + core cor, Zval = 16.0
     Generated using "atomic" code by A. Dal Corso  v.5.1
     Shape of augmentation charge: PSQ
     Using radial grid of 1233 points,  6 beta functions with: 
                l(1) =   0
                l(2) =   0
                l(3) =   1
                l(4) =   1
                l(5) =   2
                l(6) =   2
     Q(r) pseudized with 0 coefficients 


     atomic species   valence    mass     pseudopotential
        Ru            16.00   101.07000     Ru( 1.00)

     16 Sym. Ops., with inversion, found



   Cartesian axes

     site n.     atom                  positions (alat units)
         1           Ru  tau(   1) = (   0.0000000   0.0000000   0.0000000  )
         2           Ru  tau(   2) = (   0.2504688   0.2500000   0.0000000  )
         3           Ru  tau(   3) = (   0.2504688   0.0000000   0.2499995  )
         4           Ru  tau(   4) = (   0.0000000   0.2500000   0.2499995  )
         5           Ru  tau(   5) = (   0.0000000   0.0000000   0.5000000  )
         6           Ru  tau(   6) = (   0.2504677   0.2499990   0.5000000  )
         7           Ru  tau(   7) = (   0.2504688   0.0000000   0.7499995  )
         8           Ru  tau(   8) = (   0.0000000   0.2500000   0.7499995  )
         9           Ru  tau(   9) = (   0.0000000   0.5000002   0.0000000  )
        10           Ru  tau(  10) = (   0.2504688   0.7500004   0.0000000  )
        11           Ru  tau(  11) = (   0.2504677   0.5000002   0.2499984  )
        12           Ru  tau(  12) = (   0.0000000   0.7500004   0.2499995  )
        13           Ru  tau(  13) = (   0.0000000   0.5000002   0.5000000  )
        14           Ru  tau(  14) = (   0.2504677   0.7500015   0.5000000  )
        15           Ru  tau(  15) = (   0.2504677   0.5000002   0.7500005  )
        16           Ru  tau(  16) = (   0.0000000   0.7500004   0.7499995  )
        17           Ru  tau(  17) = (   0.5009377   0.0000000   0.0000000  )
        18           Ru  tau(  18) = (   0.7514067   0.2500000   0.0000000  )
        19           Ru  tau(  19) = (   0.7514067   0.0000000   0.2499995  )
        20           Ru  tau(  20) = (   0.5009377   0.2499990   0.2499984  )
        21           Ru  tau(  21) = (   0.5009377   0.0000000   0.5000000  )
        22           Ru  tau(  22) = (   0.7514077   0.2499990   0.5000000  )
        23           Ru  tau(  23) = (   0.7514067   0.0000000   0.7499995  )
        24           Ru  tau(  24) = (   0.5009377   0.2499990   0.7500005  )
        25           Ru  tau(  25) = (   0.5009377   0.5000002   0.0000000  )
        26           Ru  tau(  26) = (   0.7514067   0.7500004   0.0000000  )
        27           Ru  tau(  27) = (   0.7514077   0.5000002   0.2499984  )
        28           Ru  tau(  28) = (   0.5009377   0.7500015   0.2499984  )
        29           Ru  tau(  29) = (   0.5009377   0.5000002   0.5000000  )
        30           Ru  tau(  30) = (   0.7514077   0.7500015   0.5000000  )
        31           Ru  tau(  31) = (   0.7514077   0.5000002   0.7500005  )
        32           Ru  tau(  32) = (   0.5009377   0.7500015   0.7500005  )

     number of k points=    75  Marzari-Vanderbilt smearing, width (Ry)=  0.0400
                       cart. coord. in units 2pi/alat
        k(    1) = (   0.0554516   0.0555556   0.0555556), wk =   0.0219479
        k(    2) = (   0.0554516   0.0555556   0.1666667), wk =   0.0438957
        k(    3) = (   0.0554516   0.0555556   0.2777778), wk =   0.0438957
        k(    4) = (   0.0554516   0.0555556   0.3888889), wk =   0.0438957
        k(    5) = (   0.0554516   0.0555556  -0.5000000), wk =   0.0219479
        k(    6) = (   0.0554516   0.1666667   0.1666667), wk =   0.0219479
        k(    7) = (   0.0554516   0.1666667   0.2777778), wk =   0.0438957
        k(    8) = (   0.0554516   0.1666667   0.3888889), wk =   0.0438957
        k(    9) = (   0.0554516   0.1666667  -0.5000000), wk =   0.0219479
        k(   10) = (   0.0554516   0.2777778   0.2777778), wk =   0.0219479
        k(   11) = (   0.0554516   0.2777778   0.3888889), wk =   0.0438957
        k(   12) = (   0.0554516   0.2777778  -0.5000000), wk =   0.0219479
        k(   13) = (   0.0554516   0.3888889   0.3888889), wk =   0.0219479
        k(   14) = (   0.0554516   0.3888889  -0.5000000), wk =   0.0219479
        k(   15) = (   0.0554516  -0.5000000  -0.5000000), wk =   0.0054870
        k(   16) = (   0.1663548   0.0555556   0.0555556), wk =   0.0219479
        k(   17) = (   0.1663548   0.0555556   0.1666667), wk =   0.0438957
        k(   18) = (   0.1663548   0.0555556   0.2777778), wk =   0.0438957
        k(   19) = (   0.1663548   0.0555556   0.3888889), wk =   0.0438957
        k(   20) = (   0.1663548   0.0555556  -0.5000000), wk =   0.0219479
        k(   21) = (   0.1663548   0.1666667   0.1666667), wk =   0.0219479
        k(   22) = (   0.1663548   0.1666667   0.2777778), wk =   0.0438957
        k(   23) = (   0.1663548   0.1666667   0.3888889), wk =   0.0438957
        k(   24) = (   0.1663548   0.1666667  -0.5000000), wk =   0.0219479
        k(   25) = (   0.1663548   0.2777778   0.2777778), wk =   0.0219479
        k(   26) = (   0.1663548   0.2777778   0.3888889), wk =   0.0438957
        k(   27) = (   0.1663548   0.2777778  -0.5000000), wk =   0.0219479
        k(   28) = (   0.1663548   0.3888889   0.3888889), wk =   0.0219479
        k(   29) = (   0.1663548   0.3888889  -0.5000000), wk =   0.0219479
        k(   30) = (   0.1663548  -0.5000000  -0.5000000), wk =   0.0054870
        k(   31) = (   0.2772579   0.0555556   0.0555556), wk =   0.0219479
        k(   32) = (   0.2772579   0.0555556   0.1666667), wk =   0.0438957
        k(   33) = (   0.2772579   0.0555556   0.2777778), wk =   0.0438957
        k(   34) = (   0.2772579   0.0555556   0.3888889), wk =   0.0438957
        k(   35) = (   0.2772579   0.0555556  -0.5000000), wk =   0.0219479
        k(   36) = (   0.2772579   0.1666667   0.1666667), wk =   0.0219479
        k(   37) = (   0.2772579   0.1666667   0.2777778), wk =   0.0438957
        k(   38) = (   0.2772579   0.1666667   0.3888889), wk =   0.0438957
        k(   39) = (   0.2772579   0.1666667  -0.5000000), wk =   0.0219479
        k(   40) = (   0.2772579   0.2777778   0.2777778), wk =   0.0219479
        k(   41) = (   0.2772579   0.2777778   0.3888889), wk =   0.0438957
        k(   42) = (   0.2772579   0.2777778  -0.5000000), wk =   0.0219479
        k(   43) = (   0.2772579   0.3888889   0.3888889), wk =   0.0219479
        k(   44) = (   0.2772579   0.3888889  -0.5000000), wk =   0.0219479
        k(   45) = (   0.2772579  -0.5000000  -0.5000000), wk =   0.0054870
        k(   46) = (   0.3881611   0.0555556   0.0555556), wk =   0.0219479
        k(   47) = (   0.3881611   0.0555556   0.1666667), wk =   0.0438957
        k(   48) = (   0.3881611   0.0555556   0.2777778), wk =   0.0438957
        k(   49) = (   0.3881611   0.0555556   0.3888889), wk =   0.0438957
        k(   50) = (   0.3881611   0.0555556  -0.5000000), wk =   0.0219479
        k(   51) = (   0.3881611   0.1666667   0.1666667), wk =   0.0219479
        k(   52) = (   0.3881611   0.1666667   0.2777778), wk =   0.0438957
        k(   53) = (   0.3881611   0.1666667   0.3888889), wk =   0.0438957
        k(   54) = (   0.3881611   0.1666667  -0.5000000), wk =   0.0219479
        k(   55) = (   0.3881611   0.2777778   0.2777778), wk =   0.0219479
        k(   56) = (   0.3881611   0.2777778   0.3888889), wk =   0.0438957
        k(   57) = (   0.3881611   0.2777778  -0.5000000), wk =   0.0219479
        k(   58) = (   0.3881611   0.3888889   0.3888889), wk =   0.0219479
        k(   59) = (   0.3881611   0.3888889  -0.5000000), wk =   0.0219479
        k(   60) = (   0.3881611  -0.5000000  -0.5000000), wk =   0.0054870
        k(   61) = (  -0.4990643   0.0555556   0.0555556), wk =   0.0109739
        k(   62) = (  -0.4990643   0.0555556   0.1666667), wk =   0.0219479
        k(   63) = (  -0.4990643   0.0555556   0.2777778), wk =   0.0219479
        k(   64) = (  -0.4990643   0.0555556   0.3888889), wk =   0.0219479
        k(   65) = (  -0.4990643   0.0555556  -0.5000000), wk =   0.0109739
        k(   66) = (  -0.4990643   0.1666667   0.1666667), wk =   0.0109739
        k(   67) = (  -0.4990643   0.1666667   0.2777778), wk =   0.0219479
        k(   68) = (  -0.4990643   0.1666667   0.3888889), wk =   0.0219479
        k(   69) = (  -0.4990643   0.1666667  -0.5000000), wk =   0.0109739
        k(   70) = (  -0.4990643   0.2777778   0.2777778), wk =   0.0109739
        k(   71) = (  -0.4990643   0.2777778   0.3888889), wk =   0.0219479
        k(   72) = (  -0.4990643   0.2777778  -0.5000000), wk =   0.0109739
        k(   73) = (  -0.4990643   0.3888889   0.3888889), wk =   0.0109739
        k(   74) = (  -0.4990643   0.3888889  -0.5000000), wk =   0.0109739
        k(   75) = (  -0.4990643  -0.5000000  -0.5000000), wk =   0.0027435

     Dense  grid:   450647 G-vectors     FFT dimensions: (  96,  96,  96)

     Smooth grid:   241905 G-vectors     FFT dimensions: (  80,  80,  80)

     Estimated max dynamical RAM per process >     185.67 MB

     Estimated total dynamical RAM >      13.05 GB

     Check: negative core charge=   -0.000002

     Initial potential from superposition of free atoms

     starting charge  511.97959, renormalised to  512.00000
     Starting wfcs are  320 randomized atomic wfcs
     Checking if some PAW data can be deallocated... 

     total cpu time spent up to now is       29.9 secs

     Self-consistent Calculation

     iteration #  1     ecut=    71.00 Ry     beta= 0.10
     Davidson diagonalization with overlap
     ethr =  1.00E-02,  avg # of iterations =  3.4

     Threshold (ethr) on eigenvalues was too large:
     Diagonalizing with lowered threshold

     Davidson diagonalization with overlap
     ethr =  8.33E-05,  avg # of iterations =  5.3

     total cpu time spent up to now is      213.4 secs

     total energy              =  -13813.41257616 Ry
     estimated scf accuracy    <       0.63770708 Ry

     iteration #  2     ecut=    71.00 Ry     beta= 0.10
     Davidson diagonalization with overlap
     ethr =  1.25E-04,  avg # of iterations =  1.0

     total cpu time spent up to now is      279.0 secs

     total energy              =  -13813.20655873 Ry
     estimated scf accuracy    <       0.39844968 Ry

     iteration #  3     ecut=    71.00 Ry     beta= 0.10
     Davidson diagonalization with overlap
     ethr =  7.78E-05,  avg # of iterations =  2.2

     total cpu time spent up to now is      359.7 secs

     total energy              =  -13813.29937958 Ry
     estimated scf accuracy    <       0.03490528 Ry

     iteration #  4     ecut=    71.00 Ry     beta= 0.10
     Davidson diagonalization with overlap
     ethr =  6.82E-06,  avg # of iterations =  3.1

     total cpu time spent up to now is      434.7 secs

     total energy              =  -13813.29994620 Ry
     estimated scf accuracy    <       0.00877924 Ry

     iteration #  5     ecut=    71.00 Ry     beta= 0.10
     Davidson diagonalization with overlap
     ethr =  1.71E-06,  avg # of iterations =  1.7

     total cpu time spent up to now is      496.5 secs

     total energy              =  -13813.30138292 Ry
     estimated scf accuracy    <       0.00553272 Ry

     iteration #  6     ecut=    71.00 Ry     beta= 0.10
     Davidson diagonalization with overlap
     ethr =  1.08E-06,  avg # of iterations =  3.6

     total cpu time spent up to now is      602.1 secs

     total energy              =  -13813.29943354 Ry
     estimated scf accuracy    <       0.01620981 Ry

     iteration #  7     ecut=    71.00 Ry     beta= 0.10
     Davidson diagonalization with overlap
     ethr =  1.08E-06,  avg # of iterations =  2.5

     total cpu time spent up to now is      693.4 secs

     total energy              =  -13813.30078622 Ry
     estimated scf accuracy    <       0.00110137 Ry

     iteration #  8     ecut=    71.00 Ry     beta= 0.10
     Davidson diagonalization with overlap
     ethr =  2.15E-07,  avg # of iterations =  2.2

     total cpu time spent up to now is      768.6 secs

     total energy              =  -13813.30084591 Ry
     estimated scf accuracy    <       0.00021933 Ry

     iteration #  9     ecut=    71.00 Ry     beta= 0.10
     Davidson diagonalization with overlap
     ethr =  4.28E-08,  avg # of iterations =  2.1

     total cpu time spent up to now is      837.5 secs

     total energy              =  -13813.30080965 Ry
     estimated scf accuracy    <       0.00011420 Ry

     iteration # 10     ecut=    71.00 Ry     beta= 0.10
     Davidson diagonalization with overlap
     ethr =  2.23E-08,  avg # of iterations =  2.3

     total cpu time spent up to now is      915.2 secs

     total energy              =  -13813.30082117 Ry
     estimated scf accuracy    <       0.00001019 Ry

     iteration # 11     ecut=    71.00 Ry     beta= 0.10
     Davidson diagonalization with overlap
     ethr =  1.99E-09,  avg # of iterations =  4.2

     total cpu time spent up to now is     1012.7 secs

     total energy              =  -13813.30082238 Ry
     estimated scf accuracy    <       0.00000154 Ry

     iteration # 12     ecut=    71.00 Ry     beta= 0.10
     Davidson diagonalization with overlap
     ethr =  3.00E-10,  avg # of iterations =  3.9

     total cpu time spent up to now is     1120.9 secs

     total energy              =  -13813.30082228 Ry
     estimated scf accuracy    <       0.00000575 Ry

     iteration # 13     ecut=    71.00 Ry     beta= 0.10
     Davidson diagonalization with overlap
     ethr =  3.00E-10,  avg # of iterations =  3.1

     total cpu time spent up to now is     1212.1 secs

     End of self-consistent calculation

          k = 0.0555 0.0556 0.0556 ( 30281 PWs)   bands (ev):

   -49.9573 -49.8586 -49.8580 -49.8580 -49.8395 -49.8389 -49.8389 -49.8034
   -49.8034 -49.8033 -49.7941 -49.7930 -49.7930 -49.7929 -49.7929 -49.7929
   -49.7929 -49.7924 -49.7924 -49.7923 -49.7842 -49.7841 -49.7841 -49.7399
   -49.7389 -49.7389 -49.7388 -49.7388 -49.7386 -49.7385 -49.7382 -49.7381
   -20.3590 -20.3590 -20.3590 -20.3549 -20.2969 -20.2969 -20.2963 -20.0994
   -20.0966 -20.0966 -20.0881 -20.0881 -20.0854 -20.0853 -20.0852 -20.0852
   -20.0682 -20.0651 -20.0651 -20.0450 -20.0450 -20.0430 -20.0430 -20.0428
   -20.0428 -19.9950 -19.9950 -19.9927 -19.9927 -19.9923 -19.9923 -19.8947
   -19.8947 -19.8942 -19.8221 -19.8221 -19.8214 -19.8142 -19.8142 -19.8138
   -19.7810 -19.7810 -19.7805 -19.7805 -19.7801 -19.7801 -19.7408 -19.7408
   -19.7402 -19.7345 -19.7345 -19.7340 -19.7340 -19.7328 -19.7328 -19.7298
   -19.7298 -19.7259 -19.7239 -19.7239 -19.7214 -19.5632 -19.5632 -19.5612
   -19.5611 -19.5607 -19.5601 -19.5311 -19.5311 -19.5295 -19.5295 -19.5288
   -19.5288 -19.5158 -19.5158 -19.5135 -19.5042 -19.5028 -19.5028 -19.5024
   -19.5024 -19.5024 -19.5023 -19.5004 -19.5003 -19.4998 -19.4998 -19.4984
   -19.4984 -19.4956 -19.4840 -19.4840 -19.4820 -19.3711 -19.3643 -19.3641
    15.3016  16.8638  16.8638  16.8654  17.1417  17.1594  17.1594  17.1594
    17.3311  17.3311  17.3332  17.5491  17.5558  17.5558  17.7215  17.7280
    17.7280  18.2632  18.2632  18.2732  18.2732  18.2736  18.2736  18.5808
    18.5873  18.5873  18.8475  18.8475  18.8479  18.8520  18.8604  18.8604
    18.9539  18.9547  18.9548  18.9572  18.9572  18.9572  18.9572  18.9576
    18.9577  19.4435  19.4435  19.4486  19.4486  19.4528  19.4528  19.5859
    19.5955  19.5956  19.6174  19.6174  19.6273  19.6273  19.6280  19.6280
    19.6826  19.6915  19.6915  19.9466  19.9466  19.9490  19.9491  19.9506
    19.9506  19.9507  19.9507  19.9527  19.9527  19.9528  19.9548  19.9548
    19.9574  19.9574  20.1212  20.1212  20.1231  20.3944  20.4092  20.4092
    20.4303  20.4534  20.4534  20.4534  20.4684  20.5313  20.5630  20.5741
    21.5280  21.5454  21.5454  21.6964  21.7153  21.7153  21.7559  21.7559
    21.7620  21.8557  21.8557  21.8564  21.8564  21.8614  21.8614  21.8701
    21.8701  21.8749  22.1640  22.1641  22.1742  22.2850  22.2850  22.2912
    22.5321  22.5321  22.5416  22.6098  22.6098  22.6142  22.6142  22.6147
    22.6147  22.6284  22.6284  22.6369  22.6690  22.6690  22.6749  22.8577
    22.8577  22.8580  22.8581  22.8656  22.8656  22.9057  22.9325  23.0306
    23.0307  23.0384  23.6881  23.6881  23.7004  23.7387  23.7387  23.7412
    23.8483  23.8483  23.8589  23.9401  24.6683  24.6683  24.6697  24.7051
    24.7168  24.7399  24.7488  24.7488  25.0250  25.0304  25.0304  25.0520
    25.0520  25.0581  25.2091  25.2091  25.2098  25.2098  25.2186  25.2204
    25.2204  25.2247  25.2247  26.6551  26.6551  26.6683  26.8033  26.8390
    26.8390  27.1869  27.1869

          k = 0.0555 0.0556 0.1667 ( 30270 PWs)   bands (ev):

   -49.9540 -49.8768 -49.8567 -49.8562 -49.8380 -49.8373 -49.8200 -49.8138
   -49.8136 -49.8031 -49.8017 -49.8015 -49.7958 -49.7930 -49.7929 -49.7924
   -49.7924 -49.7907 -49.7844 -49.7827 -49.7825 -49.7756 -49.7754 -49.7420
   -49.7405 -49.7404 -49.7400 -49.7398 -49.7397 -49.7390 -49.7387 -49.7386
   -20.3516 -20.3478 -20.3477 -20.3396 -20.2886 -20.2880 -20.2840 -20.1276
   -20.1143 -20.1141 -20.1036 -20.1013 -20.1012 -20.0988 -20.0932 -20.0912
   -20.0911 -20.0705 -20.0674 -20.0551 -20.0534 -20.0419 -20.0416 -20.0399
   -20.0385 -20.0028 -20.0008 -19.9859 -19.9837 -19.9727 -19.9439 -19.9434
   -19.9074 -19.9066 -19.8628 -19.8619 -19.8308 -19.8299 -19.8204 -19.8193
   -19.7891 -19.7517 -19.7514 -19.7394 -19.7392 -19.7387 -19.7365 -19.7341
   -19.7338 -19.7328 -19.7247 -19.7243 -19.7207 -19.7197 -19.7186 -19.7184
   -19.7176 -19.7169 -19.7140 -19.7011 -19.7007 -19.5948 -19.5922 -19.5686
   -19.5679 -19.5549 -19.5525 -19.5366 -19.5359 -19.5353 -19.5330 -19.5269
   -19.5249 -19.5215 -19.5196 -19.5195 -19.5152 -19.5138 -19.5123 -19.5031
   -19.5024 -19.5024 -19.5023 -19.5019 -19.5004 -19.4996 -19.4980 -19.4955
   -19.4947 -19.4938 -19.4845 -19.4723 -19.4705 -19.3884 -19.3698 -19.3677
    15.3878  16.9146  16.9275  16.9292  17.1813  17.2164  17.2165  17.2339
    17.2533  17.3692  17.3929  17.3951  17.6114  17.6179  17.7508  17.7871
    17.7934  18.1520  18.1531  18.3119  18.3212  18.3218  18.3299  18.3309
    18.5355  18.6203  18.6261  18.6409  18.6413  18.6914  18.7102  18.7111
    18.8852  18.8928  18.8969  18.8970  18.9204  18.9216  18.9911  18.9990
    19.0523  19.0528  19.1424  19.4264  19.4309  19.4474  19.4526  19.4983
    19.5056  19.5124  19.5201  19.5730  19.5793  19.6641  19.6644  19.6987
    19.7707  19.7734  19.7939  19.7963  19.8912  19.9046  19.9092  19.9350
    19.9377  19.9494  19.9525  19.9535  19.9598  20.1999  20.2016  20.2230
    20.2241  20.2467  20.3009  20.3373  20.3570  20.3747  20.4408  20.4730
    20.4801  20.4940  20.4982  20.5063  20.5149  20.5163  20.5981  20.6188
    21.3000  21.3113  21.4287  21.4419  21.5327  21.5535  21.6635  21.6637
    21.6938  21.7906  21.7964  21.8247  21.9675  21.9719  21.9728  22.0020
    22.0052  22.0488  22.0522  22.0834  22.1431  22.1503  22.4668  22.4745
    22.4858  22.4887  22.5001  22.5080  22.6120  22.6160  22.6266  22.6311
    22.7472  22.7534  22.7731  22.7744  22.8530  22.8676  22.8783  22.8808
    22.9215  22.9384  23.0817  23.0823  23.0978  23.1451  23.1511  23.2309
    23.2636  23.2702  23.2748  23.3251  23.3285  23.5143  23.5344  23.7507
    23.7613  23.9421  23.9503  24.0112  24.4631  24.4771  24.5803  24.5816
    24.5975  24.6278  24.6904  24.6988  24.7003  24.8946  24.9606  25.0830
    25.0835  25.0962  25.0975  25.1098  25.2056  25.2081  25.2103  25.2121
    25.3922  25.3964  25.6202  26.1381  26.1485  26.5367  26.5967  26.6621
    26.6756  27.1312  27.1314

          k = 0.0555 0.0556 0.2778 ( 30238 PWs)   bands (ev):

   -49.9474 -49.8947 -49.8531 -49.8526 -49.8349 -49.8343 -49.8237 -49.8235
   -49.8101 -49.8098 -49.8025 -49.8019 -49.7974 -49.7929 -49.7928 -49.7925
   -49.7924 -49.7892 -49.7849 -49.7729 -49.7727 -49.7674 -49.7671 -49.7486
   -49.7441 -49.7436 -49.7433 -49.7427 -49.7398 -49.7391 -49.7387 -49.7385
   -20.3331 -20.3257 -20.3255 -20.3138 -20.2722 -20.2717 -20.2584 -20.1733
   -20.1587 -20.1584 -20.1375 -20.1373 -20.1372 -20.1068 -20.1049 -20.1009
   -20.0991 -20.0699 -20.0690 -20.0474 -20.0463 -20.0445 -20.0443 -20.0431
   -20.0095 -20.0065 -20.0053 -20.0037 -19.9704 -19.9683 -19.9301 -19.9286
   -19.9013 -19.9002 -19.8968 -19.8961 -19.8597 -19.8582 -19.8580 -19.8566
   -19.7562 -19.7546 -19.7393 -19.7331 -19.7310 -19.7261 -19.7218 -19.7135
   -19.7080 -19.7066 -19.7064 -19.7000 -19.7000 -19.6935 -19.6929 -19.6899
   -19.6898 -19.6724 -19.6631 -19.6629 -19.6559 -19.6250 -19.6216 -19.5831
   -19.5824 -19.5603 -19.5582 -19.5564 -19.5546 -19.5506 -19.5499 -19.5480
   -19.5410 -19.5393 -19.5358 -19.5352 -19.5194 -19.5141 -19.5063 -19.5058
   -19.5051 -19.5023 -19.5022 -19.5018 -19.5011 -19.4950 -19.4937 -19.4924
   -19.4853 -19.4695 -19.4677 -19.4674 -19.4660 -19.4189 -19.3808 -19.3780
    15.5576  16.8776  17.0130  17.0519  17.0536  17.2781  17.3298  17.3299
    17.3637  17.4449  17.5158  17.5185  17.6568  17.7320  17.7379  17.9145
    17.9203  17.9451  17.9468  18.0940  18.1998  18.2997  18.3000  18.3670
    18.4049  18.4134  18.4352  18.4442  18.5347  18.5365  18.5885  18.5951
    18.6982  18.7027  18.7525  18.7539  18.8693  18.8704  18.9497  18.9558
    19.1254  19.1270  19.3254  19.3298  19.3894  19.3924  19.3932  19.3977
    19.4058  19.4107  19.4250  19.4501  19.4553  19.5454  19.5526  19.7049
    19.7085  19.7632  19.8244  19.8285  19.8902  19.8935  19.9474  19.9553
    19.9635  19.9705  20.0293  20.0323  20.0625  20.2337  20.2888  20.2969
    20.2985  20.3012  20.3549  20.4046  20.5518  20.5968  20.6098  20.6248
    20.6256  20.6408  20.6437  20.6910  20.7118  20.7485  21.0248  21.0325
    21.0849  21.0873  21.0966  21.0987  21.3019  21.4143  21.4152  21.4497
    21.4627  21.5201  21.8857  21.9218  21.9260  22.1312  22.1362  22.1485
    22.1519  22.1867  22.1889  22.2636  22.2660  22.3820  22.3878  22.4817
    22.4879  22.6054  22.6072  22.6088  22.6196  22.6211  22.6433  22.6471
    22.6985  22.7027  22.7169  22.7681  22.7973  22.8000  22.9146  22.9848
    22.9857  22.9866  23.0527  23.0544  23.1898  23.3220  23.3912  23.3924
    23.3939  23.4764  23.4796  23.5196  23.5493  23.5536  23.5702  23.7792
    23.7967  23.9292  23.9362  24.1730  24.1977  24.2010  24.3748  24.3749
    24.4075  24.5384  24.5392  24.5442  24.5721  24.6328  24.8517  24.8521
    24.8620  24.8634  24.9119  25.2039  25.2070  25.2105  25.2110  25.3559
    25.6311  25.6386  25.8266  25.8282  26.0083  26.1351  26.1460  26.1765
    26.4775  27.0153  27.0155

          k = 0.0555 0.0556 0.3889 ( 30208 PWs)   bands (ev):

   -49.9380 -49.9112 -49.8478 -49.8473 -49.8329 -49.8325 -49.8304 -49.8298
   -49.8178 -49.8174 -49.8015 -49.7989 -49.7928 -49.7927 -49.7926 -49.7925
   -49.7879 -49.7857 -49.7853 -49.7639 -49.7636 -49.7599 -49.7595 -49.7582
   -49.7492 -49.7488 -49.7476 -49.7471 -49.7396 -49.7393 -49.7387 -49.7385
   -20.3043 -20.2937 -20.2935 -20.2784 -20.2480 -20.2476 -20.2216 -20.2207
   -20.2072 -20.2069 -20.1871 -20.1796 -20.1794 -20.1133 -20.1054 -20.1041
   -20.0917 -20.0905 -20.0848 -20.0848 -20.0593 -20.0589 -20.0198 -20.0170
   -19.9912 -19.9896 -19.9733 -19.9705 -19.9586 -19.9567 -19.9494 -19.9474
   -19.9364 -19.9351 -19.8956 -19.8937 -19.8926 -19.8910 -19.8532 -19.8523
   -19.7818 -19.7805 -19.7316 -19.7286 -19.7278 -19.7237 -19.6976 -19.6925
   -19.6851 -19.6636 -19.6634 -19.6606 -19.6604 -19.6572 -19.6570 -19.6569
   -19.6563 -19.6527 -19.6487 -19.6280 -19.6279 -19.6268 -19.6043 -19.6037
   -19.5900 -19.5897 -19.5883 -19.5882 -19.5863 -19.5831 -19.5709 -19.5704
   -19.5685 -19.5682 -19.5471 -19.5252 -19.5243 -19.5126 -19.5084 -19.5022
   -19.5020 -19.5019 -19.5014 -19.5003 -19.4996 -19.4902 -19.4901 -19.4898
   -19.4865 -19.4692 -19.4682 -19.4626 -19.4419 -19.4397 -19.3968 -19.3940
    15.8050  16.4862  17.1522  17.2303  17.2320  17.4311  17.4981  17.4981
    17.4986  17.5466  17.5571  17.6988  17.6989  17.7007  17.7022  17.8842
    17.8964  17.9021  17.9072  17.9879  17.9881  18.0557  18.0950  18.1002
    18.2376  18.2429  18.3266  18.3296  18.5311  18.5375  18.5447  18.5476
    18.6005  18.6085  18.7894  18.7899  18.8125  18.8152  19.0336  19.0362
    19.0420  19.0459  19.1352  19.1371  19.2816  19.2835  19.3227  19.3250
    19.3646  19.3712  19.4271  19.4365  19.4378  19.4421  19.6874  19.6908
    19.6986  19.7427  19.7452  19.8622  19.9655  19.9719  19.9746  19.9797
    19.9865  19.9909  20.1109  20.1627  20.1752  20.1961  20.2046  20.2047
    20.2084  20.3382  20.4003  20.4030  20.6794  20.7401  20.7496  20.7522
    20.7590  20.7697  20.7752  20.7790  20.8309  20.8505  21.0612  21.0715
    21.0820  21.1416  21.2004  21.2344  21.2360  21.2378  21.2407  21.2562
    21.7152  21.7304  22.0480  22.0502  22.0607  22.1193  22.1220  22.2467
    22.2485  22.2521  22.3031  22.3189  22.3199  22.3624  22.3642  22.3980
    22.4008  22.4481  22.4500  22.4587  22.4629  22.5250  22.5721  22.5747
    22.6129  22.6139  22.6337  22.6367  22.7229  22.7248  22.9425  22.9440
    23.0569  23.0720  23.0894  23.2024  23.2620  23.3986  23.4003  23.5290
    23.7186  23.7205  23.7229  23.8274  23.8346  23.8348  23.8736  23.8746
    24.0961  24.0967  24.0982  24.1558  24.2499  24.2524  24.2566  24.3135
    24.3177  24.3321  24.3719  24.3739  24.5460  24.5506  24.5537  24.5572
    24.6053  24.6066  24.6834  25.1371  25.1416  25.2039  25.2058  25.2105
    25.2107  25.3616  25.6076  25.6157  25.7271  26.2314  26.2319  26.2939
    26.6659  26.8307  26.8309

          k = 0.0555 0.0556-0.5000 ( 30232 PWs)   bands (ev):

   -49.9258 -49.9257 -49.8410 -49.8409 -49.8406 -49.8405 -49.8247 -49.8246
   -49.8242 -49.8241 -49.8004 -49.8003 -49.7928 -49.7927 -49.7926 -49.7925
   -49.7867 -49.7866 -49.7706 -49.7705 -49.7560 -49.7559 -49.7556 -49.7555
   -49.7533 -49.7531 -49.7528 -49.7527 -49.7396 -49.7394 -49.7387 -49.7385
   -20.2665 -20.2664 -20.2535 -20.2534 -20.2533 -20.2532 -20.2354 -20.2353
   -20.2170 -20.2168 -20.2166 -20.2165 -20.1720 -20.1719 -20.0977 -20.0976
   -20.0970 -20.0969 -20.0770 -20.0770 -20.0765 -20.0765 -19.9895 -19.9894
   -19.9871 -19.9870 -19.9670 -19.9669 -19.9656 -19.9654 -19.9346 -19.9345
   -19.9321 -19.9320 -19.9233 -19.9232 -19.9215 -19.9214 -19.8145 -19.8144
   -19.8134 -19.8133 -19.7298 -19.7296 -19.7262 -19.7261 -19.6772 -19.6770
   -19.6726 -19.6725 -19.6329 -19.6328 -19.6315 -19.6314 -19.6311 -19.6309
   -19.6252 -19.6252 -19.6244 -19.6243 -19.6230 -19.6230 -19.6216 -19.6215
   -19.6098 -19.6097 -19.6096 -19.6096 -19.5970 -19.5969 -19.5968 -19.5966
   -19.5838 -19.5838 -19.5180 -19.5179 -19.5108 -19.5107 -19.5107 -19.5106
   -19.5106 -19.5106 -19.5021 -19.5020 -19.5018 -19.5017 -19.4882 -19.4881
   -19.4771 -19.4771 -19.4768 -19.4768 -19.4175 -19.4173 -19.4149 -19.4148
    16.1199  16.1200  17.3203  17.3205  17.4516  17.4518  17.4535  17.4536
    17.6382  17.6382  17.7042  17.7043  17.7186  17.7186  17.7188  17.7188
    17.7791  17.7791  17.9401  17.9402  17.9444  17.9445  18.1072  18.1073
    18.1114  18.1115  18.3134  18.3135  18.3176  18.3177  18.6696  18.6696
    18.6730  18.6731  18.8081  18.8083  18.8144  18.8145  18.9604  18.9605
    18.9609  18.9610  19.1562  19.1563  19.1573  19.1574  19.3673  19.3673
    19.3756  19.3757  19.3907  19.3908  19.3921  19.3921  19.6953  19.6953
    19.6961  19.6961  19.9525  19.9526  19.9738  19.9739  19.9824  19.9824
    19.9825  19.9825  20.0912  20.0913  20.0973  20.0974  20.2543  20.2544
    20.4521  20.4521  20.4571  20.4572  20.5579  20.5579  20.5618  20.5618
    20.8509  20.8509  20.9225  20.9225  20.9301  20.9301  20.9734  20.9734
    21.0150  21.0151  21.0330  21.0331  21.7012  21.7012  21.7018  21.7018
    21.7076  21.7076  21.7381  21.7381  22.1019  22.1020  22.1020  22.1021
    22.2961  22.2963  22.3798  22.3799  22.3963  22.3963  22.4166  22.4167
    22.4182  22.4184  22.4939  22.4940  22.4960  22.4961  22.5088  22.5089
    22.5091  22.5092  22.5732  22.5733  22.5754  22.5755  22.8258  22.8259
    22.8259  22.8260  23.1496  23.1497  23.7601  23.7602  23.7614  23.7615
    23.7738  23.7740  23.8574  23.8574  24.0347  24.0347  24.0379  24.0379
    24.0853  24.0854  24.1197  24.1197  24.1975  24.1976  24.2014  24.2015
    24.2149  24.2149  24.2175  24.2176  24.4935  24.4936  24.6686  24.6686
    24.6698  24.6698  24.7003  24.7004  25.0900  25.0901  25.0950  25.0951
    25.2046  25.2048  25.2105  25.2106  26.0431  26.0433  26.5700  26.5700
    26.5701  26.5701  27.0606

          k = 0.0555 0.1667 0.1667 ( 30267 PWs)   bands (ev):

   -49.9507 -49.8747 -49.8747 -49.8549 -49.8365 -49.8255 -49.8187 -49.8187
   -49.8132 -49.8132 -49.8014 -49.8014 -49.7991 -49.7941 -49.7897 -49.7897
   -49.7891 -49.7891 -49.7828 -49.7828 -49.7760 -49.7760 -49.7687 -49.7420
   -49.7419 -49.7415 -49.7414 -49.7408 -49.7408 -49.7402 -49.7402 -49.7398
   -20.3444 -20.3444 -20.3328 -20.3206 -20.2798 -20.2764 -20.2764 -20.1342
   -20.1342 -20.1280 -20.1280 -20.0999 -20.0966 -20.0966 -20.0942 -20.0942
   -20.0927 -20.0927 -20.0848 -20.0848 -20.0655 -20.0655 -20.0648 -20.0648
   -20.0065 -19.9817 -19.9817 -19.9789 -19.9789 -19.9587 -19.9587 -19.9363
   -19.9363 -19.9201 -19.9034 -19.8470 -19.8261 -19.8261 -19.7892 -19.7892
   -19.7770 -19.7770 -19.7539 -19.7539 -19.7532 -19.7330 -19.7330 -19.7212
   -19.7211 -19.7192 -19.7192 -19.7150 -19.7149 -19.7141 -19.7141 -19.7134
   -19.7049 -19.7049 -19.6771 -19.6771 -19.6628 -19.6003 -19.6003 -19.5876
   -19.5876 -19.5617 -19.5568 -19.5473 -19.5343 -19.5342 -19.5331 -19.5330
   -19.5265 -19.5263 -19.5262 -19.5257 -19.5228 -19.5228 -19.5132 -19.5095
   -19.5095 -19.5051 -19.5051 -19.5039 -19.4960 -19.4959 -19.4959 -19.4957
   -19.4886 -19.4886 -19.4732 -19.4732 -19.4538 -19.4102 -19.3749 -19.3668
    15.4727  16.9785  16.9786  16.9868  17.2016  17.2540  17.3058  17.3058
    17.3142  17.3142  17.4303  17.4303  17.4610  17.6585  17.8186  17.8186
    17.8339  18.1852  18.1853  18.2118  18.2118  18.3694  18.3695  18.3743
    18.3743  18.4234  18.4234  18.5019  18.5656  18.5656  18.6752  18.7268
    18.7268  18.7471  18.7472  18.7712  18.9315  19.0071  19.0071  19.0217
    19.0217  19.0455  19.0455  19.1677  19.1678  19.3905  19.3905  19.4875
    19.4875  19.5085  19.5698  19.5698  19.6039  19.6039  19.6536  19.6536
    19.6778  19.8623  19.8623  19.8688  19.8688  19.9580  19.9580  20.0244
    20.0245  20.0643  20.1432  20.1432  20.2627  20.2627  20.2696  20.2696
    20.3119  20.3119  20.3351  20.4217  20.4217  20.4238  20.4390  20.4444
    20.4854  20.4854  20.5256  20.5712  20.5818  20.5818  20.6379  20.6416
    21.1643  21.2642  21.3097  21.3097  21.5608  21.5609  21.7320  21.7391
    21.7391  21.7439  21.7439  21.8138  21.8138  21.8316  21.8316  21.8577
    21.8577  22.0233  22.0821  22.1830  22.1830  22.2081  22.2081  22.2615
    22.3415  22.6129  22.6129  22.7316  22.7413  22.7413  22.7601  22.7602
    22.8021  22.8021  22.8391  22.8782  22.8782  22.9109  22.9526  22.9526
    23.0167  23.0168  23.0400  23.0814  23.0814  23.1772  23.2693  23.3273
    23.3273  23.3581  23.3581  23.4432  23.4492  23.4492  23.5726  23.5726
    23.7904  23.9846  24.1398  24.1507  24.1507  24.2983  24.2983  24.4641
    24.5735  24.5735  24.6330  24.7242  24.7242  24.7344  24.7361  24.9920
    24.9920  25.0827  25.0827  25.0841  25.0841  25.1008  25.1008  25.1507
    25.3497  25.6460  25.9771  25.9771  26.0801  26.0801  26.6073  26.6073
    27.1314  27.1315  27.2377

          k = 0.0555 0.1667 0.2778 ( 30232 PWs)   bands (ev):

   -49.9443 -49.8923 -49.8705 -49.8514 -49.8369 -49.8335 -49.8228 -49.8163
   -49.8120 -49.8095 -49.8023 -49.8010 -49.8008 -49.7963 -49.7958 -49.7876
   -49.7860 -49.7833 -49.7783 -49.7770 -49.7732 -49.7679 -49.7620 -49.7484
   -49.7449 -49.7449 -49.7444 -49.7426 -49.7418 -49.7410 -49.7401 -49.7398
   -20.3300 -20.3265 -20.3075 -20.2914 -20.2635 -20.2613 -20.2522 -20.1805
   -20.1717 -20.1384 -20.1366 -20.1340 -20.1339 -20.1301 -20.1090 -20.1076
   -20.1047 -20.0900 -20.0883 -20.0807 -20.0788 -20.0731 -20.0688 -20.0514
   -20.0321 -19.9976 -19.9817 -19.9661 -19.9657 -19.9520 -19.9439 -19.9421
   -19.9218 -19.9154 -19.8898 -19.8768 -19.8614 -19.8257 -19.8131 -19.7883
   -19.7758 -19.7725 -19.7503 -19.7417 -19.7364 -19.7219 -19.7216 -19.7200
   -19.7122 -19.7090 -19.7084 -19.6972 -19.6865 -19.6828 -19.6810 -19.6792
   -19.6785 -19.6744 -19.6421 -19.6398 -19.6306 -19.6264 -19.6186 -19.6153
   -19.5758 -19.5729 -19.5673 -19.5658 -19.5587 -19.5585 -19.5562 -19.5549
   -19.5444 -19.5388 -19.5322 -19.5272 -19.5263 -19.5250 -19.5184 -19.5155
   -19.5145 -19.5105 -19.5076 -19.5039 -19.4969 -19.4960 -19.4903 -19.4750
   -19.4750 -19.4729 -19.4689 -19.4574 -19.4444 -19.4442 -19.3859 -19.3725
    15.6396  16.9408  17.0775  17.1001  17.1034  17.2775  17.3464  17.4310
    17.4324  17.4473  17.5047  17.5520  17.5910  17.7249  17.7480  17.9225
    17.9508  17.9649  18.0033  18.1102  18.1431  18.2339  18.2448  18.2743
    18.2982  18.3295  18.4126  18.4403  18.4590  18.4606  18.4627  18.4824
    18.6114  18.6369  18.6522  18.7528  18.7853  18.8593  18.8674  19.0238
    19.0379  19.0720  19.1029  19.2157  19.2404  19.3039  19.3195  19.3477
    19.3571  19.4107  19.4428  19.4783  19.5609  19.5792  19.6014  19.6749
    19.6949  19.7326  19.8448  19.9619  19.9966  20.0330  20.0540  20.0917
    20.1258  20.1545  20.1772  20.1893  20.2723  20.2816  20.2918  20.3134
    20.3369  20.4160  20.4329  20.4659  20.4859  20.5441  20.5834  20.5936
    20.6619  20.7007  20.7100  20.7165  20.7274  20.7326  20.9565  20.9880
    21.0034  21.0602  21.0813  21.3033  21.3047  21.3193  21.4745  21.5166
    21.5886  21.6027  21.6433  21.7757  21.8076  21.8604  21.9382  22.0237
    22.0483  22.0795  22.1383  22.1804  22.2330  22.2379  22.3342  22.4168
    22.4467  22.5212  22.5273  22.5681  22.5766  22.6000  22.7155  22.7199
    22.7272  22.7375  22.8332  22.8532  22.9203  22.9525  23.0252  23.0368
    23.0578  23.0859  23.0872  23.2674  23.3631  23.3661  23.3858  23.4088
    23.4415  23.5853  23.6229  23.6557  23.6632  23.6703  23.6926  23.7121
    23.7199  23.7985  23.9171  24.0137  24.1671  24.2786  24.3773  24.4021
    24.4132  24.4850  24.5159  24.6217  24.6496  24.6537  24.8014  24.8023
    24.8539  24.8542  24.9160  24.9743  25.0831  25.0848  25.0945  25.1139
    25.1640  25.5394  25.5750  25.9637  26.0823  26.4035  26.4959  26.5864
    26.6160  26.6956  27.5958

          k = 0.0555 0.1667 0.3889 ( 30211 PWs)   bands (ev):

   -49.9349 -49.9086 -49.8645 -49.8474 -49.8462 -49.8317 -49.8292 -49.8170
   -49.8126 -49.8102 -49.8053 -49.8025 -49.7998 -49.7973 -49.7862 -49.7846
   -49.7840 -49.7832 -49.7787 -49.7679 -49.7644 -49.7606 -49.7579 -49.7559
   -49.7509 -49.7500 -49.7486 -49.7461 -49.7417 -49.7412 -49.7400 -49.7398
   -20.3049 -20.2985 -20.2731 -20.2532 -20.2396 -20.2393 -20.2277 -20.2183
   -20.2166 -20.1844 -20.1769 -20.1719 -20.1587 -20.1324 -20.1272 -20.1153
   -20.1149 -20.1123 -20.1085 -20.0986 -20.0756 -20.0607 -20.0604 -20.0391
   -20.0179 -20.0014 -19.9944 -19.9760 -19.9741 -19.9468 -19.9236 -19.9221
   -19.9140 -19.9016 -19.8939 -19.8743 -19.8605 -19.8465 -19.8465 -19.8305
   -19.8037 -19.7756 -19.7219 -19.7208 -19.7148 -19.7096 -19.7073 -19.7051
   -19.6988 -19.6924 -19.6897 -19.6657 -19.6588 -19.6541 -19.6537 -19.6511
   -19.6469 -19.6456 -19.6372 -19.6306 -19.6099 -19.6088 -19.6085 -19.5990
   -19.5948 -19.5928 -19.5925 -19.5925 -19.5919 -19.5874 -19.5872 -19.5613
   -19.5574 -19.5537 -19.5379 -19.5347 -19.5297 -19.5292 -19.5283 -19.5233
   -19.5208 -19.5181 -19.5022 -19.5018 -19.4981 -19.4940 -19.4898 -19.4854
   -19.4777 -19.4714 -19.4577 -19.4472 -19.4419 -19.4291 -19.4020 -19.3855
    15.8830  16.5540  17.2175  17.2648  17.2827  17.4085  17.4927  17.5659
    17.6006  17.6078  17.6152  17.6378  17.7147  17.7331  17.7546  17.7816
    17.8290  17.8703  17.9370  17.9396  18.0377  18.0434  18.1037  18.1398
    18.1447  18.1590  18.2655  18.3197  18.3243  18.3271  18.5011  18.5200
    18.5807  18.5944  18.6254  18.6466  18.7550  18.9500  18.9612  18.9768
    18.9868  19.0813  19.1005  19.1568  19.1601  19.1956  19.2198  19.2275
    19.2652  19.2805  19.4223  19.4236  19.4287  19.5362  19.6972  19.6988
    19.7085  19.7764  19.9761  19.9779  20.0285  20.0459  20.0736  20.0852
    20.1089  20.1453  20.1680  20.2256  20.2295  20.2351  20.2833  20.2962
    20.4041  20.4075  20.4314  20.6323  20.7007  20.7186  20.7408  20.7911
    20.8491  20.8543  20.8623  20.8799  20.8851  20.8878  20.8964  20.9327
    21.0201  21.1082  21.1611  21.1827  21.2549  21.2595  21.3475  21.3746
    21.5989  21.6695  21.7354  21.8065  21.8203  21.8744  21.9772  22.0377
    22.0530  22.0836  22.1327  22.1415  22.1525  22.1527  22.2189  22.2860
    22.3554  22.4104  22.5039  22.5389  22.5511  22.6155  22.6448  22.6631
    22.6810  22.7762  22.8182  22.8340  22.9268  22.9522  22.9540  23.0310
    23.0867  23.1254  23.2621  23.3037  23.3542  23.3558  23.4316  23.4440
    23.6352  23.6526  23.7218  23.8174  23.9362  23.9440  23.9652  23.9727
    23.9950  24.0066  24.0182  24.1107  24.1216  24.2006  24.2073  24.2988
    24.3764  24.4885  24.4933  24.5469  24.5544  24.5549  24.5553  24.5632
    24.6976  24.7067  24.7825  25.0214  25.0831  25.0847  25.0859  25.0902
    25.0967  25.2795  25.5566  25.7889  25.8252  25.9875  26.1385  26.3262
    26.8165  27.1405  27.4219

          k = 0.0555 0.1667-0.5000 ( 30218 PWs)   bands (ev):

   -49.9230 -49.9229 -49.8567 -49.8566 -49.8397 -49.8395 -49.8237 -49.8235
   -49.8081 -49.8080 -49.8080 -49.8079 -49.7987 -49.7986 -49.7851 -49.7850
   -49.7808 -49.7806 -49.7701 -49.7700 -49.7587 -49.7586 -49.7566 -49.7565
   -49.7541 -49.7540 -49.7506 -49.7505 -49.7415 -49.7414 -49.7400 -49.7398
   -20.2702 -20.2702 -20.2617 -20.2617 -20.2312 -20.2312 -20.2109 -20.2108
   -20.2088 -20.2087 -20.2081 -20.2081 -20.1705 -20.1704 -20.1236 -20.1236
   -20.1165 -20.1164 -20.1148 -20.1148 -20.0611 -20.0611 -20.0398 -20.0397
   -20.0068 -20.0068 -20.0003 -20.0002 -19.9543 -19.9542 -19.9227 -19.9226
   -19.8933 -19.8932 -19.8763 -19.8762 -19.8761 -19.8761 -19.8368 -19.8367
   -19.8081 -19.8080 -19.7215 -19.7214 -19.7078 -19.7077 -19.6840 -19.6838
   -19.6718 -19.6717 -19.6654 -19.6653 -19.6589 -19.6589 -19.6394 -19.6394
   -19.6298 -19.6297 -19.6220 -19.6220 -19.6209 -19.6209 -19.6190 -19.6189
   -19.6165 -19.6163 -19.5891 -19.5890 -19.5814 -19.5813 -19.5631 -19.5629
   -19.5610 -19.5610 -19.5470 -19.5469 -19.5451 -19.5451 -19.5254 -19.5253
   -19.5210 -19.5209 -19.5135 -19.5134 -19.4999 -19.4998 -19.4813 -19.4811
   -19.4803 -19.4803 -19.4468 -19.4468 -19.4227 -19.4226 -19.4048 -19.4047
    16.1930  16.1931  17.3866  17.3867  17.4738  17.4739  17.5055  17.5056
    17.5933  17.5933  17.6912  17.6912  17.7599  17.7600  17.8074  17.8075
    17.8333  17.8333  17.8727  17.8727  17.9717  17.9719  18.0121  18.0122
    18.0270  18.0271  18.1833  18.1834  18.3721  18.3722  18.4167  18.4167
    18.6962  18.6962  18.7189  18.7190  18.7691  18.7692  18.8546  18.8547
    19.1033  19.1033  19.1334  19.1336  19.1658  19.1658  19.1994  19.1994
    19.2787  19.2787  19.3353  19.3354  19.3536  19.3537  19.8280  19.8281
    19.8859  19.8860  19.8981  19.8982  19.9541  19.9543  20.0069  20.0069
    20.1535  20.1536  20.1772  20.1772  20.3519  20.3520  20.3765  20.3766
    20.4521  20.4521  20.5008  20.5008  20.5523  20.5523  20.7391  20.7392
    20.8520  20.8521  20.9499  20.9499  21.0111  21.0112  21.0319  21.0320
    21.0516  21.0517  21.0854  21.0855  21.5105  21.5105  21.5523  21.5523
    21.5856  21.5856  21.6353  21.6353  21.8111  21.8112  21.8146  21.8147
    22.0726  22.0727  22.2478  22.2479  22.2675  22.2676  22.3046  22.3047
    22.3282  22.3283  22.3844  22.3845  22.4478  22.4479  22.5578  22.5579
    22.7503  22.7504  22.7759  22.7760  22.8779  22.8780  23.1352  23.1353
    23.1791  23.1793  23.1812  23.1813  23.2476  23.2477  23.7005  23.7006
    23.7858  23.7859  23.7943  23.7944  24.0094  24.0095  24.0667  24.0667
    24.1926  24.1927  24.2493  24.2494  24.2511  24.2512  24.2724  24.2725
    24.2728  24.2729  24.2804  24.2805  24.2879  24.2879  24.4741  24.4742
    24.6169  24.6169  25.0396  25.0396  25.0874  25.0875  25.0885  25.0886
    25.3433  25.3434  25.5580  25.5582  25.5748  25.5748  26.0991  26.0992
    27.1629  27.1631  27.5887

          k = 0.0555 0.2778 0.2778 ( 30209 PWs)   bands (ev):

   -49.9381 -49.8877 -49.8876 -49.8497 -49.8481 -49.8307 -49.8211 -49.8211
   -49.8083 -49.8083 -49.8070 -49.7990 -49.7990 -49.7989 -49.7835 -49.7835
   -49.7830 -49.7830 -49.7743 -49.7742 -49.7696 -49.7696 -49.7569 -49.7481
   -49.7481 -49.7476 -49.7476 -49.7457 -49.7456 -49.7419 -49.7419 -49.7401
   -20.3162 -20.3162 -20.2799 -20.2594 -20.2474 -20.2399 -20.2399 -20.1800
   -20.1800 -20.1762 -20.1762 -20.1392 -20.1392 -20.1163 -20.1163 -20.1130
   -20.1130 -20.1087 -20.1087 -20.1035 -20.1035 -20.0757 -20.0741 -20.0741
   -20.0607 -20.0607 -19.9794 -19.9707 -19.9441 -19.9441 -19.9262 -19.9262
   -19.9183 -19.9090 -19.8761 -19.8761 -19.8054 -19.8054 -19.8033 -19.7774
   -19.7774 -19.7713 -19.7713 -19.7386 -19.7386 -19.7178 -19.7178 -19.7079
   -19.7079 -19.7006 -19.7005 -19.6978 -19.6842 -19.6842 -19.6641 -19.6640
   -19.6461 -19.6461 -19.6443 -19.6443 -19.6092 -19.6092 -19.6092 -19.6092
   -19.5925 -19.5925 -19.5914 -19.5818 -19.5622 -19.5622 -19.5610 -19.5553
   -19.5553 -19.5522 -19.5522 -19.5504 -19.5261 -19.5261 -19.5244 -19.5220
   -19.5204 -19.5118 -19.4985 -19.4982 -19.4982 -19.4971 -19.4878 -19.4878
   -19.4830 -19.4719 -19.4719 -19.4422 -19.4422 -19.4293 -19.3971 -19.3722
    15.8012  17.0643  17.0644  17.1942  17.2035  17.2035  17.3285  17.4134
    17.5792  17.5792  17.6240  17.6240  17.7311  17.7797  17.8580  17.8580
    17.9434  17.9965  18.0037  18.0037  18.0282  18.0282  18.1170  18.1170
    18.1658  18.1658  18.2409  18.2409  18.4414  18.5238  18.5239  18.5401
    18.5401  18.5696  18.5696  18.6568  18.6568  18.7620  18.7621  18.8344
    18.8344  18.9503  19.0975  19.0975  19.1670  19.1670  19.1678  19.4107
    19.4107  19.4277  19.4277  19.4742  19.4742  19.4749  19.5285  19.8664
    19.8664  19.9858  19.9859  20.0501  20.0501  20.1237  20.1237  20.1662
    20.1663  20.1792  20.1792  20.2681  20.2688  20.3479  20.3480  20.4241
    20.4301  20.5023  20.5024  20.6560  20.6560  20.6788  20.7173  20.7570
    20.7638  20.7947  20.7947  20.7961  20.8334  20.8481  20.8499  20.8499
    21.0079  21.0079  21.1382  21.1382  21.3761  21.3761  21.5151  21.5151
    21.5699  21.5699  21.6736  21.6736  21.6973  21.7724  21.7816  21.7816
    21.8196  21.8196  22.0030  22.0300  22.1579  22.1820  22.1820  22.1842
    22.1842  22.3098  22.3813  22.5107  22.5107  22.6705  22.6784  22.6784
    22.9469  22.9659  22.9659  23.0915  23.0915  23.1215  23.1215  23.2087
    23.2243  23.2350  23.2351  23.3307  23.3307  23.4255  23.4255  23.4350
    23.4350  23.4817  23.4817  23.7475  23.7744  23.7744  23.8357  23.9256
    23.9256  23.9319  23.9508  23.9508  24.1057  24.1592  24.3296  24.3296
    24.5286  24.6645  24.6645  24.6821  24.6884  24.6923  24.6923  24.7188
    24.8576  24.8576  24.8602  24.8602  24.8967  24.8967  24.9173  24.9173
    25.0104  25.3696  25.4638  25.4638  25.9775  25.9775  27.0367  27.0367
    27.2998  27.3537  27.3537

          k = 0.0555 0.2778 0.3889 ( 30247 PWs)   bands (ev):

   -49.9290 -49.9034 -49.8808 -49.8616 -49.8432 -49.8295 -49.8267 -49.8185
   -49.8153 -49.8114 -49.8066 -49.8018 -49.7962 -49.7883 -49.7832 -49.7803
   -49.7788 -49.7758 -49.7720 -49.7717 -49.7659 -49.7627 -49.7573 -49.7525
   -49.7524 -49.7522 -49.7516 -49.7476 -49.7464 -49.7446 -49.7413 -49.7404
   -20.2953 -20.2925 -20.2438 -20.2253 -20.2238 -20.2219 -20.2201 -20.2192
   -20.2083 -20.1722 -20.1722 -20.1709 -20.1571 -20.1550 -20.1397 -20.1378
   -20.1371 -20.1232 -20.1212 -20.1177 -20.0969 -20.0954 -20.0761 -20.0724
   -20.0652 -20.0344 -20.0043 -20.0042 -19.9743 -19.9489 -19.9060 -19.8980
   -19.8877 -19.8676 -19.8567 -19.8375 -19.8348 -19.8335 -19.8136 -19.8035
   -19.7648 -19.7635 -19.7460 -19.7324 -19.7249 -19.7217 -19.7069 -19.7033
   -19.6903 -19.6899 -19.6837 -19.6746 -19.6713 -19.6688 -19.6544 -19.6503
   -19.6404 -19.6402 -19.6391 -19.6367 -19.6292 -19.6168 -19.6064 -19.6017
   -19.5998 -19.5970 -19.5822 -19.5821 -19.5815 -19.5735 -19.5727 -19.5719
   -19.5592 -19.5504 -19.5481 -19.5417 -19.5369 -19.5359 -19.5359 -19.5353
   -19.5312 -19.5150 -19.5100 -19.5065 -19.5059 -19.5025 -19.5013 -19.4894
   -19.4764 -19.4760 -19.4595 -19.4293 -19.4219 -19.4156 -19.4135 -19.3795
    16.0366  16.6871  17.2422  17.3364  17.3450  17.3845  17.4312  17.5303
    17.6976  17.7215  17.7308  17.7523  17.7578  17.7707  17.7851  17.8013
    17.8259  17.8631  17.9091  17.9307  17.9527  17.9806  18.0421  18.0493
    18.0671  18.0973  18.2428  18.2572  18.2804  18.2828  18.3211  18.3871
    18.4609  18.5553  18.6158  18.6686  18.6809  18.6871  18.7238  18.7243
    18.8218  18.9161  18.9335  19.0143  19.0517  19.1783  19.1800  19.2155
    19.2988  19.3734  19.5026  19.5105  19.5397  19.5486  19.7215  19.7704
    19.8102  19.8318  19.9095  20.0522  20.1254  20.1343  20.2213  20.2299
    20.2611  20.2802  20.2805  20.3655  20.4127  20.4204  20.4205  20.5502
    20.5543  20.6244  20.6312  20.6528  20.6694  20.6847  20.7860  20.8203
    20.8739  20.8844  20.8946  20.9156  20.9225  21.0033  21.0315  21.0391
    21.0405  21.1102  21.1552  21.1730  21.2581  21.3195  21.3718  21.4638
    21.5225  21.5253  21.5552  21.5740  21.6238  21.6508  21.6706  21.6756
    21.7826  21.7939  21.8161  21.8849  21.9920  22.0328  22.0384  22.0987
    22.2099  22.2147  22.3740  22.3982  22.5328  22.5611  22.6497  22.7081
    22.8690  22.8980  22.9072  22.9607  23.0176  23.1180  23.1768  23.1840
    23.2685  23.2963  23.3501  23.4573  23.4639  23.4784  23.5495  23.6092
    23.6585  23.6608  23.8183  23.8197  23.8199  23.8698  24.0507  24.0936
    24.1092  24.1287  24.1697  24.1755  24.1906  24.1917  24.1986  24.2349
    24.3073  24.4575  24.5219  24.5477  24.5488  24.5524  24.5795  24.5846
    24.5876  24.6495  24.8568  24.8625  24.8732  24.8805  24.9396  24.9773
    25.3007  25.4310  25.4417  25.4575  25.5132  25.8241  26.7099  26.7219
    27.4717  27.6483  27.9687

          k = 0.0555 0.2778-0.5000 ( 30232 PWs)   bands (ev):

   -49.9174 -49.9173 -49.8721 -49.8720 -49.8370 -49.8369 -49.8216 -49.8214
   -49.8153 -49.8152 -49.8045 -49.8043 -49.7927 -49.7925 -49.7779 -49.7778
   -49.7752 -49.7750 -49.7692 -49.7690 -49.7613 -49.7612 -49.7587 -49.7585
   -49.7567 -49.7566 -49.7481 -49.7480 -49.7471 -49.7470 -49.7409 -49.7407
   -20.2645 -20.2645 -20.2599 -20.2598 -20.2013 -20.2012 -20.1988 -20.1987
   -20.1935 -20.1933 -20.1729 -20.1728 -20.1674 -20.1673 -20.1598 -20.1598
   -20.1575 -20.1575 -20.1323 -20.1323 -20.0845 -20.0844 -20.0755 -20.0754
   -20.0405 -20.0404 -19.9992 -19.9992 -19.9919 -19.9919 -19.8693 -19.8693
   -19.8684 -19.8683 -19.8503 -19.8502 -19.8323 -19.8322 -19.8157 -19.8157
   -19.7956 -19.7955 -19.7055 -19.7054 -19.7002 -19.7000 -19.6979 -19.6978
   -19.6886 -19.6886 -19.6853 -19.6853 -19.6742 -19.6741 -19.6675 -19.6674
   -19.6370 -19.6369 -19.6263 -19.6263 -19.6123 -19.6122 -19.6110 -19.6109
   -19.5926 -19.5925 -19.5875 -19.5875 -19.5841 -19.5840 -19.5709 -19.5708
   -19.5572 -19.5571 -19.5440 -19.5438 -19.5425 -19.5424 -19.5409 -19.5408
   -19.5307 -19.5305 -19.5191 -19.5190 -19.5055 -19.5053 -19.4867 -19.4866
   -19.4823 -19.4821 -19.4346 -19.4345 -19.4221 -19.4221 -19.3944 -19.3943
    16.3367  16.3369  17.4652  17.4653  17.5162  17.5163  17.5246  17.5247
    17.5842  17.5842  17.6100  17.6101  17.6961  17.6962  17.8708  17.8709
    17.8845  17.8845  17.9802  17.9802  17.9998  17.9998  18.0334  18.0335
    18.0347  18.0348  18.1589  18.1590  18.1786  18.1786  18.2873  18.2874
    18.4807  18.4808  18.5813  18.5814  18.6908  18.6908  18.8132  18.8134
    18.8180  18.8180  18.9616  18.9617  19.0637  19.0638  19.1017  19.1017
    19.4597  19.4597  19.5396  19.5396  19.6277  19.6277  19.6433  19.6434
    19.6785  19.6786  19.9462  19.9463  20.1808  20.1809  20.2971  20.2972
    20.3185  20.3185  20.3992  20.3993  20.4239  20.4239  20.4544  20.4544
    20.5408  20.5409  20.6992  20.6992  20.7982  20.7983  20.9023  20.9023
    20.9118  20.9119  20.9901  20.9902  21.0094  21.0095  21.0422  21.0423
    21.1990  21.1991  21.2357  21.2357  21.2539  21.2539  21.2549  21.2549
    21.4379  21.4379  21.4445  21.4445  21.5533  21.5534  21.5595  21.5596
    21.7721  21.7722  21.9931  21.9931  22.1415  22.1416  22.1489  22.1490
    22.1962  22.1963  22.2373  22.2374  22.3567  22.3569  22.5404  22.5405
    22.7316  22.7318  23.0474  23.0475  23.0830  23.0831  23.1394  23.1395
    23.2889  23.2890  23.5408  23.5409  23.5827  23.5828  23.6964  23.6965
    23.7935  23.7937  23.8634  23.8634  23.9435  23.9435  23.9445  23.9445
    24.1976  24.1976  24.1981  24.1982  24.3074  24.3075  24.3755  24.3755
    24.3761  24.3762  24.3898  24.3898  24.4169  24.4169  24.4194  24.4194
    24.5169  24.5169  24.8696  24.8697  24.8972  24.8973  24.9425  24.9425
    25.0929  25.0930  25.6334  25.6336  26.0452  26.0453  26.1221  26.1221
    27.8320  27.8321  28.1602

          k = 0.0555 0.3889 0.3889 ( 30222 PWs)   bands (ev):

   -49.9203 -49.8959 -49.8959 -49.8746 -49.8387 -49.8262 -49.8262 -49.8230
   -49.8170 -49.8129 -49.8128 -49.8060 -49.7811 -49.7811 -49.7753 -49.7753
   -49.7748 -49.7747 -49.7683 -49.7682 -49.7659 -49.7659 -49.7564 -49.7564
   -49.7560 -49.7559 -49.7540 -49.7539 -49.7488 -49.7433 -49.7433 -49.7411
   -20.2760 -20.2760 -20.2143 -20.2143 -20.2123 -20.2123 -20.2071 -20.2007
   -20.1961 -20.1961 -20.1778 -20.1700 -20.1700 -20.1606 -20.1606 -20.1358
   -20.1358 -20.1235 -20.1234 -20.1208 -20.1208 -20.1200 -20.1200 -20.0820
   -20.0820 -20.0808 -20.0416 -19.9988 -19.9918 -19.9400 -19.9400 -19.8689
   -19.8501 -19.8501 -19.8149 -19.8149 -19.8112 -19.7788 -19.7788 -19.7635
   -19.7635 -19.7632 -19.7631 -19.7462 -19.7461 -19.7002 -19.7002 -19.6980
   -19.6980 -19.6868 -19.6868 -19.6772 -19.6771 -19.6754 -19.6721 -19.6721
   -19.6578 -19.6578 -19.6307 -19.6307 -19.6216 -19.6216 -19.6158 -19.6094
   -19.6094 -19.5848 -19.5848 -19.5816 -19.5744 -19.5744 -19.5743 -19.5743
   -19.5565 -19.5509 -19.5508 -19.5507 -19.5507 -19.5418 -19.5365 -19.5281
   -19.5215 -19.5161 -19.5138 -19.5113 -19.5113 -19.5034 -19.5010 -19.4826
   -19.4826 -19.4776 -19.4775 -19.4303 -19.4090 -19.4063 -19.4063 -19.3807
    16.2606  16.8801  16.8801  17.4106  17.4526  17.4989  17.5287  17.5287
    17.6107  17.7642  17.7643  17.7876  17.8233  17.8234  17.8873  17.8873
    17.8964  17.8964  17.9026  17.9026  17.9314  17.9439  17.9439  18.0176
    18.0176  18.0868  18.1360  18.1987  18.1987  18.3939  18.3939  18.3976
    18.3976  18.4025  18.4025  18.4039  18.4039  18.6500  18.6500  18.6547
    18.6547  18.7101  18.7102  18.9595  18.9595  19.0967  19.2978  19.2978
    19.3035  19.3035  19.4670  19.6323  19.6323  19.6443  19.6556  19.7247
    19.7247  20.0502  20.0551  20.0551  20.2115  20.3207  20.3207  20.4236
    20.4450  20.4450  20.4564  20.4564  20.4568  20.4568  20.4990  20.4990
    20.5630  20.6088  20.7798  20.7798  20.8739  20.8739  20.9012  20.9324
    20.9430  20.9486  20.9526  21.0153  21.0458  21.0458  21.0908  21.0908
    21.2365  21.2365  21.2389  21.2389  21.2460  21.2823  21.2823  21.3255
    21.4082  21.4082  21.4225  21.4226  21.4607  21.4758  21.5036  21.5036
    21.5318  21.5319  21.6783  21.7349  21.7349  21.7656  21.7656  22.0540
    22.1953  22.1953  22.2192  22.2192  22.3035  22.3035  22.3498  22.4578
    22.7607  23.0765  23.1358  23.1358  23.1587  23.1587  23.4168  23.4168
    23.4357  23.4357  23.5302  23.5303  23.5916  23.5916  23.6633  23.6991
    23.8431  23.8431  23.9477  23.9760  23.9761  23.9927  23.9927  24.0039
    24.0039  24.0912  24.2013  24.2953  24.3321  24.3577  24.3577  24.3611
    24.3611  24.3985  24.4649  24.5243  24.5243  24.5624  24.5624  24.5862
    24.5862  24.6035  24.6065  24.6065  24.6297  24.6297  24.7999  24.8251
    24.8251  25.1563  25.3189  25.3190  26.0922  26.0922  27.3732  27.3732
    27.4415  27.4415  28.1449

          k = 0.0555 0.3889-0.5000 ( 30240 PWs)   bands (ev):

   -49.9092 -49.9091 -49.8862 -49.8861 -49.8331 -49.8329 -49.8221 -49.8219
   -49.8185 -49.8183 -49.8098 -49.8096 -49.7785 -49.7783 -49.7713 -49.7712
   -49.7700 -49.7699 -49.7677 -49.7676 -49.7637 -49.7636 -49.7616 -49.7615
   -49.7606 -49.7604 -49.7553 -49.7552 -49.7459 -49.7457 -49.7422 -49.7420
   -20.2496 -20.2495 -20.2478 -20.2478 -20.1955 -20.1955 -20.1954 -20.1954
   -20.1802 -20.1801 -20.1711 -20.1710 -20.1650 -20.1649 -20.1623 -20.1622
   -20.1452 -20.1451 -20.1312 -20.1311 -20.1230 -20.1229 -20.1093 -20.1091
   -20.0814 -20.0813 -20.0374 -20.0374 -19.9724 -19.9724 -19.9044 -19.9044
   -19.8136 -19.8136 -19.8049 -19.8049 -19.7914 -19.7912 -19.7777 -19.7775
   -19.7548 -19.7547 -19.7281 -19.7279 -19.7241 -19.7240 -19.7228 -19.7228
   -19.7150 -19.7149 -19.6824 -19.6823 -19.6647 -19.6646 -19.6611 -19.6610
   -19.6452 -19.6451 -19.6386 -19.6385 -19.6348 -19.6347 -19.6201 -19.6200
   -19.5995 -19.5994 -19.5989 -19.5988 -19.5666 -19.5664 -19.5640 -19.5639
   -19.5639 -19.5638 -19.5555 -19.5554 -19.5313 -19.5311 -19.5269 -19.5268
   -19.5234 -19.5233 -19.5180 -19.5179 -19.5007 -19.5006 -19.4960 -19.4959
   -19.4915 -19.4913 -19.4519 -19.4518 -19.4039 -19.4038 -19.3898 -19.3898
    16.5461  16.5462  17.1250  17.1251  17.6109  17.6109  17.6156  17.6157
    17.7030  17.7031  17.7332  17.7333  17.7582  17.7583  17.7656  17.7656
    17.9033  17.9033  17.9338  17.9339  18.0357  18.0358  18.1252  18.1253
    18.1283  18.1284  18.1555  18.1555  18.1600  18.1600  18.2043  18.2045
    18.3820  18.3821  18.4046  18.4047  18.5142  18.5143  18.5520  18.5521
    18.5739  18.5739  18.8694  18.8694  19.0915  19.0916  19.1048  19.1049
    19.4477  19.4478  19.4587  19.4588  19.7026  19.7027  19.7816  19.7817
    19.9098  19.9098  19.9824  19.9824  20.1694  20.1695  20.4195  20.4196
    20.4721  20.4721  20.5265  20.5265  20.6247  20.6247  20.6761  20.6761
    20.7895  20.7897  20.8048  20.8048  20.8334  20.8334  20.9933  20.9934
    20.9959  20.9959  21.0136  21.0137  21.0568  21.0568  21.0865  21.0866
    21.1365  21.1365  21.1924  21.1925  21.1930  21.1930  21.2111  21.2112
    21.3417  21.3418  21.3458  21.3458  21.4788  21.4788  21.5027  21.5027
    21.5243  21.5244  21.6772  21.6772  21.9086  21.9086  21.9209  21.9210
    21.9664  21.9664  21.9857  21.9858  22.1472  22.1473  22.3288  22.3289
    22.9618  22.9619  23.2175  23.2176  23.3391  23.3392  23.3812  23.3813
    23.4120  23.4121  23.6419  23.6420  23.7208  23.7210  23.7428  23.7429
    23.8158  23.8158  23.8972  23.8973  24.0123  24.0123  24.1516  24.1517
    24.2145  24.2146  24.3043  24.3043  24.3728  24.3729  24.3767  24.3768
    24.3974  24.3974  24.4652  24.4652  24.4684  24.4684  24.5036  24.5036
    24.5083  24.5084  24.5789  24.5791  24.6368  24.6369  24.6975  24.6975
    24.8121  24.8121  25.1710  25.1711  26.7441  26.7441  26.7470  26.7471
    28.0883  28.0884  28.1588

          k = 0.0555-0.5000-0.5000 ( 30216 PWs)   bands (ev):

   -49.8988 -49.8987 -49.8986 -49.8985 -49.8281 -49.8280 -49.8279 -49.8278
   -49.8146 -49.8145 -49.8144 -49.8142 -49.7660 -49.7660 -49.7659 -49.7659
   -49.7658 -49.7658 -49.7657 -49.7657 -49.7656 -49.7655 -49.7654 -49.7654
   -49.7654 -49.7653 -49.7652 -49.7651 -49.7439 -49.7438 -49.7437 -49.7436
   -20.2261 -20.2261 -20.2261 -20.2261 -20.2261 -20.2261 -20.2260 -20.2260
   -20.1551 -20.1551 -20.1550 -20.1550 -20.1549 -20.1549 -20.1548 -20.1548
   -20.1426 -20.1424 -20.1424 -20.1422 -20.1241 -20.1241 -20.1240 -20.1239
   -20.0852 -20.0851 -20.0851 -20.0850 -19.9394 -19.9394 -19.9394 -19.9394
   -19.7618 -19.7618 -19.7618 -19.7618 -19.7618 -19.7617 -19.7617 -19.7617
   -19.7550 -19.7550 -19.7549 -19.7548 -19.7548 -19.7548 -19.7546 -19.7546
   -19.6950 -19.6950 -19.6950 -19.6950 -19.6536 -19.6536 -19.6535 -19.6535
   -19.6534 -19.6534 -19.6533 -19.6533 -19.6476 -19.6476 -19.6476 -19.6476
   -19.5831 -19.5831 -19.5831 -19.5830 -19.5830 -19.5830 -19.5829 -19.5829
   -19.5479 -19.5479 -19.5478 -19.5477 -19.5318 -19.5318 -19.5318 -19.5318
   -19.5095 -19.5095 -19.5095 -19.5095 -19.5070 -19.5070 -19.5069 -19.5069
   -19.4743 -19.4741 -19.4741 -19.4739 -19.3929 -19.3929 -19.3929 -19.3929
    16.8127  16.8129  16.8130  16.8131  17.6722  17.6722  17.6722  17.6723
    17.7517  17.7517  17.7518  17.7518  17.8024  17.8025  17.8025  17.8025
    17.9371  17.9371  17.9373  17.9373  17.9374  17.9374  17.9375  17.9375
    18.2518  18.2518  18.2519  18.2519  18.2520  18.2520  18.2521  18.2521
    18.3521  18.3521  18.3521  18.3522  18.3522  18.3522  18.3522  18.3522
    18.6195  18.6196  18.6196  18.6196  19.2586  19.2586  19.2587  19.2587
    19.2588  19.2588  19.2589  19.2589  19.8293  19.8293  19.8293  19.8293
    20.0539  20.0540  20.0541  20.0541  20.3323  20.3324  20.3324  20.3325
    20.5496  20.5496  20.5496  20.5496  20.5618  20.5618  20.5619  20.5619
    20.9190  20.9190  20.9190  20.9190  20.9190  20.9190  20.9190  20.9190
    21.0169  21.0170  21.0171  21.0171  21.1748  21.1749  21.1749  21.1749
    21.1857  21.1857  21.1857  21.1857  21.3298  21.3299  21.3299  21.3300
    21.3345  21.3346  21.3346  21.3346  21.3347  21.3347  21.3347  21.3347
    21.5897  21.5897  21.5898  21.5898  21.7250  21.7250  21.7250  21.7251
    21.7251  21.7251  21.7252  21.7252  22.2379  22.2381  22.2381  22.2383
    23.1990  23.1991  23.1991  23.1993  23.3919  23.3920  23.3921  23.3922
    23.6075  23.6075  23.6075  23.6076  23.6076  23.6076  23.6077  23.6077
    24.1236  24.1237  24.1237  24.1237  24.2464  24.2464  24.2465  24.2465
    24.2466  24.2466  24.2467  24.2467  24.2500  24.2501  24.2501  24.2502
    24.4830  24.4831  24.4831  24.4832  24.5179  24.5179  24.5179  24.5179
    24.5179  24.5179  24.5180  24.5180  24.5267  24.5267  24.5268  24.5268
    24.7792  24.7793  24.7793  24.7794  27.4325  27.4325  27.4326  27.4326
    27.4326  27.4327  27.4327

          k = 0.1664 0.0556 0.0556 ( 30244 PWs)   bands (ev):

   -49.9540 -49.8773 -49.8562 -49.8562 -49.8373 -49.8373 -49.8208 -49.8137
   -49.8137 -49.8030 -49.8015 -49.8015 -49.7957 -49.7929 -49.7929 -49.7924
   -49.7924 -49.7908 -49.7844 -49.7827 -49.7827 -49.7755 -49.7755 -49.7432
   -49.7407 -49.7406 -49.7403 -49.7402 -49.7386 -49.7386 -49.7382 -49.7381
   -20.3516 -20.3478 -20.3478 -20.3397 -20.2887 -20.2887 -20.2834 -20.1298
   -20.1166 -20.1166 -20.1011 -20.1011 -20.0984 -20.0984 -20.0958 -20.0929
   -20.0929 -20.0678 -20.0678 -20.0532 -20.0532 -20.0398 -20.0398 -20.0386
   -20.0386 -20.0008 -20.0008 -19.9834 -19.9833 -19.9722 -19.9464 -19.9464
   -19.9071 -19.9071 -19.8623 -19.8623 -19.8304 -19.8304 -19.8195 -19.8195
   -19.7890 -19.7514 -19.7514 -19.7407 -19.7407 -19.7403 -19.7402 -19.7334
   -19.7320 -19.7320 -19.7227 -19.7227 -19.7205 -19.7195 -19.7195 -19.7183
   -19.7183 -19.7161 -19.7139 -19.7015 -19.7015 -19.5921 -19.5907 -19.5705
   -19.5705 -19.5532 -19.5532 -19.5382 -19.5382 -19.5353 -19.5353 -19.5269
   -19.5269 -19.5215 -19.5202 -19.5202 -19.5145 -19.5145 -19.5130 -19.5042
   -19.5010 -19.5003 -19.5003 -19.4996 -19.4995 -19.4980 -19.4971 -19.4955
   -19.4955 -19.4928 -19.4824 -19.4723 -19.4723 -19.3884 -19.3696 -19.3677
    15.3875  16.9159  16.9271  16.9271  17.1812  17.2164  17.2164  17.2338
    17.2470  17.3710  17.3930  17.3930  17.6176  17.6176  17.7451  17.7930
    17.7930  18.1433  18.1433  18.3210  18.3211  18.3253  18.3310  18.3310
    18.5347  18.6265  18.6265  18.6399  18.6399  18.6901  18.7096  18.7096
    18.8932  18.8933  18.8954  18.8954  18.9211  18.9211  18.9952  18.9952
    19.0530  19.0530  19.1319  19.4226  19.4226  19.4564  19.4565  19.5065
    19.5065  19.5209  19.5209  19.5781  19.5781  19.6655  19.6655  19.6932
    19.7733  19.7734  19.7878  19.7878  19.8809  19.8998  19.8998  19.9391
    19.9391  19.9534  19.9534  19.9641  19.9642  20.2025  20.2025  20.2263
    20.2264  20.2499  20.3012  20.3218  20.3590  20.3590  20.4276  20.4621
    20.4867  20.5009  20.5009  20.5146  20.5146  20.5313  20.6145  20.6209
    21.3153  21.3154  21.4447  21.4447  21.5201  21.5622  21.6714  21.6714
    21.7009  21.7888  21.7888  21.8353  21.9668  21.9668  21.9742  22.0000
    22.0000  22.0461  22.0461  22.0636  22.1378  22.1378  22.4656  22.4656
    22.4854  22.4854  22.4972  22.4972  22.6157  22.6157  22.6296  22.6296
    22.7460  22.7460  22.7688  22.7688  22.8343  22.8732  22.8774  22.8774
    22.9301  22.9567  23.0871  23.0871  23.1020  23.1449  23.1449  23.2360
    23.2632  23.2632  23.2777  23.3275  23.3275  23.5149  23.5483  23.7512
    23.7513  23.9420  23.9420  24.0200  24.4668  24.4668  24.5801  24.5801
    24.5896  24.6297  24.6900  24.6900  24.6918  24.8891  24.9690  25.0820
    25.0820  25.0840  25.0840  25.1088  25.2217  25.2217  25.2244  25.2244
    25.3993  25.3993  25.6259  26.1381  26.1382  26.5028  26.6095  26.6623
    26.6623  27.1466  27.1466

          k = 0.1664 0.0556 0.1667 ( 30261 PWs)   bands (ev):

   -49.9507 -49.8751 -49.8747 -49.8544 -49.8358 -49.8257 -49.8195 -49.8187
   -49.8131 -49.8130 -49.8012 -49.8012 -49.7991 -49.7941 -49.7899 -49.7896
   -49.7891 -49.7891 -49.7830 -49.7829 -49.7761 -49.7761 -49.7685 -49.7431
   -49.7422 -49.7420 -49.7418 -49.7411 -49.7403 -49.7399 -49.7394 -49.7386
   -20.3445 -20.3444 -20.3330 -20.3208 -20.2804 -20.2764 -20.2758 -20.1359
   -20.1340 -20.1299 -20.1276 -20.0980 -20.0977 -20.0968 -20.0963 -20.0945
   -20.0903 -20.0898 -20.0865 -20.0848 -20.0681 -20.0656 -20.0632 -20.0631
   -20.0034 -19.9814 -19.9808 -19.9769 -19.9768 -19.9610 -19.9589 -19.9388
   -19.9358 -19.9209 -19.9040 -19.8479 -19.8259 -19.8258 -19.7887 -19.7885
   -19.7784 -19.7771 -19.7561 -19.7535 -19.7531 -19.7350 -19.7308 -19.7201
   -19.7194 -19.7172 -19.7166 -19.7165 -19.7152 -19.7149 -19.7148 -19.7142
   -19.7060 -19.7056 -19.6775 -19.6772 -19.6633 -19.6025 -19.5994 -19.5856
   -19.5847 -19.5630 -19.5585 -19.5498 -19.5352 -19.5345 -19.5343 -19.5319
   -19.5283 -19.5264 -19.5262 -19.5243 -19.5243 -19.5242 -19.5114 -19.5080
   -19.5072 -19.5063 -19.5058 -19.5044 -19.4981 -19.4960 -19.4942 -19.4936
   -19.4878 -19.4872 -19.4732 -19.4714 -19.4555 -19.4101 -19.3747 -19.3670
    15.4724  16.9782  16.9799  16.9848  17.2015  17.2539  17.3057  17.3057
    17.3082  17.3140  17.4305  17.4323  17.4585  17.6644  17.8131  17.8182
    17.8396  18.1764  18.1839  18.2033  18.2126  18.3702  18.3747  18.3782
    18.3787  18.4231  18.4232  18.5003  18.5646  18.5649  18.6808  18.7258
    18.7268  18.7462  18.7478  18.7720  18.9389  19.0114  19.0143  19.0149
    19.0170  19.0443  19.0466  19.1582  19.1682  19.3873  19.3940  19.4925
    19.4932  19.5159  19.5672  19.5697  19.6002  19.6013  19.6502  19.6542
    19.6724  19.8557  19.8610  19.8657  19.8698  19.9535  19.9615  20.0254
    20.0279  20.0739  20.1432  20.1466  20.2454  20.2523  20.2717  20.2727
    20.3108  20.3139  20.3515  20.4108  20.4166  20.4267  20.4352  20.4548
    20.4929  20.4979  20.5098  20.5544  20.5931  20.6004  20.6270  20.6623
    21.1778  21.2787  21.3033  21.3160  21.5579  21.5686  21.7239  21.7299
    21.7363  21.7454  21.7455  21.8057  21.8197  21.8304  21.8375  21.8567
    21.8640  22.0112  22.0784  22.1828  22.1831  22.2025  22.2040  22.2526
    22.3297  22.6157  22.6164  22.7307  22.7411  22.7467  22.7562  22.7608
    22.7970  22.7997  22.8187  22.8775  22.8864  22.9310  22.9549  22.9566
    23.0174  23.0214  23.0363  23.0763  23.0768  23.1769  23.2670  23.3267
    23.3283  23.3564  23.3612  23.4366  23.4482  23.4531  23.5734  23.5853
    23.7812  23.9773  24.1493  24.1527  24.1558  24.2855  24.2878  24.4625
    24.5725  24.5743  24.6408  24.7145  24.7181  24.7320  24.7429  24.9794
    24.9801  25.0804  25.0861  25.0951  25.0989  25.1070  25.1152  25.1518
    25.3473  25.6386  25.9808  25.9817  26.0802  26.0903  26.6075  26.6204
    27.1001  27.1257  27.2212

          k = 0.1664 0.0556 0.2778 ( 30230 PWs)   bands (ev):

   -49.9443 -49.8923 -49.8710 -49.8509 -49.8371 -49.8329 -49.8226 -49.8170
   -49.8119 -49.8092 -49.8022 -49.8009 -49.8006 -49.7967 -49.7957 -49.7877
   -49.7861 -49.7835 -49.7781 -49.7772 -49.7734 -49.7682 -49.7617 -49.7484
   -49.7454 -49.7449 -49.7445 -49.7429 -49.7419 -49.7415 -49.7395 -49.7387
   -20.3299 -20.3263 -20.3079 -20.2915 -20.2640 -20.2608 -20.2522 -20.1803
   -20.1712 -20.1381 -20.1370 -20.1354 -20.1351 -20.1302 -20.1092 -20.1056
   -20.1054 -20.0884 -20.0872 -20.0793 -20.0760 -20.0747 -20.0714 -20.0513
   -20.0348 -19.9964 -19.9830 -19.9641 -19.9632 -19.9501 -19.9452 -19.9429
   -19.9243 -19.9158 -19.8891 -19.8782 -19.8610 -19.8249 -19.8148 -19.7868
   -19.7780 -19.7723 -19.7487 -19.7412 -19.7363 -19.7238 -19.7199 -19.7158
   -19.7145 -19.7125 -19.7063 -19.6961 -19.6872 -19.6833 -19.6809 -19.6788
   -19.6787 -19.6749 -19.6423 -19.6400 -19.6330 -19.6267 -19.6164 -19.6145
   -19.5736 -19.5734 -19.5698 -19.5665 -19.5598 -19.5574 -19.5565 -19.5532
   -19.5461 -19.5394 -19.5322 -19.5273 -19.5258 -19.5249 -19.5179 -19.5147
   -19.5129 -19.5116 -19.5073 -19.5055 -19.4970 -19.4948 -19.4907 -19.4758
   -19.4751 -19.4722 -19.4675 -19.4570 -19.4456 -19.4442 -19.3858 -19.3728
    15.6394  16.9406  17.0771  17.0982  17.1048  17.2774  17.3463  17.4270
    17.4311  17.4473  17.5049  17.5545  17.5880  17.7245  17.7533  17.9277
    17.9457  17.9632  18.0046  18.1101  18.1434  18.2335  18.2378  18.2722
    18.2989  18.3213  18.4132  18.4404  18.4590  18.4597  18.4686  18.4906
    18.6179  18.6374  18.6457  18.7521  18.7897  18.8584  18.8671  19.0297
    19.0426  19.0656  19.1017  19.2080  19.2433  19.3075  19.3172  19.3472
    19.3577  19.4123  19.4433  19.4834  19.5639  19.5697  19.6003  19.6711
    19.6923  19.7285  19.8420  19.9638  20.0042  20.0284  20.0567  20.0901
    20.1188  20.1406  20.1818  20.2014  20.2676  20.2785  20.3103  20.3154
    20.3340  20.4129  20.4522  20.4744  20.4858  20.5461  20.5742  20.5880
    20.6427  20.7001  20.7164  20.7181  20.7354  20.7472  20.9671  20.9757
    21.0150  21.0743  21.0773  21.3004  21.3092  21.3139  21.4698  21.5053
    21.5881  21.6033  21.6481  21.7689  21.8111  21.8638  21.9281  22.0283
    22.0468  22.0843  22.1311  22.1804  22.2225  22.2354  22.3334  22.4129
    22.4439  22.5248  22.5293  22.5645  22.5792  22.6031  22.7123  22.7198
    22.7238  22.7353  22.8289  22.8600  22.9208  22.9597  23.0263  23.0403
    23.0552  23.0844  23.0866  23.2691  23.3654  23.3664  23.3876  23.4099
    23.4394  23.6020  23.6072  23.6525  23.6641  23.6653  23.7024  23.7140
    23.7182  23.8000  23.9105  24.0039  24.1637  24.2777  24.3768  24.3976
    24.4190  24.4891  24.5146  24.6308  24.6451  24.6455  24.7921  24.7922
    24.8631  24.8664  24.9271  24.9725  25.0795  25.0883  25.1015  25.1103
    25.1597  25.5371  25.5824  25.9637  26.0929  26.4058  26.4962  26.5880
    26.6095  26.6812  27.5949

          k = 0.1664 0.0556 0.3889 ( 30214 PWs)   bands (ev):

   -49.9350 -49.9086 -49.8649 -49.8477 -49.8458 -49.8314 -49.8286 -49.8166
   -49.8133 -49.8101 -49.8052 -49.8030 -49.7997 -49.7972 -49.7864 -49.7846
   -49.7842 -49.7833 -49.7787 -49.7676 -49.7647 -49.7609 -49.7579 -49.7555
   -49.7505 -49.7505 -49.7491 -49.7454 -49.7427 -49.7419 -49.7393 -49.7389
   -20.3047 -20.2982 -20.2735 -20.2535 -20.2400 -20.2388 -20.2276 -20.2179
   -20.2166 -20.1849 -20.1765 -20.1721 -20.1589 -20.1332 -20.1278 -20.1148
   -20.1139 -20.1122 -20.1081 -20.0978 -20.0747 -20.0617 -20.0580 -20.0416
   -20.0162 -20.0020 -19.9969 -19.9768 -19.9759 -19.9456 -19.9219 -19.9193
   -19.9159 -19.9039 -19.8933 -19.8751 -19.8595 -19.8484 -19.8457 -19.8285
   -19.8053 -19.7743 -19.7192 -19.7168 -19.7147 -19.7126 -19.7109 -19.7074
   -19.6985 -19.6902 -19.6894 -19.6652 -19.6613 -19.6556 -19.6535 -19.6503
   -19.6459 -19.6446 -19.6366 -19.6308 -19.6102 -19.6087 -19.6084 -19.5991
   -19.5954 -19.5948 -19.5933 -19.5928 -19.5924 -19.5858 -19.5856 -19.5600
   -19.5579 -19.5531 -19.5376 -19.5350 -19.5295 -19.5293 -19.5291 -19.5230
   -19.5203 -19.5171 -19.5028 -19.5016 -19.4985 -19.4944 -19.4894 -19.4858
   -19.4778 -19.4705 -19.4577 -19.4478 -19.4430 -19.4289 -19.4021 -19.3857
    15.8828  16.5538  17.2171  17.2630  17.2842  17.4085  17.4925  17.5655
    17.5959  17.6080  17.6154  17.6378  17.7129  17.7363  17.7561  17.7778
    17.8289  17.8747  17.9372  17.9394  18.0349  18.0477  18.1041  18.1353
    18.1449  18.1609  18.2708  18.3142  18.3197  18.3286  18.4934  18.5195
    18.5865  18.5928  18.6232  18.6538  18.7551  18.9530  18.9553  18.9759
    18.9885  19.0865  19.1042  19.1483  19.1641  19.2008  19.2184  19.2317
    19.2699  19.2756  19.4180  19.4218  19.4254  19.5352  19.6952  19.6978
    19.7089  19.7710  19.9713  19.9782  20.0181  20.0441  20.0812  20.0831
    20.1041  20.1413  20.1672  20.2299  20.2306  20.2451  20.2905  20.3084
    20.4110  20.4184  20.4412  20.6326  20.6860  20.7276  20.7487  20.7741
    20.8328  20.8719  20.8750  20.8777  20.8854  20.8859  20.8890  20.9268
    21.0291  21.1063  21.1684  21.1968  21.2410  21.2557  21.3440  21.3737
    21.5854  21.6850  21.7363  21.8073  21.8153  21.8675  21.9768  22.0353
    22.0556  22.0851  22.1304  22.1401  22.1448  22.1485  22.2224  22.2895
    22.3544  22.4084  22.5064  22.5351  22.5539  22.6144  22.6426  22.6604
    22.6789  22.7788  22.8230  22.8307  22.9113  22.9546  22.9695  23.0342
    23.0859  23.1274  23.2635  23.3053  23.3541  23.3570  23.4289  23.4456
    23.6275  23.6568  23.7256  23.8189  23.9418  23.9421  23.9608  23.9713
    23.9946  24.0042  24.0181  24.1094  24.1253  24.2050  24.2057  24.3054
    24.3835  24.4817  24.4898  24.5473  24.5491  24.5558  24.5565  24.5685
    24.7050  24.7055  24.7742  25.0156  25.0800  25.0876  25.0906  25.0916
    25.0968  25.2790  25.5646  25.7889  25.8244  25.9800  26.1267  26.3265
    26.8171  27.1410  27.4210

          k = 0.1664 0.0556-0.5000 ( 30226 PWs)   bands (ev):

   -49.9230 -49.9229 -49.8571 -49.8569 -49.8393 -49.8392 -49.8232 -49.8231
   -49.8087 -49.8085 -49.8079 -49.8078 -49.7986 -49.7984 -49.7853 -49.7851
   -49.7809 -49.7807 -49.7701 -49.7700 -49.7584 -49.7582 -49.7570 -49.7569
   -49.7546 -49.7544 -49.7501 -49.7500 -49.7424 -49.7422 -49.7391 -49.7390
   -20.2700 -20.2700 -20.2614 -20.2613 -20.2317 -20.2316 -20.2104 -20.2103
   -20.2092 -20.2091 -20.2084 -20.2083 -20.1705 -20.1703 -20.1239 -20.1239
   -20.1158 -20.1157 -20.1148 -20.1148 -20.0613 -20.0613 -20.0376 -20.0375
   -20.0091 -20.0090 -20.0010 -20.0009 -19.9565 -19.9565 -19.9218 -19.9217
   -19.8919 -19.8918 -19.8784 -19.8783 -19.8737 -19.8737 -19.8380 -19.8379
   -19.8071 -19.8069 -19.7181 -19.7180 -19.7112 -19.7111 -19.6864 -19.6863
   -19.6695 -19.6694 -19.6649 -19.6648 -19.6589 -19.6589 -19.6395 -19.6395
   -19.6300 -19.6300 -19.6240 -19.6239 -19.6201 -19.6200 -19.6176 -19.6175
   -19.6169 -19.6168 -19.5889 -19.5889 -19.5819 -19.5818 -19.5629 -19.5628
   -19.5610 -19.5609 -19.5465 -19.5464 -19.5447 -19.5446 -19.5251 -19.5250
   -19.5205 -19.5203 -19.5136 -19.5135 -19.5004 -19.5003 -19.4815 -19.4814
   -19.4800 -19.4800 -19.4474 -19.4474 -19.4230 -19.4229 -19.4049 -19.4048
    16.1928  16.1929  17.3862  17.3864  17.4720  17.4721  17.5070  17.5071
    17.5933  17.5933  17.6911  17.6911  17.7602  17.7603  17.8036  17.8037
    17.8336  17.8336  17.8728  17.8729  17.9759  17.9760  18.0154  18.0155
    18.0223  18.0224  18.1863  18.1864  18.3684  18.3685  18.4145  18.4145
    18.6989  18.6989  18.7118  18.7120  18.7692  18.7693  18.8602  18.8603
    19.1024  19.1024  19.1391  19.1392  19.1671  19.1671  19.2046  19.2046
    19.2685  19.2686  19.3370  19.3371  19.3519  19.3520  19.8248  19.8249
    19.8830  19.8831  19.8906  19.8907  19.9542  19.9543  20.0058  20.0058
    20.1658  20.1659  20.1723  20.1723  20.3619  20.3620  20.3876  20.3878
    20.4585  20.4586  20.4953  20.4953  20.5579  20.5579  20.7380  20.7380
    20.8412  20.8413  20.9353  20.9353  21.0135  21.0136  21.0300  21.0301
    21.0630  21.0630  21.0906  21.0907  21.5100  21.5100  21.5518  21.5518
    21.5857  21.5857  21.6356  21.6356  21.8079  21.8080  21.8124  21.8125
    22.0683  22.0684  22.2331  22.2331  22.2656  22.2657  22.3213  22.3213
    22.3255  22.3256  22.3871  22.3872  22.4506  22.4507  22.5556  22.5557
    22.7524  22.7526  22.7734  22.7735  22.8792  22.8793  23.1371  23.1372
    23.1763  23.1764  23.1796  23.1797  23.2483  23.2484  23.7011  23.7013
    23.7836  23.7837  23.7969  23.7969  24.0158  24.0159  24.0720  24.0721
    24.1978  24.1979  24.2456  24.2456  24.2507  24.2508  24.2687  24.2688
    24.2696  24.2696  24.2773  24.2774  24.2900  24.2901  24.4801  24.4801
    24.6183  24.6183  25.0447  25.0447  25.0832  25.0833  25.0933  25.0934
    25.3347  25.3348  25.5580  25.5581  25.5656  25.5656  26.0991  26.0992
    27.1625  27.1626  27.5884

          k = 0.1664 0.1667 0.1667 ( 30267 PWs)   bands (ev):

   -49.9475 -49.8731 -49.8726 -49.8726 -49.8248 -49.8248 -49.8246 -49.8183
   -49.8175 -49.8175 -49.8040 -49.7899 -49.7899 -49.7897 -49.7896 -49.7896
   -49.7895 -49.7892 -49.7891 -49.7891 -49.7695 -49.7693 -49.7693 -49.7431
   -49.7423 -49.7422 -49.7420 -49.7420 -49.7419 -49.7418 -49.7415 -49.7414
   -20.3338 -20.3338 -20.3336 -20.2978 -20.2689 -20.2689 -20.2683 -20.1362
   -20.1347 -20.1347 -20.1181 -20.1181 -20.1162 -20.1162 -20.1156 -20.1156
   -20.0977 -20.0977 -20.0963 -20.0963 -20.0960 -20.0960 -20.0328 -20.0302
   -20.0302 -19.9913 -19.9913 -19.9905 -19.9454 -19.9454 -19.9432 -19.9432
   -19.9430 -19.9430 -19.8616 -19.8616 -19.8615 -19.7742 -19.7742 -19.7734
   -19.7523 -19.7523 -19.7514 -19.7514 -19.7512 -19.7512 -19.7496 -19.7496
   -19.7467 -19.7113 -19.7113 -19.7082 -19.7060 -19.7060 -19.7046 -19.7046
   -19.7045 -19.7045 -19.6413 -19.6413 -19.6412 -19.5990 -19.5990 -19.5974
   -19.5886 -19.5886 -19.5865 -19.5483 -19.5483 -19.5458 -19.5413 -19.5394
   -19.5394 -19.5242 -19.5242 -19.5242 -19.5242 -19.5226 -19.5226 -19.5141
   -19.5141 -19.5119 -19.4978 -19.4978 -19.4965 -19.4913 -19.4913 -19.4908
   -19.4903 -19.4877 -19.4568 -19.4568 -19.4551 -19.4328 -19.3725 -19.3721
    15.5556  17.0356  17.0357  17.0373  17.2021  17.3576  17.3576  17.3576
    17.3581  17.3636  17.3636  17.4958  17.4958  17.4980  17.8604  17.8654
    17.8654  18.2338  18.2338  18.2410  18.2410  18.2421  18.2421  18.2670
    18.2670  18.2674  18.4318  18.4357  18.4357  18.6593  18.6599  18.6599
    18.6871  18.6871  18.6876  18.6877  18.6889  18.6889  19.0209  19.0209
    19.0237  19.0237  19.0281  19.0281  19.1954  19.2045  19.2045  19.5367
    19.5369  19.5369  19.6825  19.6825  19.6856  19.6856  19.6874  19.6874
    19.8243  19.8314  19.8314  19.9067  19.9067  19.9094  19.9094  19.9115
    19.9116  20.1984  20.2136  20.2136  20.3901  20.3946  20.3946  20.4085
    20.4201  20.4201  20.4264  20.4264  20.4310  20.4310  20.4540  20.4565
    20.4565  20.5046  20.5278  20.6471  20.6471  20.6634  20.6636  20.6782
    21.1896  21.2005  21.2006  21.4761  21.4761  21.4867  21.5313  21.5460
    21.5460  21.7173  21.7173  21.7295  21.9163  21.9163  21.9222  21.9698
    21.9698  21.9711  21.9711  21.9769  21.9769  22.3836  22.3844  22.3844
    22.5475  22.5476  22.5536  22.6661  22.6661  22.6773  22.6997  22.6997
    22.7033  22.7669  22.7669  22.7694  22.7695  22.7711  22.7711  22.8442
    22.8695  23.1642  23.3373  23.3373  23.3392  23.3392  23.3412  23.3412
    23.5923  23.5923  23.6035  23.6070  23.6070  23.6112  23.6997  23.7017
    23.7017  23.9956  24.0084  24.0084  24.1754  24.1754  24.1808  24.3769
    24.3769  24.3793  24.4575  24.4668  24.7560  24.7644  24.7644  24.9813
    24.9813  24.9834  24.9834  24.9945  24.9945  25.1001  25.1011  25.1011
    25.5811  25.5811  25.5883  26.0677  26.0677  26.0696  27.1755  27.1755
    27.1764  27.1764  27.1915

          k = 0.1664 0.1667 0.2778 ( 30238 PWs)   bands (ev):

   -49.9412 -49.8900 -49.8690 -49.8686 -49.8360 -49.8358 -49.8230 -49.8159
   -49.8152 -49.8088 -49.8000 -49.7964 -49.7960 -49.7898 -49.7895 -49.7893
   -49.7892 -49.7845 -49.7785 -49.7784 -49.7709 -49.7631 -49.7628 -49.7483
   -49.7459 -49.7455 -49.7445 -49.7438 -49.7430 -49.7424 -49.7419 -49.7418
   -20.3233 -20.3130 -20.3126 -20.2649 -20.2541 -20.2535 -20.2462 -20.1829
   -20.1567 -20.1561 -20.1348 -20.1344 -20.1314 -20.1311 -20.1302 -20.1299
   -20.1126 -20.1119 -20.1012 -20.0987 -20.0986 -20.0972 -20.0740 -20.0573
   -20.0091 -20.0078 -19.9920 -19.9894 -19.9523 -19.9509 -19.9205 -19.9183
   -19.9034 -19.9030 -19.8942 -19.8941 -19.8096 -19.8083 -19.8028 -19.7892
[...]
   -19.6268 -19.6268 -19.6129 -19.6128 -19.6072 -19.6071 -19.6071 -19.6069
   -19.5831 -19.5830 -19.5752 -19.5751 -19.5743 -19.5741 -19.5661 -19.5660
   -19.4781 -19.4780 -19.4768 -19.4767 -19.4697 -19.4696 -19.4483 -19.4482
   -19.4420 -19.4420 -19.4293 -19.4292 -19.4154 -19.4154 -19.4028 -19.4028
    16.6854  16.6856  17.1491  17.1493  17.3860  17.3862  17.3880  17.3881
    17.7226  17.7227  17.7271  17.7273  17.7622  17.7622  17.9485  17.9485
    17.9967  17.9967  17.9988  17.9989  18.0056  18.0056  18.0682  18.0682
    18.0856  18.0857  18.0991  18.0992  18.2016  18.2017  18.2342  18.2343
    18.3116  18.3117  18.3943  18.3944  18.4840  18.4841  18.7552  18.7552
    18.8076  18.8077  18.9350  18.9350  19.1454  19.1456  19.1624  19.1625
    19.2364  19.2364  19.4058  19.4059  19.4652  19.4653  19.6228  19.6229
    19.9519  19.9519  20.0086  20.0087  20.1534  20.1534  20.6525  20.6526
    20.7115  20.7115  20.7235  20.7235  20.8076  20.8077  20.8240  20.8241
    20.8287  20.8288  20.8453  20.8454  20.8569  20.8569  20.8905  20.8905
    20.8980  20.8981  20.9668  20.9668  20.9814  20.9814  20.9890  20.9890
    21.0277  21.0278  21.0460  21.0460  21.0708  21.0709  21.1075  21.1076
    21.1077  21.1078  21.5646  21.5646  21.5682  21.5682  21.6585  21.6585
    21.6767  21.6767  21.6859  21.6860  21.7047  21.7048  21.9731  21.9732
    22.1747  22.1748  22.2279  22.2280  22.5505  22.5506  22.5641  22.5642
    22.5788  22.5789  22.6001  22.6002  22.7158  22.7159  22.9885  22.9886
    23.0277  23.0277  23.0693  23.0694  23.1147  23.1148  23.1325  23.1326
    23.3326  23.3326  23.5226  23.5226  23.7221  23.7222  23.9037  23.9038
    24.6153  24.6154  24.6161  24.6161  24.6185  24.6185  24.6284  24.6284
    24.6351  24.6351  24.6714  24.6715  24.6903  24.6904  24.7069  24.7069
    24.7642  24.7642  24.8281  24.8282  24.8452  24.8453  24.8558  24.8558
    26.1832  26.1832  26.7223  26.7224  26.8566  26.8567  27.0967  27.0968
    27.9813  27.9814  28.2457

          k =-0.4991 0.2778-0.5000 ( 30224 PWs)   bands (ev):

   -49.8919 -49.8918 -49.8918 -49.8916 -49.8541 -49.8540 -49.8540 -49.8538
   -49.7880 -49.7878 -49.7878 -49.7877 -49.7666 -49.7665 -49.7665 -49.7664
   -49.7661 -49.7660 -49.7660 -49.7658 -49.7658 -49.7657 -49.7657 -49.7656
   -49.7655 -49.7655 -49.7655 -49.7653 -49.7502 -49.7500 -49.7500 -49.7499
   -20.2145 -20.2145 -20.2144 -20.2144 -20.2135 -20.2135 -20.2134 -20.2134
   -20.1776 -20.1775 -20.1775 -20.1775 -20.1723 -20.1722 -20.1722 -20.1721
   -20.1680 -20.1679 -20.1678 -20.1678 -20.1668 -20.1667 -20.1667 -20.1666
   -19.9877 -19.9877 -19.9877 -19.9876 -19.8706 -19.8706 -19.8706 -19.8706
   -19.7630 -19.7629 -19.7629 -19.7629 -19.7626 -19.7626 -19.7626 -19.7626
   -19.7616 -19.7616 -19.7616 -19.7615 -19.7600 -19.7599 -19.7599 -19.7598
   -19.7586 -19.7585 -19.7585 -19.7584 -19.6474 -19.6473 -19.6473 -19.6473
   -19.6391 -19.6391 -19.6391 -19.6391 -19.6372 -19.6371 -19.6371 -19.6370
   -19.6354 -19.6353 -19.6353 -19.6352 -19.5929 -19.5928 -19.5928 -19.5927
   -19.5909 -19.5908 -19.5907 -19.5907 -19.5770 -19.5770 -19.5770 -19.5770
   -19.4681 -19.4681 -19.4681 -19.4681 -19.4492 -19.4491 -19.4491 -19.4490
   -19.4472 -19.4471 -19.4471 -19.4470 -19.4054 -19.4054 -19.4054 -19.4054
    16.9012  16.9013  16.9013  16.9015  17.3755  17.3756  17.3756  17.3756
    17.8386  17.8387  17.8387  17.8387  17.8847  17.8848  17.8848  17.8849
    17.8852  17.8852  17.8853  17.8853  17.9648  17.9649  17.9649  17.9649
    18.1575  18.1575  18.1576  18.1576  18.1588  18.1588  18.1589  18.1589
    18.5522  18.5522  18.5523  18.5523  18.5552  18.5552  18.5553  18.5553
    18.7116  18.7117  18.7117  18.7117  19.2801  19.2802  19.2802  19.2803
    19.2815  19.2816  19.2816  19.2817  19.4610  19.4611  19.4611  19.4612
    20.0008  20.0008  20.0008  20.0008  20.4788  20.4788  20.4788  20.4788
    20.7356  20.7356  20.7356  20.7356  20.8166  20.8167  20.8167  20.8167
    20.8457  20.8457  20.8457  20.8458  20.8493  20.8493  20.8494  20.8494
    20.9675  20.9675  20.9675  20.9676  21.0019  21.0020  21.0020  21.0021
    21.0453  21.0454  21.0454  21.0454  21.2549  21.2549  21.2550  21.2551
    21.2647  21.2647  21.2648  21.2649  21.4068  21.4068  21.4069  21.4069
    21.7324  21.7325  21.7325  21.7325  21.9259  21.9259  21.9259  21.9260
    21.9312  21.9312  21.9312  21.9313  22.5500  22.5501  22.5501  22.5503
    22.8165  22.8166  22.8166  22.8167  22.8672  22.8672  22.8673  22.8673
    22.8732  22.8732  22.8733  22.8733  23.2567  23.2567  23.2567  23.2568
    23.2737  23.2738  23.2738  23.2739  23.6928  23.6929  23.6929  23.6930
    24.6915  24.6915  24.6916  24.6916  24.6945  24.6945  24.6946  24.6946
    24.7324  24.7324  24.7324  24.7324  24.7561  24.7562  24.7562  24.7563
    24.7612  24.7613  24.7613  24.7614  24.8090  24.8090  24.8090  24.8091
    26.3932  26.3933  26.3933  26.3934  27.6696  27.6696  27.6697  27.6708
    27.6799  27.6799  27.6800

          k =-0.4991 0.3889 0.3889 ( 30234 PWs)   bands (ev):

   -49.8945 -49.8943 -49.8738 -49.8738 -49.8736 -49.8736 -49.8563 -49.8562
   -49.7770 -49.7770 -49.7769 -49.7769 -49.7751 -49.7750 -49.7750 -49.7748
   -49.7673 -49.7672 -49.7670 -49.7669 -49.7654 -49.7654 -49.7653 -49.7653
   -49.7577 -49.7577 -49.7576 -49.7576 -49.7563 -49.7562 -49.7562 -49.7560
   -20.2205 -20.2205 -20.2101 -20.2100 -20.2099 -20.2098 -20.1884 -20.1884
   -20.1883 -20.1883 -20.1837 -20.1837 -20.1837 -20.1837 -20.1833 -20.1832
   -20.1831 -20.1830 -20.1722 -20.1721 -20.1678 -20.1678 -20.1677 -20.1677
   -19.9879 -19.9878 -19.8749 -19.8749 -19.8749 -19.8749 -19.8225 -19.8225
   -19.8224 -19.8224 -19.8103 -19.8103 -19.8103 -19.8102 -19.7722 -19.7722
   -19.7722 -19.7721 -19.7586 -19.7585 -19.7527 -19.7527 -19.7494 -19.7493
   -19.7092 -19.7092 -19.7091 -19.7091 -19.7022 -19.7022 -19.7022 -19.7022
   -19.6420 -19.6420 -19.6419 -19.6419 -19.6332 -19.6331 -19.6161 -19.6161
   -19.6160 -19.6160 -19.6144 -19.6144 -19.6142 -19.6142 -19.6059 -19.6059
   -19.6059 -19.6059 -19.5858 -19.5857 -19.5855 -19.5855 -19.5855 -19.5855
   -19.4599 -19.4598 -19.4543 -19.4543 -19.4542 -19.4542 -19.4392 -19.4390
   -19.4253 -19.4252 -19.4252 -19.4252 -19.4241 -19.4239 -19.4124 -19.4124
    16.8199  16.8201  17.1811  17.1811  17.1813  17.1813  17.2996  17.2997
    17.7934  17.7935  17.8125  17.8125  17.8125  17.8125  17.9732  17.9732
    17.9732  17.9732  18.0169  18.0169  18.0170  18.0170  18.0355  18.0355
    18.0355  18.0355  18.0526  18.0527  18.0528  18.0528  18.0648  18.0649
    18.5292  18.5293  18.6002  18.6002  18.6002  18.6002  18.9797  18.9797
    18.9797  18.9798  18.9940  18.9940  18.9941  18.9942  19.0268  19.0268
    19.0268  19.0268  19.3182  19.3183  19.3738  19.3738  19.3739  19.3739
    20.0871  20.0871  20.1732  20.1732  20.1732  20.1732  20.6413  20.6413
    20.8522  20.8522  20.8522  20.8522  20.8653  20.8654  20.8682  20.8682
    20.8683  20.8683  20.8897  20.8897  20.9299  20.9299  20.9299  20.9299
    20.9505  20.9505  20.9505  20.9505  20.9686  20.9686  20.9712  20.9712
    21.0026  21.0026  21.0026  21.0026  21.0047  21.0048  21.0148  21.0148
    21.0148  21.0149  21.4325  21.4325  21.4325  21.4325  21.4685  21.4686
    21.8082  21.8082  21.8082  21.8083  21.8449  21.8449  22.2434  22.2434
    22.2435  22.2435  22.3391  22.3391  22.3392  22.3392  22.3754  22.3754
    22.3755  22.3755  22.7393  22.7394  22.7403  22.7403  22.8078  22.8079
    22.8079  22.8080  22.8370  22.8370  22.8370  22.8371  23.0622  23.0623
    23.2049  23.2049  23.4283  23.4283  23.4283  23.4284  23.5876  23.5877
    24.7355  24.7355  24.7355  24.7355  24.7640  24.7640  24.7641  24.7641
    24.7670  24.7670  24.8200  24.8200  24.8201  24.8201  24.8248  24.8248
    24.8248  24.8249  24.8780  24.8780  24.8781  24.8781  24.9223  24.9223
    27.0347  27.0347  27.0348  27.0348  27.4750  27.4750  27.6371  27.6372
    27.6372  27.6373  28.4092

          k =-0.4991 0.3889-0.5000 ( 30232 PWs)   bands (ev):

   -49.8851 -49.8850 -49.8850 -49.8848 -49.8659 -49.8658 -49.8658 -49.8656
   -49.7762 -49.7760 -49.7760 -49.7759 -49.7666 -49.7664 -49.7664 -49.7663
   -49.7662 -49.7661 -49.7661 -49.7659 -49.7658 -49.7657 -49.7657 -49.7656
   -49.7655 -49.7655 -49.7655 -49.7653 -49.7570 -49.7568 -49.7568 -49.7567
   -20.2041 -20.2040 -20.2040 -20.2040 -20.2028 -20.2028 -20.2027 -20.2027
   -20.1896 -20.1895 -20.1895 -20.1894 -20.1856 -20.1855 -20.1855 -20.1854
   -20.1793 -20.1793 -20.1792 -20.1792 -20.1780 -20.1779 -20.1779 -20.1778
   -19.9315 -19.9314 -19.9314 -19.9313 -19.8183 -19.8182 -19.8182 -19.8182
   -19.8160 -19.8159 -19.8159 -19.8159 -19.7628 -19.7628 -19.7628 -19.7627
   -19.7618 -19.7617 -19.7617 -19.7617 -19.7611 -19.7610 -19.7610 -19.7609
   -19.7608 -19.7608 -19.7608 -19.7607 -19.7039 -19.7038 -19.7038 -19.7038
   -19.6279 -19.6279 -19.6279 -19.6279 -19.6257 -19.6257 -19.6256 -19.6255
   -19.6233 -19.6232 -19.6231 -19.6231 -19.6023 -19.6023 -19.6022 -19.6021
   -19.5998 -19.5997 -19.5996 -19.5996 -19.5964 -19.5964 -19.5964 -19.5964
   -19.4486 -19.4486 -19.4486 -19.4486 -19.4353 -19.4352 -19.4352 -19.4351
   -19.4350 -19.4349 -19.4349 -19.4348 -19.4167 -19.4167 -19.4167 -19.4167
    16.9883  16.9884  16.9884  16.9886  17.2306  17.2307  17.2307  17.2308
    17.9027  17.9027  17.9028  17.9028  17.9029  17.9029  17.9030  17.9031
    17.9039  17.9039  17.9039  17.9039  17.9819  17.9819  17.9819  17.9819
    18.0459  18.0460  18.0460  18.0461  18.0467  18.0467  18.0468  18.0469
    18.7650  18.7650  18.7651  18.7651  18.7685  18.7685  18.7687  18.7687
    18.8223  18.8223  18.8223  18.8223  19.1718  19.1719  19.1720  19.1720
    19.1733  19.1733  19.1734  19.1735  19.1990  19.1990  19.1990  19.1991
    20.1497  20.1497  20.1497  20.1498  20.4217  20.4217  20.4217  20.4217
    20.8813  20.8813  20.8813  20.8813  20.9029  20.9029  20.9030  20.9030
    20.9148  20.9148  20.9148  20.9149  20.9243  20.9244  20.9244  20.9245
    20.9358  20.9358  20.9359  20.9359  20.9695  20.9695  20.9696  20.9696
    20.9867  20.9868  20.9868  20.9868  21.1673  21.1673  21.1674  21.1674
    21.1799  21.1799  21.1800  21.1801  21.2389  21.2390  21.2390  21.2390
    21.9865  21.9866  21.9866  21.9866  22.0691  22.0692  22.0692  22.0692
    22.0783  22.0784  22.0784  22.0784  22.5262  22.5263  22.5263  22.5264
    22.5359  22.5360  22.5360  22.5361  22.5431  22.5431  22.5432  22.5432
    22.8062  22.8063  22.8063  22.8064  23.0989  23.0990  23.0990  23.0991
    23.1744  23.1745  23.1745  23.1746  23.3916  23.3917  23.3917  23.3918
    24.8075  24.8076  24.8076  24.8076  24.8114  24.8114  24.8114  24.8115
    24.8332  24.8332  24.8333  24.8333  24.8750  24.8750  24.8750  24.8751
    24.8798  24.8799  24.8799  24.8799  24.8803  24.8804  24.8804  24.8804
    27.3059  27.3060  27.3060  27.3061  27.9303  27.9303  27.9303  27.9308
    27.9424  27.9425  27.9425

          k =-0.4991-0.5000-0.5000 ( 30280 PWs)   bands (ev):

   -49.8765 -49.8763 -49.8763 -49.8762 -49.8762 -49.8761 -49.8761 -49.8759
   -49.7665 -49.7664 -49.7664 -49.7663 -49.7662 -49.7662 -49.7662 -49.7660
   -49.7659 -49.7658 -49.7658 -49.7658 -49.7657 -49.7657 -49.7656 -49.7656
   -49.7656 -49.7656 -49.7656 -49.7655 -49.7654 -49.7654 -49.7654 -49.7653
   -20.1920 -20.1920 -20.1920 -20.1919 -20.1919 -20.1919 -20.1919 -20.1918
   -20.1918 -20.1918 -20.1918 -20.1918 -20.1917 -20.1917 -20.1917 -20.1917
   -20.1906 -20.1905 -20.1905 -20.1904 -20.1904 -20.1904 -20.1903 -20.1903
   -19.8734 -19.8733 -19.8733 -19.8733 -19.8733 -19.8733 -19.8733 -19.8732
   -19.7623 -19.7622 -19.7622 -19.7622 -19.7622 -19.7621 -19.7621 -19.7621
   -19.7617 -19.7617 -19.7617 -19.7617 -19.7616 -19.7616 -19.7616 -19.7616
   -19.7616 -19.7616 -19.7616 -19.7616 -19.7616 -19.7615 -19.7615 -19.7615
   -19.6137 -19.6137 -19.6137 -19.6137 -19.6137 -19.6136 -19.6136 -19.6136
   -19.6135 -19.6135 -19.6135 -19.6135 -19.6135 -19.6135 -19.6134 -19.6134
   -19.6110 -19.6110 -19.6110 -19.6110 -19.6108 -19.6108 -19.6108 -19.6108
   -19.4318 -19.4317 -19.4317 -19.4317 -19.4316 -19.4316 -19.4315 -19.4315
   -19.4302 -19.4302 -19.4302 -19.4302 -19.4301 -19.4301 -19.4301 -19.4301
    17.0994  17.0996  17.0996  17.0996  17.0997  17.0997  17.0998  17.0999
    17.9577  17.9577  17.9577  17.9577  17.9577  17.9577  17.9577  17.9577
    17.9578  17.9578  17.9578  17.9579  17.9579  17.9579  17.9579  17.9579
    17.9581  17.9581  17.9581  17.9581  17.9582  17.9582  17.9582  17.9582
    18.9837  18.9838  18.9838  18.9838  18.9838  18.9838  18.9838  18.9839
    18.9839  18.9839  18.9839  18.9840  18.9840  18.9840  18.9840  18.9840
    18.9869  18.9870  18.9870  18.9871  18.9871  18.9871  18.9872  18.9872
    20.3037  20.3037  20.3037  20.3038  20.3038  20.3038  20.3038  20.3038
    20.9326  20.9327  20.9327  20.9327  20.9327  20.9327  20.9328  20.9328
    20.9542  20.9542  20.9542  20.9542  20.9543  20.9543  20.9543  20.9543
    21.0426  21.0426  21.0427  21.0427  21.0427  21.0428  21.0428  21.0428
    21.0557  21.0557  21.0557  21.0557  21.0557  21.0558  21.0558  21.0558
    21.0558  21.0558  21.0558  21.0559  21.0559  21.0559  21.0559  21.0559
    22.2605  22.2605  22.2605  22.2605  22.2605  22.2606  22.2606  22.2606
    22.2606  22.2606  22.2606  22.2607  22.2607  22.2607  22.2607  22.2608
    22.2716  22.2717  22.2717  22.2717  22.2717  22.2718  22.2718  22.2719
    23.0900  23.0900  23.0901  23.0901  23.0901  23.0902  23.0902  23.0902
    23.0973  23.0973  23.0973  23.0974  23.0974  23.0974  23.0975  23.0975
    24.8826  24.8826  24.8826  24.8826  24.8826  24.8827  24.8827  24.8827
    24.8870  24.8870  24.8870  24.8870  24.8870  24.8870  24.8871  24.8871
    24.8871  24.8871  24.8871  24.8871  24.8871  24.8872  24.8872  24.8872
    28.2520  28.2529  28.2534  28.2545  28.2562  28.2579  28.2596  28.2610
    28.2646  28.2647  28.2647

     the Fermi energy is    23.0612 ev

!    total energy              =  -13813.30082484 Ry

     total all-electron energy =   -289989.691164 Ry
     estimated scf accuracy    <       0.00000004 Ry
     smearing contrib. (-TS)   =       0.02029049 Ry
     internal energy E=F+TS    =  -13813.32111533 Ry

     The total energy is F=E-TS. E is the sum of the following terms:
     one-electron contribution =   -1000.30206960 Ry
     hartree contribution      =     917.44412779 Ry
     xc contribution           =    -927.99417144 Ry
     ewald contribution        =   -5213.02914939 Ry
     one-center paw contrib.   =   -7589.43985270 Ry

     convergence has been achieved in  13 iterations

     Forces acting on atoms (cartesian axes, Ry/au):

     atom    1 type  1   force =     0.00000000    0.00000000    0.00000000
     atom    2 type  1   force =    -0.00002001    0.00000586   -0.00000000
     atom    3 type  1   force =    -0.00002001    0.00000000    0.00000586
     atom    4 type  1   force =     0.00000000    0.00000282    0.00000282
     atom    5 type  1   force =     0.00000000    0.00000000    0.00000000
     atom    6 type  1   force =    -0.00001591    0.00000618   -0.00000000
     atom    7 type  1   force =    -0.00002001    0.00000000   -0.00000586
     atom    8 type  1   force =     0.00000000    0.00000282   -0.00000282
     atom    9 type  1   force =     0.00000000    0.00000000    0.00000000
     atom   10 type  1   force =    -0.00002001   -0.00000586    0.00000000
     atom   11 type  1   force =    -0.00001591    0.00000000    0.00000618
     atom   12 type  1   force =     0.00000000   -0.00000282    0.00000282
     atom   13 type  1   force =     0.00000000    0.00000000    0.00000000
     atom   14 type  1   force =    -0.00001591   -0.00000618   -0.00000000
     atom   15 type  1   force =    -0.00001591    0.00000000   -0.00000618
     atom   16 type  1   force =     0.00000000   -0.00000282   -0.00000282
     atom   17 type  1   force =     0.00000000    0.00000000    0.00000000
     atom   18 type  1   force =     0.00002001    0.00000586   -0.00000000
     atom   19 type  1   force =     0.00002001   -0.00000000    0.00000586
     atom   20 type  1   force =    -0.00000000    0.00001221    0.00001221
     atom   21 type  1   force =     0.00000000    0.00000000    0.00000000
     atom   22 type  1   force =     0.00001591    0.00000618   -0.00000000
     atom   23 type  1   force =     0.00002001    0.00000000   -0.00000586
     atom   24 type  1   force =     0.00000000    0.00001221   -0.00001221
     atom   25 type  1   force =     0.00000000    0.00000000    0.00000000
     atom   26 type  1   force =     0.00002001   -0.00000586    0.00000000
     atom   27 type  1   force =     0.00001591    0.00000000    0.00000618
     atom   28 type  1   force =     0.00000000   -0.00001221    0.00001221
     atom   29 type  1   force =     0.00000000    0.00000000    0.00000000
     atom   30 type  1   force =     0.00001591   -0.00000618   -0.00000000
     atom   31 type  1   force =     0.00001591    0.00000000   -0.00000618
     atom   32 type  1   force =    -0.00000000   -0.00001221   -0.00001221

     Total force =     0.000084     Total SCF correction =     0.000193
     SCF correction compared to forces is large: reduce conv_thr to get better values


     Computing stress (Cartesian axis) and pressure

          total   stress  (Ry/bohr**3)                   (kbar)     P=       -9.80
  -0.00008801   0.00000000   0.00000000          -12.95        0.00        0.00
   0.00000000  -0.00005595   0.00000000            0.00       -8.23        0.00
   0.00000000   0.00000000  -0.00005595            0.00        0.00       -8.23


     Writing output data file /scratch/IqhmGTTTklpVXJXi.save/
 
     init_run     :     26.25s CPU     26.86s WALL (       1 calls)
     electrons    :   1163.68s CPU   1182.23s WALL (       1 calls)
     forces       :     11.42s CPU     11.53s WALL (       1 calls)
     stress       :     66.68s CPU     67.48s WALL (       1 calls)

     Called by init_run:
     wfcinit      :     25.64s CPU     26.16s WALL (       1 calls)
     potinit      :      0.18s CPU      0.20s WALL (       1 calls)
     hinit0       :      0.13s CPU      0.13s WALL (       1 calls)

     Called by electrons:
     c_bands      :   1040.61s CPU   1056.38s WALL (      14 calls)
     sum_band     :    121.34s CPU    123.85s WALL (      14 calls)
     v_of_rho     :      0.19s CPU      0.21s WALL (      14 calls)
     newd         :      0.34s CPU      0.48s WALL (      14 calls)
     PAW_pot      :      1.16s CPU      1.24s WALL (      14 calls)
     mix_rho      :      0.06s CPU      0.07s WALL (      14 calls)

     Called by c_bands:
     init_us_2    :      4.92s CPU      5.02s WALL (    2325 calls)
     cegterg      :   1024.48s CPU   1039.61s WALL (    1050 calls)

     Called by *egterg:
     cdiaghg      :    133.01s CPU    135.22s WALL (    4017 calls)
     h_psi        :    544.80s CPU    554.02s WALL (    4167 calls)
     s_psi        :     38.50s CPU     38.78s WALL (    4167 calls)
     g_psi        :      0.95s CPU      0.96s WALL (    3042 calls)

     Called by h_psi:
     h_psi:calbec :     74.11s CPU     74.73s WALL (    4167 calls)
     vloc_psi     :    431.74s CPU    439.50s WALL (    4167 calls)
     add_vuspsi   :     36.57s CPU     37.39s WALL (    4167 calls)

     General routines
     calbec       :    113.26s CPU    114.25s WALL (    5592 calls)
     fft          :      0.21s CPU      0.24s WALL (     206 calls)
     ffts         :      0.02s CPU      0.02s WALL (      28 calls)
     fftw         :    501.58s CPU    510.66s WALL ( 1963844 calls)
     interpolate  :      0.03s CPU      0.04s WALL (      14 calls)
 
     Parallel routines
     fft_scatt_xy :     34.05s CPU     34.60s WALL ( 1964078 calls)
     fft_scatt_yz :    409.05s CPU    416.74s WALL ( 1964078 calls)
 
     PWSCF        :  21m26.01s CPU  21m49.72s WALL

 
   This run was terminated on:  14:51:21  23Nov2021            

=------------------------------------------------------------------------------=
   JOB DONE.
=------------------------------------------------------------------------------=
