
     Program PWSCF v.6.7MaX starts on 23Nov2021 at 16:11:18 

     This program is part of the open-source Quantum ESPRESSO suite
     for quantum simulation of materials; please cite
         "P. Giannozzi et al., J. Phys.:Condens. Matter 21 395502 (2009);
         "P. Giannozzi et al., J. Phys.:Condens. Matter 29 465901 (2017);
          URL http://www.quantum-espresso.org", 
     in publications or presentations arising from this work. More details at
     http://www.quantum-espresso.org/quote

     Parallel version (MPI & OpenMP), running on      72 processor cores
     Number of MPI processes:                72
     Threads/MPI process:                     1

     MPI processes distributed on     1 nodes
     R & G space division:  proc/nbgrp/npool/nimage =      72
     Reading input from /rds/homes/b/bxp912/jobs/20211014_ru_eos/wd/ec/ec_1_009.in
Warning: card &CELL ignored
Warning: card CELL_DYNAMICS = 'BFGS', ignored
Warning: card CELL_FACTOR = 2.0, ignored
Warning: card PRESS = 0.0, ignored
Warning: card / ignored

     Current dimensions of program PWSCF are:
     Max number of different atomic species (ntypx) = 10
     Max number of k-points (npk) =  40000
     Max angular momentum in pseudopotentials (lmaxx) =  3
     file Ru.pbe-spn-kjpaw_psl.1.0.0.UPF: wavefunction(s)  4D renormalized

     Subspace diagonalization in iterative solution of the eigenvalue problem:
     one sub-group per band group will be used
     ELPA distributed-memory algorithm (size of sub-group:  8*  8 procs)

     Found symmetry operation: I + (  0.2500  0.2500  0.0000)
     This is a supercell, fractional translations are disabled
     Message from routine setup:
     using ibrav=0 with symmetry is DISCOURAGED, use correct ibrav instead
 
     Parallelization info
     --------------------
     sticks:   dense  smooth     PW     G-vecs:    dense   smooth      PW
     Min          99      65     17                 6277     3367     477
     Max         101      66     18                 6281     3372     482
     Sum        7137    4705   1289               452103   242577   34561
 


     bravais-lattice index     =            0
     lattice parameter (alat)  =      14.4007  a.u.
     unit-cell volume          =    3001.3776 (a.u.)^3
     number of atoms/cell      =           32
     number of atomic types    =            1
     number of electrons       =       512.00
     number of Kohn-Sham states=          307
     kinetic-energy cutoff     =      71.0000  Ry
     charge density cutoff     =     430.0000  Ry
     scf convergence threshold =      1.0E-06
     mixing beta               =       0.1000
     number of iterations used =           10  plain     mixing
     Exchange-correlation= SLA  PW   PBX  PBC
                           (   1   4   3   4   0   0   0)

     celldm(1)=  14.400742  celldm(2)=   0.000000  celldm(3)=   0.000000
     celldm(4)=   0.000000  celldm(5)=   0.000000  celldm(6)=   0.000000

     crystal axes: (cart. coord. in units of alat)
               a(1) = (   1.005000   0.000000   0.000000 )  
               a(2) = (   0.000000   1.000000   0.000000 )  
               a(3) = (   0.000000   0.000000   1.000000 )  

     reciprocal axes: (cart. coord. in units 2 pi/alat)
               b(1) = (  0.995025  0.000000  0.000000 )  
               b(2) = (  0.000000  1.000000  0.000000 )  
               b(3) = (  0.000000  0.000000  1.000000 )  


     PseudoPot. # 1 for Ru read from file:
     /rds/homes/b/bxp912/pp/Ru.pbe-spn-kjpaw_psl.1.0.0.UPF
     MD5 check sum: 0ae1f594dea09af7be8575c3a481d1ae
     Pseudo is Projector augmented-wave + core cor, Zval = 16.0
     Generated using "atomic" code by A. Dal Corso  v.5.1
     Shape of augmentation charge: PSQ
     Using radial grid of 1233 points,  6 beta functions with: 
                l(1) =   0
                l(2) =   0
                l(3) =   1
                l(4) =   1
                l(5) =   2
                l(6) =   2
     Q(r) pseudized with 0 coefficients 


     atomic species   valence    mass     pseudopotential
        Ru            16.00   101.07000     Ru( 1.00)

     16 Sym. Ops., with inversion, found



   Cartesian axes

     site n.     atom                  positions (alat units)
         1           Ru  tau(   1) = (   0.0000000   0.0000000   0.0000000  )
         2           Ru  tau(   2) = (   0.2512500   0.2500000   0.0000000  )
         3           Ru  tau(   3) = (   0.2512500   0.0000000   0.2499995  )
         4           Ru  tau(   4) = (   0.0000000   0.2500000   0.2499995  )
         5           Ru  tau(   5) = (   0.0000000   0.0000000   0.5000000  )
         6           Ru  tau(   6) = (   0.2512489   0.2499990   0.5000000  )
         7           Ru  tau(   7) = (   0.2512500   0.0000000   0.7499995  )
         8           Ru  tau(   8) = (   0.0000000   0.2500000   0.7499995  )
         9           Ru  tau(   9) = (   0.0000000   0.5000002   0.0000000  )
        10           Ru  tau(  10) = (   0.2512500   0.7500004   0.0000000  )
        11           Ru  tau(  11) = (   0.2512489   0.5000002   0.2499984  )
        12           Ru  tau(  12) = (   0.0000000   0.7500004   0.2499995  )
        13           Ru  tau(  13) = (   0.0000000   0.5000002   0.5000000  )
        14           Ru  tau(  14) = (   0.2512489   0.7500015   0.5000000  )
        15           Ru  tau(  15) = (   0.2512489   0.5000002   0.7500005  )
        16           Ru  tau(  16) = (   0.0000000   0.7500004   0.7499995  )
        17           Ru  tau(  17) = (   0.5025002   0.0000000   0.0000000  )
        18           Ru  tau(  18) = (   0.7537504   0.2500000   0.0000000  )
        19           Ru  tau(  19) = (   0.7537504   0.0000000   0.2499995  )
        20           Ru  tau(  20) = (   0.5025002   0.2499990   0.2499984  )
        21           Ru  tau(  21) = (   0.5025002   0.0000000   0.5000000  )
        22           Ru  tau(  22) = (   0.7537515   0.2499990   0.5000000  )
        23           Ru  tau(  23) = (   0.7537504   0.0000000   0.7499995  )
        24           Ru  tau(  24) = (   0.5025002   0.2499990   0.7500005  )
        25           Ru  tau(  25) = (   0.5025002   0.5000002   0.0000000  )
        26           Ru  tau(  26) = (   0.7537504   0.7500004   0.0000000  )
        27           Ru  tau(  27) = (   0.7537515   0.5000002   0.2499984  )
        28           Ru  tau(  28) = (   0.5025002   0.7500015   0.2499984  )
        29           Ru  tau(  29) = (   0.5025002   0.5000002   0.5000000  )
        30           Ru  tau(  30) = (   0.7537515   0.7500015   0.5000000  )
        31           Ru  tau(  31) = (   0.7537515   0.5000002   0.7500005  )
        32           Ru  tau(  32) = (   0.5025002   0.7500015   0.7500005  )

     number of k points=    75  Marzari-Vanderbilt smearing, width (Ry)=  0.0400
                       cart. coord. in units 2pi/alat
        k(    1) = (   0.0552792   0.0555556   0.0555556), wk =   0.0219479
        k(    2) = (   0.0552792   0.0555556   0.1666667), wk =   0.0438957
        k(    3) = (   0.0552792   0.0555556   0.2777778), wk =   0.0438957
        k(    4) = (   0.0552792   0.0555556   0.3888889), wk =   0.0438957
        k(    5) = (   0.0552792   0.0555556  -0.5000000), wk =   0.0219479
        k(    6) = (   0.0552792   0.1666667   0.1666667), wk =   0.0219479
        k(    7) = (   0.0552792   0.1666667   0.2777778), wk =   0.0438957
        k(    8) = (   0.0552792   0.1666667   0.3888889), wk =   0.0438957
        k(    9) = (   0.0552792   0.1666667  -0.5000000), wk =   0.0219479
        k(   10) = (   0.0552792   0.2777778   0.2777778), wk =   0.0219479
        k(   11) = (   0.0552792   0.2777778   0.3888889), wk =   0.0438957
        k(   12) = (   0.0552792   0.2777778  -0.5000000), wk =   0.0219479
        k(   13) = (   0.0552792   0.3888889   0.3888889), wk =   0.0219479
        k(   14) = (   0.0552792   0.3888889  -0.5000000), wk =   0.0219479
        k(   15) = (   0.0552792  -0.5000000  -0.5000000), wk =   0.0054870
        k(   16) = (   0.1658375   0.0555556   0.0555556), wk =   0.0219479
        k(   17) = (   0.1658375   0.0555556   0.1666667), wk =   0.0438957
        k(   18) = (   0.1658375   0.0555556   0.2777778), wk =   0.0438957
        k(   19) = (   0.1658375   0.0555556   0.3888889), wk =   0.0438957
        k(   20) = (   0.1658375   0.0555556  -0.5000000), wk =   0.0219479
        k(   21) = (   0.1658375   0.1666667   0.1666667), wk =   0.0219479
        k(   22) = (   0.1658375   0.1666667   0.2777778), wk =   0.0438957
        k(   23) = (   0.1658375   0.1666667   0.3888889), wk =   0.0438957
        k(   24) = (   0.1658375   0.1666667  -0.5000000), wk =   0.0219479
        k(   25) = (   0.1658375   0.2777778   0.2777778), wk =   0.0219479
        k(   26) = (   0.1658375   0.2777778   0.3888889), wk =   0.0438957
        k(   27) = (   0.1658375   0.2777778  -0.5000000), wk =   0.0219479
        k(   28) = (   0.1658375   0.3888889   0.3888889), wk =   0.0219479
        k(   29) = (   0.1658375   0.3888889  -0.5000000), wk =   0.0219479
        k(   30) = (   0.1658375  -0.5000000  -0.5000000), wk =   0.0054870
        k(   31) = (   0.2763958   0.0555556   0.0555556), wk =   0.0219479
        k(   32) = (   0.2763958   0.0555556   0.1666667), wk =   0.0438957
        k(   33) = (   0.2763958   0.0555556   0.2777778), wk =   0.0438957
        k(   34) = (   0.2763958   0.0555556   0.3888889), wk =   0.0438957
        k(   35) = (   0.2763958   0.0555556  -0.5000000), wk =   0.0219479
        k(   36) = (   0.2763958   0.1666667   0.1666667), wk =   0.0219479
        k(   37) = (   0.2763958   0.1666667   0.2777778), wk =   0.0438957
        k(   38) = (   0.2763958   0.1666667   0.3888889), wk =   0.0438957
        k(   39) = (   0.2763958   0.1666667  -0.5000000), wk =   0.0219479
        k(   40) = (   0.2763958   0.2777778   0.2777778), wk =   0.0219479
        k(   41) = (   0.2763958   0.2777778   0.3888889), wk =   0.0438957
        k(   42) = (   0.2763958   0.2777778  -0.5000000), wk =   0.0219479
        k(   43) = (   0.2763958   0.3888889   0.3888889), wk =   0.0219479
        k(   44) = (   0.2763958   0.3888889  -0.5000000), wk =   0.0219479
        k(   45) = (   0.2763958  -0.5000000  -0.5000000), wk =   0.0054870
        k(   46) = (   0.3869541   0.0555556   0.0555556), wk =   0.0219479
        k(   47) = (   0.3869541   0.0555556   0.1666667), wk =   0.0438957
        k(   48) = (   0.3869541   0.0555556   0.2777778), wk =   0.0438957
        k(   49) = (   0.3869541   0.0555556   0.3888889), wk =   0.0438957
        k(   50) = (   0.3869541   0.0555556  -0.5000000), wk =   0.0219479
        k(   51) = (   0.3869541   0.1666667   0.1666667), wk =   0.0219479
        k(   52) = (   0.3869541   0.1666667   0.2777778), wk =   0.0438957
        k(   53) = (   0.3869541   0.1666667   0.3888889), wk =   0.0438957
        k(   54) = (   0.3869541   0.1666667  -0.5000000), wk =   0.0219479
        k(   55) = (   0.3869541   0.2777778   0.2777778), wk =   0.0219479
        k(   56) = (   0.3869541   0.2777778   0.3888889), wk =   0.0438957
        k(   57) = (   0.3869541   0.2777778  -0.5000000), wk =   0.0219479
        k(   58) = (   0.3869541   0.3888889   0.3888889), wk =   0.0219479
        k(   59) = (   0.3869541   0.3888889  -0.5000000), wk =   0.0219479
        k(   60) = (   0.3869541  -0.5000000  -0.5000000), wk =   0.0054870
        k(   61) = (  -0.4975124   0.0555556   0.0555556), wk =   0.0109739
        k(   62) = (  -0.4975124   0.0555556   0.1666667), wk =   0.0219479
        k(   63) = (  -0.4975124   0.0555556   0.2777778), wk =   0.0219479
        k(   64) = (  -0.4975124   0.0555556   0.3888889), wk =   0.0219479
        k(   65) = (  -0.4975124   0.0555556  -0.5000000), wk =   0.0109739
        k(   66) = (  -0.4975124   0.1666667   0.1666667), wk =   0.0109739
        k(   67) = (  -0.4975124   0.1666667   0.2777778), wk =   0.0219479
        k(   68) = (  -0.4975124   0.1666667   0.3888889), wk =   0.0219479
        k(   69) = (  -0.4975124   0.1666667  -0.5000000), wk =   0.0109739
        k(   70) = (  -0.4975124   0.2777778   0.2777778), wk =   0.0109739
        k(   71) = (  -0.4975124   0.2777778   0.3888889), wk =   0.0219479
        k(   72) = (  -0.4975124   0.2777778  -0.5000000), wk =   0.0109739
        k(   73) = (  -0.4975124   0.3888889   0.3888889), wk =   0.0109739
        k(   74) = (  -0.4975124   0.3888889  -0.5000000), wk =   0.0109739
        k(   75) = (  -0.4975124  -0.5000000  -0.5000000), wk =   0.0027435

     Dense  grid:   452103 G-vectors     FFT dimensions: (  96,  96,  96)

     Smooth grid:   242577 G-vectors     FFT dimensions: (  80,  80,  80)

     Estimated max dynamical RAM per process >     186.49 MB

     Estimated total dynamical RAM >      13.11 GB

     Check: negative core charge=   -0.000002

     Initial potential from superposition of free atoms

     starting charge  511.97959, renormalised to  512.00000
     Starting wfcs are  320 randomized atomic wfcs
     Checking if some PAW data can be deallocated... 

     total cpu time spent up to now is       32.5 secs

     Self-consistent Calculation

     iteration #  1     ecut=    71.00 Ry     beta= 0.10
     Davidson diagonalization with overlap
     ethr =  1.00E-02,  avg # of iterations =  3.4

     Threshold (ethr) on eigenvalues was too large:
     Diagonalizing with lowered threshold

     Davidson diagonalization with overlap
     ethr =  8.28E-05,  avg # of iterations =  5.5

     total cpu time spent up to now is      217.5 secs

     total energy              =  -13813.41116224 Ry
     estimated scf accuracy    <       0.63671814 Ry

     iteration #  2     ecut=    71.00 Ry     beta= 0.10
     Davidson diagonalization with overlap
     ethr =  1.24E-04,  avg # of iterations =  1.0

     total cpu time spent up to now is      288.3 secs

     total energy              =  -13813.20606683 Ry
     estimated scf accuracy    <       0.39737422 Ry

     iteration #  3     ecut=    71.00 Ry     beta= 0.10
     Davidson diagonalization with overlap
     ethr =  7.76E-05,  avg # of iterations =  2.3

     total cpu time spent up to now is      385.9 secs

     total energy              =  -13813.29844060 Ry
     estimated scf accuracy    <       0.03598894 Ry

     iteration #  4     ecut=    71.00 Ry     beta= 0.10
     Davidson diagonalization with overlap
     ethr =  7.03E-06,  avg # of iterations =  2.3

     total cpu time spent up to now is      465.1 secs

     total energy              =  -13813.29908954 Ry
     estimated scf accuracy    <       0.00878849 Ry

     iteration #  5     ecut=    71.00 Ry     beta= 0.10
     Davidson diagonalization with overlap
     ethr =  1.72E-06,  avg # of iterations =  1.6

     total cpu time spent up to now is      535.8 secs

     total energy              =  -13813.30050043 Ry
     estimated scf accuracy    <       0.00554543 Ry

     iteration #  6     ecut=    71.00 Ry     beta= 0.10
     Davidson diagonalization with overlap
     ethr =  1.08E-06,  avg # of iterations =  3.9

     total cpu time spent up to now is      649.9 secs

     total energy              =  -13813.29897404 Ry
     estimated scf accuracy    <       0.01648693 Ry

     iteration #  7     ecut=    71.00 Ry     beta= 0.10
     Davidson diagonalization with overlap
     ethr =  1.08E-06,  avg # of iterations =  2.4

     total cpu time spent up to now is      742.9 secs

     total energy              =  -13813.29992517 Ry
     estimated scf accuracy    <       0.00171375 Ry

     iteration #  8     ecut=    71.00 Ry     beta= 0.10
     Davidson diagonalization with overlap
     ethr =  3.35E-07,  avg # of iterations =  2.0

     total cpu time spent up to now is      820.4 secs

     total energy              =  -13813.29997747 Ry
     estimated scf accuracy    <       0.00032208 Ry

     iteration #  9     ecut=    71.00 Ry     beta= 0.10
     Davidson diagonalization with overlap
     ethr =  6.29E-08,  avg # of iterations =  2.3

     total cpu time spent up to now is      891.1 secs

     total energy              =  -13813.29993202 Ry
     estimated scf accuracy    <       0.00011299 Ry

     iteration # 10     ecut=    71.00 Ry     beta= 0.10
     Davidson diagonalization with overlap
     ethr =  2.21E-08,  avg # of iterations =  3.2

     total cpu time spent up to now is      986.8 secs

     total energy              =  -13813.29996489 Ry
     estimated scf accuracy    <       0.00000271 Ry

     iteration # 11     ecut=    71.00 Ry     beta= 0.10
     Davidson diagonalization with overlap
     ethr =  5.30E-10,  avg # of iterations =  3.3

     total cpu time spent up to now is     1063.2 secs

     End of self-consistent calculation

          k = 0.0553 0.0556 0.0556 ( 30395 PWs)   bands (ev):

   -50.0401 -49.9434 -49.9419 -49.9419 -49.9247 -49.9229 -49.9229 -49.8884
   -49.8883 -49.8882 -49.8791 -49.8782 -49.8781 -49.8780 -49.8780 -49.8779
   -49.8779 -49.8774 -49.8774 -49.8773 -49.8694 -49.8693 -49.8693 -49.8270
   -49.8250 -49.8250 -49.8248 -49.8248 -49.8238 -49.8237 -49.8232 -49.8232
   -20.4369 -20.4369 -20.4367 -20.4328 -20.3758 -20.3758 -20.3742 -20.1829
   -20.1757 -20.1756 -20.1720 -20.1719 -20.1646 -20.1646 -20.1641 -20.1641
   -20.1523 -20.1442 -20.1442 -20.1284 -20.1284 -20.1231 -20.1231 -20.1226
   -20.1226 -20.0793 -20.0793 -20.0733 -20.0732 -20.0723 -20.0723 -19.9776
   -19.9776 -19.9763 -19.9059 -19.9059 -19.9041 -19.8979 -19.8979 -19.8966
   -19.8655 -19.8655 -19.8644 -19.8644 -19.8632 -19.8632 -19.8254 -19.8254
   -19.8237 -19.8200 -19.8200 -19.8189 -19.8188 -19.8187 -19.8186 -19.8155
   -19.8154 -19.8076 -19.8076 -19.8069 -19.8023 -19.6519 -19.6519 -19.6467
   -19.6467 -19.6449 -19.6442 -19.6197 -19.6197 -19.6155 -19.6155 -19.6136
   -19.6135 -19.6037 -19.6037 -19.5977 -19.5932 -19.5913 -19.5913 -19.5904
   -19.5904 -19.5903 -19.5903 -19.5875 -19.5850 -19.5850 -19.5848 -19.5847
   -19.5828 -19.5801 -19.5721 -19.5721 -19.5668 -19.4591 -19.4525 -19.4520
    15.2314  16.8018  16.8018  16.8061  17.0762  17.0938  17.0938  17.0939
    17.2676  17.2676  17.2727  17.4680  17.4859  17.4860  17.6423  17.6596
    17.6597  18.1851  18.1852  18.2116  18.2116  18.2127  18.2128  18.5062
    18.5234  18.5234  18.7723  18.7724  18.7735  18.7740  18.7965  18.7965
    18.8802  18.8824  18.8825  18.8827  18.8828  18.8828  18.8828  18.8840
    18.8840  19.3624  19.3624  19.3759  19.3759  19.3870  19.3870  19.5016
    19.5272  19.5272  19.5326  19.5326  19.5587  19.5588  19.5607  19.5608
    19.5987  19.6227  19.6227  19.8618  19.8618  19.8709  19.8710  19.8732
    19.8733  19.8734  19.8734  19.8778  19.8778  19.8811  19.8841  19.8842
    19.8903  19.8904  20.0449  20.0450  20.0499  20.2998  20.3275  20.3275
    20.3352  20.3832  20.3832  20.3964  20.4113  20.4356  20.4927  20.5097
    21.4266  21.4727  21.4727  21.5917  21.6418  21.6419  21.6709  21.6709
    21.6870  21.7700  21.7701  21.7719  21.7719  21.7849  21.7849  21.7854
    21.7854  21.7977  22.0738  22.0738  22.1010  22.1970  22.1970  22.2134
    22.4407  22.4407  22.4660  22.5191  22.5191  22.5305  22.5306  22.5318
    22.5319  22.5375  22.5375  22.5603  22.5790  22.5790  22.5948  22.7659
    22.7659  22.7667  22.7667  22.7869  22.7869  22.7949  22.8662  22.9382
    22.9382  22.9589  23.5890  23.5890  23.6217  23.6468  23.6469  23.6535
    23.7493  23.7494  23.7776  23.8498  24.5701  24.5701  24.5740  24.5983
    24.6291  24.6327  24.6558  24.6558  24.9199  24.9322  24.9322  24.9518
    24.9518  24.9674  25.1001  25.1001  25.1020  25.1020  25.1170  25.1239
    25.1239  25.1416  25.1416  26.5424  26.5424  26.5774  26.6643  26.7592
    26.7592  27.0709  27.0710

          k = 0.0553 0.0556 0.1667 ( 30370 PWs)   bands (ev):

   -50.0369 -49.9605 -49.9415 -49.9401 -49.9232 -49.9214 -49.9042 -49.8987
   -49.8983 -49.8880 -49.8869 -49.8864 -49.8808 -49.8781 -49.8778 -49.8775
   -49.8775 -49.8758 -49.8695 -49.8679 -49.8675 -49.8610 -49.8606 -49.8271
   -49.8270 -49.8265 -49.8264 -49.8254 -49.8251 -49.8248 -49.8245 -49.8237
   -20.4295 -20.4257 -20.4255 -20.4176 -20.3675 -20.3660 -20.3630 -20.2066
   -20.1935 -20.1930 -20.1868 -20.1846 -20.1806 -20.1781 -20.1724 -20.1709
   -20.1707 -20.1545 -20.1465 -20.1380 -20.1335 -20.1260 -20.1252 -20.1201
   -20.1178 -20.0867 -20.0812 -20.0703 -20.0643 -20.0548 -20.0249 -20.0236
   -19.9906 -19.9884 -19.9465 -19.9441 -19.9147 -19.9124 -19.9049 -19.9019
   -19.8729 -19.8362 -19.8353 -19.8245 -19.8233 -19.8227 -19.8203 -19.8183
   -19.8174 -19.8168 -19.8132 -19.8113 -19.8049 -19.8024 -19.8021 -19.8018
   -19.8016 -19.8002 -19.7986 -19.7857 -19.7847 -19.6836 -19.6773 -19.6540
   -19.6520 -19.6433 -19.6370 -19.6230 -19.6225 -19.6207 -19.6169 -19.6144
   -19.6097 -19.6091 -19.6056 -19.6048 -19.6032 -19.6014 -19.5972 -19.5906
   -19.5905 -19.5903 -19.5903 -19.5893 -19.5880 -19.5861 -19.5845 -19.5833
   -19.5814 -19.5787 -19.5725 -19.5603 -19.5556 -19.4762 -19.4580 -19.4558
    15.3175  16.8525  16.8655  16.8698  17.1156  17.1507  17.1507  17.1681
    17.1824  17.3057  17.3287  17.3345  17.5305  17.5478  17.6841  17.7081
    17.7249  18.0898  18.0928  18.2346  18.2434  18.2606  18.2661  18.2691
    18.4634  18.5458  18.5614  18.5689  18.5699  18.6202  18.6344  18.6371
    18.8076  18.8225  18.8230  18.8280  18.8481  18.8513  18.9135  18.9343
    18.9783  18.9795  19.0784  19.3527  19.3647  19.3663  19.3802  19.4163
    19.4302  19.4356  19.4505  19.4934  19.5105  19.5881  19.5894  19.6289
    19.6929  19.7001  19.7228  19.7292  19.8224  19.8292  19.8414  19.8559
    19.8627  19.8685  19.8717  19.8800  19.8853  20.1200  20.1244  20.1454
    20.1482  20.1678  20.2225  20.2674  20.2681  20.3168  20.3541  20.4036
    20.4053  20.4075  20.4117  20.4327  20.4379  20.4535  20.5008  20.5537
    21.2044  21.2344  21.3303  21.3654  21.4576  21.4681  21.5778  21.5785
    21.6085  21.7065  21.7218  21.7359  21.8823  21.8878  21.8958  21.9185
    21.9269  21.9651  21.9741  22.0081  22.0579  22.0769  22.3777  22.3983
    22.3984  22.4064  22.4115  22.4324  22.5221  22.5327  22.5367  22.5485
    22.6576  22.6743  22.6882  22.6916  22.7652  22.7771  22.7894  22.7962
    22.8288  22.8496  22.9901  22.9916  23.0066  23.0531  23.0692  23.1390
    23.1709  23.1838  23.1885  23.2325  23.2415  23.4241  23.4352  23.6520
    23.6803  23.8441  23.8660  23.9124  24.3573  24.3943  24.4836  24.4868
    24.5051  24.5295  24.5888  24.6077  24.6112  24.7980  24.8588  24.9762
    24.9770  25.0121  25.0129  25.0136  25.0933  25.0979  25.1037  25.1104
    25.2880  25.2989  25.5184  26.0290  26.0565  26.4561  26.4846  26.5492
    26.5850  27.0159  27.0164

          k = 0.0553 0.0556 0.2778 ( 30341 PWs)   bands (ev):

   -50.0304 -49.9782 -49.9379 -49.9365 -49.9201 -49.9184 -49.9086 -49.9079
   -49.8953 -49.8945 -49.8874 -49.8864 -49.8824 -49.8780 -49.8778 -49.8776
   -49.8775 -49.8743 -49.8700 -49.8583 -49.8577 -49.8530 -49.8522 -49.8336
   -49.8300 -49.8294 -49.8287 -49.8278 -49.8268 -49.8257 -49.8243 -49.8238
   -20.4111 -20.4038 -20.4035 -20.3919 -20.3511 -20.3497 -20.3377 -20.2521
   -20.2378 -20.2372 -20.2167 -20.2166 -20.2165 -20.1897 -20.1846 -20.1837
   -20.1787 -20.1521 -20.1497 -20.1315 -20.1277 -20.1274 -20.1236 -20.1235
   -20.0942 -20.0888 -20.0861 -20.0845 -20.0549 -20.0492 -20.0135 -20.0099
   -19.9849 -19.9820 -19.9783 -19.9765 -19.9440 -19.9425 -19.9401 -19.9388
   -19.8401 -19.8355 -19.8233 -19.8201 -19.8143 -19.8141 -19.8031 -19.8023
   -19.7918 -19.7912 -19.7906 -19.7839 -19.7839 -19.7784 -19.7769 -19.7741
   -19.7739 -19.7571 -19.7477 -19.7474 -19.7411 -19.7138 -19.7064 -19.6684
   -19.6666 -19.6477 -19.6435 -19.6419 -19.6388 -19.6363 -19.6347 -19.6334
   -19.6288 -19.6244 -19.6221 -19.6202 -19.6053 -19.6020 -19.5939 -19.5936
   -19.5909 -19.5903 -19.5902 -19.5901 -19.5880 -19.5825 -19.5801 -19.5791
   -19.5734 -19.5577 -19.5552 -19.5548 -19.5515 -19.5064 -19.4689 -19.4660
    15.4871  16.8064  16.9507  16.9897  16.9942  17.2120  17.2637  17.2638
    17.2975  17.3813  17.4505  17.4576  17.5916  17.6516  17.6674  17.8359
    17.8515  17.8826  17.8868  18.0303  18.1296  18.2295  18.2302  18.2971
    18.3289  18.3516  18.3580  18.3820  18.4581  18.4632  18.5142  18.5315
    18.6242  18.6364  18.6774  18.6811  18.7989  18.8018  18.8729  18.8892
    19.0528  19.0569  19.2470  19.2587  19.3122  19.3168  19.3222  19.3266
    19.3309  19.3397  19.3609  19.3694  19.3833  19.4642  19.4832  19.6249
    19.6343  19.6935  19.7483  19.7592  19.8175  19.8263  19.8623  19.8782
    19.8832  19.8966  19.9495  19.9573  19.9932  20.1654  20.2073  20.2166
    20.2209  20.2412  20.2896  20.3328  20.4706  20.5035  20.5392  20.5404
    20.5448  20.5587  20.5663  20.5909  20.6456  20.6682  20.9334  20.9538
    20.9923  20.9940  21.0188  21.0289  21.2165  21.3279  21.3304  21.3643
    21.3749  21.4370  21.8107  21.8397  21.8505  22.0482  22.0616  22.0646
    22.0735  22.1037  22.1093  22.1804  22.1865  22.2954  22.3107  22.3948
    22.4113  22.5170  22.5259  22.5295  22.5340  22.5382  22.5549  22.5648
    22.6109  22.6220  22.6380  22.6790  22.7067  22.7137  22.8258  22.8888
    22.8966  22.9018  22.9662  22.9706  23.0993  23.2279  23.2920  23.3000
    23.3039  23.3850  23.3936  23.4279  23.4571  23.4684  23.4788  23.6730
    23.7197  23.8314  23.8502  24.0744  24.1016  24.1108  24.2803  24.2808
    24.3156  24.4402  24.4406  24.4558  24.4797  24.5396  24.7479  24.7489
    24.7763  24.7779  24.8143  25.0900  25.0956  25.1051  25.1089  25.2525
    25.5257  25.5456  25.7214  25.7257  25.9263  26.0257  26.0545  26.0722
    26.3665  26.9013  26.9019

          k = 0.0553 0.0556 0.3889 ( 30313 PWs)   bands (ev):

   -50.0210 -49.9945 -49.9326 -49.9314 -49.9177 -49.9169 -49.9156 -49.9141
   -49.9030 -49.9019 -49.8865 -49.8839 -49.8779 -49.8777 -49.8777 -49.8775
   -49.8729 -49.8708 -49.8699 -49.8494 -49.8486 -49.8456 -49.8446 -49.8431
   -49.8351 -49.8339 -49.8336 -49.8322 -49.8266 -49.8260 -49.8241 -49.8239
   -20.3825 -20.3721 -20.3716 -20.3568 -20.3271 -20.3259 -20.3004 -20.3003
   -20.2861 -20.2855 -20.2659 -20.2589 -20.2583 -20.1941 -20.1878 -20.1842
   -20.1740 -20.1707 -20.1663 -20.1660 -20.1412 -20.1401 -20.1039 -20.0965
   -20.0747 -20.0706 -20.0580 -20.0505 -20.0424 -20.0373 -20.0338 -20.0286
   -20.0200 -20.0166 -19.9802 -19.9771 -19.9749 -19.9728 -19.9352 -19.9329
   -19.8647 -19.8613 -19.8191 -19.8160 -19.8113 -19.8054 -19.7864 -19.7765
   -19.7694 -19.7480 -19.7475 -19.7455 -19.7450 -19.7423 -19.7418 -19.7415
   -19.7415 -19.7401 -19.7332 -19.7128 -19.7126 -19.7118 -19.6893 -19.6878
   -19.6768 -19.6762 -19.6726 -19.6718 -19.6714 -19.6690 -19.6564 -19.6552
   -19.6540 -19.6532 -19.6326 -19.6124 -19.6102 -19.6005 -19.5962 -19.5902
   -19.5901 -19.5898 -19.5888 -19.5873 -19.5856 -19.5780 -19.5772 -19.5762
   -19.5746 -19.5567 -19.5542 -19.5497 -19.5298 -19.5272 -19.4848 -19.4820
    15.7342  16.4149  17.0895  17.1679  17.1726  17.3644  17.4312  17.4314
    17.4345  17.4798  17.4935  17.6319  17.6363  17.6409  17.6410  17.8205
    17.8225  17.8276  17.8362  17.9190  17.9195  17.9869  18.0171  18.0308
    18.1662  18.1803  18.2490  18.2571  18.4573  18.4686  18.4745  18.4764
    18.5242  18.5455  18.7210  18.7222  18.7391  18.7465  18.9626  18.9663
    18.9696  18.9768  19.0602  19.0652  19.2059  19.2109  19.2450  19.2511
    19.2864  19.3039  19.3440  19.3585  19.3688  19.3699  19.6076  19.6167
    19.6344  19.6662  19.6730  19.7931  19.8790  19.8860  19.9029  19.9066
    19.9129  19.9247  20.0426  20.0931  20.1106  20.1190  20.1218  20.1318
    20.1422  20.2685  20.3173  20.3244  20.5954  20.6485  20.6630  20.6742
    20.6810  20.6814  20.6939  20.6960  20.7308  20.7826  20.9753  20.9812
    21.0091  21.0597  21.1117  21.1401  21.1465  21.1552  21.1590  21.1825
    21.6186  21.6590  21.9677  21.9733  21.9875  22.0383  22.0456  22.1586
    22.1634  22.1653  22.2164  22.2370  22.2395  22.2788  22.2835  22.3139
    22.3214  22.3644  22.3694  22.3738  22.3848  22.4489  22.4854  22.4923
    22.5289  22.5318  22.5472  22.5548  22.6370  22.6420  22.8555  22.8597
    22.9584  22.9684  23.0146  23.1212  23.1628  23.3102  23.3145  23.4382
    23.6232  23.6272  23.6333  23.7356  23.7440  23.7444  23.7824  23.7853
    24.0038  24.0051  24.0077  24.0643  24.1536  24.1606  24.1650  24.2177
    24.2288  24.2339  24.2755  24.2817  24.4459  24.4520  24.4665  24.4695
    24.5090  24.5124  24.5852  25.0357  25.0476  25.0902  25.0934  25.1062
    25.1080  25.2775  25.5021  25.5235  25.6217  26.1244  26.1257  26.1844
    26.5586  26.7187  26.7193

          k = 0.0553 0.0556-0.5000 ( 30306 PWs)   bands (ev):

   -50.0090 -50.0089 -49.9259 -49.9258 -49.9248 -49.9247 -49.9099 -49.9098
   -49.9086 -49.9085 -49.8853 -49.8853 -49.8779 -49.8778 -49.8776 -49.8776
   -49.8718 -49.8717 -49.8553 -49.8553 -49.8416 -49.8416 -49.8406 -49.8406
   -49.8391 -49.8391 -49.8379 -49.8378 -49.8263 -49.8263 -49.8240 -49.8239
   -20.3449 -20.3448 -20.3321 -20.3320 -20.3315 -20.3315 -20.3140 -20.3139
   -20.2961 -20.2960 -20.2951 -20.2951 -20.2520 -20.2520 -20.1795 -20.1795
   -20.1777 -20.1777 -20.1588 -20.1588 -20.1575 -20.1575 -20.0735 -20.0734
   -20.0671 -20.0670 -20.0505 -20.0504 -20.0467 -20.0466 -20.0192 -20.0192
   -20.0127 -20.0126 -20.0078 -20.0077 -20.0029 -20.0029 -19.8969 -19.8968
   -19.8941 -19.8941 -19.8177 -19.8176 -19.8083 -19.8083 -19.7660 -19.7659
   -19.7568 -19.7567 -19.7175 -19.7175 -19.7162 -19.7161 -19.7151 -19.7150
   -19.7110 -19.7109 -19.7090 -19.7090 -19.7087 -19.7087 -19.7052 -19.7052
   -19.6947 -19.6947 -19.6945 -19.6945 -19.6822 -19.6821 -19.6815 -19.6814
   -19.6690 -19.6690 -19.6046 -19.6045 -19.5986 -19.5985 -19.5972 -19.5972
   -19.5971 -19.5971 -19.5902 -19.5901 -19.5894 -19.5893 -19.5762 -19.5761
   -19.5641 -19.5641 -19.5633 -19.5633 -19.5054 -19.5053 -19.5027 -19.5026
    16.0487  16.0491  17.2571  17.2573  17.3891  17.3893  17.3939  17.3941
    17.5706  17.5706  17.6405  17.6407  17.6509  17.6509  17.6512  17.6512
    17.7114  17.7114  17.8712  17.8713  17.8825  17.8826  18.0285  18.0288
    18.0396  18.0398  18.2362  18.2365  18.2474  18.2476  18.5988  18.5989
    18.6080  18.6081  18.7335  18.7337  18.7502  18.7504  18.8877  18.8879
    18.8892  18.8893  19.0819  19.0820  19.0850  19.0852  19.2860  19.2861
    19.3081  19.3082  19.3142  19.3143  19.3181  19.3182  19.6187  19.6187
    19.6206  19.6206  19.8873  19.8874  19.8881  19.8883  19.9101  19.9103
    19.9137  19.9139  20.0164  20.0165  20.0327  20.0328  20.1848  20.1849
    20.3662  20.3662  20.3796  20.3796  20.4722  20.4723  20.4827  20.4827
    20.7659  20.7660  20.8319  20.8319  20.8522  20.8522  20.8877  20.8878
    20.9155  20.9156  20.9627  20.9629  21.6162  21.6162  21.6177  21.6178
    21.6231  21.6232  21.6537  21.6537  22.0230  22.0231  22.0235  22.0236
    22.2219  22.2220  22.2796  22.2796  22.3233  22.3233  22.3338  22.3339
    22.3383  22.3384  22.4090  22.4091  22.4143  22.4144  22.4265  22.4266
    22.4272  22.4273  22.4883  22.4884  22.4941  22.4942  22.7407  22.7408
    22.7411  22.7413  23.0506  23.0507  23.6698  23.6699  23.6728  23.6729
    23.6877  23.6878  23.7663  23.7663  23.9402  23.9403  23.9486  23.9487
    23.9890  23.9890  24.0277  24.0278  24.1020  24.1021  24.1125  24.1126
    24.1209  24.1210  24.1280  24.1280  24.3948  24.3948  24.5716  24.5716
    24.5748  24.5748  24.6133  24.6135  24.9888  24.9888  25.0020  25.0020
    25.0915  25.0916  25.1071  25.1072  25.9356  25.9357  26.4606  26.4606
    26.4608  26.4608  26.9501

          k = 0.0553 0.1667 0.1667 ( 30368 PWs)   bands (ev):

   -50.0337 -49.9584 -49.9584 -49.9398 -49.9217 -49.9100 -49.9030 -49.9030
   -49.8981 -49.8981 -49.8866 -49.8866 -49.8841 -49.8792 -49.8748 -49.8747
   -49.8741 -49.8741 -49.8678 -49.8678 -49.8611 -49.8611 -49.8542 -49.8271
   -49.8270 -49.8270 -49.8266 -49.8265 -49.8265 -49.8265 -49.8265 -49.8264
   -20.4225 -20.4225 -20.4106 -20.3987 -20.3578 -20.3554 -20.3554 -20.2135
   -20.2135 -20.2074 -20.2074 -20.1827 -20.1766 -20.1766 -20.1762 -20.1762
   -20.1731 -20.1731 -20.1646 -20.1645 -20.1476 -20.1476 -20.1447 -20.1447
   -20.0912 -20.0640 -20.0640 -20.0631 -20.0631 -20.0394 -20.0394 -20.0174
   -20.0173 -20.0015 -19.9851 -19.9291 -19.9099 -19.9098 -19.8737 -19.8737
   -19.8601 -19.8601 -19.8387 -19.8387 -19.8342 -19.8186 -19.8186 -19.8072
   -19.8071 -19.8059 -19.8059 -19.7987 -19.7987 -19.7981 -19.7981 -19.7944
   -19.7886 -19.7886 -19.7618 -19.7618 -19.7472 -19.6853 -19.6853 -19.6760
   -19.6760 -19.6466 -19.6409 -19.6308 -19.6220 -19.6220 -19.6177 -19.6176
   -19.6139 -19.6139 -19.6113 -19.6112 -19.6076 -19.6076 -19.6021 -19.5983
   -19.5983 -19.5915 -19.5914 -19.5883 -19.5851 -19.5837 -19.5837 -19.5803
   -19.5766 -19.5766 -19.5612 -19.5612 -19.5391 -19.4980 -19.4632 -19.4546
    15.4022  16.9164  16.9164  16.9274  17.1357  17.1881  17.2397  17.2397
    17.2431  17.2432  17.3662  17.3662  17.4003  17.5781  17.7517  17.7519
    17.7554  18.1244  18.1245  18.1493  18.1494  18.2923  18.2923  18.3097
    18.3098  18.3507  18.3507  18.4280  18.4940  18.4940  18.6008  18.6561
    18.6562  18.6751  18.6752  18.7006  18.8541  18.9293  18.9294  18.9571
    18.9571  18.9712  18.9712  19.1028  19.1028  19.3172  19.3172  19.4074
    19.4074  19.4274  19.4986  19.4986  19.5353  19.5353  19.5830  19.5830
    19.6081  19.7892  19.7893  19.7969  19.7969  19.8830  19.8830  19.9466
    19.9467  19.9778  20.0639  20.0639  20.1908  20.1909  20.2024  20.2025
    20.2333  20.2334  20.2411  20.3437  20.3444  20.3528  20.3528  20.3773
    20.3963  20.3964  20.4684  20.4892  20.4892  20.5136  20.5423  20.5733
    21.0693  21.1670  21.2291  21.2291  21.4775  21.4776  21.6554  21.6555
    21.6592  21.6664  21.6665  21.7324  21.7324  21.7470  21.7470  21.7724
    21.7724  21.9531  22.0028  22.0987  22.0987  22.1291  22.1291  22.1871
    22.2694  22.5238  22.5238  22.6455  22.6517  22.6517  22.6755  22.6755
    22.7194  22.7194  22.7724  22.7863  22.7863  22.8014  22.8607  22.8608
    22.9258  22.9258  22.9553  22.9983  22.9983  23.0882  23.1825  23.2369
    23.2369  23.2676  23.2676  23.3575  23.3575  23.3604  23.4734  23.4734
    23.7080  23.8990  24.0314  24.0542  24.0542  24.2161  24.2161  24.3699
    24.4771  24.4771  24.5274  24.6277  24.6355  24.6355  24.6443  24.9071
    24.9071  24.9755  24.9755  24.9780  24.9780  24.9902  24.9903  25.0500
    25.2543  25.5526  25.8730  25.8730  25.9714  25.9714  26.4949  26.4949
    27.0497  27.0497  27.1485

          k = 0.0553 0.1667 0.2778 ( 30330 PWs)   bands (ev):

   -50.0273 -49.9759 -49.9543 -49.9362 -49.9212 -49.9187 -49.9077 -49.9006
   -49.8969 -49.8947 -49.8873 -49.8859 -49.8854 -49.8812 -49.8809 -49.8726
   -49.8711 -49.8683 -49.8635 -49.8622 -49.8582 -49.8531 -49.8478 -49.8334
   -49.8306 -49.8300 -49.8295 -49.8288 -49.8270 -49.8268 -49.8266 -49.8266
   -20.4082 -20.4047 -20.3854 -20.3696 -20.3416 -20.3404 -20.3315 -20.2596
   -20.2510 -20.2182 -20.2154 -20.2137 -20.2136 -20.2094 -20.1905 -20.1880
   -20.1852 -20.1725 -20.1703 -20.1630 -20.1623 -20.1530 -20.1478 -20.1330
   -20.1116 -20.0803 -20.0628 -20.0511 -20.0496 -20.0363 -20.0248 -20.0235
   -20.0031 -19.9962 -19.9713 -19.9583 -19.9450 -19.9101 -19.8958 -19.8734
   -19.8569 -19.8564 -19.8341 -19.8262 -19.8199 -19.8086 -19.8081 -19.8072
   -19.7953 -19.7952 -19.7902 -19.7829 -19.7699 -19.7672 -19.7655 -19.7647
   -19.7626 -19.7588 -19.7269 -19.7247 -19.7154 -19.7113 -19.7070 -19.7001
   -19.6638 -19.6575 -19.6506 -19.6505 -19.6460 -19.6430 -19.6421 -19.6409
   -19.6293 -19.6239 -19.6200 -19.6145 -19.6128 -19.6116 -19.6047 -19.6039
   -19.6032 -19.5962 -19.5941 -19.5898 -19.5845 -19.5835 -19.5774 -19.5630
   -19.5618 -19.5604 -19.5567 -19.5453 -19.5320 -19.5299 -19.4740 -19.4603
    15.5690  16.8694  17.0151  17.0405  17.0412  17.2112  17.2801  17.3610
    17.3645  17.3807  17.4406  17.4867  17.5301  17.6596  17.6684  17.8449
    17.8837  17.9044  17.9405  18.0396  18.0786  18.1639  18.1831  18.2007
    18.2245  18.2667  18.3421  18.3701  18.3849  18.3867  18.3966  18.4059
    18.5370  18.5681  18.5889  18.6832  18.7108  18.7873  18.7953  18.9467
    18.9599  19.0075  19.0290  19.1488  19.1647  19.2293  19.2467  19.2768
    19.2859  19.3361  19.3777  19.3993  19.4843  19.5131  19.5322  19.6072
    19.6209  19.6587  19.7703  19.8861  19.9190  19.9582  19.9734  20.0137
    20.0633  20.0943  20.0989  20.1037  20.2007  20.2024  20.2042  20.2323
    20.2706  20.3405  20.3414  20.3762  20.4059  20.4626  20.5016  20.5323
    20.6013  20.6071  20.6190  20.6265  20.6511  20.6518  20.8636  20.9089
    20.9176  20.9672  20.9992  21.2140  21.2226  21.2412  21.3927  21.4395
    21.5033  21.5161  21.5634  21.7035  21.7286  21.7796  21.8685  21.9394
    21.9706  21.9946  22.0637  22.1018  22.1575  22.1615  22.2519  22.3359
    22.3661  22.4308  22.4374  22.4842  22.4887  22.5122  22.6272  22.6430
    22.6471  22.6517  22.7507  22.7626  22.8331  22.8501  22.9389  22.9466
    22.9730  22.9953  23.0034  23.1722  23.2703  23.2763  23.2947  23.3094
    23.3539  23.4782  23.5453  23.5662  23.5730  23.5851  23.5937  23.6208
    23.6289  23.7049  23.8308  23.9327  24.0768  24.1855  24.2824  24.3091
    24.3156  24.3855  24.4226  24.5185  24.5600  24.5657  24.7148  24.7158
    24.7486  24.7525  24.8087  24.8742  24.9751  24.9796  24.9822  25.0135
    25.0695  25.4394  25.4699  25.8558  25.9733  26.2980  26.3846  26.4811
    26.5336  26.6057  27.4803

          k = 0.0553 0.1667 0.3889 ( 30317 PWs)   bands (ev):

   -50.0181 -49.9919 -49.9483 -49.9315 -49.9311 -49.9166 -49.9143 -49.9022
   -49.8971 -49.8952 -49.8902 -49.8872 -49.8850 -49.8824 -49.8713 -49.8692
   -49.8691 -49.8683 -49.8638 -49.8532 -49.8494 -49.8457 -49.8428 -49.8419
   -49.8365 -49.8351 -49.8337 -49.8322 -49.8269 -49.8268 -49.8267 -49.8266
   -20.3832 -20.3770 -20.3511 -20.3316 -20.3185 -20.3179 -20.3066 -20.2973
   -20.2963 -20.2629 -20.2565 -20.2508 -20.2375 -20.2125 -20.2074 -20.1977
   -20.1958 -20.1934 -20.1898 -20.1802 -20.1576 -20.1441 -20.1406 -20.1185
   -20.1010 -20.0830 -20.0743 -20.0572 -20.0543 -20.0304 -20.0079 -20.0073
   -19.9949 -19.9831 -19.9775 -19.9553 -19.9449 -19.9287 -19.9285 -19.9158
   -19.8849 -19.8586 -19.8093 -19.8090 -19.7989 -19.7920 -19.7904 -19.7888
   -19.7827 -19.7797 -19.7742 -19.7510 -19.7436 -19.7388 -19.7373 -19.7365
   -19.7350 -19.7299 -19.7218 -19.7154 -19.6950 -19.6948 -19.6931 -19.6841
   -19.6795 -19.6781 -19.6773 -19.6764 -19.6757 -19.6743 -19.6737 -19.6487
   -19.6425 -19.6399 -19.6240 -19.6207 -19.6170 -19.6157 -19.6140 -19.6111
   -19.6089 -19.6064 -19.5891 -19.5886 -19.5856 -19.5804 -19.5770 -19.5730
   -19.5656 -19.5589 -19.5447 -19.5345 -19.5280 -19.5169 -19.4899 -19.4732
    15.8121  16.4826  17.1547  17.2051  17.2203  17.3416  17.4258  17.5018
    17.5287  17.5406  17.5509  17.5705  17.6544  17.6662  17.6918  17.7204
    17.7599  17.7920  17.8710  17.8726  17.9646  17.9670  18.0344  18.0723
    18.0756  18.0839  18.1940  18.2537  18.2574  18.2611  18.4378  18.4531
    18.5073  18.5261  18.5557  18.5709  18.6863  18.8756  18.8945  18.9053
    18.9133  19.0029  19.0266  19.0835  19.0923  19.1182  19.1472  19.1511
    19.1871  19.2110  19.3475  19.3479  19.3640  19.4610  19.6247  19.6295
    19.6432  19.7103  19.9016  19.9116  19.9664  19.9687  19.9938  20.0142
    20.0340  20.0692  20.1022  20.1415  20.1430  20.1590  20.2048  20.2066
    20.3195  20.3232  20.3409  20.5499  20.6276  20.6320  20.6505  20.7256
    20.7525  20.7697  20.7839  20.7900  20.8053  20.8126  20.8186  20.8566
    20.9337  21.0244  21.0737  21.0866  21.1767  21.1819  21.2645  21.2885
    21.5270  21.5725  21.6590  21.7297  21.7473  21.8033  21.8995  21.9543
    21.9651  21.9962  22.0567  22.0593  22.0762  22.0799  22.1344  22.2012
    22.2749  22.3289  22.4174  22.4647  22.4655  22.5321  22.5632  22.5796
    22.6015  22.6891  22.7294  22.7517  22.8479  22.8515  22.8676  22.9303
    23.0000  23.0359  23.1624  23.2135  23.2653  23.2678  23.3457  23.3522
    23.5542  23.5548  23.6271  23.7252  23.8383  23.8554  23.8763  23.8828
    23.9042  23.9160  23.9265  24.0188  24.0266  24.1018  24.1155  24.1972
    24.2769  24.4002  24.4032  24.4453  24.4587  24.4659  24.4664  24.4669
    24.5939  24.6111  24.6955  24.9298  24.9750  24.9778  24.9819  24.9822
    24.9959  25.1765  25.4514  25.6822  25.7209  25.9044  26.0481  26.2165
    26.7089  27.0328  27.3089

          k = 0.0553 0.1667-0.5000 ( 30322 PWs)   bands (ev):

   -50.0062 -50.0061 -49.9407 -49.9406 -49.9245 -49.9245 -49.9088 -49.9088
   -49.8929 -49.8929 -49.8926 -49.8926 -49.8838 -49.8838 -49.8701 -49.8700
   -49.8659 -49.8658 -49.8549 -49.8548 -49.8442 -49.8441 -49.8417 -49.8416
   -49.8392 -49.8391 -49.8367 -49.8366 -49.8268 -49.8268 -49.8267 -49.8267
   -20.3489 -20.3488 -20.3405 -20.3405 -20.3095 -20.3094 -20.2903 -20.2902
   -20.2874 -20.2873 -20.2867 -20.2867 -20.2507 -20.2506 -20.2043 -20.2043
   -20.1982 -20.1982 -20.1958 -20.1958 -20.1423 -20.1423 -20.1231 -20.1230
   -20.0866 -20.0865 -20.0816 -20.0815 -20.0346 -20.0346 -20.0062 -20.0062
   -19.9776 -19.9775 -19.9615 -19.9614 -19.9581 -19.9580 -19.9179 -19.9178
   -19.8906 -19.8905 -19.8094 -19.8094 -19.7896 -19.7896 -19.7690 -19.7689
   -19.7594 -19.7594 -19.7497 -19.7496 -19.7433 -19.7433 -19.7240 -19.7240
   -19.7148 -19.7148 -19.7068 -19.7068 -19.7051 -19.7051 -19.7051 -19.7051
   -19.7008 -19.7008 -19.6745 -19.6745 -19.6664 -19.6663 -19.6487 -19.6486
   -19.6465 -19.6465 -19.6336 -19.6336 -19.6319 -19.6318 -19.6133 -19.6132
   -19.6090 -19.6089 -19.5998 -19.5998 -19.5870 -19.5870 -19.5690 -19.5689
   -19.5673 -19.5673 -19.5333 -19.5333 -19.5103 -19.5102 -19.4925 -19.4925
    16.1217  16.1220  17.3232  17.3234  17.4138  17.4139  17.4428  17.4430
    17.5254  17.5255  17.6236  17.6236  17.6956  17.6958  17.7348  17.7351
    17.7652  17.7652  17.8046  17.8046  17.9027  17.9029  17.9353  17.9355
    17.9653  17.9654  18.1083  18.1085  18.3038  18.3040  18.3518  18.3518
    18.6260  18.6261  18.6545  18.6547  18.6982  18.6983  18.7802  18.7804
    19.0306  19.0306  19.0548  19.0550  19.0914  19.0914  19.1209  19.1210
    19.2142  19.2143  19.2593  19.2594  19.2808  19.2810  19.7618  19.7619
    19.8136  19.8137  19.8339  19.8340  19.8886  19.8887  19.9301  19.9301
    20.0709  20.0710  20.1019  20.1020  20.2721  20.2722  20.2852  20.2854
    20.3645  20.3646  20.4237  20.4237  20.4649  20.4650  20.6565  20.6566
    20.7781  20.7781  20.8813  20.8813  20.9125  20.9126  20.9599  20.9600
    20.9620  20.9622  20.9959  20.9960  21.4264  21.4264  21.4684  21.4685
    21.5007  21.5008  21.5511  21.5511  21.7377  21.7378  21.7399  21.7400
    21.9978  21.9979  22.1743  22.1743  22.1890  22.1891  22.2038  22.2038
    22.2551  22.2552  22.2991  22.2992  22.3625  22.3626  22.4751  22.4752
    22.6640  22.6641  22.6937  22.6938  22.7916  22.7917  23.0351  23.0353
    23.0906  23.0907  23.1011  23.1013  23.1587  23.1588  23.6106  23.6107
    23.6970  23.6971  23.7011  23.7011  23.9084  23.9084  23.9698  23.9698
    24.0956  24.0957  24.1565  24.1566  24.1626  24.1627  24.1821  24.1821
    24.1836  24.1837  24.1907  24.1907  24.1913  24.1913  24.3727  24.3728
    24.5200  24.5200  24.9385  24.9385  24.9757  24.9758  24.9869  24.9870
    25.2592  25.2593  25.4530  25.4532  25.4839  25.4839  25.9917  25.9918
    27.0527  27.0529  27.4777

          k = 0.0553 0.2778 0.2778 ( 30310 PWs)   bands (ev):

   -50.0212 -49.9713 -49.9712 -49.9339 -49.9329 -49.9159 -49.9060 -49.9060
   -49.8935 -49.8935 -49.8920 -49.8840 -49.8836 -49.8836 -49.8686 -49.8686
   -49.8680 -49.8680 -49.8593 -49.8593 -49.8547 -49.8547 -49.8428 -49.8333
   -49.8332 -49.8327 -49.8326 -49.8312 -49.8312 -49.8283 -49.8283 -49.8270
   -20.3946 -20.3946 -20.3578 -20.3377 -20.3256 -20.3193 -20.3193 -20.2596
   -20.2596 -20.2558 -20.2558 -20.2195 -20.2195 -20.1958 -20.1957 -20.1947
   -20.1947 -20.1876 -20.1875 -20.1864 -20.1864 -20.1577 -20.1535 -20.1534
   -20.1425 -20.1425 -20.0608 -20.0511 -20.0254 -20.0254 -20.0103 -20.0103
   -20.0037 -19.9901 -19.9579 -19.9579 -19.8892 -19.8892 -19.8845 -19.8618
   -19.8618 -19.8543 -19.8543 -19.8223 -19.8223 -19.8036 -19.8036 -19.7962
   -19.7961 -19.7870 -19.7870 -19.7790 -19.7670 -19.7670 -19.7490 -19.7490
   -19.7304 -19.7304 -19.7289 -19.7289 -19.6974 -19.6974 -19.6943 -19.6943
   -19.6769 -19.6769 -19.6768 -19.6648 -19.6476 -19.6476 -19.6470 -19.6427
   -19.6427 -19.6395 -19.6395 -19.6346 -19.6146 -19.6146 -19.6130 -19.6070
   -19.6066 -19.5962 -19.5860 -19.5854 -19.5854 -19.5831 -19.5744 -19.5744
   -19.5705 -19.5597 -19.5597 -19.5296 -19.5296 -19.5153 -19.4851 -19.4598
    15.7303  16.9925  16.9927  17.1343  17.1409  17.1410  17.2618  17.3467
    17.5121  17.5122  17.5587  17.5587  17.6702  17.7016  17.7925  17.7926
    17.8671  17.9230  17.9421  17.9422  17.9568  17.9568  18.0538  18.0539
    18.0953  18.0953  18.1750  18.1750  18.3742  18.4536  18.4537  18.4690
    18.4691  18.4944  18.4945  18.5821  18.5821  18.6990  18.6990  18.7637
    18.7637  18.8752  19.0242  19.0242  19.0903  19.0933  19.0934  19.3397
    19.3398  19.3583  19.3584  19.4070  19.4070  19.4107  19.4506  19.7915
    19.7915  19.9237  19.9237  19.9698  19.9699  20.0477  20.0477  20.0903
    20.0904  20.1017  20.1018  20.1749  20.2015  20.2650  20.2650  20.3305
    20.3347  20.4218  20.4218  20.5755  20.5755  20.6211  20.6321  20.6962
    20.6985  20.6987  20.7234  20.7235  20.7396  20.7532  20.7577  20.7577
    20.9140  20.9141  21.0498  21.0498  21.2993  21.2993  21.4401  21.4402
    21.4925  21.4926  21.5951  21.5952  21.6275  21.6959  21.6959  21.7060
    21.7331  21.7331  21.9296  21.9620  22.0750  22.0931  22.0931  22.1069
    22.1069  22.2255  22.2997  22.4236  22.4236  22.5957  22.5958  22.6031
    22.8400  22.8802  22.8802  23.0011  23.0011  23.0376  23.0376  23.1019
    23.1339  23.1409  23.1409  23.2528  23.2528  23.3326  23.3326  23.3457
    23.3457  23.3820  23.3821  23.6534  23.6797  23.6797  23.7494  23.8363
    23.8363  23.8443  23.8603  23.8603  24.0138  24.0683  24.2332  24.2333
    24.4250  24.5757  24.5757  24.5830  24.5875  24.6043  24.6043  24.6230
    24.7507  24.7507  24.7600  24.7600  24.7874  24.7874  24.8276  24.8276
    24.9114  25.2709  25.3594  25.3594  25.8693  25.8693  26.9306  26.9306
    27.2113  27.2700  27.2700

          k = 0.0553 0.2778 0.3889 ( 30328 PWs)   bands (ev):

   -50.0122 -49.9868 -49.9645 -49.9455 -49.9280 -49.9144 -49.9119 -49.9034
   -49.9005 -49.8963 -49.8918 -49.8869 -49.8808 -49.8732 -49.8679 -49.8653
   -49.8639 -49.8609 -49.8571 -49.8569 -49.8510 -49.8478 -49.8423 -49.8383
   -49.8379 -49.8375 -49.8367 -49.8328 -49.8318 -49.8310 -49.8279 -49.8272
   -20.3740 -20.3712 -20.3219 -20.3045 -20.3022 -20.3015 -20.2994 -20.2977
   -20.2882 -20.2522 -20.2522 -20.2509 -20.2362 -20.2335 -20.2208 -20.2187
   -20.2183 -20.2034 -20.2022 -20.1988 -20.1782 -20.1766 -20.1551 -20.1545
   -20.1463 -20.1141 -20.0858 -20.0842 -20.0560 -20.0295 -19.9874 -19.9819
   -19.9719 -19.9532 -19.9387 -19.9212 -19.9161 -19.9157 -19.8979 -19.8861
   -19.8506 -19.8466 -19.8300 -19.8158 -19.8093 -19.8054 -19.7951 -19.7905
   -19.7786 -19.7713 -19.7659 -19.7587 -19.7574 -19.7529 -19.7370 -19.7366
   -19.7285 -19.7259 -19.7247 -19.7210 -19.7136 -19.7016 -19.6916 -19.6854
   -19.6846 -19.6844 -19.6692 -19.6689 -19.6667 -19.6589 -19.6581 -19.6581
   -19.6449 -19.6380 -19.6356 -19.6287 -19.6240 -19.6234 -19.6224 -19.6211
   -19.6184 -19.6013 -19.5958 -19.5929 -19.5926 -19.5888 -19.5883 -19.5765
   -19.5640 -19.5633 -19.5466 -19.5163 -19.5082 -19.5030 -19.5012 -19.4670
    15.9655  16.6154  17.1700  17.2761  17.2821  17.3218  17.3638  17.4631
    17.6333  17.6484  17.6654  17.6899  17.6911  17.7029  17.7154  17.7343
    17.7496  17.8000  17.8399  17.8696  17.8800  17.9060  17.9764  17.9834
    18.0042  18.0257  18.1730  18.1876  18.2166  18.2170  18.2494  18.3192
    18.3988  18.4872  18.5458  18.5962  18.6092  18.6200  18.6488  18.6500
    18.7495  18.8533  18.8591  18.9416  18.9766  19.1045  19.1072  19.1420
    19.2355  19.2957  19.4340  19.4406  19.4721  19.4728  19.6541  19.6943
    19.7459  19.7681  19.8321  19.9780  20.0409  20.0666  20.1387  20.1442
    20.1853  20.1940  20.2038  20.2807  20.3273  20.3335  20.3337  20.4713
    20.4821  20.5362  20.5486  20.5593  20.5918  20.5921  20.7258  20.7332
    20.7949  20.8080  20.8240  20.8279  20.8323  20.9153  20.9399  20.9481
    20.9569  21.0155  21.0809  21.0952  21.1867  21.2451  21.2991  21.3919
    21.4359  21.4524  21.4674  21.4762  21.5540  21.5848  21.5928  21.5977
    21.6990  21.7071  21.7294  21.8174  21.9062  21.9522  21.9594  22.0201
    22.1371  22.1387  22.2877  22.3118  22.4632  22.4784  22.5737  22.6033
    22.7841  22.8142  22.8216  22.8825  22.9138  23.0340  23.0869  23.0918
    23.1811  23.1959  23.2598  23.3711  23.3729  23.3860  23.4566  23.5119
    23.5594  23.5672  23.7243  23.7252  23.7257  23.7792  23.9620  24.0008
    24.0111  24.0368  24.0801  24.0851  24.0934  24.1017  24.1085  24.1374
    24.2105  24.3612  24.4198  24.4493  24.4584  24.4597  24.4900  24.4914
    24.4959  24.5444  24.7544  24.7566  24.7709  24.7740  24.8412  24.8766
    25.1973  25.3398  25.3444  25.3528  25.4241  25.7172  26.6258  26.6331
    27.3640  27.5407  27.8810

          k = 0.0553 0.2778-0.5000 ( 30330 PWs)   bands (ev):

   -50.0007 -50.0006 -49.9559 -49.9558 -49.9218 -49.9218 -49.9067 -49.9066
   -49.9002 -49.9002 -49.8896 -49.8895 -49.8774 -49.8773 -49.8629 -49.8629
   -49.8602 -49.8602 -49.8540 -49.8539 -49.8466 -49.8465 -49.8437 -49.8436
   -49.8418 -49.8417 -49.8343 -49.8343 -49.8324 -49.8323 -49.8276 -49.8275
   -20.3434 -20.3434 -20.3389 -20.3388 -20.2796 -20.2796 -20.2785 -20.2785
   -20.2722 -20.2721 -20.2517 -20.2516 -20.2478 -20.2477 -20.2403 -20.2403
   -20.2381 -20.2380 -20.2139 -20.2139 -20.1670 -20.1670 -20.1556 -20.1555
   -20.1200 -20.1199 -20.0812 -20.0812 -20.0719 -20.0719 -19.9522 -19.9521
   -19.9507 -19.9506 -19.9346 -19.9345 -19.9145 -19.9145 -19.9015 -19.9015
   -19.8782 -19.8781 -19.7932 -19.7932 -19.7840 -19.7839 -19.7817 -19.7816
   -19.7729 -19.7729 -19.7671 -19.7671 -19.7586 -19.7586 -19.7558 -19.7558
   -19.7228 -19.7227 -19.7089 -19.7089 -19.6985 -19.6984 -19.6973 -19.6972
   -19.6777 -19.6776 -19.6743 -19.6743 -19.6709 -19.6708 -19.6568 -19.6568
   -19.6426 -19.6425 -19.6317 -19.6317 -19.6303 -19.6302 -19.6267 -19.6267
   -19.6167 -19.6166 -19.6051 -19.6051 -19.5920 -19.5919 -19.5735 -19.5735
   -19.5697 -19.5696 -19.5220 -19.5219 -19.5087 -19.5087 -19.4818 -19.4817
    16.2652  16.2655  17.3924  17.3927  17.4527  17.4528  17.4638  17.4640
    17.5158  17.5159  17.5470  17.5472  17.6281  17.6281  17.8053  17.8055
    17.8100  17.8101  17.9114  17.9114  17.9311  17.9311  17.9604  17.9605
    17.9655  17.9657  18.0946  18.0947  18.1171  18.1172  18.2206  18.2208
    18.4159  18.4161  18.5111  18.5112  18.6209  18.6209  18.7380  18.7382
    18.7451  18.7452  18.8894  18.8895  18.9879  18.9880  19.0388  19.0388
    19.3839  19.3839  19.4666  19.4667  19.5500  19.5500  19.5769  19.5770
    19.6128  19.6129  19.8785  19.8786  20.0930  20.0931  20.2239  20.2241
    20.2403  20.2403  20.3102  20.3104  20.3463  20.3463  20.3639  20.3640
    20.4504  20.4505  20.6223  20.6224  20.7029  20.7031  20.8146  20.8146
    20.8476  20.8476  20.9117  20.9118  20.9262  20.9262  20.9736  20.9737
    21.1094  21.1094  21.1529  21.1530  21.1640  21.1641  21.1703  21.1704
    21.3525  21.3526  21.3615  21.3615  21.4852  21.4853  21.4884  21.4885
    21.7027  21.7028  21.9188  21.9189  22.0474  22.0474  22.0669  22.0670
    22.1102  22.1103  22.1513  22.1513  22.2858  22.2859  22.4620  22.4621
    22.6477  22.6478  22.9633  22.9634  22.9939  22.9940  23.0379  23.0380
    23.1992  23.1993  23.4485  23.4486  23.4937  23.4938  23.6037  23.6038
    23.7042  23.7043  23.7687  23.7687  23.8445  23.8445  23.8464  23.8465
    24.0990  24.0990  24.0995  24.0996  24.2153  24.2154  24.2854  24.2854
    24.2865  24.2865  24.2887  24.2887  24.3271  24.3271  24.3306  24.3306
    24.4201  24.4201  24.7606  24.7607  24.7987  24.7987  24.8416  24.8416
    24.9907  24.9908  25.5285  25.5286  25.9603  25.9604  26.0332  26.0333
    27.7218  27.7219  28.0497

          k = 0.0553 0.3889 0.3889 ( 30304 PWs)   bands (ev):

   -50.0036 -49.9794 -49.9794 -49.9584 -49.9236 -49.9111 -49.9111 -49.9082
   -49.9019 -49.8980 -49.8980 -49.8911 -49.8659 -49.8658 -49.8604 -49.8603
   -49.8598 -49.8598 -49.8533 -49.8533 -49.8510 -49.8510 -49.8416 -49.8415
   -49.8410 -49.8410 -49.8393 -49.8393 -49.8350 -49.8298 -49.8298 -49.8279
   -20.3549 -20.3549 -20.2939 -20.2939 -20.2920 -20.2920 -20.2853 -20.2794
   -20.2762 -20.2762 -20.2565 -20.2506 -20.2506 -20.2412 -20.2412 -20.2151
   -20.2151 -20.2055 -20.2055 -20.2022 -20.2022 -20.1987 -20.1987 -20.1614
   -20.1614 -20.1608 -20.1210 -20.0809 -20.0719 -20.0217 -20.0217 -19.9503
   -19.9343 -19.9343 -19.8973 -19.8973 -19.8972 -19.8628 -19.8628 -19.8475
   -19.8475 -19.8465 -19.8465 -19.8294 -19.8293 -19.7866 -19.7866 -19.7817
   -19.7817 -19.7749 -19.7749 -19.7640 -19.7640 -19.7570 -19.7565 -19.7565
   -19.7400 -19.7399 -19.7185 -19.7185 -19.7076 -19.7076 -19.6983 -19.6957
   -19.6957 -19.6703 -19.6703 -19.6686 -19.6616 -19.6615 -19.6614 -19.6614
   -19.6433 -19.6387 -19.6387 -19.6364 -19.6364 -19.6260 -19.6248 -19.6143
   -19.6058 -19.6013 -19.6008 -19.5976 -19.5976 -19.5897 -19.5880 -19.5698
   -19.5698 -19.5644 -19.5644 -19.5178 -19.4955 -19.4934 -19.4934 -19.4680
    16.1891  16.8080  16.8081  17.3377  17.3917  17.4307  17.4656  17.4656
    17.5428  17.6934  17.6934  17.7134  17.7611  17.7611  17.8226  17.8227
    17.8264  17.8264  17.8355  17.8355  17.8586  17.8753  17.8753  17.9539
    17.9539  18.0222  18.0749  18.1311  18.1311  18.3237  18.3238  18.3314
    18.3315  18.3318  18.3319  18.3320  18.3320  18.5826  18.5826  18.5880
    18.5881  18.6387  18.6387  18.8857  18.8858  19.0342  19.2275  19.2275
    19.2340  19.2340  19.3908  19.5665  19.5665  19.5695  19.5770  19.6546
    19.6546  19.9742  19.9742  19.9810  20.1203  20.2401  20.2402  20.3289
    20.3593  20.3593  20.3682  20.3682  20.3782  20.3782  20.4238  20.4238
    20.4682  20.5143  20.6985  20.6986  20.7927  20.7927  20.8417  20.8423
    20.8457  20.8541  20.8826  20.9522  20.9522  20.9554  21.0172  21.0173
    21.1489  21.1489  21.1630  21.1694  21.1695  21.2126  21.2126  21.2425
    21.3240  21.3241  21.3400  21.3401  21.3924  21.4127  21.4181  21.4181
    21.4543  21.4544  21.6137  21.6476  21.6476  21.6778  21.6779  21.9825
    22.1088  22.1088  22.1473  22.1473  22.2269  22.2270  22.2458  22.3893
    22.6767  22.9727  23.0493  23.0494  23.0718  23.0719  23.3164  23.3165
    23.3490  23.3490  23.4357  23.4357  23.4989  23.4989  23.5741  23.6058
    23.7477  23.7477  23.8496  23.8800  23.8800  23.8956  23.8956  23.9098
    23.9098  23.9985  24.1114  24.1978  24.2363  24.2675  24.2675  24.2716
    24.2716  24.2978  24.3693  24.4344  24.4344  24.4581  24.4581  24.4968
    24.4968  24.5003  24.5008  24.5008  24.5341  24.5342  24.7034  24.7249
    24.7249  25.0562  25.2152  25.2152  26.0052  26.0052  27.2856  27.2856
    27.3563  27.3563  28.0368

          k = 0.0553 0.3889-0.5000 ( 30332 PWs)   bands (ev):

   -49.9926 -49.9925 -49.9699 -49.9698 -49.9179 -49.9179 -49.9069 -49.9069
   -49.9036 -49.9035 -49.8949 -49.8948 -49.8633 -49.8633 -49.8563 -49.8563
   -49.8550 -49.8550 -49.8526 -49.8526 -49.8489 -49.8488 -49.8466 -49.8466
   -49.8456 -49.8455 -49.8405 -49.8404 -49.8322 -49.8321 -49.8288 -49.8287
   -20.3288 -20.3288 -20.3271 -20.3271 -20.2756 -20.2756 -20.2755 -20.2755
   -20.2606 -20.2605 -20.2500 -20.2499 -20.2434 -20.2434 -20.2430 -20.2429
   -20.2264 -20.2264 -20.2103 -20.2102 -20.2048 -20.2047 -20.1888 -20.1887
   -20.1604 -20.1604 -20.1171 -20.1171 -20.0544 -20.0544 -19.9860 -19.9859
   -19.8976 -19.8976 -19.8892 -19.8892 -19.8740 -19.8739 -19.8604 -19.8603
   -19.8410 -19.8410 -19.8114 -19.8113 -19.8075 -19.8074 -19.8070 -19.8070
   -19.7993 -19.7993 -19.7700 -19.7699 -19.7491 -19.7490 -19.7465 -19.7465
   -19.7317 -19.7317 -19.7253 -19.7253 -19.7170 -19.7170 -19.7071 -19.7071
   -19.6860 -19.6860 -19.6856 -19.6855 -19.6526 -19.6525 -19.6514 -19.6513
   -19.6513 -19.6513 -19.6421 -19.6421 -19.6171 -19.6170 -19.6124 -19.6124
   -19.6095 -19.6095 -19.6037 -19.6036 -19.5872 -19.5872 -19.5827 -19.5827
   -19.5784 -19.5783 -19.5391 -19.5390 -19.4906 -19.4906 -19.4770 -19.4770
    16.4742  16.4745  17.0524  17.0527  17.5415  17.5416  17.5540  17.5541
    17.6392  17.6394  17.6644  17.6644  17.6932  17.6933  17.6947  17.6949
    17.8320  17.8320  17.8704  17.8705  17.9683  17.9685  18.0589  18.0591
    18.0599  18.0601  18.0860  18.0860  18.0905  18.0906  18.1397  18.1399
    18.3206  18.3207  18.3348  18.3349  18.4420  18.4422  18.4814  18.4814
    18.5026  18.5027  18.8074  18.8074  19.0200  19.0202  19.0325  19.0327
    19.3796  19.3798  19.3910  19.3911  19.6299  19.6299  19.7046  19.7047
    19.8398  19.8398  19.9034  19.9035  20.0816  20.0818  20.3272  20.3273
    20.3788  20.3789  20.4327  20.4327  20.5450  20.5450  20.5966  20.5966
    20.7151  20.7153  20.7222  20.7222  20.7532  20.7532  20.9008  20.9008
    20.9168  20.9169  20.9195  20.9195  20.9930  20.9930  21.0193  21.0193
    21.0532  21.0532  21.1098  21.1099  21.1126  21.1127  21.1285  21.1285
    21.2774  21.2774  21.2784  21.2785  21.3898  21.3899  21.4135  21.4136
    21.4596  21.4597  21.6022  21.6022  21.8069  21.8070  21.8438  21.8440
    21.8794  21.8794  21.8986  21.8987  22.0759  22.0760  22.2592  22.2593
    22.8766  22.8767  23.1156  23.1157  23.2520  23.2521  23.2905  23.2907
    23.3242  23.3243  23.5426  23.5427  23.6279  23.6281  23.6527  23.6528
    23.7207  23.7207  23.8008  23.8009  23.9168  23.9168  24.0553  24.0554
    24.1145  24.1145  24.2031  24.2031  24.2732  24.2732  24.2801  24.2802
    24.3052  24.3052  24.3750  24.3750  24.3784  24.3785  24.4137  24.4137
    24.4189  24.4189  24.4736  24.4737  24.5374  24.5376  24.6020  24.6020
    24.7117  24.7117  25.0689  25.0690  26.6567  26.6568  26.6612  26.6613
    28.0013  28.0014  28.0726

          k = 0.0553-0.5000-0.5000 ( 30320 PWs)   bands (ev):

   -49.9824 -49.9823 -49.9821 -49.9820 -49.9130 -49.9130 -49.9127 -49.9127
   -49.8997 -49.8997 -49.8995 -49.8994 -49.8512 -49.8511 -49.8511 -49.8510
   -49.8508 -49.8508 -49.8508 -49.8507 -49.8506 -49.8505 -49.8505 -49.8505
   -49.8503 -49.8503 -49.8502 -49.8502 -49.8305 -49.8304 -49.8302 -49.8302
   -20.3058 -20.3058 -20.3058 -20.3058 -20.3058 -20.3057 -20.3057 -20.3057
   -20.2361 -20.2361 -20.2360 -20.2360 -20.2359 -20.2359 -20.2358 -20.2358
   -20.2219 -20.2218 -20.2216 -20.2215 -20.2029 -20.2028 -20.2027 -20.2027
   -20.1645 -20.1644 -20.1644 -20.1643 -20.0213 -20.0213 -20.0213 -20.0213
   -19.8460 -19.8460 -19.8460 -19.8460 -19.8460 -19.8459 -19.8459 -19.8459
   -19.8380 -19.8380 -19.8379 -19.8379 -19.8378 -19.8377 -19.8377 -19.8376
   -19.7817 -19.7817 -19.7817 -19.7817 -19.7409 -19.7409 -19.7408 -19.7408
   -19.7407 -19.7406 -19.7406 -19.7406 -19.7296 -19.7296 -19.7296 -19.7296
   -19.6702 -19.6701 -19.6701 -19.6701 -19.6700 -19.6700 -19.6699 -19.6699
   -19.6356 -19.6356 -19.6355 -19.6354 -19.6161 -19.6161 -19.6161 -19.6161
   -19.5953 -19.5952 -19.5952 -19.5951 -19.5942 -19.5942 -19.5942 -19.5942
   -19.5612 -19.5611 -19.5610 -19.5609 -19.4799 -19.4799 -19.4799 -19.4799
    16.7405  16.7407  16.7408  16.7410  17.6014  17.6015  17.6015  17.6016
    17.6892  17.6893  17.6893  17.6894  17.7325  17.7325  17.7326  17.7326
    17.8730  17.8730  17.8731  17.8731  17.8732  17.8732  17.8734  17.8734
    18.1822  18.1822  18.1823  18.1824  18.1824  18.1824  18.1826  18.1826
    18.2818  18.2818  18.2819  18.2819  18.2819  18.2819  18.2819  18.2819
    18.5580  18.5580  18.5580  18.5581  19.1888  19.1888  19.1889  19.1889
    19.1889  19.1890  19.1891  19.1891  19.7574  19.7575  19.7575  19.7575
    19.9727  19.9728  19.9728  19.9730  20.2497  20.2498  20.2498  20.2500
    20.4565  20.4565  20.4566  20.4566  20.4704  20.4704  20.4705  20.4705
    20.8377  20.8377  20.8377  20.8378  20.8378  20.8378  20.8378  20.8378
    20.9216  20.9216  20.9217  20.9218  21.1142  21.1143  21.1143  21.1144
    21.1186  21.1186  21.1186  21.1187  21.2587  21.2588  21.2589  21.2589
    21.2589  21.2590  21.2590  21.2590  21.2680  21.2680  21.2681  21.2681
    21.4889  21.4890  21.4890  21.4891  21.6367  21.6368  21.6368  21.6368
    21.6368  21.6369  21.6369  21.6369  22.1682  22.1683  22.1684  22.1685
    23.1124  23.1125  23.1126  23.1127  23.2913  23.2913  23.2914  23.2915
    23.5166  23.5167  23.5167  23.5168  23.5168  23.5168  23.5169  23.5169
    24.0285  24.0285  24.0285  24.0286  24.1455  24.1455  24.1455  24.1456
    24.1456  24.1457  24.1457  24.1457  24.1529  24.1530  24.1530  24.1531
    24.3831  24.3831  24.3832  24.3832  24.4278  24.4279  24.4279  24.4279
    24.4279  24.4279  24.4279  24.4279  24.4334  24.4334  24.4334  24.4334
    24.6796  24.6797  24.6797  24.6798  27.3460  27.3460  27.3460  27.3461
    27.3461  27.3462  27.3462

          k = 0.1658 0.0556 0.0556 ( 30335 PWs)   bands (ev):

   -50.0369 -49.9617 -49.9401 -49.9401 -49.9214 -49.9214 -49.9063 -49.8984
   -49.8984 -49.8879 -49.8863 -49.8863 -49.8807 -49.8780 -49.8779 -49.8774
   -49.8774 -49.8759 -49.8696 -49.8681 -49.8681 -49.8608 -49.8608 -49.8303
   -49.8268 -49.8268 -49.8262 -49.8262 -49.8238 -49.8237 -49.8233 -49.8232
   -20.4296 -20.4259 -20.4258 -20.4178 -20.3677 -20.3677 -20.3614 -20.2124
   -20.1995 -20.1995 -20.1800 -20.1800 -20.1791 -20.1771 -20.1771 -20.1755
   -20.1755 -20.1472 -20.1472 -20.1332 -20.1332 -20.1197 -20.1197 -20.1181
   -20.1181 -20.0812 -20.0811 -20.0635 -20.0635 -20.0535 -20.0317 -20.0317
   -19.9897 -19.9897 -19.9453 -19.9453 -19.9137 -19.9137 -19.9026 -19.9026
   -19.8725 -19.8353 -19.8353 -19.8291 -19.8291 -19.8256 -19.8256 -19.8172
   -19.8149 -19.8148 -19.8066 -19.8066 -19.8045 -19.8045 -19.8041 -19.8041
   -19.8016 -19.7983 -19.7971 -19.7869 -19.7869 -19.6757 -19.6743 -19.6591
   -19.6591 -19.6390 -19.6390 -19.6266 -19.6266 -19.6231 -19.6231 -19.6146
   -19.6145 -19.6103 -19.6065 -19.6065 -19.6031 -19.6031 -19.5971 -19.5931
   -19.5854 -19.5848 -19.5848 -19.5843 -19.5843 -19.5834 -19.5834 -19.5833
   -19.5826 -19.5774 -19.5672 -19.5604 -19.5604 -19.4763 -19.4575 -19.4558
    15.3167  16.8559  16.8645  16.8645  17.1154  17.1505  17.1505  17.1657
    17.1679  17.3102  17.3292  17.3292  17.5469  17.5471  17.6691  17.7239
    17.7240  18.0668  18.0669  18.2537  18.2587  18.2587  18.2694  18.2695
    18.4611  18.5625  18.5625  18.5663  18.5663  18.6168  18.6329  18.6330
    18.8186  18.8187  18.8292  18.8292  18.8498  18.8499  18.9244  18.9244
    18.9800  18.9801  19.0504  19.3427  19.3428  19.3903  19.3903  19.4379
    19.4379  19.4527  19.4528  19.5074  19.5074  19.5923  19.5924  19.6140
    19.6996  19.6997  19.7064  19.7064  19.7951  19.8165  19.8166  19.8662
    19.8662  19.8824  19.8824  19.8968  19.8968  20.1269  20.1269  20.1543
    20.1543  20.1764  20.2236  20.2289  20.2729  20.2729  20.3333  20.3645
    20.4237  20.4237  20.4293  20.4494  20.4494  20.4734  20.5470  20.5563
    21.2452  21.2452  21.3727  21.3727  21.4240  21.4909  21.5984  21.5984
    21.6272  21.7017  21.7018  21.7643  21.8802  21.8803  21.8943  21.9132
    21.9133  21.9554  21.9581  21.9582  22.0438  22.0438  22.3747  22.3747
    22.3972  22.3973  22.4038  22.4038  22.5317  22.5318  22.5445  22.5446
    22.6544  22.6544  22.6769  22.6770  22.7239  22.7870  22.7870  22.7923
    22.8517  22.8900  23.0044  23.0044  23.0178  23.0526  23.0526  23.1526
    23.1698  23.1698  23.1916  23.2387  23.2387  23.4256  23.4722  23.6534
    23.6534  23.8437  23.8437  23.9360  24.3671  24.3671  24.4824  24.4824
    24.4844  24.5348  24.5855  24.5878  24.5878  24.7848  24.8808  24.9745
    24.9745  24.9776  24.9776  25.0086  25.1361  25.1361  25.1413  25.1414
    25.3065  25.3066  25.5334  26.0289  26.0290  26.3663  26.5185  26.5497
    26.5497  27.0567  27.0567

          k = 0.1658 0.0556 0.1667 ( 30351 PWs)   bands (ev):

   -50.0337 -49.9596 -49.9584 -49.9383 -49.9200 -49.9104 -49.9050 -49.9030
   -49.8978 -49.8977 -49.8861 -49.8860 -49.8840 -49.8791 -49.8753 -49.8746
   -49.8743 -49.8741 -49.8683 -49.8681 -49.8615 -49.8614 -49.8537 -49.8301
   -49.8282 -49.8279 -49.8274 -49.8269 -49.8257 -49.8254 -49.8246 -49.8237
   -20.4225 -20.4222 -20.4112 -20.3990 -20.3594 -20.3556 -20.3538 -20.2181
   -20.2129 -20.2124 -20.2063 -20.1802 -20.1800 -20.1770 -20.1758 -20.1741
   -20.1698 -20.1691 -20.1685 -20.1646 -20.1518 -20.1452 -20.1433 -20.1429
   -20.0832 -20.0633 -20.0618 -20.0576 -20.0575 -20.0456 -20.0399 -20.0240
   -20.0161 -20.0037 -19.9869 -19.9314 -19.9091 -19.9089 -19.8722 -19.8718
   -19.8637 -19.8603 -19.8423 -19.8375 -19.8364 -19.8234 -19.8118 -19.8044
   -19.8030 -19.8026 -19.8023 -19.8011 -19.8000 -19.7985 -19.7985 -19.7964
   -19.7915 -19.7903 -19.7628 -19.7619 -19.7486 -19.6912 -19.6830 -19.6709
   -19.6686 -19.6505 -19.6449 -19.6375 -19.6233 -19.6220 -19.6216 -19.6162
   -19.6159 -19.6139 -19.6126 -19.6118 -19.6117 -19.6086 -19.5985 -19.5946
   -19.5939 -19.5921 -19.5920 -19.5898 -19.5869 -19.5839 -19.5792 -19.5784
   -19.5745 -19.5730 -19.5613 -19.5565 -19.5436 -19.4977 -19.4626 -19.4552
    15.4014  16.9154  16.9199  16.9222  17.1355  17.1879  17.2272  17.2396
    17.2397  17.2425  17.3667  17.3714  17.3941  17.5938  17.7372  17.7508
    17.7706  18.1011  18.1209  18.1269  18.1516  18.2987  18.3107  18.3157
    18.3168  18.3499  18.3501  18.4236  18.4912  18.4922  18.6158  18.6535
    18.6560  18.6726  18.6769  18.7027  18.8738  18.9374  18.9407  18.9447
    18.9501  18.9679  18.9741  19.0773  19.1040  19.3087  19.3265  19.4208
    19.4225  19.4470  19.4916  19.4982  19.5252  19.5283  19.5741  19.5849
    19.5942  19.7718  19.7763  19.7983  19.7995  19.8710  19.8921  19.9493
    19.9556  20.0030  20.0642  20.0729  20.1565  20.1739  20.1966  20.1993
    20.2306  20.2387  20.2827  20.3238  20.3391  20.3506  20.3521  20.3760
    20.4161  20.4294  20.4364  20.4711  20.5202  20.5387  20.5468  20.5969
    21.1051  21.2053  21.2120  21.2462  21.4696  21.4977  21.6292  21.6381
    21.6479  21.6707  21.6719  21.7108  21.7438  21.7482  21.7623  21.7698
    21.7891  21.9210  21.9933  22.0980  22.0993  22.1145  22.1184  22.1634
    22.2381  22.5311  22.5328  22.6428  22.6512  22.6650  22.6661  22.6771
    22.7060  22.7131  22.7147  22.7845  22.8081  22.8583  22.8670  22.8714
    22.9273  22.9382  22.9458  22.9848  22.9861  23.0873  23.1765  23.2353
    23.2398  23.2631  23.2757  23.3427  23.3546  23.3677  23.4757  23.5072
    23.6833  23.8795  24.0502  24.0654  24.0678  24.1821  24.1883  24.3656
    24.4747  24.4790  24.5469  24.6099  24.6194  24.6346  24.6500  24.8734
    24.8753  24.9718  24.9809  25.0067  25.0108  25.0151  25.0284  25.0530
    25.2482  25.5331  25.8828  25.8850  25.9714  25.9983  26.4955  26.5296
    26.9666  27.0346  27.1045

          k = 0.1658 0.0556 0.2778 ( 30318 PWs)   bands (ev):

   -50.0274 -49.9759 -49.9554 -49.9349 -49.9217 -49.9171 -49.9071 -49.9025
   -49.8966 -49.8939 -49.8872 -49.8854 -49.8854 -49.8821 -49.8806 -49.8729
   -49.8712 -49.8688 -49.8630 -49.8624 -49.8588 -49.8538 -49.8469 -49.8334
   -49.8313 -49.8310 -49.8299 -49.8295 -49.8280 -49.8270 -49.8252 -49.8239
   -20.4080 -20.4042 -20.3863 -20.3700 -20.3431 -20.3389 -20.3316 -20.2590
   -20.2498 -20.2175 -20.2172 -20.2168 -20.2165 -20.2098 -20.1886 -20.1871
   -20.1854 -20.1682 -20.1676 -20.1593 -20.1572 -20.1549 -20.1548 -20.1325
   -20.1186 -20.0769 -20.0664 -20.0454 -20.0433 -20.0312 -20.0283 -20.0257
   -20.0095 -19.9973 -19.9696 -19.9620 -19.9439 -19.9080 -19.9001 -19.8695
   -19.8628 -19.8557 -19.8297 -19.8248 -19.8196 -19.8122 -19.8035 -19.8014
   -19.7993 -19.7972 -19.7903 -19.7799 -19.7718 -19.7684 -19.7653 -19.7635
   -19.7633 -19.7601 -19.7274 -19.7253 -19.7218 -19.7120 -19.7013 -19.6981
   -19.6589 -19.6580 -19.6572 -19.6524 -19.6467 -19.6443 -19.6402 -19.6375
   -19.6339 -19.6255 -19.6199 -19.6143 -19.6125 -19.6106 -19.6033 -19.6015
   -19.5991 -19.5987 -19.5941 -19.5932 -19.5849 -19.5802 -19.5785 -19.5640
   -19.5632 -19.5586 -19.5529 -19.5441 -19.5338 -19.5314 -19.4738 -19.4610
    15.5683  16.8689  17.0141  17.0356  17.0448  17.2111  17.2799  17.3465
    17.3646  17.3807  17.4411  17.4933  17.5223  17.6587  17.6827  17.8587
    17.8701  17.8999  17.9440  18.0394  18.0795  18.1629  18.1646  18.1951
    18.2264  18.2450  18.3437  18.3706  18.3867  18.3884  18.4061  18.4276
    18.5541  18.5694  18.5718  18.6813  18.7228  18.7850  18.7946  18.9626
    18.9724  18.9905  19.0258  19.1283  19.1722  19.2387  19.2405  19.2754
    19.2875  19.3401  19.3788  19.4126  19.4881  19.4925  19.5293  19.5972
    19.6139  19.6480  19.7627  19.8913  19.9391  19.9460  19.9807  20.0095
    20.0443  20.0570  20.1160  20.1309  20.1899  20.1961  20.2377  20.2495
    20.2622  20.3324  20.3936  20.3986  20.4055  20.4676  20.4797  20.5136
    20.5502  20.6073  20.6408  20.6491  20.6584  20.6808  20.8851  20.8917
    20.9399  20.9887  21.0044  21.2112  21.2143  21.2426  21.3801  21.4096
    21.5019  21.5177  21.5758  21.6856  21.7379  21.7883  21.8419  21.9514
    21.9665  22.0073  22.0446  22.1019  22.1338  22.1510  22.2498  22.3260
    22.3589  22.4404  22.4427  22.4749  22.4954  22.5201  22.6255  22.6341
    22.6384  22.6458  22.7395  22.7808  22.8343  22.8706  22.9418  22.9557
    22.9661  22.9961  22.9972  23.1768  23.2763  23.2770  23.2998  23.3123
    23.3486  23.5035  23.5226  23.5578  23.5718  23.5754  23.6201  23.6243
    23.6259  23.7092  23.8132  23.9065  24.0678  24.1827  24.2814  24.2970
    24.3309  24.3965  24.4194  24.5426  24.5438  24.5483  24.6889  24.6900
    24.7769  24.7811  24.8381  24.8693  24.9699  24.9842  25.0008  25.0037
    25.0581  25.4334  25.4896  25.8559  26.0015  26.3039  26.3854  26.4856
    26.5165  26.5676  27.4779

          k = 0.1658 0.0556 0.3889 ( 30327 PWs)   bands (ev):

   -50.0181 -49.9920 -49.9493 -49.9322 -49.9299 -49.9157 -49.9129 -49.9011
   -49.8988 -49.8949 -49.8901 -49.8885 -49.8845 -49.8821 -49.8716 -49.8695
   -49.8692 -49.8684 -49.8640 -49.8526 -49.8502 -49.8467 -49.8428 -49.8407
   -49.8363 -49.8356 -49.8351 -49.8306 -49.8295 -49.8286 -49.8248 -49.8241
   -20.3829 -20.3762 -20.3522 -20.3322 -20.3193 -20.3171 -20.3061 -20.2963
   -20.2962 -20.2641 -20.2553 -20.2516 -20.2382 -20.2149 -20.2091 -20.1954
   -20.1940 -20.1933 -20.1888 -20.1782 -20.1553 -20.1441 -20.1372 -20.1251
   -20.0961 -20.0845 -20.0809 -20.0596 -20.0593 -20.0274 -20.0035 -20.0000
   -19.9999 -19.9892 -19.9759 -19.9572 -19.9421 -19.9337 -19.9263 -19.9104
   -19.8892 -19.8553 -19.8021 -19.7998 -19.7986 -19.7986 -19.7982 -19.7959
   -19.7818 -19.7743 -19.7736 -19.7500 -19.7498 -19.7411 -19.7383 -19.7343
   -19.7308 -19.7292 -19.7201 -19.7159 -19.6956 -19.6938 -19.6938 -19.6844
   -19.6818 -19.6812 -19.6795 -19.6782 -19.6777 -19.6701 -19.6693 -19.6451
   -19.6439 -19.6381 -19.6229 -19.6215 -19.6167 -19.6164 -19.6151 -19.6103
   -19.6076 -19.6038 -19.5911 -19.5875 -19.5865 -19.5814 -19.5761 -19.5738
   -19.5660 -19.5565 -19.5447 -19.5359 -19.5310 -19.5165 -19.4900 -19.4738
    15.8115  16.4821  17.1538  17.2003  17.2241  17.3415  17.4255  17.5008
    17.5162  17.5410  17.5515  17.5707  17.6497  17.6747  17.6958  17.7105
    17.7599  17.8039  17.8703  17.8734  17.9570  17.9785  18.0356  18.0602
    18.0761  18.0892  18.2078  18.2427  18.2489  18.2576  18.4173  18.4519
    18.5218  18.5228  18.5497  18.5900  18.6865  18.8788  18.8835  18.9029
    18.9176  19.0167  19.0366  19.0699  19.0943  19.1320  19.1432  19.1621
    19.1976  19.1996  19.3355  19.3468  19.3523  19.4586  19.6223  19.6242
    19.6440  19.6960  19.8989  19.9025  19.9386  19.9639  20.0036  20.0191
    20.0212  20.0586  20.1000  20.1472  20.1529  20.1849  20.2261  20.2370
    20.3324  20.3587  20.3668  20.5506  20.5917  20.6513  20.6715  20.6801
    20.7359  20.7931  20.7986  20.7988  20.8034  20.8039  20.8061  20.8405
    20.9575  21.0194  21.0929  21.1225  21.1467  21.1664  21.2553  21.2863
    21.4910  21.6135  21.6612  21.7317  21.7342  21.7850  21.8983  21.9478
    21.9718  22.0002  22.0528  22.0530  22.0594  22.0654  22.1434  22.2104
    22.2724  22.3235  22.4238  22.4550  22.4718  22.5294  22.5575  22.5724
    22.5958  22.6961  22.7424  22.7431  22.8100  22.8691  22.8939  22.9394
    22.9979  23.0412  23.1661  23.2179  23.2649  23.2706  23.3388  23.3564
    23.5340  23.5655  23.6372  23.7290  23.8495  23.8542  23.8646  23.8790
    23.9032  23.9098  23.9261  24.0156  24.0366  24.1090  24.1153  24.2149
    24.2957  24.3823  24.3939  24.4475  24.4505  24.4626  24.4689  24.4801
    24.6080  24.6137  24.6732  24.9143  24.9699  24.9821  24.9876  24.9939
    24.9955  25.1751  25.4726  25.6823  25.7188  25.8845  26.0167  26.2172
    26.7103  27.0341  27.3066

          k = 0.1658 0.0556-0.5000 ( 30348 PWs)   bands (ev):

   -50.0062 -50.0062 -49.9416 -49.9415 -49.9234 -49.9234 -49.9075 -49.9075
   -49.8941 -49.8941 -49.8927 -49.8927 -49.8834 -49.8834 -49.8705 -49.8704
   -49.8661 -49.8660 -49.8549 -49.8548 -49.8433 -49.8433 -49.8427 -49.8426
   -49.8404 -49.8403 -49.8352 -49.8352 -49.8291 -49.8291 -49.8244 -49.8244
   -20.3485 -20.3484 -20.3395 -20.3395 -20.3107 -20.3106 -20.2890 -20.2889
   -20.2885 -20.2884 -20.2874 -20.2873 -20.2506 -20.2505 -20.2050 -20.2050
   -20.1963 -20.1963 -20.1956 -20.1955 -20.1428 -20.1428 -20.1170 -20.1170
   -20.0926 -20.0925 -20.0835 -20.0834 -20.0406 -20.0406 -20.0040 -20.0039
   -19.9740 -19.9740 -19.9637 -19.9636 -19.9549 -19.9549 -19.9209 -19.9209
   -19.8879 -19.8878 -19.8004 -19.8003 -19.7986 -19.7985 -19.7750 -19.7749
   -19.7538 -19.7537 -19.7484 -19.7483 -19.7434 -19.7434 -19.7244 -19.7244
   -19.7154 -19.7154 -19.7103 -19.7103 -19.7045 -19.7045 -19.7020 -19.7019
   -19.7013 -19.7013 -19.6740 -19.6740 -19.6675 -19.6674 -19.6482 -19.6482
   -19.6464 -19.6464 -19.6323 -19.6323 -19.6307 -19.6307 -19.6127 -19.6126
   -19.6075 -19.6074 -19.6001 -19.6001 -19.5886 -19.5885 -19.5696 -19.5695
   -19.5664 -19.5664 -19.5349 -19.5349 -19.5110 -19.5109 -19.4927 -19.4927
    16.1212  16.1215  17.3223  17.3225  17.4091  17.4092  17.4467  17.4469
    17.5254  17.5254  17.6232  17.6232  17.6963  17.6965  17.7247  17.7250
    17.7659  17.7659  17.8049  17.8049  17.9136  17.9138  17.9442  17.9444
    17.9531  17.9532  18.1164  18.1166  18.2940  18.2942  18.3458  18.3459
    18.6331  18.6331  18.6357  18.6359  18.6984  18.6985  18.7951  18.7953
    19.0282  19.0282  19.0699  19.0700  19.0948  19.0949  19.1346  19.1346
    19.1873  19.1873  19.2639  19.2640  19.2762  19.2763  19.7534  19.7535
    19.8059  19.8060  19.8138  19.8139  19.8886  19.8887  19.9274  19.9274
    20.0888  20.0889  20.1038  20.1039  20.2994  20.2996  20.3148  20.3150
    20.3817  20.3818  20.4089  20.4090  20.4797  20.4797  20.6534  20.6535
    20.7487  20.7488  20.8422  20.8423  20.9161  20.9162  20.9598  20.9599
    20.9900  20.9901  21.0095  21.0096  21.4250  21.4250  21.4672  21.4673
    21.5011  21.5011  21.5520  21.5520  21.7292  21.7293  21.7339  21.7340
    21.9864  21.9865  22.1352  22.1352  22.1842  22.1843  22.2479  22.2480
    22.2480  22.2481  22.3062  22.3063  22.3698  22.3700  22.4694  22.4695
    22.6698  22.6699  22.6873  22.6874  22.7949  22.7951  23.0404  23.0406
    23.0879  23.0881  23.0920  23.0921  23.1604  23.1605  23.6122  23.6123
    23.6917  23.6917  23.7079  23.7079  23.9256  23.9256  23.9840  23.9840
    24.1093  24.1093  24.1480  24.1480  24.1601  24.1602  24.1727  24.1728
    24.1745  24.1745  24.1825  24.1825  24.1970  24.1970  24.3884  24.3884
    24.5236  24.5237  24.9519  24.9519  24.9729  24.9730  24.9912  24.9913
    25.2364  25.2365  25.4528  25.4529  25.4597  25.4597  25.9916  25.9918
    27.0516  27.0517  27.4771

          k = 0.1658 0.1667 0.1667 ( 30351 PWs)   bands (ev):

   -50.0306 -49.9575 -49.9564 -49.9564 -49.9095 -49.9095 -49.9091 -49.9038
   -49.9018 -49.9018 -49.8889 -49.8753 -49.8752 -49.8748 -49.8747 -49.8746
   -49.8744 -49.8743 -49.8742 -49.8741 -49.8550 -49.8545 -49.8545 -49.8301
   -49.8285 -49.8285 -49.8277 -49.8277 -49.8271 -49.8270 -49.8265 -49.8265
   -20.4121 -20.4121 -20.4115 -20.3762 -20.3481 -20.3481 -20.3464 -20.2179
   -20.2140 -20.2140 -20.2009 -20.2009 -20.1958 -20.1958 -20.1942 -20.1942
   -20.1798 -20.1798 -20.1763 -20.1763 -20.1755 -20.1755 -20.1168 -20.1100
   -20.1099 -20.0734 -20.0734 -20.0712 -20.0300 -20.0300 -20.0242 -20.0242
   -20.0239 -20.0239 -19.9445 -19.9445 -19.9445 -19.8585 -19.8585 -19.8564
   -19.8374 -19.8374 -19.8359 -19.8359 -19.8353 -19.8352 -19.8346 -19.8346
   -19.8279 -19.7972 -19.7971 -19.7921 -19.7921 -19.7894 -19.7886 -19.7885
   -19.7883 -19.7883 -19.7266 -19.7266 -19.7263 -19.6861 -19.6861 -19.6816
   -19.6750 -19.6750 -19.6700 -19.6360 -19.6359 -19.6299 -19.6293 -19.6250
   -19.6250 -19.6117 -19.6117 -19.6115 -19.6115 -19.6075 -19.6074 -19.6017
   -19.6017 -19.5962 -19.5855 -19.5855 -19.5818 -19.5794 -19.5783 -19.5783
   -19.5770 -19.5724 -19.5450 -19.5450 -19.5405 -19.5202 -19.4608 -19.4598
    15.4845  16.9729  16.9730  16.9772  17.1360  17.2774  17.2912  17.2912
    17.2914  17.2920  17.2922  17.4313  17.4313  17.4369  17.7850  17.7981
    17.7982  18.1585  18.1586  18.1777  18.1777  18.1806  18.1807  18.1933
    18.1934  18.1945  18.3602  18.3708  18.3708  18.5887  18.5902  18.5902
    18.6136  18.6136  18.6150  18.6151  18.6184  18.6184  18.9442  18.9442
    18.9515  18.9515  18.9631  18.9632  19.1149  19.1393  19.1393  19.4629
    19.4636  19.4637  19.6059  19.6059  19.6138  19.6138  19.6186  19.6186
    19.7410  19.7596  19.7597  19.8262  19.8262  19.8335  19.8336  19.8388
    19.8389  20.1068  20.1463  20.1463  20.3072  20.3189  20.3190  20.3302
    20.3327  20.3328  20.3495  20.3495  20.3617  20.3617  20.3748  20.3814
    20.3814  20.4091  20.4706  20.5620  20.5620  20.5759  20.6049  20.6135
    21.0976  21.1266  21.1266  21.3900  21.3900  21.4179  21.4319  21.4708
    21.4709  21.6285  21.6285  21.6609  21.8306  21.8306  21.8461  21.8822
    21.8822  21.8855  21.8856  21.9009  21.9009  22.2974  22.2993  22.2993
    22.4585  22.4585  22.4746  22.5733  22.5733  22.6029  22.6103  22.6104
    22.6198  22.6766  22.6766  22.6834  22.6834  22.6876  22.6876  22.7352
    22.8022  23.0750  23.2444  23.2444  23.2494  23.2494  23.2547  23.2547
    23.4944  23.4945  23.5136  23.5136  23.5242  23.5248  23.6058  23.6108
    23.6108  23.8879  23.9217  23.9217  24.0777  24.0778  24.0922  24.2801
    24.2801  24.2866  24.3542  24.3785  24.6493  24.6714  24.6714  24.8742
    24.8742  24.8797  24.8797  24.9095  24.9095  24.9996  25.0024  25.0024
    25.4760  25.4760  25.4952  25.9669  25.9670  25.9717  27.0594  27.0594
    27.0617  27.0618  27.1019

          k = 0.1658 0.1667 0.2778 ( 30332 PWs)   bands (ev):

   -50.0243 -49.9736 -49.9535 -49.9524 -49.9206 -49.9201 -49.9077 -49.9014
   -49.8995 -49.8936 -49.8845 -49.8818 -49.8809 -49.8751 -49.8746 -49.8743
   -49.8742 -49.8696 -49.8637 -49.8633 -49.8562 -49.8489 -49.8480 -49.8333
   -49.8316 -49.8308 -49.8306 -49.8299 -49.8289 -49.8288 -49.8275 -49.8270
   -20.4016 -20.3915 -20.3905 -20.3435 -20.3334 -20.3317 -20.3256 -20.2620
   -20.2363 -20.2345 -20.2147 -20.2137 -20.2135 -20.2124 -20.2101 -20.2097
   -20.1943 -20.1923 -20.1841 -20.1807 -20.1773 -20.1767 -20.1536 -20.1387
   -20.0915 -20.0881 -20.0762 -20.0695 -20.0361 -20.0324 -20.0053 -19.9995
   -19.9849 -19.9840 -19.9770 -19.9769 -19.8941 -19.8906 -19.8860 -19.8743
   -19.8713 -19.8555 -19.8498 -19.8231 -19.7996 -19.7988 -19.7964 -19.7945
   -19.7941 -19.7922 -19.7871 -19.7869 -19.7866 -19.7851 -19.7715 -19.7690
   -19.7643 -19.7625 -19.7205 -19.7035 -19.6937 -19.6925 -19.6924 -19.6924
   -19.6922 -19.6673 -19.6630 -19.6613 -19.6552 -19.6486 -19.6452 -19.6433
   -19.6401 -19.6399 -19.6330 -19.6145 -19.6121 -19.6116 -19.6109 -19.6096
   -19.6081 -19.6021 -19.5939 -19.5922 -19.5808 -19.5692 -19.5650 -19.5636
   -19.5566 -19.5559 -19.5477 -19.5458 -19.5357 -19.5317 -19.4711 -19.4635
    15.6481  16.9239  17.0711  17.0859  17.0900  17.1903  17.3740  17.3872
[...]
   -19.7115 -19.7114 -19.6991 -19.6989 -19.6943 -19.6942 -19.6910 -19.6908
   -19.6701 -19.6700 -19.6618 -19.6618 -19.6576 -19.6574 -19.6530 -19.6530
   -19.5665 -19.5664 -19.5639 -19.5638 -19.5567 -19.5565 -19.5341 -19.5339
   -19.5297 -19.5296 -19.5162 -19.5161 -19.5035 -19.5035 -19.4911 -19.4910
    16.6107  16.6110  17.0755  17.0758  17.3144  17.3147  17.3184  17.3185
    17.6571  17.6572  17.6613  17.6615  17.6959  17.6960  17.8800  17.8800
    17.9296  17.9297  17.9327  17.9327  17.9379  17.9380  17.9991  17.9991
    18.0195  18.0197  18.0319  18.0320  18.1334  18.1334  18.1677  18.1678
    18.2464  18.2466  18.3242  18.3242  18.4121  18.4121  18.6846  18.6846
    18.7414  18.7416  18.8612  18.8612  19.0760  19.0762  19.0913  19.0914
    19.1643  19.1644  19.3306  19.3308  19.3962  19.3964  19.5529  19.5531
    19.8790  19.8790  19.9290  19.9290  20.0790  20.0791  20.5681  20.5681
    20.6357  20.6357  20.6408  20.6409  20.7281  20.7281  20.7400  20.7401
    20.7480  20.7482  20.7714  20.7716  20.7927  20.7927  20.8076  20.8077
    20.8242  20.8242  20.8922  20.8924  20.9012  20.9012  20.9162  20.9162
    20.9607  20.9607  20.9627  20.9628  20.9766  20.9766  21.0138  21.0139
    21.0345  21.0346  21.4839  21.4839  21.4852  21.4853  21.5813  21.5815
    21.6055  21.6056  21.6066  21.6067  21.6067  21.6068  21.8806  21.8807
    22.0891  22.0891  22.1479  22.1480  22.4602  22.4603  22.4678  22.4679
    22.4872  22.4873  22.5111  22.5112  22.6326  22.6327  22.8983  22.8984
    22.9487  22.9487  22.9779  22.9781  23.0359  23.0360  23.0418  23.0419
    23.2441  23.2441  23.4334  23.4334  23.6303  23.6303  23.8112  23.8113
    24.5185  24.5185  24.5209  24.5209  24.5235  24.5236  24.5279  24.5280
    24.5339  24.5340  24.5694  24.5694  24.5974  24.5975  24.6101  24.6101
    24.6678  24.6678  24.7332  24.7333  24.7523  24.7524  24.7548  24.7549
    26.0814  26.0816  26.6269  26.6270  26.7508  26.7509  26.9760  26.9761
    27.8844  27.8849  28.1208

          k =-0.4975 0.2778-0.5000 ( 30312 PWs)   bands (ev):

   -49.9757 -49.9757 -49.9755 -49.9754 -49.9383 -49.9382 -49.9380 -49.9380
   -49.8728 -49.8728 -49.8726 -49.8725 -49.8529 -49.8528 -49.8526 -49.8526
   -49.8520 -49.8519 -49.8517 -49.8517 -49.8510 -49.8510 -49.8508 -49.8507
   -49.8506 -49.8506 -49.8504 -49.8504 -49.8354 -49.8353 -49.8352 -49.8351
   -20.2944 -20.2943 -20.2943 -20.2942 -20.2916 -20.2916 -20.2916 -20.2915
   -20.2582 -20.2581 -20.2581 -20.2580 -20.2527 -20.2526 -20.2526 -20.2525
   -20.2483 -20.2483 -20.2482 -20.2481 -20.2451 -20.2451 -20.2450 -20.2449
   -20.0697 -20.0697 -20.0696 -20.0696 -19.9535 -19.9534 -19.9534 -19.9534
   -19.8475 -19.8475 -19.8475 -19.8474 -19.8464 -19.8463 -19.8463 -19.8463
   -19.8457 -19.8456 -19.8455 -19.8455 -19.8448 -19.8448 -19.8448 -19.8447
   -19.8418 -19.8418 -19.8417 -19.8416 -19.7321 -19.7321 -19.7320 -19.7320
   -19.7260 -19.7260 -19.7260 -19.7260 -19.7232 -19.7231 -19.7231 -19.7230
   -19.7183 -19.7183 -19.7182 -19.7181 -19.6798 -19.6798 -19.6797 -19.6797
   -19.6744 -19.6743 -19.6742 -19.6742 -19.6643 -19.6643 -19.6643 -19.6642
   -19.5561 -19.5561 -19.5561 -19.5561 -19.5356 -19.5355 -19.5354 -19.5354
   -19.5342 -19.5341 -19.5340 -19.5340 -19.4936 -19.4936 -19.4936 -19.4936
    16.8269  16.8271  16.8272  16.8275  17.3050  17.3051  17.3051  17.3053
    17.7731  17.7731  17.7732  17.7732  17.8181  17.8182  17.8183  17.8184
    17.8192  17.8193  17.8194  17.8195  17.8969  17.8969  17.8969  17.8970
    18.0886  18.0886  18.0887  18.0887  18.0920  18.0920  18.0921  18.0922
    18.4818  18.4819  18.4820  18.4821  18.4897  18.4897  18.4899  18.4899
    18.6383  18.6383  18.6384  18.6384  19.2080  19.2081  19.2081  19.2083
    19.2118  19.2120  19.2120  19.2121  19.3895  19.3895  19.3896  19.3897
    19.9249  19.9249  19.9249  19.9249  20.4010  20.4010  20.4010  20.4011
    20.6624  20.6624  20.6624  20.6625  20.7448  20.7448  20.7449  20.7449
    20.7605  20.7606  20.7606  20.7606  20.7701  20.7701  20.7702  20.7703
    20.8827  20.8827  20.8827  20.8828  20.9225  20.9225  20.9225  20.9226
    20.9680  20.9680  20.9680  20.9680  21.1614  21.1614  21.1615  21.1616
    21.1874  21.1875  21.1875  21.1877  21.3324  21.3325  21.3326  21.3327
    21.6425  21.6425  21.6425  21.6426  21.8424  21.8424  21.8425  21.8425
    21.8565  21.8565  21.8565  21.8566  22.4586  22.4587  22.4587  22.4588
    22.7258  22.7259  22.7259  22.7260  22.7764  22.7764  22.7765  22.7765
    22.7923  22.7923  22.7924  22.7924  23.1680  23.1680  23.1680  23.1681
    23.1887  23.1887  23.1887  23.1888  23.6003  23.6003  23.6004  23.6004
    24.5896  24.5896  24.5897  24.5897  24.5975  24.5975  24.5975  24.5975
    24.6358  24.6359  24.6359  24.6359  24.6552  24.6552  24.6553  24.6553
    24.6686  24.6686  24.6687  24.6688  24.7138  24.7138  24.7138  24.7139
    26.2954  26.2955  26.2955  26.2957  27.5467  27.5468  27.5469  27.5471
    27.5741  27.5741  27.5743

          k =-0.4975 0.3889 0.3889 ( 30302 PWs)   bands (ev):

   -49.9783 -49.9781 -49.9578 -49.9578 -49.9576 -49.9575 -49.9405 -49.9403
   -49.8619 -49.8619 -49.8617 -49.8617 -49.8603 -49.8602 -49.8599 -49.8599
   -49.8536 -49.8534 -49.8530 -49.8527 -49.8516 -49.8515 -49.8513 -49.8513
   -49.8430 -49.8430 -49.8428 -49.8428 -49.8414 -49.8414 -49.8411 -49.8411
   -20.2986 -20.2986 -20.2903 -20.2903 -20.2901 -20.2900 -20.2686 -20.2686
   -20.2685 -20.2685 -20.2636 -20.2636 -20.2635 -20.2634 -20.2618 -20.2618
   -20.2617 -20.2617 -20.2505 -20.2504 -20.2483 -20.2483 -20.2482 -20.2482
   -20.0699 -20.0699 -19.9576 -19.9576 -19.9575 -19.9575 -19.9052 -19.9052
   -19.9051 -19.9051 -19.8945 -19.8945 -19.8944 -19.8944 -19.8564 -19.8564
   -19.8563 -19.8563 -19.8422 -19.8421 -19.8381 -19.8380 -19.8332 -19.8331
   -19.7942 -19.7942 -19.7941 -19.7941 -19.7861 -19.7861 -19.7861 -19.7861
   -19.7286 -19.7285 -19.7284 -19.7284 -19.7156 -19.7154 -19.7033 -19.7032
   -19.7032 -19.7032 -19.6976 -19.6976 -19.6974 -19.6974 -19.6928 -19.6928
   -19.6927 -19.6927 -19.6727 -19.6726 -19.6726 -19.6726 -19.6689 -19.6687
   -19.5484 -19.5483 -19.5414 -19.5414 -19.5413 -19.5413 -19.5251 -19.5249
   -19.5131 -19.5130 -19.5130 -19.5130 -19.5106 -19.5104 -19.5011 -19.5011
    16.7459  16.7462  17.1086  17.1087  17.1089  17.1090  17.2292  17.2294
    17.7275  17.7277  17.7467  17.7467  17.7467  17.7468  17.9063  17.9063
    17.9064  17.9064  17.9487  17.9487  17.9488  17.9489  17.9686  17.9687
    17.9687  17.9687  17.9864  17.9865  17.9866  17.9867  17.9981  17.9982
    18.4638  18.4640  18.5283  18.5283  18.5283  18.5284  18.9079  18.9079
    18.9080  18.9080  18.9268  18.9269  18.9270  18.9271  18.9540  18.9541
    18.9541  18.9541  19.2460  19.2461  19.3032  19.3032  19.3034  19.3034
    20.0084  20.0085  20.0979  20.0979  20.0980  20.0980  20.5593  20.5594
    20.7716  20.7717  20.7747  20.7747  20.7748  20.7748  20.7776  20.7776
    20.7777  20.7777  20.8299  20.8299  20.8569  20.8570  20.8571  20.8571
    20.8761  20.8761  20.8814  20.8814  20.8866  20.8866  20.8866  20.8866
    20.9082  20.9082  20.9082  20.9082  20.9406  20.9406  20.9407  20.9407
    20.9424  20.9425  21.3563  21.3563  21.3564  21.3564  21.3700  21.3701
    21.7221  21.7221  21.7221  21.7221  21.7753  21.7754  22.1515  22.1515
    22.1516  22.1516  22.2505  22.2505  22.2506  22.2506  22.2979  22.2980
    22.2980  22.2980  22.6423  22.6425  22.6649  22.6649  22.7166  22.7166
    22.7167  22.7168  22.7475  22.7475  22.7476  22.7476  22.9837  22.9838
    23.1185  23.1186  23.3387  23.3387  23.3388  23.3388  23.4944  23.4945
    24.6385  24.6385  24.6386  24.6386  24.6620  24.6620  24.6621  24.6621
    24.6642  24.6643  24.7261  24.7261  24.7262  24.7262  24.7283  24.7284
    24.7284  24.7284  24.7830  24.7831  24.7831  24.7832  24.8201  24.8201
    26.9325  26.9325  26.9326  26.9327  27.3532  27.3533  27.5398  27.5398
    27.5399  27.5400  28.2855

          k =-0.4975 0.3889-0.5000 ( 30340 PWs)   bands (ev):

   -49.9690 -49.9689 -49.9687 -49.9687 -49.9499 -49.9499 -49.9497 -49.9497
   -49.8612 -49.8611 -49.8609 -49.8609 -49.8527 -49.8527 -49.8525 -49.8524
   -49.8522 -49.8522 -49.8520 -49.8519 -49.8510 -49.8509 -49.8507 -49.8507
   -49.8506 -49.8506 -49.8504 -49.8504 -49.8421 -49.8421 -49.8419 -49.8418
   -20.2842 -20.2842 -20.2841 -20.2841 -20.2809 -20.2808 -20.2808 -20.2807
   -20.2700 -20.2699 -20.2698 -20.2698 -20.2659 -20.2659 -20.2658 -20.2657
   -20.2598 -20.2598 -20.2596 -20.2596 -20.2562 -20.2561 -20.2561 -20.2560
   -20.0138 -20.0138 -20.0138 -20.0137 -19.9016 -19.9016 -19.9015 -19.9015
   -19.8991 -19.8991 -19.8991 -19.8990 -19.8477 -19.8477 -19.8477 -19.8476
   -19.8457 -19.8456 -19.8456 -19.8455 -19.8450 -19.8450 -19.8450 -19.8450
   -19.8450 -19.8449 -19.8449 -19.8448 -19.7881 -19.7880 -19.7880 -19.7880
   -19.7149 -19.7149 -19.7149 -19.7148 -19.7124 -19.7123 -19.7123 -19.7122
   -19.7060 -19.7059 -19.7058 -19.7058 -19.6895 -19.6894 -19.6894 -19.6893
   -19.6836 -19.6836 -19.6836 -19.6836 -19.6828 -19.6827 -19.6826 -19.6826
   -19.5368 -19.5368 -19.5367 -19.5367 -19.5224 -19.5223 -19.5222 -19.5222
   -19.5215 -19.5215 -19.5214 -19.5213 -19.5048 -19.5048 -19.5048 -19.5048
    16.9150  16.9151  16.9152  16.9155  17.1592  17.1594  17.1594  17.1597
    17.8364  17.8365  17.8366  17.8366  17.8369  17.8369  17.8371  17.8371
    17.8379  17.8379  17.8379  17.8380  17.9145  17.9145  17.9146  17.9146
    17.9783  17.9784  17.9785  17.9785  17.9803  17.9803  17.9805  17.9805
    18.6931  18.6931  18.6933  18.6933  18.7025  18.7025  18.7027  18.7028
    18.7494  18.7494  18.7494  18.7494  19.1003  19.1004  19.1004  19.1006
    19.1041  19.1042  19.1042  19.1044  19.1271  19.1272  19.1272  19.1273
    20.0728  20.0728  20.0728  20.0728  20.3437  20.3437  20.3437  20.3438
    20.8077  20.8078  20.8078  20.8079  20.8162  20.8162  20.8162  20.8163
    20.8232  20.8233  20.8233  20.8234  20.8487  20.8488  20.8488  20.8489
    20.8657  20.8657  20.8658  20.8658  20.8753  20.8753  20.8753  20.8753
    20.9241  20.9241  20.9242  20.9242  21.0716  21.0716  21.0717  21.0718
    21.1051  21.1052  21.1053  21.1054  21.1648  21.1648  21.1649  21.1650
    21.8962  21.8962  21.8963  21.8963  21.9815  21.9816  21.9816  21.9817
    22.0059  22.0060  22.0060  22.0060  22.4347  22.4348  22.4349  22.4349
    22.4523  22.4524  22.4524  22.4525  22.4606  22.4606  22.4607  22.4607
    22.7145  22.7146  22.7146  22.7147  23.0120  23.0121  23.0121  23.0121
    23.0894  23.0895  23.0895  23.0896  23.2996  23.2997  23.2997  23.2998
    24.7048  24.7048  24.7048  24.7049  24.7148  24.7148  24.7148  24.7149
    24.7370  24.7370  24.7370  24.7371  24.7724  24.7725  24.7725  24.7726
    24.7847  24.7848  24.7848  24.7848  24.7852  24.7852  24.7853  24.7853
    27.2067  27.2068  27.2069  27.2070  27.8073  27.8074  27.8075  27.8091
    27.8397  27.8398  27.8399

          k =-0.4975-0.5000-0.5000 ( 30376 PWs)   bands (ev):

   -49.9605 -49.9604 -49.9602 -49.9601 -49.9601 -49.9601 -49.9599 -49.9599
   -49.8526 -49.8526 -49.8524 -49.8523 -49.8523 -49.8523 -49.8521 -49.8521
   -49.8511 -49.8510 -49.8510 -49.8509 -49.8507 -49.8507 -49.8507 -49.8507
   -49.8507 -49.8506 -49.8506 -49.8506 -49.8504 -49.8504 -49.8503 -49.8503
   -20.2723 -20.2723 -20.2723 -20.2723 -20.2723 -20.2723 -20.2723 -20.2722
   -20.2721 -20.2721 -20.2721 -20.2721 -20.2721 -20.2720 -20.2720 -20.2720
   -20.2687 -20.2686 -20.2686 -20.2685 -20.2685 -20.2684 -20.2684 -20.2683
   -19.9561 -19.9561 -19.9561 -19.9561 -19.9561 -19.9560 -19.9560 -19.9560
   -19.8469 -19.8469 -19.8469 -19.8469 -19.8469 -19.8468 -19.8468 -19.8468
   -19.8455 -19.8454 -19.8454 -19.8454 -19.8454 -19.8454 -19.8454 -19.8454
   -19.8453 -19.8453 -19.8453 -19.8453 -19.8453 -19.8453 -19.8453 -19.8452
   -19.7008 -19.7008 -19.7008 -19.7008 -19.7007 -19.7007 -19.7007 -19.7007
   -19.7006 -19.7006 -19.7006 -19.7006 -19.7005 -19.7005 -19.7005 -19.7005
   -19.6937 -19.6937 -19.6937 -19.6937 -19.6935 -19.6935 -19.6935 -19.6935
   -19.5206 -19.5205 -19.5204 -19.5204 -19.5204 -19.5203 -19.5203 -19.5202
   -19.5165 -19.5164 -19.5164 -19.5164 -19.5163 -19.5163 -19.5163 -19.5162
    17.0272  17.0273  17.0273  17.0273  17.0275  17.0276  17.0277  17.0278
    17.8910  17.8910  17.8910  17.8911  17.8911  17.8911  17.8911  17.8911
    17.8912  17.8912  17.8912  17.8912  17.8913  17.8913  17.8913  17.8913
    17.8919  17.8919  17.8919  17.8919  17.8921  17.8921  17.8921  17.8921
    18.9113  18.9114  18.9114  18.9114  18.9115  18.9115  18.9115  18.9115
    18.9116  18.9116  18.9116  18.9116  18.9116  18.9117  18.9117  18.9118
    18.9199  18.9199  18.9199  18.9200  18.9201  18.9201  18.9202  18.9202
    20.2259  20.2259  20.2259  20.2260  20.2260  20.2260  20.2260  20.2260
    20.8364  20.8364  20.8364  20.8365  20.8365  20.8365  20.8365  20.8365
    20.8935  20.8936  20.8936  20.8936  20.8936  20.8936  20.8936  20.8937
    20.9471  20.9472  20.9472  20.9472  20.9473  20.9473  20.9473  20.9474
    20.9818  20.9818  20.9819  20.9819  20.9819  20.9819  20.9819  20.9820
    20.9820  20.9820  20.9820  20.9821  20.9821  20.9821  20.9822  20.9822
    22.1699  22.1699  22.1699  22.1700  22.1700  22.1700  22.1700  22.1700
    22.1700  22.1700  22.1701  22.1701  22.1701  22.1701  22.1701  22.1702
    22.1993  22.1994  22.1994  22.1995  22.1995  22.1995  22.1996  22.1996
    22.9952  22.9953  22.9953  22.9954  22.9954  22.9954  22.9955  22.9955
    23.0146  23.0147  23.0147  23.0147  23.0148  23.0148  23.0148  23.0149
    24.7795  24.7795  24.7795  24.7796  24.7796  24.7796  24.7796  24.7797
    24.7911  24.7911  24.7911  24.7911  24.7911  24.7911  24.7911  24.7912
    24.7912  24.7912  24.7912  24.7912  24.7912  24.7912  24.7913  24.7913
    28.1292  28.1294  28.1301  28.1306  28.1323  28.1333  28.1354  28.1385
    28.1643  28.1643  28.1644

     the Fermi energy is    22.9729 ev

!    total energy              =  -13813.29996696 Ry

     total all-electron energy =   -289989.690306 Ry
     estimated scf accuracy    <       0.00000095 Ry
     smearing contrib. (-TS)   =       0.02009663 Ry
     internal energy E=F+TS    =  -13813.32006358 Ry

     The total energy is F=E-TS. E is the sum of the following terms:
     one-electron contribution =   -1008.21702523 Ry
     hartree contribution      =     919.82808354 Ry
     xc contribution           =    -927.87679743 Ry
     ewald contribution        =   -5207.61854749 Ry
     one-center paw contrib.   =   -7589.43577697 Ry

     convergence has been achieved in  11 iterations

     Forces acting on atoms (cartesian axes, Ry/au):

     atom    1 type  1   force =     0.00000000    0.00000000    0.00000000
     atom    2 type  1   force =    -0.00037683   -0.00012746    0.00000000
     atom    3 type  1   force =    -0.00037683    0.00000000   -0.00012746
     atom    4 type  1   force =     0.00000000   -0.00003986   -0.00003986
     atom    5 type  1   force =     0.00000000    0.00000000    0.00000000
     atom    6 type  1   force =    -0.00009129    0.00033569    0.00000000
     atom    7 type  1   force =    -0.00037683    0.00000000    0.00012746
     atom    8 type  1   force =     0.00000000   -0.00003986    0.00003986
     atom    9 type  1   force =     0.00000000    0.00000000    0.00000000
     atom   10 type  1   force =    -0.00037683    0.00012746   -0.00000000
     atom   11 type  1   force =    -0.00009129    0.00000000    0.00033569
     atom   12 type  1   force =     0.00000000    0.00003986   -0.00003986
     atom   13 type  1   force =     0.00000000    0.00000000    0.00000000
     atom   14 type  1   force =    -0.00009129   -0.00033569    0.00000000
     atom   15 type  1   force =    -0.00009129    0.00000000   -0.00033569
     atom   16 type  1   force =     0.00000000    0.00003986    0.00003986
     atom   17 type  1   force =     0.00000000    0.00000000    0.00000000
     atom   18 type  1   force =     0.00037683   -0.00012746   -0.00000000
     atom   19 type  1   force =     0.00037683    0.00000000   -0.00012746
     atom   20 type  1   force =     0.00000000    0.00025524    0.00025524
     atom   21 type  1   force =     0.00000000    0.00000000    0.00000000
     atom   22 type  1   force =     0.00009129    0.00033569    0.00000000
     atom   23 type  1   force =     0.00037683    0.00000000    0.00012746
     atom   24 type  1   force =     0.00000000    0.00025524   -0.00025524
     atom   25 type  1   force =     0.00000000    0.00000000    0.00000000
     atom   26 type  1   force =     0.00037683    0.00012746    0.00000000
     atom   27 type  1   force =     0.00009129    0.00000000    0.00033569
     atom   28 type  1   force =     0.00000000   -0.00025524    0.00025524
     atom   29 type  1   force =     0.00000000    0.00000000    0.00000000
     atom   30 type  1   force =     0.00009129   -0.00033569    0.00000000
     atom   31 type  1   force =     0.00009129    0.00000000   -0.00033569
     atom   32 type  1   force =     0.00000000   -0.00025524   -0.00025524

     Total force =     0.001664     Total SCF correction =     0.006916
     SCF correction compared to forces is large: reduce conv_thr to get better values


     Computing stress (Cartesian axis) and pressure

          total   stress  (Ry/bohr**3)                   (kbar)     P=      -18.72
  -0.00018407   0.00000000   0.00000000          -27.08        0.00        0.00
   0.00000000  -0.00009886   0.00000000            0.00      -14.54        0.00
   0.00000000   0.00000000  -0.00009886            0.00        0.00      -14.54


     Writing output data file /scratch/AfToGzVpNOIVUdWM.save/
 
     init_run     :     29.13s CPU     29.67s WALL (       1 calls)
     electrons    :   1014.61s CPU   1030.79s WALL (       1 calls)
     forces       :     11.17s CPU     11.31s WALL (       1 calls)
     stress       :     66.67s CPU     67.18s WALL (       1 calls)

     Called by init_run:
     wfcinit      :     28.48s CPU     28.96s WALL (       1 calls)
     potinit      :      0.19s CPU      0.20s WALL (       1 calls)
     hinit0       :      0.14s CPU      0.15s WALL (       1 calls)

     Called by electrons:
     c_bands      :    905.60s CPU    919.79s WALL (      12 calls)
     sum_band     :    107.47s CPU    109.21s WALL (      12 calls)
     v_of_rho     :      0.18s CPU      0.19s WALL (      12 calls)
     newd         :      0.26s CPU      0.39s WALL (      12 calls)
     PAW_pot      :      0.99s CPU      1.06s WALL (      12 calls)
     mix_rho      :      0.06s CPU      0.08s WALL (      12 calls)

     Called by c_bands:
     init_us_2    :      3.77s CPU      3.84s WALL (    2025 calls)
     cegterg      :    891.30s CPU    905.27s WALL (     900 calls)

     Called by *egterg:
     cdiaghg      :    118.48s CPU    120.19s WALL (    3322 calls)
     h_psi        :    471.52s CPU    479.94s WALL (    3472 calls)
     s_psi        :     31.57s CPU     31.80s WALL (    3472 calls)
     g_psi        :      0.73s CPU      0.74s WALL (    2497 calls)

     Called by h_psi:
     h_psi:calbec :     62.01s CPU     62.50s WALL (    3472 calls)
     vloc_psi     :    377.45s CPU    384.75s WALL (    3472 calls)
     add_vuspsi   :     30.01s CPU     30.61s WALL (    3472 calls)

     General routines
     calbec       :    110.15s CPU    110.99s WALL (    4747 calls)
     fft          :      0.20s CPU      0.21s WALL (     180 calls)
     ffts         :      0.02s CPU      0.02s WALL (      24 calls)
     fftw         :    440.46s CPU    448.83s WALL ( 1627710 calls)
     interpolate  :      0.02s CPU      0.04s WALL (      12 calls)
 
     Parallel routines
     fft_scatt_xy :     28.07s CPU     28.52s WALL ( 1627914 calls)
     fft_scatt_yz :    364.06s CPU    371.31s WALL ( 1627914 calls)
 
     PWSCF        :  18m59.84s CPU  19m20.55s WALL

 
   This run was terminated on:  16:30:39  23Nov2021            

=------------------------------------------------------------------------------=
   JOB DONE.
=------------------------------------------------------------------------------=
