
     Program PWSCF v.6.7MaX starts on 23Nov2021 at 15:14:26 

     This program is part of the open-source Quantum ESPRESSO suite
     for quantum simulation of materials; please cite
         "P. Giannozzi et al., J. Phys.:Condens. Matter 21 395502 (2009);
         "P. Giannozzi et al., J. Phys.:Condens. Matter 29 465901 (2017);
          URL http://www.quantum-espresso.org", 
     in publications or presentations arising from this work. More details at
     http://www.quantum-espresso.org/quote

     Parallel version (MPI & OpenMP), running on      72 processor cores
     Number of MPI processes:                72
     Threads/MPI process:                     1

     MPI processes distributed on     1 nodes
     R & G space division:  proc/nbgrp/npool/nimage =      72
     Reading input from /rds/homes/b/bxp912/jobs/20211014_ru_eos/wd/ec/ec_1_006.in
Warning: card &CELL ignored
Warning: card CELL_DYNAMICS = 'BFGS', ignored
Warning: card CELL_FACTOR = 2.0, ignored
Warning: card PRESS = 0.0, ignored
Warning: card / ignored

     Current dimensions of program PWSCF are:
     Max number of different atomic species (ntypx) = 10
     Max number of k-points (npk) =  40000
     Max angular momentum in pseudopotentials (lmaxx) =  3
     file Ru.pbe-spn-kjpaw_psl.1.0.0.UPF: wavefunction(s)  4D renormalized

     Subspace diagonalization in iterative solution of the eigenvalue problem:
     one sub-group per band group will be used
     ELPA distributed-memory algorithm (size of sub-group:  8*  8 procs)

     Found symmetry operation: I + (  0.2500  0.2500  0.0000)
     This is a supercell, fractional translations are disabled
     Message from routine setup:
     using ibrav=0 with symmetry is DISCOURAGED, use correct ibrav instead
 
     Parallelization info
     --------------------
     sticks:   dense  smooth     PW     G-vecs:    dense   smooth      PW
     Min          98      65     17                 6264     3363     477
     Max          99      66     19                 6269     3366     482
     Sum        7125    4705   1285               451287   242217   34521
 


     bravais-lattice index     =            0
     lattice parameter (alat)  =      14.4007  a.u.
     unit-cell volume          =    2995.7780 (a.u.)^3
     number of atoms/cell      =           32
     number of atomic types    =            1
     number of electrons       =       512.00
     number of Kohn-Sham states=          307
     kinetic-energy cutoff     =      71.0000  Ry
     charge density cutoff     =     430.0000  Ry
     scf convergence threshold =      1.0E-06
     mixing beta               =       0.1000
     number of iterations used =           10  plain     mixing
     Exchange-correlation= SLA  PW   PBX  PBC
                           (   1   4   3   4   0   0   0)

     celldm(1)=  14.400742  celldm(2)=   0.000000  celldm(3)=   0.000000
     celldm(4)=   0.000000  celldm(5)=   0.000000  celldm(6)=   0.000000

     crystal axes: (cart. coord. in units of alat)
               a(1) = (   1.003125   0.000000   0.000000 )  
               a(2) = (   0.000000   1.000000   0.000000 )  
               a(3) = (   0.000000   0.000000   1.000000 )  

     reciprocal axes: (cart. coord. in units 2 pi/alat)
               b(1) = (  0.996885  0.000000  0.000000 )  
               b(2) = (  0.000000  1.000000  0.000000 )  
               b(3) = (  0.000000  0.000000  1.000000 )  


     PseudoPot. # 1 for Ru read from file:
     /rds/homes/b/bxp912/pp/Ru.pbe-spn-kjpaw_psl.1.0.0.UPF
     MD5 check sum: 0ae1f594dea09af7be8575c3a481d1ae
     Pseudo is Projector augmented-wave + core cor, Zval = 16.0
     Generated using "atomic" code by A. Dal Corso  v.5.1
     Shape of augmentation charge: PSQ
     Using radial grid of 1233 points,  6 beta functions with: 
                l(1) =   0
                l(2) =   0
                l(3) =   1
                l(4) =   1
                l(5) =   2
                l(6) =   2
     Q(r) pseudized with 0 coefficients 


     atomic species   valence    mass     pseudopotential
        Ru            16.00   101.07000     Ru( 1.00)

     16 Sym. Ops., with inversion, found



   Cartesian axes

     site n.     atom                  positions (alat units)
         1           Ru  tau(   1) = (   0.0000000   0.0000000   0.0000000  )
         2           Ru  tau(   2) = (   0.2507813   0.2500000   0.0000000  )
         3           Ru  tau(   3) = (   0.2507813   0.0000000   0.2499995  )
         4           Ru  tau(   4) = (   0.0000000   0.2500000   0.2499995  )
         5           Ru  tau(   5) = (   0.0000000   0.0000000   0.5000000  )
         6           Ru  tau(   6) = (   0.2507802   0.2499990   0.5000000  )
         7           Ru  tau(   7) = (   0.2507813   0.0000000   0.7499995  )
         8           Ru  tau(   8) = (   0.0000000   0.2500000   0.7499995  )
         9           Ru  tau(   9) = (   0.0000000   0.5000002   0.0000000  )
        10           Ru  tau(  10) = (   0.2507813   0.7500004   0.0000000  )
        11           Ru  tau(  11) = (   0.2507802   0.5000002   0.2499984  )
        12           Ru  tau(  12) = (   0.0000000   0.7500004   0.2499995  )
        13           Ru  tau(  13) = (   0.0000000   0.5000002   0.5000000  )
        14           Ru  tau(  14) = (   0.2507802   0.7500015   0.5000000  )
        15           Ru  tau(  15) = (   0.2507802   0.5000002   0.7500005  )
        16           Ru  tau(  16) = (   0.0000000   0.7500004   0.7499995  )
        17           Ru  tau(  17) = (   0.5015627   0.0000000   0.0000000  )
        18           Ru  tau(  18) = (   0.7523442   0.2500000   0.0000000  )
        19           Ru  tau(  19) = (   0.7523442   0.0000000   0.2499995  )
        20           Ru  tau(  20) = (   0.5015627   0.2499990   0.2499984  )
        21           Ru  tau(  21) = (   0.5015627   0.0000000   0.5000000  )
        22           Ru  tau(  22) = (   0.7523452   0.2499990   0.5000000  )
        23           Ru  tau(  23) = (   0.7523442   0.0000000   0.7499995  )
        24           Ru  tau(  24) = (   0.5015627   0.2499990   0.7500005  )
        25           Ru  tau(  25) = (   0.5015627   0.5000002   0.0000000  )
        26           Ru  tau(  26) = (   0.7523442   0.7500004   0.0000000  )
        27           Ru  tau(  27) = (   0.7523452   0.5000002   0.2499984  )
        28           Ru  tau(  28) = (   0.5015627   0.7500015   0.2499984  )
        29           Ru  tau(  29) = (   0.5015627   0.5000002   0.5000000  )
        30           Ru  tau(  30) = (   0.7523452   0.7500015   0.5000000  )
        31           Ru  tau(  31) = (   0.7523452   0.5000002   0.7500005  )
        32           Ru  tau(  32) = (   0.5015627   0.7500015   0.7500005  )

     number of k points=    75  Marzari-Vanderbilt smearing, width (Ry)=  0.0400
                       cart. coord. in units 2pi/alat
        k(    1) = (   0.0553825   0.0555556   0.0555556), wk =   0.0219479
        k(    2) = (   0.0553825   0.0555556   0.1666667), wk =   0.0438957
        k(    3) = (   0.0553825   0.0555556   0.2777778), wk =   0.0438957
        k(    4) = (   0.0553825   0.0555556   0.3888889), wk =   0.0438957
        k(    5) = (   0.0553825   0.0555556  -0.5000000), wk =   0.0219479
        k(    6) = (   0.0553825   0.1666667   0.1666667), wk =   0.0219479
        k(    7) = (   0.0553825   0.1666667   0.2777778), wk =   0.0438957
        k(    8) = (   0.0553825   0.1666667   0.3888889), wk =   0.0438957
        k(    9) = (   0.0553825   0.1666667  -0.5000000), wk =   0.0219479
        k(   10) = (   0.0553825   0.2777778   0.2777778), wk =   0.0219479
        k(   11) = (   0.0553825   0.2777778   0.3888889), wk =   0.0438957
        k(   12) = (   0.0553825   0.2777778  -0.5000000), wk =   0.0219479
        k(   13) = (   0.0553825   0.3888889   0.3888889), wk =   0.0219479
        k(   14) = (   0.0553825   0.3888889  -0.5000000), wk =   0.0219479
        k(   15) = (   0.0553825  -0.5000000  -0.5000000), wk =   0.0054870
        k(   16) = (   0.1661475   0.0555556   0.0555556), wk =   0.0219479
        k(   17) = (   0.1661475   0.0555556   0.1666667), wk =   0.0438957
        k(   18) = (   0.1661475   0.0555556   0.2777778), wk =   0.0438957
        k(   19) = (   0.1661475   0.0555556   0.3888889), wk =   0.0438957
        k(   20) = (   0.1661475   0.0555556  -0.5000000), wk =   0.0219479
        k(   21) = (   0.1661475   0.1666667   0.1666667), wk =   0.0219479
        k(   22) = (   0.1661475   0.1666667   0.2777778), wk =   0.0438957
        k(   23) = (   0.1661475   0.1666667   0.3888889), wk =   0.0438957
        k(   24) = (   0.1661475   0.1666667  -0.5000000), wk =   0.0219479
        k(   25) = (   0.1661475   0.2777778   0.2777778), wk =   0.0219479
        k(   26) = (   0.1661475   0.2777778   0.3888889), wk =   0.0438957
        k(   27) = (   0.1661475   0.2777778  -0.5000000), wk =   0.0219479
        k(   28) = (   0.1661475   0.3888889   0.3888889), wk =   0.0219479
        k(   29) = (   0.1661475   0.3888889  -0.5000000), wk =   0.0219479
        k(   30) = (   0.1661475  -0.5000000  -0.5000000), wk =   0.0054870
        k(   31) = (   0.2769124   0.0555556   0.0555556), wk =   0.0219479
        k(   32) = (   0.2769124   0.0555556   0.1666667), wk =   0.0438957
        k(   33) = (   0.2769124   0.0555556   0.2777778), wk =   0.0438957
        k(   34) = (   0.2769124   0.0555556   0.3888889), wk =   0.0438957
        k(   35) = (   0.2769124   0.0555556  -0.5000000), wk =   0.0219479
        k(   36) = (   0.2769124   0.1666667   0.1666667), wk =   0.0219479
        k(   37) = (   0.2769124   0.1666667   0.2777778), wk =   0.0438957
        k(   38) = (   0.2769124   0.1666667   0.3888889), wk =   0.0438957
        k(   39) = (   0.2769124   0.1666667  -0.5000000), wk =   0.0219479
        k(   40) = (   0.2769124   0.2777778   0.2777778), wk =   0.0219479
        k(   41) = (   0.2769124   0.2777778   0.3888889), wk =   0.0438957
        k(   42) = (   0.2769124   0.2777778  -0.5000000), wk =   0.0219479
        k(   43) = (   0.2769124   0.3888889   0.3888889), wk =   0.0219479
        k(   44) = (   0.2769124   0.3888889  -0.5000000), wk =   0.0219479
        k(   45) = (   0.2769124  -0.5000000  -0.5000000), wk =   0.0054870
        k(   46) = (   0.3876774   0.0555556   0.0555556), wk =   0.0219479
        k(   47) = (   0.3876774   0.0555556   0.1666667), wk =   0.0438957
        k(   48) = (   0.3876774   0.0555556   0.2777778), wk =   0.0438957
        k(   49) = (   0.3876774   0.0555556   0.3888889), wk =   0.0438957
        k(   50) = (   0.3876774   0.0555556  -0.5000000), wk =   0.0219479
        k(   51) = (   0.3876774   0.1666667   0.1666667), wk =   0.0219479
        k(   52) = (   0.3876774   0.1666667   0.2777778), wk =   0.0438957
        k(   53) = (   0.3876774   0.1666667   0.3888889), wk =   0.0438957
        k(   54) = (   0.3876774   0.1666667  -0.5000000), wk =   0.0219479
        k(   55) = (   0.3876774   0.2777778   0.2777778), wk =   0.0219479
        k(   56) = (   0.3876774   0.2777778   0.3888889), wk =   0.0438957
        k(   57) = (   0.3876774   0.2777778  -0.5000000), wk =   0.0219479
        k(   58) = (   0.3876774   0.3888889   0.3888889), wk =   0.0219479
        k(   59) = (   0.3876774   0.3888889  -0.5000000), wk =   0.0219479
        k(   60) = (   0.3876774  -0.5000000  -0.5000000), wk =   0.0054870
        k(   61) = (  -0.4984424   0.0555556   0.0555556), wk =   0.0109739
        k(   62) = (  -0.4984424   0.0555556   0.1666667), wk =   0.0219479
        k(   63) = (  -0.4984424   0.0555556   0.2777778), wk =   0.0219479
        k(   64) = (  -0.4984424   0.0555556   0.3888889), wk =   0.0219479
        k(   65) = (  -0.4984424   0.0555556  -0.5000000), wk =   0.0109739
        k(   66) = (  -0.4984424   0.1666667   0.1666667), wk =   0.0109739
        k(   67) = (  -0.4984424   0.1666667   0.2777778), wk =   0.0219479
        k(   68) = (  -0.4984424   0.1666667   0.3888889), wk =   0.0219479
        k(   69) = (  -0.4984424   0.1666667  -0.5000000), wk =   0.0109739
        k(   70) = (  -0.4984424   0.2777778   0.2777778), wk =   0.0109739
        k(   71) = (  -0.4984424   0.2777778   0.3888889), wk =   0.0219479
        k(   72) = (  -0.4984424   0.2777778  -0.5000000), wk =   0.0109739
        k(   73) = (  -0.4984424   0.3888889   0.3888889), wk =   0.0109739
        k(   74) = (  -0.4984424   0.3888889  -0.5000000), wk =   0.0109739
        k(   75) = (  -0.4984424  -0.5000000  -0.5000000), wk =   0.0027435

     Dense  grid:   451287 G-vectors     FFT dimensions: (  96,  96,  96)

     Smooth grid:   242217 G-vectors     FFT dimensions: (  80,  80,  80)

     Estimated max dynamical RAM per process >     186.07 MB

     Estimated total dynamical RAM >      13.08 GB

     Check: negative core charge=   -0.000002

     Initial potential from superposition of free atoms

     starting charge  511.97959, renormalised to  512.00000
     Starting wfcs are  320 randomized atomic wfcs
     Checking if some PAW data can be deallocated... 

     total cpu time spent up to now is       36.2 secs

     Self-consistent Calculation

     iteration #  1     ecut=    71.00 Ry     beta= 0.10
     Davidson diagonalization with overlap
     ethr =  1.00E-02,  avg # of iterations =  3.4

     Threshold (ethr) on eigenvalues was too large:
     Diagonalizing with lowered threshold

     Davidson diagonalization with overlap
     ethr =  8.29E-05,  avg # of iterations =  5.4

     total cpu time spent up to now is      218.7 secs

     total energy              =  -13813.41213164 Ry
     estimated scf accuracy    <       0.63733288 Ry

     iteration #  2     ecut=    71.00 Ry     beta= 0.10
     Davidson diagonalization with overlap
     ethr =  1.24E-04,  avg # of iterations =  1.1

     total cpu time spent up to now is      283.2 secs

     total energy              =  -13813.20648925 Ry
     estimated scf accuracy    <       0.39802688 Ry

     iteration #  3     ecut=    71.00 Ry     beta= 0.10
     Davidson diagonalization with overlap
     ethr =  7.77E-05,  avg # of iterations =  2.3

     total cpu time spent up to now is      366.6 secs

     total energy              =  -13813.29911155 Ry
     estimated scf accuracy    <       0.03543972 Ry

     iteration #  4     ecut=    71.00 Ry     beta= 0.10
     Davidson diagonalization with overlap
     ethr =  6.92E-06,  avg # of iterations =  2.6

     total cpu time spent up to now is      438.9 secs

     total energy              =  -13813.29971390 Ry
     estimated scf accuracy    <       0.00878003 Ry

     iteration #  5     ecut=    71.00 Ry     beta= 0.10
     Davidson diagonalization with overlap
     ethr =  1.71E-06,  avg # of iterations =  1.9

     total cpu time spent up to now is      500.9 secs

     total energy              =  -13813.30114623 Ry
     estimated scf accuracy    <       0.00553686 Ry

     iteration #  6     ecut=    71.00 Ry     beta= 0.10
     Davidson diagonalization with overlap
     ethr =  1.08E-06,  avg # of iterations =  3.7

     total cpu time spent up to now is      606.0 secs

     total energy              =  -13813.29931836 Ry
     estimated scf accuracy    <       0.01631731 Ry

     iteration #  7     ecut=    71.00 Ry     beta= 0.10
     Davidson diagonalization with overlap
     ethr =  1.08E-06,  avg # of iterations =  2.4

     total cpu time spent up to now is      694.2 secs

     total energy              =  -13813.30057357 Ry
     estimated scf accuracy    <       0.00127973 Ry

     iteration #  8     ecut=    71.00 Ry     beta= 0.10
     Davidson diagonalization with overlap
     ethr =  2.50E-07,  avg # of iterations =  2.0

     total cpu time spent up to now is      765.5 secs

     total energy              =  -13813.30060828 Ry
     estimated scf accuracy    <       0.00027987 Ry

     iteration #  9     ecut=    71.00 Ry     beta= 0.10
     Davidson diagonalization with overlap
     ethr =  5.47E-08,  avg # of iterations =  2.1

     total cpu time spent up to now is      832.3 secs

     total energy              =  -13813.30057080 Ry
     estimated scf accuracy    <       0.00011301 Ry

     iteration # 10     ecut=    71.00 Ry     beta= 0.10
     Davidson diagonalization with overlap
     ethr =  2.21E-08,  avg # of iterations =  3.1

     total cpu time spent up to now is      916.1 secs

     total energy              =  -13813.30059005 Ry
     estimated scf accuracy    <       0.00000426 Ry

     iteration # 11     ecut=    71.00 Ry     beta= 0.10
     Davidson diagonalization with overlap
     ethr =  8.32E-10,  avg # of iterations =  4.1

     total cpu time spent up to now is     1012.1 secs

     End of self-consistent calculation

          k = 0.0554 0.0556 0.0556 ( 30326 PWs)   bands (ev):

   -49.9897 -49.8918 -49.8908 -49.8908 -49.8729 -49.8718 -49.8718 -49.8367
   -49.8367 -49.8366 -49.8274 -49.8264 -49.8263 -49.8263 -49.8262 -49.8262
   -49.8261 -49.8257 -49.8257 -49.8256 -49.8175 -49.8175 -49.8175 -49.7740
   -49.7726 -49.7726 -49.7725 -49.7724 -49.7720 -49.7719 -49.7715 -49.7714
   -20.3896 -20.3896 -20.3895 -20.3855 -20.3279 -20.3279 -20.3269 -20.1322
   -20.1276 -20.1276 -20.1210 -20.1210 -20.1165 -20.1165 -20.1161 -20.1161
   -20.1012 -20.0962 -20.0961 -20.0778 -20.0778 -20.0744 -20.0744 -20.0741
   -20.0741 -20.0281 -20.0281 -20.0243 -20.0243 -20.0237 -20.0237 -19.9272
   -19.9272 -19.9264 -19.8550 -19.8550 -19.8538 -19.8471 -19.8471 -19.8463
   -19.8142 -19.8142 -19.8135 -19.8135 -19.8127 -19.8127 -19.7740 -19.7740
   -19.7730 -19.7681 -19.7681 -19.7673 -19.7673 -19.7653 -19.7652 -19.7646
   -19.7646 -19.7577 -19.7569 -19.7569 -19.7531 -19.5981 -19.5981 -19.5948
   -19.5947 -19.5938 -19.5931 -19.5659 -19.5659 -19.5633 -19.5633 -19.5621
   -19.5621 -19.5503 -19.5503 -19.5465 -19.5392 -19.5375 -19.5374 -19.5370
   -19.5369 -19.5369 -19.5369 -19.5336 -19.5336 -19.5334 -19.5333 -19.5332
   -19.5315 -19.5287 -19.5186 -19.5186 -19.5153 -19.4057 -19.3990 -19.3986
    15.2735  16.8391  16.8392  16.8419  17.1156  17.1333  17.1333  17.1333
    17.3059  17.3059  17.3092  17.5167  17.5278  17.5280  17.6899  17.7007
    17.7008  18.2321  18.2322  18.2487  18.2488  18.2494  18.2495  18.5512
    18.5620  18.5620  18.8176  18.8177  18.8183  18.8211  18.8351  18.8351
    18.9246  18.9260  18.9261  18.9275  18.9276  18.9276  18.9276  18.9283
    18.9284  19.4113  19.4113  19.4197  19.4197  19.4267  19.4267  19.5524
    19.5684  19.5685  19.5837  19.5837  19.6001  19.6002  19.6014  19.6014
    19.6493  19.6642  19.6643  19.9129  19.9130  19.9179  19.9180  19.9198
    19.9199  19.9199  19.9200  19.9230  19.9230  19.9243  19.9267  19.9267
    19.9308  19.9309  20.0909  20.0909  20.0940  20.3568  20.3784  20.3784
    20.3925  20.4240  20.4240  20.4309  20.4458  20.4944  20.5341  20.5487
    21.4877  21.5166  21.5166  21.6547  21.6862  21.6862  21.7222  21.7222
    21.7324  21.8217  21.8217  21.8228  21.8229  21.8311  21.8311  21.8365
    21.8365  21.8443  22.1283  22.1283  22.1453  22.2500  22.2501  22.2604
    22.4959  22.4959  22.5117  22.5738  22.5738  22.5810  22.5811  22.5819
    22.5819  22.5924  22.5924  22.6066  22.6333  22.6333  22.6432  22.8213
    22.8214  22.8219  22.8219  22.8345  22.8345  22.8617  22.9064  22.9941
    22.9941  23.0070  23.6488  23.6489  23.6693  23.7020  23.7021  23.7062
    23.8091  23.8092  23.8268  23.9039  24.6294  24.6295  24.6318  24.6628
    24.6822  24.6974  24.7121  24.7121  24.9834  24.9918  24.9918  25.0122
    25.0122  25.0222  25.1659  25.1659  25.1671  25.1671  25.1784  25.1820
    25.1820  25.1919  25.1919  26.6103  26.6103  26.6323  26.7477  26.8072
    26.8072  27.1407  27.1408

          k = 0.0554 0.0556 0.1667 ( 30308 PWs)   bands (ev):

   -49.9864 -49.9096 -49.8899 -49.8890 -49.8713 -49.8702 -49.8529 -49.8470
   -49.8468 -49.8363 -49.8351 -49.8348 -49.8291 -49.8263 -49.8261 -49.8258
   -49.8257 -49.8240 -49.8177 -49.8160 -49.8158 -49.8090 -49.8088 -49.7753
   -49.7743 -49.7741 -49.7738 -49.7733 -49.7730 -49.7728 -49.7723 -49.7719
   -20.3821 -20.3783 -20.3782 -20.3702 -20.3195 -20.3186 -20.3150 -20.1586
   -20.1454 -20.1450 -20.1363 -20.1339 -20.1324 -20.1299 -20.1242 -20.1225
   -20.1224 -20.1035 -20.0984 -20.0876 -20.0848 -20.0747 -20.0746 -20.0714
   -20.0696 -20.0358 -20.0323 -20.0191 -20.0153 -20.0049 -19.9757 -19.9748
   -19.9401 -19.9387 -19.8956 -19.8941 -19.8638 -19.8623 -19.8536 -19.8518
   -19.8220 -19.7849 -19.7843 -19.7723 -19.7723 -19.7720 -19.7682 -19.7680
   -19.7670 -19.7658 -19.7591 -19.7589 -19.7532 -19.7525 -19.7516 -19.7511
   -19.7508 -19.7496 -19.7472 -19.7343 -19.7337 -19.6297 -19.6256 -19.6022
   -19.6009 -19.5896 -19.5857 -19.5704 -19.5698 -19.5692 -19.5659 -19.5613
   -19.5579 -19.5561 -19.5532 -19.5530 -19.5498 -19.5481 -19.5456 -19.5375
   -19.5369 -19.5369 -19.5368 -19.5364 -19.5343 -19.5341 -19.5320 -19.5300
   -19.5289 -19.5271 -19.5191 -19.5069 -19.5039 -19.4229 -19.4045 -19.4023
    15.3597  16.8899  16.9028  16.9056  17.1552  17.1903  17.1903  17.2077
    17.2250  17.3440  17.3674  17.3711  17.5791  17.5899  17.7242  17.7556
    17.7660  18.1273  18.1292  18.2812  18.2903  18.2975  18.3046  18.3064
    18.5068  18.5908  18.6004  18.6123  18.6130  18.6631  18.6800  18.6816
    18.8544  18.8671  18.8673  18.8675  18.8917  18.8937  18.9603  18.9734
    19.0229  19.0237  19.1171  19.3971  19.4047  19.4152  19.4239  19.4657
    19.4779  19.4798  19.4925  19.5415  19.5520  19.6340  19.6346  19.6710
    19.7397  19.7442  19.7658  19.7698  19.8640  19.8747  19.8823  19.9034
    19.9078  19.9185  19.9197  19.9237  19.9303  20.1681  20.1709  20.1922
    20.1940  20.2153  20.2697  20.3101  20.3219  20.3519  20.4079  20.4456
    20.4533  20.4588  20.4606  20.4792  20.4819  20.4913  20.5592  20.5930
    21.2620  21.2809  21.3896  21.4116  21.5030  21.5196  21.6295  21.6299
    21.6599  21.7572  21.7669  21.7895  21.9337  21.9385  21.9423  21.9689
    21.9742  22.0156  22.0213  22.0535  22.1094  22.1213  22.4315  22.4445
    22.4511  22.4561  22.4650  22.4781  22.5763  22.5830  22.5909  22.5984
    22.7117  22.7221  22.7395  22.7417  22.8196  22.8317  22.8430  22.8472
    22.8848  22.9019  23.0454  23.0464  23.0616  23.1087  23.1187  23.1945
    23.2269  23.2379  23.2386  23.2882  23.2938  23.4783  23.4952  23.7116
    23.7294  23.9033  23.9170  23.9721  24.4212  24.4444  24.5420  24.5440
    24.5610  24.5890  24.6502  24.6637  24.6642  24.8565  24.9202  25.0410
    25.0410  25.0630  25.0644  25.0713  25.1611  25.1645  25.1681  25.1719
    25.3508  25.3577  25.5797  26.0948  26.1121  26.5045  26.5521  26.6173
    26.6397  27.0854  27.0857

          k = 0.0554 0.0556 0.2778 ( 30286 PWs)   bands (ev):

   -49.9799 -49.9274 -49.8863 -49.8854 -49.8683 -49.8672 -49.8570 -49.8565
   -49.8434 -49.8429 -49.8357 -49.8350 -49.8307 -49.8262 -49.8261 -49.8258
   -49.8257 -49.8225 -49.8182 -49.8063 -49.8059 -49.8009 -49.8004 -49.7819
   -49.7777 -49.7770 -49.7769 -49.7760 -49.7738 -49.7730 -49.7722 -49.7720
   -20.3637 -20.3563 -20.3561 -20.3445 -20.3031 -20.3023 -20.2895 -20.2042
   -20.1897 -20.1893 -20.1685 -20.1685 -20.1683 -20.1394 -20.1362 -20.1334
   -20.1303 -20.1022 -20.1006 -20.0804 -20.0783 -20.0771 -20.0754 -20.0747
   -20.0428 -20.0381 -20.0378 -20.0354 -20.0035 -20.0001 -19.9628 -19.9605
   -19.9341 -19.9323 -19.9288 -19.9277 -19.8928 -19.8911 -19.8904 -19.8889
   -19.7891 -19.7863 -19.7723 -19.7673 -19.7637 -19.7607 -19.7537 -19.7483
   -19.7410 -19.7398 -19.7394 -19.7329 -19.7329 -19.7268 -19.7259 -19.7229
   -19.7228 -19.7057 -19.6963 -19.6961 -19.6894 -19.6598 -19.6550 -19.6166
   -19.6155 -19.5947 -19.5910 -19.5906 -19.5876 -19.5842 -19.5832 -19.5815
   -19.5755 -19.5727 -19.5697 -19.5685 -19.5531 -19.5487 -19.5407 -19.5403
   -19.5388 -19.5369 -19.5367 -19.5366 -19.5353 -19.5293 -19.5272 -19.5269
   -19.5199 -19.5041 -19.5020 -19.5019 -19.4995 -19.4533 -19.4154 -19.4126
    15.5294  16.8491  16.9882  17.0271  17.0300  17.2519  17.3035  17.3036
    17.3374  17.4196  17.4899  17.4944  17.6308  17.6998  17.7097  17.8831
    17.8928  17.9203  17.9230  18.0687  18.1719  18.2718  18.2723  18.3393
    18.3747  18.3889  18.4045  18.4195  18.5041  18.5073  18.5590  18.5699
    18.6688  18.6764  18.7226  18.7249  18.8414  18.8432  18.9193  18.9294
    19.0966  19.0992  19.2943  19.3016  19.3587  19.3624  19.3650  19.3712
    19.3743  19.3826  19.3996  19.4181  19.4268  19.5131  19.5251  19.6731
    19.6790  19.7356  19.7942  19.8011  19.8614  19.8669  19.9135  19.9267
    19.9296  19.9412  19.9976  20.0026  20.0351  20.2068  20.2567  20.2650
    20.2677  20.2775  20.3291  20.3767  20.5191  20.5597  20.5816  20.5911
    20.5934  20.6081  20.6130  20.6512  20.6856  20.7166  20.9886  21.0013
    21.0481  21.0503  21.0657  21.0711  21.2680  21.3800  21.3815  21.4158
    21.4284  21.4867  21.8560  21.8893  21.8962  22.0983  22.1067  22.1152
    22.1209  22.1538  22.1574  22.2306  22.2346  22.3477  22.3573  22.4473
    22.4576  22.5703  22.5760  22.5763  22.5857  22.5882  22.6082  22.6145
    22.6638  22.6707  22.6861  22.7326  22.7612  22.7657  22.8792  22.9470
    22.9498  22.9530  23.0184  23.0212  23.1539  23.2848  23.3519  23.3558
    23.3583  23.4402  23.4456  23.4833  23.5128  23.5199  23.5340  23.7370
    23.7662  23.8905  23.9022  24.1340  24.1596  24.1653  24.3374  24.3377
    24.3712  24.4997  24.5001  24.5092  24.5356  24.5959  24.8108  24.8110
    24.8281  24.8296  24.8732  25.1588  25.1629  25.1688  25.1706  25.3148
    25.5893  25.6018  25.7848  25.7875  25.9756  26.0917  26.1097  26.1350
    26.4334  26.9699  26.9703

          k = 0.0554 0.0556 0.3889 ( 30248 PWs)   bands (ev):

   -49.9705 -49.9438 -49.8810 -49.8802 -49.8661 -49.8655 -49.8638 -49.8628
   -49.8512 -49.8505 -49.8348 -49.8322 -49.8261 -49.8260 -49.8259 -49.8258
   -49.8212 -49.8190 -49.8184 -49.7974 -49.7969 -49.7934 -49.7928 -49.7914
   -49.7829 -49.7821 -49.7813 -49.7804 -49.7737 -49.7733 -49.7721 -49.7720
   -20.3350 -20.3245 -20.3242 -20.3091 -20.2790 -20.2783 -20.2525 -20.2520
   -20.2381 -20.2377 -20.2180 -20.2107 -20.2103 -20.1450 -20.1378 -20.1355
   -20.1240 -20.1219 -20.1168 -20.1166 -20.0915 -20.0908 -20.0528 -20.0482
   -20.0239 -20.0214 -20.0066 -20.0019 -19.9915 -19.9883 -19.9825 -19.9792
   -19.9692 -19.9671 -19.9289 -19.9258 -19.9255 -19.9231 -19.8854 -19.8839
   -19.8143 -19.8122 -19.7660 -19.7625 -19.7611 -19.7558 -19.7324 -19.7256
   -19.7182 -19.6968 -19.6964 -19.6939 -19.6936 -19.6906 -19.6903 -19.6901
   -19.6892 -19.6875 -19.6819 -19.6613 -19.6611 -19.6602 -19.6377 -19.6368
   -19.6241 -19.6237 -19.6214 -19.6210 -19.6197 -19.6169 -19.6045 -19.6037
   -19.6020 -19.6015 -19.5807 -19.5594 -19.5580 -19.5472 -19.5429 -19.5367
   -19.5366 -19.5365 -19.5358 -19.5345 -19.5334 -19.5247 -19.5244 -19.5237
   -19.5211 -19.5035 -19.5020 -19.4968 -19.4764 -19.4741 -19.4314 -19.4285
    15.7767  16.4577  17.1273  17.2055  17.2084  17.4046  17.4715  17.4716
    17.4731  17.5201  17.5318  17.6723  17.6740  17.6770  17.6779  17.8589
    17.8690  17.8703  17.8789  17.9605  17.9608  18.0284  18.0639  18.0725
    18.2092  18.2181  18.2956  18.3007  18.5018  18.5125  18.5144  18.5192
    18.5702  18.5835  18.7623  18.7631  18.7834  18.7880  19.0055  19.0098
    19.0120  19.0185  19.1054  19.1086  19.2516  19.2547  19.2918  19.2957
    19.3335  19.3445  19.3940  19.4064  19.4096  19.4134  19.6556  19.6613
    19.6732  19.7123  19.7166  19.8348  19.9311  19.9378  19.9461  19.9507
    19.9574  19.9647  20.0839  20.1352  20.1497  20.1657  20.1718  20.1780
    20.1800  20.3108  20.3674  20.3718  20.6459  20.7037  20.7168  20.7196
    20.7281  20.7347  20.7438  20.7452  20.7912  20.8236  21.0271  21.0356
    21.0531  21.1089  21.1654  21.1993  21.2004  21.2026  21.2082  21.2269
    21.6768  21.7021  22.0162  22.0198  22.0318  22.0872  22.0918  22.2116
    22.2146  22.2175  22.2685  22.2864  22.2881  22.3292  22.3322  22.3647
    22.3694  22.4149  22.4181  22.4251  22.4320  22.4950  22.5377  22.5421
    22.5796  22.5813  22.5994  22.6043  22.6889  22.6920  22.9080  22.9106
    23.0177  23.0309  23.0598  23.1702  23.2227  23.3636  23.3663  23.4931
    23.6809  23.6836  23.6874  23.7911  23.7987  23.7990  23.8375  23.8393
    24.0596  24.0604  24.0623  24.1197  24.2117  24.2161  24.2205  24.2756
    24.2826  24.2932  24.3336  24.3375  24.5064  24.5116  24.5193  24.5226
    24.5671  24.5693  24.6445  25.0969  25.1044  25.1589  25.1613  25.1693
    25.1700  25.3281  25.5658  25.5792  25.6853  26.1889  26.1897  26.2504
    26.6232  26.7862  26.7865

          k = 0.0554 0.0556-0.5000 ( 30260 PWs)   bands (ev):

   -49.9583 -49.9583 -49.8742 -49.8742 -49.8735 -49.8735 -49.8581 -49.8580
   -49.8572 -49.8572 -49.8336 -49.8336 -49.8261 -49.8260 -49.8259 -49.8259
   -49.8200 -49.8199 -49.8038 -49.8037 -49.7895 -49.7894 -49.7889 -49.7888
   -49.7869 -49.7868 -49.7861 -49.7860 -49.7735 -49.7735 -49.7721 -49.7720
   -20.2972 -20.2972 -20.2843 -20.2843 -20.2840 -20.2839 -20.2662 -20.2661
   -20.2480 -20.2479 -20.2474 -20.2473 -20.2034 -20.2033 -20.1298 -20.1298
   -20.1287 -20.1286 -20.1091 -20.1091 -20.1083 -20.1083 -20.0225 -20.0224
   -20.0185 -20.0184 -19.9998 -19.9997 -19.9974 -19.9973 -19.9678 -19.9678
   -19.9636 -19.9636 -19.9565 -19.9564 -19.9535 -19.9534 -19.8468 -19.8467
   -19.8451 -19.8450 -19.7643 -19.7642 -19.7584 -19.7583 -19.7120 -19.7119
   -19.7057 -19.7056 -19.6661 -19.6661 -19.6647 -19.6646 -19.6641 -19.6640
   -19.6589 -19.6589 -19.6575 -19.6574 -19.6568 -19.6567 -19.6544 -19.6544
   -19.6431 -19.6431 -19.6430 -19.6430 -19.6305 -19.6304 -19.6300 -19.6299
   -19.6172 -19.6172 -19.5520 -19.5519 -19.5453 -19.5452 -19.5447 -19.5446
   -19.5446 -19.5446 -19.5367 -19.5366 -19.5362 -19.5361 -19.5228 -19.5227
   -19.5113 -19.5113 -19.5108 -19.5107 -19.4520 -19.4519 -19.4494 -19.4493
    16.0914  16.0917  17.2952  17.2953  17.4267  17.4270  17.4298  17.4300
    17.6113  17.6114  17.6789  17.6791  17.6917  17.6917  17.6919  17.6920
    17.7522  17.7522  17.9127  17.9129  17.9199  17.9200  18.0757  18.0760
    18.0827  18.0829  18.2826  18.2828  18.2896  18.2898  18.6415  18.6416
    18.6473  18.6474  18.7785  18.7787  18.7889  18.7891  18.9316  18.9317
    18.9324  18.9326  19.1267  19.1268  19.1286  19.1288  19.3349  19.3350
    19.3488  19.3489  19.3604  19.3604  19.3628  19.3628  19.6649  19.6649
    19.6661  19.6661  19.9270  19.9272  19.9394  19.9395  19.9537  19.9539
    19.9553  19.9554  20.0616  20.0617  20.0718  20.0719  20.2268  20.2270
    20.4180  20.4181  20.4264  20.4264  20.5239  20.5239  20.5305  20.5305
    20.8171  20.8172  20.8865  20.8866  20.8992  20.8992  20.9394  20.9394
    20.9755  20.9757  21.0052  21.0053  21.6673  21.6674  21.6683  21.6683
    21.6739  21.6740  21.7045  21.7045  22.0707  22.0708  22.0710  22.0711
    22.2669  22.2670  22.3400  22.3400  22.3674  22.3674  22.3838  22.3839
    22.3866  22.3867  22.4602  22.4604  22.4636  22.4638  22.4762  22.4763
    22.4767  22.4768  22.5395  22.5396  22.5432  22.5433  22.7921  22.7922
    22.7923  22.7924  23.1103  23.1105  23.7244  23.7244  23.7264  23.7264
    23.7397  23.7399  23.8213  23.8214  23.9973  23.9973  24.0026  24.0026
    24.0472  24.0472  24.0833  24.0834  24.1597  24.1598  24.1662  24.1663
    24.1777  24.1777  24.1821  24.1822  24.4545  24.4546  24.6301  24.6302
    24.6322  24.6322  24.6657  24.6658  25.0499  25.0499  25.0582  25.0582
    25.1598  25.1599  25.1696  25.1697  26.0004  26.0006  26.5265  26.5265
    26.5267  26.5267  27.0167

          k = 0.0554 0.1667 0.1667 ( 30304 PWs)   bands (ev):

   -49.9832 -49.9074 -49.9074 -49.8881 -49.8698 -49.8586 -49.8517 -49.8517
   -49.8464 -49.8464 -49.8348 -49.8348 -49.8324 -49.8275 -49.8230 -49.8230
   -49.8224 -49.8224 -49.8161 -49.8161 -49.8093 -49.8093 -49.8022 -49.7753
   -49.7753 -49.7747 -49.7747 -49.7744 -49.7744 -49.7741 -49.7740 -49.7738
   -20.3750 -20.3750 -20.3633 -20.3512 -20.3104 -20.3074 -20.3074 -20.1653
   -20.1653 -20.1591 -20.1591 -20.1324 -20.1280 -20.1280 -20.1255 -20.1255
   -20.1252 -20.1251 -20.1161 -20.1161 -20.0973 -20.0973 -20.0966 -20.0965
   -20.0398 -20.0140 -20.0140 -20.0120 -20.0120 -19.9904 -19.9903 -19.9681
   -19.9681 -19.9520 -19.9355 -19.8792 -19.8590 -19.8590 -19.8224 -19.8224
   -19.8097 -19.8096 -19.7872 -19.7872 -19.7849 -19.7665 -19.7664 -19.7549
   -19.7549 -19.7535 -19.7534 -19.7478 -19.7478 -19.7471 -19.7471 -19.7452
   -19.7378 -19.7377 -19.7104 -19.7104 -19.6959 -19.6336 -19.6336 -19.6223
   -19.6223 -19.5950 -19.5898 -19.5801 -19.5687 -19.5687 -19.5663 -19.5662
   -19.5607 -19.5607 -19.5597 -19.5593 -19.5561 -19.5560 -19.5481 -19.5444
   -19.5444 -19.5390 -19.5390 -19.5370 -19.5310 -19.5304 -19.5304 -19.5289
   -19.5232 -19.5232 -19.5078 -19.5078 -19.4873 -19.4447 -19.4096 -19.4013
    15.4445  16.9538  16.9539  16.9632  17.1754  17.2279  17.2795  17.2795
    17.2857  17.2859  17.4049  17.4049  17.4369  17.6264  17.7919  17.7920
    17.8026  18.1611  18.1612  18.1869  18.1870  18.3387  18.3388  18.3487
    18.3487  18.3945  18.3945  18.4724  18.5371  18.5372  18.6457  18.6987
    18.6988  18.7185  18.7186  18.7432  18.9008  18.9762  18.9762  18.9961
    18.9961  19.0160  19.0160  19.1420  19.1420  19.3614  19.3614  19.4556
    19.4556  19.4763  19.5415  19.5416  19.5767  19.5767  19.6256  19.6256
    19.6501  19.8333  19.8334  19.8403  19.8403  19.9282  19.9282  19.9934
    19.9935  20.0299  20.1116  20.1116  20.2383  20.2383  20.2390  20.2390
    20.2806  20.2807  20.2977  20.3923  20.3944  20.3945  20.4011  20.4180
    20.4500  20.4500  20.5030  20.5450  20.5450  20.5485  20.6021  20.6123
    21.1265  21.2256  21.2778  21.2778  21.5278  21.5278  21.7032  21.7059
    21.7059  21.7131  21.7132  21.7815  21.7815  21.7980  21.7981  21.8238
    21.8239  21.9956  22.0508  22.1495  22.1496  22.1768  22.1768  22.2321
    22.3130  22.5775  22.5776  22.6975  22.7058  22.7058  22.7266  22.7266
    22.7694  22.7694  22.8129  22.8418  22.8418  22.8675  22.9160  22.9160
    22.9807  22.9807  23.0063  23.0485  23.0485  23.1419  23.2347  23.2915
    23.2915  23.3223  23.3223  23.4105  23.4129  23.4129  23.5333  23.5333
    23.7579  23.9508  24.0967  24.1125  24.1126  24.2658  24.2658  24.4268
    24.5354  24.5354  24.5911  24.6892  24.6892  24.6921  24.6997  24.9585
    24.9585  25.0411  25.0411  25.0413  25.0413  25.0570  25.0570  25.1109
    25.3118  25.6090  25.9357  25.9357  26.0370  26.0370  26.5626  26.5627
    27.0989  27.0989  27.2023

          k = 0.0554 0.1667 0.2778 ( 30274 PWs)   bands (ev):

   -49.9768 -49.9250 -49.9033 -49.8846 -49.8699 -49.8669 -49.8561 -49.8493
   -49.8452 -49.8429 -49.8356 -49.8341 -49.8340 -49.8296 -49.8291 -49.8209
   -49.8193 -49.8166 -49.8117 -49.8104 -49.8065 -49.8013 -49.7956 -49.7817
   -49.7785 -49.7782 -49.7777 -49.7764 -49.7751 -49.7745 -49.7740 -49.7739
   -20.3606 -20.3572 -20.3381 -20.3220 -20.2941 -20.2924 -20.2833 -20.2115
   -20.2028 -20.1697 -20.1675 -20.1653 -20.1651 -20.1612 -20.1401 -20.1400
   -20.1363 -20.1224 -20.1205 -20.1130 -20.1116 -20.1044 -20.0998 -20.0834
   -20.0633 -20.0301 -20.0135 -19.9995 -19.9986 -19.9851 -19.9756 -19.9741
   -19.9537 -19.9471 -19.9218 -19.9088 -19.8943 -19.8589 -19.8456 -19.8217
   -19.8076 -19.8054 -19.7831 -19.7749 -19.7692 -19.7560 -19.7551 -19.7547
   -19.7448 -19.7427 -19.7408 -19.7309 -19.7192 -19.7159 -19.7142 -19.7128
   -19.7115 -19.7075 -19.6754 -19.6731 -19.6639 -19.6597 -19.6533 -19.6485
   -19.6103 -19.6061 -19.6000 -19.5990 -19.5930 -19.5917 -19.5894 -19.5892
   -19.5777 -19.5722 -19.5667 -19.5614 -19.5598 -19.5595 -19.5523 -19.5503
   -19.5493 -19.5441 -19.5415 -19.5377 -19.5313 -19.5304 -19.5246 -19.5096
   -19.5091 -19.5073 -19.5034 -19.4919 -19.4788 -19.4778 -19.4205 -19.4070
    15.6114  16.9123  17.0527  17.0764  17.0787  17.2511  17.3201  17.4039
    17.4046  17.4208  17.4793  17.5261  17.5669  17.6989  17.7162  17.8915
    17.9241  17.9409  17.9783  18.0821  18.1175  18.2061  18.2203  18.2449
    18.2689  18.3046  18.3846  18.4124  18.4303  18.4305  18.4365  18.4520
    18.5819  18.6097  18.6271  18.7252  18.7558  18.8307  18.8387  18.9932
    19.0069  19.0464  19.0735  19.1892  19.2104  19.2743  19.2906  19.3195
    19.3289  19.3811  19.4170  19.4469  19.5305  19.5529  19.5740  19.6481
    19.6655  19.7032  19.8153  19.9318  19.9659  20.0033  20.0220  20.0607
    20.1011  20.1307  20.1482  20.1533  20.2446  20.2508  20.2557  20.2812
    20.3107  20.3860  20.3967  20.4303  20.4541  20.5118  20.5508  20.5693
    20.6379  20.6635  20.6738  20.6860  20.6923  20.7002  20.9196  20.9601
    20.9658  21.0233  21.0488  21.2680  21.2721  21.2883  21.4421  21.4861
    21.5548  21.5683  21.6116  21.7472  21.7763  21.8284  21.9107  21.9903
    22.0175  22.0459  22.1088  22.1492  22.2047  22.2061  22.3016  22.3847
    22.4148  22.4852  22.4915  22.5347  22.5417  22.5652  22.6806  22.6914
    22.6939  22.7033  22.8005  22.8173  22.8857  22.9117  22.9910  23.0011
    23.0243  23.0500  23.0540  23.2297  23.3263  23.3304  23.3497  23.3695
    23.4068  23.5427  23.5921  23.6203  23.6275  23.6366  23.6534  23.6760
    23.6839  23.7614  23.8830  23.9817  24.1314  24.2418  24.3398  24.3653
    24.3746  24.4457  24.4790  24.5808  24.6142  24.6189  24.7672  24.7681
    24.8123  24.8138  24.8735  24.9346  25.0414  25.0421  25.0500  25.0742
    25.1266  25.4997  25.5333  25.9209  26.0390  26.3615  26.4517  26.5445
    26.5832  26.6599  27.5499

          k = 0.0554 0.1667 0.3889 ( 30248 PWs)   bands (ev):

   -49.9675 -49.9412 -49.8973 -49.8803 -49.8795 -49.8650 -49.8625 -49.8503
   -49.8457 -49.8435 -49.8385 -49.8357 -49.8332 -49.8306 -49.8195 -49.8177
   -49.8173 -49.8165 -49.8120 -49.8013 -49.7976 -49.7939 -49.7912 -49.7896
   -49.7844 -49.7833 -49.7819 -49.7798 -49.7750 -49.7747 -49.7740 -49.7739
   -20.3356 -20.3293 -20.3037 -20.2840 -20.2703 -20.2703 -20.2587 -20.2493
   -20.2479 -20.2152 -20.2081 -20.2029 -20.1896 -20.1638 -20.1586 -20.1477
   -20.1466 -20.1441 -20.1404 -20.1306 -20.1077 -20.0934 -20.0919 -20.0702
   -20.0505 -20.0334 -20.0258 -20.0079 -20.0056 -19.9796 -19.9567 -19.9555
   -19.9457 -19.9336 -19.9267 -19.9061 -19.8936 -19.8788 -19.8787 -19.8640
   -19.8355 -19.8082 -19.7563 -19.7555 -19.7478 -19.7419 -19.7393 -19.7384
   -19.7317 -19.7268 -19.7228 -19.6992 -19.6920 -19.6871 -19.6868 -19.6846
   -19.6816 -19.6787 -19.6704 -19.6639 -19.6432 -19.6427 -19.6417 -19.6324
   -19.6280 -19.6263 -19.6258 -19.6251 -19.6251 -19.6215 -19.6212 -19.5956
   -19.5908 -19.5875 -19.5717 -19.5685 -19.5637 -19.5635 -19.5620 -19.5578
   -19.5554 -19.5528 -19.5363 -19.5359 -19.5325 -19.5280 -19.5240 -19.5198
   -19.5122 -19.5058 -19.4919 -19.4815 -19.4757 -19.4636 -19.4365 -19.4200
    15.8547  16.5254  17.1925  17.2411  17.2579  17.3819  17.4661  17.5404
    17.5719  17.5811  17.5897  17.6111  17.6908  17.7066  17.7297  17.7573
    17.8015  17.8390  17.9114  17.9123  18.0085  18.0129  18.0761  18.1129
    18.1173  18.1290  18.2371  18.2950  18.2979  18.2992  18.4760  18.4935
    18.5515  18.5673  18.5977  18.6165  18.7277  18.9205  18.9347  18.9485
    18.9576  19.0501  19.0711  19.1297  19.1312  19.1648  19.1910  19.1971
    19.2341  19.2530  19.3927  19.3934  19.4030  19.5063  19.6694  19.6704
    19.6827  19.7502  19.9476  19.9506  20.0040  20.0152  20.0420  20.0571
    20.0792  20.1151  20.1420  20.1922  20.1952  20.2049  20.2530  20.2599
    20.3708  20.3741  20.3955  20.5996  20.6733  20.6825  20.7050  20.7652
    20.8124  20.8248  20.8255  20.8442  20.8551  20.8563  20.8656  20.9024
    20.9857  21.0748  21.1264  21.1446  21.2260  21.2266  21.3145  21.3404
    21.5704  21.6309  21.7052  21.7761  21.7914  21.8463  21.9464  22.0045
    22.0180  22.0488  22.1037  22.1077  22.1224  22.1238  22.1854  22.2524
    22.3235  22.3781  22.4696  22.5100  22.5169  22.5825  22.6125  22.6301
    22.6495  22.7417  22.7830  22.8014  22.8970  22.9107  22.9197  22.9910
    23.0524  23.0899  23.2226  23.2680  23.3189  23.3210  23.3976  23.4077
    23.6034  23.6136  23.6843  23.7809  23.8974  23.9090  23.9300  23.9372
    23.9591  23.9707  23.9819  24.0743  24.0840  24.1615  24.1710  24.2586
    24.3370  24.4536  24.4577  24.5067  24.5168  24.5196  24.5204  24.5247
    24.6565  24.6688  24.7480  24.9851  25.0420  25.0430  25.0441  25.0457
    25.0568  25.2386  25.5149  25.7465  25.7838  25.9545  26.1027  26.2826
    26.7737  27.0976  27.3769

          k = 0.0554 0.1667-0.5000 ( 30252 PWs)   bands (ev):

   -49.9555 -49.9555 -49.8896 -49.8895 -49.8729 -49.8728 -49.8570 -49.8569
   -49.8412 -49.8412 -49.8412 -49.8411 -49.8320 -49.8320 -49.8184 -49.8183
   -49.8141 -49.8140 -49.8033 -49.8032 -49.7922 -49.7921 -49.7899 -49.7898
   -49.7874 -49.7873 -49.7843 -49.7842 -49.7749 -49.7748 -49.7739 -49.7739
   -20.3011 -20.3010 -20.2926 -20.2926 -20.2619 -20.2619 -20.2420 -20.2419
   -20.2396 -20.2395 -20.2389 -20.2389 -20.2020 -20.2019 -20.1553 -20.1553
   -20.1486 -20.1485 -20.1466 -20.1466 -20.0930 -20.0930 -20.0725 -20.0724
   -20.0381 -20.0380 -20.0322 -20.0321 -19.9858 -19.9858 -19.9554 -19.9554
   -19.9263 -19.9263 -19.9097 -19.9097 -19.9084 -19.9083 -19.8686 -19.8686
   -19.8404 -19.8403 -19.7561 -19.7560 -19.7399 -19.7399 -19.7172 -19.7171
   -19.7063 -19.7062 -19.6985 -19.6984 -19.6920 -19.6920 -19.6726 -19.6726
   -19.6632 -19.6631 -19.6547 -19.6546 -19.6546 -19.6546 -19.6528 -19.6528
   -19.6496 -19.6495 -19.6226 -19.6226 -19.6148 -19.6147 -19.5967 -19.5966
   -19.5946 -19.5945 -19.5810 -19.5810 -19.5792 -19.5791 -19.5599 -19.5598
   -19.5556 -19.5555 -19.5474 -19.5474 -19.5341 -19.5340 -19.5157 -19.5157
   -19.5145 -19.5145 -19.4808 -19.4808 -19.4571 -19.4570 -19.4393 -19.4392
    16.1644  16.1647  17.3614  17.3616  17.4499  17.4501  17.4805  17.4807
    17.5663  17.5663  17.6643  17.6644  17.7344  17.7346  17.7784  17.7786
    17.8062  17.8063  17.8456  17.8457  17.9443  17.9445  17.9814  17.9816
    18.0025  18.0027  18.1534  18.1536  18.3449  18.3451  18.3909  18.3910
    18.6683  18.6684  18.6933  18.6935  18.7410  18.7411  18.8250  18.8252
    19.0744  19.0744  19.1022  19.1024  19.1362  19.1363  19.1682  19.1682
    19.2531  19.2531  19.3051  19.3052  19.3247  19.3248  19.8018  19.8019
    19.8572  19.8573  19.8727  19.8728  19.9282  19.9283  19.9764  19.9764
    20.1208  20.1209  20.1473  20.1474  20.3204  20.3205  20.3402  20.3404
    20.4173  20.4174  20.4702  20.4703  20.5176  20.5177  20.7064  20.7064
    20.8226  20.8227  20.9227  20.9228  20.9721  20.9722  21.0042  21.0043
    21.0152  21.0153  21.0499  21.0500  21.4770  21.4771  21.5188  21.5189
    21.5518  21.5519  21.6018  21.6018  21.7820  21.7821  21.7851  21.7852
    22.0430  22.0431  22.2187  22.2187  22.2365  22.2366  22.2646  22.2646
    22.2994  22.2995  22.3505  22.3507  22.4140  22.4141  22.5251  22.5252
    22.7161  22.7162  22.7434  22.7435  22.8437  22.8438  23.0955  23.0956
    23.1441  23.1442  23.1494  23.1496  23.2123  23.2125  23.6649  23.6650
    23.7507  23.7508  23.7574  23.7574  23.9694  23.9694  24.0283  24.0283
    24.1542  24.1543  24.2126  24.2127  24.2162  24.2162  24.2367  24.2367
    24.2375  24.2376  24.2449  24.2450  24.2496  24.2497  24.4340  24.4340
    24.5785  24.5785  24.9995  24.9995  25.0432  25.0433  25.0483  25.0484
    25.3099  25.3101  25.5164  25.5165  25.5388  25.5388  26.0564  26.0566
    27.1191  27.1192  27.5445

          k = 0.0554 0.2778 0.2778 ( 30245 PWs)   bands (ev):

   -49.9706 -49.9204 -49.9204 -49.8827 -49.8813 -49.8641 -49.8543 -49.8543
   -49.8417 -49.8417 -49.8403 -49.8322 -49.8321 -49.8321 -49.8169 -49.8168
   -49.8163 -49.8162 -49.8076 -49.8075 -49.8029 -49.8029 -49.7906 -49.7815
   -49.7814 -49.7809 -49.7809 -49.7792 -49.7792 -49.7758 -49.7757 -49.7741
   -20.3470 -20.3470 -20.3104 -20.2901 -20.2781 -20.2710 -20.2710 -20.2112
   -20.2112 -20.2074 -20.2074 -20.1707 -20.1707 -20.1474 -20.1474 -20.1450
   -20.1450 -20.1396 -20.1396 -20.1360 -20.1360 -20.1079 -20.1052 -20.1052
   -20.0928 -20.0928 -20.0113 -20.0022 -19.9760 -19.9760 -19.9593 -19.9592
   -19.9519 -19.9408 -19.9082 -19.9082 -19.8383 -19.8383 -19.8351 -19.8106
   -19.8106 -19.8039 -19.8038 -19.7715 -19.7714 -19.7515 -19.7515 -19.7426
   -19.7426 -19.7345 -19.7345 -19.7296 -19.7167 -19.7167 -19.6974 -19.6974
   -19.6792 -19.6792 -19.6775 -19.6775 -19.6439 -19.6439 -19.6426 -19.6426
   -19.6257 -19.6256 -19.6250 -19.6144 -19.5958 -19.5958 -19.5948 -19.5897
   -19.5897 -19.5865 -19.5865 -19.5835 -19.5609 -19.5609 -19.5592 -19.5552
   -19.5544 -19.5450 -19.5325 -19.5324 -19.5321 -19.5317 -19.5218 -19.5218
   -19.5174 -19.5064 -19.5064 -19.4765 -19.4765 -19.4631 -19.4317 -19.4066
    15.7728  17.0356  17.0357  17.1704  17.1786  17.1786  17.3020  17.3869
    17.5526  17.5526  17.5981  17.5981  17.7070  17.7485  17.8319  17.8320
    17.9130  17.9672  17.9792  17.9793  17.9998  17.9998  18.0919  18.0919
    18.1377  18.1378  18.2148  18.2148  18.4148  18.4959  18.4960  18.5119
    18.5119  18.5397  18.5398  18.6271  18.6271  18.7370  18.7371  18.8063
    18.8063  18.9205  19.0683  19.0684  19.1370  19.1378  19.1378  19.3825
    19.3826  19.4002  19.4002  19.4476  19.4476  19.4494  19.4976  19.8366
    19.8367  19.9613  19.9613  20.0182  20.0183  20.0935  20.0936  20.1361
    20.1362  20.1484  20.1485  20.2311  20.2422  20.3150  20.3151  20.3868
    20.3922  20.4703  20.4703  20.6239  20.6240  20.6560  20.6835  20.7339
    20.7381  20.7564  20.7664  20.7665  20.7961  20.8103  20.8133  20.8133
    20.9706  20.9706  21.1032  21.1032  21.3456  21.3457  21.4854  21.4854
    21.5392  21.5392  21.6424  21.6425  21.6697  21.7462  21.7476  21.7476
    21.7853  21.7853  21.9740  22.0032  22.1249  22.1466  22.1466  22.1536
    22.1536  22.2762  22.3490  22.4761  22.4762  22.6440  22.6457  22.6457
    22.9045  22.9320  22.9320  23.0557  23.0557  23.0883  23.0883  23.1663
    23.1885  23.1977  23.1977  23.2998  23.2999  23.3887  23.3887  23.3997
    23.3997  23.4422  23.4422  23.7101  23.7368  23.7369  23.8016  23.8903
    23.8903  23.8973  23.9150  23.9150  24.0693  24.1232  24.2915  24.2915
    24.4875  24.6294  24.6294  24.6446  24.6466  24.6575  24.6575  24.6809
    24.8152  24.8152  24.8205  24.8205  24.8534  24.8534  24.8818  24.8818
    24.9713  25.3304  25.4224  25.4224  25.9345  25.9345  26.9944  26.9945
    27.2647  27.3204  27.3204

          k = 0.0554 0.2778 0.3889 ( 30275 PWs)   bands (ev):

   -49.9616 -49.9361 -49.9136 -49.8944 -49.8764 -49.8627 -49.8600 -49.8518
   -49.8486 -49.8446 -49.8399 -49.8351 -49.8293 -49.8216 -49.8163 -49.8136
   -49.8121 -49.8091 -49.8053 -49.8050 -49.7992 -49.7961 -49.7906 -49.7859
   -49.7859 -49.7857 -49.7849 -49.7810 -49.7798 -49.7784 -49.7752 -49.7744
   -20.3261 -20.3234 -20.2744 -20.2563 -20.2546 -20.2531 -20.2512 -20.2500
   -20.2397 -20.2036 -20.2035 -20.2023 -20.1881 -20.1858 -20.1716 -20.1695
   -20.1690 -20.1542 -20.1535 -20.1495 -20.1281 -20.1279 -20.1071 -20.1046
   -20.0971 -20.0657 -20.0362 -20.0356 -20.0064 -19.9805 -19.9379 -19.9310
   -19.9208 -19.9012 -19.8889 -19.8704 -19.8667 -19.8658 -19.8467 -19.8359
   -19.7985 -19.7961 -19.7790 -19.7652 -19.7580 -19.7545 -19.7416 -19.7376
   -19.7250 -19.7218 -19.7159 -19.7076 -19.7052 -19.7018 -19.6868 -19.6842
   -19.6748 -19.6740 -19.6727 -19.6698 -19.6623 -19.6500 -19.6398 -19.6342
   -19.6334 -19.6314 -19.6164 -19.6161 -19.6149 -19.6070 -19.6062 -19.6058
   -19.5929 -19.5848 -19.5824 -19.5758 -19.5705 -19.5705 -19.5699 -19.5693
   -19.5655 -19.5489 -19.5437 -19.5405 -19.5399 -19.5364 -19.5355 -19.5236
   -19.5108 -19.5103 -19.4938 -19.4635 -19.4558 -19.4499 -19.4479 -19.4139
    16.0082  16.6584  17.2133  17.3125  17.3200  17.3596  17.4044  17.5036
    17.6720  17.6923  17.7048  17.7280  17.7308  17.7437  17.7574  17.7747
    17.7955  17.8381  17.8816  17.9065  17.9237  17.9509  18.0160  18.0231
    18.0422  18.0688  18.2151  18.2296  18.2550  18.2567  18.2926  18.3602
    18.4363  18.5282  18.5880  18.6399  18.6524  18.6605  18.6941  18.6948
    18.7931  18.8912  18.9040  18.9854  19.0218  19.1500  19.1501  19.1863
    19.2737  19.3426  19.4754  19.4828  19.5129  19.5185  19.6948  19.7401
    19.7848  19.8066  19.8787  20.0227  20.0919  20.1075  20.1907  20.1937
    20.2310  20.2460  20.2500  20.3319  20.3812  20.3835  20.3860  20.5188
    20.5256  20.5934  20.5943  20.6156  20.6386  20.6478  20.7622  20.7858
    20.8475  20.8554  20.8606  20.8825  20.8849  20.9684  20.9951  21.0030
    21.0073  21.0727  21.1257  21.1421  21.2298  21.2900  21.3430  21.4353
    21.4881  21.4965  21.5204  21.5351  21.5962  21.6247  21.6417  21.6427
    21.7493  21.7594  21.7816  21.8583  21.9580  22.0038  22.0042  22.0675
    22.1812  22.1847  22.3398  22.3639  22.5054  22.5283  22.6196  22.6664
    22.8354  22.8648  22.8733  22.9297  22.9764  23.0848  23.1412  23.1475
    23.2339  23.2565  23.3143  23.4232  23.4279  23.4418  23.5127  23.5706
    23.6193  23.6238  23.7814  23.7820  23.7825  23.8339  24.0156  24.0569
    24.0703  24.0923  24.1343  24.1398  24.1528  24.1555  24.1630  24.1963
    24.2690  24.4193  24.4815  24.5116  24.5124  24.5135  24.5441  24.5495
    24.5495  24.6079  24.8170  24.8197  24.8339  24.8371  24.9007  24.9374
    25.2597  25.3967  25.4012  25.4160  25.4779  25.7817  26.6765  26.6867
    27.4288  27.6055  27.9339

          k = 0.0554 0.2778-0.5000 ( 30266 PWs)   bands (ev):

   -49.9500 -49.9499 -49.9049 -49.9048 -49.8702 -49.8701 -49.8549 -49.8548
   -49.8485 -49.8485 -49.8378 -49.8377 -49.8258 -49.8257 -49.8112 -49.8111
   -49.8084 -49.8084 -49.8024 -49.8023 -49.7947 -49.7946 -49.7919 -49.7919
   -49.7900 -49.7900 -49.7819 -49.7818 -49.7805 -49.7804 -49.7748 -49.7747
   -20.2955 -20.2954 -20.2908 -20.2908 -20.2320 -20.2319 -20.2301 -20.2300
   -20.2243 -20.2242 -20.2038 -20.2037 -20.1989 -20.1989 -20.1914 -20.1914
   -20.1891 -20.1891 -20.1643 -20.1643 -20.1169 -20.1168 -20.1069 -20.1068
   -20.0717 -20.0716 -20.0314 -20.0314 -20.0233 -20.0233 -19.9013 -19.9012
   -19.9012 -19.9012 -19.8834 -19.8833 -19.8646 -19.8645 -19.8494 -19.8494
   -19.8280 -19.8279 -19.7400 -19.7399 -19.7330 -19.7329 -19.7308 -19.7307
   -19.7217 -19.7217 -19.7174 -19.7174 -19.7073 -19.7073 -19.7022 -19.7021
   -19.6707 -19.6706 -19.6587 -19.6587 -19.6461 -19.6461 -19.6449 -19.6448
   -19.6260 -19.6259 -19.6216 -19.6216 -19.6181 -19.6181 -19.6046 -19.6046
   -19.5907 -19.5906 -19.5784 -19.5783 -19.5770 -19.5769 -19.5746 -19.5746
   -19.5645 -19.5644 -19.5529 -19.5528 -19.5395 -19.5394 -19.5207 -19.5207
   -19.5166 -19.5165 -19.4689 -19.4688 -19.4561 -19.4561 -19.4287 -19.4287
    16.3081  16.3084  17.4360  17.4363  17.4909  17.4911  17.5005  17.5006
    17.5570  17.5571  17.5849  17.5851  17.6691  17.6691  17.8448  17.8450
    17.8548  17.8549  17.9529  17.9529  17.9725  17.9725  18.0043  18.0044
    18.0072  18.0074  18.1334  18.1335  18.1542  18.1543  18.2607  18.2609
    18.4549  18.4551  18.5534  18.5535  18.6631  18.6631  18.7833  18.7835
    18.7890  18.7891  18.9330  18.9331  19.0335  19.0337  19.0768  19.0768
    19.4296  19.4296  19.5106  19.5107  19.5968  19.5968  19.6170  19.6171
    19.6525  19.6526  19.9194  19.9195  20.1459  20.1461  20.2681  20.2682
    20.2874  20.2874  20.3640  20.3641  20.3931  20.3931  20.4184  20.4185
    20.5050  20.5050  20.6687  20.6687  20.7603  20.7604  20.8675  20.8675
    20.8864  20.8864  20.9649  20.9649  20.9707  20.9708  21.0150  21.0151
    21.1634  21.1635  21.2028  21.2028  21.2188  21.2189  21.2206  21.2207
    21.4039  21.4040  21.4115  21.4115  21.5264  21.5264  21.5314  21.5315
    21.7447  21.7448  21.9637  21.9637  22.1085  22.1086  22.1120  22.1121
    22.1621  22.1622  22.2032  22.2033  22.3288  22.3289  22.5093  22.5095
    22.6984  22.6985  23.0141  23.0142  23.0477  23.0478  23.0992  23.0993
    23.2533  23.2535  23.5042  23.5043  23.5475  23.5475  23.6596  23.6598
    23.7582  23.7583  23.8259  23.8259  23.9043  23.9043  23.9056  23.9057
    24.1585  24.1585  24.1591  24.1592  24.2710  24.2710  24.3399  24.3399
    24.3407  24.3407  24.3498  24.3498  24.3814  24.3814  24.3843  24.3843
    24.4785  24.4786  24.8264  24.8265  24.8582  24.8583  24.9024  24.9025
    25.0523  25.0525  25.5918  25.5919  26.0115  26.0116  26.0869  26.0869
    27.7881  27.7883  28.1161

          k = 0.0554 0.3889 0.3889 ( 30259 PWs)   bands (ev):

   -49.9529 -49.9286 -49.9286 -49.9074 -49.8720 -49.8594 -49.8594 -49.8564
   -49.8502 -49.8462 -49.8462 -49.8393 -49.8143 -49.8143 -49.8086 -49.8086
   -49.8080 -49.8080 -49.8016 -49.8015 -49.7992 -49.7992 -49.7898 -49.7897
   -49.7892 -49.7892 -49.7874 -49.7874 -49.7826 -49.7772 -49.7771 -49.7751
   -20.3069 -20.3069 -20.2455 -20.2455 -20.2436 -20.2436 -20.2378 -20.2316
   -20.2275 -20.2275 -20.2087 -20.2016 -20.2016 -20.1922 -20.1922 -20.1669
   -20.1669 -20.1556 -20.1556 -20.1527 -20.1527 -20.1509 -20.1509 -20.1132
   -20.1131 -20.1121 -20.0728 -20.0310 -20.0232 -19.9721 -19.9721 -19.9008
   -19.8832 -19.8832 -19.8473 -19.8472 -19.8450 -19.8118 -19.8118 -19.7963
   -19.7963 -19.7962 -19.7961 -19.7788 -19.7788 -19.7341 -19.7341 -19.7309
   -19.7309 -19.7215 -19.7215 -19.7113 -19.7113 -19.7074 -19.7053 -19.7052
   -19.6900 -19.6900 -19.6652 -19.6652 -19.6554 -19.6554 -19.6482 -19.6433
   -19.6433 -19.6183 -19.6183 -19.6158 -19.6086 -19.6086 -19.6085 -19.6085
   -19.5906 -19.5854 -19.5853 -19.5844 -19.5844 -19.5749 -19.5713 -19.5620
   -19.5546 -19.5493 -19.5482 -19.5452 -19.5452 -19.5366 -19.5359 -19.5169
   -19.5169 -19.5117 -19.5116 -19.4647 -19.4430 -19.4405 -19.4405 -19.4150
    16.2320  16.8512  16.8514  17.3814  17.4284  17.4718  17.5036  17.5036
    17.5838  17.7360  17.7361  17.7580  17.7986  17.7987  17.8616  17.8617
    17.8686  17.8686  17.8760  17.8760  17.9024  17.9167  17.9167  17.9922
    17.9923  18.0612  18.1118  18.1718  18.1719  18.3660  18.3661  18.3713
    18.3713  18.3744  18.3745  18.3753  18.3754  18.6254  18.6255  18.6260
    18.6260  18.6818  18.6818  18.9302  18.9302  19.0719  19.2699  19.2699
    19.2759  19.2760  19.4368  19.6063  19.6063  19.6147  19.6243  19.6969
    19.6970  20.0228  20.0229  20.0230  20.1752  20.2886  20.2887  20.3860
    20.4109  20.4110  20.4216  20.4217  20.4253  20.4254  20.4692  20.4692
    20.5253  20.5713  20.7475  20.7475  20.8416  20.8416  20.8780  20.8964
    20.9043  20.9135  20.9225  20.9917  21.0086  21.0087  21.0616  21.0617
    21.2031  21.2032  21.2100  21.2100  21.2130  21.2547  21.2547  21.2925
    21.3812  21.3812  21.3834  21.3834  21.4337  21.4509  21.4696  21.4696
    21.5010  21.5011  21.6528  21.7002  21.7003  21.7308  21.7308  22.0258
    22.1610  22.1610  22.1908  22.1908  22.2731  22.2731  22.3084  22.4308
    22.7275  23.0354  23.1015  23.1016  23.1243  23.1243  23.3770  23.3770
    23.4014  23.4014  23.4928  23.4928  23.5549  23.5549  23.6280  23.6621
    23.8053  23.8053  23.9088  23.9380  23.9380  23.9542  23.9542  23.9666
    23.9667  24.0545  24.1658  24.2566  24.2942  24.3220  24.3220  24.3257
    24.3257  24.3586  24.4270  24.4888  24.4888  24.5211  24.5211  24.5508
    24.5508  24.5626  24.5646  24.5646  24.5919  24.5919  24.7617  24.7853
    24.7854  25.1166  25.2778  25.2778  26.0577  26.0577  27.3385  27.3385
    27.4077  27.4077  28.1019

          k = 0.0554 0.3889-0.5000 ( 30266 PWs)   bands (ev):

   -49.9418 -49.9418 -49.9189 -49.9189 -49.8663 -49.8662 -49.8553 -49.8552
   -49.8518 -49.8517 -49.8431 -49.8430 -49.8117 -49.8116 -49.8046 -49.8045
   -49.8033 -49.8032 -49.8009 -49.8009 -49.7971 -49.7970 -49.7949 -49.7948
   -49.7938 -49.7938 -49.7887 -49.7886 -49.7797 -49.7796 -49.7761 -49.7760
   -20.2807 -20.2806 -20.2789 -20.2789 -20.2269 -20.2269 -20.2268 -20.2268
   -20.2117 -20.2116 -20.2020 -20.2020 -20.1957 -20.1957 -20.1939 -20.1939
   -20.1770 -20.1770 -20.1622 -20.1621 -20.1551 -20.1550 -20.1405 -20.1404
   -20.1124 -20.1123 -20.0687 -20.0686 -20.0046 -20.0046 -19.9364 -19.9364
   -19.8466 -19.8466 -19.8380 -19.8380 -19.8238 -19.8237 -19.8101 -19.8100
   -19.7886 -19.7886 -19.7607 -19.7607 -19.7568 -19.7567 -19.7558 -19.7558
   -19.7481 -19.7481 -19.7168 -19.7167 -19.6967 -19.6967 -19.6957 -19.6956
   -19.6792 -19.6791 -19.6727 -19.6727 -19.6670 -19.6670 -19.6543 -19.6542
   -19.6335 -19.6334 -19.6329 -19.6329 -19.6003 -19.6002 -19.5983 -19.5983
   -19.5982 -19.5981 -19.5895 -19.5895 -19.5649 -19.5648 -19.5605 -19.5604
   -19.5572 -19.5571 -19.5517 -19.5516 -19.5347 -19.5346 -19.5300 -19.5300
   -19.5256 -19.5256 -19.4862 -19.4861 -19.4379 -19.4379 -19.4241 -19.4241
    16.5173  16.5176  17.0959  17.0962  17.5832  17.5833  17.5912  17.5913
    17.6776  17.6778  17.7059  17.7059  17.7329  17.7331  17.7367  17.7368
    17.8749  17.8750  17.9087  17.9087  18.0089  18.0091  18.0992  18.0994
    18.1007  18.1009  18.1279  18.1279  18.1324  18.1324  18.1786  18.1788
    18.3577  18.3578  18.3769  18.3770  18.4855  18.4857  18.5240  18.5240
    18.5456  18.5456  18.8448  18.8449  19.0631  19.0632  19.0761  19.0762
    19.4207  19.4208  19.4319  19.4320  19.6738  19.6738  19.7510  19.7511
    19.8821  19.8821  19.9510  19.9510  20.1345  20.1347  20.3828  20.3830
    20.4350  20.4351  20.4892  20.4893  20.5930  20.5930  20.6445  20.6446
    20.7600  20.7602  20.7719  20.7720  20.8015  20.8016  20.9566  20.9567
    20.9656  20.9656  20.9752  20.9753  21.0315  21.0315  21.0600  21.0600
    21.1033  21.1034  21.1599  21.1599  21.1671  21.1672  21.1719  21.1720
    21.3168  21.3168  21.3187  21.3188  21.4435  21.4435  21.4673  21.4674
    21.4987  21.4988  21.6475  21.6475  21.8681  21.8682  21.8903  21.8905
    21.9319  21.9319  21.9512  21.9513  22.1190  22.1191  22.3013  22.3015
    22.9281  22.9282  23.1771  23.1772  23.3046  23.3047  23.3453  23.3454
    23.3773  23.3774  23.6026  23.6027  23.6840  23.6841  23.7071  23.7072
    23.7781  23.7782  23.8590  23.8592  23.9744  23.9745  24.1134  24.1135
    24.1749  24.1749  24.2642  24.2642  24.3334  24.3334  24.3385  24.3385
    24.3609  24.3609  24.4295  24.4296  24.4328  24.4329  24.4680  24.4681
    24.4730  24.4730  24.5372  24.5373  24.5974  24.5975  24.6597  24.6598
    24.7722  24.7723  25.1304  25.1306  26.7094  26.7095  26.7129  26.7131
    28.0538  28.0539  28.1246

          k = 0.0554-0.5000-0.5000 ( 30264 PWs)   bands (ev):

   -49.9315 -49.9315 -49.9313 -49.9312 -49.8614 -49.8613 -49.8611 -49.8610
   -49.8479 -49.8479 -49.8477 -49.8476 -49.7994 -49.7993 -49.7993 -49.7992
   -49.7991 -49.7991 -49.7991 -49.7990 -49.7988 -49.7988 -49.7988 -49.7987
   -49.7986 -49.7985 -49.7985 -49.7984 -49.7778 -49.7778 -49.7776 -49.7775
   -20.2574 -20.2574 -20.2574 -20.2573 -20.2573 -20.2573 -20.2573 -20.2573
   -20.1869 -20.1869 -20.1868 -20.1868 -20.1867 -20.1867 -20.1866 -20.1866
   -20.1737 -20.1736 -20.1735 -20.1733 -20.1550 -20.1549 -20.1549 -20.1548
   -20.1163 -20.1162 -20.1162 -20.1161 -19.9716 -19.9715 -19.9715 -19.9715
   -19.7948 -19.7948 -19.7948 -19.7948 -19.7948 -19.7948 -19.7948 -19.7948
   -19.7876 -19.7875 -19.7875 -19.7875 -19.7874 -19.7873 -19.7872 -19.7872
   -19.7291 -19.7291 -19.7291 -19.7291 -19.6879 -19.6879 -19.6878 -19.6878
   -19.6877 -19.6876 -19.6876 -19.6876 -19.6798 -19.6797 -19.6797 -19.6797
   -19.6173 -19.6173 -19.6173 -19.6172 -19.6172 -19.6171 -19.6171 -19.6171
   -19.5824 -19.5823 -19.5822 -19.5822 -19.5649 -19.5649 -19.5649 -19.5649
   -19.5428 -19.5428 -19.5428 -19.5427 -19.5417 -19.5416 -19.5416 -19.5415
   -19.5084 -19.5084 -19.5082 -19.5081 -19.4271 -19.4271 -19.4271 -19.4271
    16.7838  16.7840  16.7840  16.7843  17.6440  17.6441  17.6441  17.6442
    17.7269  17.7269  17.7270  17.7271  17.7746  17.7747  17.7747  17.7747
    17.9116  17.9117  17.9117  17.9118  17.9118  17.9118  17.9120  17.9121
    18.2242  18.2242  18.2243  18.2243  18.2243  18.2244  18.2245  18.2246
    18.3242  18.3242  18.3242  18.3242  18.3242  18.3243  18.3243  18.3243
    18.5951  18.5951  18.5952  18.5953  19.2309  19.2309  19.2310  19.2310
    19.2311  19.2311  19.2312  19.2313  19.8008  19.8008  19.8009  19.8009
    20.0216  20.0217  20.0217  20.0219  20.2995  20.2996  20.2996  20.2997
    20.5125  20.5126  20.5126  20.5126  20.5254  20.5255  20.5255  20.5255
    20.8867  20.8867  20.8867  20.8867  20.8867  20.8867  20.8867  20.8868
    20.9791  20.9792  20.9792  20.9793  21.1509  21.1510  21.1510  21.1510
    21.1592  21.1592  21.1592  21.1592  21.3044  21.3045  21.3045  21.3046
    21.3046  21.3047  21.3047  21.3047  21.3054  21.3055  21.3055  21.3056
    21.5496  21.5497  21.5497  21.5498  21.6900  21.6900  21.6900  21.6901
    21.6901  21.6901  21.6901  21.6902  22.2104  22.2105  22.2106  22.2107
    23.1647  23.1648  23.1649  23.1650  23.3521  23.3521  23.3522  23.3523
    23.5715  23.5715  23.5716  23.5716  23.5716  23.5717  23.5718  23.5718
    24.0858  24.0859  24.0859  24.0860  24.2064  24.2064  24.2065  24.2066
    24.2066  24.2066  24.2067  24.2067  24.2116  24.2117  24.2117  24.2118
    24.4434  24.4435  24.4435  24.4436  24.4823  24.4823  24.4823  24.4823
    24.4823  24.4824  24.4824  24.4824  24.4898  24.4898  24.4898  24.4898
    24.7396  24.7397  24.7397  24.7398  27.3982  27.3982  27.3982  27.3983
    27.3983  27.3984  27.3984

          k = 0.1661 0.0556 0.0556 ( 30284 PWs)   bands (ev):

   -49.9864 -49.9103 -49.8890 -49.8890 -49.8702 -49.8702 -49.8543 -49.8469
   -49.8468 -49.8363 -49.8347 -49.8347 -49.8290 -49.8263 -49.8262 -49.8257
   -49.8257 -49.8241 -49.8178 -49.8162 -49.8162 -49.8089 -49.8089 -49.7773
   -49.7744 -49.7744 -49.7739 -49.7739 -49.7720 -49.7719 -49.7715 -49.7715
   -20.3822 -20.3784 -20.3784 -20.3704 -20.3197 -20.3197 -20.3140 -20.1622
   -20.1491 -20.1491 -20.1320 -20.1320 -20.1293 -20.1293 -20.1285 -20.1253
   -20.1253 -20.0989 -20.0989 -20.0846 -20.0846 -20.0711 -20.0711 -20.0698
   -20.0698 -20.0323 -20.0323 -20.0148 -20.0148 -20.0041 -19.9799 -19.9799
   -19.9395 -19.9395 -19.8949 -19.8949 -19.8631 -19.8631 -19.8522 -19.8521
   -19.8218 -19.7843 -19.7843 -19.7754 -19.7754 -19.7738 -19.7737 -19.7663
   -19.7646 -19.7645 -19.7557 -19.7557 -19.7529 -19.7529 -19.7523 -19.7520
   -19.7520 -19.7478 -19.7471 -19.7350 -19.7350 -19.6249 -19.6235 -19.6054
   -19.6054 -19.5870 -19.5870 -19.5729 -19.5729 -19.5698 -19.5698 -19.5613
   -19.5613 -19.5564 -19.5541 -19.5541 -19.5493 -19.5493 -19.5460 -19.5391
   -19.5342 -19.5335 -19.5335 -19.5329 -19.5328 -19.5315 -19.5307 -19.5300
   -19.5300 -19.5260 -19.5158 -19.5069 -19.5069 -19.4230 -19.4041 -19.4023
    15.3592  16.8920  16.9022  16.9022  17.1551  17.1902  17.1902  17.2076
    17.2145  17.3469  17.3677  17.3677  17.5893  17.5894  17.7148  17.7654
    17.7655  18.1129  18.1129  18.2962  18.2963  18.2969  18.3065  18.3066
    18.5054  18.6011  18.6011  18.6106  18.6106  18.6610  18.6790  18.6791
    18.8648  18.8649  18.8679  18.8679  18.8928  18.8928  18.9671  18.9671
    19.0240  19.0240  19.0996  19.3909  19.3909  19.4302  19.4303  19.4793
    19.4793  19.4939  19.4939  19.5501  19.5501  19.6364  19.6365  19.6618
    19.7440  19.7441  19.7555  19.7555  19.8468  19.8667  19.8668  19.9101
    19.9101  19.9252  19.9252  19.9375  19.9375  20.1724  20.1724  20.1978
    20.1978  20.2207  20.2703  20.2849  20.3251  20.3251  20.3902  20.4235
    20.4641  20.4703  20.4703  20.4885  20.4885  20.5085  20.5877  20.5954
    21.2876  21.2876  21.4161  21.4162  21.4820  21.5340  21.6425  21.6425
    21.6717  21.7542  21.7542  21.8073  21.9325  21.9325  21.9425  21.9656
    21.9656  22.0112  22.0112  22.0205  22.1005  22.1005  22.4296  22.4296
    22.4504  22.4505  22.4602  22.4602  22.5824  22.5825  22.5959  22.5959
    22.7097  22.7097  22.7324  22.7324  22.7905  22.8412  22.8415  22.8416
    22.8992  22.9305  23.0544  23.0544  23.0686  23.1084  23.1084  23.2030
    23.2262  23.2262  23.2434  23.2921  23.2921  23.4792  23.5183  23.7125
    23.7125  23.9031  23.9031  23.9868  24.4273  24.4273  24.5415  24.5415
    24.5479  24.5921  24.6495  24.6495  24.6497  24.8478  24.9341  25.0394
    25.0395  25.0419  25.0419  25.0691  25.1879  25.1879  25.1917  25.1917
    25.3624  25.3625  25.5892  26.0948  26.0948  26.4482  26.5734  26.6176
    26.6176  27.1110  27.1110

          k = 0.1661 0.0556 0.1667 ( 30293 PWs)   bands (ev):

   -49.9832 -49.9082 -49.9075 -49.8872 -49.8688 -49.8588 -49.8530 -49.8517
   -49.8462 -49.8462 -49.8344 -49.8344 -49.8323 -49.8274 -49.8233 -49.8229
   -49.8225 -49.8224 -49.8164 -49.8163 -49.8096 -49.8095 -49.8018 -49.7772
   -49.7759 -49.7757 -49.7752 -49.7749 -49.7737 -49.7735 -49.7728 -49.7720
   -20.3750 -20.3749 -20.3637 -20.3515 -20.3114 -20.3075 -20.3064 -20.1682
   -20.1649 -20.1623 -20.1585 -20.1303 -20.1295 -20.1288 -20.1275 -20.1257
   -20.1215 -20.1207 -20.1189 -20.1161 -20.1010 -20.0969 -20.0946 -20.0944
   -20.0347 -20.0135 -20.0126 -20.0085 -20.0085 -19.9942 -19.9907 -19.9723
   -19.9673 -19.9534 -19.9365 -19.8806 -19.8585 -19.8584 -19.8215 -19.8212
   -19.8119 -19.8097 -19.7899 -19.7865 -19.7858 -19.7697 -19.7626 -19.7532
   -19.7521 -19.7505 -19.7503 -19.7502 -19.7483 -19.7477 -19.7473 -19.7471
   -19.7396 -19.7388 -19.7110 -19.7105 -19.6968 -19.6373 -19.6322 -19.6191
   -19.6177 -19.5973 -19.5925 -19.5842 -19.5698 -19.5688 -19.5687 -19.5649
   -19.5628 -19.5607 -19.5602 -19.5587 -19.5587 -19.5573 -19.5454 -19.5417
   -19.5410 -19.5405 -19.5399 -19.5379 -19.5330 -19.5305 -19.5276 -19.5269
   -19.5218 -19.5209 -19.5078 -19.5048 -19.4901 -19.4445 -19.4093 -19.4016
    15.4440  16.9532  16.9560  16.9599  17.1753  17.2277  17.2758  17.2794
    17.2795  17.2854  17.4052  17.4082  17.4330  17.6362  17.7828  17.7913
    17.8121  18.1464  18.1588  18.1729  18.1884  18.3419  18.3494  18.3534
    18.3541  18.3940  18.3941  18.4697  18.5354  18.5360  18.6550  18.6971
    18.6987  18.7169  18.7197  18.7445  18.9131  18.9833  18.9837  18.9883
    18.9892  19.0140  19.0178  19.1261  19.1428  19.3561  19.3673  19.4641
    19.4651  19.4886  19.5372  19.5413  19.5704  19.5723  19.6200  19.6267
    19.6413  19.8224  19.8273  19.8391  19.8419  19.9207  19.9340  19.9951
    19.9991  20.0458  20.1118  20.1173  20.2102  20.2214  20.2419  20.2436
    20.2789  20.2840  20.3246  20.3762  20.3858  20.3971  20.4021  20.4251
    20.4624  20.4707  20.4793  20.5210  20.5640  20.5760  20.5949  20.6364
    21.1490  21.2496  21.2671  21.2884  21.5228  21.5405  21.6898  21.6898
    21.7012  21.7158  21.7163  21.7680  21.7915  21.7960  21.8077  21.8222
    21.8344  21.9754  22.0447  22.1492  22.1498  22.1676  22.1700  22.2173
    22.2934  22.5822  22.5833  22.6958  22.7055  22.7148  22.7200  22.7277
    22.7609  22.7654  22.7779  22.8407  22.8554  22.9019  22.9199  22.9227
    22.9817  22.9885  23.0002  23.0401  23.0409  23.1414  23.2309  23.2904
    23.2932  23.3195  23.3273  23.3994  23.4111  23.4193  23.5347  23.5544
    23.7424  23.9386  24.1101  24.1182  24.1210  24.2445  24.2484  24.4242
    24.5337  24.5366  24.6038  24.6731  24.6790  24.6932  24.7062  24.9374
    24.9386  25.0374  25.0445  25.0618  25.0658  25.0673  25.0809  25.1127
    25.3079  25.5968  25.9419  25.9433  26.0370  26.0539  26.5630  26.5844
    27.0468  27.0894  27.1748

          k = 0.1661 0.0556 0.2778 ( 30267 PWs)   bands (ev):

   -49.9768 -49.9250 -49.9040 -49.8838 -49.8702 -49.8658 -49.8557 -49.8505
   -49.8451 -49.8424 -49.8355 -49.8340 -49.8338 -49.8301 -49.8289 -49.8211
   -49.8194 -49.8169 -49.8114 -49.8105 -49.8068 -49.8017 -49.7951 -49.7817
   -49.7791 -49.7786 -49.7778 -49.7770 -49.7754 -49.7752 -49.7731 -49.7721
   -20.3605 -20.3569 -20.3386 -20.3223 -20.2951 -20.2914 -20.2834 -20.2112
   -20.2021 -20.1691 -20.1682 -20.1676 -20.1672 -20.1614 -20.1404 -20.1375
   -20.1369 -20.1197 -20.1188 -20.1107 -20.1071 -20.1069 -20.1042 -20.0832
   -20.0677 -20.0280 -20.0157 -19.9960 -19.9946 -19.9819 -19.9778 -19.9754
   -19.9578 -19.9478 -19.9207 -19.9111 -19.8935 -19.8575 -19.8483 -19.8193
   -19.8113 -19.8050 -19.7805 -19.7740 -19.7690 -19.7585 -19.7527 -19.7487
   -19.7477 -19.7467 -19.7393 -19.7289 -19.7204 -19.7167 -19.7140 -19.7120
   -19.7119 -19.7084 -19.6757 -19.6735 -19.6679 -19.6602 -19.6497 -19.6473
   -19.6070 -19.6067 -19.6041 -19.6002 -19.5939 -19.5915 -19.5893 -19.5862
   -19.5806 -19.5732 -19.5666 -19.5615 -19.5593 -19.5591 -19.5514 -19.5488
   -19.5466 -19.5459 -19.5410 -19.5403 -19.5316 -19.5283 -19.5252 -19.5105
   -19.5097 -19.5061 -19.5010 -19.4912 -19.4803 -19.4784 -19.4204 -19.4075
    15.6109  16.9119  17.0521  17.0733  17.0810  17.2510  17.3199  17.3948
    17.4047  17.4208  17.4796  17.5303  17.5619  17.6983  17.7251  17.9002
    17.9155  17.9380  17.9805  18.0820  18.1181  18.2054  18.2087  18.2415
    18.2700  18.2910  18.3856  18.4127  18.4302  18.4314  18.4438  18.4656
    18.5927  18.6104  18.6164  18.7240  18.7632  18.8292  18.8383  19.0031
    19.0147  19.0358  19.0716  19.1764  19.2151  19.2803  19.2868  19.3187
    19.3299  19.3836  19.4178  19.4553  19.5356  19.5373  19.5722  19.6417
    19.6611  19.6965  19.8105  19.9351  19.9784  19.9957  20.0266  20.0581
    20.0894  20.1075  20.1558  20.1734  20.2367  20.2457  20.2846  20.2863
    20.3057  20.3809  20.4291  20.4443  20.4538  20.5150  20.5366  20.5585
    20.6059  20.6631  20.6874  20.6897  20.7048  20.7210  20.9373  20.9397
    20.9853  21.0422  21.0466  21.2650  21.2715  21.2857  21.4342  21.4673
    21.5539  21.5693  21.6195  21.7359  21.7821  21.8339  21.8940  21.9979
    22.0150  22.0538  22.0968  22.1492  22.1874  22.2019  22.3002  22.3784
    22.4102  22.4912  22.4948  22.5288  22.5460  22.5702  22.6784  22.6876
    22.6882  22.6996  22.7935  22.8287  22.8865  22.9240  22.9929  23.0068
    23.0200  23.0494  23.0512  23.2325  23.3301  23.3309  23.3528  23.3713
    23.4035  23.5660  23.5705  23.6150  23.6283  23.6290  23.6699  23.6792
    23.6810  23.7640  23.8720  23.9653  24.1257  24.2401  24.3390  24.3577
    24.3842  24.4525  24.4769  24.5959  24.6052  24.6068  24.7513  24.7517
    24.8291  24.8327  24.8919  24.9315  25.0361  25.0471  25.0616  25.0681
    25.1194  25.4959  25.5456  25.9209  26.0567  26.3653  26.4522  26.5473
    26.5725  26.6361  27.5483

          k = 0.1661 0.0556 0.3889 ( 30262 PWs)   bands (ev):

   -49.9675 -49.9412 -49.8979 -49.8808 -49.8787 -49.8644 -49.8616 -49.8497
   -49.8468 -49.8433 -49.8384 -49.8365 -49.8329 -49.8304 -49.8197 -49.8177
   -49.8176 -49.8166 -49.8121 -49.8009 -49.7982 -49.7945 -49.7911 -49.7889
   -49.7841 -49.7838 -49.7828 -49.7788 -49.7767 -49.7759 -49.7728 -49.7723
   -20.3354 -20.3288 -20.3043 -20.2843 -20.2711 -20.2695 -20.2584 -20.2486
   -20.2479 -20.2160 -20.2074 -20.2033 -20.1900 -20.1653 -20.1597 -20.1464
   -20.1453 -20.1441 -20.1398 -20.1293 -20.1063 -20.0940 -20.0891 -20.0744
   -20.0475 -20.0344 -20.0299 -20.0094 -20.0086 -19.9777 -19.9540 -19.9510
   -19.9488 -19.9374 -19.9257 -19.9073 -19.8919 -19.8819 -19.8773 -19.8607
   -19.8383 -19.8061 -19.7517 -19.7489 -19.7476 -19.7468 -19.7452 -19.7421
   -19.7312 -19.7233 -19.7224 -19.6984 -19.6961 -19.6891 -19.6868 -19.6833
   -19.6793 -19.6778 -19.6694 -19.6642 -19.6438 -19.6421 -19.6419 -19.6326
   -19.6291 -19.6291 -19.6271 -19.6263 -19.6259 -19.6189 -19.6184 -19.5934
   -19.5917 -19.5865 -19.5711 -19.5690 -19.5635 -19.5635 -19.5631 -19.5573
   -19.5546 -19.5512 -19.5375 -19.5353 -19.5330 -19.5286 -19.5234 -19.5204
   -19.5125 -19.5043 -19.4919 -19.4824 -19.4776 -19.4633 -19.4366 -19.4203
    15.8542  16.5251  17.1919  17.2381  17.2603  17.3819  17.4659  17.5398
    17.5641  17.5814  17.5901  17.6112  17.6878  17.7119  17.7321  17.7511
    17.8015  17.8465  17.9119  17.9119  18.0038  18.0201  18.0769  18.1054
    18.1176  18.1323  18.2458  18.2858  18.2916  18.3003  18.4632  18.4927
    18.5612  18.5647  18.5939  18.6284  18.7279  18.9249  18.9254  18.9469
    18.9604  19.0588  19.0774  19.1172  19.1364  19.1735  19.1885  19.2041
    19.2420  19.2447  19.3852  19.3920  19.3964  19.5048  19.6671  19.6678
    19.6832  19.7413  19.9427  19.9482  19.9866  20.0122  20.0504  20.0578
    20.0711  20.1085  20.1407  20.1975  20.1994  20.2213  20.2651  20.2801
    20.3798  20.3949  20.4117  20.6001  20.6486  20.6973  20.7182  20.7368
    20.7943  20.8440  20.8450  20.8466  20.8511  20.8531  20.8543  20.8925
    21.0007  21.0717  21.1385  21.1680  21.2030  21.2202  21.3087  21.3389
    21.5479  21.6567  21.7066  21.7774  21.7832  21.8348  21.9457  22.0004
    22.0222  22.0513  22.0998  22.1053  22.1110  22.1156  22.1911  22.2582
    22.3219  22.3747  22.4737  22.5036  22.5214  22.5807  22.6089  22.6255
    22.6459  22.7461  22.7911  22.7960  22.8711  22.9207  22.9395  22.9965
    23.0511  23.0933  23.2249  23.2707  23.3188  23.3228  23.3932  23.4103
    23.5904  23.6207  23.6906  23.7833  23.9053  23.9074  23.9227  23.9348
    23.9584  23.9669  23.9817  24.0722  24.0903  24.1670  24.1699  24.2696
    24.3488  24.4423  24.4518  24.5078  24.5101  24.5193  24.5214  24.5336
    24.6668  24.6689  24.7341  24.9754  25.0364  25.0482  25.0499  25.0505
    25.0567  25.2378  25.5282  25.7466  25.7825  25.9420  26.0830  26.2831
    26.7746  27.0984  27.3755

          k = 0.1661 0.0556-0.5000 ( 30268 PWs)   bands (ev):

   -49.9556 -49.9555 -49.8901 -49.8901 -49.8722 -49.8721 -49.8562 -49.8561
   -49.8421 -49.8421 -49.8411 -49.8410 -49.8318 -49.8317 -49.8186 -49.8186
   -49.8142 -49.8141 -49.8033 -49.8032 -49.7916 -49.7916 -49.7905 -49.7905
   -49.7882 -49.7881 -49.7834 -49.7833 -49.7763 -49.7763 -49.7725 -49.7724
   -20.3008 -20.3007 -20.2920 -20.2920 -20.2627 -20.2626 -20.2413 -20.2412
   -20.2403 -20.2402 -20.2393 -20.2393 -20.2019 -20.2018 -20.1557 -20.1557
   -20.1473 -20.1473 -20.1465 -20.1465 -20.0933 -20.0933 -20.0687 -20.0687
   -20.0418 -20.0418 -20.0333 -20.0333 -19.9895 -19.9895 -19.9541 -19.9540
   -19.9241 -19.9240 -19.9119 -19.9118 -19.9056 -19.9055 -19.8705 -19.8705
   -19.8388 -19.8387 -19.7504 -19.7503 -19.7455 -19.7455 -19.7212 -19.7211
   -19.7026 -19.7025 -19.6977 -19.6976 -19.6921 -19.6920 -19.6728 -19.6728
   -19.6636 -19.6635 -19.6579 -19.6578 -19.6532 -19.6532 -19.6504 -19.6504
   -19.6503 -19.6502 -19.6223 -19.6223 -19.6155 -19.6154 -19.5964 -19.5963
   -19.5945 -19.5945 -19.5802 -19.5802 -19.5784 -19.5784 -19.5595 -19.5594
   -19.5547 -19.5546 -19.5475 -19.5475 -19.5350 -19.5349 -19.5161 -19.5160
   -19.5139 -19.5139 -19.4818 -19.4818 -19.4576 -19.4575 -19.4394 -19.4393
    16.1641  16.1644  17.3608  17.3610  17.4470  17.4472  17.4830  17.4832
    17.5663  17.5663  17.6641  17.6641  17.7348  17.7350  17.7720  17.7723
    17.8067  17.8067  17.8459  17.8459  17.9512  17.9514  17.9870  17.9872
    17.9948  17.9950  18.1585  18.1586  18.3387  18.3389  18.3872  18.3873
    18.6728  18.6728  18.6815  18.6817  18.7411  18.7413  18.8343  18.8345
    19.0729  19.0729  19.1116  19.1118  19.1384  19.1384  19.1768  19.1768
    19.2362  19.2363  19.3080  19.3080  19.3219  19.3220  19.7965  19.7967
    19.8523  19.8525  19.8601  19.8603  19.9282  19.9283  19.9747  19.9747
    20.1391  20.1392  20.1413  20.1414  20.3373  20.3374  20.3587  20.3589
    20.4281  20.4281  20.4610  20.4610  20.5269  20.5269  20.7045  20.7045
    20.8044  20.8045  20.8983  20.8984  20.9750  20.9751  21.0021  21.0023
    21.0341  21.0342  21.0585  21.0585  21.4761  21.4762  21.5181  21.5181
    21.5520  21.5521  21.6023  21.6023  21.7768  21.7769  21.7813  21.7814
    22.0359  22.0360  22.1942  22.1942  22.2334  22.2335  22.2923  22.2923
    22.2949  22.2950  22.3551  22.3552  22.4186  22.4187  22.5214  22.5215
    22.7197  22.7198  22.7393  22.7394  22.8458  22.8459  23.0987  23.0989
    23.1412  23.1414  23.1449  23.1450  23.2135  23.2136  23.6660  23.6660
    23.7472  23.7473  23.7617  23.7617  23.9801  23.9801  24.0372  24.0372
    24.1628  24.1628  24.2069  24.2070  24.2149  24.2149  24.2307  24.2308
    24.2319  24.2320  24.2398  24.2399  24.2532  24.2532  24.4438  24.4439
    24.5808  24.5808  25.0079  25.0080  25.0395  25.0396  25.0529  25.0530
    25.2956  25.2957  25.5162  25.5164  25.5236  25.5236  26.0564  26.0565
    27.1184  27.1185  27.5441

          k = 0.1661 0.1667 0.1667 ( 30292 PWs)   bands (ev):

   -49.9800 -49.9061 -49.9054 -49.9054 -49.8579 -49.8579 -49.8577 -49.8518
   -49.8505 -49.8505 -49.8373 -49.8233 -49.8233 -49.8230 -49.8229 -49.8228
   -49.8227 -49.8225 -49.8224 -49.8223 -49.8030 -49.8027 -49.8027 -49.7772
   -49.7760 -49.7760 -49.7756 -49.7755 -49.7753 -49.7752 -49.7748 -49.7747
   -20.3645 -20.3645 -20.3642 -20.3285 -20.3000 -20.3000 -20.2989 -20.1683
   -20.1658 -20.1658 -20.1506 -20.1506 -20.1474 -20.1474 -20.1465 -20.1464
   -20.1299 -20.1299 -20.1277 -20.1277 -20.1272 -20.1272 -20.0658 -20.0615
   -20.0615 -20.0235 -20.0235 -20.0221 -19.9786 -19.9786 -19.9750 -19.9750
   -19.9748 -19.9747 -19.8941 -19.8941 -19.8941 -19.8073 -19.8073 -19.8060
   -19.7857 -19.7857 -19.7844 -19.7843 -19.7839 -19.7839 -19.7834 -19.7834
   -19.7786 -19.7451 -19.7451 -19.7401 -19.7398 -19.7398 -19.7376 -19.7376
   -19.7374 -19.7374 -19.6748 -19.6748 -19.6746 -19.6331 -19.6331 -19.6305
   -19.6226 -19.6226 -19.6193 -19.5827 -19.5827 -19.5786 -19.5762 -19.5730
   -19.5730 -19.5586 -19.5585 -19.5585 -19.5585 -19.5559 -19.5559 -19.5486
   -19.5485 -19.5450 -19.5323 -19.5323 -19.5300 -19.5255 -19.5255 -19.5253
   -19.5247 -19.5209 -19.4915 -19.4915 -19.4886 -19.4671 -19.4072 -19.4066
    15.5271  17.0107  17.0107  17.0134  17.1759  17.3258  17.3312  17.3312
    17.3313  17.3349  17.3351  17.4702  17.4702  17.4738  17.8304  17.8385
    17.8386  18.2038  18.2039  18.2158  18.2159  18.2177  18.2177  18.2377
    18.2377  18.2384  18.4034  18.4100  18.4100  18.6313  18.6322  18.6323
    18.6579  18.6579  18.6587  18.6588  18.6609  18.6609  18.9904  18.9905
    18.9950  18.9950  19.0024  19.0024  19.1635  19.1787  19.1787  19.5074
    19.5078  19.5079  19.6521  19.6521  19.6572  19.6572  19.6602  19.6602
    19.7912  19.8029  19.8030  19.8746  19.8746  19.8792  19.8792  19.8826
    19.8827  20.1620  20.1871  20.1871  20.3571  20.3646  20.3646  20.3778
    20.3853  20.3854  20.3959  20.3959  20.4035  20.4036  20.4226  20.4267
    20.4268  20.4667  20.5053  20.6132  20.6133  20.6284  20.6404  20.6526
    21.1531  21.1713  21.1713  21.4419  21.4419  21.4595  21.4918  21.5162
    21.5162  21.6821  21.6821  21.7024  21.8823  21.8823  21.8921  21.9350
    21.9351  21.9371  21.9371  21.9468  21.9468  22.3494  22.3506  22.3507
    22.5123  22.5123  22.5224  22.6293  22.6293  22.6479  22.6641  22.6642
    22.6701  22.7310  22.7311  22.7353  22.7354  22.7380  22.7380  22.8010
    22.8430  23.1286  23.3005  23.3005  23.3037  23.3037  23.3070  23.3070
    23.5536  23.5536  23.5700  23.5700  23.5722  23.5770  23.6624  23.6656
    23.6656  23.9529  23.9741  23.9741  24.1368  24.1368  24.1458  24.3385
    24.3386  24.3426  24.4166  24.4319  24.7137  24.7276  24.7276  24.9389
    24.9389  24.9423  24.9424  24.9610  24.9610  25.0603  25.0620  25.0620
    25.5394  25.5394  25.5515  26.0276  26.0277  26.0307  27.1293  27.1294
    27.1308  27.1309  27.1560

          k = 0.1661 0.1667 0.2778 ( 30273 PWs)   bands (ev):

   -49.9737 -49.9227 -49.9021 -49.9014 -49.8691 -49.8688 -49.8562 -49.8494
   -49.8482 -49.8420 -49.8331 -49.8298 -49.8293 -49.8232 -49.8227 -49.8227
   -49.8225 -49.8178 -49.8119 -49.8116 -49.8043 -49.7967 -49.7962 -49.7816
   -49.7795 -49.7788 -49.7783 -49.7771 -49.7770 -49.7762 -49.7754 -49.7752
   -20.3541 -20.3438 -20.3431 -20.2957 -20.2852 -20.2842 -20.2774 -20.2140
   -20.1879 -20.1869 -20.1661 -20.1655 -20.1637 -20.1630 -20.1615 -20.1612
   -20.1447 -20.1434 -20.1337 -20.1309 -20.1295 -20.1284 -20.1052 -20.0893
   -20.0414 -20.0394 -20.0250 -20.0208 -19.9852 -19.9829 -19.9538 -19.9502
   -19.9353 -19.9348 -19.9267 -19.9266 -19.8428 -19.8406 -19.8354 -19.8226
   -19.8207 -19.8039 -19.8004 -19.7707 -19.7485 -19.7480 -19.7447 -19.7435
   -19.7414 -19.7396 -19.7360 -19.7356 -19.7355 -19.7348 -19.7194 -19.7178
   -19.7129 -19.7117 -19.6677 -19.6511 -19.6420 -19.6411 -19.6406 -19.6406
   -19.6405 -19.6140 -19.6114 -19.6102 -19.6021 -19.5980 -19.5918 -19.5905
   -19.5887 -19.5884 -19.5798 -19.5618 -19.5603 -19.5584 -19.5580 -19.5564
   -19.5544 -19.5506 -19.5413 -19.5402 -19.5282 -19.5163 -19.5120 -19.5111
   -19.5033 -19.5030 -19.4942 -19.4928 -19.4822 -19.4797 -19.4176 -19.4102
    15.6908  16.9670  17.1090  17.1237  17.1263  17.2304  17.4219  17.4302
[...]
   -19.6607 -19.6605 -19.6467 -19.6466 -19.6414 -19.6413 -19.6400 -19.6399
   -19.6173 -19.6172 -19.6092 -19.6091 -19.6070 -19.6068 -19.6002 -19.6002
   -19.5128 -19.5127 -19.5110 -19.5109 -19.5039 -19.5037 -19.4820 -19.4818
   -19.4764 -19.4764 -19.4635 -19.4633 -19.4501 -19.4500 -19.4375 -19.4375
    16.6555  16.6558  17.1197  17.1200  17.3574  17.3577  17.3602  17.3604
    17.6966  17.6967  17.7010  17.7012  17.7358  17.7359  17.9213  17.9213
    17.9700  17.9701  17.9726  17.9726  17.9787  17.9787  18.0407  18.0408
    18.0594  18.0596  18.0724  18.0725  18.1745  18.1746  18.2078  18.2079
    18.2857  18.2859  18.3665  18.3665  18.4554  18.4555  18.7272  18.7272
    18.7813  18.7815  18.9057  18.9057  19.1178  19.1180  19.1342  19.1343
    19.2078  19.2079  19.3760  19.3761  19.4378  19.4380  19.5950  19.5952
    19.9230  19.9230  19.9771  19.9771  20.1238  20.1239  20.6190  20.6191
    20.6834  20.6835  20.6889  20.6889  20.7760  20.7761  20.7934  20.7935
    20.7938  20.7940  20.8163  20.8164  20.8316  20.8316  20.8576  20.8576
    20.8682  20.8683  20.9372  20.9373  20.9543  20.9543  20.9557  20.9557
    21.0019  21.0020  21.0121  21.0121  21.0333  21.0334  21.0704  21.0704
    21.0785  21.0787  21.5330  21.5332  21.5347  21.5348  21.6279  21.6280
    21.6490  21.6491  21.6541  21.6541  21.6656  21.6658  21.9364  21.9365
    22.1408  22.1409  22.1962  22.1963  22.5147  22.5148  22.5259  22.5260
    22.5425  22.5426  22.5649  22.5650  22.6829  22.6829  22.9528  22.9529
    22.9964  22.9965  23.0331  23.0332  23.0836  23.0837  23.0965  23.0967
    23.2975  23.2976  23.4873  23.4873  23.6858  23.6858  23.8671  23.8672
    24.5775  24.5775  24.5790  24.5791  24.5799  24.5799  24.5886  24.5887
    24.5950  24.5951  24.6310  24.6311  24.6536  24.6537  24.6686  24.6686
    24.7261  24.7261  24.7906  24.7907  24.8085  24.8086  24.8158  24.8159
    26.1427  26.1428  26.6843  26.6845  26.8145  26.8146  27.0486  27.0488
    27.9427  27.9429  28.1959

          k =-0.4984 0.2778-0.5000 ( 30252 PWs)   bands (ev):

   -49.9247 -49.9247 -49.9245 -49.9244 -49.8870 -49.8870 -49.8868 -49.8868
   -49.8212 -49.8211 -49.8210 -49.8209 -49.8004 -49.8004 -49.8002 -49.8001
   -49.7997 -49.7997 -49.7995 -49.7994 -49.7992 -49.7991 -49.7990 -49.7989
   -49.7989 -49.7989 -49.7987 -49.7986 -49.7835 -49.7835 -49.7833 -49.7832
   -20.2458 -20.2458 -20.2457 -20.2457 -20.2441 -20.2441 -20.2441 -20.2440
   -20.2092 -20.2092 -20.2091 -20.2091 -20.2039 -20.2038 -20.2037 -20.2036
   -20.1995 -20.1994 -20.1993 -20.1993 -20.1975 -20.1974 -20.1973 -20.1973
   -20.0199 -20.0199 -20.0198 -20.0198 -19.9031 -19.9031 -19.9031 -19.9031
   -19.7960 -19.7960 -19.7960 -19.7959 -19.7957 -19.7957 -19.7957 -19.7956
   -19.7943 -19.7943 -19.7943 -19.7942 -19.7936 -19.7935 -19.7935 -19.7934
   -19.7912 -19.7912 -19.7911 -19.7910 -19.6806 -19.6806 -19.6806 -19.6805
   -19.6732 -19.6732 -19.6732 -19.6732 -19.6710 -19.6709 -19.6709 -19.6708
   -19.6679 -19.6679 -19.6678 -19.6677 -19.6271 -19.6270 -19.6270 -19.6269
   -19.6236 -19.6236 -19.6235 -19.6234 -19.6113 -19.6113 -19.6113 -19.6112
   -19.5027 -19.5027 -19.5026 -19.5026 -19.4831 -19.4830 -19.4830 -19.4829
   -19.4814 -19.4813 -19.4812 -19.4811 -19.4401 -19.4401 -19.4401 -19.4400
    16.8714  16.8716  16.8717  16.8720  17.3473  17.3474  17.3475  17.3477
    17.8126  17.8126  17.8127  17.8127  17.8582  17.8583  17.8584  17.8585
    17.8590  17.8590  17.8592  17.8592  17.9378  17.9379  17.9379  17.9379
    18.1301  18.1301  18.1302  18.1303  18.1323  18.1323  18.1324  18.1325
    18.5242  18.5243  18.5244  18.5244  18.5292  18.5292  18.5294  18.5294
    18.6825  18.6825  18.6825  18.6826  19.2514  19.2516  19.2516  19.2517
    19.2538  19.2540  19.2540  19.2541  19.4326  19.4327  19.4327  19.4329
    19.9707  19.9707  19.9707  19.9707  20.4478  20.4479  20.4479  20.4479
    20.7065  20.7066  20.7066  20.7067  20.7886  20.7886  20.7887  20.7887
    20.8119  20.8119  20.8119  20.8120  20.8179  20.8179  20.8179  20.8180
    20.9335  20.9335  20.9335  20.9336  20.9716  20.9716  20.9716  20.9717
    21.0136  21.0136  21.0136  21.0136  21.2177  21.2178  21.2179  21.2179
    21.2340  21.2341  21.2341  21.2343  21.3773  21.3773  21.3774  21.3775
    21.6967  21.6968  21.6968  21.6969  21.8928  21.8928  21.8928  21.8929
    21.9016  21.9017  21.9017  21.9017  22.5138  22.5139  22.5139  22.5140
    22.7806  22.7806  22.7807  22.7808  22.8312  22.8312  22.8313  22.8314
    22.8411  22.8412  22.8412  22.8413  23.2215  23.2216  23.2216  23.2217
    23.2401  23.2402  23.2402  23.2402  23.6562  23.6563  23.6563  23.6564
    24.6512  24.6512  24.6512  24.6512  24.6561  24.6562  24.6562  24.6562
    24.6942  24.6942  24.6942  24.6943  24.7161  24.7162  24.7162  24.7163
    24.7246  24.7247  24.7247  24.7248  24.7713  24.7714  24.7714  24.7715
    26.3543  26.3544  26.3544  26.3546  27.6206  27.6207  27.6208  27.6213
    27.6377  27.6378  27.6379

          k =-0.4984 0.3889 0.3889 ( 30262 PWs)   bands (ev):

   -49.9273 -49.9271 -49.9067 -49.9067 -49.9065 -49.9064 -49.8893 -49.8891
   -49.8103 -49.8103 -49.8101 -49.8100 -49.8085 -49.8084 -49.8082 -49.8081
   -49.8011 -49.8009 -49.8007 -49.8005 -49.7992 -49.7992 -49.7990 -49.7989
   -49.7912 -49.7911 -49.7909 -49.7909 -49.7897 -49.7896 -49.7893 -49.7893
   -20.2511 -20.2511 -20.2415 -20.2415 -20.2414 -20.2413 -20.2199 -20.2199
   -20.2197 -20.2197 -20.2148 -20.2148 -20.2147 -20.2146 -20.2143 -20.2143
   -20.2143 -20.2142 -20.2030 -20.2028 -20.1994 -20.1994 -20.1993 -20.1993
   -20.0201 -20.0200 -19.9074 -19.9074 -19.9073 -19.9073 -19.8549 -19.8549
   -19.8549 -19.8549 -19.8434 -19.8434 -19.8433 -19.8433 -19.8053 -19.8053
   -19.8052 -19.8052 -19.7914 -19.7913 -19.7862 -19.7862 -19.7823 -19.7822
   -19.7426 -19.7426 -19.7425 -19.7425 -19.7352 -19.7352 -19.7352 -19.7351
   -19.6760 -19.6760 -19.6759 -19.6759 -19.6656 -19.6654 -19.6503 -19.6503
   -19.6503 -19.6503 -19.6470 -19.6470 -19.6469 -19.6469 -19.6401 -19.6401
   -19.6400 -19.6400 -19.6198 -19.6197 -19.6197 -19.6197 -19.6184 -19.6182
   -19.4947 -19.4946 -19.4885 -19.4885 -19.4884 -19.4884 -19.4729 -19.4727
   -19.4597 -19.4597 -19.4597 -19.4597 -19.4581 -19.4579 -19.4473 -19.4472
    16.7903  16.7906  17.1521  17.1522  17.1524  17.1525  17.2715  17.2717
    17.7672  17.7674  17.7863  17.7863  17.7864  17.7864  17.9466  17.9467
    17.9467  17.9467  17.9898  17.9898  17.9899  17.9900  18.0089  18.0090
    18.0090  18.0090  18.0264  18.0264  18.0265  18.0266  18.0383  18.0385
    18.5032  18.5034  18.5716  18.5716  18.5717  18.5717  18.9511  18.9512
    18.9512  18.9513  18.9673  18.9674  18.9675  18.9676  18.9978  18.9979
    18.9979  18.9980  19.2895  19.2897  19.3458  19.3458  19.3459  19.3460
    20.0559  20.0559  20.1433  20.1433  20.1433  20.1434  20.6087  20.6088
    20.8214  20.8214  20.8215  20.8216  20.8280  20.8282  20.8322  20.8322
    20.8323  20.8324  20.8661  20.8662  20.9009  20.9009  20.9010  20.9011
    20.9256  20.9256  20.9256  20.9257  20.9319  20.9319  20.9355  20.9355
    20.9647  20.9648  20.9648  20.9648  20.9801  20.9802  20.9853  20.9853
    20.9854  20.9855  21.4022  21.4022  21.4024  21.4024  21.4293  21.4294
    21.7740  21.7740  21.7741  21.7741  21.8174  21.8175  22.2070  22.2070
    22.2071  22.2071  22.3040  22.3040  22.3041  22.3041  22.3447  22.3448
    22.3448  22.3448  22.7008  22.7010  22.7105  22.7105  22.7716  22.7717
    22.7718  22.7718  22.8015  22.8016  22.8016  22.8017  23.0312  23.0313
    23.1707  23.1708  23.3928  23.3928  23.3929  23.3929  23.5507  23.5508
    24.6972  24.6972  24.6972  24.6972  24.7236  24.7236  24.7237  24.7237
    24.7263  24.7264  24.7829  24.7829  24.7830  24.7830  24.7866  24.7867
    24.7867  24.7867  24.8404  24.8405  24.8405  24.8406  24.8818  24.8819
    26.9940  26.9940  26.9942  26.9942  27.4264  27.4265  27.5984  27.5984
    27.5985  27.5986  28.3598

          k =-0.4984 0.3889-0.5000 ( 30268 PWs)   bands (ev):

   -49.9179 -49.9179 -49.9177 -49.9176 -49.8988 -49.8987 -49.8986 -49.8985
   -49.8095 -49.8094 -49.8092 -49.8092 -49.8003 -49.8002 -49.8001 -49.8000
   -49.7999 -49.7998 -49.7997 -49.7996 -49.7992 -49.7991 -49.7989 -49.7989
   -49.7989 -49.7989 -49.7987 -49.7986 -49.7903 -49.7903 -49.7901 -49.7900
   -20.2355 -20.2355 -20.2354 -20.2354 -20.2334 -20.2334 -20.2334 -20.2333
   -20.2211 -20.2210 -20.2210 -20.2209 -20.2171 -20.2170 -20.2170 -20.2169
   -20.2109 -20.2109 -20.2108 -20.2107 -20.2087 -20.2086 -20.2085 -20.2085
   -19.9638 -19.9637 -19.9637 -19.9637 -19.8510 -19.8509 -19.8509 -19.8509
   -19.8486 -19.8486 -19.8485 -19.8485 -19.7961 -19.7961 -19.7961 -19.7961
   -19.7945 -19.7944 -19.7944 -19.7944 -19.7943 -19.7942 -19.7942 -19.7941
   -19.7938 -19.7938 -19.7937 -19.7937 -19.7369 -19.7369 -19.7369 -19.7368
   -19.6621 -19.6621 -19.6621 -19.6620 -19.6597 -19.6597 -19.6597 -19.6596
   -19.6557 -19.6557 -19.6555 -19.6555 -19.6365 -19.6365 -19.6365 -19.6364
   -19.6323 -19.6323 -19.6322 -19.6321 -19.6307 -19.6307 -19.6307 -19.6306
   -19.4833 -19.4832 -19.4832 -19.4832 -19.4695 -19.4694 -19.4694 -19.4693
   -19.4690 -19.4689 -19.4689 -19.4688 -19.4513 -19.4513 -19.4513 -19.4513
    16.9589  16.9591  16.9592  16.9595  17.2020  17.2022  17.2022  17.2025
    17.8764  17.8764  17.8765  17.8766  17.8767  17.8767  17.8769  17.8769
    17.8777  17.8777  17.8777  17.8778  17.9551  17.9551  17.9551  17.9552
    18.0191  18.0191  18.0192  18.0192  18.0204  18.0204  18.0205  18.0206
    18.7364  18.7364  18.7366  18.7366  18.7423  18.7423  18.7425  18.7425
    18.7933  18.7933  18.7933  18.7934  19.1434  19.1435  19.1435  19.1437
    19.1458  19.1459  19.1460  19.1461  19.1704  19.1705  19.1705  19.1706
    20.1192  20.1192  20.1192  20.1192  20.3906  20.3907  20.3907  20.3907
    20.8520  20.8521  20.8521  20.8522  20.8701  20.8701  20.8702  20.8702
    20.8783  20.8784  20.8784  20.8785  20.8943  20.8944  20.8944  20.8945
    20.9065  20.9065  20.9066  20.9066  20.9323  20.9323  20.9324  20.9324
    20.9618  20.9618  20.9619  20.9619  21.1292  21.1293  21.1293  21.1294
    21.1502  21.1503  21.1503  21.1505  21.2095  21.2095  21.2096  21.2097
    21.9507  21.9508  21.9508  21.9508  22.0344  22.0345  22.0345  22.0345
    22.0497  22.0497  22.0498  22.0498  22.4899  22.4900  22.4901  22.4901
    22.5061  22.5062  22.5062  22.5063  22.5071  22.5072  22.5072  22.5073
    22.7699  22.7700  22.7700  22.7701  23.0645  23.0646  23.0646  23.0647
    23.1408  23.1409  23.1409  23.1409  23.3552  23.3552  23.3553  23.3553
    24.7668  24.7669  24.7669  24.7669  24.7732  24.7732  24.7732  24.7733
    24.7952  24.7952  24.7952  24.7953  24.8344  24.8344  24.8344  24.8345
    24.8424  24.8425  24.8425  24.8425  24.8425  24.8426  24.8426  24.8427
    27.2664  27.2665  27.2665  27.2667  27.8813  27.8813  27.8814  27.8823
    27.9015  27.9016  27.9016

          k =-0.4984-0.5000-0.5000 ( 30328 PWs)   bands (ev):

   -49.9094 -49.9093 -49.9091 -49.9091 -49.9091 -49.9090 -49.9089 -49.9088
   -49.8003 -49.8002 -49.8000 -49.8000 -49.8000 -49.7999 -49.7998 -49.7997
   -49.7993 -49.7992 -49.7992 -49.7991 -49.7990 -49.7989 -49.7989 -49.7989
   -49.7989 -49.7989 -49.7989 -49.7988 -49.7987 -49.7986 -49.7986 -49.7986
   -20.2235 -20.2235 -20.2235 -20.2234 -20.2234 -20.2234 -20.2234 -20.2234
   -20.2233 -20.2233 -20.2233 -20.2232 -20.2232 -20.2232 -20.2232 -20.2232
   -20.2212 -20.2212 -20.2211 -20.2211 -20.2211 -20.2210 -20.2210 -20.2209
   -19.9059 -19.9058 -19.9058 -19.9058 -19.9058 -19.9057 -19.9057 -19.9057
   -19.7956 -19.7955 -19.7955 -19.7955 -19.7955 -19.7954 -19.7954 -19.7954
   -19.7946 -19.7946 -19.7946 -19.7945 -19.7945 -19.7945 -19.7945 -19.7945
   -19.7945 -19.7944 -19.7944 -19.7944 -19.7944 -19.7944 -19.7944 -19.7943
   -19.6480 -19.6480 -19.6479 -19.6479 -19.6479 -19.6478 -19.6478 -19.6478
   -19.6478 -19.6477 -19.6477 -19.6477 -19.6477 -19.6476 -19.6476 -19.6476
   -19.6435 -19.6434 -19.6434 -19.6434 -19.6432 -19.6432 -19.6432 -19.6432
   -19.4667 -19.4667 -19.4666 -19.4666 -19.4665 -19.4665 -19.4665 -19.4664
   -19.4641 -19.4641 -19.4641 -19.4641 -19.4639 -19.4639 -19.4639 -19.4639
    17.0705  17.0706  17.0706  17.0707  17.0709  17.0709  17.0710  17.0712
    17.9312  17.9312  17.9312  17.9312  17.9312  17.9312  17.9312  17.9313
    17.9314  17.9314  17.9314  17.9314  17.9314  17.9314  17.9314  17.9315
    17.9318  17.9318  17.9318  17.9318  17.9320  17.9320  17.9320  17.9320
    18.9549  18.9550  18.9550  18.9550  18.9551  18.9551  18.9551  18.9551
    18.9552  18.9552  18.9552  18.9552  18.9552  18.9553  18.9553  18.9554
    18.9603  18.9603  18.9604  18.9605  18.9605  18.9606  18.9606  18.9607
    20.2728  20.2728  20.2728  20.2729  20.2729  20.2729  20.2729  20.2729
    20.8944  20.8945  20.8945  20.8945  20.8945  20.8945  20.8946  20.8946
    20.9302  20.9303  20.9303  20.9303  20.9303  20.9304  20.9304  20.9304
    21.0046  21.0047  21.0047  21.0047  21.0048  21.0048  21.0048  21.0049
    21.0264  21.0264  21.0264  21.0264  21.0264  21.0265  21.0265  21.0265
    21.0265  21.0266  21.0266  21.0266  21.0266  21.0266  21.0267  21.0267
    22.2245  22.2246  22.2246  22.2246  22.2246  22.2246  22.2247  22.2247
    22.2247  22.2247  22.2247  22.2248  22.2248  22.2248  22.2248  22.2249
    22.2430  22.2431  22.2431  22.2432  22.2432  22.2432  22.2433  22.2433
    23.0524  23.0525  23.0525  23.0526  23.0526  23.0526  23.0527  23.0527
    23.0646  23.0646  23.0647  23.0647  23.0647  23.0648  23.0648  23.0649
    24.8417  24.8418  24.8418  24.8418  24.8419  24.8419  24.8419  24.8419
    24.8491  24.8491  24.8491  24.8491  24.8491  24.8491  24.8491  24.8492
    24.8492  24.8492  24.8492  24.8492  24.8492  24.8492  24.8493  24.8493
    28.2031  28.2035  28.2040  28.2060  28.2068  28.2084  28.2094  28.2135
    28.2247  28.2247  28.2248

     the Fermi energy is    23.0262 ev

!    total energy              =  -13813.30059273 Ry

     total all-electron energy =   -289989.690932 Ry
     estimated scf accuracy    <       0.00000093 Ry
     smearing contrib. (-TS)   =       0.02020779 Ry
     internal energy E=F+TS    =  -13813.32080052 Ry

     The total energy is F=E-TS. E is the sum of the following terms:
     one-electron contribution =   -1003.44712038 Ry
     hartree contribution      =     918.36644124 Ry
     xc contribution           =    -927.94100511 Ry
     ewald contribution        =   -5210.86240978 Ry
     one-center paw contrib.   =   -7589.43670649 Ry

     convergence has been achieved in  11 iterations

     Forces acting on atoms (cartesian axes, Ry/au):

     atom    1 type  1   force =     0.00000000    0.00000000    0.00000000
     atom    2 type  1   force =    -0.00040786   -0.00012970   -0.00000000
     atom    3 type  1   force =    -0.00040786    0.00000000   -0.00012970
     atom    4 type  1   force =    -0.00000000   -0.00003763   -0.00003763
     atom    5 type  1   force =     0.00000000    0.00000000    0.00000000
     atom    6 type  1   force =    -0.00011402    0.00034991    0.00000000
     atom    7 type  1   force =    -0.00040786    0.00000000    0.00012970
     atom    8 type  1   force =    -0.00000000   -0.00003763    0.00003763
     atom    9 type  1   force =     0.00000000    0.00000000    0.00000000
     atom   10 type  1   force =    -0.00040786    0.00012970   -0.00000000
     atom   11 type  1   force =    -0.00011402    0.00000000    0.00034991
     atom   12 type  1   force =    -0.00000000    0.00003763   -0.00003763
     atom   13 type  1   force =     0.00000000    0.00000000    0.00000000
     atom   14 type  1   force =    -0.00011402   -0.00034991   -0.00000000
     atom   15 type  1   force =    -0.00011402    0.00000000   -0.00034991
     atom   16 type  1   force =    -0.00000000    0.00003763    0.00003763
     atom   17 type  1   force =     0.00000000    0.00000000    0.00000000
     atom   18 type  1   force =     0.00040786   -0.00012970   -0.00000000
     atom   19 type  1   force =     0.00040786    0.00000000   -0.00012970
     atom   20 type  1   force =     0.00000000    0.00026437    0.00026437
     atom   21 type  1   force =     0.00000000    0.00000000    0.00000000
     atom   22 type  1   force =     0.00011402    0.00034991   -0.00000000
     atom   23 type  1   force =     0.00040786    0.00000000    0.00012970
     atom   24 type  1   force =     0.00000000    0.00026437   -0.00026437
     atom   25 type  1   force =     0.00000000    0.00000000    0.00000000
     atom   26 type  1   force =     0.00040786    0.00012970   -0.00000000
     atom   27 type  1   force =     0.00011402    0.00000000    0.00034991
     atom   28 type  1   force =     0.00000000   -0.00026437    0.00026437
     atom   29 type  1   force =     0.00000000    0.00000000    0.00000000
     atom   30 type  1   force =     0.00011402   -0.00034991    0.00000000
     atom   31 type  1   force =     0.00011402    0.00000000   -0.00034991
     atom   32 type  1   force =     0.00000000   -0.00026437   -0.00026437

     Total force =     0.001766     Total SCF correction =     0.007255
     SCF correction compared to forces is large: reduce conv_thr to get better values


     Computing stress (Cartesian axis) and pressure

          total   stress  (Ry/bohr**3)                   (kbar)     P=      -14.79
  -0.00013632   0.00000000   0.00000000          -20.05        0.00        0.00
   0.00000000  -0.00008270   0.00000000            0.00      -12.17        0.00
   0.00000000   0.00000000  -0.00008270            0.00        0.00      -12.17


     Writing output data file /scratch/TjmVrhbKeYlmpJFb.save/
 
     init_run     :     32.96s CPU     33.52s WALL (       1 calls)
     electrons    :    962.43s CPU    975.94s WALL (       1 calls)
     forces       :     12.44s CPU     12.55s WALL (       1 calls)
     stress       :     66.79s CPU     67.33s WALL (       1 calls)

     Called by init_run:
     wfcinit      :     31.94s CPU     32.43s WALL (       1 calls)
     potinit      :      0.19s CPU      0.20s WALL (       1 calls)
     hinit0       :      0.47s CPU      0.48s WALL (       1 calls)

     Called by electrons:
     c_bands      :    857.81s CPU    869.35s WALL (      12 calls)
     sum_band     :    102.74s CPU    104.50s WALL (      12 calls)
     v_of_rho     :      0.20s CPU      0.22s WALL (      12 calls)
     newd         :      0.30s CPU      0.41s WALL (      12 calls)
     PAW_pot      :      1.17s CPU      1.23s WALL (      12 calls)
     mix_rho      :      0.20s CPU      0.21s WALL (      12 calls)

     Called by c_bands:
     init_us_2    :      3.75s CPU      3.84s WALL (    2025 calls)
     cegterg      :    843.79s CPU    854.78s WALL (     900 calls)

     Called by *egterg:
     cdiaghg      :    112.37s CPU    113.53s WALL (    3377 calls)
     h_psi        :    460.48s CPU    467.15s WALL (    3527 calls)
     s_psi        :     32.32s CPU     32.58s WALL (    3527 calls)
     g_psi        :      0.80s CPU      0.81s WALL (    2552 calls)

     Called by h_psi:
     h_psi:calbec :     61.65s CPU     62.03s WALL (    3527 calls)
     vloc_psi     :    365.71s CPU    371.30s WALL (    3527 calls)
     add_vuspsi   :     31.09s CPU     31.77s WALL (    3527 calls)

     General routines
     calbec       :    116.31s CPU    117.06s WALL (    4802 calls)
     fft          :      0.32s CPU      0.34s WALL (     180 calls)
     ffts         :      0.02s CPU      0.02s WALL (      24 calls)
     fftw         :    424.77s CPU    431.17s WALL ( 1643364 calls)
     interpolate  :      0.03s CPU      0.03s WALL (      12 calls)
 
     Parallel routines
     fft_scatt_xy :     28.45s CPU     28.90s WALL ( 1643568 calls)
     fft_scatt_yz :    347.62s CPU    352.89s WALL ( 1643568 calls)
 
     PWSCF        :  18m13.19s CPU  18m31.55s WALL

 
   This run was terminated on:  15:32:58  23Nov2021            

=------------------------------------------------------------------------------=
   JOB DONE.
=------------------------------------------------------------------------------=
