
     Program PWSCF v.6.7MaX starts on 23Nov2021 at 15:33:42 

     This program is part of the open-source Quantum ESPRESSO suite
     for quantum simulation of materials; please cite
         "P. Giannozzi et al., J. Phys.:Condens. Matter 21 395502 (2009);
         "P. Giannozzi et al., J. Phys.:Condens. Matter 29 465901 (2017);
          URL http://www.quantum-espresso.org", 
     in publications or presentations arising from this work. More details at
     http://www.quantum-espresso.org/quote

     Parallel version (MPI & OpenMP), running on      72 processor cores
     Number of MPI processes:                72
     Threads/MPI process:                     1

     MPI processes distributed on     1 nodes
     R & G space division:  proc/nbgrp/npool/nimage =      72
     Reading input from /rds/homes/b/bxp912/jobs/20211014_ru_eos/wd/ec/ec_1_007.in
Warning: card &CELL ignored
Warning: card CELL_DYNAMICS = 'BFGS', ignored
Warning: card CELL_FACTOR = 2.0, ignored
Warning: card PRESS = 0.0, ignored
Warning: card / ignored

     Current dimensions of program PWSCF are:
     Max number of different atomic species (ntypx) = 10
     Max number of k-points (npk) =  40000
     Max angular momentum in pseudopotentials (lmaxx) =  3
     file Ru.pbe-spn-kjpaw_psl.1.0.0.UPF: wavefunction(s)  4D renormalized

     Subspace diagonalization in iterative solution of the eigenvalue problem:
     one sub-group per band group will be used
     ELPA distributed-memory algorithm (size of sub-group:  8*  8 procs)

     Found symmetry operation: I + (  0.2500  0.2500  0.0000)
     This is a supercell, fractional translations are disabled
     Message from routine setup:
     using ibrav=0 with symmetry is DISCOURAGED, use correct ibrav instead
 
     Parallelization info
     --------------------
     sticks:   dense  smooth     PW     G-vecs:    dense   smooth      PW
     Min          99      65     17                 6269     3365     477
     Max         100      66     18                 6272     3370     482
     Sum        7133    4705   1285               451479   242393   34553
 


     bravais-lattice index     =            0
     lattice parameter (alat)  =      14.4007  a.u.
     unit-cell volume          =    2997.6445 (a.u.)^3
     number of atoms/cell      =           32
     number of atomic types    =            1
     number of electrons       =       512.00
     number of Kohn-Sham states=          307
     kinetic-energy cutoff     =      71.0000  Ry
     charge density cutoff     =     430.0000  Ry
     scf convergence threshold =      1.0E-06
     mixing beta               =       0.1000
     number of iterations used =           10  plain     mixing
     Exchange-correlation= SLA  PW   PBX  PBC
                           (   1   4   3   4   0   0   0)

     celldm(1)=  14.400742  celldm(2)=   0.000000  celldm(3)=   0.000000
     celldm(4)=   0.000000  celldm(5)=   0.000000  celldm(6)=   0.000000

     crystal axes: (cart. coord. in units of alat)
               a(1) = (   1.003750   0.000000   0.000000 )  
               a(2) = (   0.000000   1.000000   0.000000 )  
               a(3) = (   0.000000   0.000000   1.000000 )  

     reciprocal axes: (cart. coord. in units 2 pi/alat)
               b(1) = (  0.996264  0.000000  0.000000 )  
               b(2) = (  0.000000  1.000000  0.000000 )  
               b(3) = (  0.000000  0.000000  1.000000 )  


     PseudoPot. # 1 for Ru read from file:
     /rds/homes/b/bxp912/pp/Ru.pbe-spn-kjpaw_psl.1.0.0.UPF
     MD5 check sum: 0ae1f594dea09af7be8575c3a481d1ae
     Pseudo is Projector augmented-wave + core cor, Zval = 16.0
     Generated using "atomic" code by A. Dal Corso  v.5.1
     Shape of augmentation charge: PSQ
     Using radial grid of 1233 points,  6 beta functions with: 
                l(1) =   0
                l(2) =   0
                l(3) =   1
                l(4) =   1
                l(5) =   2
                l(6) =   2
     Q(r) pseudized with 0 coefficients 


     atomic species   valence    mass     pseudopotential
        Ru            16.00   101.07000     Ru( 1.00)

     16 Sym. Ops., with inversion, found



   Cartesian axes

     site n.     atom                  positions (alat units)
         1           Ru  tau(   1) = (   0.0000000   0.0000000   0.0000000  )
         2           Ru  tau(   2) = (   0.2509375   0.2500000   0.0000000  )
         3           Ru  tau(   3) = (   0.2509375   0.0000000   0.2499995  )
         4           Ru  tau(   4) = (   0.0000000   0.2500000   0.2499995  )
         5           Ru  tau(   5) = (   0.0000000   0.0000000   0.5000000  )
         6           Ru  tau(   6) = (   0.2509364   0.2499990   0.5000000  )
         7           Ru  tau(   7) = (   0.2509375   0.0000000   0.7499995  )
         8           Ru  tau(   8) = (   0.0000000   0.2500000   0.7499995  )
         9           Ru  tau(   9) = (   0.0000000   0.5000002   0.0000000  )
        10           Ru  tau(  10) = (   0.2509375   0.7500004   0.0000000  )
        11           Ru  tau(  11) = (   0.2509364   0.5000002   0.2499984  )
        12           Ru  tau(  12) = (   0.0000000   0.7500004   0.2499995  )
        13           Ru  tau(  13) = (   0.0000000   0.5000002   0.5000000  )
        14           Ru  tau(  14) = (   0.2509364   0.7500015   0.5000000  )
        15           Ru  tau(  15) = (   0.2509364   0.5000002   0.7500005  )
        16           Ru  tau(  16) = (   0.0000000   0.7500004   0.7499995  )
        17           Ru  tau(  17) = (   0.5018752   0.0000000   0.0000000  )
        18           Ru  tau(  18) = (   0.7528129   0.2500000   0.0000000  )
        19           Ru  tau(  19) = (   0.7528129   0.0000000   0.2499995  )
        20           Ru  tau(  20) = (   0.5018752   0.2499990   0.2499984  )
        21           Ru  tau(  21) = (   0.5018752   0.0000000   0.5000000  )
        22           Ru  tau(  22) = (   0.7528140   0.2499990   0.5000000  )
        23           Ru  tau(  23) = (   0.7528129   0.0000000   0.7499995  )
        24           Ru  tau(  24) = (   0.5018752   0.2499990   0.7500005  )
        25           Ru  tau(  25) = (   0.5018752   0.5000002   0.0000000  )
        26           Ru  tau(  26) = (   0.7528129   0.7500004   0.0000000  )
        27           Ru  tau(  27) = (   0.7528140   0.5000002   0.2499984  )
        28           Ru  tau(  28) = (   0.5018752   0.7500015   0.2499984  )
        29           Ru  tau(  29) = (   0.5018752   0.5000002   0.5000000  )
        30           Ru  tau(  30) = (   0.7528140   0.7500015   0.5000000  )
        31           Ru  tau(  31) = (   0.7528140   0.5000002   0.7500005  )
        32           Ru  tau(  32) = (   0.5018752   0.7500015   0.7500005  )

     number of k points=    75  Marzari-Vanderbilt smearing, width (Ry)=  0.0400
                       cart. coord. in units 2pi/alat
        k(    1) = (   0.0553480   0.0555556   0.0555556), wk =   0.0219479
        k(    2) = (   0.0553480   0.0555556   0.1666667), wk =   0.0438957
        k(    3) = (   0.0553480   0.0555556   0.2777778), wk =   0.0438957
        k(    4) = (   0.0553480   0.0555556   0.3888889), wk =   0.0438957
        k(    5) = (   0.0553480   0.0555556  -0.5000000), wk =   0.0219479
        k(    6) = (   0.0553480   0.1666667   0.1666667), wk =   0.0219479
        k(    7) = (   0.0553480   0.1666667   0.2777778), wk =   0.0438957
        k(    8) = (   0.0553480   0.1666667   0.3888889), wk =   0.0438957
        k(    9) = (   0.0553480   0.1666667  -0.5000000), wk =   0.0219479
        k(   10) = (   0.0553480   0.2777778   0.2777778), wk =   0.0219479
        k(   11) = (   0.0553480   0.2777778   0.3888889), wk =   0.0438957
        k(   12) = (   0.0553480   0.2777778  -0.5000000), wk =   0.0219479
        k(   13) = (   0.0553480   0.3888889   0.3888889), wk =   0.0219479
        k(   14) = (   0.0553480   0.3888889  -0.5000000), wk =   0.0219479
        k(   15) = (   0.0553480  -0.5000000  -0.5000000), wk =   0.0054870
        k(   16) = (   0.1660440   0.0555556   0.0555556), wk =   0.0219479
        k(   17) = (   0.1660440   0.0555556   0.1666667), wk =   0.0438957
        k(   18) = (   0.1660440   0.0555556   0.2777778), wk =   0.0438957
        k(   19) = (   0.1660440   0.0555556   0.3888889), wk =   0.0438957
        k(   20) = (   0.1660440   0.0555556  -0.5000000), wk =   0.0219479
        k(   21) = (   0.1660440   0.1666667   0.1666667), wk =   0.0219479
        k(   22) = (   0.1660440   0.1666667   0.2777778), wk =   0.0438957
        k(   23) = (   0.1660440   0.1666667   0.3888889), wk =   0.0438957
        k(   24) = (   0.1660440   0.1666667  -0.5000000), wk =   0.0219479
        k(   25) = (   0.1660440   0.2777778   0.2777778), wk =   0.0219479
        k(   26) = (   0.1660440   0.2777778   0.3888889), wk =   0.0438957
        k(   27) = (   0.1660440   0.2777778  -0.5000000), wk =   0.0219479
        k(   28) = (   0.1660440   0.3888889   0.3888889), wk =   0.0219479
        k(   29) = (   0.1660440   0.3888889  -0.5000000), wk =   0.0219479
        k(   30) = (   0.1660440  -0.5000000  -0.5000000), wk =   0.0054870
        k(   31) = (   0.2767400   0.0555556   0.0555556), wk =   0.0219479
        k(   32) = (   0.2767400   0.0555556   0.1666667), wk =   0.0438957
        k(   33) = (   0.2767400   0.0555556   0.2777778), wk =   0.0438957
        k(   34) = (   0.2767400   0.0555556   0.3888889), wk =   0.0438957
        k(   35) = (   0.2767400   0.0555556  -0.5000000), wk =   0.0219479
        k(   36) = (   0.2767400   0.1666667   0.1666667), wk =   0.0219479
        k(   37) = (   0.2767400   0.1666667   0.2777778), wk =   0.0438957
        k(   38) = (   0.2767400   0.1666667   0.3888889), wk =   0.0438957
        k(   39) = (   0.2767400   0.1666667  -0.5000000), wk =   0.0219479
        k(   40) = (   0.2767400   0.2777778   0.2777778), wk =   0.0219479
        k(   41) = (   0.2767400   0.2777778   0.3888889), wk =   0.0438957
        k(   42) = (   0.2767400   0.2777778  -0.5000000), wk =   0.0219479
        k(   43) = (   0.2767400   0.3888889   0.3888889), wk =   0.0219479
        k(   44) = (   0.2767400   0.3888889  -0.5000000), wk =   0.0219479
        k(   45) = (   0.2767400  -0.5000000  -0.5000000), wk =   0.0054870
        k(   46) = (   0.3874360   0.0555556   0.0555556), wk =   0.0219479
        k(   47) = (   0.3874360   0.0555556   0.1666667), wk =   0.0438957
        k(   48) = (   0.3874360   0.0555556   0.2777778), wk =   0.0438957
        k(   49) = (   0.3874360   0.0555556   0.3888889), wk =   0.0438957
        k(   50) = (   0.3874360   0.0555556  -0.5000000), wk =   0.0219479
        k(   51) = (   0.3874360   0.1666667   0.1666667), wk =   0.0219479
        k(   52) = (   0.3874360   0.1666667   0.2777778), wk =   0.0438957
        k(   53) = (   0.3874360   0.1666667   0.3888889), wk =   0.0438957
        k(   54) = (   0.3874360   0.1666667  -0.5000000), wk =   0.0219479
        k(   55) = (   0.3874360   0.2777778   0.2777778), wk =   0.0219479
        k(   56) = (   0.3874360   0.2777778   0.3888889), wk =   0.0438957
        k(   57) = (   0.3874360   0.2777778  -0.5000000), wk =   0.0219479
        k(   58) = (   0.3874360   0.3888889   0.3888889), wk =   0.0219479
        k(   59) = (   0.3874360   0.3888889  -0.5000000), wk =   0.0219479
        k(   60) = (   0.3874360  -0.5000000  -0.5000000), wk =   0.0054870
        k(   61) = (  -0.4981320   0.0555556   0.0555556), wk =   0.0109739
        k(   62) = (  -0.4981320   0.0555556   0.1666667), wk =   0.0219479
        k(   63) = (  -0.4981320   0.0555556   0.2777778), wk =   0.0219479
        k(   64) = (  -0.4981320   0.0555556   0.3888889), wk =   0.0219479
        k(   65) = (  -0.4981320   0.0555556  -0.5000000), wk =   0.0109739
        k(   66) = (  -0.4981320   0.1666667   0.1666667), wk =   0.0109739
        k(   67) = (  -0.4981320   0.1666667   0.2777778), wk =   0.0219479
        k(   68) = (  -0.4981320   0.1666667   0.3888889), wk =   0.0219479
        k(   69) = (  -0.4981320   0.1666667  -0.5000000), wk =   0.0109739
        k(   70) = (  -0.4981320   0.2777778   0.2777778), wk =   0.0109739
        k(   71) = (  -0.4981320   0.2777778   0.3888889), wk =   0.0219479
        k(   72) = (  -0.4981320   0.2777778  -0.5000000), wk =   0.0109739
        k(   73) = (  -0.4981320   0.3888889   0.3888889), wk =   0.0109739
        k(   74) = (  -0.4981320   0.3888889  -0.5000000), wk =   0.0109739
        k(   75) = (  -0.4981320  -0.5000000  -0.5000000), wk =   0.0027435

     Dense  grid:   451479 G-vectors     FFT dimensions: (  96,  96,  96)

     Smooth grid:   242393 G-vectors     FFT dimensions: (  80,  80,  80)

     Estimated max dynamical RAM per process >     186.08 MB

     Estimated total dynamical RAM >      13.08 GB

     Check: negative core charge=   -0.000002

     Initial potential from superposition of free atoms

     starting charge  511.97959, renormalised to  512.00000
     Starting wfcs are  320 randomized atomic wfcs
     Checking if some PAW data can be deallocated... 

     total cpu time spent up to now is       28.5 secs

     Self-consistent Calculation

     iteration #  1     ecut=    71.00 Ry     beta= 0.10
     Davidson diagonalization with overlap
     ethr =  1.00E-02,  avg # of iterations =  3.4

     Threshold (ethr) on eigenvalues was too large:
     Diagonalizing with lowered threshold

     Davidson diagonalization with overlap
     ethr =  8.31E-05,  avg # of iterations =  5.5

     total cpu time spent up to now is      203.5 secs

     total energy              =  -13813.41185291 Ry
     estimated scf accuracy    <       0.63700877 Ry

     iteration #  2     ecut=    71.00 Ry     beta= 0.10
     Davidson diagonalization with overlap
     ethr =  1.24E-04,  avg # of iterations =  1.0

     total cpu time spent up to now is      268.2 secs

     total energy              =  -13813.20633026 Ry
     estimated scf accuracy    <       0.39781958 Ry

     iteration #  3     ecut=    71.00 Ry     beta= 0.10
     Davidson diagonalization with overlap
     ethr =  7.77E-05,  avg # of iterations =  2.2

     total cpu time spent up to now is      347.3 secs

     total energy              =  -13813.29893299 Ry
     estimated scf accuracy    <       0.03564574 Ry

     iteration #  4     ecut=    71.00 Ry     beta= 0.10
     Davidson diagonalization with overlap
     c_bands:  1 eigenvalues not converged
     ethr =  6.96E-06,  avg # of iterations =  2.6

     total cpu time spent up to now is      419.6 secs

     total energy              =  -13813.29954089 Ry
     estimated scf accuracy    <       0.00879548 Ry

     iteration #  5     ecut=    71.00 Ry     beta= 0.10
     Davidson diagonalization with overlap
     ethr =  1.72E-06,  avg # of iterations =  1.8

     total cpu time spent up to now is      487.5 secs

     total energy              =  -13813.30097711 Ry
     estimated scf accuracy    <       0.00553997 Ry

     iteration #  6     ecut=    71.00 Ry     beta= 0.10
     Davidson diagonalization with overlap
     ethr =  1.08E-06,  avg # of iterations =  3.8

     total cpu time spent up to now is      586.1 secs

     total energy              =  -13813.29923457 Ry
     estimated scf accuracy    <       0.01648095 Ry

     iteration #  7     ecut=    71.00 Ry     beta= 0.10
     Davidson diagonalization with overlap
     ethr =  1.08E-06,  avg # of iterations =  2.4

     total cpu time spent up to now is      672.0 secs

     total energy              =  -13813.30039918 Ry
     estimated scf accuracy    <       0.00143060 Ry

     iteration #  8     ecut=    71.00 Ry     beta= 0.10
     Davidson diagonalization with overlap
     ethr =  2.79E-07,  avg # of iterations =  2.0

     total cpu time spent up to now is      742.3 secs

     total energy              =  -13813.30043456 Ry
     estimated scf accuracy    <       0.00030260 Ry

     iteration #  9     ecut=    71.00 Ry     beta= 0.10
     Davidson diagonalization with overlap
     ethr =  5.91E-08,  avg # of iterations =  2.3

     total cpu time spent up to now is      811.3 secs

     total energy              =  -13813.30039633 Ry
     estimated scf accuracy    <       0.00011395 Ry

     iteration # 10     ecut=    71.00 Ry     beta= 0.10
     Davidson diagonalization with overlap
     ethr =  2.23E-08,  avg # of iterations =  3.1

     total cpu time spent up to now is      894.3 secs

     total energy              =  -13813.30041846 Ry
     estimated scf accuracy    <       0.00000293 Ry

     iteration # 11     ecut=    71.00 Ry     beta= 0.10
     Davidson diagonalization with overlap
     ethr =  5.73E-10,  avg # of iterations =  4.2

     total cpu time spent up to now is      993.0 secs

     End of self-consistent calculation

          k = 0.0553 0.0556 0.0556 ( 30350 PWs)   bands (ev):

   -50.0064 -49.9089 -49.9077 -49.9077 -49.8901 -49.8887 -49.8887 -49.8538
   -49.8538 -49.8537 -49.8445 -49.8436 -49.8435 -49.8434 -49.8434 -49.8433
   -49.8433 -49.8428 -49.8428 -49.8427 -49.8347 -49.8346 -49.8346 -49.7916
   -49.7900 -49.7900 -49.7898 -49.7898 -49.7891 -49.7891 -49.7886 -49.7886
   -20.4052 -20.4052 -20.4051 -20.4011 -20.3437 -20.3437 -20.3426 -20.1490
   -20.1435 -20.1435 -20.1379 -20.1379 -20.1324 -20.1324 -20.1320 -20.1320
   -20.1181 -20.1121 -20.1121 -20.0946 -20.0945 -20.0905 -20.0905 -20.0902
   -20.0902 -20.0451 -20.0451 -20.0405 -20.0405 -20.0398 -20.0398 -19.9439
   -19.9439 -19.9430 -19.8718 -19.8718 -19.8705 -19.8639 -19.8639 -19.8630
   -19.8312 -19.8312 -19.8303 -19.8303 -19.8295 -19.8294 -19.7911 -19.7911
   -19.7898 -19.7853 -19.7853 -19.7844 -19.7844 -19.7825 -19.7825 -19.7819
   -19.7819 -19.7740 -19.7738 -19.7737 -19.7694 -19.6159 -19.6159 -19.6120
   -19.6119 -19.6107 -19.6100 -19.5838 -19.5838 -19.5806 -19.5806 -19.5791
   -19.5791 -19.5680 -19.5680 -19.5634 -19.5571 -19.5553 -19.5552 -19.5547
   -19.5547 -19.5547 -19.5546 -19.5513 -19.5506 -19.5506 -19.5504 -19.5503
   -19.5485 -19.5457 -19.5364 -19.5363 -19.5324 -19.4234 -19.4167 -19.4163
    15.2594  16.8267  16.8267  16.8300  17.1025  17.1202  17.1202  17.1202
    17.2932  17.2932  17.2971  17.5004  17.5138  17.5140  17.6740  17.6870
    17.6871  18.2165  18.2165  18.2363  18.2364  18.2372  18.2373  18.5363
    18.5492  18.5492  18.8025  18.8026  18.8033  18.8054  18.8223  18.8223
    18.9098  18.9115  18.9116  18.9126  18.9127  18.9127  18.9127  18.9136
    18.9136  19.3950  19.3951  19.4051  19.4051  19.4135  19.4135  19.5355
    19.5547  19.5548  19.5667  19.5667  19.5864  19.5864  19.5879  19.5879
    19.6325  19.6504  19.6504  19.8959  19.8960  19.9023  19.9023  19.9043
    19.9044  19.9044  19.9045  19.9080  19.9080  19.9099  19.9125  19.9126
    19.9174  19.9174  20.0756  20.0756  20.0793  20.3379  20.3619  20.3619
    20.3735  20.4100  20.4100  20.4195  20.4344  20.4751  20.5201  20.5357
    21.4674  21.5020  21.5020  21.6337  21.6714  21.6715  21.7051  21.7051
    21.7173  21.8045  21.8045  21.8059  21.8059  21.8158  21.8158  21.8195
    21.8195  21.8289  22.1102  22.1102  22.1306  22.2324  22.2324  22.2447
    22.4776  22.4776  22.4965  22.5556  22.5556  22.5643  22.5643  22.5653
    22.5653  22.5742  22.5742  22.5912  22.6152  22.6152  22.6271  22.8029
    22.8029  22.8036  22.8036  22.8187  22.8187  22.8395  22.8931  22.9755
    22.9755  22.9910  23.6290  23.6290  23.6535  23.6836  23.6837  23.6886
    23.7893  23.7893  23.8105  23.8859  24.6097  24.6098  24.6126  24.6413
    24.6646  24.6759  24.6934  24.6934  24.9623  24.9721  24.9721  24.9920
    24.9921  25.0040  25.1440  25.1440  25.1455  25.1455  25.1580  25.1626
    25.1626  25.1752  25.1752  26.5877  26.5877  26.6140  26.7198  26.7912
    26.7912  27.1175  27.1176

          k = 0.0553 0.0556 0.1667 ( 30326 PWs)   bands (ev):

   -50.0031 -49.9264 -49.9070 -49.9059 -49.8885 -49.8872 -49.8699 -49.8641
   -49.8638 -49.8535 -49.8522 -49.8518 -49.8462 -49.8435 -49.8432 -49.8429
   -49.8428 -49.8412 -49.8349 -49.8332 -49.8329 -49.8262 -49.8259 -49.7925
   -49.7917 -49.7915 -49.7913 -49.7905 -49.7902 -49.7902 -49.7896 -49.7891
   -20.3978 -20.3940 -20.3938 -20.3859 -20.3354 -20.3343 -20.3309 -20.1745
   -20.1613 -20.1609 -20.1530 -20.1507 -20.1483 -20.1459 -20.1402 -20.1385
   -20.1384 -20.1204 -20.1144 -20.1043 -20.1010 -20.0917 -20.0914 -20.0875
   -20.0855 -20.0526 -20.0485 -20.0361 -20.0315 -20.0215 -19.9920 -19.9910
   -19.9568 -19.9552 -19.9125 -19.9107 -19.8806 -19.8789 -19.8706 -19.8684
   -19.8389 -19.8019 -19.8012 -19.7895 -19.7892 -19.7888 -19.7853 -19.7845
   -19.7840 -19.7827 -19.7770 -19.7763 -19.7703 -19.7688 -19.7684 -19.7678
   -19.7678 -19.7664 -19.7643 -19.7513 -19.7506 -19.6476 -19.6427 -19.6194
   -19.6178 -19.6074 -19.6027 -19.5876 -19.5874 -19.5862 -19.5828 -19.5789
   -19.5749 -19.5739 -19.5706 -19.5702 -19.5675 -19.5658 -19.5627 -19.5551
   -19.5547 -19.5546 -19.5545 -19.5539 -19.5521 -19.5513 -19.5494 -19.5477
   -19.5463 -19.5442 -19.5368 -19.5246 -19.5210 -19.4405 -19.4222 -19.4200
    15.3456  16.8774  16.8904  16.8937  17.1420  17.1771  17.1772  17.1945
    17.2108  17.3313  17.3546  17.3590  17.5629  17.5758  17.7109  17.7398
    17.7523  18.1148  18.1171  18.2656  18.2747  18.2852  18.2918  18.2940
    18.4924  18.5758  18.5875  18.5979  18.5986  18.6488  18.6648  18.6668
    18.8388  18.8524  18.8527  18.8541  18.8772  18.8796  18.9447  18.9604
    19.0080  19.0090  19.1042  19.3823  19.3914  19.3990  19.4093  19.4493
    19.4633  19.4638  19.4785  19.5255  19.5382  19.6188  19.6196  19.6570
    19.7241  19.7295  19.7515  19.7563  19.8501  19.8595  19.8687  19.8876
    19.8928  19.9027  19.9030  19.9092  19.9153  20.1521  20.1554  20.1766
    20.1787  20.1995  20.2540  20.2960  20.3041  20.3403  20.3904  20.4326
    20.4396  20.4410  20.4416  20.4654  20.4655  20.4786  20.5397  20.5800
    21.2429  21.2654  21.3699  21.3962  21.4880  21.5025  21.6123  21.6128
    21.6428  21.7404  21.7519  21.7717  21.9166  21.9216  21.9269  21.9521
    21.9585  21.9988  22.0057  22.0384  22.0922  22.1066  22.4136  22.4292
    22.4336  22.4395  22.4472  22.4630  22.5583  22.5663  22.5729  22.5818
    22.6938  22.7062  22.7225  22.7250  22.8020  22.8136  22.8252  22.8303
    22.8662  22.8840  23.0270  23.0282  23.0433  23.0902  23.1023  23.1761
    23.2083  23.2203  23.2215  23.2696  23.2764  23.4603  23.4753  23.6918
    23.7131  23.8836  23.9001  23.9523  24.4000  24.4278  24.5226  24.5250
    24.5424  24.5692  24.6298  24.6451  24.6466  24.8371  24.8998  25.0194
    25.0197  25.0461  25.0475  25.0518  25.1386  25.1423  25.1467  25.1515
    25.3299  25.3381  25.5593  26.0729  26.0936  26.4884  26.5297  26.5946
    26.6215  27.0623  27.0627

          k = 0.0553 0.0556 0.2778 ( 30301 PWs)   bands (ev):

   -49.9966 -49.9442 -49.9034 -49.9024 -49.8854 -49.8842 -49.8741 -49.8735
   -49.8606 -49.8600 -49.8528 -49.8520 -49.8478 -49.8434 -49.8432 -49.8430
   -49.8429 -49.8397 -49.8354 -49.8235 -49.8231 -49.8181 -49.8176 -49.7990
   -49.7950 -49.7944 -49.7940 -49.7932 -49.7914 -49.7905 -49.7894 -49.7891
   -20.3794 -20.3720 -20.3718 -20.3602 -20.3190 -20.3180 -20.3055 -20.2201
   -20.2056 -20.2052 -20.1844 -20.1844 -20.1843 -20.1561 -20.1522 -20.1501
   -20.1463 -20.1187 -20.1169 -20.0973 -20.0946 -20.0937 -20.0913 -20.0909
   -20.0598 -20.0549 -20.0538 -20.0517 -20.0205 -20.0163 -19.9796 -19.9769
   -19.9510 -19.9487 -19.9452 -19.9438 -19.9098 -19.9081 -19.9068 -19.9054
   -19.8060 -19.8026 -19.7892 -19.7848 -19.7804 -19.7784 -19.7701 -19.7662
   -19.7578 -19.7568 -19.7564 -19.7498 -19.7498 -19.7439 -19.7428 -19.7399
   -19.7397 -19.7227 -19.7134 -19.7130 -19.7065 -19.6777 -19.6720 -19.6338
   -19.6324 -19.6122 -19.6081 -19.6079 -19.6046 -19.6015 -19.6003 -19.5987
   -19.5932 -19.5899 -19.5871 -19.5856 -19.5704 -19.5664 -19.5583 -19.5580
   -19.5560 -19.5545 -19.5544 -19.5544 -19.5527 -19.5469 -19.5445 -19.5444
   -19.5376 -19.5219 -19.5196 -19.5195 -19.5167 -19.4709 -19.4331 -19.4303
    15.5152  16.8348  16.9757  17.0147  17.0181  17.2386  17.2903  17.2903
    17.3241  17.4069  17.4768  17.4822  17.6178  17.6838  17.6956  17.8674
    17.8791  17.9078  17.9109  18.0559  18.1578  18.2577  18.2583  18.3252
    18.3594  18.3765  18.3890  18.4071  18.4888  18.4926  18.5441  18.5572
    18.6540  18.6631  18.7075  18.7103  18.8273  18.8294  18.9039  18.9161
    19.0820  19.0852  19.2785  19.2873  19.3432  19.3472  19.3508  19.3578
    19.3585  19.3683  19.3868  19.4019  19.4123  19.4968  19.5112  19.6570
    19.6641  19.7216  19.7789  19.7872  19.8468  19.8534  19.8965  19.9122
    19.9125  19.9264  19.9816  19.9876  20.0212  20.1931  20.2403  20.2489
    20.2521  20.2655  20.3160  20.3623  20.5028  20.5410  20.5675  20.5742
    20.5773  20.5916  20.5974  20.6311  20.6723  20.7005  20.9702  20.9855
    21.0295  21.0316  21.0501  21.0571  21.2508  21.3627  21.3645  21.3987
    21.4108  21.4701  21.8410  21.8728  21.8810  22.0816  22.0918  22.0983
    22.1052  22.1371  22.1414  22.2139  22.2186  22.3304  22.3418  22.4299
    22.4422  22.5526  22.5593  22.5608  22.5685  22.5716  22.5905  22.5980
    22.6463  22.6545  22.6702  22.7148  22.7430  22.7484  22.8614  22.9276
    22.9321  22.9359  23.0011  23.0044  23.1358  23.2659  23.3320  23.3373
    23.3402  23.4219  23.4283  23.4649  23.4943  23.5028  23.5156  23.7157
    23.7508  23.8709  23.8849  24.1142  24.1404  24.1472  24.3184  24.3188
    24.3527  24.4800  24.4802  24.4915  24.5170  24.5772  24.7899  24.7904
    24.8109  24.8125  24.8536  25.1359  25.1405  25.1476  25.1501  25.2941
    25.5682  25.5831  25.7637  25.7669  25.9592  26.0697  26.0914  26.1141
    26.4111  26.9471  26.9476

          k = 0.0553 0.0556 0.3889 ( 30273 PWs)   bands (ev):

   -49.9872 -49.9606 -49.8981 -49.8971 -49.8832 -49.8825 -49.8809 -49.8798
   -49.8683 -49.8675 -49.8519 -49.8493 -49.8433 -49.8431 -49.8430 -49.8429
   -49.8383 -49.8361 -49.8355 -49.8146 -49.8140 -49.8107 -49.8099 -49.8085
   -49.8001 -49.7992 -49.7986 -49.7975 -49.7912 -49.7907 -49.7893 -49.7892
   -20.3507 -20.3403 -20.3399 -20.3249 -20.2949 -20.2940 -20.2683 -20.2680
   -20.2540 -20.2536 -20.2338 -20.2267 -20.2262 -20.1612 -20.1544 -20.1516
   -20.1406 -20.1381 -20.1332 -20.1330 -20.1080 -20.1071 -20.0697 -20.0642
   -20.0408 -20.0377 -20.0236 -20.0180 -20.0084 -20.0046 -19.9995 -19.9956
   -19.9861 -19.9835 -19.9459 -19.9428 -19.9419 -19.9395 -19.9019 -19.9001
   -19.8310 -19.8284 -19.7836 -19.7803 -19.7777 -19.7722 -19.7503 -19.7424
   -19.7351 -19.7138 -19.7133 -19.7110 -19.7106 -19.7078 -19.7073 -19.7071
   -19.7061 -19.7054 -19.6989 -19.6784 -19.6782 -19.6773 -19.6548 -19.6537
   -19.6416 -19.6411 -19.6383 -19.6378 -19.6368 -19.6341 -19.6216 -19.6208
   -19.6193 -19.6187 -19.5979 -19.5770 -19.5753 -19.5648 -19.5606 -19.5545
   -19.5543 -19.5542 -19.5534 -19.5520 -19.5507 -19.5424 -19.5419 -19.5411
   -19.5388 -19.5212 -19.5193 -19.5143 -19.4941 -19.4917 -19.4491 -19.4462
    15.7625  16.4434  17.1147  17.1930  17.1965  17.3912  17.4581  17.4582
    17.4603  17.5067  17.5191  17.6588  17.6614  17.6650  17.6656  17.8462
    17.8543  17.8553  17.8646  17.9467  17.9471  18.0146  18.0483  18.0586
    18.1949  18.2055  18.2801  18.2861  18.4870  18.4991  18.4999  18.5049
    18.5549  18.5709  18.7486  18.7495  18.7687  18.7742  18.9912  18.9965
    18.9968  19.0046  19.0904  19.0941  19.2364  19.2401  19.2762  19.2809
    19.3178  19.3310  19.3774  19.3904  19.3960  19.3989  19.6396  19.6464
    19.6603  19.6970  19.7021  19.8210  19.9138  19.9206  19.9318  19.9361
    19.9426  19.9514  20.0702  20.1212  20.1367  20.1502  20.1552  20.1627
    20.1675  20.2968  20.3507  20.3561  20.6291  20.6853  20.6989  20.7045
    20.7125  20.7170  20.7279  20.7281  20.7711  20.8100  21.0099  21.0175
    21.0384  21.0925  21.1476  21.1796  21.1824  21.1868  21.1918  21.2121
    21.6574  21.6878  22.0001  22.0043  22.0171  22.0710  22.0764  22.1939
    22.1976  22.2001  22.2512  22.2700  22.2719  22.3125  22.3160  22.3478
    22.3535  22.3981  22.4020  22.4080  22.4163  22.4798  22.5203  22.5256
    22.5628  22.5649  22.5820  22.5879  22.6717  22.6754  22.8906  22.8937
    22.9980  23.0101  23.0448  23.1539  23.2028  23.3459  23.3491  23.4748
    23.6617  23.6648  23.6695  23.7726  23.7805  23.7809  23.8192  23.8214
    24.0410  24.0421  24.0442  24.1013  24.1924  24.1976  24.2021  24.2563
    24.2647  24.2735  24.3143  24.3190  24.4863  24.4918  24.5018  24.5049
    24.5478  24.5504  24.6248  25.0766  25.0855  25.1360  25.1387  25.1483
    25.1494  25.3112  25.5446  25.5607  25.6641  26.1674  26.1684  26.2284
    26.6017  26.7638  26.7642

          k = 0.0553 0.0556-0.5000 ( 30276 PWs)   bands (ev):

   -49.9751 -49.9750 -49.8913 -49.8913 -49.8905 -49.8904 -49.8752 -49.8752
   -49.8742 -49.8742 -49.8508 -49.8507 -49.8432 -49.8431 -49.8430 -49.8430
   -49.8372 -49.8371 -49.8208 -49.8208 -49.8068 -49.8067 -49.8060 -49.8059
   -49.8042 -49.8041 -49.8032 -49.8032 -49.7910 -49.7909 -49.7892 -49.7892
   -20.3130 -20.3129 -20.3001 -20.3001 -20.2997 -20.2997 -20.2820 -20.2819
   -20.2639 -20.2638 -20.2632 -20.2631 -20.2195 -20.2194 -20.1462 -20.1462
   -20.1449 -20.1449 -20.1255 -20.1255 -20.1246 -20.1246 -20.0394 -20.0393
   -20.0346 -20.0345 -20.0166 -20.0165 -20.0137 -20.0136 -19.9849 -19.9848
   -19.9799 -19.9799 -19.9735 -19.9734 -19.9699 -19.9698 -19.8634 -19.8633
   -19.8613 -19.8612 -19.7820 -19.7819 -19.7749 -19.7749 -19.7299 -19.7298
   -19.7226 -19.7226 -19.6831 -19.6831 -19.6818 -19.6817 -19.6810 -19.6809
   -19.6762 -19.6761 -19.6745 -19.6744 -19.6741 -19.6740 -19.6712 -19.6712
   -19.6602 -19.6602 -19.6601 -19.6600 -19.6476 -19.6475 -19.6471 -19.6470
   -19.6344 -19.6344 -19.5694 -19.5694 -19.5629 -19.5628 -19.5621 -19.5621
   -19.5620 -19.5620 -19.5544 -19.5543 -19.5539 -19.5538 -19.5405 -19.5404
   -19.5288 -19.5288 -19.5282 -19.5281 -19.4697 -19.4696 -19.4670 -19.4669
    16.0771  16.0774  17.2825  17.2827  17.4142  17.4144  17.4178  17.4181
    17.5978  17.5978  17.6661  17.6663  17.6781  17.6781  17.6784  17.6784
    17.7386  17.7386  17.8989  17.8991  17.9074  17.9076  18.0600  18.0602
    18.0683  18.0686  18.2671  18.2674  18.2755  18.2757  18.6273  18.6274
    18.6342  18.6343  18.7635  18.7637  18.7761  18.7762  18.9170  18.9171
    18.9181  18.9182  19.1118  19.1119  19.1141  19.1143  19.3187  19.3187
    19.3353  19.3353  19.3450  19.3451  19.3479  19.3479  19.6495  19.6495
    19.6509  19.6509  19.9141  19.9143  19.9220  19.9222  19.9392  19.9394
    19.9415  19.9416  20.0466  20.0467  20.0588  20.0589  20.2129  20.2130
    20.4008  20.4008  20.4108  20.4109  20.5067  20.5068  20.5146  20.5146
    20.8001  20.8001  20.8683  20.8684  20.8835  20.8836  20.9222  20.9223
    20.9555  20.9557  20.9911  20.9912  21.6503  21.6503  21.6514  21.6515
    21.6570  21.6571  21.6875  21.6876  22.0548  22.0549  22.0552  22.0553
    22.2520  22.2521  22.3199  22.3199  22.3527  22.3528  22.3672  22.3673
    22.3706  22.3707  22.4432  22.4433  22.4473  22.4474  22.4597  22.4598
    22.4603  22.4604  22.5225  22.5226  22.5269  22.5270  22.7750  22.7751
    22.7753  22.7754  23.0905  23.0906  23.7062  23.7063  23.7086  23.7087
    23.7224  23.7226  23.8031  23.8031  23.9783  23.9784  23.9847  23.9847
    24.0278  24.0279  24.0649  24.0649  24.1405  24.1406  24.1484  24.1485
    24.1588  24.1589  24.1641  24.1642  24.4347  24.4347  24.6107  24.6107
    24.6131  24.6131  24.6482  24.6484  25.0296  25.0296  25.0395  25.0396
    25.1371  25.1372  25.1488  25.1490  25.9788  25.9790  26.5046  26.5046
    26.5047  26.5048  26.9945

          k = 0.0553 0.1667 0.1667 ( 30314 PWs)   bands (ev):

   -49.9999 -49.9243 -49.9243 -49.9052 -49.8870 -49.8756 -49.8687 -49.8687
   -49.8635 -49.8635 -49.8519 -49.8519 -49.8495 -49.8446 -49.8402 -49.8401
   -49.8395 -49.8395 -49.8332 -49.8332 -49.8265 -49.8264 -49.8194 -49.7925
   -49.7924 -49.7919 -49.7919 -49.7917 -49.7917 -49.7915 -49.7914 -49.7913
   -20.3907 -20.3907 -20.3790 -20.3669 -20.3261 -20.3233 -20.3233 -20.1812
   -20.1812 -20.1751 -20.1751 -20.1491 -20.1441 -20.1441 -20.1423 -20.1423
   -20.1410 -20.1410 -20.1322 -20.1321 -20.1140 -20.1140 -20.1125 -20.1125
   -20.0568 -20.0305 -20.0305 -20.0289 -20.0289 -20.0066 -20.0066 -19.9844
   -19.9844 -19.9684 -19.9519 -19.8957 -19.8758 -19.8758 -19.8394 -19.8394
   -19.8264 -19.8263 -19.8042 -19.8042 -19.8013 -19.7837 -19.7837 -19.7722
   -19.7722 -19.7709 -19.7709 -19.7647 -19.7647 -19.7640 -19.7640 -19.7615
   -19.7546 -19.7546 -19.7274 -19.7274 -19.7129 -19.6507 -19.6507 -19.6401
   -19.6401 -19.6121 -19.6067 -19.5969 -19.5864 -19.5864 -19.5833 -19.5833
   -19.5783 -19.5783 -19.5767 -19.5765 -19.5731 -19.5731 -19.5660 -19.5623
   -19.5622 -19.5564 -19.5563 -19.5540 -19.5490 -19.5481 -19.5481 -19.5459
   -19.5409 -19.5409 -19.5255 -19.5255 -19.5045 -19.4623 -19.4274 -19.4189
    15.4304  16.9414  16.9414  16.9513  17.1622  17.2146  17.2663  17.2663
    17.2715  17.2716  17.3920  17.3920  17.4248  17.6103  17.7785  17.7786
    17.7868  18.1489  18.1490  18.1744  18.1745  18.3233  18.3233  18.3358
    18.3358  18.3799  18.3799  18.4576  18.5228  18.5228  18.6307  18.6845
    18.6846  18.7041  18.7041  18.7291  18.8853  18.9606  18.9606  18.9831
    18.9832  19.0011  19.0011  19.1290  19.1290  19.3467  19.3467  19.4396
    19.4396  19.4600  19.5272  19.5273  19.5630  19.5630  19.6114  19.6115
    19.6362  19.8187  19.8187  19.8258  19.8259  19.9132  19.9132  19.9778
    19.9779  20.0125  20.0957  20.0958  20.2225  20.2225  20.2269  20.2269
    20.2649  20.2649  20.2789  20.3764  20.3806  20.3806  20.3820  20.4045
    20.4321  20.4322  20.4916  20.5264  20.5264  20.5369  20.5822  20.5994
    21.1075  21.2061  21.2617  21.2617  21.5111  21.5111  21.6886  21.6891
    21.6891  21.6976  21.6976  21.7652  21.7652  21.7811  21.7811  21.8067
    21.8067  21.9815  22.0348  22.1326  22.1327  22.1610  22.1610  22.2172
    22.2985  22.5597  22.5597  22.6802  22.6878  22.6878  22.7096  22.7096
    22.7528  22.7528  22.7995  22.8233  22.8233  22.8455  22.8976  22.8976
    22.9625  22.9625  22.9893  23.0318  23.0318  23.1240  23.2173  23.2733
    23.2733  23.3041  23.3041  23.3939  23.3945  23.3945  23.5134  23.5134
    23.7413  23.9336  24.0750  24.0932  24.0932  24.2493  24.2493  24.4079
    24.5160  24.5160  24.5699  24.6707  24.6714  24.6714  24.6813  24.9414
    24.9414  25.0193  25.0193  25.0202  25.0203  25.0348  25.0348  25.0907
    25.2927  25.5903  25.9148  25.9149  26.0151  26.0152  26.5401  26.5401
    27.0825  27.0825  27.1844

          k = 0.0553 0.1667 0.2778 ( 30291 PWs)   bands (ev):

   -49.9935 -49.9419 -49.9202 -49.9017 -49.8869 -49.8840 -49.8732 -49.8663
   -49.8623 -49.8600 -49.8527 -49.8513 -49.8510 -49.8467 -49.8462 -49.8380
   -49.8365 -49.8337 -49.8288 -49.8275 -49.8236 -49.8184 -49.8129 -49.7988
   -49.7957 -49.7954 -49.7948 -49.7937 -49.7923 -49.7918 -49.7915 -49.7914
   -20.3764 -20.3729 -20.3538 -20.3378 -20.3098 -20.3083 -20.2993 -20.2274
   -20.2187 -20.1858 -20.1834 -20.1813 -20.1812 -20.1772 -20.1568 -20.1559
   -20.1525 -20.1390 -20.1370 -20.1296 -20.1284 -20.1205 -20.1157 -20.0999
   -20.0793 -20.0467 -20.0298 -20.0166 -20.0155 -20.0021 -19.9919 -19.9904
   -19.9701 -19.9633 -19.9382 -19.9252 -19.9111 -19.8759 -19.8622 -19.8388
   -19.8239 -19.8223 -19.8000 -19.7919 -19.7860 -19.7734 -19.7724 -19.7723
   -19.7615 -19.7602 -19.7572 -19.7481 -19.7360 -19.7329 -19.7312 -19.7300
   -19.7285 -19.7245 -19.6925 -19.6902 -19.6810 -19.6768 -19.6711 -19.6656
   -19.6280 -19.6231 -19.6168 -19.6161 -19.6106 -19.6087 -19.6068 -19.6065
   -19.5948 -19.5894 -19.5843 -19.5790 -19.5772 -19.5770 -19.5697 -19.5681
   -19.5672 -19.5614 -19.5589 -19.5549 -19.5489 -19.5480 -19.5422 -19.5273
   -19.5266 -19.5249 -19.5211 -19.5096 -19.4965 -19.4951 -19.4383 -19.4247
    15.5972  16.8980  17.0402  17.0645  17.0662  17.2378  17.3068  17.3896
    17.3913  17.4075  17.4664  17.5130  17.5546  17.6858  17.7003  17.8760
    17.9106  17.9287  17.9658  18.0680  18.1046  18.1920  18.2080  18.2302
    18.2541  18.2920  18.3704  18.3984  18.4154  18.4158  18.4232  18.4366
    18.5670  18.5959  18.6144  18.7112  18.7408  18.8162  18.8243  18.9777
    18.9913  19.0335  19.0587  19.1758  19.1952  19.2593  19.2760  19.3053
    19.3146  19.3661  19.4040  19.4311  19.5151  19.5397  19.5601  19.6345
    19.6507  19.6884  19.8003  19.9166  19.9503  19.9883  20.0058  20.0450
    20.0886  20.1186  20.1334  20.1352  20.2306  20.2353  20.2374  20.2649
    20.2974  20.3709  20.3784  20.4123  20.4380  20.4954  20.5344  20.5569
    20.6258  20.6448  20.6556  20.6665  20.6786  20.6839  20.9010  20.9460
    20.9469  21.0046  21.0323  21.2501  21.2556  21.2727  21.4257  21.4706
    21.5376  21.5509  21.5956  21.7327  21.7605  21.8122  21.8967  21.9734
    22.0019  22.0288  22.0938  22.1334  22.1899  22.1904  22.2851  22.3685
    22.3986  22.4671  22.4735  22.5178  22.5241  22.5476  22.6628  22.6768
    22.6770  22.6861  22.7840  22.7991  22.8682  22.8911  22.9737  22.9830
    23.0073  23.0318  23.0372  23.2106  23.3077  23.3124  23.3314  23.3495
    23.3892  23.5212  23.5766  23.6023  23.6094  23.6195  23.6336  23.6576
    23.6656  23.7426  23.8657  23.9654  24.1133  24.2231  24.3207  24.3466
    24.3550  24.4257  24.4602  24.5601  24.5962  24.6013  24.7498  24.7508
    24.7912  24.7934  24.8520  24.9145  25.0193  25.0213  25.0275  25.0540
    25.1076  25.4797  25.5122  25.8992  26.0172  26.3404  26.4294  26.5234
    26.5667  26.6419  27.5267

          k = 0.0553 0.1667 0.3889 ( 30272 PWs)   bands (ev):

   -49.9842 -49.9580 -49.9142 -49.8973 -49.8965 -49.8821 -49.8797 -49.8675
   -49.8627 -49.8606 -49.8557 -49.8527 -49.8503 -49.8478 -49.8367 -49.8347
   -49.8345 -49.8337 -49.8291 -49.8185 -49.8148 -49.8110 -49.8083 -49.8069
   -49.8017 -49.8005 -49.7991 -49.7972 -49.7922 -49.7919 -49.7914 -49.7914
   -20.3514 -20.3451 -20.3194 -20.2998 -20.2863 -20.2861 -20.2746 -20.2652
   -20.2639 -20.2310 -20.2241 -20.2187 -20.2055 -20.1799 -20.1748 -20.1642
   -20.1629 -20.1604 -20.1568 -20.1470 -20.1243 -20.1102 -20.1081 -20.0862
   -20.0672 -20.0498 -20.0419 -20.0242 -20.0217 -19.9965 -19.9736 -19.9727
   -19.9620 -19.9500 -19.9435 -19.9224 -19.9106 -19.8953 -19.8952 -19.8812
   -19.8519 -19.8249 -19.7738 -19.7732 -19.7648 -19.7585 -19.7557 -19.7556
   -19.7486 -19.7444 -19.7399 -19.7163 -19.7091 -19.7043 -19.7035 -19.7018
   -19.6993 -19.6956 -19.6874 -19.6810 -19.6603 -19.6600 -19.6587 -19.6495
   -19.6451 -19.6435 -19.6429 -19.6421 -19.6419 -19.6390 -19.6386 -19.6132
   -19.6079 -19.6049 -19.5891 -19.5858 -19.5814 -19.5808 -19.5792 -19.5755
   -19.5731 -19.5706 -19.5538 -19.5534 -19.5501 -19.5453 -19.5416 -19.5375
   -19.5299 -19.5234 -19.5094 -19.4991 -19.4930 -19.4812 -19.4542 -19.4376
    15.8405  16.5111  17.1799  17.2291  17.2454  17.3685  17.4527  17.5275
    17.5575  17.5676  17.5768  17.5976  17.6787  17.6931  17.7171  17.7451
    17.7877  17.8233  17.8985  17.8986  17.9939  17.9976  18.0622  18.0994
    18.1034  18.1140  18.2228  18.2825  18.2832  18.2866  18.4633  18.4801
    18.5368  18.5536  18.5837  18.6014  18.7139  18.9055  18.9213  18.9341
    18.9429  19.0344  19.0563  19.1143  19.1183  19.1493  19.1764  19.1818
    19.2185  19.2390  19.3778  19.3782  19.3900  19.4913  19.6545  19.6568
    19.6696  19.7369  19.9323  19.9377  19.9915  19.9997  20.0260  20.0428
    20.0641  20.0999  20.1288  20.1754  20.1778  20.1896  20.2376  20.2415
    20.3538  20.3572  20.3773  20.5831  20.6595  20.6642  20.6869  20.7520
    20.7925  20.8069  20.8112  20.8262  20.8386  20.8418  20.8499  20.8872
    20.9684  21.0580  21.1089  21.1253  21.2100  21.2113  21.2979  21.3231
    21.5560  21.6115  21.6898  21.7607  21.7768  21.8320  21.9308  21.9878
    22.0004  22.0313  22.0890  22.0907  22.1071  22.1093  22.1684  22.2353
    22.3073  22.3618  22.4523  22.4953  22.4995  22.5657  22.5961  22.6133
    22.6335  22.7242  22.7652  22.7849  22.8819  22.8898  22.9024  22.9708
    23.0350  23.0720  23.2026  23.2499  23.3011  23.3033  23.3804  23.3892
    23.5872  23.5939  23.6653  23.7624  23.8778  23.8912  23.9122  23.9191
    23.9409  23.9525  23.9635  24.0559  24.0649  24.1416  24.1525  24.2382
    24.3170  24.4359  24.4396  24.4863  24.4975  24.5019  24.5026  24.5052
    24.6357  24.6497  24.7306  24.9667  25.0197  25.0227  25.0231  25.0236
    25.0366  25.2180  25.4938  25.7252  25.7629  25.9378  26.0846  26.2607
    26.7521  27.0760  27.3543

          k = 0.0553 0.1667-0.5000 ( 30268 PWs)   bands (ev):

   -49.9723 -49.9722 -49.9065 -49.9064 -49.8900 -49.8899 -49.8741 -49.8741
   -49.8584 -49.8583 -49.8582 -49.8581 -49.8492 -49.8491 -49.8355 -49.8354
   -49.8312 -49.8311 -49.8204 -49.8203 -49.8094 -49.8093 -49.8070 -49.8070
   -49.8045 -49.8045 -49.8016 -49.8016 -49.7921 -49.7920 -49.7914 -49.7914
   -20.3169 -20.3168 -20.3085 -20.3084 -20.2777 -20.2776 -20.2580 -20.2579
   -20.2555 -20.2554 -20.2548 -20.2547 -20.2181 -20.2180 -20.1715 -20.1715
   -20.1650 -20.1650 -20.1629 -20.1629 -20.1094 -20.1093 -20.0892 -20.0892
   -20.0541 -20.0541 -20.0485 -20.0485 -20.0020 -20.0020 -19.9723 -19.9722
   -19.9433 -19.9433 -19.9269 -19.9268 -19.9249 -19.9248 -19.8849 -19.8849
   -19.8570 -19.8570 -19.7738 -19.7737 -19.7564 -19.7564 -19.7343 -19.7342
   -19.7240 -19.7239 -19.7154 -19.7153 -19.7090 -19.7090 -19.6896 -19.6896
   -19.6803 -19.6802 -19.6719 -19.6719 -19.6713 -19.6713 -19.6701 -19.6701
   -19.6665 -19.6664 -19.6398 -19.6398 -19.6319 -19.6318 -19.6140 -19.6139
   -19.6118 -19.6117 -19.5984 -19.5984 -19.5966 -19.5966 -19.5776 -19.5776
   -19.5733 -19.5732 -19.5648 -19.5647 -19.5517 -19.5516 -19.5334 -19.5333
   -19.5320 -19.5320 -19.4982 -19.4982 -19.4747 -19.4746 -19.4569 -19.4569
    16.1502  16.1505  17.3487  17.3489  17.4379  17.4381  17.4680  17.4682
    17.5527  17.5527  17.6508  17.6508  17.7215  17.7217  17.7638  17.7641
    17.7926  17.7926  17.8320  17.8320  17.9305  17.9307  17.9661  17.9663
    17.9902  17.9903  18.1384  18.1386  18.3312  18.3314  18.3779  18.3780
    18.6542  18.6543  18.6804  18.6806  18.7267  18.7268  18.8101  18.8103
    19.0598  19.0598  19.0864  19.0866  19.1213  19.1214  19.1525  19.1525
    19.2402  19.2402  19.2899  19.2900  19.3101  19.3102  19.7885  19.7886
    19.8427  19.8428  19.8598  19.8599  19.9150  19.9152  19.9610  19.9610
    20.1042  20.1043  20.1322  20.1323  20.3044  20.3045  20.3219  20.3221
    20.3997  20.3998  20.4547  20.4548  20.5001  20.5002  20.6898  20.6899
    20.8078  20.8078  20.9089  20.9090  20.9523  20.9524  20.9902  20.9903
    20.9968  20.9969  21.0319  21.0320  21.4601  21.4602  21.5020  21.5021
    21.5348  21.5349  21.5849  21.5849  21.7673  21.7674  21.7700  21.7702
    22.0280  22.0281  22.2039  22.2040  22.2207  22.2208  22.2443  22.2444
    22.2847  22.2848  22.3334  22.3335  22.3968  22.3969  22.5085  22.5086
    22.6988  22.6989  22.7269  22.7270  22.8264  22.8265  23.0754  23.0756
    23.1263  23.1264  23.1334  23.1335  23.1945  23.1946  23.6468  23.6469
    23.7329  23.7329  23.7387  23.7387  23.9492  23.9492  24.0089  24.0089
    24.1347  24.1348  24.1940  24.1940  24.1984  24.1984  24.2186  24.2186
    24.2196  24.2197  24.2269  24.2270  24.2302  24.2303  24.4136  24.4137
    24.5591  24.5591  24.9792  24.9792  25.0207  25.0209  25.0279  25.0280
    25.2930  25.2932  25.4953  25.4955  25.5205  25.5206  26.0349  26.0350
    27.0970  27.0971  27.5222

          k = 0.0553 0.2778 0.2778 ( 30271 PWs)   bands (ev):

   -49.9873 -49.9372 -49.9372 -49.8996 -49.8984 -49.8812 -49.8714 -49.8714
   -49.8588 -49.8588 -49.8574 -49.8494 -49.8492 -49.8491 -49.8340 -49.8339
   -49.8334 -49.8334 -49.8247 -49.8247 -49.8200 -49.8200 -49.8079 -49.7986
   -49.7986 -49.7980 -49.7980 -49.7964 -49.7964 -49.7932 -49.7931 -49.7916
   -20.3628 -20.3628 -20.3262 -20.3058 -20.2938 -20.2870 -20.2870 -20.2272
   -20.2272 -20.2234 -20.2234 -20.1869 -20.1869 -20.1635 -20.1634 -20.1615
   -20.1615 -20.1555 -20.1555 -20.1527 -20.1527 -20.1244 -20.1212 -20.1212
   -20.1093 -20.1093 -20.0277 -20.0184 -19.9923 -19.9923 -19.9762 -19.9762
   -19.9691 -19.9571 -19.9247 -19.9247 -19.8552 -19.8551 -19.8515 -19.8276
   -19.8275 -19.8206 -19.8205 -19.7883 -19.7883 -19.7688 -19.7688 -19.7604
   -19.7604 -19.7519 -19.7519 -19.7460 -19.7333 -19.7333 -19.7145 -19.7144
   -19.6962 -19.6961 -19.6945 -19.6945 -19.6616 -19.6616 -19.6597 -19.6597
   -19.6426 -19.6426 -19.6422 -19.6311 -19.6130 -19.6129 -19.6121 -19.6073
   -19.6072 -19.6041 -19.6041 -19.6004 -19.5787 -19.5787 -19.5771 -19.5722
   -19.5718 -19.5619 -19.5500 -19.5500 -19.5499 -19.5488 -19.5393 -19.5392
   -19.5350 -19.5241 -19.5240 -19.4941 -19.4941 -19.4804 -19.4494 -19.4242
    15.7586  17.0212  17.0214  17.1584  17.1661  17.1661  17.2886  17.3735
    17.5391  17.5391  17.5850  17.5850  17.6948  17.7329  17.8188  17.8188
    17.8977  17.9525  17.9669  17.9670  17.9854  17.9855  18.0792  18.0793
    18.1236  18.1236  18.2016  18.2016  18.4013  18.4819  18.4819  18.4976
    18.4977  18.5246  18.5247  18.6121  18.6122  18.7244  18.7244  18.7921
    18.7922  18.9054  19.0536  19.0537  19.1215  19.1230  19.1230  19.3683
    19.3683  19.3863  19.3863  19.4341  19.4341  19.4365  19.4820  19.8216
    19.8216  19.9488  19.9488  20.0021  20.0022  20.0783  20.0783  20.1208
    20.1209  20.1329  20.1330  20.2124  20.2287  20.2984  20.2984  20.3681
    20.3731  20.4541  20.4542  20.6078  20.6079  20.6444  20.6664  20.7222
    20.7250  20.7364  20.7521  20.7522  20.7773  20.7913  20.7948  20.7948
    20.9518  20.9518  21.0855  21.0855  21.3302  21.3302  21.4704  21.4704
    21.5237  21.5237  21.6267  21.6267  21.6557  21.7304  21.7304  21.7329
    21.7679  21.7680  21.9593  21.9895  22.1083  22.1288  22.1288  22.1381
    22.1381  22.2593  22.3326  22.4587  22.4587  22.6291  22.6291  22.6304
    22.8831  22.9148  22.9148  23.0375  23.0376  23.0715  23.0715  23.1448
    23.1703  23.1788  23.1788  23.2842  23.2842  23.3700  23.3700  23.3817
    23.3818  23.4222  23.4222  23.6912  23.7178  23.7179  23.7843  23.8723
    23.8723  23.8797  23.8968  23.8968  24.0508  24.1050  24.2721  24.2721
    24.4668  24.6116  24.6116  24.6254  24.6256  24.6398  24.6399  24.6616
    24.7938  24.7938  24.8004  24.8004  24.8315  24.8315  24.8638  24.8638
    24.9514  25.3106  25.4014  25.4015  25.9128  25.9128  26.9732  26.9732
    27.2470  27.3036  27.3036

          k = 0.0553 0.2778 0.3889 ( 30295 PWs)   bands (ev):

   -49.9783 -49.9529 -49.9304 -49.9113 -49.8935 -49.8798 -49.8772 -49.8689
   -49.8658 -49.8617 -49.8571 -49.8523 -49.8464 -49.8387 -49.8334 -49.8307
   -49.8293 -49.8262 -49.8225 -49.8222 -49.8164 -49.8132 -49.8077 -49.8033
   -49.8031 -49.8029 -49.8020 -49.7981 -49.7970 -49.7958 -49.7927 -49.7919
   -20.3420 -20.3392 -20.2902 -20.2723 -20.2704 -20.2692 -20.2671 -20.2658
   -20.2558 -20.2197 -20.2196 -20.2184 -20.2041 -20.2016 -20.1879 -20.1858
   -20.1853 -20.1701 -20.1700 -20.1658 -20.1446 -20.1442 -20.1230 -20.1211
   -20.1134 -20.0817 -20.0526 -20.0517 -20.0228 -19.9967 -19.9543 -19.9479
   -19.9377 -19.9185 -19.9054 -19.8872 -19.8830 -19.8823 -19.8637 -19.8526
   -19.8158 -19.8129 -19.7959 -19.7820 -19.7750 -19.7714 -19.7593 -19.7551
   -19.7428 -19.7382 -19.7324 -19.7245 -19.7225 -19.7187 -19.7035 -19.7016
   -19.6926 -19.6912 -19.6900 -19.6868 -19.6793 -19.6671 -19.6570 -19.6508
   -19.6506 -19.6490 -19.6339 -19.6336 -19.6320 -19.6242 -19.6234 -19.6231
   -19.6101 -19.6024 -19.6001 -19.5933 -19.5882 -19.5877 -19.5876 -19.5865
   -19.5830 -19.5662 -19.5610 -19.5579 -19.5574 -19.5537 -19.5530 -19.5412
   -19.5284 -19.5279 -19.5113 -19.4810 -19.4732 -19.4675 -19.4656 -19.4315
    15.9939  16.6440  17.1988  17.3004  17.3074  17.3470  17.3908  17.4901
    17.6591  17.6776  17.6917  17.7158  17.7172  17.7301  17.7434  17.7613
    17.7802  17.8254  17.8677  17.8942  17.9092  17.9359  18.0029  18.0099
    18.0296  18.0545  18.2011  18.2156  18.2423  18.2435  18.2783  18.3466
    18.4238  18.5145  18.5740  18.6254  18.6380  18.6470  18.6790  18.6799
    18.7786  18.8786  18.8890  18.9708  19.0068  19.1348  19.1358  19.1716
    19.2610  19.3270  19.4616  19.4688  19.4994  19.5033  19.6813  19.7249
    19.7719  19.7938  19.8632  20.0078  20.0749  20.0939  20.1752  20.1754
    20.2158  20.2287  20.2347  20.3149  20.3648  20.3653  20.3686  20.5030
    20.5112  20.5743  20.5791  20.5969  20.6231  20.6292  20.7501  20.7683
    20.8332  20.8365  20.8484  20.8658  20.8659  20.9508  20.9767  20.9847
    20.9905  21.0537  21.1108  21.1265  21.2155  21.2751  21.3284  21.4209
    21.4707  21.4818  21.5028  21.5155  21.5822  21.6114  21.6261  21.6271
    21.7326  21.7419  21.7642  21.8447  21.9407  21.9869  21.9890  22.0517
    22.1665  22.1694  22.3225  22.3466  22.4914  22.5117  22.6044  22.6454
    22.8183  22.8480  22.8561  22.9140  22.9556  23.0679  23.1231  23.1290
    23.2164  23.2364  23.2961  23.4059  23.4096  23.4232  23.4941  23.5511
    23.5994  23.6050  23.7627  23.7628  23.7636  23.8158  23.9978  24.0383
    24.0506  24.0739  24.1163  24.1216  24.1330  24.1376  24.1449  24.1767
    24.2495  24.4000  24.4610  24.4909  24.4944  24.4957  24.5262  24.5302
    24.5317  24.5868  24.7969  24.7980  24.8140  24.8151  24.8809  24.9172
    25.2389  25.3793  25.3808  25.3949  25.4600  25.7603  26.6596  26.6689
    27.4072  27.5839  27.9163

          k = 0.0553 0.2778-0.5000 ( 30284 PWs)   bands (ev):

   -49.9667 -49.9667 -49.9218 -49.9217 -49.8873 -49.8872 -49.8720 -49.8720
   -49.8656 -49.8656 -49.8549 -49.8548 -49.8429 -49.8428 -49.8283 -49.8282
   -49.8256 -49.8255 -49.8194 -49.8194 -49.8119 -49.8118 -49.8091 -49.8090
   -49.8072 -49.8071 -49.7992 -49.7992 -49.7977 -49.7976 -49.7923 -49.7922
   -20.3114 -20.3113 -20.3067 -20.3067 -20.2478 -20.2477 -20.2461 -20.2460
   -20.2402 -20.2401 -20.2196 -20.2196 -20.2151 -20.2151 -20.2076 -20.2075
   -20.2053 -20.2053 -20.1807 -20.1807 -20.1335 -20.1334 -20.1230 -20.1229
   -20.0877 -20.0876 -20.0479 -20.0479 -20.0394 -20.0394 -19.9181 -19.9181
   -19.9176 -19.9176 -19.9004 -19.9003 -19.8811 -19.8810 -19.8667 -19.8666
   -19.8446 -19.8446 -19.7576 -19.7576 -19.7499 -19.7498 -19.7477 -19.7476
   -19.7386 -19.7386 -19.7339 -19.7339 -19.7243 -19.7243 -19.7200 -19.7199
   -19.6879 -19.6879 -19.6754 -19.6753 -19.6635 -19.6634 -19.6622 -19.6622
   -19.6431 -19.6430 -19.6391 -19.6391 -19.6356 -19.6356 -19.6219 -19.6218
   -19.6079 -19.6078 -19.5961 -19.5960 -19.5947 -19.5946 -19.5918 -19.5918
   -19.5818 -19.5817 -19.5702 -19.5702 -19.5569 -19.5568 -19.5382 -19.5382
   -19.5342 -19.5341 -19.4865 -19.4864 -19.4735 -19.4735 -19.4463 -19.4462
    16.2938  16.2941  17.4215  17.4218  17.4782  17.4784  17.4883  17.4884
    17.5433  17.5433  17.5723  17.5725  17.6554  17.6555  17.8316  17.8318
    17.8398  17.8400  17.9391  17.9391  17.9587  17.9587  17.9897  17.9898
    17.9933  17.9935  18.1205  18.1206  18.1419  18.1420  18.2474  18.2476
    18.4419  18.4421  18.5393  18.5394  18.6491  18.6491  18.7683  18.7684
    18.7744  18.7745  18.9185  18.9186  19.0183  19.0185  19.0641  19.0642
    19.4144  19.4144  19.4960  19.4961  19.5812  19.5812  19.6037  19.6038
    19.6393  19.6394  19.9058  19.9059  20.1283  20.1285  20.2534  20.2535
    20.2718  20.2718  20.3461  20.3462  20.3775  20.3776  20.4003  20.4004
    20.4868  20.4869  20.6533  20.6533  20.7412  20.7413  20.8499  20.8499
    20.8735  20.8735  20.9510  20.9512  20.9520  20.9521  21.0013  21.0013
    21.1454  21.1455  21.1862  21.1862  21.2006  21.2006  21.2039  21.2039
    21.3868  21.3869  21.3948  21.3949  21.5127  21.5128  21.5171  21.5172
    21.7307  21.7308  21.9488  21.9488  22.0882  22.0882  22.0970  22.0971
    22.1449  22.1450  22.1859  22.1860  22.3145  22.3146  22.4936  22.4937
    22.6816  22.6817  22.9972  22.9973  23.0298  23.0300  23.0788  23.0789
    23.2353  23.2354  23.4857  23.4858  23.5296  23.5297  23.6410  23.6411
    23.7403  23.7404  23.8069  23.8069  23.8844  23.8844  23.8860  23.8860
    24.1387  24.1387  24.1393  24.1394  24.2525  24.2526  24.3218  24.3218
    24.3227  24.3227  24.3295  24.3295  24.3634  24.3634  24.3664  24.3665
    24.4591  24.4592  24.8045  24.8047  24.8384  24.8385  24.8822  24.8822
    25.0318  25.0320  25.5707  25.5709  25.9945  25.9946  26.0690  26.0691
    27.7660  27.7662  28.0941

          k = 0.0553 0.3889 0.3889 ( 30267 PWs)   bands (ev):

   -49.9697 -49.9454 -49.9454 -49.9243 -49.8891 -49.8765 -49.8765 -49.8736
   -49.8673 -49.8633 -49.8633 -49.8565 -49.8314 -49.8313 -49.8257 -49.8257
   -49.8252 -49.8251 -49.8187 -49.8187 -49.8163 -49.8163 -49.8069 -49.8069
   -49.8064 -49.8063 -49.8045 -49.8045 -49.7999 -49.7946 -49.7946 -49.7926
   -20.3228 -20.3228 -20.2616 -20.2616 -20.2596 -20.2596 -20.2535 -20.2474
   -20.2437 -20.2437 -20.2245 -20.2178 -20.2178 -20.2085 -20.2085 -20.1829
   -20.1829 -20.1722 -20.1721 -20.1691 -20.1691 -20.1667 -20.1667 -20.1291
   -20.1291 -20.1282 -20.0888 -20.0475 -20.0393 -19.9885 -19.9885 -19.9172
   -19.9001 -19.9001 -19.8638 -19.8638 -19.8623 -19.8287 -19.8287 -19.8132
   -19.8132 -19.8129 -19.8128 -19.7955 -19.7955 -19.7515 -19.7515 -19.7477
   -19.7477 -19.7392 -19.7392 -19.7288 -19.7288 -19.7238 -19.7222 -19.7222
   -19.7066 -19.7065 -19.6829 -19.6829 -19.6727 -19.6727 -19.6648 -19.6607
   -19.6607 -19.6356 -19.6355 -19.6333 -19.6262 -19.6262 -19.6260 -19.6260
   -19.6081 -19.6030 -19.6030 -19.6016 -19.6016 -19.5918 -19.5890 -19.5793
   -19.5715 -19.5664 -19.5658 -19.5626 -19.5626 -19.5537 -19.5536 -19.5344
   -19.5344 -19.5291 -19.5291 -19.4823 -19.4604 -19.4580 -19.4580 -19.4326
    16.2177  16.8368  16.8369  17.3668  17.4162  17.4581  17.4909  17.4910
    17.5701  17.7218  17.7219  17.7431  17.7861  17.7862  17.8486  17.8487
    17.8545  17.8546  17.8625  17.8625  17.8878  17.9029  17.9029  17.9795
    17.9795  18.0482  18.0995  18.1583  18.1583  18.3520  18.3520  18.3580
    18.3581  18.3603  18.3604  18.3609  18.3609  18.6116  18.6116  18.6130
    18.6131  18.6674  18.6674  18.9154  18.9154  19.0594  19.2558  19.2558
    19.2620  19.2620  19.4215  19.5931  19.5931  19.5997  19.6086  19.6829
    19.6829  20.0067  20.0068  20.0089  20.1570  20.2725  20.2726  20.3670
    20.3937  20.3938  20.4039  20.4039  20.4097  20.4097  20.4541  20.4541
    20.5063  20.5523  20.7312  20.7312  20.8253  20.8253  20.8662  20.8782
    20.8848  20.8937  20.9092  20.9797  20.9899  20.9899  21.0468  21.0469
    21.1851  21.1851  21.1963  21.1965  21.1965  21.2407  21.2408  21.2758
    21.3636  21.3637  21.3675  21.3676  21.4200  21.4382  21.4525  21.4525
    21.4855  21.4856  21.6398  21.6827  21.6828  21.7132  21.7132  22.0114
    22.1436  22.1437  22.1764  22.1764  22.2578  22.2578  22.2876  22.4170
    22.7106  23.0146  23.0842  23.0842  23.1069  23.1069  23.3569  23.3569
    23.3840  23.3840  23.4738  23.4738  23.5363  23.5363  23.6101  23.6434
    23.7861  23.7862  23.8891  23.9187  23.9187  23.9348  23.9348  23.9478
    23.9478  24.0359  24.1477  24.2370  24.2750  24.3039  24.3039  24.3077
    24.3077  24.3384  24.4078  24.4707  24.4707  24.5001  24.5002  24.5329
    24.5329  24.5419  24.5434  24.5434  24.5727  24.5727  24.7423  24.7652
    24.7653  25.0965  25.2569  25.2570  26.0402  26.0402  27.3209  27.3209
    27.3906  27.3906  28.0802

          k = 0.0553 0.3889-0.5000 ( 30290 PWs)   bands (ev):

   -49.9586 -49.9586 -49.9358 -49.9357 -49.8834 -49.8833 -49.8724 -49.8723
   -49.8689 -49.8689 -49.8602 -49.8602 -49.8288 -49.8287 -49.8217 -49.8216
   -49.8204 -49.8204 -49.8181 -49.8180 -49.8142 -49.8142 -49.8120 -49.8119
   -49.8110 -49.8109 -49.8058 -49.8057 -49.7971 -49.7970 -49.7935 -49.7934
   -20.2966 -20.2966 -20.2949 -20.2949 -20.2431 -20.2430 -20.2429 -20.2429
   -20.2279 -20.2278 -20.2179 -20.2178 -20.2115 -20.2115 -20.2102 -20.2101
   -20.1934 -20.1934 -20.1781 -20.1781 -20.1715 -20.1715 -20.1565 -20.1564
   -20.1283 -20.1283 -20.0847 -20.0847 -20.0211 -20.0211 -19.9528 -19.9528
   -19.8635 -19.8635 -19.8550 -19.8549 -19.8404 -19.8404 -19.8268 -19.8267
   -19.8060 -19.8060 -19.7775 -19.7774 -19.7736 -19.7735 -19.7728 -19.7728
   -19.7650 -19.7650 -19.7344 -19.7344 -19.7134 -19.7133 -19.7132 -19.7132
   -19.6966 -19.6965 -19.6901 -19.6901 -19.6836 -19.6835 -19.6718 -19.6717
   -19.6509 -19.6508 -19.6504 -19.6503 -19.6176 -19.6175 -19.6159 -19.6159
   -19.6158 -19.6158 -19.6069 -19.6069 -19.5822 -19.5821 -19.5777 -19.5777
   -19.5745 -19.5745 -19.5689 -19.5688 -19.5521 -19.5520 -19.5475 -19.5475
   -19.5431 -19.5431 -19.5037 -19.5036 -19.4554 -19.4554 -19.4416 -19.4416
    16.5029  16.5032  17.0814  17.0817  17.5693  17.5694  17.5788  17.5789
    17.6648  17.6650  17.6921  17.6921  17.7202  17.7204  17.7222  17.7223
    17.8606  17.8607  17.8960  17.8960  17.9954  17.9956  18.0861  18.0863
    18.0868  18.0870  18.1139  18.1139  18.1185  18.1185  18.1657  18.1659
    18.3454  18.3454  18.3629  18.3630  18.4711  18.4712  18.5098  18.5098
    18.5313  18.5313  18.8324  18.8324  19.0488  19.0489  19.0616  19.0618
    19.4071  19.4072  19.4183  19.4184  19.6592  19.6592  19.7356  19.7357
    19.8680  19.8681  19.9352  19.9352  20.1169  20.1171  20.3643  20.3644
    20.4163  20.4164  20.4704  20.4705  20.5770  20.5771  20.6286  20.6286
    20.7451  20.7452  20.7554  20.7554  20.7854  20.7855  20.9381  20.9381
    20.9502  20.9503  20.9558  20.9559  21.0187  21.0187  21.0465  21.0465
    21.0867  21.0867  21.1432  21.1433  21.1522  21.1523  21.1543  21.1543
    21.3040  21.3041  21.3050  21.3051  21.4256  21.4257  21.4494  21.4495
    21.4857  21.4858  21.6324  21.6325  21.8477  21.8478  21.8749  21.8750
    21.9144  21.9145  21.9337  21.9338  22.1047  22.1048  22.2874  22.2875
    22.9109  22.9111  23.1567  23.1568  23.2871  23.2872  23.3271  23.3272
    23.3596  23.3597  23.5827  23.5827  23.6654  23.6655  23.6890  23.6891
    23.7590  23.7591  23.8397  23.8398  23.9553  23.9553  24.0941  24.0942
    24.1548  24.1549  24.2439  24.2439  24.3134  24.3134  24.3191  24.3191
    24.3424  24.3424  24.4114  24.4114  24.4148  24.4148  24.4500  24.4500
    24.4550  24.4550  24.5161  24.5162  24.5775  24.5776  24.6405  24.6406
    24.7521  24.7521  25.1099  25.1101  26.6919  26.6920  26.6957  26.6959
    28.0363  28.0365  28.1072

          k = 0.0553-0.5000-0.5000 ( 30308 PWs)   bands (ev):

   -49.9484 -49.9483 -49.9481 -49.9480 -49.8785 -49.8784 -49.8782 -49.8781
   -49.8651 -49.8650 -49.8648 -49.8647 -49.8165 -49.8164 -49.8164 -49.8164
   -49.8162 -49.8162 -49.8162 -49.8161 -49.8159 -49.8159 -49.8159 -49.8159
   -49.8157 -49.8156 -49.8156 -49.8156 -49.7953 -49.7952 -49.7950 -49.7949
   -20.2734 -20.2734 -20.2734 -20.2734 -20.2734 -20.2734 -20.2733 -20.2733
   -20.2032 -20.2032 -20.2031 -20.2031 -20.2030 -20.2030 -20.2029 -20.2029
   -20.1897 -20.1896 -20.1895 -20.1893 -20.1708 -20.1708 -20.1707 -20.1707
   -20.1323 -20.1322 -20.1321 -20.1321 -19.9881 -19.9881 -19.9881 -19.9881
   -19.8118 -19.8118 -19.8118 -19.8118 -19.8117 -19.8117 -19.8117 -19.8117
   -19.8043 -19.8042 -19.8042 -19.8042 -19.8041 -19.8040 -19.8039 -19.8039
   -19.7466 -19.7466 -19.7466 -19.7466 -19.7055 -19.7054 -19.7054 -19.7054
   -19.7052 -19.7052 -19.7052 -19.7052 -19.6963 -19.6963 -19.6963 -19.6963
   -19.6348 -19.6348 -19.6348 -19.6348 -19.6347 -19.6346 -19.6346 -19.6346
   -19.6000 -19.6000 -19.5999 -19.5998 -19.5819 -19.5818 -19.5818 -19.5818
   -19.5598 -19.5598 -19.5598 -19.5598 -19.5594 -19.5594 -19.5593 -19.5593
   -19.5259 -19.5259 -19.5257 -19.5256 -19.4446 -19.4446 -19.4446 -19.4446
    16.7693  16.7695  16.7696  16.7699  17.6298  17.6299  17.6299  17.6300
    17.7144  17.7144  17.7144  17.7145  17.7606  17.7606  17.7606  17.7607
    17.8988  17.8988  17.8989  17.8989  17.8990  17.8990  17.8992  17.8992
    18.2102  18.2102  18.2103  18.2104  18.2104  18.2104  18.2106  18.2106
    18.3101  18.3101  18.3101  18.3101  18.3101  18.3102  18.3102  18.3102
    18.5828  18.5828  18.5828  18.5829  19.2169  19.2169  19.2170  19.2170
    19.2171  19.2171  19.2172  19.2173  19.7864  19.7864  19.7864  19.7865
    20.0053  20.0054  20.0055  20.0056  20.2829  20.2830  20.2830  20.2832
    20.4939  20.4939  20.4939  20.4940  20.5071  20.5071  20.5072  20.5072
    20.8704  20.8704  20.8704  20.8704  20.8704  20.8704  20.8705  20.8705
    20.9600  20.9600  20.9601  20.9602  21.1387  21.1388  21.1388  21.1389
    21.1457  21.1457  21.1457  21.1458  21.2892  21.2893  21.2894  21.2894
    21.2894  21.2895  21.2895  21.2895  21.2930  21.2931  21.2931  21.2931
    21.5294  21.5295  21.5295  21.5296  21.6723  21.6723  21.6723  21.6724
    21.6724  21.6724  21.6724  21.6725  22.1964  22.1965  22.1966  22.1967
    23.1473  23.1475  23.1476  23.1476  23.3319  23.3319  23.3320  23.3321
    23.5533  23.5533  23.5534  23.5534  23.5534  23.5535  23.5535  23.5536
    24.0668  24.0668  24.0668  24.0669  24.1862  24.1862  24.1862  24.1863
    24.1863  24.1864  24.1864  24.1864  24.1921  24.1922  24.1922  24.1923
    24.4234  24.4234  24.4235  24.4235  24.4642  24.4642  24.4642  24.4643
    24.4643  24.4643  24.4643  24.4643  24.4711  24.4711  24.4711  24.4711
    24.7197  24.7198  24.7198  24.7199  27.3808  27.3808  27.3809  27.3809
    27.3810  27.3810  27.3810

          k = 0.1660 0.0556 0.0556 ( 30302 PWs)   bands (ev):

   -50.0032 -49.9273 -49.9059 -49.9059 -49.8872 -49.8872 -49.8715 -49.8639
   -49.8639 -49.8533 -49.8518 -49.8518 -49.8461 -49.8434 -49.8433 -49.8428
   -49.8428 -49.8412 -49.8350 -49.8333 -49.8333 -49.8261 -49.8261 -49.7948
   -49.7917 -49.7917 -49.7912 -49.7912 -49.7891 -49.7891 -49.7886 -49.7886
   -20.3979 -20.3941 -20.3941 -20.3861 -20.3356 -20.3356 -20.3297 -20.1788
   -20.1658 -20.1658 -20.1479 -20.1479 -20.1452 -20.1451 -20.1451 -20.1420
   -20.1420 -20.1149 -20.1149 -20.1007 -20.1007 -20.0872 -20.0872 -20.0858
   -20.0858 -20.0485 -20.0485 -20.0309 -20.0309 -20.0205 -19.9971 -19.9971
   -19.9561 -19.9561 -19.9116 -19.9116 -19.8799 -19.8799 -19.8689 -19.8689
   -19.8386 -19.8012 -19.8012 -19.7932 -19.7932 -19.7909 -19.7909 -19.7832
   -19.7813 -19.7812 -19.7726 -19.7726 -19.7700 -19.7700 -19.7693 -19.7693
   -19.7686 -19.7642 -19.7640 -19.7522 -19.7522 -19.6417 -19.6403 -19.6232
   -19.6232 -19.6042 -19.6042 -19.5907 -19.5907 -19.5875 -19.5875 -19.5790
   -19.5790 -19.5742 -19.5715 -19.5715 -19.5672 -19.5671 -19.5629 -19.5570
   -19.5511 -19.5505 -19.5505 -19.5499 -19.5499 -19.5487 -19.5479 -19.5477
   -19.5476 -19.5430 -19.5328 -19.5246 -19.5246 -19.4407 -19.4218 -19.4201
    15.3450  16.8800  16.8896  16.8897  17.1419  17.1770  17.1770  17.1944
    17.1982  17.3347  17.3549  17.3549  17.5752  17.5753  17.6996  17.7516
    17.7517  18.0975  18.0976  18.2825  18.2837  18.2838  18.2942  18.2943
    18.4907  18.5883  18.5883  18.5959  18.5959  18.6463  18.6636  18.6637
    18.8494  18.8495  18.8550  18.8550  18.8785  18.8786  18.9529  18.9529
    19.0094  19.0094  19.0832  19.3748  19.3749  19.4170  19.4170  19.4655
    19.4655  19.4802  19.4802  19.5359  19.5359  19.6217  19.6218  19.6459
    19.7292  19.7293  19.7392  19.7392  19.8296  19.8500  19.8501  19.8955
    19.8955  19.9110  19.9110  19.9240  19.9240  20.1573  20.1573  20.1833
    20.1833  20.2060  20.2547  20.2663  20.3078  20.3078  20.3712  20.4039
    20.4525  20.4548  20.4548  20.4754  20.4754  20.4968  20.5741  20.5824
    21.2735  21.2735  21.4017  21.4017  21.4628  21.5197  21.6279  21.6279
    21.6569  21.7368  21.7368  21.7930  21.9151  21.9151  21.9265  21.9482
    21.9482  21.9935  21.9936  21.9988  22.0817  22.0817  22.4114  22.4114
    22.4327  22.4328  22.4414  22.4414  22.5656  22.5656  22.5788  22.5788
    22.6913  22.6913  22.7139  22.7140  22.7684  22.8234  22.8234  22.8250
    22.8834  22.9171  23.0378  23.0378  23.0517  23.0898  23.0898  23.1863
    23.2075  23.2075  23.2261  23.2743  23.2743  23.4613  23.5030  23.6929
    23.6929  23.8834  23.8834  23.9699  24.4073  24.4073  24.5219  24.5219
    24.5268  24.5731  24.6283  24.6290  24.6290  24.8268  24.9164  25.0179
    25.0179  25.0205  25.0206  25.0490  25.1707  25.1707  25.1750  25.1750
    25.3438  25.3439  25.5707  26.0729  26.0729  26.4209  26.5552  26.5950
    26.5950  27.0929  27.0929

          k = 0.1660 0.0556 0.1667 ( 30309 PWs)   bands (ev):

   -49.9999 -49.9252 -49.9243 -49.9041 -49.8857 -49.8759 -49.8702 -49.8687
   -49.8633 -49.8632 -49.8515 -49.8515 -49.8494 -49.8445 -49.8405 -49.8400
   -49.8396 -49.8395 -49.8336 -49.8334 -49.8268 -49.8266 -49.8190 -49.7948
   -49.7932 -49.7930 -49.7923 -49.7923 -49.7908 -49.7908 -49.7899 -49.7891
   -20.3907 -20.3906 -20.3794 -20.3672 -20.3273 -20.3234 -20.3221 -20.1847
   -20.1808 -20.1789 -20.1743 -20.1468 -20.1462 -20.1447 -20.1435 -20.1417
   -20.1375 -20.1365 -20.1356 -20.1322 -20.1178 -20.1129 -20.1107 -20.1105
   -20.0508 -20.0300 -20.0289 -20.0248 -20.0248 -20.0112 -20.0070 -19.9894
   -19.9834 -19.9700 -19.9532 -19.8974 -19.8753 -19.8751 -19.8383 -19.8380
   -19.8291 -19.8265 -19.8073 -19.8034 -19.8026 -19.7875 -19.7789 -19.7701
   -19.7688 -19.7679 -19.7675 -19.7671 -19.7654 -19.7645 -19.7643 -19.7634
   -19.7568 -19.7559 -19.7282 -19.7275 -19.7140 -19.6552 -19.6490 -19.6363
   -19.6345 -19.6149 -19.6099 -19.6019 -19.5875 -19.5864 -19.5862 -19.5818
   -19.5805 -19.5783 -19.5776 -19.5763 -19.5763 -19.5743 -19.5630 -19.5590
   -19.5587 -19.5576 -19.5572 -19.5551 -19.5509 -19.5482 -19.5447 -19.5440
   -19.5393 -19.5382 -19.5256 -19.5219 -19.5079 -19.4621 -19.4269 -19.4194
    15.4298  16.9406  16.9440  16.9474  17.1620  17.2144  17.2596  17.2662
    17.2662  17.2711  17.3924  17.3960  17.4200  17.6221  17.7677  17.7778
    17.7982  18.1313  18.1462  18.1576  18.1762  18.3275  18.3365  18.3409
    18.3417  18.3793  18.3794  18.4543  18.5207  18.5214  18.6420  18.6826
    18.6845  18.7022  18.7054  18.7306  18.9000  18.9683  18.9692  18.9738
    18.9762  18.9986  19.0032  19.1099  19.1299  19.3403  19.3537  19.4497
    19.4510  19.4748  19.5221  19.5270  19.5554  19.5577  19.6047  19.6128
    19.6256  19.8055  19.8104  19.8256  19.8278  19.9041  19.9201  19.9798
    19.9847  20.0315  20.0959  20.1025  20.1923  20.2057  20.2268  20.2288
    20.2628  20.2690  20.3108  20.3588  20.3703  20.3821  20.3851  20.4092
    20.4470  20.4570  20.4646  20.5043  20.5494  20.5636  20.5788  20.6233
    21.1344  21.2348  21.2488  21.2744  21.5051  21.5263  21.6696  21.6726
    21.6835  21.7008  21.7016  21.7490  21.7771  21.7787  21.7926  21.8048
    21.8193  21.9573  22.0276  22.1321  22.1330  22.1499  22.1529  22.1994
    22.2750  22.5652  22.5665  22.6782  22.6874  22.6987  22.7017  22.7109
    22.7426  22.7480  22.7570  22.8220  22.8397  22.8873  22.9023  22.9056
    22.9636  22.9718  22.9821  23.0217  23.0227  23.1234  23.2127  23.2721
    23.2754  23.3008  23.3102  23.3806  23.3923  23.4022  23.5151  23.5388
    23.7228  23.9190  24.0902  24.1007  24.1033  24.2238  24.2284  24.4047
    24.5141  24.5175  24.5850  24.6521  24.6592  24.6737  24.6876  24.9161
    24.9175  25.0156  25.0234  25.0449  25.0472  25.0490  25.0634  25.0929
    25.2880  25.5756  25.9222  25.9239  26.0152  26.0354  26.5406  26.5662
    27.0200  27.0712  27.1514

          k = 0.1660 0.0556 0.2778 ( 30284 PWs)   bands (ev):

   -49.9936 -49.9419 -49.9210 -49.9007 -49.8873 -49.8828 -49.8727 -49.8677
   -49.8621 -49.8594 -49.8526 -49.8510 -49.8509 -49.8473 -49.8460 -49.8382
   -49.8366 -49.8341 -49.8285 -49.8277 -49.8240 -49.8189 -49.8122 -49.7988
   -49.7964 -49.7960 -49.7949 -49.7945 -49.7928 -49.7923 -49.7903 -49.7892
   -20.3763 -20.3725 -20.3544 -20.3381 -20.3110 -20.3072 -20.2993 -20.2270
   -20.2179 -20.1851 -20.1842 -20.1841 -20.1836 -20.1774 -20.1564 -20.1540
   -20.1530 -20.1358 -20.1349 -20.1268 -20.1237 -20.1228 -20.1210 -20.0995
   -20.0846 -20.0442 -20.0325 -20.0124 -20.0108 -19.9982 -19.9946 -19.9920
   -19.9749 -19.9642 -19.9369 -19.9280 -19.9102 -19.8742 -19.8655 -19.8359
   -19.8283 -19.8218 -19.7968 -19.7909 -19.7857 -19.7763 -19.7696 -19.7661
   -19.7641 -19.7641 -19.7562 -19.7458 -19.7374 -19.7339 -19.7310 -19.7291
   -19.7290 -19.7255 -19.6928 -19.6907 -19.6858 -19.6774 -19.6668 -19.6641
   -19.6242 -19.6237 -19.6217 -19.6175 -19.6114 -19.6090 -19.6062 -19.6032
   -19.5982 -19.5906 -19.5843 -19.5790 -19.5769 -19.5761 -19.5686 -19.5663
   -19.5639 -19.5636 -19.5583 -19.5582 -19.5492 -19.5455 -19.5429 -19.5282
   -19.5274 -19.5235 -19.5182 -19.5088 -19.4980 -19.4960 -19.4380 -19.4252
    15.5967  16.8976  17.0395  17.0607  17.0689  17.2377  17.3066  17.3787
    17.3914  17.4075  17.4668  17.5180  17.5487  17.6851  17.7110  17.8864
    17.9004  17.9253  17.9684  18.0678  18.1052  18.1912  18.1940  18.2260
    18.2555  18.2757  18.3717  18.3987  18.4157  18.4171  18.4313  18.4529
    18.5799  18.5968  18.6015  18.7098  18.7497  18.8145  18.8238  18.9897
    19.0007  19.0207  19.0564  19.1604  19.2008  19.2665  19.2714  19.3043
    19.3158  19.3692  19.4048  19.4411  19.5209  19.5212  19.5579  19.6269
    19.6454  19.6804  19.7946  19.9205  19.9654  19.9792  20.0113  20.0419
    20.0744  20.0907  20.1426  20.1593  20.2211  20.2292  20.2690  20.2741
    20.2913  20.3647  20.4174  20.4292  20.4377  20.4992  20.5176  20.5436
    20.5874  20.6445  20.6719  20.6762  20.6894  20.7076  20.9215  20.9221
    20.9702  21.0245  21.0326  21.2471  21.2525  21.2714  21.4162  21.4481
    21.5366  21.5521  21.6050  21.7191  21.7674  21.8188  21.8767  21.9824
    21.9989  22.0384  22.0795  22.1335  22.1696  22.1850  22.2835  22.3610
    22.3932  22.4743  22.4775  22.5108  22.5292  22.5536  22.6609  22.6702
    22.6712  22.6816  22.7755  22.8128  22.8691  22.9062  22.9759  22.9898
    23.0021  23.0317  23.0332  23.2140  23.3123  23.3130  23.3351  23.3517
    23.3852  23.5452  23.5546  23.5960  23.6095  23.6112  23.6534  23.6615
    23.6622  23.7458  23.8525  23.9457  24.1065  24.2211  24.3199  24.3376
    24.3665  24.4339  24.4578  24.5782  24.5848  24.5874  24.7306  24.7312
    24.8118  24.8156  24.8740  24.9108  25.0141  25.0262  25.0414  25.0467
    25.0991  25.4751  25.5270  25.8993  26.0384  26.3448  26.4300  26.5267
    26.5538  26.6133  27.5249

          k = 0.1660 0.0556 0.3889 ( 30286 PWs)   bands (ev):

   -49.9843 -49.9580 -49.9150 -49.8978 -49.8956 -49.8814 -49.8786 -49.8667
   -49.8640 -49.8604 -49.8555 -49.8537 -49.8500 -49.8475 -49.8369 -49.8348
   -49.8347 -49.8338 -49.8293 -49.8180 -49.8154 -49.8118 -49.8082 -49.8060
   -49.8013 -49.8009 -49.8001 -49.7959 -49.7942 -49.7933 -49.7900 -49.7894
   -20.3512 -20.3445 -20.3202 -20.3002 -20.2870 -20.2853 -20.2742 -20.2644
   -20.2639 -20.2319 -20.2233 -20.2193 -20.2060 -20.1817 -20.1760 -20.1627
   -20.1614 -20.1604 -20.1560 -20.1455 -20.1225 -20.1106 -20.1050 -20.0912
   -20.0636 -20.0510 -20.0468 -20.0260 -20.0254 -19.9942 -19.9704 -19.9672
   -19.9658 -19.9545 -19.9423 -19.9239 -19.9085 -19.8991 -19.8936 -19.8771
   -19.8551 -19.8224 -19.7684 -19.7654 -19.7645 -19.7644 -19.7628 -19.7600
   -19.7480 -19.7402 -19.7394 -19.7154 -19.7140 -19.7064 -19.7038 -19.7002
   -19.6963 -19.6948 -19.6862 -19.6814 -19.6609 -19.6593 -19.6591 -19.6497
   -19.6465 -19.6464 -19.6445 -19.6435 -19.6431 -19.6358 -19.6353 -19.6105
   -19.6090 -19.6036 -19.5883 -19.5864 -19.5812 -19.5810 -19.5803 -19.5749
   -19.5721 -19.5686 -19.5552 -19.5526 -19.5507 -19.5461 -19.5409 -19.5381
   -19.5302 -19.5216 -19.5094 -19.5001 -19.4953 -19.4809 -19.4543 -19.4381
    15.8400  16.5108  17.1792  17.2255  17.2483  17.3684  17.4524  17.5268
    17.5481  17.5679  17.5772  17.5977  17.6752  17.6995  17.7200  17.7376
    17.7876  17.8323  17.8981  17.8991  17.9882  18.0062  18.0631  18.0903
    18.1038  18.1179  18.2332  18.2715  18.2774  18.2861  18.4479  18.4791
    18.5484  18.5504  18.5792  18.6156  18.7141  18.9096  18.9114  18.9323
    18.9461  19.0448  19.0638  19.1014  19.1224  19.1597  19.1735  19.1901
    19.2279  19.2290  19.3687  19.3770  19.3817  19.4894  19.6527  19.6528
    19.6702  19.7262  19.9281  19.9330  19.9707  19.9961  20.0348  20.0450
    20.0545  20.0919  20.1272  20.1807  20.1839  20.2092  20.2522  20.2658
    20.3641  20.3829  20.3968  20.5837  20.6296  20.6820  20.7027  20.7179
    20.7749  20.8270  20.8313  20.8323  20.8337  20.8350  20.8382  20.8752
    20.9863  21.0543  21.1234  21.1531  21.1841  21.2023  21.2909  21.3214
    21.5290  21.6423  21.6915  21.7622  21.7669  21.8183  21.9299  21.9829
    22.0055  22.0343  22.0843  22.0878  22.0939  22.0989  22.1753  22.2423
    22.3054  22.3577  22.4571  22.4875  22.5049  22.5637  22.5918  22.6078
    22.6292  22.7295  22.7749  22.7784  22.8508  22.9036  22.9243  22.9775
    23.0334  23.0760  23.2054  23.2531  23.3009  23.3055  23.3751  23.3924
    23.5717  23.6024  23.6729  23.7653  23.8867  23.8897  23.9034  23.9163
    23.9401  23.9479  23.9632  24.0534  24.0724  24.1477  24.1517  24.2514
    24.3312  24.4224  24.4326  24.4878  24.4903  24.5004  24.5040  24.5158
    24.6473  24.6506  24.7139  24.9551  25.0143  25.0262  25.0292  25.0317
    25.0364  25.2169  25.5097  25.7252  25.7613  25.9228  26.0609  26.2611
    26.7532  27.0770  27.3526

          k = 0.1660 0.0556-0.5000 ( 30286 PWs)   bands (ev):

   -49.9723 -49.9723 -49.9072 -49.9071 -49.8892 -49.8891 -49.8732 -49.8731
   -49.8593 -49.8593 -49.8582 -49.8581 -49.8489 -49.8488 -49.8358 -49.8357
   -49.8314 -49.8313 -49.8204 -49.8203 -49.8087 -49.8087 -49.8078 -49.8077
   -49.8055 -49.8054 -49.8006 -49.8005 -49.7938 -49.7937 -49.7897 -49.7896
   -20.3165 -20.3165 -20.3078 -20.3077 -20.2786 -20.2785 -20.2571 -20.2570
   -20.2563 -20.2562 -20.2553 -20.2552 -20.2180 -20.2180 -20.1721 -20.1721
   -20.1635 -20.1635 -20.1627 -20.1627 -20.1097 -20.1097 -20.0847 -20.0847
   -20.0586 -20.0586 -20.0500 -20.0499 -20.0065 -20.0064 -19.9706 -19.9706
   -19.9406 -19.9405 -19.9290 -19.9289 -19.9219 -19.9219 -19.8872 -19.8872
   -19.8550 -19.8549 -19.7669 -19.7669 -19.7631 -19.7631 -19.7390 -19.7390
   -19.7196 -19.7195 -19.7145 -19.7144 -19.7090 -19.7090 -19.6899 -19.6899
   -19.6807 -19.6807 -19.6753 -19.6752 -19.6702 -19.6702 -19.6674 -19.6674
   -19.6673 -19.6672 -19.6395 -19.6394 -19.6327 -19.6327 -19.6136 -19.6135
   -19.6117 -19.6116 -19.5975 -19.5974 -19.5958 -19.5957 -19.5771 -19.5770
   -19.5722 -19.5721 -19.5650 -19.5649 -19.5528 -19.5527 -19.5338 -19.5337
   -19.5313 -19.5313 -19.4994 -19.4994 -19.4753 -19.4752 -19.4571 -19.4570
    16.1497  16.1501  17.3480  17.3482  17.4344  17.4345  17.4709  17.4712
    17.5527  17.5527  17.6505  17.6505  17.7220  17.7222  17.7563  17.7565
    17.7931  17.7932  17.8322  17.8323  17.9387  17.9389  17.9727  17.9729
    17.9809  17.9811  18.1445  18.1446  18.3238  18.3240  18.3734  18.3735
    18.6596  18.6596  18.6663  18.6665  18.7269  18.7270  18.8213  18.8215
    19.0580  19.0581  19.0978  19.0979  19.1239  19.1239  19.1627  19.1628
    19.2199  19.2200  19.2933  19.2934  19.3067  19.3068  19.7822  19.7823
    19.8369  19.8370  19.8447  19.8449  19.9150  19.9152  19.9589  19.9589
    20.1224  20.1225  20.1288  20.1289  20.3247  20.3249  20.3441  20.3443
    20.4127  20.4127  20.4437  20.4437  20.5112  20.5113  20.6875  20.6876
    20.7859  20.7860  20.8797  20.8797  20.9554  20.9555  20.9881  20.9882
    21.0194  21.0195  21.0422  21.0423  21.4591  21.4591  21.5011  21.5012
    21.5350  21.5351  21.5855  21.5856  21.7610  21.7611  21.7655  21.7656
    22.0194  22.0195  22.1746  22.1746  22.2170  22.2171  22.2776  22.2776
    22.2793  22.2794  22.3388  22.3389  22.4024  22.4025  22.5041  22.5042
    22.7031  22.7033  22.7220  22.7221  22.8289  22.8290  23.0794  23.0795
    23.1235  23.1236  23.1273  23.1274  23.1958  23.1959  23.6481  23.6482
    23.7287  23.7288  23.7438  23.7438  23.9620  23.9620  24.0195  24.0196
    24.1450  24.1451  24.1873  24.1874  24.1967  24.1968  24.2115  24.2115
    24.2129  24.2129  24.2208  24.2208  24.2345  24.2346  24.4254  24.4255
    24.5618  24.5618  24.9893  24.9894  25.0174  25.0175  25.0324  25.0325
    25.2759  25.2760  25.4951  25.4953  25.5023  25.5024  26.0348  26.0350
    27.0961  27.0963  27.5218

          k = 0.1660 0.1667 0.1667 ( 30312 PWs)   bands (ev):

   -49.9968 -49.9231 -49.9223 -49.9223 -49.8750 -49.8750 -49.8747 -49.8690
   -49.8675 -49.8675 -49.8544 -49.8405 -49.8405 -49.8401 -49.8401 -49.8400
   -49.8398 -49.8397 -49.8395 -49.8395 -49.8202 -49.8198 -49.8198 -49.7947
   -49.7934 -49.7934 -49.7928 -49.7928 -49.7924 -49.7923 -49.7919 -49.7919
   -20.3803 -20.3803 -20.3798 -20.3443 -20.3159 -20.3159 -20.3147 -20.1847
   -20.1818 -20.1818 -20.1673 -20.1673 -20.1634 -20.1634 -20.1623 -20.1622
   -20.1465 -20.1465 -20.1438 -20.1438 -20.1432 -20.1432 -20.0827 -20.0776
   -20.0775 -20.0401 -20.0400 -20.0384 -19.9957 -19.9956 -19.9913 -19.9913
   -19.9910 -19.9910 -19.9108 -19.9108 -19.9108 -19.8243 -19.8243 -19.8227
   -19.8028 -19.8028 -19.8012 -19.8012 -19.8008 -19.8008 -19.8007 -19.8007
   -19.7949 -19.7624 -19.7623 -19.7572 -19.7572 -19.7564 -19.7545 -19.7544
   -19.7543 -19.7543 -19.6920 -19.6920 -19.6917 -19.6507 -19.6506 -19.6474
   -19.6400 -19.6400 -19.6361 -19.6004 -19.6004 -19.5954 -19.5940 -19.5902
   -19.5902 -19.5762 -19.5762 -19.5760 -19.5760 -19.5730 -19.5730 -19.5662
   -19.5661 -19.5620 -19.5499 -19.5499 -19.5472 -19.5432 -19.5430 -19.5430
   -19.5420 -19.5380 -19.5092 -19.5092 -19.5058 -19.4848 -19.4249 -19.4242
    15.5129  16.9981  16.9982  17.0014  17.1626  17.3097  17.3179  17.3179
    17.3181  17.3206  17.3208  17.4573  17.4573  17.4615  17.8152  17.8250
    17.8252  18.1887  18.1888  18.2031  18.2032  18.2054  18.2054  18.2229
    18.2230  18.2238  18.3890  18.3969  18.3970  18.6171  18.6182  18.6183
    18.6431  18.6431  18.6442  18.6443  18.6467  18.6468  18.9750  18.9751
    18.9805  18.9805  18.9893  18.9894  19.1473  19.1656  19.1656  19.4927
    19.4931  19.4932  19.6367  19.6368  19.6428  19.6428  19.6464  19.6464
    19.7745  19.7885  19.7886  19.8585  19.8585  19.8640  19.8640  19.8681
    19.8682  20.1437  20.1736  20.1736  20.3405  20.3494  20.3494  20.3621
    20.3678  20.3679  20.3804  20.3804  20.3896  20.3897  20.4067  20.4117
    20.4117  20.4475  20.4938  20.5962  20.5962  20.6109  20.6287  20.6396
    21.1346  21.1565  21.1565  21.4247  21.4247  21.4457  21.4718  21.5011
    21.5011  21.6643  21.6643  21.6886  21.8651  21.8651  21.8768  21.9175
    21.9175  21.9200  21.9200  21.9315  21.9316  22.3321  22.3336  22.3336
    22.4944  22.4944  22.5065  22.6107  22.6107  22.6330  22.6462  22.6462
    22.6534  22.7129  22.7130  22.7181  22.7181  22.7213  22.7213  22.7791
    22.8295  23.1107  23.2819  23.2819  23.2856  23.2856  23.2896  23.2896
    23.5339  23.5339  23.5513  23.5513  23.5562  23.5597  23.6436  23.6474
    23.6474  23.9313  23.9567  23.9567  24.1172  24.1172  24.1280  24.3191
    24.3191  24.3240  24.3958  24.4142  24.6923  24.7089  24.7089  24.9174
    24.9174  24.9215  24.9216  24.9439  24.9439  25.0402  25.0422  25.0422
    25.5183  25.5183  25.5328  26.0074  26.0075  26.0111  27.1060  27.1061
    27.1078  27.1079  27.1380

          k = 0.1660 0.1667 0.2778 ( 30289 PWs)   bands (ev):

   -49.9905 -49.9396 -49.9191 -49.9183 -49.8861 -49.8857 -49.8732 -49.8666
   -49.8652 -49.8591 -49.8501 -49.8470 -49.8464 -49.8404 -49.8399 -49.8398
   -49.8396 -49.8350 -49.8291 -49.8287 -49.8215 -49.8140 -49.8133 -49.7987
   -49.7968 -49.7960 -49.7957 -49.7945 -49.7943 -49.7937 -49.7926 -49.7924
   -20.3698 -20.3596 -20.3588 -20.3116 -20.3012 -20.2999 -20.2934 -20.2299
   -20.2039 -20.2026 -20.1822 -20.1814 -20.1802 -20.1794 -20.1776 -20.1772
   -20.1611 -20.1596 -20.1504 -20.1474 -20.1453 -20.1444 -20.1212 -20.1056
   -20.0580 -20.0555 -20.0420 -20.0369 -20.0021 -19.9993 -19.9709 -19.9665
   -19.9518 -19.9511 -19.9434 -19.9433 -19.8598 -19.8571 -19.8522 -19.8397
   -19.8374 -19.8210 -19.8167 -19.7880 -19.7654 -19.7648 -19.7618 -19.7604
   -19.7589 -19.7570 -19.7528 -19.7526 -19.7521 -19.7520 -19.7367 -19.7348
   -19.7299 -19.7286 -19.6851 -19.6685 -19.6592 -19.6581 -19.6578 -19.6578
   -19.6577 -19.6316 -19.6285 -19.6271 -19.6197 -19.6147 -19.6095 -19.6080
   -19.6057 -19.6054 -19.5974 -19.5793 -19.5774 -19.5760 -19.5755 -19.5740
   -19.5722 -19.5677 -19.5588 -19.5574 -19.5456 -19.5339 -19.5295 -19.5285
   -19.5210 -19.5206 -19.5119 -19.5103 -19.4999 -19.4970 -19.4354 -19.4279
    15.6765  16.9527  17.0964  17.1111  17.1142  17.2171  17.4060  17.4159
[...]
   -19.6775 -19.6774 -19.6641 -19.6640 -19.6589 -19.6589 -19.6569 -19.6568
   -19.6348 -19.6347 -19.6267 -19.6266 -19.6237 -19.6236 -19.6177 -19.6177
   -19.5306 -19.5305 -19.5285 -19.5284 -19.5214 -19.5212 -19.4993 -19.4991
   -19.4941 -19.4941 -19.4809 -19.4808 -19.4678 -19.4677 -19.4552 -19.4552
    16.6405  16.6409  17.1049  17.1053  17.3431  17.3433  17.3463  17.3465
    17.6834  17.6836  17.6878  17.6880  17.7225  17.7226  17.9075  17.9076
    17.9566  17.9566  17.9593  17.9593  17.9651  17.9652  18.0269  18.0269
    18.0461  18.0463  18.0590  18.0591  18.1609  18.1609  18.1944  18.1946
    18.2726  18.2729  18.3524  18.3525  18.4410  18.4411  18.7130  18.7130
    18.7680  18.7683  18.8909  18.8909  19.1039  19.1041  19.1199  19.1200
    19.1933  19.1934  19.3609  19.3610  19.4240  19.4242  19.5810  19.5812
    19.9083  19.9084  19.9611  19.9611  20.1089  20.1090  20.6021  20.6021
    20.6692  20.6693  20.6713  20.6713  20.7601  20.7602  20.7756  20.7758
    20.7786  20.7787  20.8015  20.8016  20.8187  20.8188  20.8410  20.8410
    20.8534  20.8534  20.9222  20.9224  20.9367  20.9367  20.9426  20.9426
    20.9888  20.9890  20.9950  20.9950  21.0144  21.0145  21.0515  21.0516
    21.0639  21.0641  21.5171  21.5173  21.5178  21.5179  21.6124  21.6125
    21.6349  21.6350  21.6379  21.6380  21.6460  21.6461  21.9179  21.9179
    22.1236  22.1237  22.1801  22.1802  22.4966  22.4967  22.5066  22.5067
    22.5241  22.5242  22.5470  22.5471  22.6662  22.6662  22.9347  22.9348
    22.9806  22.9806  23.0147  23.0149  23.0677  23.0679  23.0783  23.0785
    23.2798  23.2798  23.4694  23.4694  23.6673  23.6674  23.8485  23.8487
    24.5579  24.5579  24.5603  24.5603  24.5606  24.5607  24.5684  24.5685
    24.5747  24.5748  24.6105  24.6106  24.6349  24.6350  24.6492  24.6492
    24.7067  24.7067  24.7715  24.7716  24.7898  24.7899  24.7956  24.7956
    26.1223  26.1224  26.6652  26.6654  26.7933  26.7934  27.0244  27.0246
    27.9233  27.9234  28.1709

          k =-0.4981 0.2778-0.5000 ( 30272 PWs)   bands (ev):

   -49.9416 -49.9415 -49.9414 -49.9413 -49.9040 -49.9039 -49.9038 -49.9037
   -49.8383 -49.8382 -49.8381 -49.8380 -49.8178 -49.8177 -49.8176 -49.8175
   -49.8170 -49.8170 -49.8168 -49.8167 -49.8164 -49.8163 -49.8161 -49.8161
   -49.8160 -49.8160 -49.8158 -49.8158 -49.8007 -49.8007 -49.8005 -49.8004
   -20.2619 -20.2619 -20.2618 -20.2618 -20.2598 -20.2598 -20.2598 -20.2598
   -20.2254 -20.2254 -20.2253 -20.2253 -20.2200 -20.2200 -20.2199 -20.2198
   -20.2156 -20.2156 -20.2155 -20.2155 -20.2133 -20.2132 -20.2131 -20.2131
   -20.0364 -20.0364 -20.0363 -20.0363 -19.9198 -19.9198 -19.9198 -19.9198
   -19.8130 -19.8130 -19.8130 -19.8130 -19.8125 -19.8125 -19.8124 -19.8124
   -19.8110 -19.8110 -19.8110 -19.8110 -19.8109 -19.8108 -19.8107 -19.8107
   -19.8080 -19.8079 -19.8079 -19.8078 -19.6977 -19.6976 -19.6976 -19.6976
   -19.6907 -19.6907 -19.6907 -19.6907 -19.6883 -19.6882 -19.6882 -19.6881
   -19.6846 -19.6846 -19.6845 -19.6844 -19.6445 -19.6445 -19.6445 -19.6444
   -19.6404 -19.6404 -19.6403 -19.6402 -19.6288 -19.6288 -19.6288 -19.6288
   -19.5204 -19.5204 -19.5203 -19.5203 -19.5005 -19.5004 -19.5004 -19.5003
   -19.4989 -19.4988 -19.4987 -19.4987 -19.4579 -19.4578 -19.4578 -19.4578
    16.8566  16.8568  16.8568  16.8572  17.3332  17.3333  17.3334  17.3336
    17.7995  17.7995  17.7995  17.7996  17.8449  17.8450  17.8451  17.8452
    17.8457  17.8458  17.8459  17.8460  17.9242  17.9242  17.9243  17.9243
    18.1163  18.1163  18.1164  18.1164  18.1189  18.1189  18.1190  18.1191
    18.5101  18.5102  18.5103  18.5103  18.5160  18.5160  18.5163  18.5163
    18.6678  18.6678  18.6678  18.6679  19.2370  19.2371  19.2371  19.2373
    19.2399  19.2400  19.2400  19.2402  19.4182  19.4183  19.4184  19.4185
    19.9555  19.9555  19.9555  19.9555  20.4322  20.4323  20.4323  20.4323
    20.6919  20.6919  20.6919  20.6920  20.7742  20.7742  20.7743  20.7743
    20.7948  20.7948  20.7949  20.7949  20.8020  20.8020  20.8021  20.8021
    20.9164  20.9165  20.9165  20.9165  20.9556  20.9557  20.9557  20.9557
    20.9981  20.9981  20.9981  20.9981  21.1990  21.1990  21.1991  21.1992
    21.2185  21.2186  21.2186  21.2188  21.3624  21.3624  21.3625  21.3626
    21.6787  21.6787  21.6788  21.6788  21.8760  21.8761  21.8761  21.8762
    21.8866  21.8867  21.8867  21.8867  22.4954  22.4955  22.4956  22.4957
    22.7624  22.7624  22.7625  22.7626  22.8130  22.8130  22.8131  22.8131
    22.8249  22.8250  22.8250  22.8251  23.2037  23.2038  23.2038  23.2039
    23.2230  23.2231  23.2231  23.2232  23.6376  23.6377  23.6377  23.6378
    24.6307  24.6307  24.6308  24.6308  24.6366  24.6367  24.6367  24.6367
    24.6748  24.6748  24.6749  24.6749  24.6959  24.6960  24.6960  24.6960
    24.7060  24.7061  24.7061  24.7062  24.7522  24.7523  24.7523  24.7523
    26.3347  26.3348  26.3348  26.3350  27.5960  27.5961  27.5961  27.5962
    27.6165  27.6166  27.6166

          k =-0.4981 0.3889 0.3889 ( 30270 PWs)   bands (ev):

   -49.9442 -49.9440 -49.9236 -49.9236 -49.9234 -49.9234 -49.9063 -49.9061
   -49.8274 -49.8274 -49.8271 -49.8271 -49.8256 -49.8256 -49.8253 -49.8253
   -49.8185 -49.8183 -49.8180 -49.8178 -49.8165 -49.8165 -49.8163 -49.8163
   -49.8083 -49.8083 -49.8081 -49.8081 -49.8068 -49.8067 -49.8065 -49.8064
   -20.2668 -20.2668 -20.2577 -20.2576 -20.2575 -20.2574 -20.2360 -20.2360
   -20.2359 -20.2359 -20.2310 -20.2309 -20.2308 -20.2308 -20.2301 -20.2301
   -20.2300 -20.2300 -20.2187 -20.2186 -20.2156 -20.2156 -20.2155 -20.2155
   -20.0366 -20.0365 -19.9240 -19.9240 -19.9240 -19.9239 -19.8716 -19.8716
   -19.8715 -19.8715 -19.8603 -19.8603 -19.8603 -19.8602 -19.8222 -19.8222
   -19.8221 -19.8221 -19.8082 -19.8081 -19.8034 -19.8034 -19.7992 -19.7990
   -19.7597 -19.7597 -19.7596 -19.7596 -19.7521 -19.7520 -19.7520 -19.7520
   -19.6935 -19.6934 -19.6933 -19.6933 -19.6821 -19.6820 -19.6679 -19.6679
   -19.6678 -19.6678 -19.6638 -19.6638 -19.6636 -19.6636 -19.6575 -19.6575
   -19.6575 -19.6574 -19.6373 -19.6373 -19.6372 -19.6372 -19.6351 -19.6349
   -19.5125 -19.5124 -19.5060 -19.5060 -19.5059 -19.5059 -19.4902 -19.4900
   -19.4774 -19.4774 -19.4774 -19.4774 -19.4755 -19.4753 -19.4651 -19.4650
    16.7754  16.7758  17.1376  17.1377  17.1379  17.1380  17.2574  17.2576
    17.7540  17.7542  17.7731  17.7731  17.7732  17.7732  17.9332  17.9332
    17.9333  17.9333  17.9761  17.9762  17.9763  17.9763  17.9955  17.9955
    17.9956  17.9956  18.0131  18.0131  18.0133  18.0133  18.0249  18.0251
    18.4901  18.4903  18.5572  18.5572  18.5572  18.5573  18.9368  18.9368
    18.9368  18.9369  18.9538  18.9539  18.9540  18.9541  18.9832  18.9833
    18.9833  18.9834  19.2750  19.2752  19.3316  19.3316  19.3318  19.3318
    20.0401  20.0401  20.1282  20.1282  20.1282  20.1283  20.5922  20.5923
    20.8059  20.8059  20.8060  20.8060  20.8092  20.8094  20.8140  20.8141
    20.8141  20.8142  20.8541  20.8541  20.8863  20.8863  20.8864  20.8864
    20.9128  20.9128  20.9129  20.9129  20.9133  20.9134  20.9175  20.9175
    20.9458  20.9458  20.9458  20.9458  20.9676  20.9677  20.9704  20.9705
    20.9706  20.9706  21.3869  21.3869  21.3871  21.3871  21.4095  21.4097
    21.7568  21.7568  21.7568  21.7568  21.8034  21.8035  22.1885  22.1886
    22.1886  22.1887  22.2862  22.2862  22.2863  22.2863  22.3292  22.3292
    22.3293  22.3293  22.6814  22.6815  22.6953  22.6954  22.7533  22.7534
    22.7535  22.7535  22.7836  22.7836  22.7837  22.7837  23.0154  23.0155
    23.1534  23.1534  23.3749  23.3749  23.3749  23.3749  23.5320  23.5321
    24.6777  24.6777  24.6777  24.6777  24.7031  24.7032  24.7032  24.7032
    24.7057  24.7057  24.7640  24.7640  24.7641  24.7641  24.7673  24.7673
    24.7673  24.7674  24.8214  24.8214  24.8215  24.8215  24.8613  24.8614
    26.9735  26.9735  26.9737  26.9737  27.4020  27.4021  27.5789  27.5789
    27.5790  27.5791  28.3350

          k =-0.4981 0.3889-0.5000 ( 30284 PWs)   bands (ev):

   -49.9348 -49.9348 -49.9346 -49.9345 -49.9157 -49.9157 -49.9155 -49.9154
   -49.8266 -49.8265 -49.8263 -49.8263 -49.8177 -49.8176 -49.8174 -49.8174
   -49.8172 -49.8172 -49.8170 -49.8169 -49.8163 -49.8162 -49.8161 -49.8160
   -49.8160 -49.8160 -49.8158 -49.8157 -49.8075 -49.8074 -49.8072 -49.8072
   -20.2517 -20.2516 -20.2515 -20.2515 -20.2491 -20.2491 -20.2491 -20.2490
   -20.2373 -20.2372 -20.2372 -20.2371 -20.2333 -20.2332 -20.2331 -20.2331
   -20.2271 -20.2271 -20.2270 -20.2269 -20.2244 -20.2243 -20.2243 -20.2242
   -19.9804 -19.9803 -19.9803 -19.9803 -19.8677 -19.8677 -19.8677 -19.8676
   -19.8653 -19.8653 -19.8653 -19.8652 -19.8132 -19.8132 -19.8132 -19.8131
   -19.8113 -19.8113 -19.8113 -19.8112 -19.8112 -19.8112 -19.8112 -19.8111
   -19.8108 -19.8107 -19.8107 -19.8106 -19.7539 -19.7538 -19.7538 -19.7538
   -19.6796 -19.6796 -19.6796 -19.6795 -19.6772 -19.6771 -19.6771 -19.6770
   -19.6723 -19.6723 -19.6722 -19.6721 -19.6541 -19.6540 -19.6540 -19.6540
   -19.6490 -19.6490 -19.6489 -19.6488 -19.6482 -19.6482 -19.6482 -19.6482
   -19.5010 -19.5010 -19.5010 -19.5009 -19.4870 -19.4869 -19.4869 -19.4868
   -19.4864 -19.4864 -19.4863 -19.4862 -19.4691 -19.4691 -19.4690 -19.4690
    16.9442  16.9444  16.9445  16.9448  17.1878  17.1879  17.1880  17.1882
    17.8631  17.8631  17.8632  17.8633  17.8634  17.8635  17.8636  17.8637
    17.8644  17.8645  17.8645  17.8645  17.9416  17.9416  17.9416  17.9417
    18.0055  18.0055  18.0057  18.0057  18.0071  18.0071  18.0072  18.0073
    18.7220  18.7220  18.7222  18.7222  18.7291  18.7291  18.7293  18.7293
    18.7787  18.7787  18.7787  18.7788  19.1291  19.1292  19.1292  19.1293
    19.1319  19.1320  19.1321  19.1322  19.1560  19.1561  19.1561  19.1562
    20.1037  20.1037  20.1037  20.1038  20.3750  20.3750  20.3751  20.3751
    20.8373  20.8373  20.8374  20.8375  20.8525  20.8526  20.8526  20.8526
    20.8600  20.8601  20.8601  20.8602  20.8791  20.8792  20.8792  20.8794
    20.8926  20.8926  20.8926  20.8927  20.9134  20.9134  20.9134  20.9134
    20.9493  20.9493  20.9493  20.9494  21.1100  21.1101  21.1101  21.1102
    21.1352  21.1353  21.1353  21.1355  21.1946  21.1947  21.1947  21.1949
    21.9326  21.9326  21.9326  21.9327  22.0168  22.0169  22.0169  22.0170
    22.0352  22.0352  22.0352  22.0353  22.4716  22.4717  22.4717  22.4718
    22.4889  22.4890  22.4890  22.4891  22.4910  22.4911  22.4911  22.4912
    22.7515  22.7516  22.7516  22.7517  23.0471  23.0472  23.0472  23.0472
    23.1237  23.1238  23.1238  23.1239  23.3367  23.3368  23.3368  23.3369
    24.7462  24.7462  24.7463  24.7463  24.7538  24.7538  24.7538  24.7539
    24.7759  24.7759  24.7759  24.7759  24.8138  24.8138  24.8139  24.8139
    24.8233  24.8234  24.8234  24.8234  24.8235  24.8235  24.8235  24.8235
    27.2465  27.2467  27.2467  27.2468  27.8567  27.8567  27.8568  27.8581
    27.8810  27.8810  27.8812

          k =-0.4981-0.5000-0.5000 ( 30376 PWs)   bands (ev):

   -49.9263 -49.9262 -49.9260 -49.9260 -49.9260 -49.9259 -49.9258 -49.9257
   -49.8176 -49.8175 -49.8174 -49.8173 -49.8173 -49.8173 -49.8171 -49.8170
   -49.8164 -49.8163 -49.8163 -49.8163 -49.8161 -49.8161 -49.8161 -49.8160
   -49.8160 -49.8160 -49.8160 -49.8160 -49.8158 -49.8158 -49.8157 -49.8157
   -20.2397 -20.2397 -20.2397 -20.2396 -20.2396 -20.2396 -20.2396 -20.2396
   -20.2395 -20.2395 -20.2395 -20.2394 -20.2394 -20.2394 -20.2394 -20.2394
   -20.2369 -20.2369 -20.2368 -20.2368 -20.2368 -20.2367 -20.2367 -20.2366
   -19.9225 -19.9225 -19.9225 -19.9224 -19.9224 -19.9224 -19.9224 -19.9223
   -19.8126 -19.8126 -19.8125 -19.8125 -19.8125 -19.8125 -19.8124 -19.8124
   -19.8114 -19.8114 -19.8114 -19.8114 -19.8114 -19.8114 -19.8114 -19.8114
   -19.8113 -19.8113 -19.8113 -19.8113 -19.8113 -19.8113 -19.8113 -19.8112
   -19.6655 -19.6655 -19.6655 -19.6654 -19.6654 -19.6654 -19.6653 -19.6653
   -19.6653 -19.6653 -19.6653 -19.6653 -19.6652 -19.6652 -19.6652 -19.6651
   -19.6601 -19.6601 -19.6601 -19.6601 -19.6599 -19.6599 -19.6599 -19.6599
   -19.4846 -19.4845 -19.4844 -19.4844 -19.4844 -19.4843 -19.4843 -19.4842
   -19.4815 -19.4814 -19.4814 -19.4814 -19.4813 -19.4813 -19.4812 -19.4812
    17.0561  17.0562  17.0562  17.0563  17.0564  17.0565  17.0566  17.0567
    17.9178  17.9178  17.9179  17.9179  17.9179  17.9179  17.9179  17.9179
    17.9180  17.9180  17.9180  17.9181  17.9181  17.9181  17.9181  17.9181
    17.9185  17.9185  17.9185  17.9185  17.9187  17.9187  17.9187  17.9188
    18.9404  18.9405  18.9405  18.9405  18.9406  18.9406  18.9406  18.9406
    18.9407  18.9407  18.9407  18.9407  18.9407  18.9408  18.9408  18.9409
    18.9469  18.9469  18.9469  18.9470  18.9471  18.9471  18.9471  18.9472
    20.2572  20.2572  20.2572  20.2573  20.2573  20.2573  20.2573  20.2573
    20.8751  20.8752  20.8752  20.8752  20.8752  20.8752  20.8753  20.8753
    20.9181  20.9181  20.9181  20.9181  20.9182  20.9182  20.9182  20.9182
    20.9855  20.9855  20.9855  20.9856  20.9856  20.9856  20.9857  20.9857
    21.0116  21.0116  21.0116  21.0116  21.0116  21.0116  21.0116  21.0117
    21.0117  21.0118  21.0118  21.0118  21.0118  21.0118  21.0119  21.0119
    22.2064  22.2064  22.2064  22.2065  22.2065  22.2065  22.2065  22.2065
    22.2065  22.2065  22.2065  22.2066  22.2066  22.2066  22.2066  22.2067
    22.2285  22.2286  22.2286  22.2287  22.2287  22.2287  22.2288  22.2288
    23.0334  23.0335  23.0335  23.0336  23.0336  23.0336  23.0336  23.0337
    23.0480  23.0480  23.0481  23.0481  23.0481  23.0482  23.0482  23.0483
    24.8211  24.8211  24.8211  24.8212  24.8212  24.8212  24.8212  24.8212
    24.8298  24.8298  24.8298  24.8298  24.8299  24.8299  24.8299  24.8299
    24.8299  24.8299  24.8299  24.8299  24.8300  24.8300  24.8300  24.8300
    28.1779  28.1780  28.1780  28.1781  28.1782  28.1783  28.1784  28.1786
    28.2045  28.2045  28.2046

     the Fermi energy is    23.0085 ev

!    total energy              =  -13813.30042116 Ry

     total all-electron energy =   -289989.690760 Ry
     estimated scf accuracy    <       0.00000073 Ry
     smearing contrib. (-TS)   =       0.02016865 Ry
     internal energy E=F+TS    =  -13813.32058981 Ry

     The total energy is F=E-TS. E is the sum of the following terms:
     one-electron contribution =   -1005.03404710 Ry
     hartree contribution      =     918.84850306 Ry
     xc contribution           =    -927.91856798 Ry
     ewald contribution        =   -5209.78029126 Ry
     one-center paw contrib.   =   -7589.43618652 Ry

     convergence has been achieved in  11 iterations

     Forces acting on atoms (cartesian axes, Ry/au):

     atom    1 type  1   force =     0.00000000    0.00000000    0.00000000
     atom    2 type  1   force =    -0.00040394   -0.00012401    0.00000000
     atom    3 type  1   force =    -0.00040394   -0.00000000   -0.00012401
     atom    4 type  1   force =    -0.00000000   -0.00003269   -0.00003269
     atom    5 type  1   force =     0.00000000    0.00000000    0.00000000
     atom    6 type  1   force =    -0.00011259    0.00035188    0.00000000
     atom    7 type  1   force =    -0.00040394   -0.00000000    0.00012401
     atom    8 type  1   force =     0.00000000   -0.00003269    0.00003269
     atom    9 type  1   force =     0.00000000    0.00000000    0.00000000
     atom   10 type  1   force =    -0.00040394    0.00012401    0.00000000
     atom   11 type  1   force =    -0.00011259    0.00000000    0.00035188
     atom   12 type  1   force =     0.00000000    0.00003269   -0.00003269
     atom   13 type  1   force =     0.00000000    0.00000000    0.00000000
     atom   14 type  1   force =    -0.00011259   -0.00035188    0.00000000
     atom   15 type  1   force =    -0.00011259    0.00000000   -0.00035188
     atom   16 type  1   force =    -0.00000000    0.00003269    0.00003269
     atom   17 type  1   force =     0.00000000    0.00000000    0.00000000
     atom   18 type  1   force =     0.00040394   -0.00012401    0.00000000
     atom   19 type  1   force =     0.00040394   -0.00000000   -0.00012401
     atom   20 type  1   force =     0.00000000    0.00026803    0.00026803
     atom   21 type  1   force =     0.00000000    0.00000000    0.00000000
     atom   22 type  1   force =     0.00011259    0.00035188    0.00000000
     atom   23 type  1   force =     0.00040394    0.00000000    0.00012401
     atom   24 type  1   force =     0.00000000    0.00026803   -0.00026803
     atom   25 type  1   force =     0.00000000    0.00000000    0.00000000
     atom   26 type  1   force =     0.00040394    0.00012401    0.00000000
     atom   27 type  1   force =     0.00011259    0.00000000    0.00035188
     atom   28 type  1   force =     0.00000000   -0.00026803    0.00026803
     atom   29 type  1   force =     0.00000000    0.00000000    0.00000000
     atom   30 type  1   force =     0.00011259   -0.00035188    0.00000000
     atom   31 type  1   force =     0.00011259    0.00000000   -0.00035188
     atom   32 type  1   force =     0.00000000   -0.00026803   -0.00026803

     Total force =     0.001762     Total SCF correction =     0.007194
     SCF correction compared to forces is large: reduce conv_thr to get better values


     Computing stress (Cartesian axis) and pressure

          total   stress  (Ry/bohr**3)                   (kbar)     P=      -16.32
  -0.00015376   0.00000000   0.00000000          -22.62        0.00        0.00
   0.00000000  -0.00008958   0.00000000            0.00      -13.18        0.00
   0.00000000   0.00000000  -0.00008958            0.00        0.00      -13.18


     Writing output data file /scratch/VTtvhBlJlxRHBlIa.save/
 
     init_run     :     25.38s CPU     25.97s WALL (       1 calls)
     electrons    :    949.44s CPU    964.51s WALL (       1 calls)
     forces       :     11.40s CPU     11.51s WALL (       1 calls)
     stress       :     66.90s CPU     67.42s WALL (       1 calls)

     Called by init_run:
     wfcinit      :     24.54s CPU     25.04s WALL (       1 calls)
     potinit      :      0.18s CPU      0.20s WALL (       1 calls)
     hinit0       :      0.39s CPU      0.40s WALL (       1 calls)

     Called by electrons:
     c_bands      :    847.29s CPU    860.12s WALL (      12 calls)
     sum_band     :     99.72s CPU    101.74s WALL (      12 calls)
     v_of_rho     :      0.92s CPU      0.94s WALL (      12 calls)
     newd         :      0.28s CPU      0.40s WALL (      12 calls)
     PAW_pot      :      1.22s CPU      1.28s WALL (      12 calls)
     mix_rho      :      0.05s CPU      0.06s WALL (      12 calls)

     Called by c_bands:
     init_us_2    :      3.98s CPU      4.06s WALL (    2025 calls)
     cegterg      :    833.25s CPU    845.55s WALL (     900 calls)

     Called by *egterg:
     cdiaghg      :    108.59s CPU    109.54s WALL (    3409 calls)
     h_psi        :    440.11s CPU    447.79s WALL (    3559 calls)
     s_psi        :     32.38s CPU     32.63s WALL (    3559 calls)
     g_psi        :      0.75s CPU      0.77s WALL (    2584 calls)

     Called by h_psi:
     h_psi:calbec :     61.60s CPU     62.13s WALL (    3559 calls)
     vloc_psi     :    345.53s CPU    352.02s WALL (    3559 calls)
     add_vuspsi   :     30.97s CPU     31.62s WALL (    3559 calls)

     General routines
     calbec       :     99.69s CPU    100.55s WALL (    4834 calls)
     fft          :      0.84s CPU      0.86s WALL (     180 calls)
     ffts         :      0.01s CPU      0.02s WALL (      24 calls)
     fftw         :    401.03s CPU    408.53s WALL ( 1646104 calls)
     interpolate  :      0.02s CPU      0.03s WALL (      12 calls)
 
     Parallel routines
     fft_scatt_xy :     28.34s CPU     28.81s WALL ( 1646308 calls)
     fft_scatt_yz :    324.67s CPU    331.03s WALL ( 1646308 calls)
 
     PWSCF        :  17m52.08s CPU  18m11.88s WALL

 
   This run was terminated on:  15:51:54  23Nov2021            

=------------------------------------------------------------------------------=
   JOB DONE.
=------------------------------------------------------------------------------=
