
     Program PWSCF v.6.7MaX starts on 23Nov2021 at 16:31: 2 

     This program is part of the open-source Quantum ESPRESSO suite
     for quantum simulation of materials; please cite
         "P. Giannozzi et al., J. Phys.:Condens. Matter 21 395502 (2009);
         "P. Giannozzi et al., J. Phys.:Condens. Matter 29 465901 (2017);
          URL http://www.quantum-espresso.org", 
     in publications or presentations arising from this work. More details at
     http://www.quantum-espresso.org/quote

     Parallel version (MPI & OpenMP), running on      72 processor cores
     Number of MPI processes:                72
     Threads/MPI process:                     1

     MPI processes distributed on     1 nodes
     R & G space division:  proc/nbgrp/npool/nimage =      72
     Reading input from /rds/homes/b/bxp912/jobs/20211014_ru_eos/wd/ec/ec_2_002.in
Warning: card &CELL ignored
Warning: card CELL_DYNAMICS = 'BFGS', ignored
Warning: card CELL_FACTOR = 2.0, ignored
Warning: card PRESS = 0.0, ignored
Warning: card / ignored

     Current dimensions of program PWSCF are:
     Max number of different atomic species (ntypx) = 10
     Max number of k-points (npk) =  40000
     Max angular momentum in pseudopotentials (lmaxx) =  3
     file Ru.pbe-spn-kjpaw_psl.1.0.0.UPF: wavefunction(s)  4D renormalized

     Subspace diagonalization in iterative solution of the eigenvalue problem:
     one sub-group per band group will be used
     ELPA distributed-memory algorithm (size of sub-group:  8*  8 procs)

     Found symmetry operation: I + (  0.2500  0.2500  0.0000)
     This is a supercell, fractional translations are disabled
     Message from routine setup:
     using ibrav=0 with symmetry is DISCOURAGED, use correct ibrav instead
 
     Parallelization info
     --------------------
     sticks:   dense  smooth     PW     G-vecs:    dense   smooth      PW
     Min          98      65     17                 6247     3353     475
     Max         100      67     18                 6251     3357     482
     Sum        7121    4705   1281               449959   241529   34457
 


     bravais-lattice index     =            0
     lattice parameter (alat)  =      14.4007  a.u.
     unit-cell volume          =    2988.3119 (a.u.)^3
     number of atoms/cell      =           32
     number of atomic types    =            1
     number of electrons       =       512.00
     number of Kohn-Sham states=          307
     kinetic-energy cutoff     =      71.0000  Ry
     charge density cutoff     =     430.0000  Ry
     scf convergence threshold =      1.0E-06
     mixing beta               =       0.1000
     number of iterations used =           10  plain     mixing
     Exchange-correlation= SLA  PW   PBX  PBC
                           (   1   4   3   4   0   0   0)

     celldm(1)=  14.400742  celldm(2)=   0.000000  celldm(3)=   0.000000
     celldm(4)=   0.000000  celldm(5)=   0.000000  celldm(6)=   0.000000

     crystal axes: (cart. coord. in units of alat)
               a(1) = (   1.000000   0.000000   0.000000 )  
               a(2) = (   0.000000   1.000625   0.000000 )  
               a(3) = (   0.000000   0.000000   1.000000 )  

     reciprocal axes: (cart. coord. in units 2 pi/alat)
               b(1) = (  1.000000  0.000000  0.000000 )  
               b(2) = (  0.000000  0.999375  0.000000 )  
               b(3) = (  0.000000  0.000000  1.000000 )  


     PseudoPot. # 1 for Ru read from file:
     /rds/homes/b/bxp912/pp/Ru.pbe-spn-kjpaw_psl.1.0.0.UPF
     MD5 check sum: 0ae1f594dea09af7be8575c3a481d1ae
     Pseudo is Projector augmented-wave + core cor, Zval = 16.0
     Generated using "atomic" code by A. Dal Corso  v.5.1
     Shape of augmentation charge: PSQ
     Using radial grid of 1233 points,  6 beta functions with: 
                l(1) =   0
                l(2) =   0
                l(3) =   1
                l(4) =   1
                l(5) =   2
                l(6) =   2
     Q(r) pseudized with 0 coefficients 


     atomic species   valence    mass     pseudopotential
        Ru            16.00   101.07000     Ru( 1.00)

     16 Sym. Ops., with inversion, found



   Cartesian axes

     site n.     atom                  positions (alat units)
         1           Ru  tau(   1) = (   0.0000000   0.0000000   0.0000000  )
         2           Ru  tau(   2) = (   0.2500000   0.2501563   0.0000000  )
         3           Ru  tau(   3) = (   0.2500000   0.0000000   0.2499995  )
         4           Ru  tau(   4) = (   0.0000000   0.2501563   0.2499995  )
         5           Ru  tau(   5) = (   0.0000000   0.0000000   0.5000000  )
         6           Ru  tau(   6) = (   0.2499990   0.2501552   0.5000000  )
         7           Ru  tau(   7) = (   0.2500000   0.0000000   0.7499995  )
         8           Ru  tau(   8) = (   0.0000000   0.2501563   0.7499995  )
         9           Ru  tau(   9) = (   0.0000000   0.5003127   0.0000000  )
        10           Ru  tau(  10) = (   0.2500000   0.7504692   0.0000000  )
        11           Ru  tau(  11) = (   0.2499990   0.5003127   0.2499984  )
        12           Ru  tau(  12) = (   0.0000000   0.7504692   0.2499995  )
        13           Ru  tau(  13) = (   0.0000000   0.5003127   0.5000000  )
        14           Ru  tau(  14) = (   0.2499990   0.7504702   0.5000000  )
        15           Ru  tau(  15) = (   0.2499990   0.5003127   0.7500005  )
        16           Ru  tau(  16) = (   0.0000000   0.7504692   0.7499995  )
        17           Ru  tau(  17) = (   0.5000002   0.0000000   0.0000000  )
        18           Ru  tau(  18) = (   0.7500004   0.2501563   0.0000000  )
        19           Ru  tau(  19) = (   0.7500004   0.0000000   0.2499995  )
        20           Ru  tau(  20) = (   0.5000002   0.2501552   0.2499984  )
        21           Ru  tau(  21) = (   0.5000002   0.0000000   0.5000000  )
        22           Ru  tau(  22) = (   0.7500015   0.2501552   0.5000000  )
        23           Ru  tau(  23) = (   0.7500004   0.0000000   0.7499995  )
        24           Ru  tau(  24) = (   0.5000002   0.2501552   0.7500005  )
        25           Ru  tau(  25) = (   0.5000002   0.5003127   0.0000000  )
        26           Ru  tau(  26) = (   0.7500004   0.7504692   0.0000000  )
        27           Ru  tau(  27) = (   0.7500015   0.5003127   0.2499984  )
        28           Ru  tau(  28) = (   0.5000002   0.7504702   0.2499984  )
        29           Ru  tau(  29) = (   0.5000002   0.5003127   0.5000000  )
        30           Ru  tau(  30) = (   0.7500015   0.7504702   0.5000000  )
        31           Ru  tau(  31) = (   0.7500015   0.5003127   0.7500005  )
        32           Ru  tau(  32) = (   0.5000002   0.7504702   0.7500005  )

     number of k points=    75  Marzari-Vanderbilt smearing, width (Ry)=  0.0400
                       cart. coord. in units 2pi/alat
        k(    1) = (   0.0555556   0.0555209   0.0555556), wk =   0.0219479
        k(    2) = (   0.0555556   0.0555209   0.1666667), wk =   0.0438957
        k(    3) = (   0.0555556   0.0555209   0.2777778), wk =   0.0438957
        k(    4) = (   0.0555556   0.0555209   0.3888889), wk =   0.0438957
        k(    5) = (   0.0555556   0.0555209  -0.5000000), wk =   0.0219479
        k(    6) = (   0.0555556   0.1665626   0.0555556), wk =   0.0219479
        k(    7) = (   0.0555556   0.1665626   0.1666667), wk =   0.0438957
        k(    8) = (   0.0555556   0.1665626   0.2777778), wk =   0.0438957
        k(    9) = (   0.0555556   0.1665626   0.3888889), wk =   0.0438957
        k(   10) = (   0.0555556   0.1665626  -0.5000000), wk =   0.0219479
        k(   11) = (   0.0555556   0.2776043   0.0555556), wk =   0.0219479
        k(   12) = (   0.0555556   0.2776043   0.1666667), wk =   0.0438957
        k(   13) = (   0.0555556   0.2776043   0.2777778), wk =   0.0438957
        k(   14) = (   0.0555556   0.2776043   0.3888889), wk =   0.0438957
        k(   15) = (   0.0555556   0.2776043  -0.5000000), wk =   0.0219479
        k(   16) = (   0.0555556   0.3886460   0.0555556), wk =   0.0219479
        k(   17) = (   0.0555556   0.3886460   0.1666667), wk =   0.0438957
        k(   18) = (   0.0555556   0.3886460   0.2777778), wk =   0.0438957
        k(   19) = (   0.0555556   0.3886460   0.3888889), wk =   0.0438957
        k(   20) = (   0.0555556   0.3886460  -0.5000000), wk =   0.0219479
        k(   21) = (   0.0555556  -0.4996877   0.0555556), wk =   0.0109739
        k(   22) = (   0.0555556  -0.4996877   0.1666667), wk =   0.0219479
        k(   23) = (   0.0555556  -0.4996877   0.2777778), wk =   0.0219479
        k(   24) = (   0.0555556  -0.4996877   0.3888889), wk =   0.0219479
        k(   25) = (   0.0555556  -0.4996877  -0.5000000), wk =   0.0109739
        k(   26) = (   0.1666667   0.0555209   0.1666667), wk =   0.0219479
        k(   27) = (   0.1666667   0.0555209   0.2777778), wk =   0.0438957
        k(   28) = (   0.1666667   0.0555209   0.3888889), wk =   0.0438957
        k(   29) = (   0.1666667   0.0555209  -0.5000000), wk =   0.0219479
        k(   30) = (   0.1666667   0.1665626   0.1666667), wk =   0.0219479
        k(   31) = (   0.1666667   0.1665626   0.2777778), wk =   0.0438957
        k(   32) = (   0.1666667   0.1665626   0.3888889), wk =   0.0438957
        k(   33) = (   0.1666667   0.1665626  -0.5000000), wk =   0.0219479
        k(   34) = (   0.1666667   0.2776043   0.1666667), wk =   0.0219479
        k(   35) = (   0.1666667   0.2776043   0.2777778), wk =   0.0438957
        k(   36) = (   0.1666667   0.2776043   0.3888889), wk =   0.0438957
        k(   37) = (   0.1666667   0.2776043  -0.5000000), wk =   0.0219479
        k(   38) = (   0.1666667   0.3886460   0.1666667), wk =   0.0219479
        k(   39) = (   0.1666667   0.3886460   0.2777778), wk =   0.0438957
        k(   40) = (   0.1666667   0.3886460   0.3888889), wk =   0.0438957
        k(   41) = (   0.1666667   0.3886460  -0.5000000), wk =   0.0219479
        k(   42) = (   0.1666667  -0.4996877   0.1666667), wk =   0.0109739
        k(   43) = (   0.1666667  -0.4996877   0.2777778), wk =   0.0219479
        k(   44) = (   0.1666667  -0.4996877   0.3888889), wk =   0.0219479
        k(   45) = (   0.1666667  -0.4996877  -0.5000000), wk =   0.0109739
        k(   46) = (   0.2777778   0.0555209   0.2777778), wk =   0.0219479
        k(   47) = (   0.2777778   0.0555209   0.3888889), wk =   0.0438957
        k(   48) = (   0.2777778   0.0555209  -0.5000000), wk =   0.0219479
        k(   49) = (   0.2777778   0.1665626   0.2777778), wk =   0.0219479
        k(   50) = (   0.2777778   0.1665626   0.3888889), wk =   0.0438957
        k(   51) = (   0.2777778   0.1665626  -0.5000000), wk =   0.0219479
        k(   52) = (   0.2777778   0.2776043   0.2777778), wk =   0.0219479
        k(   53) = (   0.2777778   0.2776043   0.3888889), wk =   0.0438957
        k(   54) = (   0.2777778   0.2776043  -0.5000000), wk =   0.0219479
        k(   55) = (   0.2777778   0.3886460   0.2777778), wk =   0.0219479
        k(   56) = (   0.2777778   0.3886460   0.3888889), wk =   0.0438957
        k(   57) = (   0.2777778   0.3886460  -0.5000000), wk =   0.0219479
        k(   58) = (   0.2777778  -0.4996877   0.2777778), wk =   0.0109739
        k(   59) = (   0.2777778  -0.4996877   0.3888889), wk =   0.0219479
        k(   60) = (   0.2777778  -0.4996877  -0.5000000), wk =   0.0109739
        k(   61) = (   0.3888889   0.0555209   0.3888889), wk =   0.0219479
        k(   62) = (   0.3888889   0.0555209  -0.5000000), wk =   0.0219479
        k(   63) = (   0.3888889   0.1665626   0.3888889), wk =   0.0219479
        k(   64) = (   0.3888889   0.1665626  -0.5000000), wk =   0.0219479
        k(   65) = (   0.3888889   0.2776043   0.3888889), wk =   0.0219479
        k(   66) = (   0.3888889   0.2776043  -0.5000000), wk =   0.0219479
        k(   67) = (   0.3888889   0.3886460   0.3888889), wk =   0.0219479
        k(   68) = (   0.3888889   0.3886460  -0.5000000), wk =   0.0219479
        k(   69) = (   0.3888889  -0.4996877   0.3888889), wk =   0.0109739
        k(   70) = (   0.3888889  -0.4996877  -0.5000000), wk =   0.0109739
        k(   71) = (  -0.5000000   0.0555209  -0.5000000), wk =   0.0054870
        k(   72) = (  -0.5000000   0.1665626  -0.5000000), wk =   0.0054870
        k(   73) = (  -0.5000000   0.2776043  -0.5000000), wk =   0.0054870
        k(   74) = (  -0.5000000   0.3886460  -0.5000000), wk =   0.0054870
        k(   75) = (  -0.5000000  -0.4996877  -0.5000000), wk =   0.0027435

     Dense  grid:   449959 G-vectors     FFT dimensions: (  96,  96,  96)

     Smooth grid:   241529 G-vectors     FFT dimensions: (  80,  80,  80)

     Estimated max dynamical RAM per process >     185.62 MB

     Estimated total dynamical RAM >      13.05 GB

     Check: negative core charge=   -0.000002

     Initial potential from superposition of free atoms

     starting charge  511.97959, renormalised to  512.00000
     Starting wfcs are  320 randomized atomic wfcs
     Checking if some PAW data can be deallocated... 

     total cpu time spent up to now is       30.4 secs

     Self-consistent Calculation

     iteration #  1     ecut=    71.00 Ry     beta= 0.10
     Davidson diagonalization with overlap
     ethr =  1.00E-02,  avg # of iterations =  3.3

     Threshold (ethr) on eigenvalues was too large:
     Diagonalizing with lowered threshold

     Davidson diagonalization with overlap
     ethr =  8.32E-05,  avg # of iterations =  5.4

     total cpu time spent up to now is      203.2 secs

     total energy              =  -13813.41289453 Ry
     estimated scf accuracy    <       0.63832046 Ry

     iteration #  2     ecut=    71.00 Ry     beta= 0.10
     Davidson diagonalization with overlap
     ethr =  1.25E-04,  avg # of iterations =  1.0

     total cpu time spent up to now is      266.7 secs

     total energy              =  -13813.20857981 Ry
     estimated scf accuracy    <       0.39902966 Ry

     iteration #  3     ecut=    71.00 Ry     beta= 0.10
     Davidson diagonalization with overlap
     ethr =  7.79E-05,  avg # of iterations =  2.2

     total cpu time spent up to now is      349.2 secs

     total energy              =  -13813.29874300 Ry
     estimated scf accuracy    <       0.04932918 Ry

     iteration #  4     ecut=    71.00 Ry     beta= 0.10
     Davidson diagonalization with overlap
     ethr =  9.63E-06,  avg # of iterations =  3.1

     total cpu time spent up to now is      425.3 secs

     total energy              =  -13813.30007881 Ry
     estimated scf accuracy    <       0.00884833 Ry

     iteration #  5     ecut=    71.00 Ry     beta= 0.10
     Davidson diagonalization with overlap
     ethr =  1.73E-06,  avg # of iterations =  1.9

     total cpu time spent up to now is      490.7 secs

     total energy              =  -13813.30108037 Ry
     estimated scf accuracy    <       0.00560608 Ry

     iteration #  6     ecut=    71.00 Ry     beta= 0.10
     Davidson diagonalization with overlap
     ethr =  1.09E-06,  avg # of iterations =  3.4

     total cpu time spent up to now is      588.5 secs

     total energy              =  -13813.29983582 Ry
     estimated scf accuracy    <       0.01402281 Ry

     iteration #  7     ecut=    71.00 Ry     beta= 0.10
     Davidson diagonalization with overlap
     ethr =  1.09E-06,  avg # of iterations =  2.3

     total cpu time spent up to now is      671.0 secs

     total energy              =  -13813.30085242 Ry
     estimated scf accuracy    <       0.00102550 Ry

     iteration #  8     ecut=    71.00 Ry     beta= 0.10
     Davidson diagonalization with overlap
     ethr =  2.00E-07,  avg # of iterations =  2.4

     total cpu time spent up to now is      744.6 secs

     total energy              =  -13813.30092432 Ry
     estimated scf accuracy    <       0.00018365 Ry

     iteration #  9     ecut=    71.00 Ry     beta= 0.10
     Davidson diagonalization with overlap
     ethr =  3.59E-08,  avg # of iterations =  2.1

     total cpu time spent up to now is      815.8 secs

     total energy              =  -13813.30089266 Ry
     estimated scf accuracy    <       0.00010283 Ry

     iteration # 10     ecut=    71.00 Ry     beta= 0.10
     Davidson diagonalization with overlap
     ethr =  2.01E-08,  avg # of iterations =  2.2

     total cpu time spent up to now is      897.8 secs

     total energy              =  -13813.30090197 Ry
     estimated scf accuracy    <       0.00001121 Ry

     iteration # 11     ecut=    71.00 Ry     beta= 0.10
     Davidson diagonalization with overlap
     ethr =  2.19E-09,  avg # of iterations =  3.7

     total cpu time spent up to now is      976.3 secs

     total energy              =  -13813.30090239 Ry
     estimated scf accuracy    <       0.00000243 Ry

     iteration # 12     ecut=    71.00 Ry     beta= 0.10
     Davidson diagonalization with overlap
     ethr =  4.75E-10,  avg # of iterations =  3.3

     total cpu time spent up to now is     1069.2 secs

     End of self-consistent calculation

          k = 0.0556 0.0555 0.0556 ( 30239 PWs)   bands (ev):

   -49.9249 -49.8254 -49.8252 -49.8252 -49.8062 -49.8060 -49.8060 -49.7702
   -49.7702 -49.7701 -49.7608 -49.7598 -49.7597 -49.7597 -49.7596 -49.7596
   -49.7596 -49.7591 -49.7591 -49.7590 -49.7509 -49.7508 -49.7508 -49.7058
   -49.7054 -49.7054 -49.7051 -49.7051 -49.7051 -49.7050 -49.7049 -49.7048
   -20.3285 -20.3285 -20.3285 -20.3244 -20.2660 -20.2660 -20.2658 -20.0666
   -20.0657 -20.0657 -20.0553 -20.0553 -20.0543 -20.0543 -20.0543 -20.0543
   -20.0351 -20.0341 -20.0341 -20.0123 -20.0123 -20.0116 -20.0116 -20.0115
   -20.0115 -19.9618 -19.9618 -19.9611 -19.9611 -19.9609 -19.9609 -19.8622
   -19.8622 -19.8620 -19.7892 -19.7892 -19.7890 -19.7814 -19.7814 -19.7812
   -19.7478 -19.7478 -19.7477 -19.7476 -19.7475 -19.7475 -19.7076 -19.7076
   -19.7074 -19.7009 -19.7009 -19.7008 -19.7008 -19.7004 -19.7004 -19.6954
   -19.6953 -19.6942 -19.6906 -19.6906 -19.6896 -19.5284 -19.5284 -19.5277
   -19.5276 -19.5276 -19.5271 -19.4963 -19.4963 -19.4958 -19.4958 -19.4956
   -19.4955 -19.4812 -19.4812 -19.4805 -19.4692 -19.4686 -19.4686 -19.4679
   -19.4679 -19.4679 -19.4678 -19.4672 -19.4672 -19.4659 -19.4659 -19.4652
   -19.4633 -19.4624 -19.4494 -19.4494 -19.4488 -19.3365 -19.3296 -19.3296
    15.3298  16.8884  16.8884  16.8890  17.1677  17.1854  17.1854  17.1854
    17.3564  17.3564  17.3571  17.5816  17.5839  17.5839  17.7532  17.7553
    17.7553  18.2943  18.2943  18.2976  18.2976  18.2977  18.2977  18.6105
    18.6126  18.6126  18.8775  18.8775  18.8776  18.8830  18.8858  18.8858
    18.9832  18.9835  18.9835  18.9868  18.9868  18.9868  18.9868  18.9870
    18.9870  19.4757  19.4757  19.4774  19.4774  19.4788  19.4788  19.6194
    19.6226  19.6227  19.6512  19.6512  19.6545  19.6545  19.6547  19.6547
    19.7158  19.7188  19.7188  19.9802  19.9802  19.9804  19.9804  19.9814
    19.9814  19.9814  19.9814  19.9815  19.9824  19.9824  19.9828  19.9828
    19.9840  19.9840  20.1515  20.1515  20.1522  20.4320  20.4375  20.4375
    20.4680  20.4758  20.4853  20.4853  20.4908  20.5652  20.5949  20.5995
    21.5684  21.5742  21.5742  21.7382  21.7445  21.7445  21.7896  21.7896
    21.7917  21.8897  21.8897  21.8899  21.8899  21.8916  21.8916  21.9037
    21.9037  21.9053  22.1997  22.1997  22.2031  22.3200  22.3200  22.3221
    22.5683  22.5683  22.5714  22.6458  22.6458  22.6473  22.6473  22.6474
    22.6474  22.6644  22.6644  22.6672  22.7047  22.7047  22.7067  22.8941
    22.8941  22.8942  22.8942  22.8967  22.8967  22.9496  22.9585  23.0672
    23.0672  23.0698  23.7272  23.7273  23.7313  23.7755  23.7755  23.7763
    23.8874  23.8874  23.8910  23.9764  24.7070  24.7070  24.7075  24.7474
    24.7513  24.7824  24.7854  24.7854  25.0666  25.0685  25.0685  25.0919
    25.0919  25.0940  25.2522  25.2522  25.2524  25.2524  25.2574  25.2574
    25.2587  25.2592  25.2592  26.6998  26.6998  26.7042  26.8591  26.8711
    26.8711  27.2329  27.2330

          k = 0.0556 0.0555 0.1667 ( 30228 PWs)   bands (ev):

   -49.9215 -49.8441 -49.8235 -49.8233 -49.8047 -49.8044 -49.7870 -49.7806
   -49.7805 -49.7698 -49.7684 -49.7683 -49.7625 -49.7597 -49.7596 -49.7591
   -49.7591 -49.7574 -49.7511 -49.7493 -49.7493 -49.7422 -49.7421 -49.7087
   -49.7069 -49.7067 -49.7066 -49.7064 -49.7057 -49.7054 -49.7051 -49.7050
   -20.3210 -20.3172 -20.3172 -20.3091 -20.2577 -20.2575 -20.2531 -20.0967
   -20.0833 -20.0832 -20.0710 -20.0702 -20.0685 -20.0677 -20.0622 -20.0600
   -20.0599 -20.0376 -20.0365 -20.0225 -20.0220 -20.0092 -20.0085 -20.0084
   -20.0074 -19.9700 -19.9693 -19.9528 -19.9521 -19.9405 -19.9121 -19.9119
   -19.8748 -19.8746 -19.8299 -19.8296 -19.7979 -19.7976 -19.7872 -19.7869
   -19.7562 -19.7186 -19.7184 -19.7065 -19.7064 -19.7055 -19.7047 -19.7006
   -19.7003 -19.6998 -19.6903 -19.6898 -19.6890 -19.6862 -19.6858 -19.6853
   -19.6844 -19.6842 -19.6808 -19.6679 -19.6678 -19.5601 -19.5586 -19.5351
   -19.5348 -19.5202 -19.5194 -19.5029 -19.5026 -19.5009 -19.5001 -19.4925
   -19.4918 -19.4868 -19.4862 -19.4859 -19.4807 -19.4795 -19.4790 -19.4686
   -19.4686 -19.4678 -19.4678 -19.4670 -19.4665 -19.4650 -19.4640 -19.4610
   -19.4604 -19.4603 -19.4498 -19.4377 -19.4371 -19.3539 -19.3352 -19.3332
    15.4161  16.9392  16.9522  16.9527  17.2075  17.2426  17.2426  17.2600
    17.2818  17.3945  17.4183  17.4191  17.6438  17.6460  17.7774  17.8187
    17.8208  18.1767  18.1770  18.3427  18.3460  18.3522  18.3552  18.3554
    18.5643  18.6498  18.6517  18.6696  18.6697  18.7197  18.7404  18.7407
    18.9160  18.9185  18.9265  18.9265  18.9491  18.9495  19.0219  19.0246
    19.0817  19.0819  19.1678  19.4556  19.4572  19.4796  19.4814  19.5310
    19.5334  19.5451  19.5477  19.6045  19.6066  19.6941  19.6942  19.7263
    19.8018  19.8027  19.8221  19.8229  19.9184  19.9345  19.9360  19.9667
    19.9676  19.9802  19.9813  19.9873  19.9894  20.2319  20.2324  20.2538
    20.2541  20.2781  20.3321  20.3641  20.3916  20.3975  20.4703  20.5038
    20.5065  20.5293  20.5334  20.5358  20.5417  20.5484  20.6371  20.6447
    21.3380  21.3418  21.4679  21.4723  21.5622  21.5874  21.6975  21.6976
    21.7276  21.8239  21.8259  21.8599  22.0014  22.0032  22.0054  22.0351
    22.0362  22.0819  22.0831  22.1133  22.1769  22.1793  22.5020  22.5046
    22.5205  22.5215  22.5352  22.5379  22.6477  22.6490  22.6622  22.6637
    22.7826  22.7847  22.8067  22.8072  22.8847  22.9034  22.9136  22.9144
    22.9582  22.9764  23.1180  23.1182  23.1340  23.1815  23.1835  23.2673
    23.3003  23.3025  23.3111  23.3622  23.3633  23.5505  23.5737  23.7898
    23.7933  23.9808  23.9835  24.0502  24.5050  24.5097  24.6187  24.6191
    24.6340  24.6666  24.7306  24.7334  24.7368  24.9323  25.0011  25.1249
    25.1259  25.1293  25.1306  25.1487  25.2501  25.2517  25.2522  25.2525
    25.4338  25.4351  25.6607  26.1815  26.1850  26.5690  26.6412  26.7070
    26.7115  27.1771  27.1772

          k = 0.0556 0.0555 0.2778 ( 30201 PWs)   bands (ev):

   -49.9150 -49.8620 -49.8199 -49.8197 -49.8016 -49.8014 -49.7905 -49.7904
   -49.7768 -49.7767 -49.7692 -49.7689 -49.7641 -49.7597 -49.7596 -49.7592
   -49.7591 -49.7559 -49.7516 -49.7395 -49.7394 -49.7339 -49.7338 -49.7153
   -49.7105 -49.7103 -49.7096 -49.7094 -49.7057 -49.7054 -49.7052 -49.7050
   -20.3025 -20.2951 -20.2950 -20.2832 -20.2412 -20.2411 -20.2274 -20.1424
   -20.1277 -20.1276 -20.1066 -20.1061 -20.1061 -20.0743 -20.0737 -20.0685
   -20.0678 -20.0376 -20.0373 -20.0144 -20.0143 -20.0133 -20.0120 -20.0116
   -19.9763 -19.9753 -19.9726 -19.9720 -19.9372 -19.9365 -19.8973 -19.8969
   -19.8685 -19.8681 -19.8649 -19.8647 -19.8266 -19.8261 -19.8248 -19.8244
   -19.7234 -19.7229 -19.7063 -19.6990 -19.6983 -19.6914 -19.6900 -19.6790
   -19.6747 -19.6734 -19.6733 -19.6670 -19.6670 -19.6602 -19.6600 -19.6568
   -19.6568 -19.6392 -19.6299 -19.6298 -19.6225 -19.5903 -19.5882 -19.5497
   -19.5494 -19.5261 -19.5253 -19.5222 -19.5216 -19.5169 -19.5167 -19.5145
   -19.5065 -19.5059 -19.5020 -19.5018 -19.4858 -19.4796 -19.4718 -19.4714
   -19.4713 -19.4677 -19.4677 -19.4671 -19.4669 -19.4606 -19.4602 -19.4578
   -19.4507 -19.4350 -19.4335 -19.4329 -19.4324 -19.3845 -19.3462 -19.3434
    15.5860  16.9062  17.0378  17.0766  17.0771  17.3044  17.3562  17.3562
    17.3901  17.4701  17.5417  17.5426  17.6827  17.7642  17.7661  17.9459
    17.9479  17.9700  17.9705  18.1193  18.2278  18.3277  18.3278  18.3949
    18.4351  18.4379  18.4659  18.4689  18.5653  18.5659  18.6181  18.6203
    18.7275  18.7290  18.7825  18.7829  18.8972  18.8975  18.9802  18.9822
    19.1542  19.1548  19.3566  19.3580  19.4200  19.4213  19.4224  19.4242
    19.4373  19.4389  19.4504  19.4822  19.4840  19.5777  19.5801  19.7369
    19.7381  19.7907  19.8547  19.8561  19.9189  19.9200  19.9814  19.9840
    19.9975  19.9998  20.0610  20.0620  20.0898  20.2604  20.3206  20.3247
    20.3287  20.3292  20.3806  20.4317  20.5852  20.6339  20.6382  20.6578
    20.6586  20.6736  20.6746  20.7306  20.7382  20.7805  21.0611  21.0637
    21.1218  21.1244  21.1264  21.1275  21.3359  21.4487  21.4490  21.4837
    21.4964  21.5541  21.9153  21.9545  21.9559  22.1640  22.1657  22.1818
    22.1829  22.2196  22.2204  22.2967  22.2975  22.4163  22.4183  22.5161
    22.5182  22.6382  22.6405  22.6417  22.6535  22.6540  22.6783  22.6796
    22.7332  22.7345  22.7472  22.8036  22.8336  22.8345  22.9501  23.0197
    23.0203  23.0248  23.0870  23.0875  23.2255  23.3593  23.4290  23.4294
    23.4305  23.5126  23.5137  23.5559  23.5858  23.5872  23.6066  23.8214
    23.8273  23.9678  23.9702  24.2120  24.2356  24.2367  24.4121  24.4121
    24.4438  24.5771  24.5780  24.5790  24.6086  24.6697  24.8924  24.8933
    24.8958  24.8971  24.9507  25.2489  25.2510  25.2513  25.2522  25.3970
    25.6729  25.6754  25.8684  25.8690  26.0412  26.1786  26.1822  26.2180
    26.5216  27.0606  27.0607

          k = 0.0556 0.0555 0.3889 ( 30178 PWs)   bands (ev):

   -49.9055 -49.8786 -49.8146 -49.8144 -49.7997 -49.7995 -49.7971 -49.7969
   -49.7845 -49.7843 -49.7683 -49.7657 -49.7596 -49.7595 -49.7593 -49.7592
   -49.7545 -49.7524 -49.7522 -49.7304 -49.7303 -49.7263 -49.7262 -49.7250
   -49.7157 -49.7155 -49.7140 -49.7138 -49.7057 -49.7054 -49.7052 -49.7050
   -20.2736 -20.2630 -20.2630 -20.2477 -20.2171 -20.2169 -20.1908 -20.1895
   -20.1763 -20.1762 -20.1562 -20.1485 -20.1485 -20.0817 -20.0731 -20.0727
   -20.0594 -20.0590 -20.0529 -20.0529 -20.0272 -20.0271 -19.9867 -19.9858
   -19.9584 -19.9579 -19.9401 -19.9391 -19.9257 -19.9251 -19.9163 -19.9156
   -19.9036 -19.9032 -19.8625 -19.8618 -19.8594 -19.8589 -19.8210 -19.8208
   -19.7492 -19.7488 -19.6972 -19.6962 -19.6931 -19.6917 -19.6631 -19.6592
   -19.6520 -19.6306 -19.6305 -19.6273 -19.6272 -19.6238 -19.6238 -19.6237
   -19.6235 -19.6181 -19.6153 -19.5947 -19.5947 -19.5935 -19.5709 -19.5708
   -19.5560 -19.5558 -19.5554 -19.5553 -19.5530 -19.5494 -19.5373 -19.5372
   -19.5349 -19.5348 -19.5136 -19.4910 -19.4907 -19.4781 -19.4738 -19.4676
   -19.4675 -19.4672 -19.4671 -19.4661 -19.4659 -19.4560 -19.4559 -19.4556
   -19.4520 -19.4348 -19.4345 -19.4284 -19.4073 -19.4053 -19.3623 -19.3594
    15.8334  16.5148  17.1771  17.2550  17.2556  17.4577  17.5241  17.5247
    17.5247  17.5733  17.5823  17.7238  17.7244  17.7253  17.7265  17.9095
    17.9238  17.9340  17.9357  18.0153  18.0154  18.0831  18.1262  18.1279
    18.2660  18.2678  18.3577  18.3587  18.5603  18.5625  18.5751  18.5761
    18.6308  18.6335  18.8166  18.8167  18.8416  18.8425  19.0617  19.0626
    19.0721  19.0734  19.1650  19.1656  19.3117  19.3124  19.3536  19.3544
    19.3957  19.3979  19.4602  19.4633  19.4693  19.4707  19.7192  19.7203
    19.7241  19.7732  19.7740  19.8896  20.0000  20.0031  20.0061  20.0087
    20.0156  20.0170  20.1377  20.1901  20.2008  20.2264  20.2293  20.2375
    20.2387  20.3653  20.4332  20.4341  20.7132  20.7766  20.7797  20.7877
    20.7900  20.8047  20.8066  20.8130  20.8706  20.8775  21.0952  21.1075
    21.1109  21.1744  21.2349  21.2666  21.2717  21.2732  21.2753  21.2867
    21.7536  21.7587  22.0799  22.0806  22.0896  22.1513  22.1522  22.2818
    22.2824  22.2868  22.3378  22.3514  22.3518  22.3955  22.3961  22.4313
    22.4322  22.4812  22.4819  22.4924  22.4938  22.5546  22.6064  22.6073
    22.6461  22.6464  22.6681  22.6691  22.7569  22.7576  22.9769  22.9774
    23.0961  23.1133  23.1191  23.2347  23.3013  23.4336  23.4342  23.5648
    23.7564  23.7575  23.7582  23.8637  23.8705  23.8705  23.9096  23.9100
    24.1326  24.1328  24.1342  24.1920  24.2879  24.2888  24.2926  24.3514
    24.3528  24.3710  24.4104  24.4104  24.5856  24.5882  24.5896  24.5918
    24.6434  24.6439  24.7222  25.1773  25.1788  25.2490  25.2503  25.2512
    25.2519  25.3953  25.6495  25.6522  25.7690  26.2740  26.2742  26.3373
    26.7087  26.8753  26.8753

          k = 0.0556 0.0555-0.5000 ( 30190 PWs)   bands (ev):

   -49.8933 -49.8931 -49.8079 -49.8077 -49.8077 -49.8075 -49.7914 -49.7913
   -49.7912 -49.7911 -49.7672 -49.7670 -49.7596 -49.7594 -49.7594 -49.7592
   -49.7534 -49.7532 -49.7375 -49.7373 -49.7225 -49.7223 -49.7223 -49.7221
   -49.7197 -49.7195 -49.7195 -49.7193 -49.7056 -49.7054 -49.7053 -49.7051
   -20.2357 -20.2357 -20.2228 -20.2227 -20.2226 -20.2225 -20.2046 -20.2045
   -20.1860 -20.1859 -20.1858 -20.1857 -20.1406 -20.1404 -20.0656 -20.0655
   -20.0653 -20.0653 -20.0449 -20.0449 -20.0448 -20.0447 -19.9566 -19.9565
   -19.9558 -19.9557 -19.9342 -19.9341 -19.9338 -19.9336 -19.9014 -19.9013
   -19.9005 -19.9004 -19.8902 -19.8901 -19.8896 -19.8894 -19.7822 -19.7820
   -19.7818 -19.7817 -19.6952 -19.6950 -19.6940 -19.6938 -19.6426 -19.6425
   -19.6392 -19.6390 -19.5997 -19.5996 -19.5983 -19.5981 -19.5981 -19.5980
   -19.5916 -19.5915 -19.5913 -19.5913 -19.5893 -19.5892 -19.5888 -19.5887
   -19.5765 -19.5764 -19.5763 -19.5762 -19.5637 -19.5636 -19.5635 -19.5634
   -19.5504 -19.5503 -19.4841 -19.4839 -19.4768 -19.4767 -19.4767 -19.4766
   -19.4762 -19.4761 -19.4676 -19.4674 -19.4674 -19.4672 -19.4537 -19.4535
   -19.4430 -19.4429 -19.4429 -19.4428 -19.3830 -19.3828 -19.3804 -19.3802
    16.1485  16.1485  17.3455  17.3456  17.4765  17.4766  17.4771  17.4772
    17.6652  17.6652  17.7295  17.7296  17.7456  17.7456  17.7457  17.7457
    17.8061  17.8061  17.9675  17.9676  17.9690  17.9691  18.1388  18.1388
    18.1401  18.1402  18.3443  18.3443  18.3457  18.3457  18.6976  18.6977
    18.6988  18.6988  18.8378  18.8379  18.8399  18.8399  18.9892  18.9893
    18.9894  18.9895  19.1857  19.1857  19.1860  19.1861  19.3996  19.3997
    19.4024  19.4025  19.4211  19.4211  19.4215  19.4215  19.7259  19.7259
    19.7261  19.7261  19.9780  19.9781  20.0082  20.0083  20.0095  20.0096
    20.0111  20.0112  20.1208  20.1209  20.1228  20.1229  20.2815  20.2816
    20.4862  20.4862  20.4879  20.4879  20.5918  20.5918  20.5931  20.5932
    20.8848  20.8848  20.9585  20.9586  20.9611  20.9611  21.0074  21.0074
    21.0544  21.0545  21.0609  21.0610  21.7352  21.7352  21.7353  21.7353
    21.7414  21.7414  21.7718  21.7718  22.1330  22.1331  22.1332  22.1332
    22.3253  22.3255  22.4197  22.4198  22.4252  22.4253  22.4493  22.4495
    22.4499  22.4500  22.5275  22.5277  22.5283  22.5284  22.5414  22.5415
    22.5415  22.5416  22.6068  22.6069  22.6076  22.6077  22.8594  22.8595
    22.8596  22.8596  23.1889  23.1890  23.7958  23.7960  23.7963  23.7964
    23.8080  23.8081  23.8934  23.8934  24.0721  24.0721  24.0731  24.0732
    24.1235  24.1236  24.1560  24.1561  24.2352  24.2353  24.2365  24.2366
    24.2520  24.2521  24.2529  24.2530  24.5324  24.5325  24.7070  24.7070
    24.7074  24.7074  24.7351  24.7352  25.1302  25.1302  25.1319  25.1319
    25.2494  25.2496  25.2514  25.2516  26.0858  26.0860  26.6135  26.6135
    26.6136  26.6137  27.1047

          k = 0.0556 0.1666 0.0556 ( 30214 PWs)   bands (ev):

   -49.9216 -49.8442 -49.8233 -49.8233 -49.8044 -49.8044 -49.7873 -49.7805
   -49.7805 -49.7698 -49.7683 -49.7683 -49.7625 -49.7597 -49.7596 -49.7591
   -49.7591 -49.7575 -49.7511 -49.7493 -49.7493 -49.7421 -49.7421 -49.7091
   -49.7069 -49.7069 -49.7066 -49.7066 -49.7054 -49.7053 -49.7049 -49.7049
   -20.3211 -20.3172 -20.3172 -20.3091 -20.2577 -20.2577 -20.2529 -20.0974
   -20.0840 -20.0840 -20.0702 -20.0702 -20.0676 -20.0675 -20.0631 -20.0605
   -20.0605 -20.0366 -20.0366 -20.0219 -20.0219 -20.0085 -20.0085 -20.0075
   -20.0075 -19.9693 -19.9693 -19.9519 -19.9519 -19.9403 -19.9130 -19.9130
   -19.8747 -19.8747 -19.8298 -19.8298 -19.7977 -19.7977 -19.7870 -19.7870
   -19.7562 -19.7184 -19.7184 -19.7068 -19.7068 -19.7061 -19.7061 -19.7005
   -19.6996 -19.6996 -19.6897 -19.6897 -19.6887 -19.6862 -19.6862 -19.6847
   -19.6847 -19.6843 -19.6808 -19.6680 -19.6680 -19.5593 -19.5580 -19.5357
   -19.5357 -19.5196 -19.5196 -19.5034 -19.5034 -19.5009 -19.5009 -19.4925
   -19.4925 -19.4866 -19.4864 -19.4864 -19.4800 -19.4798 -19.4798 -19.4692
   -19.4679 -19.4671 -19.4671 -19.4662 -19.4662 -19.4645 -19.4636 -19.4610
   -19.4610 -19.4596 -19.4492 -19.4377 -19.4377 -19.3539 -19.3351 -19.3332
    15.4160  16.9397  16.9520  16.9520  17.2074  17.2426  17.2426  17.2600
    17.2797  17.3951  17.4184  17.4184  17.6459  17.6459  17.7755  17.8207
    17.8207  18.1738  18.1738  18.3458  18.3458  18.3537  18.3554  18.3555
    18.5640  18.6519  18.6519  18.6693  18.6693  18.7193  18.7402  18.7402
    18.9186  18.9187  18.9260  18.9260  18.9493  18.9494  19.0233  19.0233
    19.0819  19.0819  19.1643  19.4544  19.4544  19.4827  19.4827  19.5337
    19.5337  19.5479  19.5479  19.6062  19.6062  19.6945  19.6945  19.7245
    19.8027  19.8027  19.8200  19.8200  19.9150  19.9329  19.9329  19.9681
    19.9681  19.9816  19.9816  19.9908  19.9909  20.2327  20.2327  20.2549
    20.2549  20.2792  20.3322  20.3588  20.3923  20.3923  20.4651  20.5006
    20.5092  20.5316  20.5316  20.5411  20.5411  20.5540  20.6416  20.6464
    21.3431  21.3431  21.4732  21.4732  21.5580  21.5904  21.7002  21.7002
    21.7300  21.8233  21.8233  21.8634  22.0012  22.0012  22.0061  22.0344
    22.0345  22.0810  22.0811  22.1067  22.1751  22.1751  22.5016  22.5017
    22.5204  22.5204  22.5343  22.5343  22.6489  22.6489  22.6632  22.6632
    22.7822  22.7822  22.8053  22.8053  22.8781  22.9053  22.9133  22.9133
    22.9611  22.9829  23.1198  23.1198  23.1354  23.1814  23.1814  23.2690
    23.3002  23.3002  23.3121  23.3630  23.3630  23.5506  23.5783  23.7899
    23.7899  23.9808  23.9808  24.0532  24.5062  24.5062  24.6187  24.6187
    24.6313  24.6672  24.7304  24.7304  24.7340  24.9304  25.0039  25.1246
    25.1246  25.1261  25.1261  25.1484  25.2555  25.2555  25.2572  25.2572
    25.4361  25.4361  25.6626  26.1815  26.1815  26.5577  26.6455  26.7071
    26.7071  27.1823  27.1823

          k = 0.0556 0.1666 0.1667 ( 30226 PWs)   bands (ev):

   -49.9183 -49.8421 -49.8419 -49.8216 -49.8029 -49.7925 -49.7860 -49.7858
   -49.7799 -49.7799 -49.7680 -49.7680 -49.7658 -49.7608 -49.7565 -49.7564
   -49.7558 -49.7558 -49.7496 -49.7496 -49.7427 -49.7427 -49.7351 -49.7091
   -49.7087 -49.7084 -49.7083 -49.7073 -49.7070 -49.7063 -49.7061 -49.7053
   -20.3139 -20.3138 -20.3024 -20.2901 -20.2494 -20.2454 -20.2452 -20.1037
   -20.1031 -20.0975 -20.0968 -20.0666 -20.0658 -20.0652 -20.0641 -20.0634
   -20.0592 -20.0590 -20.0541 -20.0536 -20.0353 -20.0345 -20.0318 -20.0318
   -19.9721 -19.9493 -19.9491 -19.9452 -19.9452 -19.9279 -19.9272 -19.9053
   -19.9043 -19.8884 -19.8715 -19.8151 -19.7932 -19.7932 -19.7559 -19.7559
   -19.7449 -19.7445 -19.7224 -19.7205 -19.7204 -19.7004 -19.6990 -19.6870
   -19.6868 -19.6841 -19.6835 -19.6827 -19.6826 -19.6821 -19.6814 -19.6812
   -19.6724 -19.6723 -19.6440 -19.6439 -19.6298 -19.5677 -19.5666 -19.5522
   -19.5519 -19.5288 -19.5244 -19.5154 -19.5006 -19.5003 -19.4998 -19.4990
   -19.4938 -19.4924 -19.4918 -19.4912 -19.4900 -19.4900 -19.4776 -19.4741
   -19.4738 -19.4716 -19.4715 -19.4710 -19.4633 -19.4615 -19.4609 -19.4603
   -19.4537 -19.4535 -19.4386 -19.4380 -19.4208 -19.3757 -19.3402 -19.3323
    15.5009  17.0031  17.0037  17.0097  17.2277  17.2802  17.3320  17.3320
    17.3407  17.3426  17.4559  17.4565  17.4842  17.6927  17.8434  17.8451
    17.8672  18.2064  18.2089  18.2337  18.2368  18.3986  18.4001  18.4031
    18.4032  18.4523  18.4523  18.5310  18.5938  18.5939  18.7066  18.7546
    18.7549  18.7755  18.7760  18.7995  18.9647  19.0394  19.0406  19.0448
    19.0457  19.0747  19.0755  19.1903  19.1937  19.4185  19.4208  19.5211
    19.5213  19.5433  19.5972  19.5980  19.6298  19.6302  19.6804  19.6818
    19.7035  19.8890  19.8924  19.8947  19.8976  19.9863  19.9890  20.0557
    20.0566  20.1022  20.1748  20.1759  20.2806  20.2830  20.3016  20.3019
    20.3428  20.3439  20.3780  20.4454  20.4473  20.4562  20.4679  20.4826
    20.5233  20.5250  20.5424  20.5882  20.6224  20.6249  20.6597  20.6882
    21.2065  21.3077  21.3393  21.3436  21.5930  21.5965  21.7580  21.7700
    21.7714  21.7745  21.7752  21.8433  21.8480  21.8648  21.8671  21.8912
    21.8936  22.0470  22.1122  22.2164  22.2165  22.2374  22.2379  22.2880
    22.3660  22.6492  22.6494  22.7655  22.7767  22.7785  22.7923  22.7939
    22.8330  22.8340  22.8588  22.9144  22.9173  22.9607  22.9900  22.9906
    23.0530  23.0543  23.0725  23.1125  23.1127  23.2125  23.3033  23.3630
    23.3635  23.3934  23.3950  23.4737  23.4852  23.4868  23.6121  23.6160
    23.8198  24.0159  24.1872  24.1884  24.1906  24.3265  24.3272  24.5008
    24.6113  24.6119  24.6775  24.7559  24.7571  24.7709  24.7796  25.0213
    25.0216  25.1234  25.1277  25.1283  25.1320  25.1467  25.1494  25.1909
    25.3867  25.6804  26.0199  26.0202  26.1233  26.1267  26.6520  26.6563
    27.1536  27.1622  27.2676

          k = 0.0556 0.1666 0.2778 ( 30190 PWs)   bands (ev):

   -49.9119 -49.8597 -49.8379 -49.8180 -49.8040 -49.8000 -49.7895 -49.7835
   -49.7787 -49.7761 -49.7690 -49.7679 -49.7674 -49.7633 -49.7624 -49.7544
   -49.7528 -49.7501 -49.7449 -49.7438 -49.7400 -49.7347 -49.7284 -49.7152
   -49.7118 -49.7113 -49.7112 -49.7089 -49.7086 -49.7076 -49.7060 -49.7054
   -20.2994 -20.2958 -20.2771 -20.2608 -20.2330 -20.2302 -20.2211 -20.1494
   -20.1405 -20.1071 -20.1059 -20.1032 -20.1030 -20.0990 -20.0780 -20.0743
   -20.0734 -20.0571 -20.0557 -20.0480 -20.0451 -20.0423 -20.0387 -20.0194
   -20.0018 -19.9648 -19.9503 -19.9323 -19.9317 -19.9183 -19.9126 -19.9104
   -19.8908 -19.8838 -19.8576 -19.8453 -19.8285 -19.7924 -19.7813 -19.7544
   -19.7447 -19.7395 -19.7170 -19.7084 -19.7036 -19.6891 -19.6872 -19.6839
   -19.6804 -19.6783 -19.6732 -19.6632 -19.6540 -19.6499 -19.6478 -19.6456
   -19.6455 -19.6415 -19.6089 -19.6066 -19.5982 -19.5932 -19.5831 -19.5818
   -19.5405 -19.5399 -19.5355 -19.5328 -19.5258 -19.5236 -19.5233 -19.5201
   -19.5117 -19.5057 -19.4977 -19.4931 -19.4925 -19.4905 -19.4844 -19.4805
   -19.4791 -19.4772 -19.4737 -19.4707 -19.4625 -19.4613 -19.4561 -19.4412
   -19.4405 -19.4383 -19.4339 -19.4227 -19.4110 -19.4100 -19.3513 -19.3381
    15.6680  16.9695  17.1022  17.1231  17.1287  17.3038  17.3727  17.4575
    17.4593  17.4737  17.5303  17.5788  17.6141  17.7507  17.7816  17.9553
    17.9758  17.9883  18.0286  18.1383  18.1688  18.2616  18.2670  18.3031
    18.3278  18.3517  18.4409  18.4682  18.4878  18.4880  18.4934  18.5156
    18.6432  18.6644  18.6752  18.7803  18.8163  18.8876  18.8960  19.0564
    19.0705  19.0955  19.1318  19.2397  19.2715  19.3348  19.3477  19.3758
    19.3855  19.4409  19.4688  19.5114  19.5924  19.6023  19.6285  19.7003
    19.7235  19.7606  19.8734  19.9927  20.0299  20.0612  20.0868  20.1223
    20.1481  20.1736  20.2077  20.2294  20.2984  20.3114  20.3341  20.3462
    20.3621  20.4450  20.4752  20.5045  20.5178  20.5771  20.6118  20.6176
    20.6795  20.7371  20.7431  20.7489  20.7660  20.7736  20.9969  21.0118
    21.0448  21.1020  21.1124  21.3359  21.3420  21.3470  21.5055  21.5434
    21.6224  21.6373  21.6767  21.8019  21.8400  21.8936  21.9623  22.0587
    22.0786  22.1148  22.1653  22.2116  22.2577  22.2689  22.3666  22.4474
    22.4776  22.5585  22.5638  22.6004  22.6123  22.6359  22.7457  22.7519
    22.7594  22.7711  22.8644  22.8913  22.9551  22.9958  23.0597  23.0737
    23.0905  23.1193  23.1220  23.3056  23.4006  23.4019  23.4225  23.4485
    23.4754  23.6334  23.6484  23.6900  23.6992  23.7022  23.7349  23.7489
    23.7553  23.8361  23.9490  24.0425  24.2016  24.3152  24.4146  24.4373
    24.4537  24.5257  24.5523  24.6656  24.6834  24.6857  24.8324  24.8330
    24.8971  24.9000  24.9622  25.0134  25.1228  25.1294  25.1413  25.1524
    25.1999  25.5784  25.6192  26.0065  26.1291  26.4464  26.5403  26.6289
    26.6467  26.7264  27.6414

          k = 0.0556 0.1666 0.3889 ( 30161 PWs)   bands (ev):

   -49.9025 -49.8760 -49.8318 -49.8146 -49.8129 -49.7984 -49.7957 -49.7835
   -49.7798 -49.7769 -49.7720 -49.7695 -49.7665 -49.7639 -49.7530 -49.7515
   -49.7508 -49.7499 -49.7454 -49.7344 -49.7312 -49.7274 -49.7247 -49.7222
   -49.7173 -49.7169 -49.7155 -49.7121 -49.7087 -49.7080 -49.7058 -49.7055
   -20.2741 -20.2676 -20.2426 -20.2226 -20.2090 -20.2081 -20.1968 -20.1872
   -20.1854 -20.1538 -20.1456 -20.1410 -20.1279 -20.1012 -20.0959 -20.0832
   -20.0825 -20.0804 -20.0765 -20.0663 -20.0431 -20.0294 -20.0270 -20.0088
   -19.9848 -19.9696 -19.9639 -19.9444 -19.9432 -19.9136 -19.8900 -19.8877
   -19.8829 -19.8704 -19.8609 -19.8428 -19.8270 -19.8148 -19.8141 -19.7964
   -19.7725 -19.7426 -19.6866 -19.6848 -19.6818 -19.6783 -19.6766 -19.6726
   -19.6658 -19.6571 -19.6564 -19.6320 -19.6264 -19.6220 -19.6203 -19.6174
   -19.6126 -19.6114 -19.6039 -19.5974 -19.5767 -19.5754 -19.5748 -19.5656
   -19.5618 -19.5607 -19.5595 -19.5594 -19.5589 -19.5527 -19.5527 -19.5266
   -19.5243 -19.5197 -19.5041 -19.5011 -19.4960 -19.4950 -19.4946 -19.4887
   -19.4860 -19.4831 -19.4680 -19.4678 -19.4639 -19.4602 -19.4554 -19.4511
   -19.4432 -19.4368 -19.4236 -19.4131 -19.4085 -19.3945 -19.3675 -19.3511
    15.9115  16.5826  17.2423  17.2879  17.3080  17.4352  17.5192  17.5913
    17.6279  17.6346  17.6407  17.6646  17.7380  17.7608  17.7801  17.8046
    17.8565  17.9031  17.9626  17.9669  18.0661  18.0754  18.1314  18.1652
    18.1723  18.1896  18.2957  18.3426  18.3478  18.3569  18.5237  18.5464
    18.6117  18.6210  18.6524  18.6791  18.7823  18.9806  18.9857  19.0049
    19.0166  19.1142  19.1311  19.1795  19.1919  19.2281  19.2482  19.2594
    19.2978  19.3065  19.4509  19.4517  19.4544  19.5657  19.7234  19.7279
    19.7345  19.8007  19.9999  20.0084  20.0495  20.0760  20.1083  20.1121
    20.1371  20.1741  20.1938  20.2603  20.2639  20.2688  20.3159  20.3367
    20.4419  20.4420  20.4707  20.6650  20.7236  20.7578  20.7792  20.8115
    20.8712  20.8989  20.9033  20.9114  20.9177  20.9196  20.9248  20.9611
    21.0575  21.1410  21.1982  21.2254  21.2793  21.2913  21.3794  21.4085
    21.6229  21.7133  21.7660  21.8372  21.8474  21.9001  22.0078  22.0702
    22.0890  22.1190  22.1609  22.1749  22.1787  22.1815  22.2536  22.3208
    22.3869  22.4420  22.5390  22.5664  22.5863  22.6481  22.6763  22.6953
    22.7119  22.8116  22.8550  22.8655  22.9515  22.9885  22.9994  23.0721
    23.1208  23.1615  23.3020  23.3400  23.3894  23.3911  23.4646  23.4809
    23.6645  23.6930  23.7606  23.8544  23.9769  23.9783  23.9988  24.0078
    24.0307  24.0416  24.0544  24.1465  24.1604  24.2414  24.2429  24.3412
    24.4181  24.5210  24.5276  24.5867  24.5881  24.5901  24.5936  24.6034
    24.7411  24.7441  24.8143  25.0557  25.1236  25.1247  25.1313  25.1349
    25.1368  25.3202  25.6011  25.8312  25.8664  26.0181  26.1704  26.3699
    26.8596  27.1835  27.4666

          k = 0.0556 0.1666-0.5000 ( 30184 PWs)   bands (ev):

   -49.8905 -49.8903 -49.8240 -49.8238 -49.8064 -49.8062 -49.7902 -49.7900
   -49.7752 -49.7750 -49.7748 -49.7746 -49.7654 -49.7652 -49.7519 -49.7517
   -49.7475 -49.7473 -49.7370 -49.7368 -49.7252 -49.7250 -49.7235 -49.7233
   -49.7210 -49.7208 -49.7168 -49.7166 -49.7084 -49.7082 -49.7057 -49.7055
   -20.2394 -20.2393 -20.2308 -20.2307 -20.2007 -20.2006 -20.1797 -20.1795
   -20.1781 -20.1780 -20.1774 -20.1773 -20.1391 -20.1389 -20.0921 -20.0920
   -20.0842 -20.0841 -20.0831 -20.0831 -20.0294 -20.0293 -20.0064 -20.0063
   -19.9763 -19.9762 -19.9686 -19.9685 -19.9235 -19.9234 -19.8896 -19.8895
   -19.8597 -19.8596 -19.8449 -19.8447 -19.8419 -19.8418 -19.8055 -19.8053
   -19.7754 -19.7752 -19.6859 -19.6857 -19.6769 -19.6767 -19.6516 -19.6514
   -19.6364 -19.6362 -19.6323 -19.6321 -19.6258 -19.6258 -19.6063 -19.6062
   -19.5965 -19.5964 -19.5901 -19.5900 -19.5870 -19.5869 -19.5847 -19.5846
   -19.5835 -19.5834 -19.5555 -19.5555 -19.5483 -19.5481 -19.5295 -19.5293
   -19.5275 -19.5274 -19.5128 -19.5127 -19.5109 -19.5108 -19.4908 -19.4906
   -19.4863 -19.4861 -19.4797 -19.4796 -19.4658 -19.4656 -19.4469 -19.4467
   -19.4461 -19.4460 -19.4131 -19.4130 -19.3885 -19.3883 -19.3704 -19.3703
    16.2216  16.2216  17.4117  17.4118  17.4970  17.4971  17.5309  17.5310
    17.6203  17.6203  17.7181  17.7181  17.7855  17.7856  17.8353  17.8353
    17.8605  17.8605  17.8999  17.8999  18.0006  18.0007  18.0439  18.0440
    18.0499  18.0500  18.2143  18.2143  18.3981  18.3982  18.4417  18.4417
    18.7249  18.7250  18.7421  18.7422  18.7974  18.7974  18.8859  18.8860
    19.1319  19.1319  19.1666  19.1667  19.1958  19.1959  19.2324  19.2324
    19.3009  19.3009  19.3660  19.3661  19.3819  19.3820  19.8531  19.8532
    19.9137  19.9137  19.9210  19.9210  19.9801  19.9802  20.0371  20.0371
    20.1902  20.1903  20.2055  20.2055  20.3865  20.3866  20.4166  20.4166
    20.4890  20.4890  20.5296  20.5296  20.5888  20.5888  20.7715  20.7715
    20.8781  20.8781  20.9722  20.9723  21.0510  21.0511  21.0590  21.0591
    21.0919  21.0919  21.1227  21.1228  21.5439  21.5439  21.5856  21.5856
    21.6195  21.6195  21.6690  21.6690  21.8391  21.8392  21.8434  21.8435
    22.1008  22.1009  22.2720  22.2721  22.2979  22.2981  22.3503  22.3504
    22.3559  22.3561  22.4191  22.4192  22.4826  22.4827  22.5897  22.5898
    22.7852  22.7853  22.8075  22.8076  22.9125  22.9127  23.1755  23.1756
    23.2113  23.2114  23.2143  23.2145  23.2830  23.2832  23.7363  23.7364
    23.8200  23.8202  23.8321  23.8321  24.0515  24.0516  24.1068  24.1069
    24.2327  24.2329  24.2842  24.2843  24.2864  24.2866  24.3066  24.3067
    24.3071  24.3072  24.3149  24.3150  24.3269  24.3269  24.5162  24.5163
    24.6557  24.6558  25.0814  25.0814  25.1268  25.1270  25.1336  25.1337
    25.3739  25.3740  25.5997  25.5998  25.6077  25.6077  26.1418  26.1419
    27.2067  27.2068  27.6328

          k = 0.0556 0.2776 0.0556 ( 30204 PWs)   bands (ev):

   -49.9150 -49.8622 -49.8197 -49.8197 -49.8014 -49.8014 -49.7904 -49.7904
   -49.7767 -49.7767 -49.7692 -49.7692 -49.7641 -49.7596 -49.7596 -49.7592
   -49.7591 -49.7559 -49.7516 -49.7395 -49.7395 -49.7339 -49.7339 -49.7157
   -49.7105 -49.7105 -49.7096 -49.7096 -49.7053 -49.7053 -49.7049 -49.7049
   -20.3026 -20.2951 -20.2951 -20.2833 -20.2413 -20.2413 -20.2272 -20.1429
   -20.1282 -20.1282 -20.1072 -20.1066 -20.1066 -20.0735 -20.0735 -20.0677
   -20.0677 -20.0371 -20.0371 -20.0142 -20.0135 -20.0135 -20.0115 -20.0115
   -19.9754 -19.9754 -19.9719 -19.9719 -19.9364 -19.9364 -19.8971 -19.8970
   -19.8682 -19.8682 -19.8658 -19.8658 -19.8263 -19.8263 -19.8244 -19.8244
   -19.7244 -19.7244 -19.7066 -19.6982 -19.6982 -19.6905 -19.6905 -19.6779
   -19.6738 -19.6735 -19.6735 -19.6675 -19.6675 -19.6603 -19.6603 -19.6572
   -19.6572 -19.6394 -19.6302 -19.6302 -19.6224 -19.5894 -19.5875 -19.5503
   -19.5503 -19.5261 -19.5261 -19.5222 -19.5222 -19.5174 -19.5174 -19.5151
   -19.5061 -19.5061 -19.5025 -19.5025 -19.4865 -19.4789 -19.4716 -19.4716
   -19.4706 -19.4670 -19.4670 -19.4663 -19.4663 -19.4606 -19.4606 -19.4571
   -19.4501 -19.4346 -19.4332 -19.4329 -19.4329 -19.3846 -19.3461 -19.3434
    15.5856  16.9045  17.0380  17.0762  17.0762  17.3044  17.3561  17.3561
    17.3900  17.4706  17.5418  17.5418  17.6812  17.7659  17.7659  17.9475
    17.9475  17.9677  17.9677  18.1183  18.2275  18.3273  18.3273  18.3945
    18.4375  18.4375  18.4688  18.4688  18.5651  18.5651  18.6191  18.6191
    18.7294  18.7294  18.7819  18.7819  18.8970  18.8971  18.9827  18.9827
    19.1542  19.1542  19.3585  19.3585  19.4211  19.4211  19.4219  19.4219
    19.4396  19.4396  19.4462  19.4850  19.4850  19.5792  19.5792  19.7389
    19.7389  19.7888  19.8538  19.8538  19.9174  19.9174  19.9845  19.9845
    20.0011  20.0011  20.0637  20.0637  20.0867  20.2557  20.3193  20.3193
    20.3312  20.3312  20.3742  20.4267  20.5906  20.6399  20.6399  20.6583
    20.6639  20.6740  20.6740  20.7360  20.7398  20.7804  21.0659  21.0659
    21.1244  21.1244  21.1291  21.1291  21.3396  21.4522  21.4522  21.4869
    21.4979  21.5576  21.9106  21.9528  21.9528  22.1617  22.1617  22.1806
    22.1807  22.2185  22.2185  22.2952  22.2952  22.4154  22.4154  22.5147
    22.5147  22.6316  22.6411  22.6411  22.6523  22.6523  22.6785  22.6786
    22.7324  22.7324  22.7405  22.8044  22.8344  22.8344  22.9504  23.0187
    23.0187  23.0312  23.0855  23.0855  23.2265  23.3619  23.4299  23.4299
    23.4356  23.5121  23.5121  23.5566  23.5853  23.5853  23.6068  23.8238
    23.8238  23.9681  23.9681  24.2143  24.2352  24.2353  24.4114  24.4114
    24.4416  24.5762  24.5762  24.5790  24.6062  24.6676  24.8919  24.8919
    24.8934  24.8934  24.9508  25.2549  25.2550  25.2567  25.2567  25.3998
    25.6729  25.6729  25.8711  25.8711  26.0312  26.1786  26.1786  26.2202
    26.5256  27.0654  27.0654

          k = 0.0556 0.2776 0.1667 ( 30187 PWs)   bands (ev):

   -49.9119 -49.8598 -49.8378 -49.8180 -49.8040 -49.8000 -49.7895 -49.7833
   -49.7787 -49.7761 -49.7690 -49.7682 -49.7674 -49.7631 -49.7624 -49.7544
   -49.7528 -49.7501 -49.7450 -49.7438 -49.7400 -49.7347 -49.7284 -49.7156
   -49.7118 -49.7114 -49.7112 -49.7087 -49.7085 -49.7074 -49.7059 -49.7054
   -20.2994 -20.2959 -20.2772 -20.2608 -20.2331 -20.2304 -20.2209 -20.1499
   -20.1411 -20.1075 -20.1065 -20.1025 -20.1025 -20.0995 -20.0787 -20.0741
   -20.0729 -20.0570 -20.0556 -20.0480 -20.0453 -20.0418 -20.0380 -20.0192
   -20.0011 -19.9650 -19.9497 -19.9321 -19.9318 -19.9183 -19.9125 -19.9102
   -19.8898 -19.8845 -19.8587 -19.8451 -19.8284 -19.7923 -19.7807 -19.7546
   -19.7450 -19.7398 -19.7184 -19.7086 -19.7042 -19.6877 -19.6871 -19.6844
   -19.6798 -19.6780 -19.6725 -19.6634 -19.6544 -19.6500 -19.6482 -19.6458
   -19.6454 -19.6415 -19.6091 -19.6067 -19.5971 -19.5933 -19.5828 -19.5827
   -19.5407 -19.5403 -19.5355 -19.5332 -19.5260 -19.5244 -19.5233 -19.5207
   -19.5113 -19.5060 -19.4970 -19.4932 -19.4932 -19.4899 -19.4849 -19.4800
   -19.4790 -19.4770 -19.4744 -19.4700 -19.4619 -19.4618 -19.4554 -19.4407
   -19.4399 -19.4384 -19.4344 -19.4226 -19.4110 -19.4100 -19.3512 -19.3381
    15.6678  16.9678  17.1025  17.1228  17.1278  17.3038  17.3727  17.4575
    17.4609  17.4737  17.5308  17.5781  17.6142  17.7494  17.7815  17.9551
    17.9772  17.9864  18.0259  18.1381  18.1678  18.2613  18.2687  18.3032
    18.3276  18.3545  18.4404  18.4679  18.4877  18.4893  18.4931  18.5156
    18.6421  18.6642  18.6758  18.7803  18.8165  18.8881  18.8953  19.0566
    19.0716  19.0954  19.1329  19.2427  19.2714  19.3334  19.3493  19.3758
    19.3851  19.4411  19.4648  19.5119  19.5919  19.6031  19.6274  19.7000
    19.7242  19.7624  19.8759  19.9914  20.0271  20.0636  20.0890  20.1241
    20.1454  20.1741  20.2035  20.2296  20.2971  20.3133  20.3312  20.3483
    20.3582  20.4450  20.4707  20.5059  20.5186  20.5788  20.6160  20.6166
    20.6827  20.7412  20.7427  20.7521  20.7650  20.7738  20.9983  21.0140
    21.0458  21.1001  21.1167  21.3400  21.3403  21.3513  21.5095  21.5486
    21.6255  21.6403  21.6727  21.8006  21.8355  21.8904  21.9609  22.0564
    22.0760  22.1124  22.1646  22.2069  22.2567  22.2683  22.3654  22.4472
    22.4764  22.5582  22.5643  22.6008  22.6120  22.6351  22.7408  22.7501
    22.7604  22.7714  22.8645  22.8886  22.9542  23.0005  23.0580  23.0726
    23.0901  23.1185  23.1228  23.3078  23.4009  23.4014  23.4216  23.4530
    23.4751  23.6316  23.6504  23.6910  23.6979  23.7018  23.7323  23.7474
    23.7561  23.8357  23.9492  24.0415  24.2014  24.3148  24.4145  24.4387
    24.4512  24.5249  24.5514  24.6634  24.6820  24.6859  24.8321  24.8331
    24.8931  24.8965  24.9604  25.0163  25.1279  25.1335  25.1445  25.1556
    25.1999  25.5806  25.6167  26.0098  26.1256  26.4476  26.5443  26.6301
    26.6396  26.7266  27.6469

          k = 0.0556 0.2776 0.2778 ( 30169 PWs)   bands (ev):

   -49.9056 -49.8551 -49.8550 -49.8169 -49.8147 -49.7972 -49.7878 -49.7878
   -49.7749 -49.7749 -49.7737 -49.7662 -49.7660 -49.7655 -49.7504 -49.7502
   -49.7497 -49.7497 -49.7411 -49.7410 -49.7364 -49.7363 -49.7231 -49.7152
   -49.7148 -49.7145 -49.7144 -49.7123 -49.7121 -49.7079 -49.7078 -49.7057
   -20.2855 -20.2855 -20.2495 -20.2288 -20.2169 -20.2088 -20.2086 -20.1491
   -20.1487 -20.1453 -20.1448 -20.1080 -20.1075 -20.0856 -20.0852 -20.0806
   -20.0805 -20.0786 -20.0781 -20.0703 -20.0701 -20.0438 -20.0432 -20.0431
   -20.0284 -20.0282 -19.9477 -19.9396 -19.9127 -19.9122 -19.8927 -19.8927
   -19.8839 -19.8776 -19.8450 -19.8439 -19.7726 -19.7724 -19.7722 -19.7443
   -19.7440 -19.7393 -19.7386 -19.7067 -19.7053 -19.6838 -19.6837 -19.6723
   -19.6719 -19.6670 -19.6661 -19.6660 -19.6526 -19.6522 -19.6309 -19.6307
   -19.6138 -19.6127 -19.6113 -19.6113 -19.5761 -19.5760 -19.5740 -19.5737
   -19.5599 -19.5597 -19.5581 -19.5502 -19.5290 -19.5289 -19.5274 -19.5210
   -19.5202 -19.5181 -19.5179 -19.5173 -19.4909 -19.4907 -19.4893 -19.4889
   -19.4864 -19.4795 -19.4660 -19.4640 -19.4635 -19.4614 -19.4541 -19.4536
   -19.4485 -19.4375 -19.4370 -19.4079 -19.4078 -19.3961 -19.3625 -19.3379
    15.8294  17.0916  17.0930  17.2172  17.2280  17.2286  17.3550  17.4398
    17.6059  17.6059  17.6501  17.6506  17.7541  17.8124  17.8827  17.8837
    17.9752  18.0253  18.0263  18.0275  18.0567  18.0567  18.1398  18.1423
    18.1938  18.1938  18.2665  18.2674  18.4680  18.5516  18.5518  18.5682
    18.5687  18.6015  18.6018  18.6877  18.6886  18.7849  18.7849  18.8618
    18.8626  18.9814  19.1271  19.1275  19.1963  19.1970  19.2004  19.4383
    19.4388  19.4543  19.4547  19.4973  19.4977  19.5012  19.5611  19.8952
    19.8969  20.0062  20.0075  20.0835  20.0836  20.1533  20.1544  20.1947
    20.1970  20.2085  20.2117  20.2930  20.3107  20.3822  20.3839  20.4661
    20.4738  20.5341  20.5360  20.6876  20.6892  20.6957  20.7534  20.7743
    20.7858  20.8196  20.8212  20.8425  20.8754  20.8903  20.8906  20.8918
    21.0485  21.0500  21.1744  21.1774  21.4034  21.4081  21.5405  21.5453
    21.5975  21.6015  21.7012  21.7050  21.7212  21.7937  21.8153  21.8181
    21.8540  21.8565  22.0291  22.0521  22.1902  22.2124  22.2129  22.2183
    22.2185  22.3429  22.4125  22.5456  22.5458  22.6911  22.7096  22.7101
    22.9948  22.9987  22.9999  23.1274  23.1282  23.1531  23.1532  23.2563
    23.2605  23.2728  23.2747  23.3570  23.3587  23.4630  23.4632  23.4700
    23.4701  23.5220  23.5252  23.7855  23.8126  23.8126  23.8680  23.9595
    23.9604  23.9648  23.9856  23.9863  24.1414  24.1940  24.3677  24.3681
    24.5719  24.6967  24.6974  24.7191  24.7242  24.7243  24.7326  24.7562
    24.8986  24.9010  24.9025  24.9043  24.9422  24.9446  24.9503  24.9505
    25.0496  25.4089  25.5053  25.5077  26.0205  26.0238  27.0799  27.0801
    27.3292  27.3778  27.3838

          k = 0.0556 0.2776 0.3889 ( 30208 PWs)   bands (ev):

   -49.8965 -49.8708 -49.8482 -49.8288 -49.8098 -49.7962 -49.7932 -49.7852
   -49.7818 -49.7781 -49.7732 -49.7684 -49.7634 -49.7553 -49.7500 -49.7471
   -49.7456 -49.7426 -49.7388 -49.7383 -49.7328 -49.7295 -49.7240 -49.7193
   -49.7189 -49.7185 -49.7184 -49.7147 -49.7132 -49.7105 -49.7072 -49.7060
   -20.2645 -20.2616 -20.2135 -20.1941 -20.1932 -20.1905 -20.1888 -20.1886
   -20.1770 -20.1410 -20.1409 -20.1393 -20.1262 -20.1244 -20.1078 -20.1061
   -20.1050 -20.0924 -20.0885 -20.0858 -20.0661 -20.0621 -20.0458 -20.0396
   -20.0335 -20.0040 -19.9735 -19.9722 -19.9424 -19.9179 -19.8743 -19.8648
   -19.8543 -19.8331 -19.8254 -19.8046 -19.8034 -19.8010 -19.7803 -19.7718
   -19.7306 -19.7304 -19.7130 -19.6995 -19.6916 -19.6898 -19.6710 -19.6683
   -19.6591 -19.6547 -19.6525 -19.6426 -19.6372 -19.6355 -19.6227 -19.6161
   -19.6068 -19.6053 -19.6047 -19.6037 -19.5964 -19.5837 -19.5731 -19.5702
   -19.5663 -19.5620 -19.5482 -19.5475 -19.5474 -19.5401 -19.5393 -19.5381
   -19.5256 -19.5159 -19.5136 -19.5072 -19.5036 -19.5027 -19.5010 -19.5002
   -19.4967 -19.4811 -19.4768 -19.4725 -19.4716 -19.4687 -19.4673 -19.4552
   -19.4421 -19.4413 -19.4256 -19.3953 -19.3885 -19.3814 -19.3791 -19.3453
    16.0650  16.7157  17.2698  17.3597  17.3697  17.4097  17.4580  17.5570
    17.7228  17.7500  17.7570  17.7760  17.7848  17.7977  17.8130  17.8289
    17.8576  17.8885  17.9366  17.9535  17.9821  18.0114  18.0685  18.0744
    18.0908  18.1260  18.2709  18.2850  18.3036  18.3086  18.3513  18.4140
    18.4835  18.5819  18.6437  18.6989  18.7093  18.7123  18.7550  18.7554
    18.8512  18.9383  18.9643  19.0433  19.0824  19.2070  19.2109  19.2452
    19.3205  19.4056  19.5291  19.5362  19.5651  19.5793  19.7485  19.8010
    19.8337  19.8538  19.9402  20.0815  20.1603  20.1629  20.2520  20.2718
    20.2897  20.3102  20.3160  20.4036  20.4439  20.4565  20.4638  20.5809
    20.5816  20.6539  20.6737  20.6941  20.6994  20.7257  20.8032  20.8567
    20.8951  20.9020  20.9403  20.9509  20.9640  21.0393  21.0723  21.0753
    21.0780  21.1528  21.1809  21.2012  21.2814  21.3453  21.3969  21.4918
    21.5537  21.5570  21.5907  21.6182  21.6485  21.6729  21.6986  21.7081
    21.8156  21.8294  21.8514  21.9076  22.0280  22.0594  22.0745  22.1293
    22.2364  22.2428  22.4091  22.4332  22.5565  22.5930  22.6753  22.7554
    22.9016  22.9304  22.9404  22.9894  23.0618  23.1501  23.2132  23.2221
    23.3032  23.3373  23.3864  23.4901  23.5000  23.5157  23.5869  23.6490
    23.6985  23.7007  23.8555  23.8577  23.8592  23.9053  24.0846  24.1298
    24.1495  24.1644  24.2041  24.2105  24.2239  24.2319  24.2329  24.2753
    24.3462  24.4962  24.5651  24.5810  24.5819  24.5964  24.6129  24.6171
    24.6270  24.6944  24.8963  24.9068  24.9109  24.9260  24.9774  25.0188
    25.3418  25.4620  25.4821  25.5017  25.5448  25.8667  26.7399  26.7518
    27.5147  27.6916  27.9977

          k = 0.0556 0.2776-0.5000 ( 30196 PWs)   bands (ev):

   -49.8849 -49.8847 -49.8394 -49.8392 -49.8037 -49.8035 -49.7881 -49.7879
   -49.7821 -49.7819 -49.7711 -49.7709 -49.7598 -49.7596 -49.7447 -49.7445
   -49.7420 -49.7418 -49.7360 -49.7358 -49.7279 -49.7277 -49.7255 -49.7253
   -49.7236 -49.7234 -49.7142 -49.7141 -49.7140 -49.7139 -49.7067 -49.7065
   -20.2335 -20.2335 -20.2287 -20.2287 -20.1709 -20.1708 -20.1673 -20.1671
   -20.1628 -20.1626 -20.1422 -20.1421 -20.1358 -20.1357 -20.1282 -20.1282
   -20.1258 -20.1258 -20.1001 -20.1000 -20.0515 -20.0514 -20.0445 -20.0443
   -20.0100 -20.0100 -19.9670 -19.9670 -19.9612 -19.9611 -19.8377 -19.8377
   -19.8354 -19.8353 -19.8169 -19.8169 -19.8009 -19.8007 -19.7812 -19.7812
   -19.7630 -19.7628 -19.6700 -19.6698 -19.6683 -19.6681 -19.6649 -19.6647
   -19.6556 -19.6556 -19.6544 -19.6543 -19.6411 -19.6410 -19.6320 -19.6318
   -19.6032 -19.6031 -19.5948 -19.5947 -19.5782 -19.5781 -19.5766 -19.5765
   -19.5594 -19.5593 -19.5531 -19.5530 -19.5496 -19.5495 -19.5371 -19.5370
   -19.5240 -19.5238 -19.5093 -19.5092 -19.5078 -19.5076 -19.5072 -19.5071
   -19.4968 -19.4967 -19.4854 -19.4853 -19.4718 -19.4716 -19.4524 -19.4523
   -19.4481 -19.4479 -19.4004 -19.4002 -19.3884 -19.3883 -19.3602 -19.3601
    16.3653  16.3654  17.4933  17.4934  17.5411  17.5412  17.5481  17.5482
    17.6115  17.6115  17.6353  17.6354  17.7232  17.7232  17.8971  17.8972
    17.9150  17.9150  18.0077  18.0077  18.0272  18.0272  18.0632  18.0632
    18.0634  18.0635  18.1838  18.1838  18.2012  18.2012  18.3129  18.3129
    18.5046  18.5047  18.6095  18.6096  18.7191  18.7191  18.8445  18.8446
    18.8470  18.8470  18.9915  18.9916  19.0949  19.0950  19.1234  19.1234
    19.4904  19.4904  19.5679  19.5679  19.6593  19.6593  19.6685  19.6686
    19.7023  19.7024  19.9729  19.9730  20.2207  20.2208  20.3254  20.3254
    20.3493  20.3493  20.4401  20.4402  20.4540  20.4540  20.4934  20.4934
    20.5796  20.5797  20.7277  20.7277  20.8404  20.8405  20.9316  20.9316
    20.9384  20.9384  21.0106  21.0107  21.0529  21.0530  21.0651  21.0652
    21.2393  21.2393  21.2677  21.2677  21.2870  21.2870  21.2939  21.2939
    21.4712  21.4712  21.4772  21.4772  21.5778  21.5779  21.5859  21.5860
    21.7970  21.7971  22.0184  22.0185  22.1690  22.1692  22.1950  22.1950
    22.2316  22.2317  22.2728  22.2728  22.3820  22.3822  22.5701  22.5702
    22.7640  22.7641  23.0799  23.0800  23.1188  23.1189  23.1815  23.1816
    23.3250  23.3251  23.5777  23.5778  23.6178  23.6180  23.7334  23.7336
    23.8279  23.8280  23.9020  23.9021  23.9844  23.9844  23.9849  23.9850
    24.2386  24.2387  24.2392  24.2393  24.3439  24.3439  24.4098  24.4098
    24.4100  24.4101  24.4320  24.4320  24.4508  24.4509  24.4522  24.4522
    24.5558  24.5558  24.9146  24.9148  24.9347  24.9348  24.9842  24.9842
    25.1334  25.1335  25.6752  25.6753  26.0754  26.0754  26.1529  26.1529
    27.8755  27.8756  28.2041

          k = 0.0556 0.3886 0.0556 ( 30180 PWs)   bands (ev):

   -49.9055 -49.8787 -49.8144 -49.8144 -49.7996 -49.7996 -49.7969 -49.7969
   -49.7843 -49.7843 -49.7683 -49.7657 -49.7595 -49.7595 -49.7592 -49.7592
   -49.7546 -49.7525 -49.7524 -49.7304 -49.7304 -49.7263 -49.7263 -49.7254
   -49.7157 -49.7157 -49.7139 -49.7139 -49.7053 -49.7053 -49.7050 -49.7050
   -20.2738 -20.2632 -20.2632 -20.2479 -20.2172 -20.2172 -20.1911 -20.1894
   -20.1767 -20.1767 -20.1566 -20.1489 -20.1489 -20.0815 -20.0724 -20.0724
   -20.0588 -20.0588 -20.0525 -20.0525 -20.0268 -20.0268 -19.9860 -19.9860
   -19.9578 -19.9578 -19.9392 -19.9392 -19.9253 -19.9253 -19.9155 -19.9155
   -19.9032 -19.9032 -19.8620 -19.8620 -19.8589 -19.8589 -19.8220 -19.8220
   -19.7502 -19.7502 -19.6963 -19.6963 -19.6921 -19.6921 -19.6620 -19.6583
   -19.6523 -19.6311 -19.6311 -19.6275 -19.6275 -19.6241 -19.6241 -19.6240
   -19.6240 -19.6171 -19.6145 -19.5951 -19.5951 -19.5939 -19.5715 -19.5715
   -19.5561 -19.5561 -19.5559 -19.5559 -19.5535 -19.5493 -19.5378 -19.5378
   -19.5354 -19.5354 -19.5142 -19.4908 -19.4908 -19.4773 -19.4731 -19.4669
   -19.4669 -19.4665 -19.4665 -19.4662 -19.4662 -19.4560 -19.4560 -19.4549
   -19.4513 -19.4349 -19.4349 -19.4284 -19.4070 -19.4050 -19.3621 -19.3593
    15.8328  16.5134  17.1770  17.2543  17.2543  17.4575  17.5231  17.5245
    17.5245  17.5731  17.5825  17.7221  17.7221  17.7257  17.7257  17.9090
    17.9235  17.9352  17.9352  18.0150  18.0150  18.0827  18.1273  18.1273
    18.2667  18.2667  18.3578  18.3578  18.5619  18.5619  18.5750  18.5750
    18.6330  18.6330  18.8162  18.8162  18.8433  18.8433  19.0617  19.0617
    19.0742  19.0742  19.1665  19.1665  19.3136  19.3136  19.3549  19.3549
    19.3962  19.3962  19.4622  19.4622  19.4714  19.4714  19.7192  19.7212
    19.7212  19.7732  19.7732  19.8871  20.0037  20.0037  20.0097  20.0097
    20.0139  20.0139  20.1337  20.1868  20.1947  20.2245  20.2245  20.2410
    20.2410  20.3608  20.4368  20.4368  20.7184  20.7823  20.7823  20.7920
    20.7920  20.8093  20.8093  20.8180  20.8763  20.8789  21.0996  21.1101
    21.1101  21.1746  21.2390  21.2666  21.2753  21.2753  21.2791  21.2898
    21.7564  21.7564  22.0773  22.0773  22.0831  22.1486  22.1486  22.2825
    22.2825  22.2873  22.3380  22.3494  22.3494  22.3942  22.3942  22.4296
    22.4297  22.4797  22.4797  22.4906  22.4906  22.5479  22.6062  22.6062
    22.6441  22.6441  22.6675  22.6675  22.7558  22.7558  22.9756  22.9756
    23.1024  23.1161  23.1161  23.2289  23.3068  23.4322  23.4322  23.5649
    23.7577  23.7577  23.7586  23.8634  23.8694  23.8694  23.9084  23.9085
    24.1316  24.1316  24.1322  24.1904  24.2879  24.2879  24.2899  24.3506
    24.3506  24.3727  24.4085  24.4117  24.5854  24.5854  24.5889  24.5889
    24.6428  24.6428  24.7227  25.1771  25.1772  25.2551  25.2551  25.2561
    25.2561  25.3874  25.6495  25.6495  25.7721  26.2771  26.2771  26.3410
    26.7115  26.8795  26.8795

          k = 0.0556 0.3886 0.1667 ( 30163 PWs)   bands (ev):

   -49.9025 -49.8760 -49.8317 -49.8145 -49.8129 -49.7984 -49.7957 -49.7835
   -49.7796 -49.7769 -49.7720 -49.7694 -49.7665 -49.7639 -49.7530 -49.7518
   -49.7508 -49.7499 -49.7454 -49.7345 -49.7312 -49.7274 -49.7251 -49.7222
   -49.7175 -49.7169 -49.7155 -49.7122 -49.7083 -49.7077 -49.7058 -49.7054
   -20.2742 -20.2678 -20.2427 -20.2228 -20.2091 -20.2083 -20.1971 -20.1876
   -20.1852 -20.1542 -20.1460 -20.1413 -20.1283 -20.1007 -20.0955 -20.0830
   -20.0822 -20.0800 -20.0762 -20.0662 -20.0430 -20.0290 -20.0273 -20.0082
   -19.9850 -19.9692 -19.9633 -19.9442 -19.9429 -19.9134 -19.8899 -19.8878
   -19.8825 -19.8695 -19.8608 -19.8435 -19.8269 -19.8153 -19.8141 -19.7965
   -19.7730 -19.7440 -19.6867 -19.6851 -19.6821 -19.6776 -19.6761 -19.6713
   -19.6665 -19.6567 -19.6565 -19.6322 -19.6252 -19.6223 -19.6205 -19.6178
   -19.6129 -19.6110 -19.6048 -19.5976 -19.5769 -19.5759 -19.5748 -19.5659
   -19.5621 -19.5608 -19.5596 -19.5595 -19.5594 -19.5534 -19.5532 -19.5268
   -19.5246 -19.5203 -19.5046 -19.5011 -19.4966 -19.4949 -19.4939 -19.4881
   -19.4854 -19.4827 -19.4681 -19.4674 -19.4633 -19.4603 -19.4554 -19.4504
   -19.4426 -19.4372 -19.4237 -19.4128 -19.4086 -19.3944 -19.3674 -19.3510
    15.9110  16.5814  17.2423  17.2874  17.3068  17.4351  17.5191  17.5904
    17.6291  17.6345  17.6410  17.6645  17.7367  17.7600  17.7779  17.8048
    17.8563  17.9027  17.9621  17.9667  18.0664  18.0750  18.1310  18.1661
    18.1720  18.1892  18.2948  18.3430  18.3487  18.3566  18.5261  18.5462
    18.6111  18.6222  18.6521  18.6788  18.7819  18.9810  18.9872  19.0053
    19.0171  19.1150  19.1307  19.1803  19.1925  19.2283  19.2492  19.2587
    19.2977  19.3090  19.4523  19.4523  19.4556  19.5670  19.7218  19.7277
    19.7300  19.8003  19.9974  20.0084  20.0493  20.0777  20.1053  20.1113
    20.1394  20.1771  20.1889  20.2629  20.2651  20.2663  20.3116  20.3372
    20.4366  20.4449  20.4719  20.6682  20.7294  20.7596  20.7815  20.8159
    20.8765  20.8993  20.9039  20.9115  20.9211  20.9239  20.9287  20.9627
    21.0549  21.1450  21.1966  21.2253  21.2849  21.2957  21.3838  21.4126
    21.6252  21.7112  21.7622  21.8333  21.8451  21.8976  22.0048  22.0707
    22.0890  22.1193  22.1560  22.1752  22.1769  22.1797  22.2515  22.3186
    22.3846  22.4414  22.5381  22.5607  22.5850  22.6470  22.6749  22.6955
    22.7080  22.8098  22.8525  22.8647  22.9538  22.9869  22.9972  23.0774
    23.1202  23.1606  23.3070  23.3390  23.3887  23.3893  23.4637  23.4808
    23.6628  23.6942  23.7599  23.8535  23.9756  23.9772  23.9993  24.0068
    24.0295  24.0416  24.0535  24.1461  24.1585  24.2406  24.2429  24.3406
    24.4160  24.5209  24.5264  24.5866  24.5875  24.5875  24.5926  24.6005
    24.7400  24.7439  24.8139  25.0555  25.1231  25.1287  25.1352  25.1393
    25.1403  25.3231  25.5984  25.8343  25.8693  26.0128  26.1706  26.3735
    26.8620  27.1857  27.4712

          k = 0.0556 0.3886 0.2778 ( 30201 PWs)   bands (ev):

   -49.8965 -49.8709 -49.8481 -49.8288 -49.8098 -49.7962 -49.7932 -49.7852
   -49.7818 -49.7781 -49.7732 -49.7684 -49.7631 -49.7551 -49.7503 -49.7470
   -49.7456 -49.7426 -49.7388 -49.7385 -49.7328 -49.7295 -49.7244 -49.7193
   -49.7192 -49.7184 -49.7184 -49.7143 -49.7129 -49.7106 -49.7071 -49.7060
   -20.2645 -20.2617 -20.2135 -20.1943 -20.1933 -20.1908 -20.1891 -20.1887
   -20.1768 -20.1406 -20.1405 -20.1397 -20.1265 -20.1247 -20.1076 -20.1057
   -20.1050 -20.0928 -20.0882 -20.0855 -20.0658 -20.0624 -20.0454 -20.0398
   -20.0334 -20.0035 -19.9733 -19.9721 -19.9421 -19.9177 -19.8747 -19.8646
   -19.8542 -19.8331 -19.8244 -19.8044 -19.8036 -19.8023 -19.7801 -19.7710
   -19.7320 -19.7306 -19.7133 -19.7003 -19.6919 -19.6884 -19.6713 -19.6684
   -19.6589 -19.6542 -19.6521 -19.6414 -19.6372 -19.6366 -19.6230 -19.6160
   -19.6068 -19.6056 -19.6044 -19.6040 -19.5964 -19.5838 -19.5732 -19.5702
   -19.5663 -19.5622 -19.5483 -19.5481 -19.5479 -19.5403 -19.5395 -19.5381
   -19.5257 -19.5153 -19.5131 -19.5077 -19.5037 -19.5027 -19.5005 -19.5001
   -19.4967 -19.4816 -19.4762 -19.4729 -19.4720 -19.4687 -19.4668 -19.4546
   -19.4417 -19.4415 -19.4253 -19.3954 -19.3885 -19.3813 -19.3790 -19.3453
    16.0647  16.7147  17.2708  17.3594  17.3700  17.4088  17.4579  17.5570
    17.7223  17.7502  17.7572  17.7752  17.7847  17.7977  17.8129  17.8283
    17.8574  17.8866  17.9364  17.9535  17.9820  18.0113  18.0680  18.0749
    18.0914  18.1260  18.2705  18.2849  18.3057  18.3085  18.3505  18.4147
    18.4835  18.5814  18.6435  18.6983  18.7098  18.7136  18.7556  18.7557
    18.8513  18.9388  18.9647  19.0435  19.0825  19.2064  19.2111  19.2455
    19.3211  19.4059  19.5283  19.5390  19.5653  19.5802  19.7448  19.8009
    19.8324  19.8544  19.9409  20.0804  20.1577  20.1611  20.2521  20.2702
    20.2920  20.3114  20.3189  20.3996  20.4455  20.4596  20.4612  20.5804
    20.5826  20.6524  20.6740  20.6952  20.6991  20.7271  20.8062  20.8585
    20.8979  20.9039  20.9404  20.9485  20.9652  21.0425  21.0715  21.0737
    21.0800  21.1517  21.1860  21.2044  21.2862  21.3498  21.3987  21.4876
    21.5499  21.5603  21.5936  21.6166  21.6471  21.6713  21.6952  21.7085
    21.8158  21.8296  21.8515  21.9063  22.0259  22.0582  22.0725  22.1262
    22.2338  22.2417  22.4085  22.4324  22.5534  22.5929  22.6773  22.7543
    22.9023  22.9293  22.9402  22.9875  23.0647  23.1495  23.2123  23.2205
    23.3019  23.3409  23.3856  23.4900  23.5000  23.5155  23.5868  23.6499
    23.6984  23.6990  23.8555  23.8570  23.8584  23.9048  24.0840  24.1300
    24.1489  24.1644  24.2033  24.2098  24.2245  24.2313  24.2330  24.2735
    24.3461  24.4953  24.5634  24.5807  24.5817  24.5940  24.6122  24.6174
    24.6242  24.6929  24.8986  24.9099  24.9147  24.9287  24.9795  25.0173
    25.3442  25.4609  25.4842  25.4992  25.5452  25.8697  26.7354  26.7524
    27.5165  27.6927  27.9963

          k = 0.0556 0.3886 0.3889 ( 30198 PWs)   bands (ev):

   -49.8878 -49.8633 -49.8632 -49.8419 -49.8054 -49.7929 -49.7929 -49.7896
   -49.7837 -49.7794 -49.7794 -49.7726 -49.7482 -49.7479 -49.7422 -49.7420
   -49.7415 -49.7415 -49.7351 -49.7350 -49.7327 -49.7326 -49.7235 -49.7231
   -49.7228 -49.7227 -49.7208 -49.7205 -49.7148 -49.7092 -49.7091 -49.7068
   -20.2450 -20.2449 -20.1830 -20.1829 -20.1811 -20.1809 -20.1768 -20.1701
   -20.1647 -20.1644 -20.1473 -20.1382 -20.1381 -20.1290 -20.1286 -20.1051
   -20.1049 -20.0909 -20.0906 -20.0897 -20.0895 -20.0886 -20.0884 -20.0515
   -20.0512 -20.0496 -20.0109 -19.9664 -19.9609 -19.9083 -19.9080 -19.8374
   -19.8168 -19.8168 -19.7835 -19.7824 -19.7766 -19.7460 -19.7457 -19.7318
   -19.7308 -19.7300 -19.7299 -19.7145 -19.7132 -19.6661 -19.6658 -19.6657
   -19.6649 -19.6514 -19.6511 -19.6445 -19.6425 -19.6424 -19.6393 -19.6392
   -19.6266 -19.6264 -19.5957 -19.5954 -19.5877 -19.5876 -19.5845 -19.5753
   -19.5753 -19.5514 -19.5513 -19.5470 -19.5400 -19.5399 -19.5396 -19.5395
   -19.5221 -19.5175 -19.5173 -19.5159 -19.5157 -19.5094 -19.5013 -19.4945
   -19.4891 -19.4834 -19.4792 -19.4776 -19.4773 -19.4708 -19.4656 -19.4485
   -19.4481 -19.4436 -19.4434 -19.3959 -19.3755 -19.3724 -19.3723 -19.3466
    16.2888  16.9080  16.9087  17.4391  17.4760  17.5262  17.5531  17.5538
    17.6377  17.7927  17.7927  17.8180  17.8471  17.8475  17.9123  17.9124
    17.9244  17.9245  17.9297  17.9301  17.9612  17.9713  17.9713  18.0413
    18.0429  18.1120  18.1585  18.2257  18.2260  18.4219  18.4219  18.4227
    18.4235  18.4305  18.4310  18.4334  18.4340  18.6720  18.6723  18.6843
    18.6844  18.7386  18.7394  18.9895  18.9901  19.1185  19.3252  19.3257
    19.3304  19.3309  19.4981  19.6561  19.6568  19.6746  19.6879  19.7504
    19.7530  20.0761  20.0889  20.0890  20.2527  20.3533  20.3536  20.4670
    20.4800  20.4827  20.4875  20.4877  20.4937  20.4974  20.5271  20.5288
    20.6059  20.6519  20.8118  20.8135  20.9060  20.9072  20.9185  20.9709
    20.9721  20.9870  20.9976  21.0332  21.0864  21.0880  21.1170  21.1185
    21.2574  21.2614  21.2768  21.2788  21.2794  21.3051  21.3084  21.3587
    21.4298  21.4331  21.4661  21.4672  21.4840  21.4952  21.5381  21.5391
    21.5597  21.5622  21.6984  21.7702  21.7722  21.8013  21.8031  22.0786
    22.2304  22.2305  22.2435  22.2439  22.3300  22.3319  22.3965  22.4795
    22.7931  23.1220  23.1689  23.1696  23.1920  23.1926  23.4584  23.4602
    23.4685  23.4691  23.5684  23.5690  23.6288  23.6288  23.6980  23.7367
    23.8815  23.8820  23.9879  24.0147  24.0154  24.0320  24.0325  24.0410
    24.0415  24.1274  24.2355  24.3350  24.3702  24.3917  24.3919  24.3944
    24.3949  24.4400  24.5030  24.5579  24.5580  24.6051  24.6073  24.6191
    24.6195  24.6463  24.6502  24.6520  24.6660  24.6683  24.8376  24.8649
    24.8664  25.1968  25.3603  25.3627  26.1214  26.1227  27.4015  27.4028
    27.4673  27.4713  28.1889

          k = 0.0556 0.3886-0.5000 ( 30190 PWs)   bands (ev):

   -49.8767 -49.8765 -49.8536 -49.8534 -49.7998 -49.7996 -49.7888 -49.7886
   -49.7850 -49.7848 -49.7764 -49.7762 -49.7455 -49.7453 -49.7381 -49.7379
   -49.7368 -49.7366 -49.7345 -49.7343 -49.7304 -49.7302 -49.7285 -49.7283
   -49.7274 -49.7272 -49.7223 -49.7221 -49.7118 -49.7116 -49.7080 -49.7078
   -20.2184 -20.2183 -20.2166 -20.2165 -20.1639 -20.1639 -20.1639 -20.1639
   -20.1484 -20.1482 -20.1403 -20.1402 -20.1346 -20.1345 -20.1306 -20.1304
   -20.1131 -20.1129 -20.1006 -20.1005 -20.0904 -20.0903 -20.0784 -20.0782
   -20.0509 -20.0508 -20.0067 -20.0066 -19.9403 -19.9403 -19.8726 -19.8726
   -19.7806 -19.7805 -19.7717 -19.7717 -19.7598 -19.7597 -19.7450 -19.7448
   -19.7202 -19.7202 -19.6951 -19.6949 -19.6924 -19.6922 -19.6897 -19.6897
   -19.6819 -19.6819 -19.6472 -19.6470 -19.6337 -19.6336 -19.6259 -19.6257
   -19.6108 -19.6107 -19.6040 -19.6040 -19.6034 -19.6034 -19.5854 -19.5853
   -19.5652 -19.5651 -19.5645 -19.5644 -19.5329 -19.5327 -19.5294 -19.5293
   -19.5292 -19.5291 -19.5213 -19.5213 -19.4979 -19.4977 -19.4935 -19.4934
   -19.4896 -19.4895 -19.4848 -19.4846 -19.4668 -19.4666 -19.4618 -19.4617
   -19.4574 -19.4572 -19.4178 -19.4176 -19.3701 -19.3701 -19.3558 -19.3558
    16.5746  16.5746  17.1533  17.1534  17.6386  17.6386  17.6395  17.6395
    17.7277  17.7278  17.7607  17.7607  17.7834  17.7835  17.7950  17.7950
    17.9321  17.9321  17.9584  17.9584  18.0629  18.0630  18.1505  18.1506
    18.1570  18.1571  18.1834  18.1834  18.1877  18.1877  18.2286  18.2287
    18.4043  18.4044  18.4330  18.4331  18.5439  18.5440  18.5805  18.5805
    18.6023  18.6023  18.8912  18.8912  19.1205  19.1206  19.1338  19.1339
    19.4739  19.4740  19.4841  19.4842  19.7309  19.7309  19.8130  19.8130
    19.9373  19.9374  20.0146  20.0146  20.2085  20.2086  20.4619  20.4619
    20.5133  20.5133  20.5681  20.5681  20.6563  20.6563  20.7076  20.7076
    20.8182  20.8183  20.8391  20.8391  20.8658  20.8658  21.0238  21.0239
    21.0335  21.0335  21.0576  21.0577  21.0760  21.0760  21.1085  21.1085
    21.1714  21.1714  21.2117  21.2117  21.2267  21.2267  21.2552  21.2553
    21.3626  21.3627  21.3701  21.3702  21.5160  21.5160  21.5397  21.5397
    21.5457  21.5457  21.7035  21.7036  21.9503  21.9504  21.9547  21.9547
    22.0026  22.0026  22.0220  22.0220  22.1717  22.1718  22.3521  22.3523
    22.9946  22.9948  23.2607  23.2608  23.3730  23.3731  23.4171  23.4172
    23.4463  23.4465  23.6838  23.6838  23.7581  23.7582  23.7775  23.7777
    23.8543  23.8543  23.9362  23.9364  24.0512  24.0512  24.1901  24.1902
    24.2564  24.2565  24.3467  24.3468  24.4143  24.4143  24.4158  24.4158
    24.4334  24.4335  24.4992  24.4993  24.5023  24.5024  24.5373  24.5374
    24.5415  24.5415  24.6223  24.6225  24.6762  24.6764  24.7341  24.7342
    24.8538  24.8538  25.2117  25.2119  26.7728  26.7729  26.7769  26.7770
    28.1176  28.1177  28.1846

          k = 0.0556-0.4997 0.0556 ( 30188 PWs)   bands (ev):

   -49.8934 -49.8932 -49.8078 -49.8077 -49.8076 -49.8075 -49.7913 -49.7913
   -49.7911 -49.7911 -49.7672 -49.7670 -49.7595 -49.7595 -49.7593 -49.7592
   -49.7534 -49.7533 -49.7379 -49.7377 -49.7225 -49.7225 -49.7223 -49.7223
   -49.7197 -49.7197 -49.7195 -49.7195 -49.7053 -49.7052 -49.7050 -49.7050
   -20.2359 -20.2359 -20.2230 -20.2229 -20.2228 -20.2228 -20.2049 -20.2048
   -20.1862 -20.1862 -20.1860 -20.1860 -20.1404 -20.1403 -20.0650 -20.0650
   -20.0649 -20.0649 -20.0445 -20.0445 -20.0444 -20.0444 -19.9559 -19.9559
   -19.9558 -19.9558 -19.9337 -19.9337 -19.9336 -19.9336 -19.9007 -19.9007
   -19.9006 -19.9006 -19.8896 -19.8896 -19.8894 -19.8894 -19.7832 -19.7832
   -19.7830 -19.7830 -19.6943 -19.6943 -19.6940 -19.6940 -19.6416 -19.6415
   -19.6384 -19.6382 -19.6001 -19.6001 -19.5988 -19.5988 -19.5986 -19.5986
   -19.5918 -19.5918 -19.5917 -19.5917 -19.5894 -19.5894 -19.5894 -19.5894
   -19.5769 -19.5769 -19.5767 -19.5767 -19.5641 -19.5641 -19.5639 -19.5639
   -19.5508 -19.5508 -19.4840 -19.4839 -19.4768 -19.4768 -19.4768 -19.4767
   -19.4755 -19.4753 -19.4669 -19.4668 -19.4666 -19.4666 -19.4530 -19.4528
   -19.4431 -19.4431 -19.4430 -19.4430 -19.3828 -19.3826 -19.3802 -19.3801
    16.1474  16.1477  17.3449  17.3451  17.4752  17.4753  17.4755  17.4755
    17.6649  17.6650  17.7293  17.7295  17.7453  17.7453  17.7455  17.7455
    17.8058  17.8058  17.9680  17.9680  17.9682  17.9682  18.1393  18.1393
    18.1395  18.1395  18.3447  18.3447  18.3448  18.3449  18.6981  18.6981
    18.6982  18.6982  18.8391  18.8391  18.8393  18.8393  18.9906  18.9906
    18.9907  18.9907  19.1873  19.1874  19.1875  19.1875  19.4012  19.4012
    19.4012  19.4012  19.4222  19.4222  19.4222  19.4222  19.7268  19.7268
    19.7268  19.7268  19.9724  19.9725  20.0063  20.0064  20.0119  20.0119
    20.0120  20.0120  20.1188  20.1189  20.1189  20.1190  20.2777  20.2778
    20.4901  20.4902  20.4902  20.4902  20.5960  20.5960  20.5960  20.5961
    20.8896  20.8897  20.9636  20.9637  20.9638  20.9638  21.0119  21.0120
    21.0597  21.0598  21.0627  21.0629  21.7355  21.7355  21.7356  21.7357
    21.7415  21.7416  21.7721  21.7721  22.1300  22.1300  22.1301  22.1301
    22.3186  22.3187  22.4226  22.4226  22.4226  22.4226  22.4471  22.4472
    22.4473  22.4473  22.5266  22.5267  22.5268  22.5268  22.5391  22.5391
    22.5392  22.5392  22.6055  22.6055  22.6057  22.6057  22.8579  22.8579
    22.8580  22.8580  23.1948  23.1950  23.7945  23.7946  23.7947  23.7947
    23.8038  23.8039  23.8926  23.8926  24.0716  24.0717  24.0717  24.0718
    24.1253  24.1253  24.1549  24.1550  24.2346  24.2346  24.2347  24.2347
    24.2509  24.2509  24.2510  24.2510  24.5336  24.5336  24.7066  24.7066
    24.7066  24.7066  24.7301  24.7302  25.1300  25.1300  25.1300  25.1300
    25.2554  25.2555  25.2556  25.2557  26.0892  26.0893  26.6170  26.6171
    26.6172  26.6173  27.1083

          k = 0.0556-0.4997 0.1667 ( 30184 PWs)   bands (ev):

   -49.8905 -49.8903 -49.8239 -49.8237 -49.8064 -49.8062 -49.7902 -49.7900
   -49.7750 -49.7748 -49.7748 -49.7746 -49.7654 -49.7652 -49.7519 -49.7517
   -49.7475 -49.7474 -49.7374 -49.7372 -49.7254 -49.7252 -49.7235 -49.7233
   -49.7210 -49.7208 -49.7169 -49.7167 -49.7081 -49.7079 -49.7057 -49.7055
   -20.2396 -20.2395 -20.2311 -20.2310 -20.2010 -20.2009 -20.1800 -20.1799
   -20.1784 -20.1782 -20.1777 -20.1776 -20.1389 -20.1387 -20.0916 -20.0916
   -20.0838 -20.0837 -20.0828 -20.0828 -20.0291 -20.0291 -20.0066 -20.0065
   -19.9758 -19.9757 -19.9683 -19.9682 -19.9230 -19.9229 -19.8894 -19.8893
   -19.8596 -19.8595 -19.8441 -19.8439 -19.8420 -19.8419 -19.8061 -19.8060
   -19.7768 -19.7766 -19.6861 -19.6859 -19.6763 -19.6762 -19.6503 -19.6502
   -19.6359 -19.6357 -19.6331 -19.6329 -19.6263 -19.6262 -19.6066 -19.6065
   -19.5966 -19.5965 -19.5902 -19.5902 -19.5873 -19.5872 -19.5853 -19.5852
   -19.5839 -19.5837 -19.5559 -19.5559 -19.5485 -19.5484 -19.5298 -19.5296
[...]
   -19.5490 -19.5490 -19.5488 -19.5488 -19.5488 -19.5488 -19.5487 -19.5487
   -19.5135 -19.5134 -19.5134 -19.5133 -19.4988 -19.4988 -19.4988 -19.4988
   -19.4763 -19.4763 -19.4763 -19.4763 -19.4724 -19.4723 -19.4723 -19.4722
   -19.4402 -19.4400 -19.4400 -19.4398 -19.3588 -19.3588 -19.3588 -19.3588
    16.8417  16.8418  16.8420  16.8421  17.7004  17.7004  17.7005  17.7005
    17.7764  17.7765  17.7766  17.7766  17.8303  17.8303  17.8303  17.8303
    17.9626  17.9627  17.9627  17.9627  17.9629  17.9629  17.9630  17.9630
    18.2794  18.2794  18.2795  18.2795  18.2797  18.2797  18.2798  18.2798
    18.3801  18.3801  18.3801  18.3801  18.3801  18.3801  18.3801  18.3802
    18.6439  18.6440  18.6440  18.6441  19.2862  19.2863  19.2863  19.2864
    19.2865  19.2865  19.2866  19.2866  19.8578  19.8578  19.8578  19.8578
    20.0861  20.0862  20.0863  20.0864  20.3651  20.3652  20.3653  20.3653
    20.5867  20.5867  20.5867  20.5867  20.5983  20.5983  20.5983  20.5983
    20.9513  20.9513  20.9513  20.9513  20.9514  20.9514  20.9514  20.9514
    21.0548  21.0549  21.0549  21.0550  21.1986  21.1987  21.1987  21.1988
    21.2122  21.2122  21.2122  21.2122  21.3542  21.3543  21.3543  21.3543
    21.3646  21.3646  21.3646  21.3647  21.3647  21.3647  21.3647  21.3648
    21.6298  21.6298  21.6300  21.6300  21.7600  21.7600  21.7601  21.7601
    21.7601  21.7601  21.7602  21.7602  22.2654  22.2656  22.2656  22.2657
    23.2332  23.2334  23.2334  23.2335  23.4318  23.4319  23.4319  23.4320
    23.6434  23.6434  23.6435  23.6435  23.6435  23.6435  23.6436  23.6436
    24.1613  24.1614  24.1615  24.1615  24.2864  24.2864  24.2865  24.2865
    24.2865  24.2866  24.2866  24.2867  24.2885  24.2885  24.2885  24.2886
    24.5225  24.5226  24.5226  24.5227  24.5534  24.5534  24.5534  24.5535
    24.5535  24.5535  24.5535  24.5535  24.5636  24.5636  24.5636  24.5637
    24.8188  24.8188  24.8189  24.8189  27.4669  27.4669  27.4670  27.4670
    27.4671  27.4671  27.4671

          k =-0.5000 0.1666-0.5000 ( 30192 PWs)   bands (ev):

   -49.8638 -49.8636 -49.8636 -49.8634 -49.8084 -49.8082 -49.8082 -49.8080
   -49.7678 -49.7677 -49.7676 -49.7675 -49.7328 -49.7328 -49.7326 -49.7326
   -49.7326 -49.7325 -49.7324 -49.7324 -49.7323 -49.7323 -49.7321 -49.7321
   -49.7321 -49.7320 -49.7319 -49.7319 -49.7124 -49.7123 -49.7122 -49.7121
   -20.1909 -20.1909 -20.1909 -20.1908 -20.1908 -20.1908 -20.1908 -20.1908
   -20.1280 -20.1280 -20.1279 -20.1279 -20.1278 -20.1278 -20.1277 -20.1277
   -20.1241 -20.1240 -20.1240 -20.1240 -20.1239 -20.1239 -20.1238 -20.1237
   -20.0076 -20.0075 -20.0075 -20.0075 -19.8813 -19.8813 -19.8813 -19.8812
   -19.7289 -19.7289 -19.7289 -19.7289 -19.7289 -19.7289 -19.7289 -19.7289
   -19.7239 -19.7239 -19.7238 -19.7238 -19.7237 -19.7237 -19.7236 -19.7236
   -19.6870 -19.6870 -19.6870 -19.6870 -19.6136 -19.6136 -19.6135 -19.6135
   -19.6135 -19.6135 -19.6133 -19.6133 -19.6116 -19.6116 -19.6116 -19.6116
   -19.5614 -19.5613 -19.5613 -19.5612 -19.5524 -19.5523 -19.5522 -19.5522
   -19.5522 -19.5522 -19.5521 -19.5521 -19.5209 -19.5209 -19.5209 -19.5209
   -19.4542 -19.4542 -19.4542 -19.4542 -19.4395 -19.4394 -19.4394 -19.4393
   -19.4285 -19.4283 -19.4283 -19.4282 -19.3627 -19.3627 -19.3627 -19.3627
    16.8719  16.8720  16.8722  16.8723  17.5539  17.5540  17.5541  17.5541
    17.8086  17.8086  17.8087  17.8087  17.9287  17.9287  17.9287  17.9288
    17.9289  17.9290  17.9290  17.9290  17.9309  17.9309  17.9309  17.9309
    18.3000  18.3001  18.3001  18.3001  18.3001  18.3002  18.3002  18.3002
    18.3984  18.3984  18.3984  18.3985  18.3985  18.3986  18.3986  18.3987
    18.6756  18.6757  18.6757  18.6757  19.3193  19.3194  19.3194  19.3195
    19.3196  19.3196  19.3196  19.3197  19.7822  19.7823  19.7824  19.7825
    19.9180  19.9180  19.9180  19.9181  20.5077  20.5077  20.5077  20.5077
    20.6568  20.6568  20.6568  20.6569  20.6843  20.6844  20.6844  20.6845
    20.8982  20.8982  20.8983  20.8983  20.8983  20.8983  20.8983  20.8983
    21.0447  21.0448  21.0449  21.0449  21.0827  21.0828  21.0828  21.0829
    21.1579  21.1580  21.1580  21.1580  21.3439  21.3440  21.3440  21.3440
    21.3441  21.3441  21.3441  21.3441  21.5469  21.5470  21.5470  21.5471
    21.5599  21.5599  21.5600  21.5601  21.8393  21.8393  21.8393  21.8393
    21.8394  21.8394  21.8394  21.8395  22.3852  22.3853  22.3853  22.3855
    23.0883  23.0884  23.0884  23.0886  23.2882  23.2882  23.2883  23.2883
    23.2884  23.2884  23.2885  23.2885  23.3866  23.3867  23.3867  23.3868
    23.6402  23.6403  23.6403  23.6403  24.0203  24.0204  24.0204  24.0205
    24.5654  24.5654  24.5655  24.5655  24.5655  24.5656  24.5656  24.5656
    24.6216  24.6216  24.6216  24.6216  24.6216  24.6217  24.6217  24.6217
    24.6512  24.6512  24.6513  24.6513  24.7113  24.7113  24.7113  24.7114
    25.5823  25.5824  25.5825  25.5825  27.5510  27.5511  27.5511  27.5511
    27.5512  27.5512  27.5512

          k =-0.5000 0.2776-0.5000 ( 30172 PWs)   bands (ev):

   -49.8592 -49.8590 -49.8590 -49.8588 -49.8213 -49.8211 -49.8211 -49.8209
   -49.7550 -49.7548 -49.7548 -49.7546 -49.7327 -49.7327 -49.7326 -49.7325
   -49.7325 -49.7325 -49.7323 -49.7323 -49.7323 -49.7323 -49.7321 -49.7321
   -49.7321 -49.7320 -49.7320 -49.7319 -49.7171 -49.7169 -49.7169 -49.7167
   -20.1832 -20.1832 -20.1832 -20.1832 -20.1831 -20.1831 -20.1831 -20.1831
   -20.1456 -20.1455 -20.1455 -20.1454 -20.1405 -20.1404 -20.1404 -20.1402
   -20.1366 -20.1366 -20.1365 -20.1365 -20.1364 -20.1364 -20.1363 -20.1363
   -19.9554 -19.9553 -19.9553 -19.9552 -19.8382 -19.8381 -19.8381 -19.8381
   -19.7305 -19.7305 -19.7305 -19.7305 -19.7291 -19.7291 -19.7291 -19.7291
   -19.7291 -19.7291 -19.7291 -19.7291 -19.7259 -19.7259 -19.7258 -19.7258
   -19.7258 -19.7258 -19.7257 -19.7257 -19.6145 -19.6144 -19.6144 -19.6143
   -19.6040 -19.6040 -19.6040 -19.6040 -19.6037 -19.6037 -19.6037 -19.6036
   -19.6036 -19.6036 -19.6035 -19.6035 -19.5588 -19.5588 -19.5588 -19.5588
   -19.5587 -19.5587 -19.5586 -19.5586 -19.5418 -19.5418 -19.5418 -19.5418
   -19.4331 -19.4331 -19.4331 -19.4331 -19.4157 -19.4156 -19.4156 -19.4155
   -19.4133 -19.4132 -19.4132 -19.4130 -19.3705 -19.3705 -19.3705 -19.3705
    16.9313  16.9313  16.9316  16.9316  17.4034  17.4034  17.4036  17.4036
    17.8650  17.8650  17.8651  17.8651  17.9113  17.9114  17.9114  17.9115
    17.9115  17.9116  17.9116  17.9116  17.9919  17.9919  17.9919  17.9919
    18.1849  18.1850  18.1850  18.1850  18.1850  18.1851  18.1851  18.1851
    18.5801  18.5802  18.5802  18.5802  18.5803  18.5803  18.5804  18.5804
    18.7429  18.7429  18.7429  18.7429  19.3085  19.3085  19.3085  19.3086
    19.3087  19.3087  19.3087  19.3088  19.4889  19.4889  19.4891  19.4891
    20.0313  20.0313  20.0313  20.0314  20.5088  20.5088  20.5088  20.5089
    20.7607  20.7608  20.7608  20.7608  20.8387  20.8387  20.8388  20.8388
    20.8814  20.8814  20.8814  20.8815  20.8815  20.8815  20.8815  20.8815
    21.0077  21.0078  21.0078  21.0078  21.0259  21.0259  21.0260  21.0260
    21.0830  21.0830  21.0830  21.0831  21.2958  21.2958  21.2958  21.2959
    21.2959  21.2959  21.2959  21.2960  21.4313  21.4313  21.4315  21.4315
    21.7729  21.7730  21.7730  21.7731  21.9576  21.9576  21.9576  21.9577
    21.9577  21.9577  21.9577  21.9578  22.5895  22.5896  22.5896  22.5897
    22.8546  22.8547  22.8547  22.8548  22.9032  22.9032  22.9032  22.9033
    22.9033  22.9033  22.9034  22.9034  23.2913  23.2914  23.2914  23.2915
    23.3046  23.3047  23.3047  23.3048  23.7299  23.7300  23.7300  23.7301
    24.7338  24.7338  24.7338  24.7338  24.7339  24.7339  24.7339  24.7339
    24.7700  24.7701  24.7701  24.7701  24.7965  24.7965  24.7965  24.7965
    24.7966  24.7966  24.7966  24.7967  24.8448  24.8449  24.8449  24.8450
    26.4295  26.4296  26.4297  26.4298  27.7249  27.7249  27.7250  27.7250
    27.7250  27.7251  27.7251

          k =-0.5000 0.3886-0.5000 ( 30196 PWs)   bands (ev):

   -49.8523 -49.8522 -49.8521 -49.8520 -49.8331 -49.8329 -49.8329 -49.8327
   -49.7432 -49.7430 -49.7430 -49.7428 -49.7327 -49.7327 -49.7325 -49.7325
   -49.7325 -49.7324 -49.7324 -49.7323 -49.7323 -49.7322 -49.7322 -49.7322
   -49.7321 -49.7321 -49.7320 -49.7320 -49.7239 -49.7238 -49.7237 -49.7236
   -20.1727 -20.1727 -20.1726 -20.1726 -20.1725 -20.1725 -20.1725 -20.1725
   -20.1576 -20.1575 -20.1575 -20.1574 -20.1537 -20.1536 -20.1536 -20.1535
   -20.1479 -20.1479 -20.1478 -20.1478 -20.1478 -20.1478 -20.1477 -20.1477
   -19.8990 -19.8990 -19.8990 -19.8989 -19.7857 -19.7857 -19.7857 -19.7856
   -19.7835 -19.7835 -19.7835 -19.7834 -19.7292 -19.7292 -19.7292 -19.7292
   -19.7292 -19.7292 -19.7291 -19.7291 -19.7277 -19.7277 -19.7276 -19.7276
   -19.7276 -19.7276 -19.7275 -19.7275 -19.6711 -19.6711 -19.6710 -19.6710
   -19.5928 -19.5928 -19.5928 -19.5928 -19.5918 -19.5918 -19.5917 -19.5917
   -19.5916 -19.5916 -19.5916 -19.5916 -19.5681 -19.5681 -19.5681 -19.5680
   -19.5679 -19.5679 -19.5679 -19.5679 -19.5614 -19.5613 -19.5613 -19.5613
   -19.4136 -19.4136 -19.4136 -19.4136 -19.4015 -19.4014 -19.4014 -19.4014
   -19.4013 -19.4013 -19.4013 -19.4012 -19.3818 -19.3818 -19.3818 -19.3818
    17.0178  17.0179  17.0181  17.0181  17.2589  17.2590  17.2591  17.2592
    17.9290  17.9290  17.9291  17.9291  17.9292  17.9292  17.9293  17.9293
    17.9303  17.9303  17.9303  17.9304  18.0087  18.0087  18.0087  18.0087
    18.0728  18.0728  18.0729  18.0729  18.0729  18.0730  18.0730  18.0730
    18.7936  18.7936  18.7936  18.7937  18.7937  18.7938  18.7938  18.7938
    18.8529  18.8529  18.8530  18.8530  19.1999  19.1999  19.1999  19.2000
    19.2000  19.2001  19.2001  19.2002  19.2278  19.2278  19.2279  19.2280
    20.1806  20.1806  20.1806  20.1807  20.4522  20.4522  20.4522  20.4523
    20.9063  20.9063  20.9064  20.9064  20.9276  20.9276  20.9276  20.9276
    20.9547  20.9547  20.9548  20.9548  20.9548  20.9548  20.9549  20.9549
    20.9734  20.9735  20.9735  20.9735  21.0007  21.0007  21.0008  21.0008
    21.0175  21.0175  21.0175  21.0175  21.2096  21.2096  21.2096  21.2097
    21.2097  21.2098  21.2098  21.2098  21.2637  21.2637  21.2638  21.2638
    22.0266  22.0267  22.0267  22.0268  22.1032  22.1032  22.1033  22.1033
    22.1033  22.1033  22.1034  22.1034  22.5626  22.5626  22.5627  22.5627
    22.5627  22.5628  22.5628  22.5628  22.5820  22.5821  22.5821  22.5822
    22.8450  22.8451  22.8451  22.8452  23.1322  23.1323  23.1323  23.1323
    23.2056  23.2057  23.2058  23.2058  23.4291  23.4292  23.4292  23.4293
    24.8500  24.8500  24.8501  24.8501  24.8501  24.8501  24.8501  24.8501
    24.8701  24.8701  24.8702  24.8702  24.9163  24.9164  24.9164  24.9165
    24.9165  24.9165  24.9166  24.9166  24.9166  24.9166  24.9166  24.9167
    27.3419  27.3419  27.3420  27.3421  27.9847  27.9847  27.9847  27.9848
    27.9848  27.9848  27.9849

          k =-0.5000-0.4997-0.5000 ( 30280 PWs)   bands (ev):

   -49.8437 -49.8435 -49.8435 -49.8434 -49.8433 -49.8433 -49.8432 -49.8431
   -49.7329 -49.7328 -49.7327 -49.7327 -49.7327 -49.7326 -49.7325 -49.7325
   -49.7325 -49.7325 -49.7324 -49.7324 -49.7324 -49.7323 -49.7323 -49.7323
   -49.7322 -49.7322 -49.7322 -49.7322 -49.7321 -49.7321 -49.7321 -49.7319
   -20.1605 -20.1605 -20.1605 -20.1605 -20.1604 -20.1604 -20.1604 -20.1604
   -20.1603 -20.1603 -20.1603 -20.1603 -20.1602 -20.1602 -20.1602 -20.1602
   -20.1600 -20.1599 -20.1599 -20.1599 -20.1598 -20.1598 -20.1598 -20.1597
   -19.8409 -19.8409 -19.8409 -19.8408 -19.8408 -19.8408 -19.8408 -19.8407
   -19.7291 -19.7290 -19.7290 -19.7290 -19.7290 -19.7290 -19.7289 -19.7289
   -19.7289 -19.7289 -19.7288 -19.7288 -19.7288 -19.7288 -19.7288 -19.7288
   -19.7288 -19.7288 -19.7287 -19.7287 -19.7287 -19.7287 -19.7287 -19.7287
   -19.5796 -19.5795 -19.5795 -19.5795 -19.5795 -19.5795 -19.5794 -19.5794
   -19.5793 -19.5793 -19.5793 -19.5793 -19.5793 -19.5793 -19.5792 -19.5792
   -19.5786 -19.5786 -19.5786 -19.5786 -19.5784 -19.5784 -19.5784 -19.5784
   -19.3970 -19.3969 -19.3969 -19.3969 -19.3968 -19.3968 -19.3967 -19.3967
   -19.3964 -19.3964 -19.3964 -19.3964 -19.3962 -19.3962 -19.3962 -19.3962
    17.1284  17.1284  17.1285  17.1286  17.1286  17.1287  17.1288  17.1288
    17.9841  17.9842  17.9842  17.9842  17.9842  17.9842  17.9842  17.9842
    17.9843  17.9843  17.9843  17.9843  17.9843  17.9843  17.9843  17.9844
    17.9844  17.9844  17.9844  17.9844  17.9845  17.9845  17.9845  17.9845
    19.0124  19.0125  19.0125  19.0125  19.0125  19.0126  19.0126  19.0126
    19.0126  19.0127  19.0127  19.0127  19.0127  19.0128  19.0128  19.0128
    19.0136  19.0136  19.0137  19.0137  19.0137  19.0137  19.0138  19.0138
    20.3347  20.3347  20.3347  20.3347  20.3347  20.3347  20.3347  20.3348
    20.9709  20.9709  20.9709  20.9709  20.9709  20.9710  20.9710  20.9710
    20.9781  20.9781  20.9781  20.9781  20.9781  20.9782  20.9782  20.9782
    21.0806  21.0807  21.0807  21.0808  21.0808  21.0808  21.0809  21.0809
    21.0850  21.0850  21.0850  21.0851  21.0851  21.0851  21.0851  21.0851
    21.0851  21.0852  21.0852  21.0852  21.0852  21.0852  21.0853  21.0853
    22.2964  22.2964  22.2964  22.2964  22.2964  22.2965  22.2965  22.2965
    22.2965  22.2965  22.2966  22.2966  22.2966  22.2966  22.2966  22.2967
    22.3001  22.3001  22.3002  22.3002  22.3002  22.3003  22.3003  22.3004
    23.1275  23.1275  23.1276  23.1276  23.1276  23.1276  23.1277  23.1277
    23.1299  23.1299  23.1300  23.1300  23.1301  23.1301  23.1301  23.1302
    24.9233  24.9234  24.9234  24.9234  24.9234  24.9235  24.9235  24.9235
    24.9248  24.9248  24.9249  24.9249  24.9249  24.9249  24.9249  24.9249
    24.9249  24.9250  24.9250  24.9250  24.9250  24.9250  24.9250  24.9250
    28.3006  28.3010  28.3014  28.3018  28.3026  28.3029  28.3037  28.3044
    28.3046  28.3047  28.3047

     the Fermi energy is    23.0962 ev

!    total energy              =  -13813.30090469 Ry

     total all-electron energy =   -289989.691244 Ry
     estimated scf accuracy    <       0.00000088 Ry
     smearing contrib. (-TS)   =       0.02038373 Ry
     internal energy E=F+TS    =  -13813.32128842 Ry

     The total energy is F=E-TS. E is the sum of the following terms:
     one-electron contribution =    -997.14899983 Ry
     hartree contribution      =     916.51518334 Ry
     xc contribution           =    -928.04608135 Ry
     ewald contribution        =   -5215.19923817 Ry
     one-center paw contrib.   =   -7589.44215241 Ry

     convergence has been achieved in  12 iterations

     Forces acting on atoms (cartesian axes, Ry/au):

     atom    1 type  1   force =     0.00000000    0.00000000    0.00000000
     atom    2 type  1   force =    -0.00009842    0.00006091    0.00000000
     atom    3 type  1   force =    -0.00018588    0.00000000   -0.00018588
     atom    4 type  1   force =     0.00000000    0.00006091   -0.00009842
     atom    5 type  1   force =     0.00000000    0.00000000    0.00000000
     atom    6 type  1   force =    -0.00008877    0.00028028   -0.00000000
     atom    7 type  1   force =    -0.00018588    0.00000000    0.00018588
     atom    8 type  1   force =     0.00000000    0.00006091    0.00009842
     atom    9 type  1   force =     0.00000000    0.00000000    0.00000000
     atom   10 type  1   force =    -0.00009842   -0.00006091    0.00000000
     atom   11 type  1   force =     0.00001574    0.00000000    0.00001574
     atom   12 type  1   force =     0.00000000   -0.00006091   -0.00009842
     atom   13 type  1   force =     0.00000000    0.00000000    0.00000000
     atom   14 type  1   force =    -0.00008877   -0.00028028    0.00000000
     atom   15 type  1   force =     0.00001574   -0.00000000   -0.00001574
     atom   16 type  1   force =     0.00000000   -0.00006091    0.00009842
     atom   17 type  1   force =     0.00000000    0.00000000    0.00000000
     atom   18 type  1   force =     0.00009842    0.00006091    0.00000000
     atom   19 type  1   force =     0.00018588    0.00000000   -0.00018588
     atom   20 type  1   force =     0.00000000    0.00028028   -0.00008877
     atom   21 type  1   force =     0.00000000    0.00000000    0.00000000
     atom   22 type  1   force =     0.00008877    0.00028028    0.00000000
     atom   23 type  1   force =     0.00018588    0.00000000    0.00018588
     atom   24 type  1   force =     0.00000000    0.00028028    0.00008877
     atom   25 type  1   force =     0.00000000    0.00000000    0.00000000
     atom   26 type  1   force =     0.00009842   -0.00006091    0.00000000
     atom   27 type  1   force =    -0.00001574   -0.00000000    0.00001574
     atom   28 type  1   force =     0.00000000   -0.00028028   -0.00008877
     atom   29 type  1   force =     0.00000000    0.00000000    0.00000000
     atom   30 type  1   force =     0.00008877   -0.00028028   -0.00000000
     atom   31 type  1   force =    -0.00001574    0.00000000   -0.00001574
     atom   32 type  1   force =     0.00000000   -0.00028028    0.00008877

     Total force =     0.001038     Total SCF correction =     0.003426
     SCF correction compared to forces is large: reduce conv_thr to get better values


     Computing stress (Cartesian axis) and pressure

          total   stress  (Ry/bohr**3)                   (kbar)     P=       -5.38
  -0.00003300   0.00000000   0.00000000           -4.85        0.00        0.00
   0.00000000  -0.00004381   0.00000000            0.00       -6.44        0.00
   0.00000000   0.00000000  -0.00003300            0.00        0.00       -4.85


     Writing output data file /scratch/nnovrTMcIEWWltYc.save/
 
     init_run     :     27.16s CPU     27.63s WALL (       1 calls)
     electrons    :   1024.19s CPU   1038.87s WALL (       1 calls)
     forces       :     11.66s CPU     11.77s WALL (       1 calls)
     stress       :     66.60s CPU     67.16s WALL (       1 calls)

     Called by init_run:
     wfcinit      :     26.40s CPU     26.81s WALL (       1 calls)
     potinit      :      0.19s CPU      0.20s WALL (       1 calls)
     hinit0       :      0.19s CPU      0.19s WALL (       1 calls)

     Called by electrons:
     c_bands      :    908.81s CPU    921.25s WALL (      13 calls)
     sum_band     :    113.64s CPU    115.60s WALL (      13 calls)
     v_of_rho     :      0.21s CPU      0.23s WALL (      13 calls)
     newd         :      0.34s CPU      0.47s WALL (      13 calls)
     PAW_pot      :      1.11s CPU      1.18s WALL (      13 calls)
     mix_rho      :      0.08s CPU      0.10s WALL (      13 calls)

     Called by c_bands:
     init_us_2    :      4.53s CPU      4.61s WALL (    2175 calls)
     cegterg      :    893.77s CPU    905.68s WALL (     975 calls)

     Called by *egterg:
     cdiaghg      :    121.62s CPU    123.09s WALL (    3632 calls)
     h_psi        :    471.99s CPU    479.27s WALL (    3782 calls)
     s_psi        :     34.13s CPU     34.38s WALL (    3782 calls)
     g_psi        :      0.85s CPU      0.87s WALL (    2732 calls)

     Called by h_psi:
     h_psi:calbec :     66.39s CPU     66.84s WALL (    3782 calls)
     vloc_psi     :    370.66s CPU    377.00s WALL (    3782 calls)
     add_vuspsi   :     32.76s CPU     33.22s WALL (    3782 calls)

     General routines
     calbec       :    119.06s CPU    119.82s WALL (    5132 calls)
     fft          :      0.25s CPU      0.27s WALL (     193 calls)
     ffts         :      0.02s CPU      0.02s WALL (      26 calls)
     fftw         :    436.02s CPU    443.27s WALL ( 1764769 calls)
     interpolate  :      0.03s CPU      0.03s WALL (      13 calls)
 
     Parallel routines
     fft_scatt_xy :     30.69s CPU     31.18s WALL ( 1764988 calls)
     fft_scatt_yz :    353.18s CPU    359.22s WALL ( 1764988 calls)
 
     PWSCF        :  19m 8.28s CPU  19m27.55s WALL

 
   This run was terminated on:  16:50:29  23Nov2021            

=------------------------------------------------------------------------------=
   JOB DONE.
=------------------------------------------------------------------------------=
