
     Program PWSCF v.6.7MaX starts on 23Nov2021 at 18:16:46 

     This program is part of the open-source Quantum ESPRESSO suite
     for quantum simulation of materials; please cite
         "P. Giannozzi et al., J. Phys.:Condens. Matter 21 395502 (2009);
         "P. Giannozzi et al., J. Phys.:Condens. Matter 29 465901 (2017);
          URL http://www.quantum-espresso.org", 
     in publications or presentations arising from this work. More details at
     http://www.quantum-espresso.org/quote

     Parallel version (MPI & OpenMP), running on      72 processor cores
     Number of MPI processes:                72
     Threads/MPI process:                     1

     MPI processes distributed on     1 nodes
     R & G space division:  proc/nbgrp/npool/nimage =      72
     Reading input from /rds/homes/b/bxp912/jobs/20211014_ru_eos/wd/ec/ec_2_007.in
Warning: card &CELL ignored
Warning: card CELL_DYNAMICS = 'BFGS', ignored
Warning: card CELL_FACTOR = 2.0, ignored
Warning: card PRESS = 0.0, ignored
Warning: card / ignored

     Current dimensions of program PWSCF are:
     Max number of different atomic species (ntypx) = 10
     Max number of k-points (npk) =  40000
     Max angular momentum in pseudopotentials (lmaxx) =  3
     file Ru.pbe-spn-kjpaw_psl.1.0.0.UPF: wavefunction(s)  4D renormalized

     Subspace diagonalization in iterative solution of the eigenvalue problem:
     one sub-group per band group will be used
     ELPA distributed-memory algorithm (size of sub-group:  8*  8 procs)

     Found symmetry operation: I + (  0.2500  0.2500  0.0000)
     This is a supercell, fractional translations are disabled
     Message from routine setup:
     using ibrav=0 with symmetry is DISCOURAGED, use correct ibrav instead
 
     Parallelization info
     --------------------
     sticks:   dense  smooth     PW     G-vecs:    dense   smooth      PW
     Min          99      65     17                 6269     3365     477
     Max         100      66     18                 6272     3370     482
     Sum        7133    4705   1285               451479   242393   34553
 


     bravais-lattice index     =            0
     lattice parameter (alat)  =      14.4007  a.u.
     unit-cell volume          =    2997.6445 (a.u.)^3
     number of atoms/cell      =           32
     number of atomic types    =            1
     number of electrons       =       512.00
     number of Kohn-Sham states=          307
     kinetic-energy cutoff     =      71.0000  Ry
     charge density cutoff     =     430.0000  Ry
     scf convergence threshold =      1.0E-06
     mixing beta               =       0.1000
     number of iterations used =           10  plain     mixing
     Exchange-correlation= SLA  PW   PBX  PBC
                           (   1   4   3   4   0   0   0)

     celldm(1)=  14.400742  celldm(2)=   0.000000  celldm(3)=   0.000000
     celldm(4)=   0.000000  celldm(5)=   0.000000  celldm(6)=   0.000000

     crystal axes: (cart. coord. in units of alat)
               a(1) = (   1.000000   0.000000   0.000000 )  
               a(2) = (   0.000000   1.003750   0.000000 )  
               a(3) = (   0.000000   0.000000   1.000000 )  

     reciprocal axes: (cart. coord. in units 2 pi/alat)
               b(1) = (  1.000000  0.000000  0.000000 )  
               b(2) = (  0.000000  0.996264  0.000000 )  
               b(3) = (  0.000000  0.000000  1.000000 )  


     PseudoPot. # 1 for Ru read from file:
     /rds/homes/b/bxp912/pp/Ru.pbe-spn-kjpaw_psl.1.0.0.UPF
     MD5 check sum: 0ae1f594dea09af7be8575c3a481d1ae
     Pseudo is Projector augmented-wave + core cor, Zval = 16.0
     Generated using "atomic" code by A. Dal Corso  v.5.1
     Shape of augmentation charge: PSQ
     Using radial grid of 1233 points,  6 beta functions with: 
                l(1) =   0
                l(2) =   0
                l(3) =   1
                l(4) =   1
                l(5) =   2
                l(6) =   2
     Q(r) pseudized with 0 coefficients 


     atomic species   valence    mass     pseudopotential
        Ru            16.00   101.07000     Ru( 1.00)

     16 Sym. Ops., with inversion, found



   Cartesian axes

     site n.     atom                  positions (alat units)
         1           Ru  tau(   1) = (   0.0000000   0.0000000   0.0000000  )
         2           Ru  tau(   2) = (   0.2500000   0.2509375   0.0000000  )
         3           Ru  tau(   3) = (   0.2500000   0.0000000   0.2499995  )
         4           Ru  tau(   4) = (   0.0000000   0.2509375   0.2499995  )
         5           Ru  tau(   5) = (   0.0000000   0.0000000   0.5000000  )
         6           Ru  tau(   6) = (   0.2499990   0.2509364   0.5000000  )
         7           Ru  tau(   7) = (   0.2500000   0.0000000   0.7499995  )
         8           Ru  tau(   8) = (   0.0000000   0.2509375   0.7499995  )
         9           Ru  tau(   9) = (   0.0000000   0.5018752   0.0000000  )
        10           Ru  tau(  10) = (   0.2500000   0.7528129   0.0000000  )
        11           Ru  tau(  11) = (   0.2499990   0.5018752   0.2499984  )
        12           Ru  tau(  12) = (   0.0000000   0.7528129   0.2499995  )
        13           Ru  tau(  13) = (   0.0000000   0.5018752   0.5000000  )
        14           Ru  tau(  14) = (   0.2499990   0.7528140   0.5000000  )
        15           Ru  tau(  15) = (   0.2499990   0.5018752   0.7500005  )
        16           Ru  tau(  16) = (   0.0000000   0.7528129   0.7499995  )
        17           Ru  tau(  17) = (   0.5000002   0.0000000   0.0000000  )
        18           Ru  tau(  18) = (   0.7500004   0.2509375   0.0000000  )
        19           Ru  tau(  19) = (   0.7500004   0.0000000   0.2499995  )
        20           Ru  tau(  20) = (   0.5000002   0.2509364   0.2499984  )
        21           Ru  tau(  21) = (   0.5000002   0.0000000   0.5000000  )
        22           Ru  tau(  22) = (   0.7500015   0.2509364   0.5000000  )
        23           Ru  tau(  23) = (   0.7500004   0.0000000   0.7499995  )
        24           Ru  tau(  24) = (   0.5000002   0.2509364   0.7500005  )
        25           Ru  tau(  25) = (   0.5000002   0.5018752   0.0000000  )
        26           Ru  tau(  26) = (   0.7500004   0.7528129   0.0000000  )
        27           Ru  tau(  27) = (   0.7500015   0.5018752   0.2499984  )
        28           Ru  tau(  28) = (   0.5000002   0.7528140   0.2499984  )
        29           Ru  tau(  29) = (   0.5000002   0.5018752   0.5000000  )
        30           Ru  tau(  30) = (   0.7500015   0.7528140   0.5000000  )
        31           Ru  tau(  31) = (   0.7500015   0.5018752   0.7500005  )
        32           Ru  tau(  32) = (   0.5000002   0.7528140   0.7500005  )

     number of k points=    75  Marzari-Vanderbilt smearing, width (Ry)=  0.0400
                       cart. coord. in units 2pi/alat
        k(    1) = (   0.0555556   0.0553480   0.0555556), wk =   0.0219479
        k(    2) = (   0.0555556   0.0553480   0.1666667), wk =   0.0438957
        k(    3) = (   0.0555556   0.0553480   0.2777778), wk =   0.0438957
        k(    4) = (   0.0555556   0.0553480   0.3888889), wk =   0.0438957
        k(    5) = (   0.0555556   0.0553480  -0.5000000), wk =   0.0219479
        k(    6) = (   0.0555556   0.1660440   0.0555556), wk =   0.0219479
        k(    7) = (   0.0555556   0.1660440   0.1666667), wk =   0.0438957
        k(    8) = (   0.0555556   0.1660440   0.2777778), wk =   0.0438957
        k(    9) = (   0.0555556   0.1660440   0.3888889), wk =   0.0438957
        k(   10) = (   0.0555556   0.1660440  -0.5000000), wk =   0.0219479
        k(   11) = (   0.0555556   0.2767400   0.0555556), wk =   0.0219479
        k(   12) = (   0.0555556   0.2767400   0.1666667), wk =   0.0438957
        k(   13) = (   0.0555556   0.2767400   0.2777778), wk =   0.0438957
        k(   14) = (   0.0555556   0.2767400   0.3888889), wk =   0.0438957
        k(   15) = (   0.0555556   0.2767400  -0.5000000), wk =   0.0219479
        k(   16) = (   0.0555556   0.3874360   0.0555556), wk =   0.0219479
        k(   17) = (   0.0555556   0.3874360   0.1666667), wk =   0.0438957
        k(   18) = (   0.0555556   0.3874360   0.2777778), wk =   0.0438957
        k(   19) = (   0.0555556   0.3874360   0.3888889), wk =   0.0438957
        k(   20) = (   0.0555556   0.3874360  -0.5000000), wk =   0.0219479
        k(   21) = (   0.0555556  -0.4981320   0.0555556), wk =   0.0109739
        k(   22) = (   0.0555556  -0.4981320   0.1666667), wk =   0.0219479
        k(   23) = (   0.0555556  -0.4981320   0.2777778), wk =   0.0219479
        k(   24) = (   0.0555556  -0.4981320   0.3888889), wk =   0.0219479
        k(   25) = (   0.0555556  -0.4981320  -0.5000000), wk =   0.0109739
        k(   26) = (   0.1666667   0.0553480   0.1666667), wk =   0.0219479
        k(   27) = (   0.1666667   0.0553480   0.2777778), wk =   0.0438957
        k(   28) = (   0.1666667   0.0553480   0.3888889), wk =   0.0438957
        k(   29) = (   0.1666667   0.0553480  -0.5000000), wk =   0.0219479
        k(   30) = (   0.1666667   0.1660440   0.1666667), wk =   0.0219479
        k(   31) = (   0.1666667   0.1660440   0.2777778), wk =   0.0438957
        k(   32) = (   0.1666667   0.1660440   0.3888889), wk =   0.0438957
        k(   33) = (   0.1666667   0.1660440  -0.5000000), wk =   0.0219479
        k(   34) = (   0.1666667   0.2767400   0.1666667), wk =   0.0219479
        k(   35) = (   0.1666667   0.2767400   0.2777778), wk =   0.0438957
        k(   36) = (   0.1666667   0.2767400   0.3888889), wk =   0.0438957
        k(   37) = (   0.1666667   0.2767400  -0.5000000), wk =   0.0219479
        k(   38) = (   0.1666667   0.3874360   0.1666667), wk =   0.0219479
        k(   39) = (   0.1666667   0.3874360   0.2777778), wk =   0.0438957
        k(   40) = (   0.1666667   0.3874360   0.3888889), wk =   0.0438957
        k(   41) = (   0.1666667   0.3874360  -0.5000000), wk =   0.0219479
        k(   42) = (   0.1666667  -0.4981320   0.1666667), wk =   0.0109739
        k(   43) = (   0.1666667  -0.4981320   0.2777778), wk =   0.0219479
        k(   44) = (   0.1666667  -0.4981320   0.3888889), wk =   0.0219479
        k(   45) = (   0.1666667  -0.4981320  -0.5000000), wk =   0.0109739
        k(   46) = (   0.2777778   0.0553480   0.2777778), wk =   0.0219479
        k(   47) = (   0.2777778   0.0553480   0.3888889), wk =   0.0438957
        k(   48) = (   0.2777778   0.0553480  -0.5000000), wk =   0.0219479
        k(   49) = (   0.2777778   0.1660440   0.2777778), wk =   0.0219479
        k(   50) = (   0.2777778   0.1660440   0.3888889), wk =   0.0438957
        k(   51) = (   0.2777778   0.1660440  -0.5000000), wk =   0.0219479
        k(   52) = (   0.2777778   0.2767400   0.2777778), wk =   0.0219479
        k(   53) = (   0.2777778   0.2767400   0.3888889), wk =   0.0438957
        k(   54) = (   0.2777778   0.2767400  -0.5000000), wk =   0.0219479
        k(   55) = (   0.2777778   0.3874360   0.2777778), wk =   0.0219479
        k(   56) = (   0.2777778   0.3874360   0.3888889), wk =   0.0438957
        k(   57) = (   0.2777778   0.3874360  -0.5000000), wk =   0.0219479
        k(   58) = (   0.2777778  -0.4981320   0.2777778), wk =   0.0109739
        k(   59) = (   0.2777778  -0.4981320   0.3888889), wk =   0.0219479
        k(   60) = (   0.2777778  -0.4981320  -0.5000000), wk =   0.0109739
        k(   61) = (   0.3888889   0.0553480   0.3888889), wk =   0.0219479
        k(   62) = (   0.3888889   0.0553480  -0.5000000), wk =   0.0219479
        k(   63) = (   0.3888889   0.1660440   0.3888889), wk =   0.0219479
        k(   64) = (   0.3888889   0.1660440  -0.5000000), wk =   0.0219479
        k(   65) = (   0.3888889   0.2767400   0.3888889), wk =   0.0219479
        k(   66) = (   0.3888889   0.2767400  -0.5000000), wk =   0.0219479
        k(   67) = (   0.3888889   0.3874360   0.3888889), wk =   0.0219479
        k(   68) = (   0.3888889   0.3874360  -0.5000000), wk =   0.0219479
        k(   69) = (   0.3888889  -0.4981320   0.3888889), wk =   0.0109739
        k(   70) = (   0.3888889  -0.4981320  -0.5000000), wk =   0.0109739
        k(   71) = (  -0.5000000   0.0553480  -0.5000000), wk =   0.0054870
        k(   72) = (  -0.5000000   0.1660440  -0.5000000), wk =   0.0054870
        k(   73) = (  -0.5000000   0.2767400  -0.5000000), wk =   0.0054870
        k(   74) = (  -0.5000000   0.3874360  -0.5000000), wk =   0.0054870
        k(   75) = (  -0.5000000  -0.4981320  -0.5000000), wk =   0.0027435

     Dense  grid:   451479 G-vectors     FFT dimensions: (  96,  96,  96)

     Smooth grid:   242393 G-vectors     FFT dimensions: (  80,  80,  80)

     Estimated max dynamical RAM per process >     186.08 MB

     Estimated total dynamical RAM >      13.08 GB

     Check: negative core charge=   -0.000002

     Initial potential from superposition of free atoms

     starting charge  511.97959, renormalised to  512.00000
     Starting wfcs are  320 randomized atomic wfcs
     Checking if some PAW data can be deallocated... 

     total cpu time spent up to now is       29.9 secs

     Self-consistent Calculation

     iteration #  1     ecut=    71.00 Ry     beta= 0.10
     Davidson diagonalization with overlap
     ethr =  1.00E-02,  avg # of iterations =  3.4

     Threshold (ethr) on eigenvalues was too large:
     Diagonalizing with lowered threshold

     Davidson diagonalization with overlap
     ethr =  8.26E-05,  avg # of iterations =  5.5

     total cpu time spent up to now is      214.9 secs

     total energy              =  -13813.41186985 Ry
     estimated scf accuracy    <       0.63725716 Ry

     iteration #  2     ecut=    71.00 Ry     beta= 0.10
     Davidson diagonalization with overlap
     ethr =  1.24E-04,  avg # of iterations =  1.0

     total cpu time spent up to now is      280.4 secs

     total energy              =  -13813.20845290 Ry
     estimated scf accuracy    <       0.39795355 Ry

     iteration #  3     ecut=    71.00 Ry     beta= 0.10
     Davidson diagonalization with overlap
     ethr =  7.77E-05,  avg # of iterations =  2.2

     total cpu time spent up to now is      360.2 secs

     total energy              =  -13813.29817469 Ry
     estimated scf accuracy    <       0.05082095 Ry

     iteration #  4     ecut=    71.00 Ry     beta= 0.10
     Davidson diagonalization with overlap
     ethr =  9.93E-06,  avg # of iterations =  2.3

     total cpu time spent up to now is      434.9 secs

     total energy              =  -13813.29958739 Ry
     estimated scf accuracy    <       0.00885464 Ry

     iteration #  5     ecut=    71.00 Ry     beta= 0.10
     Davidson diagonalization with overlap
     ethr =  1.73E-06,  avg # of iterations =  2.3

     total cpu time spent up to now is      504.3 secs

     total energy              =  -13813.30054543 Ry
     estimated scf accuracy    <       0.00561021 Ry

     iteration #  6     ecut=    71.00 Ry     beta= 0.10
     Davidson diagonalization with overlap
     ethr =  1.10E-06,  avg # of iterations =  3.5

     total cpu time spent up to now is      602.1 secs

     total energy              =  -13813.29978493 Ry
     estimated scf accuracy    <       0.01393189 Ry

     iteration #  7     ecut=    71.00 Ry     beta= 0.10
     Davidson diagonalization with overlap
     ethr =  1.10E-06,  avg # of iterations =  2.2

     total cpu time spent up to now is      684.1 secs

     total energy              =  -13813.30038788 Ry
     estimated scf accuracy    <       0.00169193 Ry

     iteration #  8     ecut=    71.00 Ry     beta= 0.10
     Davidson diagonalization with overlap
     ethr =  3.30E-07,  avg # of iterations =  2.0

     total cpu time spent up to now is      750.7 secs

     total energy              =  -13813.30042476 Ry
     estimated scf accuracy    <       0.00031825 Ry

     iteration #  9     ecut=    71.00 Ry     beta= 0.10
     Davidson diagonalization with overlap
     ethr =  6.22E-08,  avg # of iterations =  2.5

     total cpu time spent up to now is      826.1 secs

     total energy              =  -13813.30039666 Ry
     estimated scf accuracy    <       0.00009701 Ry

     iteration # 10     ecut=    71.00 Ry     beta= 0.10
     Davidson diagonalization with overlap
     ethr =  1.89E-08,  avg # of iterations =  3.0

     total cpu time spent up to now is      917.9 secs

     total energy              =  -13813.30041873 Ry
     estimated scf accuracy    <       0.00000307 Ry

     iteration # 11     ecut=    71.00 Ry     beta= 0.10
     Davidson diagonalization with overlap
     ethr =  5.99E-10,  avg # of iterations =  3.9

     total cpu time spent up to now is      998.3 secs

     End of self-consistent calculation

          k = 0.0556 0.0553 0.0556 ( 30350 PWs)   bands (ev):

   -50.0063 -49.9087 -49.9076 -49.9076 -49.8899 -49.8886 -49.8886 -49.8537
   -49.8537 -49.8535 -49.8444 -49.8434 -49.8434 -49.8433 -49.8432 -49.8432
   -49.8431 -49.8427 -49.8426 -49.8426 -49.8346 -49.8345 -49.8345 -49.7914
   -49.7899 -49.7898 -49.7897 -49.7896 -49.7890 -49.7890 -49.7885 -49.7885
   -20.4051 -20.4051 -20.4050 -20.4010 -20.3436 -20.3436 -20.3425 -20.1489
   -20.1434 -20.1434 -20.1378 -20.1378 -20.1323 -20.1323 -20.1319 -20.1319
   -20.1180 -20.1120 -20.1120 -20.0944 -20.0944 -20.0904 -20.0904 -20.0901
   -20.0901 -20.0450 -20.0450 -20.0404 -20.0404 -20.0397 -20.0397 -19.9438
   -19.9438 -19.9429 -19.8717 -19.8717 -19.8703 -19.8638 -19.8638 -19.8629
   -19.8311 -19.8311 -19.8302 -19.8302 -19.8293 -19.8293 -19.7910 -19.7910
   -19.7897 -19.7852 -19.7852 -19.7843 -19.7843 -19.7824 -19.7824 -19.7818
   -19.7818 -19.7739 -19.7736 -19.7736 -19.7693 -19.6158 -19.6158 -19.6118
   -19.6118 -19.6106 -19.6099 -19.5837 -19.5837 -19.5805 -19.5805 -19.5790
   -19.5790 -19.5679 -19.5679 -19.5633 -19.5570 -19.5552 -19.5551 -19.5546
   -19.5546 -19.5545 -19.5545 -19.5512 -19.5505 -19.5505 -19.5502 -19.5502
   -19.5484 -19.5456 -19.5362 -19.5362 -19.5323 -19.4233 -19.4166 -19.4162
    15.2594  16.8267  16.8267  16.8300  17.1025  17.1202  17.1202  17.1202
    17.2932  17.2932  17.2972  17.5005  17.5139  17.5139  17.6740  17.6871
    17.6871  18.2165  18.2165  18.2364  18.2364  18.2372  18.2373  18.5363
    18.5492  18.5492  18.8026  18.8026  18.8034  18.8055  18.8223  18.8223
    18.9099  18.9116  18.9116  18.9127  18.9127  18.9127  18.9127  18.9136
    18.9136  19.3951  19.3951  19.4052  19.4052  19.4135  19.4136  19.5356
    19.5548  19.5548  19.5668  19.5668  19.5864  19.5864  19.5879  19.5879
    19.6325  19.6505  19.6505  19.8960  19.8960  19.9023  19.9023  19.9044
    19.9044  19.9045  19.9045  19.9080  19.9080  19.9099  19.9126  19.9126
    19.9174  19.9174  20.0756  20.0757  20.0794  20.3379  20.3620  20.3620
    20.3735  20.4101  20.4101  20.4195  20.4344  20.4751  20.5202  20.5358
    21.4674  21.5021  21.5021  21.6338  21.6715  21.6715  21.7052  21.7052
    21.7173  21.8046  21.8046  21.8060  21.8060  21.8158  21.8158  21.8195
    21.8196  21.8289  22.1103  22.1103  22.1307  22.2324  22.2325  22.2448
    22.4776  22.4776  22.4966  22.5556  22.5556  22.5643  22.5643  22.5653
    22.5653  22.5742  22.5742  22.5913  22.6153  22.6153  22.6272  22.8030
    22.8030  22.8036  22.8036  22.8188  22.8188  22.8396  22.8931  22.9756
    22.9756  22.9910  23.6290  23.6290  23.6536  23.6837  23.6837  23.6886
    23.7894  23.7894  23.8105  23.8859  24.6098  24.6098  24.6127  24.6414
    24.6646  24.6759  24.6935  24.6935  24.9623  24.9722  24.9722  24.9921
    24.9921  25.0040  25.1441  25.1441  25.1456  25.1456  25.1581  25.1626
    25.1626  25.1753  25.1753  26.5878  26.5878  26.6141  26.7199  26.7912
    26.7912  27.1176  27.1176

          k = 0.0556 0.0553 0.1667 ( 30326 PWs)   bands (ev):

   -50.0030 -49.9263 -49.9069 -49.9058 -49.8884 -49.8871 -49.8698 -49.8640
   -49.8637 -49.8533 -49.8521 -49.8517 -49.8461 -49.8434 -49.8432 -49.8427
   -49.8427 -49.8411 -49.8348 -49.8331 -49.8328 -49.8261 -49.8258 -49.7923
   -49.7915 -49.7914 -49.7912 -49.7903 -49.7901 -49.7900 -49.7894 -49.7889
   -20.3977 -20.3939 -20.3937 -20.3858 -20.3353 -20.3342 -20.3308 -20.1744
   -20.1612 -20.1608 -20.1529 -20.1506 -20.1482 -20.1458 -20.1401 -20.1384
   -20.1383 -20.1203 -20.1143 -20.1042 -20.1009 -20.0916 -20.0913 -20.0874
   -20.0854 -20.0525 -20.0484 -20.0359 -20.0314 -20.0214 -19.9918 -19.9908
   -19.9567 -19.9551 -19.9124 -19.9106 -19.8805 -19.8788 -19.8705 -19.8683
   -19.8388 -19.8018 -19.8011 -19.7894 -19.7891 -19.7887 -19.7852 -19.7844
   -19.7838 -19.7826 -19.7769 -19.7762 -19.7702 -19.7687 -19.7683 -19.7677
   -19.7677 -19.7663 -19.7642 -19.7512 -19.7505 -19.6475 -19.6426 -19.6193
   -19.6177 -19.6073 -19.6026 -19.5875 -19.5873 -19.5861 -19.5827 -19.5788
   -19.5748 -19.5737 -19.5705 -19.5700 -19.5674 -19.5657 -19.5625 -19.5550
   -19.5547 -19.5545 -19.5544 -19.5538 -19.5520 -19.5512 -19.5493 -19.5475
   -19.5462 -19.5441 -19.5367 -19.5245 -19.5209 -19.4404 -19.4221 -19.4199
    15.3456  16.8775  16.8904  16.8937  17.1421  17.1772  17.1772  17.1946
    17.2108  17.3313  17.3546  17.3590  17.5629  17.5759  17.7109  17.7398
    17.7524  18.1148  18.1171  18.2657  18.2747  18.2852  18.2919  18.2940
    18.4924  18.5759  18.5875  18.5979  18.5987  18.6489  18.6649  18.6668
    18.8389  18.8524  18.8527  18.8542  18.8772  18.8797  18.9448  18.9604
    19.0081  19.0091  19.1043  19.3824  19.3915  19.3990  19.4094  19.4493
    19.4633  19.4639  19.4786  19.5256  19.5383  19.6188  19.6196  19.6571
    19.7242  19.7295  19.7515  19.7563  19.8502  19.8596  19.8688  19.8876
    19.8928  19.9027  19.9030  19.9092  19.9154  20.1521  20.1555  20.1767
    20.1788  20.1995  20.2540  20.2961  20.3041  20.3403  20.3904  20.4326
    20.4396  20.4410  20.4417  20.4655  20.4656  20.4787  20.5398  20.5800
    21.2429  21.2655  21.3699  21.3963  21.4880  21.5025  21.6123  21.6128
    21.6429  21.7404  21.7520  21.7718  21.9166  21.9217  21.9269  21.9522
    21.9586  21.9989  22.0057  22.0384  22.0923  22.1066  22.4137  22.4292
    22.4336  22.4396  22.4473  22.4630  22.5583  22.5663  22.5730  22.5818
    22.6938  22.7063  22.7225  22.7251  22.8021  22.8136  22.8252  22.8303
    22.8662  22.8841  23.0271  23.0283  23.0434  23.0903  23.1023  23.1761
    23.2084  23.2204  23.2216  23.2697  23.2764  23.4603  23.4753  23.6919
    23.7131  23.8837  23.9001  23.9523  24.4000  24.4278  24.5226  24.5251
    24.5425  24.5693  24.6298  24.6451  24.6467  24.8372  24.8998  25.0195
    25.0198  25.0462  25.0476  25.0519  25.1387  25.1424  25.1468  25.1515
    25.3299  25.3382  25.5593  26.0730  26.0937  26.4884  26.5297  26.5947
    26.6216  27.0623  27.0627

          k = 0.0556 0.0553 0.2778 ( 30301 PWs)   bands (ev):

   -49.9965 -49.9441 -49.9033 -49.9022 -49.8853 -49.8841 -49.8739 -49.8734
   -49.8605 -49.8599 -49.8527 -49.8519 -49.8477 -49.8433 -49.8431 -49.8428
   -49.8427 -49.8396 -49.8353 -49.8234 -49.8229 -49.8180 -49.8175 -49.7988
   -49.7949 -49.7942 -49.7939 -49.7930 -49.7913 -49.7903 -49.7893 -49.7890
   -20.3793 -20.3719 -20.3717 -20.3601 -20.3189 -20.3179 -20.3054 -20.2200
   -20.2055 -20.2051 -20.1843 -20.1843 -20.1842 -20.1560 -20.1521 -20.1500
   -20.1462 -20.1186 -20.1168 -20.0972 -20.0945 -20.0936 -20.0912 -20.0908
   -20.0597 -20.0548 -20.0537 -20.0516 -20.0204 -20.0162 -19.9795 -19.9768
   -19.9509 -19.9486 -19.9451 -19.9437 -19.9097 -19.9080 -19.9067 -19.9053
   -19.8059 -19.8025 -19.7891 -19.7847 -19.7803 -19.7783 -19.7699 -19.7661
   -19.7577 -19.7567 -19.7562 -19.7497 -19.7497 -19.7438 -19.7427 -19.7398
   -19.7396 -19.7226 -19.7133 -19.7129 -19.7064 -19.6776 -19.6719 -19.6337
   -19.6323 -19.6121 -19.6080 -19.6078 -19.6045 -19.6014 -19.6002 -19.5986
   -19.5930 -19.5898 -19.5870 -19.5855 -19.5703 -19.5663 -19.5582 -19.5579
   -19.5559 -19.5545 -19.5543 -19.5542 -19.5526 -19.5468 -19.5444 -19.5443
   -19.5375 -19.5218 -19.5195 -19.5193 -19.5166 -19.4708 -19.4330 -19.4302
    15.5153  16.8349  16.9757  17.0147  17.0181  17.2387  17.2903  17.2904
    17.3242  17.4069  17.4768  17.4822  17.6178  17.6838  17.6957  17.8674
    17.8791  17.9078  17.9110  18.0560  18.1579  18.2578  18.2583  18.3253
    18.3594  18.3765  18.3890  18.4071  18.4888  18.4926  18.5442  18.5572
    18.6540  18.6631  18.7076  18.7103  18.8273  18.8295  18.9039  18.9161
    19.0821  19.0852  19.2786  19.2874  19.3433  19.3473  19.3509  19.3579
    19.3585  19.3684  19.3868  19.4019  19.4123  19.4969  19.5112  19.6571
    19.6642  19.7217  19.7790  19.7872  19.8469  19.8535  19.8965  19.9123
    19.9126  19.9264  19.9817  19.9876  20.0212  20.1932  20.2404  20.2490
    20.2522  20.2655  20.3161  20.3624  20.5028  20.5410  20.5675  20.5743
    20.5773  20.5917  20.5975  20.6312  20.6724  20.7005  20.9703  20.9856
    21.0296  21.0316  21.0502  21.0571  21.2509  21.3628  21.3646  21.3987
    21.4108  21.4701  21.8410  21.8728  21.8810  22.0817  22.0918  22.0984
    22.1052  22.1372  22.1415  22.2140  22.2186  22.3304  22.3419  22.4299
    22.4423  22.5526  22.5594  22.5608  22.5685  22.5716  22.5905  22.5980
    22.6463  22.6546  22.6703  22.7148  22.7431  22.7484  22.8615  22.9276
    22.9322  22.9360  23.0011  23.0045  23.1359  23.2659  23.3321  23.3373
    23.3403  23.4219  23.4284  23.4650  23.4943  23.5029  23.5157  23.7158
    23.7508  23.8709  23.8849  24.1143  24.1404  24.1473  24.3185  24.3188
    24.3528  24.4801  24.4803  24.4916  24.5171  24.5773  24.7900  24.7905
    24.8110  24.8125  24.8537  25.1360  25.1406  25.1477  25.1502  25.2941
    25.5682  25.5832  25.7637  25.7670  25.9592  26.0698  26.0914  26.1141
    26.4112  26.9471  26.9476

          k = 0.0556 0.0553 0.3889 ( 30273 PWs)   bands (ev):

   -49.9871 -49.9605 -49.8980 -49.8970 -49.8831 -49.8824 -49.8808 -49.8797
   -49.8682 -49.8674 -49.8518 -49.8492 -49.8433 -49.8430 -49.8429 -49.8427
   -49.8382 -49.8360 -49.8354 -49.8145 -49.8139 -49.8106 -49.8098 -49.8084
   -49.8000 -49.7991 -49.7985 -49.7974 -49.7911 -49.7906 -49.7892 -49.7890
   -20.3506 -20.3401 -20.3398 -20.3248 -20.2948 -20.2939 -20.2682 -20.2679
   -20.2539 -20.2535 -20.2337 -20.2266 -20.2261 -20.1611 -20.1543 -20.1515
   -20.1405 -20.1380 -20.1331 -20.1329 -20.1079 -20.1070 -20.0696 -20.0641
   -20.0407 -20.0376 -20.0235 -20.0178 -20.0083 -20.0044 -19.9994 -19.9955
   -19.9860 -19.9834 -19.9458 -19.9427 -19.9417 -19.9394 -19.9018 -19.9000
   -19.8309 -19.8283 -19.7835 -19.7801 -19.7776 -19.7721 -19.7502 -19.7423
   -19.7350 -19.7136 -19.7132 -19.7109 -19.7105 -19.7076 -19.7072 -19.7070
   -19.7060 -19.7053 -19.6988 -19.6782 -19.6781 -19.6772 -19.6547 -19.6536
   -19.6415 -19.6410 -19.6382 -19.6377 -19.6367 -19.6340 -19.6215 -19.6206
   -19.6192 -19.6186 -19.5978 -19.5769 -19.5752 -19.5647 -19.5605 -19.5544
   -19.5542 -19.5540 -19.5532 -19.5519 -19.5505 -19.5423 -19.5418 -19.5410
   -19.5387 -19.5210 -19.5192 -19.5142 -19.4940 -19.4916 -19.4490 -19.4461
    15.7625  16.4434  17.1147  17.1930  17.1965  17.3912  17.4581  17.4583
    17.4603  17.5067  17.5191  17.6589  17.6615  17.6650  17.6657  17.8462
    17.8543  17.8553  17.8647  17.9467  17.9471  18.0146  18.0484  18.0586
    18.1949  18.2056  18.2801  18.2862  18.4870  18.4992  18.4999  18.5050
    18.5549  18.5709  18.7486  18.7495  18.7688  18.7742  18.9912  18.9965
    18.9969  19.0047  19.0904  19.0942  19.2364  19.2402  19.2763  19.2809
    19.3178  19.3310  19.3774  19.3905  19.3961  19.3990  19.6397  19.6465
    19.6604  19.6970  19.7021  19.8210  19.9138  19.9206  19.9318  19.9361
    19.9426  19.9515  20.0703  20.1213  20.1367  20.1502  20.1552  20.1627
    20.1675  20.2969  20.3508  20.3561  20.6291  20.6854  20.6989  20.7045
    20.7125  20.7170  20.7280  20.7282  20.7711  20.8100  21.0099  21.0176
    21.0385  21.0925  21.1476  21.1797  21.1825  21.1868  21.1919  21.2122
    21.6575  21.6879  22.0001  22.0044  22.0172  22.0710  22.0765  22.1940
    22.1976  22.2002  22.2512  22.2700  22.2720  22.3125  22.3161  22.3479
    22.3535  22.3981  22.4020  22.4081  22.4164  22.4798  22.5203  22.5256
    22.5628  22.5649  22.5821  22.5879  22.6717  22.6754  22.8906  22.8937
    22.9980  23.0101  23.0448  23.1539  23.2028  23.3459  23.3492  23.4749
    23.6618  23.6649  23.6695  23.7727  23.7806  23.7810  23.8193  23.8214
    24.0411  24.0421  24.0442  24.1013  24.1925  24.1977  24.2021  24.2564
    24.2648  24.2736  24.3143  24.3190  24.4863  24.4919  24.5018  24.5050
    24.5479  24.5505  24.6249  25.0766  25.0856  25.1361  25.1388  25.1484
    25.1495  25.3113  25.5446  25.5607  25.6642  26.1675  26.1685  26.2285
    26.6018  26.7638  26.7642

          k = 0.0556 0.0553-0.5000 ( 30276 PWs)   bands (ev):

   -49.9751 -49.9748 -49.8913 -49.8911 -49.8905 -49.8902 -49.8752 -49.8749
   -49.8742 -49.8740 -49.8507 -49.8505 -49.8433 -49.8430 -49.8429 -49.8427
   -49.8371 -49.8369 -49.8208 -49.8206 -49.8067 -49.8065 -49.8060 -49.8057
   -49.8041 -49.8039 -49.8032 -49.8030 -49.7910 -49.7907 -49.7892 -49.7890
   -20.3129 -20.3128 -20.3001 -20.3000 -20.2996 -20.2995 -20.2819 -20.2818
   -20.2639 -20.2637 -20.2632 -20.2630 -20.2195 -20.2193 -20.1462 -20.1461
   -20.1449 -20.1448 -20.1255 -20.1254 -20.1245 -20.1244 -20.0393 -20.0392
   -20.0345 -20.0344 -20.0165 -20.0163 -20.0136 -20.0135 -19.9848 -19.9847
   -19.9798 -19.9798 -19.9734 -19.9732 -19.9698 -19.9696 -19.8634 -19.8632
   -19.8613 -19.8611 -19.7820 -19.7818 -19.7749 -19.7747 -19.7298 -19.7296
   -19.7226 -19.7224 -19.6831 -19.6830 -19.6817 -19.6815 -19.6809 -19.6807
   -19.6761 -19.6760 -19.6744 -19.6743 -19.6740 -19.6739 -19.6712 -19.6711
   -19.6602 -19.6601 -19.6599 -19.6598 -19.6476 -19.6473 -19.6470 -19.6468
   -19.6343 -19.6342 -19.5694 -19.5692 -19.5629 -19.5627 -19.5620 -19.5619
   -19.5619 -19.5618 -19.5544 -19.5542 -19.5538 -19.5536 -19.5404 -19.5402
   -19.5287 -19.5286 -19.5281 -19.5280 -19.4696 -19.4694 -19.4670 -19.4668
    16.0773  16.0773  17.2826  17.2826  17.4143  17.4144  17.4180  17.4180
    17.5978  17.5979  17.6663  17.6663  17.6782  17.6782  17.6784  17.6784
    17.7386  17.7387  17.8990  17.8991  17.9075  17.9076  18.0601  18.0602
    18.0684  18.0685  18.2673  18.2673  18.2756  18.2757  18.6273  18.6274
    18.6343  18.6343  18.7636  18.7637  18.7762  18.7762  18.9171  18.9171
    18.9181  18.9182  19.1119  19.1119  19.1142  19.1143  19.3187  19.3187
    19.3353  19.3354  19.3451  19.3451  19.3480  19.3480  19.6496  19.6496
    19.6510  19.6510  19.9142  19.9143  19.9222  19.9222  19.9393  19.9394
    19.9415  19.9416  20.0467  20.0467  20.0589  20.0590  20.2130  20.2131
    20.4008  20.4009  20.4109  20.4109  20.5068  20.5068  20.5147  20.5147
    20.8001  20.8001  20.8684  20.8684  20.8836  20.8836  20.9223  20.9223
    20.9556  20.9557  20.9911  20.9912  21.6503  21.6504  21.6515  21.6515
    21.6570  21.6571  21.6876  21.6876  22.0549  22.0550  22.0553  22.0554
    22.2520  22.2522  22.3199  22.3200  22.3527  22.3529  22.3672  22.3674
    22.3706  22.3707  22.4433  22.4434  22.4473  22.4474  22.4597  22.4598
    22.4603  22.4604  22.5225  22.5226  22.5269  22.5270  22.7750  22.7752
    22.7753  22.7755  23.0905  23.0906  23.7062  23.7064  23.7086  23.7088
    23.7225  23.7226  23.8031  23.8032  23.9784  23.9784  23.9847  23.9848
    24.0279  24.0279  24.0649  24.0650  24.1406  24.1407  24.1484  24.1486
    24.1588  24.1590  24.1642  24.1643  24.4347  24.4348  24.6107  24.6108
    24.6132  24.6132  24.6483  24.6484  25.0296  25.0296  25.0396  25.0396
    25.1371  25.1373  25.1489  25.1490  25.9789  25.9790  26.5046  26.5047
    26.5047  26.5048  26.9945

          k = 0.0556 0.1660 0.0556 ( 30302 PWs)   bands (ev):

   -50.0030 -49.9272 -49.9058 -49.9058 -49.8871 -49.8871 -49.8714 -49.8638
   -49.8638 -49.8532 -49.8517 -49.8517 -49.8460 -49.8432 -49.8432 -49.8427
   -49.8427 -49.8411 -49.8348 -49.8332 -49.8332 -49.8260 -49.8260 -49.7947
   -49.7916 -49.7916 -49.7911 -49.7911 -49.7890 -49.7890 -49.7885 -49.7885
   -20.3977 -20.3940 -20.3940 -20.3860 -20.3354 -20.3354 -20.3296 -20.1787
   -20.1657 -20.1657 -20.1478 -20.1478 -20.1451 -20.1450 -20.1450 -20.1419
   -20.1419 -20.1148 -20.1148 -20.1006 -20.1006 -20.0871 -20.0871 -20.0857
   -20.0857 -20.0484 -20.0484 -20.0308 -20.0308 -20.0204 -19.9970 -19.9970
   -19.9560 -19.9560 -19.9115 -19.9115 -19.8798 -19.8798 -19.8688 -19.8688
   -19.8385 -19.8011 -19.8011 -19.7931 -19.7931 -19.7908 -19.7908 -19.7831
   -19.7811 -19.7811 -19.7725 -19.7725 -19.7699 -19.7699 -19.7692 -19.7692
   -19.7685 -19.7641 -19.7639 -19.7521 -19.7521 -19.6416 -19.6402 -19.6231
   -19.6231 -19.6041 -19.6041 -19.5906 -19.5906 -19.5874 -19.5874 -19.5789
   -19.5789 -19.5741 -19.5714 -19.5714 -19.5670 -19.5670 -19.5628 -19.5569
   -19.5510 -19.5504 -19.5504 -19.5498 -19.5498 -19.5486 -19.5478 -19.5476
   -19.5475 -19.5429 -19.5327 -19.5245 -19.5245 -19.4405 -19.4217 -19.4200
    15.3450  16.8800  16.8897  16.8897  17.1419  17.1770  17.1770  17.1944
    17.1982  17.3347  17.3549  17.3549  17.5753  17.5753  17.6996  17.7516
    17.7516  18.0976  18.0976  18.2826  18.2838  18.2838  18.2942  18.2943
    18.4907  18.5883  18.5883  18.5959  18.5959  18.6463  18.6637  18.6637
    18.8495  18.8495  18.8550  18.8551  18.8786  18.8786  18.9529  18.9529
    19.0094  19.0094  19.0833  19.3749  19.3749  19.4170  19.4170  19.4655
    19.4656  19.4803  19.4803  19.5359  19.5359  19.6218  19.6218  19.6460
    19.7293  19.7293  19.7392  19.7392  19.8297  19.8501  19.8501  19.8955
    19.8955  19.9110  19.9110  19.9240  19.9240  20.1573  20.1573  20.1833
    20.1834  20.2060  20.2548  20.2663  20.3079  20.3079  20.3713  20.4040
    20.4526  20.4549  20.4549  20.4755  20.4755  20.4969  20.5742  20.5824
    21.2735  21.2735  21.4018  21.4018  21.4628  21.5198  21.6279  21.6279
    21.6570  21.7368  21.7368  21.7930  21.9152  21.9152  21.9265  21.9482
    21.9482  21.9936  21.9936  21.9989  22.0817  22.0817  22.4114  22.4114
    22.4328  22.4328  22.4415  22.4415  22.5656  22.5657  22.5789  22.5789
    22.6914  22.6914  22.7140  22.7140  22.7684  22.8235  22.8235  22.8250
    22.8835  22.9171  23.0378  23.0378  23.0518  23.0899  23.0899  23.1863
    23.2075  23.2075  23.2262  23.2744  23.2744  23.4614  23.5030  23.6929
    23.6929  23.8834  23.8834  23.9700  24.4073  24.4073  24.5219  24.5219
    24.5268  24.5731  24.6284  24.6291  24.6291  24.8269  24.9165  25.0179
    25.0179  25.0206  25.0206  25.0491  25.1708  25.1708  25.1750  25.1750
    25.3439  25.3439  25.5707  26.0730  26.0730  26.4210  26.5552  26.5951
    26.5951  27.0930  27.0930

          k = 0.0556 0.1660 0.1667 ( 30309 PWs)   bands (ev):

   -49.9998 -49.9251 -49.9242 -49.9040 -49.8856 -49.8758 -49.8701 -49.8686
   -49.8632 -49.8631 -49.8514 -49.8514 -49.8493 -49.8444 -49.8404 -49.8398
   -49.8395 -49.8394 -49.8335 -49.8333 -49.8266 -49.8265 -49.8189 -49.7946
   -49.7931 -49.7928 -49.7922 -49.7922 -49.7907 -49.7906 -49.7898 -49.7890
   -20.3906 -20.3905 -20.3793 -20.3671 -20.3272 -20.3233 -20.3220 -20.1846
   -20.1807 -20.1788 -20.1742 -20.1467 -20.1461 -20.1446 -20.1434 -20.1416
   -20.1374 -20.1364 -20.1355 -20.1320 -20.1177 -20.1128 -20.1106 -20.1103
   -20.0506 -20.0299 -20.0288 -20.0247 -20.0247 -20.0111 -20.0069 -19.9893
   -19.9833 -19.9699 -19.9531 -19.8973 -19.8752 -19.8750 -19.8382 -19.8379
   -19.8290 -19.8264 -19.8072 -19.8033 -19.8025 -19.7874 -19.7788 -19.7700
   -19.7687 -19.7678 -19.7674 -19.7670 -19.7653 -19.7644 -19.7642 -19.7633
   -19.7567 -19.7558 -19.7280 -19.7274 -19.7139 -19.6551 -19.6489 -19.6362
   -19.6344 -19.6148 -19.6098 -19.6018 -19.5874 -19.5863 -19.5861 -19.5817
   -19.5804 -19.5782 -19.5774 -19.5762 -19.5761 -19.5742 -19.5628 -19.5589
   -19.5586 -19.5575 -19.5571 -19.5550 -19.5507 -19.5481 -19.5446 -19.5439
   -19.5392 -19.5381 -19.5254 -19.5218 -19.5077 -19.4620 -19.4268 -19.4193
    15.4298  16.9407  16.9440  16.9474  17.1621  17.2145  17.2596  17.2662
    17.2663  17.2711  17.3924  17.3960  17.4201  17.6221  17.7677  17.7779
    17.7983  18.1314  18.1462  18.1576  18.1762  18.3276  18.3366  18.3409
    18.3417  18.3793  18.3795  18.4544  18.5207  18.5214  18.6420  18.6826
    18.6845  18.7022  18.7055  18.7307  18.9001  18.9684  18.9692  18.9738
    18.9763  18.9987  19.0033  19.1099  19.1300  19.3404  19.3538  19.4497
    19.4510  19.4748  19.5221  19.5270  19.5554  19.5577  19.6047  19.6129
    19.6257  19.8056  19.8104  19.8256  19.8279  19.9042  19.9201  19.9799
    19.9847  20.0316  20.0959  20.1026  20.1924  20.2057  20.2269  20.2289
    20.2629  20.2690  20.3109  20.3588  20.3703  20.3822  20.3851  20.4093
    20.4471  20.4570  20.4646  20.5044  20.5494  20.5637  20.5788  20.6234
    21.1345  21.2349  21.2488  21.2745  21.5052  21.5263  21.6697  21.6727
    21.6835  21.7008  21.7016  21.7491  21.7772  21.7787  21.7927  21.8048
    21.8194  21.9574  22.0276  22.1322  22.1331  22.1500  22.1529  22.1994
    22.2751  22.5653  22.5665  22.6783  22.6875  22.6987  22.7018  22.7109
    22.7427  22.7481  22.7570  22.8221  22.8398  22.8874  22.9023  22.9057
    22.9637  22.9718  22.9821  23.0218  23.0227  23.1234  23.2128  23.2721
    23.2755  23.3008  23.3102  23.3806  23.3924  23.4022  23.5152  23.5388
    23.7229  23.9190  24.0903  24.1007  24.1034  24.2238  24.2284  24.4048
    24.5142  24.5175  24.5850  24.6521  24.6592  24.6737  24.6876  24.9162
    24.9176  25.0156  25.0234  25.0450  25.0472  25.0491  25.0635  25.0929
    25.2881  25.5757  25.9222  25.9240  26.0153  26.0355  26.5406  26.5663
    27.0201  27.0712  27.1517

          k = 0.0556 0.1660 0.2778 ( 30284 PWs)   bands (ev):

   -49.9934 -49.9417 -49.9209 -49.9006 -49.8872 -49.8827 -49.8726 -49.8676
   -49.8620 -49.8593 -49.8525 -49.8509 -49.8508 -49.8472 -49.8459 -49.8381
   -49.8364 -49.8340 -49.8284 -49.8276 -49.8239 -49.8188 -49.8121 -49.7987
   -49.7962 -49.7959 -49.7948 -49.7944 -49.7927 -49.7922 -49.7902 -49.7891
   -20.3761 -20.3724 -20.3543 -20.3380 -20.3109 -20.3071 -20.2992 -20.2269
   -20.2178 -20.1850 -20.1841 -20.1840 -20.1835 -20.1773 -20.1562 -20.1539
   -20.1529 -20.1357 -20.1348 -20.1267 -20.1236 -20.1227 -20.1209 -20.0994
   -20.0845 -20.0440 -20.0324 -20.0123 -20.0107 -19.9981 -19.9945 -19.9919
   -19.9748 -19.9641 -19.9368 -19.9279 -19.9101 -19.8741 -19.8654 -19.8358
   -19.8282 -19.8217 -19.7967 -19.7908 -19.7856 -19.7762 -19.7695 -19.7660
   -19.7640 -19.7640 -19.7561 -19.7457 -19.7373 -19.7338 -19.7309 -19.7290
   -19.7288 -19.7254 -19.6927 -19.6906 -19.6856 -19.6773 -19.6667 -19.6640
   -19.6241 -19.6236 -19.6216 -19.6174 -19.6113 -19.6089 -19.6061 -19.6031
   -19.5981 -19.5905 -19.5842 -19.5789 -19.5768 -19.5760 -19.5685 -19.5662
   -19.5638 -19.5635 -19.5582 -19.5581 -19.5491 -19.5454 -19.5428 -19.5281
   -19.5273 -19.5234 -19.5181 -19.5086 -19.4979 -19.4959 -19.4379 -19.4251
    15.5967  16.8976  17.0395  17.0608  17.0689  17.2378  17.3066  17.3787
    17.3914  17.4075  17.4669  17.5180  17.5488  17.6851  17.7110  17.8864
    17.9004  17.9254  17.9684  18.0678  18.1053  18.1913  18.1941  18.2260
    18.2555  18.2757  18.3717  18.3987  18.4157  18.4171  18.4313  18.4530
    18.5799  18.5969  18.6016  18.7098  18.7498  18.8146  18.8238  18.9897
    19.0007  19.0208  19.0564  19.1605  19.2009  19.2665  19.2714  19.3044
    19.3158  19.3692  19.4049  19.4412  19.5209  19.5213  19.5580  19.6270
    19.6455  19.6804  19.7947  19.9206  19.9654  19.9792  20.0114  20.0419
    20.0745  20.0907  20.1427  20.1593  20.2212  20.2292  20.2691  20.2742
    20.2914  20.3648  20.4174  20.4292  20.4378  20.4993  20.5177  20.5436
    20.5874  20.6446  20.6719  20.6763  20.6894  20.7077  20.9216  20.9222
    20.9702  21.0245  21.0326  21.2472  21.2525  21.2715  21.4163  21.4482
    21.5366  21.5522  21.6050  21.7192  21.7675  21.8188  21.8767  21.9825
    21.9989  22.0384  22.0795  22.1335  22.1696  22.1850  22.2835  22.3611
    22.3932  22.4743  22.4775  22.5109  22.5292  22.5536  22.6610  22.6703
    22.6713  22.6817  22.7756  22.8128  22.8692  22.9062  22.9760  22.9899
    23.0021  23.0317  23.0333  23.2140  23.3123  23.3131  23.3352  23.3517
    23.3853  23.5453  23.5547  23.5961  23.6095  23.6113  23.6534  23.6615
    23.6622  23.7458  23.8525  23.9458  24.1065  24.2211  24.3199  24.3376
    24.3665  24.4339  24.4578  24.5783  24.5849  24.5874  24.7306  24.7313
    24.8118  24.8156  24.8741  24.9109  25.0142  25.0263  25.0415  25.0467
    25.0991  25.4751  25.5271  25.8994  26.0384  26.3449  26.4300  26.5268
    26.5539  26.6134  27.5250

          k = 0.0556 0.1660 0.3889 ( 30286 PWs)   bands (ev):

   -49.9841 -49.9579 -49.9148 -49.8977 -49.8955 -49.8813 -49.8785 -49.8666
   -49.8639 -49.8603 -49.8554 -49.8535 -49.8499 -49.8474 -49.8368 -49.8347
   -49.8346 -49.8337 -49.8292 -49.8179 -49.8153 -49.8117 -49.8081 -49.8059
   -49.8012 -49.8008 -49.8000 -49.7958 -49.7941 -49.7932 -49.7899 -49.7893
   -20.3510 -20.3444 -20.3201 -20.3001 -20.2869 -20.2851 -20.2741 -20.2643
   -20.2638 -20.2318 -20.2232 -20.2192 -20.2059 -20.1816 -20.1759 -20.1626
   -20.1613 -20.1603 -20.1559 -20.1454 -20.1224 -20.1105 -20.1049 -20.0911
   -20.0635 -20.0509 -20.0467 -20.0259 -20.0253 -19.9941 -19.9703 -19.9671
   -19.9657 -19.9544 -19.9422 -19.9237 -19.9084 -19.8990 -19.8935 -19.8770
   -19.8550 -19.8223 -19.7683 -19.7653 -19.7644 -19.7643 -19.7627 -19.7599
   -19.7479 -19.7401 -19.7393 -19.7153 -19.7139 -19.7062 -19.7037 -19.7001
   -19.6962 -19.6947 -19.6861 -19.6812 -19.6608 -19.6592 -19.6590 -19.6496
   -19.6464 -19.6463 -19.6444 -19.6434 -19.6430 -19.6357 -19.6351 -19.6104
   -19.6089 -19.6035 -19.5882 -19.5862 -19.5810 -19.5809 -19.5802 -19.5748
   -19.5720 -19.5685 -19.5551 -19.5525 -19.5506 -19.5459 -19.5408 -19.5380
   -19.5301 -19.5215 -19.5093 -19.5000 -19.4952 -19.4808 -19.4542 -19.4379
    15.8400  16.5108  17.1792  17.2255  17.2483  17.3685  17.4525  17.5268
    17.5481  17.5680  17.5773  17.5977  17.6752  17.6996  17.7201  17.7376
    17.7877  17.8323  17.8981  17.8991  17.9882  18.0063  18.0632  18.0903
    18.1038  18.1180  18.2333  18.2715  18.2774  18.2861  18.4479  18.4792
    18.5485  18.5505  18.5792  18.6157  18.7142  18.9096  18.9115  18.9323
    18.9462  19.0449  19.0638  19.1015  19.1224  19.1597  19.1735  19.1902
    19.2279  19.2291  19.3687  19.3770  19.3818  19.4895  19.6527  19.6529
    19.6703  19.7263  19.9282  19.9330  19.9707  19.9962  20.0348  20.0450
    20.0546  20.0919  20.1272  20.1808  20.1840  20.2093  20.2522  20.2658
    20.3641  20.3829  20.3968  20.5837  20.6297  20.6821  20.7027  20.7180
    20.7750  20.8271  20.8314  20.8323  20.8337  20.8350  20.8383  20.8752
    20.9864  21.0544  21.1234  21.1532  21.1841  21.2023  21.2909  21.3214
    21.5290  21.6424  21.6916  21.7623  21.7669  21.8183  21.9300  21.9830
    22.0055  22.0343  22.0843  22.0878  22.0939  22.0990  22.1753  22.2424
    22.3055  22.3577  22.4572  22.4876  22.5050  22.5637  22.5918  22.6079
    22.6293  22.7295  22.7750  22.7784  22.8508  22.9036  22.9244  22.9776
    23.0335  23.0760  23.2054  23.2532  23.3009  23.3055  23.3751  23.3925
    23.5717  23.6024  23.6729  23.7653  23.8868  23.8898  23.9035  23.9163
    23.9402  23.9480  23.9633  24.0535  24.0725  24.1478  24.1518  24.2515
    24.3312  24.4224  24.4327  24.4878  24.4904  24.5005  24.5040  24.5159
    24.6473  24.6507  24.7139  24.9552  25.0144  25.0263  25.0293  25.0318
    25.0365  25.2170  25.5098  25.7253  25.7613  25.9229  26.0610  26.2612
    26.7533  27.0771  27.3527

          k = 0.0556 0.1660-0.5000 ( 30286 PWs)   bands (ev):

   -49.9723 -49.9720 -49.9071 -49.9069 -49.8891 -49.8889 -49.8732 -49.8729
   -49.8593 -49.8591 -49.8582 -49.8579 -49.8488 -49.8486 -49.8358 -49.8355
   -49.8313 -49.8311 -49.8203 -49.8201 -49.8087 -49.8085 -49.8077 -49.8075
   -49.8054 -49.8052 -49.8005 -49.8003 -49.7938 -49.7935 -49.7897 -49.7894
   -20.3164 -20.3164 -20.3077 -20.3076 -20.2785 -20.2784 -20.2570 -20.2568
   -20.2562 -20.2560 -20.2552 -20.2551 -20.2180 -20.2178 -20.1720 -20.1719
   -20.1635 -20.1634 -20.1626 -20.1626 -20.1096 -20.1096 -20.0846 -20.0845
   -20.0586 -20.0585 -20.0499 -20.0498 -20.0064 -20.0063 -19.9705 -19.9704
   -19.9405 -19.9404 -19.9290 -19.9288 -19.9218 -19.9218 -19.8871 -19.8870
   -19.8550 -19.8548 -19.7669 -19.7667 -19.7630 -19.7629 -19.7390 -19.7388
   -19.7195 -19.7193 -19.7144 -19.7142 -19.7090 -19.7089 -19.6898 -19.6897
   -19.6807 -19.6805 -19.6752 -19.6751 -19.6701 -19.6700 -19.6674 -19.6672
   -19.6672 -19.6671 -19.6394 -19.6393 -19.6327 -19.6325 -19.6135 -19.6133
   -19.6116 -19.6115 -19.5974 -19.5973 -19.5957 -19.5956 -19.5771 -19.5769
   -19.5721 -19.5719 -19.5649 -19.5648 -19.5527 -19.5525 -19.5338 -19.5336
   -19.5313 -19.5312 -19.4993 -19.4992 -19.4752 -19.4750 -19.4570 -19.4569
    16.1499  16.1499  17.3481  17.3481  17.4345  17.4345  17.4711  17.4711
    17.5527  17.5527  17.6505  17.6505  17.7221  17.7221  17.7564  17.7564
    17.7932  17.7932  17.8323  17.8323  17.9388  17.9389  17.9728  17.9728
    17.9810  17.9811  18.1446  18.1446  18.3240  18.3240  18.3735  18.3735
    18.6596  18.6597  18.6664  18.6664  18.7270  18.7270  18.8214  18.8214
    19.0581  19.0581  19.0979  19.0979  19.1239  19.1240  19.1628  19.1628
    19.2200  19.2200  19.2934  19.2934  19.3068  19.3068  19.7823  19.7823
    19.8370  19.8370  19.8448  19.8449  19.9151  19.9152  19.9590  19.9590
    20.1225  20.1225  20.1289  20.1290  20.3248  20.3249  20.3442  20.3443
    20.4127  20.4128  20.4437  20.4437  20.5113  20.5113  20.6876  20.6876
    20.7860  20.7860  20.8797  20.8797  20.9555  20.9556  20.9881  20.9882
    21.0195  21.0195  21.0423  21.0423  21.4591  21.4592  21.5012  21.5012
    21.5351  21.5351  21.5856  21.5856  21.7610  21.7611  21.7656  21.7657
    22.0195  22.0196  22.1746  22.1747  22.2171  22.2172  22.2776  22.2777
    22.2793  22.2795  22.3389  22.3390  22.4025  22.4026  22.5041  22.5043
    22.7032  22.7033  22.7220  22.7222  22.8290  22.8291  23.0794  23.0795
    23.1236  23.1236  23.1274  23.1275  23.1959  23.1960  23.6481  23.6483
    23.7288  23.7289  23.7439  23.7439  23.9620  23.9621  24.0196  24.0196
    24.1450  24.1452  24.1874  24.1874  24.1967  24.1968  24.2115  24.2116
    24.2129  24.2130  24.2208  24.2209  24.2346  24.2346  24.4255  24.4255
    24.5619  24.5619  24.9894  24.9894  25.0174  25.0176  25.0324  25.0326
    25.2760  25.2760  25.4952  25.4953  25.5024  25.5024  26.0349  26.0350
    27.0962  27.0963  27.5219

          k = 0.0556 0.2767 0.0556 ( 30285 PWs)   bands (ev):

   -49.9967 -49.9448 -49.9022 -49.9022 -49.8841 -49.8840 -49.8735 -49.8735
   -49.8598 -49.8598 -49.8536 -49.8526 -49.8476 -49.8432 -49.8432 -49.8427
   -49.8427 -49.8396 -49.8353 -49.8236 -49.8236 -49.8179 -49.8179 -49.8012
   -49.7951 -49.7951 -49.7941 -49.7940 -49.7890 -49.7889 -49.7885 -49.7885
   -20.3795 -20.3723 -20.3723 -20.3606 -20.3193 -20.3193 -20.3042 -20.2230
   -20.2088 -20.2088 -20.1881 -20.1871 -20.1871 -20.1509 -20.1509 -20.1454
   -20.1454 -20.1155 -20.1155 -20.0933 -20.0921 -20.0921 -20.0903 -20.0903
   -20.0542 -20.0542 -20.0510 -20.0510 -20.0156 -20.0156 -19.9779 -19.9779
   -19.9507 -19.9507 -19.9492 -19.9492 -19.9077 -19.9077 -19.9055 -19.9055
   -19.8113 -19.8113 -19.7900 -19.7798 -19.7798 -19.7729 -19.7728 -19.7579
   -19.7573 -19.7573 -19.7537 -19.7523 -19.7523 -19.7445 -19.7445 -19.7420
   -19.7420 -19.7235 -19.7149 -19.7149 -19.7058 -19.6711 -19.6691 -19.6373
   -19.6373 -19.6124 -19.6124 -19.6083 -19.6083 -19.6043 -19.6043 -19.6022
   -19.5910 -19.5910 -19.5896 -19.5895 -19.5738 -19.5617 -19.5570 -19.5570
   -19.5536 -19.5503 -19.5502 -19.5497 -19.5497 -19.5470 -19.5470 -19.5405
   -19.5335 -19.5196 -19.5196 -19.5192 -19.5179 -19.4710 -19.4324 -19.4300
    15.5134  16.8242  16.9769  17.0125  17.0125  17.2382  17.2899  17.2899
    17.3237  17.4094  17.4779  17.4779  17.6090  17.6940  17.6940  17.8770
    17.8770  17.8941  17.8941  18.0499  18.1558  18.2556  18.2556  18.3229
    18.3740  18.3741  18.4062  18.4062  18.4877  18.4877  18.5504  18.5504
    18.6656  18.6656  18.7044  18.7044  18.8266  18.8266  18.9188  18.9188
    19.0816  19.0817  19.2904  19.2904  19.3445  19.3445  19.3501  19.3501
    19.3616  19.3726  19.3726  19.4184  19.4185  19.5056  19.5056  19.6691
    19.6691  19.7099  19.7739  19.7739  19.8376  19.8376  19.9152  19.9152
    19.9339  19.9339  19.9978  19.9978  20.0027  20.1657  20.2329  20.2329
    20.2642  20.2642  20.2776  20.3346  20.5330  20.5771  20.5771  20.5804
    20.5943  20.5943  20.6055  20.6700  20.6754  20.7004  20.9988  20.9988
    21.0450  21.0450  21.0598  21.0598  21.2727  21.3837  21.3837  21.4178
    21.4217  21.4890  21.8134  21.8629  21.8629  22.0677  22.0677  22.0916
    22.0916  22.1302  22.1302  22.2055  22.2055  22.3248  22.3248  22.4215
    22.4215  22.5213  22.5559  22.5559  22.5611  22.5611  22.5919  22.5919
    22.6315  22.6415  22.6415  22.7196  22.7480  22.7480  22.8631  22.9266
    22.9266  22.9646  22.9924  22.9924  23.1414  23.2812  23.3432  23.3432
    23.3627  23.4190  23.4190  23.4691  23.4911  23.4911  23.5170  23.7302
    23.7302  23.8726  23.8726  24.1284  24.1382  24.1382  24.3143  24.3143
    24.3398  24.4746  24.4746  24.4864  24.5026  24.5649  24.7877  24.7877
    24.7902  24.7902  24.8538  25.1720  25.1720  25.1746  25.1746  25.3110
    25.5680  25.5680  25.7797  25.7797  25.8996  26.0700  26.0700  26.1274
    26.4352  26.9755  26.9755

          k = 0.0556 0.2767 0.1667 ( 30287 PWs)   bands (ev):

   -49.9935 -49.9424 -49.9201 -49.9006 -49.8870 -49.8827 -49.8726 -49.8661
   -49.8619 -49.8593 -49.8526 -49.8525 -49.8508 -49.8464 -49.8460 -49.8380
   -49.8365 -49.8338 -49.8292 -49.8277 -49.8241 -49.8187 -49.8123 -49.8010
   -49.7964 -49.7962 -49.7957 -49.7930 -49.7921 -49.7910 -49.7896 -49.7890
   -20.3762 -20.3730 -20.3546 -20.3384 -20.3111 -20.3085 -20.2979 -20.2297
   -20.2212 -20.1878 -20.1873 -20.1802 -20.1800 -20.1799 -20.1599 -20.1514
   -20.1509 -20.1352 -20.1338 -20.1266 -20.1238 -20.1205 -20.1166 -20.0982
   -20.0799 -20.0453 -20.0291 -20.0117 -20.0109 -19.9979 -19.9935 -19.9911
   -19.9691 -19.9683 -19.9436 -19.9267 -19.9096 -19.8736 -19.8619 -19.8366
   -19.8300 -19.8230 -19.8054 -19.7920 -19.7890 -19.7689 -19.7677 -19.7668
   -19.7623 -19.7622 -19.7527 -19.7468 -19.7397 -19.7338 -19.7328 -19.7305
   -19.7284 -19.7255 -19.6938 -19.6911 -19.6788 -19.6781 -19.6699 -19.6646
   -19.6270 -19.6251 -19.6218 -19.6200 -19.6121 -19.6106 -19.6090 -19.6068
   -19.5962 -19.5926 -19.5799 -19.5796 -19.5790 -19.5730 -19.5718 -19.5632
   -19.5629 -19.5623 -19.5618 -19.5539 -19.5482 -19.5455 -19.5389 -19.5254
   -19.5243 -19.5236 -19.5212 -19.5077 -19.4980 -19.4959 -19.4376 -19.4249
    15.5955  16.8879  17.0415  17.0594  17.0641  17.2375  17.3063  17.3883
    17.3910  17.4073  17.4695  17.5141  17.5493  17.6773  17.7100  17.8852
    17.9085  17.9142  17.9523  18.0667  18.0994  18.1898  18.2046  18.2261
    18.2540  18.2926  18.3687  18.3968  18.4148  18.4254  18.4293  18.4527
    18.5736  18.5957  18.6053  18.7099  18.7512  18.8177  18.8195  18.9913
    19.0068  19.0200  19.0631  19.1786  19.2004  19.2581  19.2805  19.3045
    19.3135  19.3702  19.3811  19.4443  19.5178  19.5261  19.5513  19.6251
    19.6503  19.6913  19.8097  19.9129  19.9488  19.9935  20.0245  20.0523
    20.0587  20.0939  20.1172  20.1606  20.2132  20.2408  20.2561  20.2679
    20.2819  20.3649  20.3886  20.4378  20.4427  20.5096  20.5346  20.5482
    20.6075  20.6691  20.6737  20.6838  20.6907  20.7086  20.9305  20.9345
    20.9764  21.0214  21.0504  21.2593  21.2734  21.2786  21.4398  21.4792
    21.5549  21.5696  21.5812  21.7112  21.7408  21.7995  21.8681  21.9689
    21.9841  22.0245  22.0752  22.1051  22.1638  22.1818  22.2764  22.3595
    22.3864  22.4728  22.4805  22.5133  22.5274  22.5492  22.6338  22.6606
    22.6759  22.6832  22.7761  22.7963  22.8638  22.9323  22.9657  22.9833
    22.9996  23.0264  23.0384  23.2271  23.3101  23.3140  23.3298  23.3785
    23.3834  23.5434  23.5570  23.6020  23.6036  23.6071  23.6377  23.6528
    23.6669  23.7434  23.8538  23.9397  24.1048  24.2189  24.3192  24.3462
    24.3512  24.4294  24.4523  24.5655  24.5787  24.5859  24.7291  24.7311
    24.7880  24.7945  24.8628  24.9279  25.0443  25.0506  25.0606  25.0655
    25.0988  25.4883  25.5122  25.9187  26.0176  26.3521  26.4541  26.5110
    26.5337  26.6148  27.5573

          k = 0.0556 0.2767 0.2778 ( 30269 PWs)   bands (ev):

   -49.9873 -49.9378 -49.9371 -49.8998 -49.8973 -49.8800 -49.8709 -49.8709
   -49.8582 -49.8581 -49.8571 -49.8507 -49.8490 -49.8490 -49.8346 -49.8337
   -49.8336 -49.8334 -49.8251 -49.8249 -49.8204 -49.8203 -49.8070 -49.8006
   -49.7991 -49.7989 -49.7983 -49.7973 -49.7957 -49.7920 -49.7915 -49.7894
   -20.3625 -20.3623 -20.3272 -20.3066 -20.2950 -20.2871 -20.2857 -20.2285
   -20.2263 -20.2251 -20.2220 -20.1879 -20.1852 -20.1661 -20.1638 -20.1597
   -20.1593 -20.1588 -20.1567 -20.1489 -20.1474 -20.1253 -20.1220 -20.1220
   -20.1081 -20.1068 -20.0284 -20.0208 -19.9953 -19.9923 -19.9731 -19.9728
   -19.9634 -19.9595 -19.9299 -19.9234 -19.8559 -19.8554 -19.8539 -19.8271
   -19.8259 -19.8242 -19.8200 -19.7939 -19.7853 -19.7666 -19.7659 -19.7548
   -19.7523 -19.7521 -19.7488 -19.7485 -19.7383 -19.7359 -19.7151 -19.7142
   -19.7010 -19.6958 -19.6955 -19.6944 -19.6608 -19.6606 -19.6577 -19.6561
   -19.6456 -19.6447 -19.6429 -19.6364 -19.6142 -19.6141 -19.6124 -19.6071
   -19.6040 -19.6037 -19.6028 -19.6004 -19.5756 -19.5755 -19.5745 -19.5736
   -19.5716 -19.5655 -19.5531 -19.5505 -19.5476 -19.5454 -19.5408 -19.5383
   -19.5338 -19.5243 -19.5212 -19.4941 -19.4935 -19.4831 -19.4489 -19.4249
    15.7570  17.0121  17.0202  17.1540  17.1640  17.1675  17.2884  17.3731
    17.5390  17.5392  17.5862  17.5891  17.6879  17.7415  17.8108  17.8167
    17.9060  17.9483  17.9562  17.9635  17.9857  17.9858  18.0662  18.0807
    18.1229  18.1234  18.1982  18.2035  18.4009  18.4813  18.4821  18.4964
    18.4995  18.5371  18.5384  18.6193  18.6248  18.7114  18.7115  18.7878
    18.7927  18.9136  19.0565  19.0583  19.1230  19.1272  19.1326  19.3653
    19.3685  19.3817  19.3838  19.4158  19.4181  19.4366  19.4916  19.8161
    19.8265  19.9240  19.9315  20.0108  20.0119  20.0743  20.0808  20.1109
    20.1241  20.1245  20.1439  20.2135  20.2448  20.3063  20.3171  20.3964
    20.4069  20.4521  20.4631  20.6053  20.6110  20.6146  20.6803  20.6885
    20.7032  20.7324  20.7419  20.7763  20.8057  20.8167  20.8202  20.8258
    20.9712  20.9806  21.0925  21.1104  21.3107  21.3386  21.4452  21.4736
    21.5052  21.5288  21.6056  21.6282  21.6345  21.7041  21.7292  21.7453
    21.7683  21.7832  21.9420  21.9614  22.1034  22.1241  22.1269  22.1343
    22.1355  22.2555  22.3268  22.4612  22.4624  22.5938  22.6201  22.6235
    22.9078  22.9151  22.9176  23.0385  23.0434  23.0628  23.0631  23.1718
    23.1750  23.1817  23.1930  23.2565  23.2668  23.3745  23.3754  23.3797
    23.3803  23.4282  23.4470  23.6949  23.7219  23.7224  23.7736  23.8636
    23.8691  23.8695  23.8904  23.8951  24.0473  24.0985  24.2728  24.2752
    24.4798  24.5949  24.5989  24.6232  24.6235  24.6242  24.6404  24.6590
    24.7928  24.8002  24.8165  24.8200  24.8445  24.8488  24.8496  24.8589
    24.9519  25.3116  25.4016  25.4160  25.9135  25.9332  26.9787  26.9799
    27.2118  27.2486  27.2843

          k = 0.0556 0.2767 0.3889 ( 30291 PWs)   bands (ev):

   -49.9783 -49.9528 -49.9309 -49.9116 -49.8925 -49.8791 -49.8760 -49.8684
   -49.8649 -49.8614 -49.8565 -49.8518 -49.8477 -49.8396 -49.8332 -49.8310
   -49.8294 -49.8267 -49.8227 -49.8217 -49.8168 -49.8138 -49.8075 -49.8036
   -49.8029 -49.8025 -49.8022 -49.8000 -49.7983 -49.7943 -49.7912 -49.7898
   -20.3415 -20.3384 -20.2915 -20.2714 -20.2714 -20.2677 -20.2667 -20.2659
   -20.2556 -20.2204 -20.2199 -20.2167 -20.2047 -20.2029 -20.1866 -20.1856
   -20.1835 -20.1710 -20.1673 -20.1650 -20.1466 -20.1397 -20.1272 -20.1178
   -20.1132 -20.0857 -20.0549 -20.0526 -20.0239 -19.9999 -19.9551 -19.9458
   -19.9350 -19.9131 -19.9104 -19.8869 -19.8861 -19.8807 -19.8626 -19.8567
   -19.8119 -19.8105 -19.7951 -19.7810 -19.7770 -19.7742 -19.7518 -19.7503
   -19.7447 -19.7383 -19.7374 -19.7298 -19.7204 -19.7171 -19.7073 -19.6994
   -19.6906 -19.6883 -19.6881 -19.6875 -19.6808 -19.6680 -19.6574 -19.6560
   -19.6509 -19.6451 -19.6332 -19.6307 -19.6300 -19.6245 -19.6238 -19.6226
   -19.6103 -19.6019 -19.5991 -19.5910 -19.5889 -19.5885 -19.5863 -19.5847
   -19.5814 -19.5656 -19.5639 -19.5572 -19.5562 -19.5542 -19.5539 -19.5419
   -19.5289 -19.5259 -19.5122 -19.4815 -19.4753 -19.4680 -19.4655 -19.4323
    15.9925  16.6430  17.1910  17.2966  17.3054  17.3486  17.3909  17.4899
    17.6571  17.6725  17.6930  17.7124  17.7177  17.7303  17.7438  17.7670
    17.7871  17.8272  17.8676  17.8855  17.9115  17.9424  18.0028  18.0045
    18.0227  18.0560  18.2026  18.2162  18.2298  18.2420  18.2882  18.3457
    18.4119  18.5114  18.5745  18.6344  18.6374  18.6382  18.6869  18.6896
    18.7825  18.8619  18.8959  18.9719  19.0122  19.1392  19.1405  19.1747
    19.2409  19.3349  19.4570  19.4585  19.4912  19.5069  19.6830  19.7267
    19.7605  19.7754  19.8628  20.0069  20.0888  20.0985  20.1753  20.2070
    20.2097  20.2301  20.2384  20.3427  20.3627  20.3789  20.4034  20.4986
    20.5030  20.5767  20.6026  20.6191  20.6217  20.6532  20.7109  20.7792
    20.8047  20.8113  20.8727  20.8782  20.8887  20.9576  20.9996  21.0011
    21.0028  21.0844  21.0870  21.1103  21.1862  21.2519  21.3061  21.4178
    21.4719  21.4787  21.5063  21.5472  21.5654  21.5880  21.6215  21.6230
    21.7301  21.7465  21.7688  21.8208  21.9522  21.9752  21.9982  22.0482
    22.1533  22.1579  22.3270  22.3516  22.4694  22.5069  22.5776  22.6791
    22.8125  22.8440  22.8525  22.9003  22.9748  23.0616  23.1274  23.1388
    23.2167  23.2444  23.2988  23.3985  23.4106  23.4272  23.4978  23.5591
    23.6087  23.6171  23.7640  23.7689  23.7713  23.8136  23.9914  24.0356
    24.0595  24.0700  24.1104  24.1171  24.1265  24.1371  24.1414  24.1876
    24.2531  24.4037  24.4769  24.4832  24.4834  24.5105  24.5156  24.5168
    24.5383  24.6065  24.7955  24.8051  24.8071  24.8279  24.8748  24.9265
    25.2392  25.3593  25.3799  25.4107  25.4386  25.7610  26.6375  26.6387
    27.4081  27.5863  27.8821

          k = 0.0556 0.2767-0.5000 ( 30302 PWs)   bands (ev):

   -49.9668 -49.9665 -49.9222 -49.9220 -49.8865 -49.8863 -49.8711 -49.8709
   -49.8653 -49.8651 -49.8544 -49.8542 -49.8441 -49.8439 -49.8287 -49.8285
   -49.8259 -49.8256 -49.8193 -49.8191 -49.8114 -49.8111 -49.8097 -49.8095
   -49.8080 -49.8077 -49.7993 -49.7991 -49.7980 -49.7977 -49.7906 -49.7903
   -20.3107 -20.3107 -20.3057 -20.3056 -20.2492 -20.2491 -20.2446 -20.2444
   -20.2411 -20.2409 -20.2206 -20.2205 -20.2147 -20.2145 -20.2073 -20.2073
   -20.2045 -20.2045 -20.1793 -20.1792 -20.1294 -20.1292 -20.1249 -20.1248
   -20.0915 -20.0914 -20.0476 -20.0476 -20.0431 -20.0431 -19.9194 -19.9193
   -19.9171 -19.9170 -19.8984 -19.8984 -19.8858 -19.8856 -19.8619 -19.8619
   -19.8427 -19.8425 -19.7555 -19.7553 -19.7514 -19.7512 -19.7465 -19.7463
   -19.7403 -19.7402 -19.7386 -19.7385 -19.7246 -19.7245 -19.7150 -19.7148
   -19.6871 -19.6869 -19.6801 -19.6800 -19.6617 -19.6616 -19.6594 -19.6593
   -19.6439 -19.6437 -19.6372 -19.6371 -19.6335 -19.6334 -19.6212 -19.6211
   -19.6091 -19.6089 -19.5951 -19.5949 -19.5929 -19.5927 -19.5917 -19.5915
   -19.5815 -19.5813 -19.5706 -19.5705 -19.5586 -19.5583 -19.5375 -19.5374
   -19.5349 -19.5347 -19.4869 -19.4867 -19.4750 -19.4749 -19.4470 -19.4470
    16.2927  16.2927  17.4152  17.4152  17.4762  17.4762  17.4850  17.4850
    17.5435  17.5435  17.5742  17.5742  17.6553  17.6553  17.8332  17.8333
    17.8446  17.8446  17.9401  17.9401  17.9592  17.9592  17.9939  17.9939
    18.0010  18.0011  18.1169  18.1169  18.1314  18.1315  18.2418  18.2418
    18.4306  18.4306  18.5411  18.5412  18.6519  18.6519  18.7747  18.7747
    18.7767  18.7767  18.9258  18.9259  19.0253  19.0253  19.0448  19.0449
    19.4176  19.4176  19.4920  19.4920  19.5853  19.5854  19.5969  19.5969
    19.6266  19.6267  19.9055  19.9056  20.1584  20.1585  20.2483  20.2484
    20.2700  20.2700  20.3725  20.3725  20.3804  20.3804  20.4187  20.4187
    20.5042  20.5042  20.6410  20.6411  20.7673  20.7673  20.8388  20.8388
    20.8581  20.8581  20.9238  20.9238  20.9689  20.9689  20.9866  20.9867
    21.1728  21.1728  21.1800  21.1800  21.2026  21.2026  21.2176  21.2176
    21.3826  21.3827  21.3931  21.3931  21.4984  21.4985  21.5070  21.5070
    21.7150  21.7151  21.9240  21.9241  22.0858  22.0859  22.1218  22.1219
    22.1525  22.1526  22.1936  22.1937  22.2991  22.2992  22.4847  22.4848
    22.6766  22.6767  22.9928  22.9929  23.0332  23.0334  23.0903  23.0904
    23.2382  23.2383  23.4882  23.4884  23.5290  23.5291  23.6429  23.6430
    23.7349  23.7350  23.8139  23.8140  23.8950  23.8950  23.8962  23.8962
    24.1510  24.1510  24.1517  24.1519  24.2526  24.2527  24.3140  24.3141
    24.3142  24.3143  24.3426  24.3426  24.3534  24.3534  24.3543  24.3544
    24.4626  24.4626  24.8159  24.8160  24.8297  24.8298  24.8927  24.8927
    25.0318  25.0320  25.5710  25.5711  25.9729  25.9730  26.0422  26.0423
    27.7636  27.7636  28.0931

          k = 0.0556 0.3874 0.0556 ( 30265 PWs)   bands (ev):

   -49.9873 -49.9610 -49.8971 -49.8970 -49.8825 -49.8825 -49.8797 -49.8797
   -49.8674 -49.8674 -49.8517 -49.8491 -49.8432 -49.8431 -49.8428 -49.8427
   -49.8382 -49.8373 -49.8361 -49.8147 -49.8147 -49.8107 -49.8104 -49.8104
   -49.8002 -49.8002 -49.7983 -49.7983 -49.7890 -49.7889 -49.7886 -49.7886
   -20.3512 -20.3409 -20.3409 -20.3259 -20.2957 -20.2957 -20.2703 -20.2668
   -20.2562 -20.2562 -20.2364 -20.2286 -20.2286 -20.1600 -20.1499 -20.1499
   -20.1367 -20.1367 -20.1305 -20.1305 -20.1053 -20.1053 -20.0651 -20.0651
   -20.0371 -20.0371 -20.0186 -20.0186 -20.0055 -20.0055 -19.9950 -19.9950
   -19.9836 -19.9836 -19.9427 -19.9427 -19.9394 -19.9394 -19.9077 -19.9077
   -19.8370 -19.8370 -19.7780 -19.7780 -19.7742 -19.7742 -19.7423 -19.7385
   -19.7370 -19.7166 -19.7165 -19.7122 -19.7122 -19.7092 -19.7092 -19.7090
   -19.7089 -19.6983 -19.6956 -19.6805 -19.6805 -19.6791 -19.6582 -19.6582
   -19.6421 -19.6421 -19.6415 -19.6415 -19.6400 -19.6337 -19.6244 -19.6244
   -19.6220 -19.6219 -19.6010 -19.5761 -19.5761 -19.5603 -19.5561 -19.5523
   -19.5523 -19.5502 -19.5502 -19.5498 -19.5497 -19.5418 -19.5418 -19.5383
   -19.5347 -19.5214 -19.5214 -19.5142 -19.4922 -19.4903 -19.4481 -19.4456
    15.7589  16.4352  17.1139  17.1887  17.1887  17.3903  17.4543  17.4572
    17.4573  17.5058  17.5202  17.6513  17.6513  17.6609  17.6609  17.8429
    17.8535  17.8615  17.8615  17.9449  17.9449  18.0127  18.0548  18.0548
    18.1995  18.1995  18.2808  18.2808  18.4963  18.4963  18.4982  18.4982
    18.5684  18.5684  18.7465  18.7465  18.7789  18.7789  18.9913  18.9913
    19.0098  19.0098  19.0999  19.0999  19.2475  19.2475  19.2841  19.2841
    19.3210  19.3210  19.3894  19.3894  19.4030  19.4030  19.6309  19.6514
    19.6514  19.6973  19.6973  19.8062  19.9327  19.9327  19.9353  19.9353
    19.9421  19.9421  20.0468  20.1001  20.1020  20.1391  20.1391  20.1761
    20.1761  20.2712  20.3722  20.3722  20.6593  20.7196  20.7196  20.7248
    20.7248  20.7441  20.7441  20.7577  20.8101  20.8139  21.0333  21.0333
    21.0358  21.0933  21.1733  21.1849  21.2046  21.2046  21.2102  21.2227
    21.6740  21.6740  21.9789  21.9848  21.9848  22.0547  22.0547  22.1978
    22.1978  22.2034  22.2525  22.2577  22.2577  22.3050  22.3050  22.3381
    22.3381  22.3888  22.3888  22.3974  22.3974  22.4400  22.5189  22.5189
    22.5508  22.5508  22.5785  22.5785  22.6647  22.6647  22.8828  22.8828
    23.0268  23.0268  23.0347  23.1191  23.2359  23.3374  23.3374  23.4751
    23.6664  23.6664  23.6746  23.7711  23.7743  23.7743  23.8123  23.8123
    24.0331  24.0347  24.0347  24.0921  24.1866  24.1920  24.1920  24.2514
    24.2514  24.2839  24.3080  24.3215  24.4850  24.4851  24.4875  24.4875
    24.5442  24.5442  24.6284  25.0758  25.0758  25.1726  25.1726  25.1740
    25.1740  25.2640  25.5444  25.5444  25.6823  26.1857  26.1857  26.2506
    26.6186  26.7890  26.7890

          k = 0.0556 0.3874 0.1667 ( 30250 PWs)   bands (ev):

   -49.9843 -49.9584 -49.9141 -49.8973 -49.8955 -49.8813 -49.8785 -49.8666
   -49.8626 -49.8602 -49.8554 -49.8525 -49.8499 -49.8474 -49.8367 -49.8365
   -49.8345 -49.8337 -49.8293 -49.8189 -49.8154 -49.8115 -49.8103 -49.8063
   -49.8021 -49.8014 -49.7998 -49.7965 -49.7919 -49.7913 -49.7894 -49.7891
   -20.3515 -20.3454 -20.3208 -20.3010 -20.2876 -20.2869 -20.2758 -20.2667
   -20.2625 -20.2341 -20.2256 -20.2211 -20.2085 -20.1781 -20.1733 -20.1613
   -20.1596 -20.1577 -20.1541 -20.1446 -20.1214 -20.1080 -20.1062 -20.0874
   -20.0648 -20.0484 -20.0427 -20.0243 -20.0232 -19.9931 -19.9698 -19.9675
   -19.9634 -19.9491 -19.9413 -19.9279 -19.9077 -19.9010 -19.8948 -19.8778
   -19.8580 -19.8308 -19.7687 -19.7673 -19.7664 -19.7605 -19.7598 -19.7520
   -19.7516 -19.7411 -19.7369 -19.7161 -19.7079 -19.7064 -19.7049 -19.7029
   -19.6982 -19.6923 -19.6915 -19.6826 -19.6621 -19.6619 -19.6585 -19.6513
   -19.6480 -19.6469 -19.6456 -19.6450 -19.6447 -19.6393 -19.6387 -19.6115
   -19.6108 -19.6067 -19.5910 -19.5867 -19.5835 -19.5802 -19.5766 -19.5712
   -19.5683 -19.5662 -19.5543 -19.5511 -19.5469 -19.5461 -19.5406 -19.5340
   -19.5263 -19.5237 -19.5100 -19.4980 -19.4954 -19.4801 -19.4535 -19.4376
    15.8370  16.5033  17.1793  17.2224  17.2412  17.3678  17.4518  17.5218
    17.5552  17.5670  17.5785  17.5971  17.6673  17.6952  17.7071  17.7388
    17.7864  17.8302  17.8961  17.8967  17.9898  18.0040  18.0608  18.0954
    18.1022  18.1154  18.2276  18.2741  18.2829  18.2839  18.4623  18.4782
    18.5451  18.5577  18.5773  18.6140  18.7116  18.9143  18.9187  18.9344
    18.9492  19.0496  19.0616  19.1059  19.1261  19.1605  19.1793  19.1860
    19.2278  19.2443  19.3771  19.3808  19.3891  19.4970  19.6431  19.6435
    19.6516  19.7237  19.9134  19.9332  19.9692  20.0059  20.0268  20.0304
    20.0686  20.0977  20.1098  20.1867  20.1948  20.1990  20.2266  20.2686
    20.3512  20.3813  20.4036  20.6025  20.6649  20.6928  20.7167  20.7445
    20.8071  20.8280  20.8335  20.8356  20.8579  20.8582  20.8593  20.8844
    20.9710  21.0777  21.1143  21.1534  21.2164  21.2283  21.3168  21.3453
    21.5429  21.6299  21.6684  21.7391  21.7530  21.8034  21.9119  21.9861
    22.0057  22.0363  22.0553  22.0831  22.0882  22.0896  22.1635  22.2297
    22.2920  22.3538  22.4517  22.4542  22.4972  22.5567  22.5832  22.6059
    22.6094  22.7191  22.7603  22.7741  22.8648  22.8946  22.9107  23.0088
    23.0298  23.0705  23.2348  23.2473  23.2954  23.2967  23.3701  23.3918
    23.5612  23.6100  23.6688  23.7597  23.8805  23.8821  23.9062  23.9107
    23.9331  23.9479  23.9577  24.0507  24.0614  24.1469  24.1475  24.2484
    24.3183  24.4218  24.4254  24.4867  24.4869  24.4883  24.4946  24.4983
    24.6443  24.6463  24.7119  24.9538  25.0222  25.0446  25.0522  25.0527
    25.0570  25.2339  25.4939  25.7436  25.7785  25.8914  26.0621  26.2831
    26.7679  27.0900  27.3802

          k = 0.0556 0.3874 0.2778 ( 30291 PWs)   bands (ev):

   -49.9784 -49.9532 -49.9304 -49.9114 -49.8925 -49.8791 -49.8760 -49.8684
   -49.8649 -49.8614 -49.8565 -49.8518 -49.8462 -49.8383 -49.8350 -49.8308
   -49.8295 -49.8265 -49.8229 -49.8228 -49.8170 -49.8136 -49.8096 -49.8040
   -49.8038 -49.8027 -49.8023 -49.7978 -49.7965 -49.7947 -49.7908 -49.7897
   -20.3416 -20.3391 -20.2919 -20.2728 -20.2718 -20.2694 -20.2680 -20.2673
   -20.2542 -20.2191 -20.2183 -20.2179 -20.2063 -20.2049 -20.1855 -20.1834
   -20.1832 -20.1732 -20.1655 -20.1636 -20.1447 -20.1412 -20.1246 -20.1193
   -20.1126 -20.0829 -20.0539 -20.0519 -20.0219 -19.9987 -19.9577 -19.9450
   -19.9349 -19.9134 -19.9042 -19.8879 -19.8872 -19.8855 -19.8616 -19.8517
   -19.8188 -19.8125 -19.7971 -19.7860 -19.7756 -19.7687 -19.7538 -19.7507
   -19.7436 -19.7361 -19.7350 -19.7234 -19.7225 -19.7205 -19.7088 -19.6990
   -19.6909 -19.6904 -19.6894 -19.6862 -19.6813 -19.6687 -19.6583 -19.6564
   -19.6508 -19.6464 -19.6338 -19.6333 -19.6332 -19.6259 -19.6252 -19.6230
   -19.6111 -19.5979 -19.5963 -19.5938 -19.5896 -19.5881 -19.5840 -19.5838
   -19.5813 -19.5687 -19.5605 -19.5592 -19.5582 -19.5545 -19.5509 -19.5384
   -19.5283 -19.5256 -19.5105 -19.4820 -19.4755 -19.4675 -19.4651 -19.4321
    15.9908  16.6369  17.1969  17.2951  17.3070  17.3429  17.3905  17.4895
    17.6537  17.6739  17.6946  17.7074  17.7169  17.7301  17.7432  17.7636
    17.7863  17.8157  17.8668  17.8859  17.9108  17.9417  18.0019  18.0060
    18.0263  18.0556  18.2002  18.2154  18.2419  18.2422  18.2835  18.3501
    18.4120  18.5087  18.5732  18.6308  18.6406  18.6455  18.6905  18.6912
    18.7834  18.8652  18.8978  18.9731  19.0124  19.1358  19.1415  19.1766
    19.2445  19.3365  19.4533  19.4734  19.4928  19.5119  19.6607  19.7262
    19.7523  19.7785  19.8669  20.0003  20.0733  20.0877  20.1756  20.1996
    20.2204  20.2374  20.2562  20.3189  20.3722  20.3870  20.3978  20.4961
    20.5086  20.5671  20.6044  20.6175  20.6286  20.6618  20.7289  20.7902
    20.8217  20.8226  20.8641  20.8734  20.8957  20.9769  20.9905  20.9980
    21.0130  21.0773  21.1177  21.1294  21.2147  21.2787  21.3169  21.3928
    21.4559  21.4911  21.5237  21.5373  21.5573  21.5783  21.6013  21.6253
    21.7313  21.7482  21.7694  21.8134  21.9398  21.9678  21.9864  22.0297
    22.1379  22.1507  22.3239  22.3469  22.4517  22.5060  22.5893  22.6724
    22.8162  22.8376  22.8514  22.8889  22.9918  23.0575  23.1222  23.1296
    23.2094  23.2655  23.2942  23.3982  23.4104  23.4265  23.4974  23.5644
    23.6075  23.6080  23.7641  23.7645  23.7668  23.8108  23.9873  24.0367
    24.0563  24.0698  24.1060  24.1130  24.1299  24.1380  24.1382  24.1770
    24.2521  24.3983  24.4670  24.4812  24.4826  24.4961  24.5115  24.5188
    24.5217  24.5972  24.8094  24.8256  24.8275  24.8439  24.8872  24.9171
    25.2532  25.3527  25.3926  25.3955  25.4408  25.7793  26.6124  26.6413
    27.4184  27.5926  27.8740

          k = 0.0556 0.3874 0.3889 ( 30295 PWs)   bands (ev):

   -49.9697 -49.9457 -49.9454 -49.9245 -49.8882 -49.8759 -49.8759 -49.8725
   -49.8669 -49.8626 -49.8625 -49.8559 -49.8328 -49.8311 -49.8267 -49.8256
   -49.8255 -49.8252 -49.8192 -49.8191 -49.8169 -49.8167 -49.8086 -49.8072
   -49.8070 -49.8065 -49.8057 -49.8040 -49.7987 -49.7932 -49.7929 -49.7906
   -20.3224 -20.3220 -20.2613 -20.2605 -20.2597 -20.2581 -20.2554 -20.2487
   -20.2434 -20.2418 -20.2261 -20.2165 -20.2160 -20.2082 -20.2060 -20.1849
   -20.1838 -20.1701 -20.1698 -20.1686 -20.1680 -20.1678 -20.1662 -20.1323
   -20.1306 -20.1295 -20.0915 -20.0464 -20.0419 -19.9901 -19.9886 -19.9198
   -19.8984 -19.8979 -19.8692 -19.8623 -19.8575 -19.8292 -19.8275 -19.8174
   -19.8130 -19.8121 -19.8117 -19.8014 -19.7934 -19.7529 -19.7484 -19.7480
   -19.7459 -19.7341 -19.7323 -19.7298 -19.7253 -19.7250 -19.7237 -19.7230
   -19.7125 -19.7113 -19.6793 -19.6779 -19.6721 -19.6711 -19.6704 -19.6595
   -19.6592 -19.6365 -19.6359 -19.6310 -19.6255 -19.6248 -19.6232 -19.6224
   -19.6067 -19.6032 -19.6021 -19.6005 -19.5996 -19.5956 -19.5857 -19.5797
   -19.5753 -19.5697 -19.5641 -19.5640 -19.5619 -19.5576 -19.5499 -19.5351
   -19.5325 -19.5299 -19.5286 -19.4821 -19.4625 -19.4593 -19.4589 -19.4336
    16.2149  16.8307  16.8348  17.3626  17.4121  17.4584  17.4869  17.4908
    17.5700  17.7231  17.7232  17.7479  17.7807  17.7831  17.8439  17.8448
    17.8552  17.8554  17.8650  17.8671  17.8922  17.9031  17.9036  17.9702
    17.9797  18.0462  18.0890  18.1595  18.1614  18.3508  18.3524  18.3528
    18.3554  18.3600  18.3624  18.3666  18.3702  18.5981  18.5997  18.6172
    18.6178  18.6676  18.6723  18.9199  18.9237  19.0416  19.2532  19.2563
    19.2584  19.2614  19.4260  19.5794  19.5840  19.6033  19.6154  19.6703
    19.6857  19.9996  20.0166  20.0172  20.1866  20.2765  20.2777  20.3992
    20.4008  20.4092  20.4105  20.4141  20.4161  20.4365  20.4433  20.4532
    20.5377  20.5843  20.7291  20.7389  20.8239  20.8306  20.8316  20.8870
    20.9000  20.9156  20.9295  20.9456  21.0109  21.0206  21.0292  21.0379
    21.1622  21.1863  21.1975  21.1981  21.2095  21.2124  21.2324  21.2762
    21.3355  21.3555  21.3895  21.3959  21.3979  21.4061  21.4550  21.4611
    21.4678  21.4831  21.6086  21.6870  21.6987  21.7184  21.7289  21.9902
    22.1483  22.1487  22.1526  22.1550  22.2348  22.2460  22.3192  22.3855
    22.7057  23.0415  23.0783  23.0823  23.1010  23.1044  23.3690  23.3756
    23.3791  23.3795  23.4786  23.4817  23.5391  23.5392  23.6062  23.6462
    23.7899  23.7934  23.8977  23.9220  23.9264  23.9400  23.9431  23.9474
    23.9504  24.0335  24.1400  24.2424  24.2761  24.2945  24.2956  24.2960
    24.2992  24.3475  24.4093  24.4598  24.4598  24.5082  24.5189  24.5214
    24.5214  24.5536  24.5546  24.5640  24.5653  24.5778  24.7404  24.7657
    24.7750  25.1010  25.2579  25.2721  26.0088  26.0167  27.2819  27.2901
    27.3418  27.3656  28.0831

          k = 0.0556 0.3874-0.5000 ( 30286 PWs)   bands (ev):

   -49.9588 -49.9585 -49.9362 -49.9359 -49.8827 -49.8824 -49.8719 -49.8717
   -49.8681 -49.8678 -49.8596 -49.8594 -49.8302 -49.8299 -49.8222 -49.8220
   -49.8208 -49.8206 -49.8179 -49.8176 -49.8138 -49.8136 -49.8126 -49.8124
   -49.8117 -49.8115 -49.8074 -49.8072 -49.7957 -49.7954 -49.7919 -49.7916
   -20.2958 -20.2958 -20.2937 -20.2936 -20.2424 -20.2423 -20.2420 -20.2419
   -20.2258 -20.2256 -20.2191 -20.2189 -20.2135 -20.2134 -20.2095 -20.2093
   -20.1921 -20.1919 -20.1797 -20.1796 -20.1680 -20.1679 -20.1583 -20.1581
   -20.1315 -20.1314 -20.0877 -20.0876 -20.0211 -20.0211 -19.9540 -19.9540
   -19.8630 -19.8629 -19.8538 -19.8537 -19.8455 -19.8453 -19.8250 -19.8248
   -19.8017 -19.8017 -19.7793 -19.7791 -19.7761 -19.7759 -19.7725 -19.7724
   -19.7651 -19.7651 -19.7291 -19.7289 -19.7194 -19.7194 -19.7090 -19.7088
   -19.6944 -19.6942 -19.6889 -19.6889 -19.6873 -19.6872 -19.6686 -19.6684
   -19.6492 -19.6490 -19.6476 -19.6475 -19.6179 -19.6177 -19.6145 -19.6144
   -19.6136 -19.6135 -19.6056 -19.6055 -19.5838 -19.5836 -19.5787 -19.5786
   -19.5744 -19.5743 -19.5714 -19.5712 -19.5521 -19.5519 -19.5466 -19.5465
   -19.5440 -19.5437 -19.5040 -19.5038 -19.4570 -19.4570 -19.4428 -19.4428
    16.5007  16.5007  17.0764  17.0765  17.5701  17.5702  17.5755  17.5755
    17.6610  17.6610  17.6925  17.6925  17.7204  17.7204  17.7253  17.7253
    17.8632  17.8632  17.8926  17.8926  17.9983  17.9983  18.0823  18.0824
    18.0936  18.0936  18.1153  18.1153  18.1190  18.1190  18.1571  18.1572
    18.3331  18.3331  18.3666  18.3667  18.4771  18.4772  18.5119  18.5120
    18.5313  18.5313  18.8153  18.8154  19.0533  19.0534  19.0639  19.0639
    19.4031  19.4032  19.4102  19.4103  19.6553  19.6554  19.7395  19.7395
    19.8666  19.8666  19.9392  19.9392  20.1421  20.1422  20.3981  20.3982
    20.4408  20.4408  20.4962  20.4962  20.5761  20.5761  20.6274  20.6274
    20.7397  20.7398  20.7646  20.7647  20.7894  20.7895  20.9361  20.9362
    20.9587  20.9587  20.9815  20.9815  20.9891  20.9892  21.0189  21.0189
    21.0968  21.0968  21.1181  21.1182  21.1466  21.1466  21.1814  21.1814
    21.2799  21.2800  21.2889  21.2890  21.4373  21.4373  21.4591  21.4592
    21.4613  21.4613  21.6120  21.6121  21.8674  21.8675  21.8810  21.8811
    21.9246  21.9246  21.9437  21.9437  22.0837  22.0838  22.2629  22.2631
    22.9058  22.9060  23.1744  23.1745  23.2844  23.2845  23.3277  23.3279
    23.3569  23.3571  23.5978  23.5979  23.6676  23.6678  23.6840  23.6842
    23.7645  23.7646  23.8448  23.8449  23.9620  23.9620  24.0959  24.0961
    24.1690  24.1691  24.2584  24.2585  24.3236  24.3236  24.3252  24.3252
    24.3400  24.3400  24.4020  24.4020  24.4053  24.4054  24.4397  24.4398
    24.4421  24.4422  24.5263  24.5265  24.5781  24.5783  24.6337  24.6337
    24.7630  24.7630  25.1111  25.1112  26.6565  26.6566  26.6705  26.6706
    28.0043  28.0044  28.0566

          k = 0.0556-0.4981 0.0556 ( 30268 PWs)   bands (ev):

   -49.9754 -49.9752 -49.8905 -49.8905 -49.8903 -49.8903 -49.8742 -49.8742
   -49.8739 -49.8739 -49.8506 -49.8504 -49.8431 -49.8431 -49.8428 -49.8428
   -49.8372 -49.8369 -49.8230 -49.8227 -49.8069 -49.8069 -49.8067 -49.8067
   -49.8040 -49.8040 -49.8037 -49.8037 -49.7890 -49.7889 -49.7886 -49.7886
   -20.3142 -20.3141 -20.3015 -20.3015 -20.3013 -20.3013 -20.2837 -20.2836
   -20.2653 -20.2653 -20.2651 -20.2651 -20.2184 -20.2182 -20.1428 -20.1427
   -20.1426 -20.1426 -20.1227 -20.1226 -20.1226 -20.1226 -20.0356 -20.0356
   -20.0355 -20.0355 -20.0135 -20.0135 -20.0134 -20.0133 -19.9807 -19.9807
   -19.9806 -19.9806 -19.9695 -19.9695 -19.9693 -19.9693 -19.8695 -19.8695
   -19.8693 -19.8693 -19.7763 -19.7762 -19.7760 -19.7760 -19.7223 -19.7221
   -19.7190 -19.7188 -19.6857 -19.6856 -19.6849 -19.6849 -19.6847 -19.6847
   -19.6769 -19.6769 -19.6768 -19.6768 -19.6750 -19.6750 -19.6749 -19.6749
   -19.6627 -19.6627 -19.6625 -19.6625 -19.6501 -19.6501 -19.6500 -19.6500
   -19.6370 -19.6369 -19.5691 -19.5689 -19.5625 -19.5625 -19.5624 -19.5624
   -19.5585 -19.5583 -19.5501 -19.5501 -19.5498 -19.5498 -19.5364 -19.5362
   -19.5293 -19.5293 -19.5292 -19.5292 -19.4684 -19.4682 -19.4660 -19.4659
    16.0713  16.0717  17.2793  17.2795  17.4073  17.4073  17.4075  17.4075
    17.5965  17.5965  17.6653  17.6655  17.6767  17.6767  17.6769  17.6769
    17.7372  17.7373  17.9021  17.9021  17.9023  17.9023  18.0638  18.0638
    18.0641  18.0641  18.2698  18.2698  18.2701  18.2701  18.6301  18.6301
    18.6302  18.6302  18.7718  18.7719  18.7720  18.7720  18.9253  18.9253
    18.9254  18.9254  19.1222  19.1222  19.1224  19.1224  19.3277  19.3278
    19.3278  19.3278  19.3517  19.3517  19.3517  19.3517  19.6550  19.6550
    19.6551  19.6551  19.8808  19.8809  19.9226  19.9227  19.9439  19.9439
    19.9440  19.9441  20.0354  20.0355  20.0355  20.0356  20.1907  20.1908
    20.4245  20.4245  20.4246  20.4246  20.5318  20.5319  20.5319  20.5319
    20.8285  20.8285  20.8992  20.8992  20.8993  20.8994  20.9492  20.9493
    20.9926  20.9928  20.9968  20.9970  21.6528  21.6529  21.6530  21.6531
    21.6579  21.6580  21.6892  21.6892  22.0365  22.0365  22.0366  22.0366
    22.2122  22.2123  22.3369  22.3369  22.3371  22.3371  22.3542  22.3543
    22.3544  22.3544  22.4379  22.4379  22.4380  22.4380  22.4461  22.4461
    22.4462  22.4462  22.5150  22.5150  22.5151  22.5151  22.7658  22.7658
    22.7659  22.7659  23.1257  23.1259  23.6974  23.6976  23.6984  23.6985
    23.6986  23.6986  23.7983  23.7984  23.9761  23.9761  23.9762  23.9762
    24.0381  24.0381  24.0582  24.0583  24.1371  24.1371  24.1372  24.1372
    24.1523  24.1523  24.1524  24.1524  24.4420  24.4421  24.6085  24.6085
    24.6085  24.6085  24.6184  24.6186  25.0284  25.0284  25.0285  25.0285
    25.1731  25.1732  25.1733  25.1734  25.9989  25.9991  26.5260  26.5260
    26.5262  26.5262  27.0162

          k = 0.0556-0.4981 0.1667 ( 30272 PWs)   bands (ev):

   -49.9726 -49.9724 -49.9066 -49.9063 -49.8892 -49.8889 -49.8731 -49.8729
   -49.8581 -49.8581 -49.8579 -49.8578 -49.8489 -49.8486 -49.8356 -49.8354
   -49.8314 -49.8312 -49.8224 -49.8222 -49.8099 -49.8097 -49.8079 -49.8077
   -49.8053 -49.8050 -49.8011 -49.8008 -49.7917 -49.7915 -49.7894 -49.7891
   -20.3175 -20.3174 -20.3093 -20.3092 -20.2798 -20.2797 -20.2590 -20.2589
   -20.2574 -20.2572 -20.2568 -20.2568 -20.2167 -20.2165 -20.1693 -20.1693
   -20.1614 -20.1612 -20.1609 -20.1609 -20.1079 -20.1079 -20.0860 -20.0858
   -20.0556 -20.0555 -20.0478 -20.0477 -20.0031 -20.0030 -19.9695 -19.9694
   -19.9399 -19.9398 -19.9242 -19.9240 -19.9225 -19.9224 -19.8909 -19.8908
   -19.8630 -19.8629 -19.7681 -19.7679 -19.7596 -19.7594 -19.7311 -19.7309
   -19.7193 -19.7191 -19.7168 -19.7166 -19.7116 -19.7115 -19.6919 -19.6918
   -19.6812 -19.6811 -19.6762 -19.6761 -19.6723 -19.6722 -19.6708 -19.6707
   -19.6698 -19.6696 -19.6418 -19.6417 -19.6343 -19.6342 -19.6158 -19.6156
   -19.6142 -19.6141 -19.5981 -19.5979 -19.5954 -19.5953 -19.5729 -19.5728
   -19.5690 -19.5689 -19.5655 -19.5654 -19.5488 -19.5486 -19.5325 -19.5324
   -19.5299 -19.5297 -19.4998 -19.4997 -19.4739 -19.4737 -19.4565 -19.4563
    16.1446  16.1450  17.3456  17.3458  17.4291  17.4292  17.4611  17.4613
[...]
   -19.6347 -19.6347 -19.6346 -19.6346 -19.6346 -19.6346 -19.6345 -19.6345
   -19.5999 -19.5998 -19.5998 -19.5997 -19.5818 -19.5817 -19.5817 -19.5817
   -19.5597 -19.5597 -19.5597 -19.5597 -19.5593 -19.5592 -19.5592 -19.5592
   -19.5259 -19.5257 -19.5256 -19.5255 -19.4445 -19.4445 -19.4445 -19.4445
    16.7694  16.7694  16.7698  16.7698  17.6299  17.6299  17.6300  17.6300
    17.7144  17.7144  17.7145  17.7145  17.7606  17.7606  17.7607  17.7607
    17.8988  17.8988  17.8989  17.8989  17.8991  17.8991  17.8991  17.8992
    18.2102  18.2103  18.2103  18.2103  18.2105  18.2106  18.2106  18.2106
    18.3101  18.3102  18.3102  18.3102  18.3102  18.3102  18.3102  18.3102
    18.5828  18.5828  18.5829  18.5829  19.2169  19.2169  19.2170  19.2170
    19.2172  19.2172  19.2172  19.2173  19.7864  19.7865  19.7865  19.7865
    20.0054  20.0054  20.0056  20.0056  20.2830  20.2830  20.2832  20.2832
    20.4939  20.4940  20.4940  20.4940  20.5072  20.5072  20.5072  20.5072
    20.8704  20.8704  20.8704  20.8704  20.8705  20.8705  20.8705  20.8705
    20.9600  20.9601  20.9602  20.9602  21.1388  21.1389  21.1389  21.1389
    21.1458  21.1458  21.1458  21.1458  21.2893  21.2894  21.2894  21.2895
    21.2895  21.2895  21.2895  21.2896  21.2931  21.2931  21.2931  21.2932
    21.5294  21.5295  21.5296  21.5297  21.6723  21.6723  21.6724  21.6724
    21.6724  21.6724  21.6725  21.6725  22.1964  22.1966  22.1966  22.1968
    23.1474  23.1475  23.1475  23.1477  23.3319  23.3320  23.3320  23.3321
    23.5533  23.5533  23.5534  23.5535  23.5535  23.5535  23.5536  23.5536
    24.0668  24.0668  24.0669  24.0669  24.1862  24.1863  24.1863  24.1863
    24.1864  24.1864  24.1865  24.1865  24.1921  24.1922  24.1922  24.1923
    24.4234  24.4235  24.4235  24.4236  24.4643  24.4643  24.4643  24.4643
    24.4643  24.4643  24.4644  24.4644  24.4711  24.4711  24.4712  24.4712
    24.7197  24.7198  24.7199  24.7199  27.3809  27.3809  27.3809  27.3809
    27.3810  27.3811  27.3811

          k =-0.5000 0.1660-0.5000 ( 30296 PWs)   bands (ev):

   -49.9459 -49.9458 -49.9457 -49.9455 -49.8916 -49.8914 -49.8913 -49.8912
   -49.8518 -49.8516 -49.8516 -49.8514 -49.8164 -49.8164 -49.8163 -49.8162
   -49.8161 -49.8161 -49.8160 -49.8160 -49.8159 -49.8159 -49.8157 -49.8157
   -49.8156 -49.8156 -49.8155 -49.8155 -49.7975 -49.7973 -49.7972 -49.7971
   -20.2694 -20.2694 -20.2694 -20.2694 -20.2693 -20.2693 -20.2693 -20.2693
   -20.2077 -20.2077 -20.2076 -20.2075 -20.2075 -20.2075 -20.2074 -20.2074
   -20.2018 -20.2016 -20.2016 -20.2015 -20.2011 -20.2010 -20.2010 -20.2009
   -20.0864 -20.0863 -20.0863 -20.0862 -19.9623 -19.9623 -19.9623 -19.9622
   -19.8118 -19.8118 -19.8118 -19.8118 -19.8118 -19.8118 -19.8118 -19.8118
   -19.8058 -19.8058 -19.8056 -19.8056 -19.8056 -19.8056 -19.8054 -19.8054
   -19.7717 -19.7717 -19.7716 -19.7716 -19.6996 -19.6996 -19.6995 -19.6995
   -19.6995 -19.6994 -19.6994 -19.6993 -19.6923 -19.6923 -19.6923 -19.6923
   -19.6472 -19.6471 -19.6471 -19.6470 -19.6382 -19.6381 -19.6381 -19.6380
   -19.6380 -19.6380 -19.6379 -19.6379 -19.6034 -19.6034 -19.6034 -19.6034
   -19.5380 -19.5380 -19.5380 -19.5380 -19.5268 -19.5267 -19.5267 -19.5266
   -19.5146 -19.5145 -19.5144 -19.5143 -19.4483 -19.4483 -19.4483 -19.4483
    16.7996  16.7996  16.8000  16.8000  17.4828  17.4828  17.4830  17.4830
    17.7460  17.7460  17.7461  17.7461  17.8622  17.8622  17.8622  17.8622
    17.8642  17.8642  17.8642  17.8643  17.8644  17.8644  17.8645  17.8645
    18.2310  18.2310  18.2311  18.2311  18.2311  18.2311  18.2311  18.2312
    18.3293  18.3293  18.3294  18.3294  18.3295  18.3296  18.3296  18.3296
    18.6141  18.6141  18.6141  18.6142  19.2485  19.2486  19.2486  19.2486
    19.2488  19.2488  19.2488  19.2489  19.7049  19.7049  19.7051  19.7051
    19.8461  19.8461  19.8462  19.8462  20.4260  20.4260  20.4261  20.4261
    20.5654  20.5655  20.5655  20.5655  20.5889  20.5890  20.5890  20.5891
    20.8199  20.8199  20.8199  20.8199  20.8199  20.8199  20.8200  20.8200
    20.9498  20.9499  20.9500  20.9500  21.0237  21.0237  21.0237  21.0238
    21.0930  21.0931  21.0931  21.0931  21.2688  21.2689  21.2689  21.2690
    21.2690  21.2690  21.2690  21.2691  21.4602  21.4603  21.4604  21.4605
    21.4840  21.4840  21.4840  21.4841  21.7506  21.7506  21.7507  21.7507
    21.7507  21.7507  21.7508  21.7508  22.3140  22.3142  22.3142  22.3143
    23.0052  23.0054  23.0054  23.0055  23.1976  23.1976  23.1977  23.1977
    23.1978  23.1978  23.1978  23.1979  23.2873  23.2874  23.2874  23.2875
    23.5488  23.5489  23.5489  23.5489  23.9272  23.9273  23.9273  23.9274
    24.4665  24.4665  24.4666  24.4666  24.4666  24.4667  24.4667  24.4667
    24.5316  24.5316  24.5316  24.5317  24.5317  24.5317  24.5317  24.5317
    24.5564  24.5564  24.5564  24.5564  24.6100  24.6101  24.6101  24.6102
    25.4780  25.4780  25.4781  25.4781  27.4633  27.4633  27.4633  27.4634
    27.4634  27.4635  27.4635

          k =-0.5000 0.2767-0.5000 ( 30248 PWs)   bands (ev):

   -49.9414 -49.9412 -49.9411 -49.9410 -49.9042 -49.9040 -49.9039 -49.9038
   -49.8392 -49.8391 -49.8390 -49.8388 -49.8164 -49.8163 -49.8162 -49.8162
   -49.8161 -49.8161 -49.8159 -49.8159 -49.8159 -49.8159 -49.8158 -49.8157
   -49.8157 -49.8157 -49.8155 -49.8155 -49.8021 -49.8019 -49.8018 -49.8017
   -20.2618 -20.2618 -20.2618 -20.2618 -20.2617 -20.2617 -20.2617 -20.2617
   -20.2224 -20.2223 -20.2223 -20.2222 -20.2178 -20.2177 -20.2177 -20.2175
   -20.2161 -20.2161 -20.2160 -20.2160 -20.2160 -20.2159 -20.2158 -20.2158
   -20.0349 -20.0348 -20.0348 -20.0347 -19.9199 -19.9198 -19.9198 -19.9198
   -19.8142 -19.8141 -19.8141 -19.8141 -19.8119 -19.8119 -19.8119 -19.8119
   -19.8119 -19.8119 -19.8119 -19.8119 -19.8080 -19.8080 -19.8079 -19.8078
   -19.8078 -19.8078 -19.8077 -19.8077 -19.6996 -19.6995 -19.6995 -19.6994
   -19.6897 -19.6897 -19.6896 -19.6896 -19.6895 -19.6895 -19.6894 -19.6894
   -19.6849 -19.6848 -19.6848 -19.6848 -19.6447 -19.6446 -19.6446 -19.6446
   -19.6445 -19.6445 -19.6444 -19.6444 -19.6240 -19.6240 -19.6240 -19.6240
   -19.5173 -19.5173 -19.5173 -19.5173 -19.5032 -19.5031 -19.5031 -19.5030
   -19.4999 -19.4998 -19.4998 -19.4996 -19.4559 -19.4559 -19.4559 -19.4559
    16.8589  16.8589  16.8593  16.8593  17.3317  17.3317  17.3319  17.3320
    17.8015  17.8015  17.8016  17.8016  17.8462  17.8462  17.8463  17.8464
    17.8464  17.8465  17.8465  17.8465  17.9241  17.9242  17.9242  17.9242
    18.1169  18.1170  18.1170  18.1170  18.1171  18.1171  18.1171  18.1172
    18.5105  18.5105  18.5106  18.5106  18.5106  18.5107  18.5108  18.5108
    18.6803  18.6804  18.6804  18.6804  19.2361  19.2361  19.2361  19.2361
    19.2363  19.2363  19.2364  19.2364  19.4154  19.4154  19.4156  19.4156
    19.9583  19.9583  19.9583  19.9583  20.4265  20.4266  20.4266  20.4266
    20.6684  20.6685  20.6685  20.6686  20.7434  20.7434  20.7435  20.7435
    20.8061  20.8061  20.8061  20.8061  20.8062  20.8062  20.8062  20.8062
    20.9307  20.9308  20.9308  20.9309  20.9489  20.9489  20.9489  20.9490
    21.0200  21.0201  21.0201  21.0201  21.2211  21.2211  21.2211  21.2212
    21.2212  21.2212  21.2213  21.2213  21.3329  21.3330  21.3331  21.3331
    21.7076  21.7077  21.7077  21.7078  21.8681  21.8681  21.8681  21.8681
    21.8681  21.8682  21.8682  21.8682  22.5151  22.5152  22.5152  22.5153
    22.7754  22.7755  22.7755  22.7757  22.8130  22.8131  22.8131  22.8131
    22.8132  22.8132  22.8132  22.8133  23.2010  23.2011  23.2011  23.2011
    23.2064  23.2065  23.2065  23.2066  23.6404  23.6405  23.6405  23.6406
    24.6424  24.6424  24.6424  24.6424  24.6425  24.6425  24.6425  24.6425
    24.6721  24.6722  24.6722  24.6722  24.6984  24.6984  24.6984  24.6984
    24.6985  24.6985  24.6985  24.6986  24.7423  24.7423  24.7423  24.7424
    26.3194  26.3194  26.3196  26.3196  27.6338  27.6339  27.6339  27.6339
    27.6340  27.6340  27.6341

          k =-0.5000 0.3874-0.5000 ( 30288 PWs)   bands (ev):

   -49.9347 -49.9345 -49.9344 -49.9343 -49.9158 -49.9156 -49.9155 -49.9154
   -49.8276 -49.8275 -49.8274 -49.8272 -49.8163 -49.8163 -49.8162 -49.8161
   -49.8161 -49.8160 -49.8159 -49.8159 -49.8159 -49.8159 -49.8158 -49.8157
   -49.8157 -49.8157 -49.8155 -49.8155 -49.8088 -49.8086 -49.8085 -49.8084
   -20.2515 -20.2515 -20.2515 -20.2515 -20.2514 -20.2514 -20.2514 -20.2513
   -20.2343 -20.2342 -20.2342 -20.2341 -20.2307 -20.2306 -20.2306 -20.2304
   -20.2272 -20.2272 -20.2271 -20.2271 -20.2271 -20.2271 -20.2270 -20.2270
   -19.9795 -19.9795 -19.9795 -19.9794 -19.8683 -19.8683 -19.8683 -19.8682
   -19.8661 -19.8660 -19.8660 -19.8660 -19.8119 -19.8119 -19.8118 -19.8118
   -19.8118 -19.8118 -19.8118 -19.8118 -19.8100 -19.8100 -19.8099 -19.8099
   -19.8099 -19.8099 -19.8098 -19.8098 -19.7553 -19.7553 -19.7553 -19.7552
   -19.6776 -19.6776 -19.6776 -19.6776 -19.6775 -19.6774 -19.6774 -19.6774
   -19.6739 -19.6739 -19.6739 -19.6739 -19.6539 -19.6539 -19.6539 -19.6539
   -19.6537 -19.6537 -19.6537 -19.6537 -19.6431 -19.6431 -19.6431 -19.6431
   -19.4982 -19.4982 -19.4982 -19.4982 -19.4890 -19.4889 -19.4889 -19.4888
   -19.4887 -19.4885 -19.4885 -19.4884 -19.4670 -19.4670 -19.4670 -19.4670
    16.9455  16.9455  16.9458  16.9459  17.1869  17.1869  17.1872  17.1872
    17.8634  17.8634  17.8635  17.8635  17.8635  17.8636  17.8636  17.8637
    17.8657  17.8657  17.8657  17.8657  17.9419  17.9420  17.9420  17.9420
    18.0057  18.0058  18.0058  18.0059  18.0059  18.0059  18.0060  18.0060
    18.7228  18.7228  18.7229  18.7230  18.7230  18.7230  18.7231  18.7231
    18.7887  18.7887  18.7888  18.7888  19.1271  19.1271  19.1271  19.1272
    19.1273  19.1273  19.1274  19.1274  19.1580  19.1580  19.1581  19.1581
    20.1057  20.1057  20.1057  20.1057  20.3720  20.3720  20.3720  20.3720
    20.8127  20.8128  20.8128  20.8129  20.8319  20.8319  20.8320  20.8320
    20.8812  20.8812  20.8812  20.8812  20.8813  20.8813  20.8813  20.8813
    20.9053  20.9053  20.9053  20.9054  20.9143  20.9144  20.9144  20.9144
    20.9562  20.9563  20.9563  20.9563  21.1356  21.1356  21.1356  21.1357
    21.1357  21.1358  21.1358  21.1358  21.1669  21.1669  21.1670  21.1670
    21.9585  21.9585  21.9586  21.9586  22.0133  22.0133  22.0133  22.0133
    22.0134  22.0134  22.0134  22.0135  22.4728  22.4728  22.4728  22.4728
    22.4729  22.4729  22.4729  22.4730  22.5068  22.5069  22.5069  22.5070
    22.7669  22.7670  22.7670  22.7672  23.0407  23.0407  23.0408  23.0408
    23.1093  23.1093  23.1094  23.1094  23.3434  23.3435  23.3435  23.3436
    24.7569  24.7569  24.7569  24.7569  24.7569  24.7570  24.7570  24.7570
    24.7696  24.7696  24.7697  24.7697  24.8134  24.8135  24.8135  24.8136
    24.8198  24.8198  24.8198  24.8198  24.8199  24.8199  24.8199  24.8199
    27.2256  27.2257  27.2258  27.2258  27.8892  27.8893  27.8893  27.8893
    27.8894  27.8894  27.8894

          k =-0.5000-0.4981-0.5000 ( 30376 PWs)   bands (ev):

   -49.9262 -49.9260 -49.9259 -49.9259 -49.9258 -49.9258 -49.9257 -49.9255
   -49.8175 -49.8174 -49.8173 -49.8173 -49.8171 -49.8171 -49.8170 -49.8169
   -49.8163 -49.8163 -49.8162 -49.8161 -49.8160 -49.8160 -49.8160 -49.8159
   -49.8159 -49.8159 -49.8158 -49.8157 -49.8157 -49.8157 -49.8156 -49.8156
   -20.2396 -20.2396 -20.2396 -20.2395 -20.2395 -20.2395 -20.2395 -20.2395
   -20.2394 -20.2394 -20.2394 -20.2393 -20.2393 -20.2393 -20.2393 -20.2393
   -20.2368 -20.2368 -20.2367 -20.2367 -20.2366 -20.2366 -20.2366 -20.2365
   -19.9224 -19.9224 -19.9224 -19.9223 -19.9223 -19.9223 -19.9223 -19.9222
   -19.8125 -19.8124 -19.8124 -19.8124 -19.8124 -19.8124 -19.8124 -19.8123
   -19.8114 -19.8113 -19.8113 -19.8113 -19.8113 -19.8113 -19.8112 -19.8112
   -19.8112 -19.8112 -19.8112 -19.8112 -19.8112 -19.8112 -19.8111 -19.8111
   -19.6654 -19.6654 -19.6653 -19.6653 -19.6653 -19.6653 -19.6653 -19.6652
   -19.6652 -19.6652 -19.6651 -19.6651 -19.6651 -19.6651 -19.6651 -19.6651
   -19.6600 -19.6600 -19.6600 -19.6600 -19.6598 -19.6598 -19.6598 -19.6598
   -19.4845 -19.4844 -19.4843 -19.4843 -19.4842 -19.4842 -19.4842 -19.4841
   -19.4814 -19.4813 -19.4813 -19.4813 -19.4811 -19.4811 -19.4811 -19.4811
    17.0561  17.0561  17.0563  17.0563  17.0564  17.0564  17.0567  17.0568
    17.9178  17.9179  17.9179  17.9179  17.9179  17.9180  17.9180  17.9180
    17.9180  17.9180  17.9180  17.9180  17.9181  17.9181  17.9181  17.9182
    17.9186  17.9186  17.9186  17.9186  17.9187  17.9187  17.9187  17.9188
    18.9405  18.9405  18.9405  18.9406  18.9406  18.9406  18.9406  18.9406
    18.9407  18.9407  18.9407  18.9408  18.9408  18.9408  18.9409  18.9409
    18.9469  18.9469  18.9470  18.9470  18.9471  18.9471  18.9472  18.9472
    20.2572  20.2573  20.2573  20.2573  20.2573  20.2573  20.2573  20.2574
    20.8752  20.8752  20.8752  20.8753  20.8753  20.8753  20.8753  20.8753
    20.9181  20.9182  20.9182  20.9182  20.9182  20.9182  20.9182  20.9183
    20.9855  20.9855  20.9856  20.9856  20.9856  20.9857  20.9858  20.9859
    21.0116  21.0116  21.0116  21.0117  21.0117  21.0117  21.0117  21.0117
    21.0117  21.0118  21.0118  21.0118  21.0119  21.0119  21.0119  21.0120
    22.2064  22.2065  22.2065  22.2065  22.2065  22.2065  22.2066  22.2066
    22.2066  22.2066  22.2066  22.2066  22.2066  22.2067  22.2067  22.2068
    22.2286  22.2287  22.2287  22.2287  22.2288  22.2288  22.2288  22.2289
    23.0335  23.0336  23.0336  23.0336  23.0337  23.0337  23.0337  23.0338
    23.0480  23.0481  23.0481  23.0481  23.0482  23.0482  23.0483  23.0483
    24.8211  24.8212  24.8212  24.8212  24.8212  24.8213  24.8213  24.8213
    24.8299  24.8299  24.8299  24.8299  24.8299  24.8299  24.8299  24.8300
    24.8300  24.8300  24.8300  24.8300  24.8300  24.8300  24.8301  24.8301
    28.1784  28.1791  28.1806  28.1811  28.1836  28.1848  28.1890  28.1937
    28.2046  28.2047  28.2048

     the Fermi energy is    23.0085 ev

!    total energy              =  -13813.30042107 Ry

     total all-electron energy =   -289989.690760 Ry
     estimated scf accuracy    <       0.00000099 Ry
     smearing contrib. (-TS)   =       0.02016912 Ry
     internal energy E=F+TS    =  -13813.32059018 Ry

     The total energy is F=E-TS. E is the sum of the following terms:
     one-electron contribution =   -1005.03177838 Ry
     hartree contribution      =     918.84547813 Ry
     xc contribution           =    -927.91796880 Ry
     ewald contribution        =   -5209.78029126 Ry
     one-center paw contrib.   =   -7589.43602987 Ry

     convergence has been achieved in  11 iterations

     Forces acting on atoms (cartesian axes, Ry/au):

     atom    1 type  1   force =     0.00000000    0.00000000    0.00000000
     atom    2 type  1   force =    -0.00014522    0.00003119    0.00000000
     atom    3 type  1   force =    -0.00034598    0.00000000   -0.00034598
     atom    4 type  1   force =     0.00000000    0.00003119   -0.00014522
     atom    5 type  1   force =     0.00000000    0.00000000    0.00000000
     atom    6 type  1   force =    -0.00013418    0.00047917    0.00000000
     atom    7 type  1   force =    -0.00034598   -0.00000000    0.00034598
     atom    8 type  1   force =     0.00000000    0.00003119    0.00014522
     atom    9 type  1   force =     0.00000000    0.00000000    0.00000000
     atom   10 type  1   force =    -0.00014522   -0.00003119    0.00000000
     atom   11 type  1   force =     0.00007905    0.00000000    0.00007905
     atom   12 type  1   force =     0.00000000   -0.00003119   -0.00014522
     atom   13 type  1   force =     0.00000000    0.00000000    0.00000000
     atom   14 type  1   force =    -0.00013418   -0.00047917    0.00000000
     atom   15 type  1   force =     0.00007905    0.00000000   -0.00007905
     atom   16 type  1   force =     0.00000000   -0.00003119    0.00014522
     atom   17 type  1   force =     0.00000000    0.00000000    0.00000000
     atom   18 type  1   force =     0.00014522    0.00003119    0.00000000
     atom   19 type  1   force =     0.00034598   -0.00000000   -0.00034598
     atom   20 type  1   force =     0.00000000    0.00047917   -0.00013418
     atom   21 type  1   force =     0.00000000    0.00000000    0.00000000
     atom   22 type  1   force =     0.00013418    0.00047917    0.00000000
     atom   23 type  1   force =     0.00034598    0.00000000    0.00034598
     atom   24 type  1   force =     0.00000000    0.00047917    0.00013418
     atom   25 type  1   force =     0.00000000    0.00000000    0.00000000
     atom   26 type  1   force =     0.00014522   -0.00003119    0.00000000
     atom   27 type  1   force =    -0.00007905    0.00000000    0.00007905
     atom   28 type  1   force =     0.00000000   -0.00047917   -0.00013418
     atom   29 type  1   force =     0.00000000    0.00000000    0.00000000
     atom   30 type  1   force =     0.00013418   -0.00047917    0.00000000
     atom   31 type  1   force =    -0.00007905    0.00000000   -0.00007905
     atom   32 type  1   force =     0.00000000   -0.00047917    0.00013418

     Total force =     0.001779     Total SCF correction =     0.007898
     SCF correction compared to forces is large: reduce conv_thr to get better values


     Computing stress (Cartesian axis) and pressure

          total   stress  (Ry/bohr**3)                   (kbar)     P=      -16.46
  -0.00009054   0.00000000   0.00000000          -13.32        0.00        0.00
   0.00000000  -0.00015457   0.00000000            0.00      -22.74        0.00
   0.00000000   0.00000000  -0.00009054            0.00        0.00      -13.32


     Writing output data file /scratch/azkmNJvezNsRyXck.save/
 
     init_run     :     26.70s CPU     27.17s WALL (       1 calls)
     electrons    :    952.90s CPU    968.46s WALL (       1 calls)
     forces       :     10.88s CPU     10.97s WALL (       1 calls)
     stress       :     67.18s CPU     67.80s WALL (       1 calls)

     Called by init_run:
     wfcinit      :     26.02s CPU     26.42s WALL (       1 calls)
     potinit      :      0.18s CPU      0.20s WALL (       1 calls)
     hinit0       :      0.17s CPU      0.18s WALL (       1 calls)

     Called by electrons:
     c_bands      :    848.24s CPU    861.38s WALL (      12 calls)
     sum_band     :    102.60s CPU    104.78s WALL (      12 calls)
     v_of_rho     :      0.17s CPU      0.20s WALL (      12 calls)
     newd         :      0.48s CPU      0.58s WALL (      12 calls)
     PAW_pot      :      1.14s CPU      1.21s WALL (      12 calls)
     mix_rho      :      0.07s CPU      0.09s WALL (      12 calls)

     Called by c_bands:
     init_us_2    :      3.88s CPU      3.95s WALL (    2025 calls)
     cegterg      :    834.34s CPU    846.91s WALL (     900 calls)

     Called by *egterg:
     cdiaghg      :    101.75s CPU    102.80s WALL (    3364 calls)
     h_psi        :    450.57s CPU    458.48s WALL (    3514 calls)
     s_psi        :     31.96s CPU     32.20s WALL (    3514 calls)
     g_psi        :      0.76s CPU      0.77s WALL (    2539 calls)

     Called by h_psi:
     h_psi:calbec :     62.89s CPU     63.48s WALL (    3514 calls)
     vloc_psi     :    354.77s CPU    361.51s WALL (    3514 calls)
     add_vuspsi   :     31.00s CPU     31.55s WALL (    3514 calls)

     General routines
     calbec       :     99.52s CPU    100.41s WALL (    4789 calls)
     fft          :      0.48s CPU      0.50s WALL (     180 calls)
     ffts         :      0.04s CPU      0.05s WALL (      24 calls)
     fftw         :    413.62s CPU    421.44s WALL ( 1619150 calls)
     interpolate  :      0.19s CPU      0.20s WALL (      12 calls)
 
     Parallel routines
     fft_scatt_xy :     28.09s CPU     28.52s WALL ( 1619354 calls)
     fft_scatt_yz :    337.78s CPU    344.49s WALL ( 1619354 calls)
 
     PWSCF        :  17m55.87s CPU  18m16.24s WALL

 
   This run was terminated on:  18:35: 2  23Nov2021            

=------------------------------------------------------------------------------=
   JOB DONE.
=------------------------------------------------------------------------------=
