
     Program PWSCF v.6.7MaX starts on 23Nov2021 at 17:52:42 

     This program is part of the open-source Quantum ESPRESSO suite
     for quantum simulation of materials; please cite
         "P. Giannozzi et al., J. Phys.:Condens. Matter 21 395502 (2009);
         "P. Giannozzi et al., J. Phys.:Condens. Matter 29 465901 (2017);
          URL http://www.quantum-espresso.org", 
     in publications or presentations arising from this work. More details at
     http://www.quantum-espresso.org/quote

     Parallel version (MPI & OpenMP), running on      72 processor cores
     Number of MPI processes:                72
     Threads/MPI process:                     1

     MPI processes distributed on     1 nodes
     R & G space division:  proc/nbgrp/npool/nimage =      72
     Reading input from /rds/homes/b/bxp912/jobs/20211014_ru_eos/wd/ec/ec_2_006.in
Warning: card &CELL ignored
Warning: card CELL_DYNAMICS = 'BFGS', ignored
Warning: card CELL_FACTOR = 2.0, ignored
Warning: card PRESS = 0.0, ignored
Warning: card / ignored

     Current dimensions of program PWSCF are:
     Max number of different atomic species (ntypx) = 10
     Max number of k-points (npk) =  40000
     Max angular momentum in pseudopotentials (lmaxx) =  3
     file Ru.pbe-spn-kjpaw_psl.1.0.0.UPF: wavefunction(s)  4D renormalized

     Subspace diagonalization in iterative solution of the eigenvalue problem:
     one sub-group per band group will be used
     ELPA distributed-memory algorithm (size of sub-group:  8*  8 procs)

     Found symmetry operation: I + (  0.2500  0.2500  0.0000)
     This is a supercell, fractional translations are disabled
     Message from routine setup:
     using ibrav=0 with symmetry is DISCOURAGED, use correct ibrav instead
 
     Parallelization info
     --------------------
     sticks:   dense  smooth     PW     G-vecs:    dense   smooth      PW
     Min          98      65     17                 6264     3363     477
     Max          99      66     19                 6269     3366     482
     Sum        7125    4705   1285               451287   242217   34521
 


     bravais-lattice index     =            0
     lattice parameter (alat)  =      14.4007  a.u.
     unit-cell volume          =    2995.7780 (a.u.)^3
     number of atoms/cell      =           32
     number of atomic types    =            1
     number of electrons       =       512.00
     number of Kohn-Sham states=          307
     kinetic-energy cutoff     =      71.0000  Ry
     charge density cutoff     =     430.0000  Ry
     scf convergence threshold =      1.0E-06
     mixing beta               =       0.1000
     number of iterations used =           10  plain     mixing
     Exchange-correlation= SLA  PW   PBX  PBC
                           (   1   4   3   4   0   0   0)

     celldm(1)=  14.400742  celldm(2)=   0.000000  celldm(3)=   0.000000
     celldm(4)=   0.000000  celldm(5)=   0.000000  celldm(6)=   0.000000

     crystal axes: (cart. coord. in units of alat)
               a(1) = (   1.000000   0.000000   0.000000 )  
               a(2) = (   0.000000   1.003125   0.000000 )  
               a(3) = (   0.000000   0.000000   1.000000 )  

     reciprocal axes: (cart. coord. in units 2 pi/alat)
               b(1) = (  1.000000  0.000000  0.000000 )  
               b(2) = (  0.000000  0.996885  0.000000 )  
               b(3) = (  0.000000  0.000000  1.000000 )  


     PseudoPot. # 1 for Ru read from file:
     /rds/homes/b/bxp912/pp/Ru.pbe-spn-kjpaw_psl.1.0.0.UPF
     MD5 check sum: 0ae1f594dea09af7be8575c3a481d1ae
     Pseudo is Projector augmented-wave + core cor, Zval = 16.0
     Generated using "atomic" code by A. Dal Corso  v.5.1
     Shape of augmentation charge: PSQ
     Using radial grid of 1233 points,  6 beta functions with: 
                l(1) =   0
                l(2) =   0
                l(3) =   1
                l(4) =   1
                l(5) =   2
                l(6) =   2
     Q(r) pseudized with 0 coefficients 


     atomic species   valence    mass     pseudopotential
        Ru            16.00   101.07000     Ru( 1.00)

     16 Sym. Ops., with inversion, found



   Cartesian axes

     site n.     atom                  positions (alat units)
         1           Ru  tau(   1) = (   0.0000000   0.0000000   0.0000000  )
         2           Ru  tau(   2) = (   0.2500000   0.2507813   0.0000000  )
         3           Ru  tau(   3) = (   0.2500000   0.0000000   0.2499995  )
         4           Ru  tau(   4) = (   0.0000000   0.2507813   0.2499995  )
         5           Ru  tau(   5) = (   0.0000000   0.0000000   0.5000000  )
         6           Ru  tau(   6) = (   0.2499990   0.2507802   0.5000000  )
         7           Ru  tau(   7) = (   0.2500000   0.0000000   0.7499995  )
         8           Ru  tau(   8) = (   0.0000000   0.2507813   0.7499995  )
         9           Ru  tau(   9) = (   0.0000000   0.5015627   0.0000000  )
        10           Ru  tau(  10) = (   0.2500000   0.7523442   0.0000000  )
        11           Ru  tau(  11) = (   0.2499990   0.5015627   0.2499984  )
        12           Ru  tau(  12) = (   0.0000000   0.7523442   0.2499995  )
        13           Ru  tau(  13) = (   0.0000000   0.5015627   0.5000000  )
        14           Ru  tau(  14) = (   0.2499990   0.7523452   0.5000000  )
        15           Ru  tau(  15) = (   0.2499990   0.5015627   0.7500005  )
        16           Ru  tau(  16) = (   0.0000000   0.7523442   0.7499995  )
        17           Ru  tau(  17) = (   0.5000002   0.0000000   0.0000000  )
        18           Ru  tau(  18) = (   0.7500004   0.2507813   0.0000000  )
        19           Ru  tau(  19) = (   0.7500004   0.0000000   0.2499995  )
        20           Ru  tau(  20) = (   0.5000002   0.2507802   0.2499984  )
        21           Ru  tau(  21) = (   0.5000002   0.0000000   0.5000000  )
        22           Ru  tau(  22) = (   0.7500015   0.2507802   0.5000000  )
        23           Ru  tau(  23) = (   0.7500004   0.0000000   0.7499995  )
        24           Ru  tau(  24) = (   0.5000002   0.2507802   0.7500005  )
        25           Ru  tau(  25) = (   0.5000002   0.5015627   0.0000000  )
        26           Ru  tau(  26) = (   0.7500004   0.7523442   0.0000000  )
        27           Ru  tau(  27) = (   0.7500015   0.5015627   0.2499984  )
        28           Ru  tau(  28) = (   0.5000002   0.7523452   0.2499984  )
        29           Ru  tau(  29) = (   0.5000002   0.5015627   0.5000000  )
        30           Ru  tau(  30) = (   0.7500015   0.7523452   0.5000000  )
        31           Ru  tau(  31) = (   0.7500015   0.5015627   0.7500005  )
        32           Ru  tau(  32) = (   0.5000002   0.7523452   0.7500005  )

     number of k points=    75  Marzari-Vanderbilt smearing, width (Ry)=  0.0400
                       cart. coord. in units 2pi/alat
        k(    1) = (   0.0555556   0.0553825   0.0555556), wk =   0.0219479
        k(    2) = (   0.0555556   0.0553825   0.1666667), wk =   0.0438957
        k(    3) = (   0.0555556   0.0553825   0.2777778), wk =   0.0438957
        k(    4) = (   0.0555556   0.0553825   0.3888889), wk =   0.0438957
        k(    5) = (   0.0555556   0.0553825  -0.5000000), wk =   0.0219479
        k(    6) = (   0.0555556   0.1661475   0.0555556), wk =   0.0219479
        k(    7) = (   0.0555556   0.1661475   0.1666667), wk =   0.0438957
        k(    8) = (   0.0555556   0.1661475   0.2777778), wk =   0.0438957
        k(    9) = (   0.0555556   0.1661475   0.3888889), wk =   0.0438957
        k(   10) = (   0.0555556   0.1661475  -0.5000000), wk =   0.0219479
        k(   11) = (   0.0555556   0.2769124   0.0555556), wk =   0.0219479
        k(   12) = (   0.0555556   0.2769124   0.1666667), wk =   0.0438957
        k(   13) = (   0.0555556   0.2769124   0.2777778), wk =   0.0438957
        k(   14) = (   0.0555556   0.2769124   0.3888889), wk =   0.0438957
        k(   15) = (   0.0555556   0.2769124  -0.5000000), wk =   0.0219479
        k(   16) = (   0.0555556   0.3876774   0.0555556), wk =   0.0219479
        k(   17) = (   0.0555556   0.3876774   0.1666667), wk =   0.0438957
        k(   18) = (   0.0555556   0.3876774   0.2777778), wk =   0.0438957
        k(   19) = (   0.0555556   0.3876774   0.3888889), wk =   0.0438957
        k(   20) = (   0.0555556   0.3876774  -0.5000000), wk =   0.0219479
        k(   21) = (   0.0555556  -0.4984424   0.0555556), wk =   0.0109739
        k(   22) = (   0.0555556  -0.4984424   0.1666667), wk =   0.0219479
        k(   23) = (   0.0555556  -0.4984424   0.2777778), wk =   0.0219479
        k(   24) = (   0.0555556  -0.4984424   0.3888889), wk =   0.0219479
        k(   25) = (   0.0555556  -0.4984424  -0.5000000), wk =   0.0109739
        k(   26) = (   0.1666667   0.0553825   0.1666667), wk =   0.0219479
        k(   27) = (   0.1666667   0.0553825   0.2777778), wk =   0.0438957
        k(   28) = (   0.1666667   0.0553825   0.3888889), wk =   0.0438957
        k(   29) = (   0.1666667   0.0553825  -0.5000000), wk =   0.0219479
        k(   30) = (   0.1666667   0.1661475   0.1666667), wk =   0.0219479
        k(   31) = (   0.1666667   0.1661475   0.2777778), wk =   0.0438957
        k(   32) = (   0.1666667   0.1661475   0.3888889), wk =   0.0438957
        k(   33) = (   0.1666667   0.1661475  -0.5000000), wk =   0.0219479
        k(   34) = (   0.1666667   0.2769124   0.1666667), wk =   0.0219479
        k(   35) = (   0.1666667   0.2769124   0.2777778), wk =   0.0438957
        k(   36) = (   0.1666667   0.2769124   0.3888889), wk =   0.0438957
        k(   37) = (   0.1666667   0.2769124  -0.5000000), wk =   0.0219479
        k(   38) = (   0.1666667   0.3876774   0.1666667), wk =   0.0219479
        k(   39) = (   0.1666667   0.3876774   0.2777778), wk =   0.0438957
        k(   40) = (   0.1666667   0.3876774   0.3888889), wk =   0.0438957
        k(   41) = (   0.1666667   0.3876774  -0.5000000), wk =   0.0219479
        k(   42) = (   0.1666667  -0.4984424   0.1666667), wk =   0.0109739
        k(   43) = (   0.1666667  -0.4984424   0.2777778), wk =   0.0219479
        k(   44) = (   0.1666667  -0.4984424   0.3888889), wk =   0.0219479
        k(   45) = (   0.1666667  -0.4984424  -0.5000000), wk =   0.0109739
        k(   46) = (   0.2777778   0.0553825   0.2777778), wk =   0.0219479
        k(   47) = (   0.2777778   0.0553825   0.3888889), wk =   0.0438957
        k(   48) = (   0.2777778   0.0553825  -0.5000000), wk =   0.0219479
        k(   49) = (   0.2777778   0.1661475   0.2777778), wk =   0.0219479
        k(   50) = (   0.2777778   0.1661475   0.3888889), wk =   0.0438957
        k(   51) = (   0.2777778   0.1661475  -0.5000000), wk =   0.0219479
        k(   52) = (   0.2777778   0.2769124   0.2777778), wk =   0.0219479
        k(   53) = (   0.2777778   0.2769124   0.3888889), wk =   0.0438957
        k(   54) = (   0.2777778   0.2769124  -0.5000000), wk =   0.0219479
        k(   55) = (   0.2777778   0.3876774   0.2777778), wk =   0.0219479
        k(   56) = (   0.2777778   0.3876774   0.3888889), wk =   0.0438957
        k(   57) = (   0.2777778   0.3876774  -0.5000000), wk =   0.0219479
        k(   58) = (   0.2777778  -0.4984424   0.2777778), wk =   0.0109739
        k(   59) = (   0.2777778  -0.4984424   0.3888889), wk =   0.0219479
        k(   60) = (   0.2777778  -0.4984424  -0.5000000), wk =   0.0109739
        k(   61) = (   0.3888889   0.0553825   0.3888889), wk =   0.0219479
        k(   62) = (   0.3888889   0.0553825  -0.5000000), wk =   0.0219479
        k(   63) = (   0.3888889   0.1661475   0.3888889), wk =   0.0219479
        k(   64) = (   0.3888889   0.1661475  -0.5000000), wk =   0.0219479
        k(   65) = (   0.3888889   0.2769124   0.3888889), wk =   0.0219479
        k(   66) = (   0.3888889   0.2769124  -0.5000000), wk =   0.0219479
        k(   67) = (   0.3888889   0.3876774   0.3888889), wk =   0.0219479
        k(   68) = (   0.3888889   0.3876774  -0.5000000), wk =   0.0219479
        k(   69) = (   0.3888889  -0.4984424   0.3888889), wk =   0.0109739
        k(   70) = (   0.3888889  -0.4984424  -0.5000000), wk =   0.0109739
        k(   71) = (  -0.5000000   0.0553825  -0.5000000), wk =   0.0054870
        k(   72) = (  -0.5000000   0.1661475  -0.5000000), wk =   0.0054870
        k(   73) = (  -0.5000000   0.2769124  -0.5000000), wk =   0.0054870
        k(   74) = (  -0.5000000   0.3876774  -0.5000000), wk =   0.0054870
        k(   75) = (  -0.5000000  -0.4984424  -0.5000000), wk =   0.0027435

     Dense  grid:   451287 G-vectors     FFT dimensions: (  96,  96,  96)

     Smooth grid:   242217 G-vectors     FFT dimensions: (  80,  80,  80)

     Estimated max dynamical RAM per process >     186.07 MB

     Estimated total dynamical RAM >      13.08 GB

     Check: negative core charge=   -0.000002

     Initial potential from superposition of free atoms

     starting charge  511.97959, renormalised to  512.00000
     Starting wfcs are  320 randomized atomic wfcs
     Checking if some PAW data can be deallocated... 

     total cpu time spent up to now is       30.9 secs

     Self-consistent Calculation

     iteration #  1     ecut=    71.00 Ry     beta= 0.10
     Davidson diagonalization with overlap
     ethr =  1.00E-02,  avg # of iterations =  3.3

     Threshold (ethr) on eigenvalues was too large:
     Diagonalizing with lowered threshold

     Davidson diagonalization with overlap
     ethr =  8.27E-05,  avg # of iterations =  5.5

     total cpu time spent up to now is      210.9 secs

     total energy              =  -13813.41216926 Ry
     estimated scf accuracy    <       0.63732028 Ry

     iteration #  2     ecut=    71.00 Ry     beta= 0.10
     Davidson diagonalization with overlap
     ethr =  1.24E-04,  avg # of iterations =  1.0

     total cpu time spent up to now is      274.2 secs

     total energy              =  -13813.20850006 Ry
     estimated scf accuracy    <       0.39817577 Ry

     iteration #  3     ecut=    71.00 Ry     beta= 0.10
     Davidson diagonalization with overlap
     ethr =  7.78E-05,  avg # of iterations =  2.3

     total cpu time spent up to now is      356.7 secs

     total energy              =  -13813.29836967 Ry
     estimated scf accuracy    <       0.05061925 Ry

     iteration #  4     ecut=    71.00 Ry     beta= 0.10
     Davidson diagonalization with overlap
     ethr =  9.89E-06,  avg # of iterations =  2.4

     total cpu time spent up to now is      434.6 secs

     total energy              =  -13813.29975877 Ry
     estimated scf accuracy    <       0.00886643 Ry

     iteration #  5     ecut=    71.00 Ry     beta= 0.10
     Davidson diagonalization with overlap
     ethr =  1.73E-06,  avg # of iterations =  2.2

     total cpu time spent up to now is      499.9 secs

     total energy              =  -13813.30073474 Ry
     estimated scf accuracy    <       0.00561037 Ry

     iteration #  6     ecut=    71.00 Ry     beta= 0.10
     Davidson diagonalization with overlap
     ethr =  1.10E-06,  avg # of iterations =  3.6

     total cpu time spent up to now is      609.1 secs

     total energy              =  -13813.29984276 Ry
     estimated scf accuracy    <       0.01403975 Ry

     iteration #  7     ecut=    71.00 Ry     beta= 0.10
     Davidson diagonalization with overlap
     ethr =  1.10E-06,  avg # of iterations =  2.1

     total cpu time spent up to now is      687.0 secs

     total energy              =  -13813.30057283 Ry
     estimated scf accuracy    <       0.00152520 Ry

     iteration #  8     ecut=    71.00 Ry     beta= 0.10
     Davidson diagonalization with overlap
     ethr =  2.98E-07,  avg # of iterations =  2.1

     total cpu time spent up to now is      762.9 secs

     total energy              =  -13813.30059755 Ry
     estimated scf accuracy    <       0.00031280 Ry

     iteration #  9     ecut=    71.00 Ry     beta= 0.10
     Davidson diagonalization with overlap
     ethr =  6.11E-08,  avg # of iterations =  2.4

     total cpu time spent up to now is      835.2 secs

     total energy              =  -13813.30056989 Ry
     estimated scf accuracy    <       0.00009762 Ry

     iteration # 10     ecut=    71.00 Ry     beta= 0.10
     Davidson diagonalization with overlap
     ethr =  1.91E-08,  avg # of iterations =  2.9

     total cpu time spent up to now is      926.1 secs

     total energy              =  -13813.30059039 Ry
     estimated scf accuracy    <       0.00000374 Ry

     iteration # 11     ecut=    71.00 Ry     beta= 0.10
     Davidson diagonalization with overlap
     ethr =  7.31E-10,  avg # of iterations =  4.0

     total cpu time spent up to now is     1223.7 secs

     total energy              =  -13813.30059157 Ry
     estimated scf accuracy    <       0.00000111 Ry

     iteration # 12     ecut=    71.00 Ry     beta= 0.10
     Davidson diagonalization with overlap
     ethr =  2.17E-10,  avg # of iterations =  2.0

     total cpu time spent up to now is     1298.3 secs

     End of self-consistent calculation

          k = 0.0556 0.0554 0.0556 ( 30326 PWs)   bands (ev):

   -49.9899 -49.8920 -49.8911 -49.8911 -49.8731 -49.8720 -49.8720 -49.8369
   -49.8369 -49.8368 -49.8276 -49.8266 -49.8266 -49.8265 -49.8264 -49.8264
   -49.8263 -49.8259 -49.8259 -49.8259 -49.8178 -49.8177 -49.8177 -49.7743
   -49.7729 -49.7728 -49.7727 -49.7727 -49.7722 -49.7721 -49.7717 -49.7717
   -20.3898 -20.3898 -20.3897 -20.3857 -20.3281 -20.3281 -20.3271 -20.1324
   -20.1278 -20.1278 -20.1213 -20.1213 -20.1167 -20.1167 -20.1163 -20.1163
   -20.1014 -20.0964 -20.0964 -20.0780 -20.0780 -20.0746 -20.0746 -20.0743
   -20.0743 -20.0283 -20.0283 -20.0245 -20.0245 -20.0239 -20.0239 -19.9275
   -19.9275 -19.9266 -19.8552 -19.8552 -19.8540 -19.8473 -19.8473 -19.8465
   -19.8144 -19.8144 -19.8137 -19.8137 -19.8129 -19.8129 -19.7743 -19.7743
   -19.7732 -19.7683 -19.7683 -19.7675 -19.7675 -19.7654 -19.7654 -19.7649
   -19.7648 -19.7579 -19.7571 -19.7571 -19.7534 -19.5983 -19.5983 -19.5950
   -19.5950 -19.5940 -19.5933 -19.5662 -19.5662 -19.5635 -19.5635 -19.5623
   -19.5623 -19.5505 -19.5505 -19.5467 -19.5394 -19.5376 -19.5376 -19.5372
   -19.5372 -19.5371 -19.5371 -19.5338 -19.5337 -19.5336 -19.5336 -19.5335
   -19.5317 -19.5290 -19.5189 -19.5189 -19.5155 -19.4059 -19.3992 -19.3989
    15.2735  16.8390  16.8390  16.8417  17.1156  17.1333  17.1333  17.1333
    17.3058  17.3058  17.3092  17.5166  17.5279  17.5279  17.6898  17.7007
    17.7007  18.2320  18.2320  18.2486  18.2486  18.2493  18.2493  18.5511
    18.5619  18.5619  18.8176  18.8176  18.8182  18.8210  18.8350  18.8350
    18.9245  18.9259  18.9260  18.9275  18.9275  18.9275  18.9275  18.9283
    18.9283  19.4112  19.4112  19.4196  19.4196  19.4266  19.4266  19.5523
    19.5684  19.5684  19.5836  19.5836  19.6000  19.6000  19.6013  19.6013
    19.6492  19.6641  19.6641  19.9128  19.9128  19.9179  19.9179  19.9197
    19.9197  19.9198  19.9198  19.9229  19.9229  19.9242  19.9266  19.9266
    19.9307  19.9307  20.0908  20.0908  20.0939  20.3567  20.3782  20.3782
    20.3924  20.4239  20.4239  20.4308  20.4457  20.4943  20.5340  20.5485
    21.4876  21.5165  21.5165  21.6546  21.6861  21.6861  21.7220  21.7220
    21.7322  21.8215  21.8216  21.8227  21.8227  21.8310  21.8310  21.8363
    21.8364  21.8442  22.1282  22.1282  22.1452  22.2499  22.2499  22.2602
    22.4957  22.4958  22.5116  22.5736  22.5736  22.5809  22.5809  22.5817
    22.5817  22.5922  22.5923  22.6065  22.6331  22.6332  22.6431  22.8212
    22.8212  22.8217  22.8218  22.8344  22.8344  22.8616  22.9062  22.9939
    22.9939  23.0068  23.6487  23.6487  23.6691  23.7020  23.7020  23.7061
    23.8090  23.8090  23.8266  23.9039  24.6293  24.6293  24.6316  24.6626
    24.6820  24.6972  24.7119  24.7119  24.9832  24.9917  24.9917  25.0120
    25.0120  25.0220  25.1657  25.1657  25.1670  25.1670  25.1782  25.1818
    25.1818  25.1917  25.1917  26.6102  26.6102  26.6321  26.7476  26.8072
    26.8072  27.1407  27.1407

          k = 0.0556 0.0554 0.1667 ( 30308 PWs)   bands (ev):

   -49.9866 -49.9098 -49.8902 -49.8892 -49.8716 -49.8705 -49.8532 -49.8473
   -49.8470 -49.8366 -49.8353 -49.8350 -49.8293 -49.8266 -49.8264 -49.8260
   -49.8259 -49.8243 -49.8180 -49.8163 -49.8160 -49.8093 -49.8090 -49.7755
   -49.7745 -49.7744 -49.7741 -49.7735 -49.7733 -49.7730 -49.7725 -49.7721
   -20.3823 -20.3785 -20.3784 -20.3704 -20.3198 -20.3188 -20.3152 -20.1588
   -20.1456 -20.1453 -20.1365 -20.1342 -20.1326 -20.1301 -20.1245 -20.1227
   -20.1226 -20.1037 -20.0986 -20.0879 -20.0850 -20.0750 -20.0748 -20.0716
   -20.0698 -20.0360 -20.0326 -20.0193 -20.0155 -20.0052 -19.9759 -19.9750
   -19.9403 -19.9389 -19.8958 -19.8943 -19.8640 -19.8625 -19.8538 -19.8520
   -19.8222 -19.7851 -19.7845 -19.7726 -19.7725 -19.7722 -19.7685 -19.7682
   -19.7672 -19.7660 -19.7594 -19.7591 -19.7534 -19.7527 -19.7518 -19.7513
   -19.7510 -19.7498 -19.7475 -19.7345 -19.7339 -19.6299 -19.6258 -19.6024
   -19.6011 -19.5898 -19.5859 -19.5706 -19.5700 -19.5694 -19.5661 -19.5615
   -19.5582 -19.5563 -19.5535 -19.5532 -19.5500 -19.5483 -19.5458 -19.5377
   -19.5372 -19.5371 -19.5369 -19.5366 -19.5346 -19.5343 -19.5322 -19.5302
   -19.5291 -19.5273 -19.5193 -19.5071 -19.5041 -19.4231 -19.4047 -19.4025
    15.3597  16.8898  16.9027  16.9055  17.1551  17.1902  17.1903  17.2076
    17.2249  17.3439  17.3673  17.3710  17.5790  17.5898  17.7241  17.7555
    17.7660  18.1272  18.1291  18.2810  18.2901  18.2974  18.3045  18.3063
    18.5068  18.5907  18.6003  18.6123  18.6129  18.6630  18.6799  18.6816
    18.8543  18.8670  18.8672  18.8674  18.8916  18.8936  18.9602  18.9733
    19.0228  19.0236  19.1169  19.3970  19.4046  19.4151  19.4238  19.4656
    19.4778  19.4797  19.4924  19.5414  19.5519  19.6339  19.6345  19.6709
    19.7396  19.7441  19.7656  19.7696  19.8638  19.8746  19.8822  19.9033
    19.9077  19.9184  19.9196  19.9236  19.9302  20.1680  20.1708  20.1921
    20.1938  20.2152  20.2696  20.3099  20.3218  20.3517  20.4078  20.4455
    20.4532  20.4587  20.4605  20.4791  20.4818  20.4911  20.5591  20.5929
    21.2619  21.2807  21.3895  21.4115  21.5029  21.5194  21.6293  21.6298
    21.6598  21.7571  21.7667  21.7894  21.9335  21.9383  21.9422  21.9687
    21.9741  22.0154  22.0212  22.0534  22.1092  22.1212  22.4314  22.4443
    22.4510  22.4559  22.4649  22.4780  22.5762  22.5828  22.5908  22.5982
    22.7116  22.7220  22.7393  22.7415  22.8195  22.8316  22.8429  22.8471
    22.8846  22.9017  23.0453  23.0462  23.0615  23.1085  23.1186  23.1944
    23.2268  23.2378  23.2385  23.2881  23.2938  23.4783  23.4950  23.7114
    23.7292  23.9031  23.9168  23.9719  24.4211  24.4443  24.5418  24.5439
    24.5608  24.5888  24.6500  24.6635  24.6640  24.8564  24.9200  25.0408
    25.0408  25.0628  25.0642  25.0711  25.1610  25.1643  25.1679  25.1717
    25.3507  25.3575  25.5796  26.0947  26.1119  26.5045  26.5520  26.6171
    26.6396  27.0852  27.0856

          k = 0.0556 0.0554 0.2778 ( 30286 PWs)   bands (ev):

   -49.9801 -49.9276 -49.8865 -49.8857 -49.8685 -49.8675 -49.8572 -49.8568
   -49.8437 -49.8432 -49.8359 -49.8352 -49.8309 -49.8265 -49.8263 -49.8260
   -49.8259 -49.8228 -49.8185 -49.8066 -49.8062 -49.8011 -49.8007 -49.7821
   -49.7780 -49.7773 -49.7771 -49.7762 -49.7741 -49.7733 -49.7724 -49.7722
   -20.3639 -20.3565 -20.3563 -20.3447 -20.3033 -20.3025 -20.2897 -20.2044
   -20.1899 -20.1895 -20.1688 -20.1687 -20.1685 -20.1396 -20.1364 -20.1336
   -20.1305 -20.1024 -20.1009 -20.0806 -20.0785 -20.0773 -20.0756 -20.0749
   -20.0430 -20.0383 -20.0380 -20.0357 -20.0038 -20.0003 -19.9631 -19.9607
   -19.9344 -19.9325 -19.9290 -19.9279 -19.8930 -19.8914 -19.8906 -19.8891
   -19.7893 -19.7866 -19.7725 -19.7675 -19.7639 -19.7609 -19.7539 -19.7485
   -19.7412 -19.7400 -19.7396 -19.7332 -19.7331 -19.7271 -19.7261 -19.7232
   -19.7230 -19.7059 -19.6966 -19.6963 -19.6896 -19.6600 -19.6552 -19.6168
   -19.6157 -19.5949 -19.5912 -19.5908 -19.5879 -19.5844 -19.5835 -19.5817
   -19.5757 -19.5730 -19.5699 -19.5687 -19.5533 -19.5489 -19.5409 -19.5405
   -19.5390 -19.5371 -19.5370 -19.5368 -19.5355 -19.5296 -19.5275 -19.5271
   -19.5201 -19.5044 -19.5022 -19.5021 -19.4997 -19.4535 -19.4156 -19.4128
    15.5294  16.8491  16.9881  17.0270  17.0299  17.2518  17.3035  17.3035
    17.3373  17.4196  17.4898  17.4943  17.6307  17.6998  17.7097  17.8831
    17.8928  17.9202  17.9228  18.0686  18.1719  18.2717  18.2722  18.3392
    18.3745  18.3888  18.4044  18.4194  18.5041  18.5072  18.5589  18.5698
    18.6687  18.6763  18.7225  18.7248  18.8413  18.8431  18.9192  18.9293
    19.0965  19.0991  19.2942  19.3015  19.3586  19.3623  19.3649  19.3711
    19.3742  19.3825  19.3995  19.4180  19.4267  19.5130  19.5250  19.6730
    19.6789  19.7354  19.7941  19.8010  19.8613  19.8668  19.9134  19.9266
    19.9295  19.9411  19.9975  20.0025  20.0350  20.2067  20.2565  20.2649
    20.2676  20.2774  20.3290  20.3766  20.5189  20.5595  20.5815  20.5910
    20.5934  20.6080  20.6129  20.6511  20.6855  20.7165  20.9884  21.0012
    21.0480  21.0501  21.0656  21.0710  21.2678  21.3799  21.3814  21.4156
    21.4282  21.4866  21.8558  21.8891  21.8960  22.0982  22.1066  22.1150
    22.1207  22.1536  22.1572  22.2305  22.2344  22.3476  22.3571  22.4472
    22.4575  22.5702  22.5758  22.5763  22.5855  22.5881  22.6081  22.6143
    22.6637  22.6706  22.6859  22.7325  22.7611  22.7656  22.8791  22.9468
    22.9497  22.9528  23.0182  23.0211  23.1538  23.2846  23.3518  23.3556
    23.3581  23.4401  23.4455  23.4832  23.5126  23.5198  23.5338  23.7369
    23.7661  23.8903  23.9020  24.1338  24.1595  24.1652  24.3372  24.3375
    24.3710  24.4995  24.4999  24.5091  24.5354  24.5958  24.8107  24.8109
    24.8280  24.8295  24.8730  25.1586  25.1627  25.1686  25.1704  25.3147
    25.5892  25.6016  25.7846  25.7873  25.9756  26.0915  26.1096  26.1349
    26.4332  26.9698  26.9702

          k = 0.0556 0.0554 0.3889 ( 30248 PWs)   bands (ev):

   -49.9707 -49.9440 -49.8812 -49.8804 -49.8663 -49.8658 -49.8640 -49.8631
   -49.8514 -49.8507 -49.8350 -49.8324 -49.8264 -49.8263 -49.8261 -49.8260
   -49.8214 -49.8192 -49.8187 -49.7976 -49.7971 -49.7937 -49.7930 -49.7917
   -49.7831 -49.7823 -49.7815 -49.7806 -49.7739 -49.7735 -49.7724 -49.7722
   -20.3352 -20.3247 -20.3244 -20.3093 -20.2792 -20.2785 -20.2527 -20.2522
   -20.2383 -20.2380 -20.2182 -20.2109 -20.2105 -20.1452 -20.1380 -20.1357
   -20.1242 -20.1222 -20.1170 -20.1169 -20.0917 -20.0910 -20.0530 -20.0484
   -20.0242 -20.0216 -20.0068 -20.0021 -19.9917 -19.9885 -19.9828 -19.9794
   -19.9695 -19.9673 -19.9291 -19.9260 -19.9257 -19.9233 -19.8856 -19.8842
   -19.8145 -19.8124 -19.7662 -19.7627 -19.7613 -19.7560 -19.7326 -19.7258
   -19.7184 -19.6970 -19.6966 -19.6941 -19.6938 -19.6908 -19.6905 -19.6903
   -19.6894 -19.6878 -19.6821 -19.6615 -19.6614 -19.6604 -19.6379 -19.6370
   -19.6243 -19.6239 -19.6216 -19.6212 -19.6199 -19.6171 -19.6047 -19.6039
   -19.6023 -19.6018 -19.5809 -19.5597 -19.5583 -19.5474 -19.5431 -19.5370
   -19.5368 -19.5367 -19.5360 -19.5347 -19.5336 -19.5249 -19.5246 -19.5239
   -19.5213 -19.5038 -19.5022 -19.4970 -19.4766 -19.4743 -19.4316 -19.4287
    15.7766  16.4577  17.1272  17.2054  17.2083  17.4045  17.4714  17.4715
    17.4730  17.5200  17.5318  17.6722  17.6739  17.6769  17.6778  17.8588
    17.8690  17.8702  17.8788  17.9604  17.9607  18.0283  18.0639  18.0724
    18.2091  18.2180  18.2956  18.3006  18.5016  18.5124  18.5143  18.5191
    18.5700  18.5834  18.7622  18.7630  18.7833  18.7879  19.0053  19.0097
    19.0119  19.0184  19.1053  19.1085  19.2515  19.2546  19.2917  19.2956
    19.3334  19.3444  19.3940  19.4063  19.4095  19.4133  19.6556  19.6612
    19.6731  19.7122  19.7165  19.8347  19.9310  19.9377  19.9460  19.9506
    19.9572  19.9646  20.0838  20.1350  20.1496  20.1655  20.1717  20.1779
    20.1799  20.3107  20.3673  20.3717  20.6458  20.7036  20.7167  20.7195
    20.7280  20.7346  20.7437  20.7450  20.7910  20.8235  21.0270  21.0355
    21.0529  21.1088  21.1652  21.1991  21.2003  21.2025  21.2081  21.2267
    21.6767  21.7020  22.0160  22.0196  22.0317  22.0871  22.0917  22.2115
    22.2145  22.2175  22.2685  22.2863  22.2879  22.3291  22.3321  22.3645
    22.3693  22.4147  22.4180  22.4250  22.4318  22.4949  22.5375  22.5419
    22.5794  22.5812  22.5993  22.6041  22.6887  22.6919  22.9079  22.9104
    23.0176  23.0308  23.0597  23.1701  23.2225  23.3634  23.3662  23.4929
    23.6807  23.6834  23.6873  23.7909  23.7986  23.7989  23.8374  23.8392
    24.0594  24.0603  24.0622  24.1195  24.2116  24.2159  24.2204  24.2754
    24.2824  24.2930  24.3335  24.3373  24.5062  24.5114  24.5191  24.5224
    24.5670  24.5692  24.6444  25.0967  25.1042  25.1587  25.1611  25.1691
    25.1699  25.3280  25.5656  25.5790  25.6851  26.1887  26.1896  26.2503
    26.6231  26.7861  26.7864

          k = 0.0556 0.0554-0.5000 ( 30260 PWs)   bands (ev):

   -49.9586 -49.9585 -49.8745 -49.8743 -49.8738 -49.8737 -49.8583 -49.8582
   -49.8575 -49.8573 -49.8339 -49.8337 -49.8264 -49.8262 -49.8262 -49.8260
   -49.8203 -49.8201 -49.8041 -49.8039 -49.7898 -49.7896 -49.7892 -49.7890
   -49.7872 -49.7870 -49.7864 -49.7862 -49.7738 -49.7736 -49.7723 -49.7722
   -20.2974 -20.2974 -20.2846 -20.2845 -20.2842 -20.2841 -20.2664 -20.2663
   -20.2482 -20.2481 -20.2477 -20.2475 -20.2036 -20.2035 -20.1300 -20.1300
   -20.1289 -20.1288 -20.1093 -20.1093 -20.1085 -20.1085 -20.0227 -20.0226
   -20.0187 -20.0186 -20.0000 -19.9999 -19.9976 -19.9975 -19.9681 -19.9680
   -19.9639 -19.9638 -19.9568 -19.9566 -19.9537 -19.9536 -19.8471 -19.8469
   -19.8453 -19.8452 -19.7646 -19.7644 -19.7587 -19.7585 -19.7122 -19.7121
   -19.7060 -19.7058 -19.6664 -19.6663 -19.6650 -19.6648 -19.6643 -19.6642
   -19.6592 -19.6591 -19.6577 -19.6577 -19.6570 -19.6569 -19.6546 -19.6546
   -19.6434 -19.6433 -19.6432 -19.6431 -19.6307 -19.6305 -19.6303 -19.6301
   -19.6175 -19.6174 -19.5523 -19.5521 -19.5455 -19.5454 -19.5449 -19.5448
   -19.5448 -19.5447 -19.5370 -19.5368 -19.5365 -19.5363 -19.5230 -19.5229
   -19.5115 -19.5115 -19.5110 -19.5109 -19.4522 -19.4521 -19.4496 -19.4495
    16.0914  16.0915  17.2951  17.2952  17.4267  17.4268  17.4297  17.4298
    17.6113  17.6113  17.6789  17.6790  17.6916  17.6916  17.6919  17.6919
    17.7521  17.7521  17.9127  17.9128  17.9198  17.9199  18.0758  18.0759
    18.0827  18.0828  18.2826  18.2827  18.2896  18.2896  18.6414  18.6414
    18.6472  18.6472  18.7784  18.7785  18.7888  18.7889  18.9315  18.9316
    18.9324  18.9325  19.1266  19.1267  19.1286  19.1287  19.3349  19.3349
    19.3487  19.3488  19.3603  19.3603  19.3627  19.3627  19.6648  19.6648
    19.6660  19.6660  19.9269  19.9271  19.9393  19.9394  19.9537  19.9537
    19.9551  19.9552  20.0615  20.0616  20.0717  20.0718  20.2267  20.2268
    20.4179  20.4179  20.4263  20.4263  20.5238  20.5238  20.5303  20.5304
    20.8170  20.8170  20.8864  20.8864  20.8990  20.8991  20.9392  20.9393
    20.9754  20.9755  21.0050  21.0052  21.6673  21.6673  21.6682  21.6682
    21.6739  21.6739  21.7044  21.7044  22.0705  22.0706  22.0708  22.0709
    22.2667  22.2668  22.3399  22.3399  22.3672  22.3673  22.3837  22.3838
    22.3865  22.3866  22.4601  22.4602  22.4635  22.4636  22.4760  22.4761
    22.4765  22.4767  22.5393  22.5395  22.5430  22.5432  22.7919  22.7920
    22.7921  22.7923  23.1102  23.1103  23.7241  23.7243  23.7261  23.7263
    23.7396  23.7397  23.8212  23.8212  23.9971  23.9972  24.0024  24.0025
    24.0470  24.0471  24.0831  24.0832  24.1595  24.1596  24.1661  24.1662
    24.1775  24.1776  24.1819  24.1820  24.4543  24.4544  24.6300  24.6300
    24.6320  24.6320  24.6656  24.6657  25.0497  25.0497  25.0580  25.0581
    25.1596  25.1598  25.1694  25.1696  26.0003  26.0004  26.5264  26.5264
    26.5265  26.5266  27.0165

          k = 0.0556 0.1661 0.0556 ( 30284 PWs)   bands (ev):

   -49.9867 -49.9106 -49.8892 -49.8892 -49.8705 -49.8705 -49.8545 -49.8471
   -49.8471 -49.8365 -49.8349 -49.8349 -49.8293 -49.8264 -49.8264 -49.8259
   -49.8259 -49.8243 -49.8180 -49.8164 -49.8164 -49.8092 -49.8092 -49.7775
   -49.7746 -49.7746 -49.7742 -49.7741 -49.7722 -49.7721 -49.7717 -49.7717
   -20.3824 -20.3786 -20.3786 -20.3706 -20.3199 -20.3199 -20.3142 -20.1624
   -20.1493 -20.1493 -20.1322 -20.1322 -20.1295 -20.1295 -20.1287 -20.1256
   -20.1256 -20.0992 -20.0991 -20.0848 -20.0848 -20.0714 -20.0714 -20.0700
   -20.0700 -20.0325 -20.0325 -20.0150 -20.0150 -20.0043 -19.9801 -19.9801
   -19.9397 -19.9397 -19.8951 -19.8951 -19.8633 -19.8633 -19.8524 -19.8524
   -19.8220 -19.7845 -19.7845 -19.7756 -19.7756 -19.7740 -19.7740 -19.7665
   -19.7647 -19.7647 -19.7559 -19.7559 -19.7531 -19.7531 -19.7525 -19.7522
   -19.7522 -19.7481 -19.7473 -19.7353 -19.7353 -19.6251 -19.6237 -19.6056
   -19.6056 -19.5872 -19.5872 -19.5732 -19.5732 -19.5700 -19.5700 -19.5615
   -19.5615 -19.5566 -19.5543 -19.5543 -19.5495 -19.5495 -19.5462 -19.5394
   -19.5344 -19.5337 -19.5337 -19.5331 -19.5331 -19.5317 -19.5309 -19.5302
   -19.5302 -19.5262 -19.5160 -19.5071 -19.5071 -19.4232 -19.4044 -19.4026
    15.3591  16.8919  16.9021  16.9021  17.1550  17.1901  17.1901  17.2075
    17.2145  17.3468  17.3676  17.3676  17.5893  17.5893  17.7147  17.7654
    17.7654  18.1128  18.1128  18.2962  18.2962  18.2968  18.3064  18.3065
    18.5053  18.6010  18.6010  18.6106  18.6106  18.6609  18.6790  18.6790
    18.8648  18.8648  18.8678  18.8678  18.8927  18.8927  18.9670  18.9670
    19.0239  19.0239  19.0995  19.3908  19.3908  19.4301  19.4302  19.4792
    19.4792  19.4938  19.4938  19.5500  19.5500  19.6363  19.6363  19.6617
    19.7439  19.7440  19.7554  19.7554  19.8467  19.8666  19.8666  19.9100
    19.9100  19.9251  19.9251  19.9374  19.9374  20.1723  20.1723  20.1976
    20.1976  20.2206  20.2702  20.2848  20.3250  20.3250  20.3900  20.4234
    20.4639  20.4702  20.4702  20.4884  20.4884  20.5083  20.5876  20.5952
    21.2874  21.2874  21.4160  21.4160  21.4819  21.5339  21.6424  21.6424
    21.6716  21.7541  21.7541  21.8071  21.9323  21.9323  21.9424  21.9654
    21.9654  22.0110  22.0110  22.0204  22.1004  22.1004  22.4295  22.4295
    22.4503  22.4503  22.4600  22.4601  22.5823  22.5823  22.5957  22.5957
    22.7095  22.7095  22.7322  22.7322  22.7904  22.8411  22.8414  22.8414
    22.8990  22.9303  23.0542  23.0542  23.0685  23.1082  23.1082  23.2029
    23.2261  23.2261  23.2433  23.2920  23.2920  23.4792  23.5181  23.7123
    23.7123  23.9029  23.9029  23.9866  24.4272  24.4272  24.5413  24.5413
    24.5477  24.5919  24.6493  24.6493  24.6495  24.8476  24.9340  25.0393
    25.0393  25.0417  25.0417  25.0690  25.1877  25.1877  25.1915  25.1915
    25.3623  25.3623  25.5891  26.0947  26.0947  26.4482  26.5733  26.6174
    26.6175  27.1108  27.1108

          k = 0.0556 0.1661 0.1667 ( 30293 PWs)   bands (ev):

   -49.9834 -49.9084 -49.9077 -49.8875 -49.8690 -49.8591 -49.8532 -49.8519
   -49.8465 -49.8464 -49.8347 -49.8346 -49.8326 -49.8276 -49.8236 -49.8231
   -49.8227 -49.8227 -49.8167 -49.8165 -49.8098 -49.8097 -49.8021 -49.7774
   -49.7761 -49.7759 -49.7754 -49.7751 -49.7739 -49.7737 -49.7730 -49.7722
   -20.3752 -20.3751 -20.3639 -20.3517 -20.3116 -20.3077 -20.3066 -20.1684
   -20.1651 -20.1625 -20.1587 -20.1305 -20.1297 -20.1290 -20.1277 -20.1259
   -20.1217 -20.1209 -20.1192 -20.1163 -20.1012 -20.0971 -20.0948 -20.0946
   -20.0349 -20.0138 -20.0128 -20.0087 -20.0087 -19.9945 -19.9909 -19.9725
   -19.9675 -19.9536 -19.9368 -19.8809 -19.8587 -19.8586 -19.8217 -19.8214
   -19.8121 -19.8100 -19.7901 -19.7867 -19.7860 -19.7699 -19.7628 -19.7534
   -19.7523 -19.7507 -19.7505 -19.7504 -19.7485 -19.7479 -19.7475 -19.7473
   -19.7398 -19.7390 -19.7112 -19.7107 -19.6970 -19.6376 -19.6324 -19.6193
   -19.6179 -19.5975 -19.5927 -19.5845 -19.5700 -19.5690 -19.5689 -19.5651
   -19.5630 -19.5609 -19.5604 -19.5589 -19.5589 -19.5576 -19.5456 -19.5420
   -19.5412 -19.5407 -19.5401 -19.5382 -19.5332 -19.5307 -19.5278 -19.5272
   -19.5220 -19.5211 -19.5081 -19.5050 -19.4903 -19.4447 -19.4095 -19.4018
    15.4439  16.9531  16.9559  16.9598  17.1752  17.2276  17.2757  17.2794
    17.2794  17.2854  17.4051  17.4081  17.4329  17.6362  17.7828  17.7913
    17.8120  18.1463  18.1587  18.1727  18.1883  18.3418  18.3493  18.3533
    18.3540  18.3939  18.3940  18.4697  18.5353  18.5359  18.6549  18.6970
    18.6986  18.7169  18.7196  18.7444  18.9130  18.9833  18.9836  18.9882
    18.9891  19.0139  19.0177  19.1260  19.1427  19.3560  19.3672  19.4640
    19.4650  19.4885  19.5371  19.5412  19.5703  19.5722  19.6198  19.6266
    19.6412  19.8222  19.8272  19.8390  19.8418  19.9206  19.9339  19.9950
    19.9990  20.0457  20.1117  20.1172  20.2100  20.2213  20.2418  20.2434
    20.2788  20.2840  20.3245  20.3762  20.3857  20.3970  20.4019  20.4249
    20.4623  20.4706  20.4791  20.5209  20.5639  20.5759  20.5947  20.6363
    21.1489  21.2494  21.2670  21.2883  21.5227  21.5404  21.6897  21.6897
    21.7011  21.7157  21.7162  21.7679  21.7913  21.7959  21.8076  21.8221
    21.8342  21.9753  22.0445  22.1490  22.1497  22.1674  22.1699  22.2171
    22.2932  22.5820  22.5831  22.6957  22.7053  22.7147  22.7199  22.7275
    22.7607  22.7652  22.7777  22.8405  22.8553  22.9017  22.9198  22.9226
    22.9816  22.9883  23.0002  23.0399  23.0407  23.1412  23.2308  23.2903
    23.2931  23.3193  23.3272  23.3993  23.4110  23.4192  23.5346  23.5543
    23.7423  23.9384  24.1099  24.1181  24.1208  24.2444  24.2482  24.4240
    24.5336  24.5364  24.6036  24.6729  24.6788  24.6930  24.7060  24.9372
    24.9384  25.0372  25.0443  25.0617  25.0657  25.0671  25.0807  25.1125
    25.3078  25.5966  25.9417  25.9432  26.0369  26.0537  26.5629  26.5843
    27.0467  27.0893  27.1749

          k = 0.0556 0.1661 0.2778 ( 30267 PWs)   bands (ev):

   -49.9771 -49.9253 -49.9043 -49.8840 -49.8705 -49.8661 -49.8559 -49.8507
   -49.8453 -49.8426 -49.8357 -49.8342 -49.8340 -49.8304 -49.8292 -49.8213
   -49.8196 -49.8171 -49.8116 -49.8108 -49.8071 -49.8019 -49.7953 -49.7819
   -49.7793 -49.7789 -49.7780 -49.7772 -49.7756 -49.7754 -49.7733 -49.7723
   -20.3607 -20.3571 -20.3388 -20.3225 -20.2953 -20.2916 -20.2836 -20.2114
   -20.2023 -20.1693 -20.1684 -20.1678 -20.1674 -20.1617 -20.1406 -20.1377
   -20.1371 -20.1199 -20.1190 -20.1109 -20.1073 -20.1071 -20.1044 -20.0834
   -20.0679 -20.0282 -20.0159 -19.9962 -19.9948 -19.9821 -19.9781 -19.9756
   -19.9580 -19.9480 -19.9209 -19.9113 -19.8938 -19.8577 -19.8485 -19.8195
   -19.8115 -19.8052 -19.7807 -19.7743 -19.7692 -19.7587 -19.7530 -19.7489
   -19.7479 -19.7469 -19.7395 -19.7292 -19.7206 -19.7170 -19.7143 -19.7122
   -19.7121 -19.7086 -19.6759 -19.6737 -19.6681 -19.6604 -19.6499 -19.6475
   -19.6072 -19.6070 -19.6043 -19.6004 -19.5941 -19.5918 -19.5896 -19.5865
   -19.5808 -19.5734 -19.5669 -19.5617 -19.5595 -19.5593 -19.5517 -19.5490
   -19.5468 -19.5462 -19.5412 -19.5406 -19.5318 -19.5286 -19.5254 -19.5107
   -19.5099 -19.5063 -19.5012 -19.4914 -19.4805 -19.4787 -19.4206 -19.4077
    15.6109  16.9119  17.0520  17.0732  17.0809  17.2510  17.3198  17.3947
    17.4046  17.4207  17.4795  17.5302  17.5618  17.6982  17.7251  17.9001
    17.9155  17.9379  17.9804  18.0819  18.1180  18.2053  18.2086  18.2414
    18.2699  18.2909  18.3855  18.4126  18.4301  18.4313  18.4437  18.4655
    18.5926  18.6103  18.6163  18.7239  18.7631  18.8292  18.8382  19.0030
    19.0147  19.0357  19.0715  19.1763  19.2150  19.2802  19.2867  19.3186
    19.3297  19.3835  19.4176  19.4552  19.5355  19.5372  19.5721  19.6416
    19.6611  19.6964  19.8104  19.9350  19.9783  19.9956  20.0264  20.0580
    20.0892  20.1073  20.1557  20.1733  20.2366  20.2456  20.2845  20.2862
    20.3056  20.3808  20.4290  20.4442  20.4537  20.5148  20.5365  20.5584
    20.6058  20.6630  20.6872  20.6896  20.7047  20.7208  20.9371  20.9396
    20.9851  21.0421  21.0465  21.2649  21.2714  21.2856  21.4341  21.4672
    21.5537  21.5691  21.6193  21.7357  21.7820  21.8338  21.8938  21.9977
    22.0148  22.0537  22.0967  22.1492  22.1872  22.2018  22.3001  22.3783
    22.4100  22.4911  22.4947  22.5287  22.5458  22.5701  22.6782  22.6874
    22.6881  22.6995  22.7933  22.8285  22.8864  22.9239  22.9927  23.0066
    23.0198  23.0492  23.0510  23.2324  23.3300  23.3308  23.3526  23.3711
    23.4033  23.5659  23.5704  23.6149  23.6281  23.6289  23.6697  23.6790
    23.6808  23.7638  23.8718  23.9651  24.1256  24.2399  24.3388  24.3576
    24.3840  24.4523  24.4767  24.5958  24.6050  24.6066  24.7511  24.7515
    24.8289  24.8325  24.8917  24.9313  25.0359  25.0470  25.0615  25.0679
    25.1193  25.4957  25.5455  25.9208  26.0566  26.3652  26.4521  26.5472
    26.5724  26.6359  27.5482

          k = 0.0556 0.1661 0.3889 ( 30262 PWs)   bands (ev):

   -49.9677 -49.9414 -49.8982 -49.8810 -49.8789 -49.8646 -49.8619 -49.8499
   -49.8470 -49.8436 -49.8387 -49.8367 -49.8331 -49.8306 -49.8200 -49.8179
   -49.8179 -49.8168 -49.8124 -49.8011 -49.7984 -49.7947 -49.7914 -49.7891
   -49.7843 -49.7840 -49.7830 -49.7790 -49.7769 -49.7761 -49.7730 -49.7725
   -20.3356 -20.3290 -20.3046 -20.2846 -20.2713 -20.2697 -20.2586 -20.2488
   -20.2481 -20.2162 -20.2076 -20.2035 -20.1902 -20.1655 -20.1599 -20.1467
   -20.1455 -20.1443 -20.1400 -20.1295 -20.1065 -20.0943 -20.0893 -20.0746
   -20.0477 -20.0346 -20.0301 -20.0096 -20.0089 -19.9779 -19.9542 -19.9512
   -19.9491 -19.9376 -19.9259 -19.9075 -19.8921 -19.8821 -19.8776 -19.8609
   -19.8385 -19.8063 -19.7519 -19.7491 -19.7478 -19.7471 -19.7454 -19.7424
   -19.7314 -19.7235 -19.7227 -19.6986 -19.6963 -19.6893 -19.6870 -19.6835
   -19.6795 -19.6780 -19.6696 -19.6644 -19.6440 -19.6424 -19.6421 -19.6328
   -19.6293 -19.6293 -19.6273 -19.6266 -19.6261 -19.6191 -19.6186 -19.5936
   -19.5919 -19.5867 -19.5713 -19.5692 -19.5638 -19.5637 -19.5633 -19.5575
   -19.5548 -19.5514 -19.5377 -19.5355 -19.5332 -19.5288 -19.5237 -19.5206
   -19.5127 -19.5045 -19.4921 -19.4826 -19.4778 -19.4635 -19.4369 -19.4205
    15.8542  16.5251  17.1918  17.2380  17.2602  17.3818  17.4658  17.5397
    17.5640  17.5813  17.5900  17.6111  17.6877  17.7118  17.7320  17.7510
    17.8014  17.8464  17.9118  17.9119  18.0037  18.0200  18.0768  18.1053
    18.1175  18.1322  18.2457  18.2857  18.2915  18.3003  18.4630  18.4926
    18.5611  18.5646  18.5938  18.6283  18.7278  18.9248  18.9253  18.9468
    18.9603  19.0587  19.0773  19.1171  19.1363  19.1734  19.1884  19.2040
    19.2419  19.2445  19.3851  19.3919  19.3963  19.5047  19.6669  19.6677
    19.6831  19.7411  19.9425  19.9481  19.9865  20.0121  20.0503  20.0577
    20.0710  20.1084  20.1405  20.1974  20.1992  20.2212  20.2650  20.2800
    20.3797  20.3947  20.4116  20.6000  20.6484  20.6972  20.7180  20.7366
    20.7942  20.8439  20.8449  20.8465  20.8509  20.8530  20.8541  20.8924
    21.0006  21.0716  21.1384  21.1678  21.2029  21.2201  21.3085  21.3388
    21.5478  21.6566  21.7065  21.7773  21.7830  21.8347  21.9455  22.0004
    22.0222  22.0512  22.0996  22.1052  22.1109  22.1154  22.1910  22.2581
    22.3217  22.3746  22.4735  22.5034  22.5212  22.5806  22.6087  22.6253
    22.6458  22.7459  22.7910  22.7958  22.8710  22.9206  22.9394  22.9964
    23.0509  23.0931  23.2247  23.2705  23.3186  23.3226  23.3930  23.4101
    23.5903  23.6205  23.6905  23.7831  23.9051  23.9072  23.9225  23.9346
    23.9583  23.9667  23.9815  24.0721  24.0901  24.1668  24.1697  24.2694
    24.3486  24.4421  24.4517  24.5076  24.5099  24.5191  24.5213  24.5334
    24.6667  24.6688  24.7340  24.9753  25.0362  25.0480  25.0497  25.0504
    25.0566  25.2376  25.5280  25.7465  25.7823  25.9419  26.0828  26.2829
    26.7745  27.0983  27.3754

          k = 0.0556 0.1661-0.5000 ( 30268 PWs)   bands (ev):

   -49.9558 -49.9557 -49.8904 -49.8903 -49.8725 -49.8723 -49.8565 -49.8563
   -49.8424 -49.8422 -49.8414 -49.8412 -49.8321 -49.8319 -49.8189 -49.8187
   -49.8145 -49.8143 -49.8036 -49.8034 -49.7919 -49.7917 -49.7908 -49.7906
   -49.7885 -49.7883 -49.7837 -49.7835 -49.7766 -49.7765 -49.7728 -49.7726
   -20.3010 -20.3009 -20.2922 -20.2922 -20.2629 -20.2628 -20.2415 -20.2413
   -20.2405 -20.2404 -20.2396 -20.2395 -20.2022 -20.2020 -20.1560 -20.1559
   -20.1476 -20.1475 -20.1467 -20.1467 -20.0935 -20.0935 -20.0689 -20.0688
   -20.0421 -20.0420 -20.0336 -20.0335 -19.9898 -19.9897 -19.9543 -19.9542
   -19.9243 -19.9242 -19.9121 -19.9120 -19.9058 -19.9058 -19.8707 -19.8707
   -19.8390 -19.8389 -19.7507 -19.7505 -19.7457 -19.7457 -19.7215 -19.7213
   -19.7029 -19.7027 -19.6979 -19.6978 -19.6923 -19.6922 -19.6731 -19.6730
   -19.6638 -19.6637 -19.6581 -19.6581 -19.6535 -19.6534 -19.6507 -19.6506
   -19.6506 -19.6504 -19.6226 -19.6225 -19.6158 -19.6156 -19.5967 -19.5965
   -19.5947 -19.5947 -19.5805 -19.5804 -19.5787 -19.5786 -19.5598 -19.5596
   -19.5549 -19.5548 -19.5478 -19.5477 -19.5353 -19.5351 -19.5164 -19.5162
   -19.5142 -19.5141 -19.4820 -19.4820 -19.4578 -19.4577 -19.4396 -19.4395
    16.1641  16.1642  17.3607  17.3608  17.4469  17.4470  17.4830  17.4831
    17.5662  17.5662  17.6640  17.6640  17.7347  17.7349  17.7721  17.7722
    17.8067  17.8067  17.8458  17.8458  17.9512  17.9513  17.9870  17.9870
    17.9948  17.9948  18.1584  18.1585  18.3387  18.3388  18.3871  18.3871
    18.6727  18.6727  18.6815  18.6816  18.7410  18.7411  18.8342  18.8343
    19.0728  19.0728  19.1116  19.1117  19.1383  19.1383  19.1767  19.1767
    19.2361  19.2362  19.3079  19.3079  19.3218  19.3218  19.7964  19.7965
    19.8523  19.8524  19.8600  19.8601  19.9281  19.9282  19.9746  19.9746
    20.1390  20.1391  20.1411  20.1412  20.3371  20.3372  20.3587  20.3588
    20.4280  20.4280  20.4609  20.4609  20.5268  20.5268  20.7044  20.7044
    20.8043  20.8043  20.8982  20.8982  20.9748  20.9749  21.0020  21.0021
    21.0340  21.0340  21.0583  21.0584  21.4760  21.4760  21.5180  21.5180
    21.5519  21.5519  21.6022  21.6022  21.7766  21.7767  21.7812  21.7813
    22.0357  22.0358  22.1941  22.1941  22.2332  22.2333  22.2921  22.2922
    22.2947  22.2948  22.3549  22.3550  22.4185  22.4186  22.5212  22.5213
    22.7196  22.7197  22.7391  22.7392  22.8457  22.8458  23.0986  23.0987
    23.1411  23.1412  23.1447  23.1449  23.2133  23.2134  23.6658  23.6659
    23.7470  23.7471  23.7615  23.7615  23.9799  23.9800  24.0370  24.0371
    24.1626  24.1627  24.2068  24.2068  24.2147  24.2148  24.2305  24.2306
    24.2318  24.2318  24.2396  24.2397  24.2530  24.2531  24.4437  24.4437
    24.5806  24.5807  25.0078  25.0078  25.0393  25.0395  25.0527  25.0528
    25.2955  25.2956  25.5161  25.5162  25.5234  25.5234  26.0563  26.0564
    27.1183  27.1184  27.5441

          k = 0.0556 0.2769 0.0556 ( 30262 PWs)   bands (ev):

   -49.9803 -49.9282 -49.8857 -49.8857 -49.8675 -49.8674 -49.8568 -49.8568
   -49.8431 -49.8431 -49.8367 -49.8359 -49.8309 -49.8264 -49.8264 -49.8260
   -49.8259 -49.8228 -49.8185 -49.8067 -49.8067 -49.8010 -49.8010 -49.7841
   -49.7782 -49.7782 -49.7771 -49.7771 -49.7722 -49.7721 -49.7718 -49.7718
   -20.3641 -20.3568 -20.3568 -20.3451 -20.3037 -20.3037 -20.2887 -20.2070
   -20.1926 -20.1926 -20.1719 -20.1710 -20.1710 -20.1354 -20.1354 -20.1298
   -20.1298 -20.0998 -20.0998 -20.0775 -20.0763 -20.0763 -20.0745 -20.0745
   -20.0384 -20.0384 -20.0351 -20.0351 -19.9998 -19.9998 -19.9617 -19.9617
   -19.9337 -19.9337 -19.9330 -19.9330 -19.8914 -19.8914 -19.8893 -19.8893
   -19.7939 -19.7939 -19.7733 -19.7634 -19.7634 -19.7564 -19.7563 -19.7418
   -19.7405 -19.7405 -19.7377 -19.7353 -19.7353 -19.7276 -19.7276 -19.7250
   -19.7250 -19.7066 -19.6980 -19.6980 -19.6891 -19.6547 -19.6527 -19.6199
   -19.6199 -19.5951 -19.5951 -19.5910 -19.5910 -19.5869 -19.5869 -19.5847
   -19.5740 -19.5740 -19.5721 -19.5721 -19.5563 -19.5451 -19.5399 -19.5399
   -19.5370 -19.5336 -19.5335 -19.5330 -19.5330 -19.5297 -19.5297 -19.5238
   -19.5168 -19.5023 -19.5022 -19.5022 -19.5009 -19.4537 -19.4151 -19.4126
    15.5278  16.8402  16.9891  17.0252  17.0252  17.2514  17.3031  17.3031
    17.3370  17.4216  17.4906  17.4906  17.6234  17.7083  17.7083  17.8911
    17.8911  17.9087  17.9087  18.0636  18.1701  18.2699  18.2699  18.3372
    18.3867  18.3867  18.4187  18.4187  18.5031  18.5031  18.5642  18.5642
    18.6783  18.6783  18.7199  18.7199  18.8407  18.8407  18.9315  18.9316
    19.0961  19.0962  19.3040  19.3040  19.3599  19.3599  19.3643  19.3643
    19.3785  19.3860  19.3860  19.4318  19.4318  19.5203  19.5203  19.6831
    19.6831  19.7257  19.7899  19.7899  19.8535  19.8535  19.9291  19.9291
    19.9473  19.9473  20.0110  20.0110  20.0195  20.1836  20.2502  20.2502
    20.2776  20.2776  20.2969  20.3530  20.5445  20.5896  20.5896  20.5960
    20.6102  20.6102  20.6172  20.6831  20.6883  20.7164  21.0122  21.0122
    21.0609  21.0609  21.0736  21.0736  21.2861  21.3974  21.3974  21.4316
    21.4370  21.5028  21.8327  21.8808  21.8808  22.0865  22.0865  22.1094
    22.1094  22.1478  22.1478  22.2234  22.2234  22.3429  22.3429  22.4401
    22.4401  22.5434  22.5729  22.5729  22.5793  22.5793  22.6092  22.6092
    22.6533  22.6597  22.6597  22.7365  22.7652  22.7652  22.8805  22.9450
    22.9450  22.9779  23.0110  23.0110  23.1584  23.2973  23.3606  23.3606
    23.3773  23.4377  23.4377  23.4866  23.5099  23.5099  23.5349  23.7489
    23.7489  23.8917  23.8917  24.1455  24.1576  24.1577  24.3337  24.3337
    24.3602  24.4949  24.4949  24.5049  24.5233  24.5855  24.8086  24.8086
    24.8109  24.8109  24.8732  25.1886  25.1886  25.1910  25.1910  25.3288
    25.5890  25.5890  25.7980  25.7980  25.9258  26.0917  26.0917  26.1459
    26.4533  26.9935  26.9935

          k = 0.0556 0.2769 0.1667 ( 30266 PWs)   bands (ev):

   -49.9771 -49.9258 -49.9036 -49.8840 -49.8703 -49.8661 -49.8560 -49.8495
   -49.8452 -49.8426 -49.8357 -49.8357 -49.8341 -49.8297 -49.8292 -49.8212
   -49.8197 -49.8170 -49.8123 -49.8109 -49.8072 -49.8018 -49.7955 -49.7839
   -49.7795 -49.7792 -49.7787 -49.7761 -49.7753 -49.7742 -49.7728 -49.7722
   -20.3608 -20.3575 -20.3391 -20.3229 -20.2955 -20.2929 -20.2825 -20.2137
   -20.2052 -20.1717 -20.1711 -20.1646 -20.1644 -20.1638 -20.1436 -20.1359
   -20.1353 -20.1196 -20.1182 -20.1109 -20.1081 -20.1047 -20.1009 -20.0823
   -20.0641 -20.0292 -20.0132 -19.9957 -19.9951 -19.9819 -19.9772 -19.9749
   -19.9532 -19.9515 -19.9266 -19.9104 -19.8933 -19.8573 -19.8457 -19.8202
   -19.8130 -19.8063 -19.7880 -19.7753 -19.7720 -19.7525 -19.7517 -19.7503
   -19.7457 -19.7453 -19.7366 -19.7301 -19.7226 -19.7170 -19.7158 -19.7135
   -19.7117 -19.7087 -19.6768 -19.6742 -19.6624 -19.6611 -19.6525 -19.6482
   -19.6096 -19.6081 -19.6045 -19.6026 -19.5949 -19.5933 -19.5919 -19.5895
   -19.5792 -19.5753 -19.5631 -19.5625 -19.5618 -19.5564 -19.5544 -19.5465
   -19.5461 -19.5452 -19.5443 -19.5371 -19.5308 -19.5287 -19.5222 -19.5084
   -19.5071 -19.5069 -19.5038 -19.4907 -19.4806 -19.4786 -19.4203 -19.4075
    15.6099  16.9038  17.0536  17.0721  17.0768  17.2507  17.3196  17.4028
    17.4043  17.4205  17.4818  17.5269  17.5623  17.6917  17.7242  17.8992
    17.9222  17.9286  17.9669  18.0810  18.1131  18.2041  18.2174  18.2415
    18.2687  18.3049  18.3830  18.4110  18.4294  18.4382  18.4420  18.4653
    18.5873  18.6094  18.6193  18.7240  18.7642  18.8318  18.8346  19.0044
    19.0198  19.0351  19.0771  19.1914  19.2146  19.2731  19.2943  19.3188
    19.3278  19.3844  19.3978  19.4579  19.5326  19.5415  19.5665  19.6401
    19.6650  19.7055  19.8230  19.9285  19.9644  20.0075  20.0374  20.0667
    20.0760  20.1100  20.1344  20.1744  20.2300  20.2553  20.2712  20.2860
    20.2952  20.3809  20.4052  20.4514  20.4578  20.5235  20.5508  20.5616
    20.6224  20.6835  20.6874  20.7000  20.7029  20.7217  20.9441  20.9504
    20.9903  21.0371  21.0637  21.2754  21.2868  21.2931  21.4537  21.4931
    21.5690  21.5837  21.5995  21.7291  21.7597  21.8176  21.8867  21.9864
    22.0024  22.0420  22.0930  22.1255  22.1824  22.1990  22.2942  22.3770
    22.4043  22.4899  22.4972  22.5308  22.5443  22.5664  22.6552  22.6785
    22.6928  22.7008  22.7937  22.8147  22.8819  22.9459  22.9841  23.0011
    23.0177  23.0448  23.0553  23.2433  23.3283  23.3314  23.3481  23.3934
    23.4018  23.5611  23.5757  23.6198  23.6225  23.6261  23.6567  23.6718
    23.6848  23.7618  23.8729  23.9600  24.1241  24.2381  24.3383  24.3647
    24.3712  24.4485  24.4721  24.5851  24.5994  24.6059  24.7497  24.7515
    24.8090  24.8150  24.8824  24.9455  25.0610  25.0672  25.0774  25.0836
    25.1191  25.5067  25.5331  25.9369  26.0392  26.3711  26.4721  26.5366
    26.5529  26.6372  27.5752

          k = 0.0556 0.2769 0.2778 ( 30249 PWs)   bands (ev):

   -49.9709 -49.9212 -49.9206 -49.8832 -49.8807 -49.8634 -49.8543 -49.8542
   -49.8415 -49.8414 -49.8404 -49.8337 -49.8323 -49.8322 -49.8177 -49.8169
   -49.8167 -49.8166 -49.8083 -49.8081 -49.8036 -49.8034 -49.7902 -49.7834
   -49.7821 -49.7820 -49.7815 -49.7802 -49.7789 -49.7751 -49.7746 -49.7726
   -20.3471 -20.3469 -20.3116 -20.2910 -20.2794 -20.2714 -20.2702 -20.2126
   -20.2107 -20.2091 -20.2066 -20.1719 -20.1697 -20.1500 -20.1480 -20.1436
   -20.1435 -20.1431 -20.1409 -20.1332 -20.1319 -20.1090 -20.1062 -20.1062
   -20.0921 -20.0911 -20.0122 -20.0045 -19.9787 -19.9762 -19.9570 -19.9567
   -19.9475 -19.9431 -19.9129 -19.9074 -19.8391 -19.8388 -19.8376 -19.8105
   -19.8095 -19.8072 -19.8037 -19.7764 -19.7693 -19.7500 -19.7495 -19.7383
   -19.7361 -19.7350 -19.7323 -19.7319 -19.7212 -19.7191 -19.6982 -19.6975
   -19.6836 -19.6789 -19.6786 -19.6780 -19.6438 -19.6436 -19.6409 -19.6396
   -19.6284 -19.6277 -19.6259 -19.6191 -19.5971 -19.5970 -19.5954 -19.5898
   -19.5868 -19.5865 -19.5863 -19.5838 -19.5586 -19.5582 -19.5577 -19.5566
   -19.5545 -19.5484 -19.5357 -19.5332 -19.5308 -19.5286 -19.5234 -19.5214
   -19.5167 -19.5069 -19.5043 -19.4769 -19.4763 -19.4657 -19.4316 -19.4074
    15.7714  17.0279  17.0347  17.1666  17.1767  17.1797  17.3017  17.3865
    17.5524  17.5526  17.5989  17.6014  17.7011  17.7556  17.8252  17.8301
    17.9198  17.9636  17.9702  17.9762  17.9999  18.0000  18.0808  18.0930
    18.1370  18.1374  18.2119  18.2163  18.4143  18.4954  18.4960  18.5108
    18.5134  18.5500  18.5510  18.6330  18.6376  18.7261  18.7262  18.8026
    18.8067  18.9272  19.0706  19.0721  19.1377  19.1412  19.1462  19.3799
    19.3825  19.3962  19.3980  19.4322  19.4339  19.4496  19.5055  19.8319
    19.8406  19.9405  19.9467  20.0254  20.0263  20.0901  20.0955  20.1276
    20.1387  20.1413  20.1574  20.2294  20.2580  20.3215  20.3304  20.4104
    20.4204  20.4684  20.4777  20.6217  20.6277  20.6295  20.6949  20.7056
    20.7197  20.7498  20.7578  20.7895  20.8197  20.8313  20.8343  20.8390
    20.9866  20.9945  21.1089  21.1238  21.3292  21.3525  21.4643  21.4879
    21.5236  21.5433  21.6247  21.6436  21.6518  21.7220  21.7463  21.7598
    21.7854  21.7979  21.9594  21.9795  22.1207  22.1417  22.1441  22.1511
    22.1521  22.2729  22.3439  22.4781  22.4791  22.6134  22.6380  22.6408
    22.9259  22.9320  22.9329  23.0563  23.0603  23.0808  23.0811  23.1895
    23.1913  23.1999  23.2093  23.2766  23.2852  23.3922  23.3929  23.3977
    23.3982  23.4469  23.4626  23.7130  23.7400  23.7404  23.7925  23.8828
    23.8873  23.8885  23.9094  23.9134  24.0661  24.1176  24.2917  24.2938
    24.4983  24.6152  24.6186  24.6426  24.6434  24.6443  24.6589  24.6784
    24.8140  24.8203  24.8338  24.8369  24.8641  24.8691  24.8698  24.8760
    24.9714  25.3310  25.4223  25.4344  25.9349  25.9513  26.9989  26.9999
    27.2353  27.2743  27.3041

          k = 0.0556 0.2769 0.3889 ( 30275 PWs)   bands (ev):

   -49.9619 -49.9364 -49.9143 -49.8950 -49.8759 -49.8624 -49.8594 -49.8517
   -49.8483 -49.8447 -49.8397 -49.8351 -49.8308 -49.8227 -49.8165 -49.8141
   -49.8126 -49.8098 -49.8058 -49.8050 -49.7999 -49.7969 -49.7907 -49.7866
   -49.7860 -49.7857 -49.7853 -49.7828 -49.7812 -49.7775 -49.7743 -49.7730
   -20.3261 -20.3230 -20.2758 -20.2559 -20.2557 -20.2522 -20.2510 -20.2504
   -20.2399 -20.2045 -20.2041 -20.2012 -20.1890 -20.1872 -20.1708 -20.1697
   -20.1677 -20.1553 -20.1515 -20.1491 -20.1305 -20.1241 -20.1109 -20.1021
   -20.0972 -20.0694 -20.0386 -20.0365 -20.0075 -19.9834 -19.9389 -19.9296
   -19.9189 -19.8971 -19.8933 -19.8704 -19.8695 -19.8647 -19.8461 -19.8397
   -19.7956 -19.7945 -19.7787 -19.7647 -19.7595 -19.7576 -19.7356 -19.7339
   -19.7276 -19.7212 -19.7208 -19.7124 -19.7037 -19.7008 -19.6904 -19.6827
   -19.6738 -19.6717 -19.6714 -19.6707 -19.6639 -19.6511 -19.6405 -19.6388
   -19.6339 -19.6285 -19.6161 -19.6141 -19.6135 -19.6076 -19.6069 -19.6057
   -19.5933 -19.5847 -19.5820 -19.5742 -19.5718 -19.5714 -19.5692 -19.5678
   -19.5644 -19.5486 -19.5464 -19.5402 -19.5393 -19.5371 -19.5366 -19.5245
   -19.5115 -19.5090 -19.4948 -19.4642 -19.4579 -19.4506 -19.4482 -19.4149
    16.0070  16.6574  17.2067  17.3092  17.3182  17.3608  17.4043  17.5033
    17.6702  17.6880  17.7058  17.7251  17.7311  17.7438  17.7576  17.7794
    17.8011  17.8394  17.8814  17.8991  17.9256  17.9562  18.0171  18.0173
    18.0363  18.0700  18.2162  18.2300  18.2445  18.2553  18.3009  18.3593
    18.4262  18.5255  18.5883  18.6473  18.6517  18.6530  18.7005  18.7027
    18.7962  18.8772  18.9096  18.9862  19.0262  19.1528  19.1546  19.1888
    19.2568  19.3490  19.4726  19.4729  19.5060  19.5214  19.6961  19.7415
    19.7751  19.7911  19.8782  20.0218  20.1031  20.1114  20.1907  20.2221
    20.2235  20.2461  20.2539  20.3549  20.3789  20.3944  20.4155  20.5150
    20.5187  20.5921  20.6168  20.6351  20.6362  20.6677  20.7293  20.7947
    20.8228  20.8294  20.8862  20.8928  20.9037  20.9740  21.0147  21.0164
    21.0167  21.0981  21.1058  21.1285  21.2052  21.2705  21.3243  21.4325
    21.4888  21.4937  21.5231  21.5614  21.5820  21.6050  21.6369  21.6399
    21.7471  21.7631  21.7852  21.8381  21.9673  21.9920  22.0135  22.0644
    22.1699  22.1749  22.3434  22.3679  22.4869  22.5241  22.5972  22.6944
    22.8303  22.8612  22.8700  22.9181  22.9921  23.0793  23.1445  23.1554
    23.2340  23.2629  23.3163  23.4168  23.4285  23.4449  23.5156  23.5770
    23.6266  23.6338  23.7823  23.7867  23.7888  23.8320  24.0101  24.0544
    24.0775  24.0889  24.1292  24.1358  24.1460  24.1562  24.1595  24.2052
    24.2717  24.4222  24.4946  24.5028  24.5031  24.5277  24.5351  24.5369
    24.5560  24.6241  24.8157  24.8263  24.8271  24.8476  24.8954  24.9450
    25.2597  25.3798  25.4003  25.4289  25.4598  25.7821  26.6589  26.6603
    27.4294  27.6073  27.9052

          k = 0.0556 0.2769-0.5000 ( 30278 PWs)   bands (ev):

   -49.9503 -49.9501 -49.9056 -49.9054 -49.8699 -49.8697 -49.8544 -49.8542
   -49.8486 -49.8484 -49.8377 -49.8375 -49.8272 -49.8270 -49.8118 -49.8117
   -49.8090 -49.8088 -49.8026 -49.8024 -49.7946 -49.7944 -49.7928 -49.7926
   -49.7910 -49.7908 -49.7822 -49.7820 -49.7811 -49.7810 -49.7737 -49.7735
   -20.2952 -20.2952 -20.2903 -20.2902 -20.2335 -20.2334 -20.2291 -20.2289
   -20.2254 -20.2252 -20.2049 -20.2048 -20.1989 -20.1987 -20.1915 -20.1915
   -20.1887 -20.1887 -20.1634 -20.1633 -20.1137 -20.1136 -20.1088 -20.1087
   -20.0752 -20.0751 -20.0315 -20.0314 -20.0267 -20.0267 -19.9030 -19.9030
   -19.9007 -19.9006 -19.8821 -19.8820 -19.8688 -19.8686 -19.8457 -19.8457
   -19.8267 -19.8266 -19.7380 -19.7379 -19.7351 -19.7349 -19.7301 -19.7299
   -19.7231 -19.7230 -19.7220 -19.7219 -19.7078 -19.7078 -19.6984 -19.6982
   -19.6702 -19.6701 -19.6629 -19.6629 -19.6450 -19.6449 -19.6428 -19.6427
   -19.6270 -19.6268 -19.6203 -19.6202 -19.6167 -19.6166 -19.6043 -19.6042
   -19.5920 -19.5918 -19.5779 -19.5777 -19.5758 -19.5757 -19.5747 -19.5746
   -19.5645 -19.5644 -19.5535 -19.5534 -19.5411 -19.5410 -19.5204 -19.5204
   -19.5175 -19.5173 -19.4695 -19.4694 -19.4576 -19.4576 -19.4296 -19.4296
    16.3071  16.3072  17.4307  17.4308  17.4891  17.4892  17.4975  17.4976
    17.5571  17.5571  17.5863  17.5864  17.6689  17.6689  17.8460  17.8461
    17.8586  17.8587  17.9536  17.9536  17.9728  17.9728  18.0077  18.0077
    18.0135  18.0136  18.1303  18.1303  18.1453  18.1454  18.2560  18.2560
    18.4453  18.4454  18.5548  18.5549  18.6653  18.6653  18.7892  18.7892
    18.7902  18.7903  18.9389  18.9390  19.0391  19.0392  19.0605  19.0605
    19.4321  19.4322  19.5072  19.5072  19.6001  19.6001  19.6112  19.6112
    19.6417  19.6418  19.9190  19.9191  20.1709  20.1710  20.2637  20.2638
    20.2859  20.2859  20.3888  20.3888  20.3923  20.3924  20.4336  20.4336
    20.5193  20.5193  20.6584  20.6584  20.7819  20.7820  20.8573  20.8573
    20.8741  20.8742  20.9411  20.9412  20.9873  20.9874  21.0006  21.0008
    21.1861  21.1861  21.1975  21.1975  21.2194  21.2194  21.2329  21.2330
    21.4003  21.4003  21.4098  21.4098  21.5143  21.5144  21.5227  21.5228
    21.7314  21.7315  21.9429  21.9430  22.1024  22.1025  22.1364  22.1365
    22.1683  22.1684  22.2094  22.2095  22.3157  22.3158  22.5018  22.5019
    22.6940  22.6942  23.0102  23.0103  23.0503  23.0505  23.1085  23.1086
    23.2555  23.2556  23.5061  23.5063  23.5467  23.5469  23.6610  23.6611
    23.7534  23.7536  23.8316  23.8316  23.9129  23.9129  23.9139  23.9140
    24.1685  24.1685  24.1692  24.1694  24.2709  24.2710  24.3332  24.3333
    24.3333  24.3334  24.3605  24.3605  24.3732  24.3732  24.3736  24.3737
    24.4812  24.4812  24.8357  24.8358  24.8507  24.8508  24.9110  24.9110
    25.0521  25.0523  25.5918  25.5919  25.9934  25.9935  26.0644  26.0644
    27.7859  27.7860  28.1152

          k = 0.0556 0.3877 0.0556 ( 30249 PWs)   bands (ev):

   -49.9709 -49.9445 -49.8805 -49.8805 -49.8658 -49.8658 -49.8631 -49.8631
   -49.8507 -49.8507 -49.8349 -49.8324 -49.8263 -49.8263 -49.8261 -49.8260
   -49.8214 -49.8203 -49.8193 -49.7978 -49.7978 -49.7936 -49.7935 -49.7935
   -49.7833 -49.7833 -49.7814 -49.7814 -49.7721 -49.7721 -49.7719 -49.7718
   -20.3357 -20.3253 -20.3253 -20.3103 -20.2799 -20.2799 -20.2544 -20.2513
   -20.2402 -20.2402 -20.2204 -20.2126 -20.2126 -20.1442 -20.1344 -20.1344
   -20.1211 -20.1210 -20.1149 -20.1149 -20.0896 -20.0896 -20.0493 -20.0493
   -20.0212 -20.0212 -20.0027 -20.0027 -19.9894 -19.9894 -19.9791 -19.9791
   -19.9675 -19.9675 -19.9265 -19.9265 -19.9233 -19.9233 -19.8905 -19.8905
   -19.8196 -19.8196 -19.7616 -19.7616 -19.7578 -19.7578 -19.7262 -19.7224
   -19.7200 -19.6994 -19.6994 -19.6952 -19.6952 -19.6922 -19.6922 -19.6919
   -19.6919 -19.6820 -19.6794 -19.6634 -19.6634 -19.6620 -19.6408 -19.6408
   -19.6248 -19.6248 -19.6244 -19.6243 -19.6227 -19.6168 -19.6070 -19.6070
   -19.6046 -19.6046 -19.5836 -19.5590 -19.5590 -19.5437 -19.5395 -19.5350
   -19.5350 -19.5335 -19.5334 -19.5331 -19.5331 -19.5246 -19.5246 -19.5215
   -19.5180 -19.5040 -19.5040 -19.4970 -19.4751 -19.4732 -19.4309 -19.4283
    15.7736  16.4508  17.1265  17.2018  17.2018  17.4038  17.4680  17.4707
    17.4707  17.5193  17.5326  17.6654  17.6654  17.6738  17.6738  17.8561
    17.8674  17.8762  17.8762  17.9589  17.9589  18.0267  18.0692  18.0692
    18.2130  18.2130  18.2962  18.2962  18.5094  18.5094  18.5135  18.5135
    18.5813  18.5813  18.7604  18.7604  18.7918  18.7918  19.0053  19.0053
    19.0227  19.0227  19.1132  19.1132  19.2607  19.2607  19.2983  19.2983
    19.3360  19.3360  19.4039  19.4039  19.4167  19.4167  19.6486  19.6653
    19.6653  19.7125  19.7125  19.8224  19.9489  19.9489  19.9489  19.9490
    19.9556  19.9557  20.0642  20.1190  20.1190  20.1561  20.1561  20.1891
    20.1891  20.2891  20.3851  20.3851  20.6711  20.7321  20.7321  20.7382
    20.7382  20.7571  20.7571  20.7697  20.8233  20.8269  21.0486  21.0487
    21.0487  21.1095  21.1865  21.2012  21.2187  21.2187  21.2240  21.2361
    21.6905  21.6905  21.9997  22.0033  22.0033  22.0735  22.0735  22.2147
    22.2147  22.2202  22.2696  22.2760  22.2760  22.3228  22.3228  22.3564
    22.3564  22.4069  22.4070  22.4160  22.4160  22.4615  22.5363  22.5364
    22.5694  22.5694  22.5963  22.5963  22.6829  22.6829  22.9013  22.9013
    23.0446  23.0446  23.0482  23.1411  23.2501  23.3563  23.3563  23.4930
    23.6847  23.6847  23.6914  23.7896  23.7934  23.7934  23.8315  23.8315
    24.0529  24.0541  24.0541  24.1118  24.2073  24.2112  24.2112  24.2713
    24.2713  24.3017  24.3281  24.3396  24.5051  24.5051  24.5078  24.5078
    24.5639  24.5639  24.6473  25.0961  25.0961  25.1891  25.1892  25.1904
    25.1904  25.2885  25.5654  25.5654  25.7002  26.2040  26.2040  26.2687
    26.6372  26.8071  26.8071

          k = 0.0556 0.3877 0.1667 ( 30237 PWs)   bands (ev):

   -49.9679 -49.9419 -49.8976 -49.8807 -49.8789 -49.8647 -49.8618 -49.8499
   -49.8459 -49.8435 -49.8386 -49.8358 -49.8332 -49.8307 -49.8199 -49.8195
   -49.8177 -49.8169 -49.8124 -49.8020 -49.7985 -49.7946 -49.7932 -49.7894
   -49.7852 -49.7845 -49.7829 -49.7796 -49.7751 -49.7745 -49.7726 -49.7723
   -20.3360 -20.3299 -20.3052 -20.2853 -20.2719 -20.2711 -20.2600 -20.2509
   -20.2470 -20.2181 -20.2097 -20.2051 -20.1924 -20.1626 -20.1577 -20.1456
   -20.1441 -20.1421 -20.1385 -20.1288 -20.1057 -20.0921 -20.0903 -20.0715
   -20.0488 -20.0325 -20.0268 -20.0083 -20.0071 -19.9771 -19.9538 -19.9515
   -19.9472 -19.9332 -19.9252 -19.9110 -19.8915 -19.8838 -19.8786 -19.8615
   -19.8410 -19.8134 -19.7522 -19.7509 -19.7495 -19.7439 -19.7430 -19.7355
   -19.7349 -19.7242 -19.7208 -19.6993 -19.6907 -19.6901 -19.6880 -19.6858
   -19.6812 -19.6760 -19.6741 -19.6656 -19.6451 -19.6447 -19.6417 -19.6342
   -19.6308 -19.6297 -19.6284 -19.6279 -19.6276 -19.6221 -19.6216 -19.5945
   -19.5936 -19.5894 -19.5737 -19.5695 -19.5661 -19.5631 -19.5601 -19.5546
   -19.5517 -19.5495 -19.5370 -19.5343 -19.5301 -19.5289 -19.5235 -19.5173
   -19.5096 -19.5064 -19.4927 -19.4809 -19.4780 -19.4629 -19.4362 -19.4203
    15.8518  16.5189  17.1918  17.2353  17.2543  17.3813  17.4653  17.5355
    17.5699  17.5805  17.5910  17.6105  17.6811  17.7082  17.7212  17.7520
    17.8004  17.8447  17.9093  17.9107  18.0051  18.0182  18.0748  18.1095
    18.1162  18.1302  18.2410  18.2878  18.2960  18.2984  18.4750  18.4917
    18.5582  18.5706  18.5923  18.6269  18.7257  18.9276  18.9323  18.9486
    18.9628  19.0627  19.0753  19.1208  19.1393  19.1740  19.1933  19.2005
    19.2418  19.2572  19.3921  19.3950  19.4024  19.5110  19.6592  19.6605
    19.6668  19.7390  19.9301  19.9482  19.9852  20.0203  20.0425  20.0465
    20.0828  20.1160  20.1233  20.2024  20.2091  20.2118  20.2436  20.2823
    20.3684  20.3940  20.4173  20.6156  20.6777  20.7062  20.7296  20.7587
    20.8209  20.8447  20.8466  20.8493  20.8708  20.8720  20.8722  20.9000
    20.9878  21.0911  21.1307  21.1678  21.2301  21.2418  21.3302  21.3587
    21.5594  21.6462  21.6872  21.7580  21.7714  21.8223  21.9304  22.0030
    22.0223  22.0529  22.0754  22.1019  22.1064  22.1067  22.1810  22.2474
    22.3105  22.3713  22.4690  22.4755  22.5147  22.5747  22.6015  22.6263
    22.6266  22.7373  22.7787  22.7922  22.8826  22.9131  22.9280  23.0225
    23.0478  23.0885  23.2493  23.2657  23.3141  23.3151  23.3888  23.4096
    23.5816  23.6268  23.6870  23.7785  23.8998  23.9008  23.9248  23.9300
    23.9524  23.9666  23.9769  24.0698  24.0808  24.1656  24.1666  24.2669
    24.3378  24.4416  24.4456  24.5067  24.5070  24.5082  24.5142  24.5188
    24.6634  24.6658  24.7322  24.9742  25.0424  25.0615  25.0688  25.0701
    25.0737  25.2517  25.5148  25.7617  25.7966  25.9156  26.0838  26.3012
    26.7867  27.1091  27.3984

          k = 0.0556 0.3877 0.2778 ( 30267 PWs)   bands (ev):

   -49.9620 -49.9367 -49.9139 -49.8949 -49.8759 -49.8625 -49.8594 -49.8517
   -49.8482 -49.8446 -49.8398 -49.8351 -49.8295 -49.8216 -49.8180 -49.8140
   -49.8126 -49.8097 -49.8060 -49.8059 -49.8001 -49.7967 -49.7925 -49.7870
   -49.7868 -49.7858 -49.7855 -49.7811 -49.7797 -49.7779 -49.7740 -49.7729
   -20.3262 -20.3236 -20.2762 -20.2571 -20.2561 -20.2537 -20.2522 -20.2515
   -20.2386 -20.2032 -20.2027 -20.2024 -20.1903 -20.1888 -20.1699 -20.1677
   -20.1676 -20.1571 -20.1500 -20.1480 -20.1289 -20.1254 -20.1087 -20.1033
   -20.0968 -20.0670 -20.0377 -20.0359 -20.0059 -19.9825 -19.9410 -19.9288
   -19.9187 -19.8973 -19.8882 -19.8708 -19.8705 -19.8692 -19.8453 -19.8356
   -19.8015 -19.7960 -19.7803 -19.7688 -19.7588 -19.7526 -19.7373 -19.7342
   -19.7266 -19.7192 -19.7189 -19.7062 -19.7060 -19.7038 -19.6916 -19.6824
   -19.6740 -19.6734 -19.6722 -19.6698 -19.6643 -19.6517 -19.6413 -19.6391
   -19.6339 -19.6295 -19.6166 -19.6162 -19.6161 -19.6087 -19.6081 -19.6060
   -19.5940 -19.5814 -19.5797 -19.5765 -19.5724 -19.5710 -19.5672 -19.5671
   -19.5643 -19.5512 -19.5436 -19.5419 -19.5409 -19.5373 -19.5341 -19.5216
   -19.5110 -19.5088 -19.4934 -19.4646 -19.4580 -19.4502 -19.4478 -19.4147
    16.0055  16.6524  17.2116  17.3079  17.3195  17.3560  17.4040  17.5030
    17.6674  17.6891  17.7071  17.7209  17.7305  17.7436  17.7571  17.7765
    17.8005  17.8298  17.8807  17.8994  17.9250  17.9556  18.0152  18.0198
    18.0393  18.0696  18.2143  18.2292  18.2549  18.2552  18.2969  18.3630
    18.4263  18.5232  18.5872  18.6443  18.6545  18.6591  18.7035  18.7041
    18.7969  18.8799  18.9111  18.9872  19.0264  19.1499  19.1554  19.1903
    19.2598  19.3504  19.4683  19.4865  19.5072  19.5255  19.6775  19.7411
    19.7683  19.7937  19.8817  20.0163  20.0902  20.1024  20.1909  20.2137
    20.2347  20.2522  20.2688  20.3351  20.3869  20.4019  20.4102  20.5130
    20.5234  20.5841  20.6184  20.6338  20.6419  20.6749  20.7442  20.8039
    20.8369  20.8388  20.8809  20.8868  20.9096  20.9901  21.0071  21.0127
    21.0264  21.0922  21.1313  21.1444  21.2290  21.2929  21.3333  21.4117
    21.4747  21.5049  21.5376  21.5532  21.5752  21.5969  21.6201  21.6419
    21.7482  21.7645  21.7858  21.8320  21.9570  21.9858  22.0036  22.0490
    22.1571  22.1689  22.3408  22.3640  22.4720  22.5233  22.6069  22.6888
    22.8334  22.8559  22.8691  22.9086  23.0064  23.0759  23.1402  23.1478
    23.2279  23.2805  23.3125  23.4165  23.4283  23.4443  23.5152  23.5815
    23.6258  23.6261  23.7824  23.7830  23.7851  23.8296  24.0067  24.0554
    24.0748  24.0887  24.1255  24.1323  24.1488  24.1568  24.1570  24.1963
    24.2709  24.4177  24.4863  24.5011  24.5025  24.5157  24.5316  24.5385
    24.5422  24.6164  24.8272  24.8425  24.8450  24.8609  24.9057  24.9372
    25.2714  25.3743  25.4109  25.4163  25.4617  25.7973  26.6369  26.6635
    27.4380  27.6126  27.8984

          k = 0.0556 0.3877 0.3889 ( 30272 PWs)   bands (ev):

   -49.9533 -49.9292 -49.9289 -49.9079 -49.8716 -49.8593 -49.8592 -49.8558
   -49.8502 -49.8459 -49.8458 -49.8391 -49.8159 -49.8144 -49.8098 -49.8088
   -49.8086 -49.8084 -49.8023 -49.8022 -49.8000 -49.7998 -49.7915 -49.7903
   -49.7901 -49.7898 -49.7887 -49.7872 -49.7819 -49.7763 -49.7760 -49.7738
   -20.3069 -20.3066 -20.2456 -20.2449 -20.2440 -20.2426 -20.2396 -20.2330
   -20.2277 -20.2263 -20.2103 -20.2008 -20.2004 -20.1923 -20.1905 -20.1689
   -20.1679 -20.1540 -20.1540 -20.1527 -20.1525 -20.1519 -20.1506 -20.1161
   -20.1147 -20.1135 -20.0754 -20.0303 -20.0257 -19.9737 -19.9724 -19.9033
   -19.8820 -19.8816 -19.8520 -19.8463 -19.8413 -19.8125 -19.8111 -19.8003
   -19.7964 -19.7956 -19.7955 -19.7840 -19.7773 -19.7355 -19.7318 -19.7315
   -19.7297 -19.7175 -19.7161 -19.7127 -19.7087 -19.7084 -19.7068 -19.7062
   -19.6953 -19.6942 -19.6625 -19.6614 -19.6552 -19.6544 -19.6532 -19.6426
   -19.6424 -19.6194 -19.6190 -19.6141 -19.6084 -19.6078 -19.6064 -19.6057
   -19.5897 -19.5860 -19.5852 -19.5836 -19.5828 -19.5783 -19.5687 -19.5627
   -19.5581 -19.5524 -19.5471 -19.5467 -19.5449 -19.5402 -19.5330 -19.5177
   -19.5156 -19.5126 -19.5116 -19.4648 -19.4451 -19.4419 -19.4416 -19.4162
    16.2296  16.8461  16.8496  17.3779  17.4249  17.4719  17.5001  17.5033
    17.5835  17.7370  17.7370  17.7619  17.7939  17.7959  17.8575  17.8583
    17.8690  17.8692  17.8779  17.8797  17.9059  17.9167  17.9171  17.9844
    17.9923  18.0593  18.1029  18.1727  18.1743  18.3651  18.3663  18.3666
    18.3690  18.3741  18.3761  18.3800  18.3829  18.6129  18.6142  18.6306
    18.6311  18.6818  18.6857  18.9338  18.9370  19.0570  19.2676  19.2701
    19.2727  19.2753  19.4404  19.5947  19.5985  19.6176  19.6299  19.6863
    19.6991  20.0149  20.0310  20.0316  20.1998  20.2918  20.2929  20.4141
    20.4153  20.4249  20.4259  20.4294  20.4300  20.4486  20.4601  20.4683
    20.5513  20.5978  20.7456  20.7538  20.8403  20.8459  20.8489  20.9037
    20.9145  20.9299  20.9431  20.9631  21.0260  21.0341  21.0468  21.0540
    21.1812  21.2013  21.2134  21.2143  21.2234  21.2309  21.2476  21.2926
    21.3543  21.3709  21.4048  21.4102  21.4151  21.4239  21.4716  21.4766
    21.4861  21.4989  21.6266  21.7036  21.7134  21.7349  21.7437  22.0078
    22.1647  22.1650  22.1708  22.1728  22.2539  22.2632  22.3347  22.4044
    22.7232  23.0575  23.0964  23.0998  23.1192  23.1220  23.3868  23.3942
    23.3956  23.3971  23.4966  23.4992  23.5570  23.5571  23.6245  23.6643
    23.8082  23.8111  23.9157  23.9405  23.9442  23.9583  23.9610  23.9660
    23.9686  24.0523  24.1591  24.2609  24.2949  24.3140  24.3149  24.3157
    24.3183  24.3661  24.4280  24.4794  24.4794  24.5276  24.5386  24.5390
    24.5411  24.5721  24.5737  24.5827  24.5844  24.5959  24.7599  24.7856
    24.7933  25.1202  25.2784  25.2902  26.0313  26.0379  27.3058  27.3126
    27.3668  27.3867  28.1063

          k = 0.0556 0.3877-0.5000 ( 30270 PWs)   bands (ev):

   -49.9423 -49.9421 -49.9196 -49.9194 -49.8660 -49.8658 -49.8552 -49.8550
   -49.8514 -49.8512 -49.8429 -49.8427 -49.8131 -49.8130 -49.8053 -49.8051
   -49.8039 -49.8037 -49.8011 -49.8009 -49.7970 -49.7969 -49.7957 -49.7955
   -49.7948 -49.7946 -49.7903 -49.7901 -49.7788 -49.7786 -49.7750 -49.7748
   -20.2803 -20.2802 -20.2782 -20.2781 -20.2266 -20.2266 -20.2263 -20.2263
   -20.2102 -20.2101 -20.2033 -20.2031 -20.1977 -20.1976 -20.1937 -20.1935
   -20.1762 -20.1761 -20.1638 -20.1637 -20.1525 -20.1523 -20.1423 -20.1421
   -20.1153 -20.1152 -20.0715 -20.0714 -20.0049 -20.0049 -19.9377 -19.9377
   -19.8464 -19.8464 -19.8373 -19.8373 -19.8283 -19.8282 -19.8090 -19.8088
   -19.7854 -19.7854 -19.7619 -19.7617 -19.7599 -19.7597 -19.7559 -19.7559
   -19.7484 -19.7484 -19.7126 -19.7125 -19.7022 -19.7022 -19.6923 -19.6922
   -19.6776 -19.6775 -19.6718 -19.6718 -19.6706 -19.6706 -19.6519 -19.6518
   -19.6323 -19.6322 -19.6309 -19.6309 -19.6008 -19.6006 -19.5975 -19.5973
   -19.5967 -19.5966 -19.5887 -19.5886 -19.5665 -19.5664 -19.5616 -19.5616
   -19.5574 -19.5573 -19.5541 -19.5539 -19.5350 -19.5348 -19.5296 -19.5295
   -19.5266 -19.5264 -19.4867 -19.4866 -19.4396 -19.4396 -19.4254 -19.4254
    16.5154  16.5155  17.0917  17.0918  17.5838  17.5838  17.5883  17.5883
    17.6743  17.6744  17.7061  17.7061  17.7329  17.7330  17.7392  17.7392
    17.8769  17.8769  17.9057  17.9058  18.0112  18.0113  18.0959  18.0960
    18.1062  18.1063  18.1289  18.1289  18.1327  18.1327  18.1714  18.1715
    18.3473  18.3474  18.3799  18.3800  18.4905  18.4906  18.5256  18.5257
    18.5454  18.5455  18.8305  18.8305  19.0667  19.0668  19.0778  19.0779
    19.4172  19.4173  19.4249  19.4250  19.6705  19.6705  19.7542  19.7542
    19.8807  19.8808  19.9542  19.9542  20.1554  20.1555  20.4109  20.4110
    20.4553  20.4553  20.5106  20.5106  20.5922  20.5922  20.6434  20.6434
    20.7554  20.7555  20.7795  20.7795  20.8046  20.8047  20.9537  20.9537
    20.9737  20.9737  21.0003  21.0004  21.0028  21.0029  21.0368  21.0368
    21.1118  21.1118  21.1368  21.1368  21.1627  21.1627  21.1962  21.1962
    21.2964  21.2965  21.3051  21.3052  21.4529  21.4530  21.4752  21.4752
    21.4781  21.4782  21.6303  21.6304  21.8840  21.8841  21.8958  21.8958
    21.9401  21.9402  21.9593  21.9594  22.1012  22.1014  22.2808  22.2809
    22.9236  22.9237  23.1916  23.1917  23.3021  23.3022  23.3456  23.3457
    23.3748  23.3749  23.6150  23.6150  23.6857  23.6858  23.7027  23.7028
    23.7825  23.7825  23.8631  23.8632  23.9798  23.9798  24.1148  24.1149
    24.1865  24.1866  24.2761  24.2762  24.3420  24.3420  24.3430  24.3430
    24.3587  24.3587  24.4214  24.4215  24.4247  24.4248  24.4592  24.4593
    24.4620  24.4621  24.5455  24.5457  24.5977  24.5979  24.6538  24.6538
    24.7812  24.7812  25.1312  25.1313  26.6798  26.6798  26.6917  26.6918
    28.0269  28.0270  28.0822

          k = 0.0556-0.4984 0.0556 ( 30234 PWs)   bands (ev):

   -49.9589 -49.9588 -49.8739 -49.8739 -49.8737 -49.8737 -49.8575 -49.8575
   -49.8573 -49.8573 -49.8338 -49.8337 -49.8263 -49.8262 -49.8261 -49.8260
   -49.8203 -49.8202 -49.8058 -49.8057 -49.7900 -49.7900 -49.7898 -49.7898
   -49.7870 -49.7870 -49.7869 -49.7868 -49.7721 -49.7720 -49.7719 -49.7718
   -20.2985 -20.2984 -20.2858 -20.2857 -20.2856 -20.2855 -20.2679 -20.2678
   -20.2494 -20.2494 -20.2492 -20.2492 -20.2027 -20.2025 -20.1271 -20.1271
   -20.1271 -20.1271 -20.1070 -20.1069 -20.1069 -20.1069 -20.0196 -20.0196
   -20.0195 -20.0195 -19.9975 -19.9975 -19.9974 -19.9974 -19.9646 -19.9646
   -19.9646 -19.9646 -19.9535 -19.9535 -19.9533 -19.9533 -19.8522 -19.8522
   -19.8520 -19.8520 -19.7598 -19.7597 -19.7596 -19.7595 -19.7061 -19.7060
   -19.7029 -19.7027 -19.6686 -19.6685 -19.6677 -19.6677 -19.6675 -19.6675
   -19.6598 -19.6598 -19.6598 -19.6598 -19.6579 -19.6579 -19.6578 -19.6578
   -19.6455 -19.6454 -19.6453 -19.6453 -19.6329 -19.6329 -19.6327 -19.6327
   -19.6197 -19.6196 -19.5520 -19.5519 -19.5453 -19.5453 -19.5453 -19.5453
   -19.5418 -19.5417 -19.5334 -19.5333 -19.5332 -19.5331 -19.5197 -19.5196
   -19.5120 -19.5120 -19.5119 -19.5119 -19.4512 -19.4511 -19.4488 -19.4487
    16.0865  16.0867  17.2924  17.2925  17.4208  17.4209  17.4210  17.4211
    17.6101  17.6102  17.6781  17.6783  17.6904  17.6904  17.6906  17.6906
    17.7509  17.7510  17.9153  17.9153  17.9154  17.9154  18.0789  18.0789
    18.0790  18.0790  18.2848  18.2848  18.2849  18.2849  18.6437  18.6437
    18.6437  18.6438  18.7853  18.7853  18.7854  18.7854  18.9383  18.9383
    18.9384  18.9385  19.1352  19.1353  19.1354  19.1354  19.3424  19.3424
    19.3425  19.3425  19.3658  19.3658  19.3658  19.3658  19.6694  19.6694
    19.6694  19.6694  19.8991  19.8992  19.9393  19.9394  19.9575  19.9575
    19.9576  19.9576  20.0521  20.0522  20.0522  20.0523  20.2081  20.2082
    20.4377  20.4377  20.4377  20.4377  20.5447  20.5447  20.5447  20.5447
    20.8407  20.8407  20.9120  20.9121  20.9122  20.9122  20.9617  20.9618
    21.0061  21.0062  21.0100  21.0101  21.6694  21.6694  21.6695  21.6695
    21.6746  21.6747  21.7057  21.7058  22.0552  22.0552  22.0553  22.0553
    22.2335  22.2336  22.3541  22.3541  22.3542  22.3542  22.3728  22.3728
    22.3729  22.3729  22.4556  22.4556  22.4557  22.4557  22.4647  22.4647
    22.4648  22.4648  22.5331  22.5331  22.5332  22.5332  22.7842  22.7842
    22.7843  22.7843  23.1395  23.1397  23.7176  23.7177  23.7177  23.7178
    23.7188  23.7189  23.8172  23.8172  23.9952  23.9952  23.9953  23.9953
    24.0555  24.0556  24.0776  24.0776  24.1566  24.1566  24.1567  24.1567
    24.1721  24.1721  24.1721  24.1722  24.4603  24.4604  24.6281  24.6281
    24.6281  24.6282  24.6407  24.6408  25.0487  25.0487  25.0488  25.0488
    25.1896  25.1897  25.1898  25.1899  26.0170  26.0171  26.5442  26.5443
    26.5443  26.5444  27.0346

          k = 0.0556-0.4984 0.1667 ( 30254 PWs)   bands (ev):

   -49.9561 -49.9559 -49.8899 -49.8898 -49.8725 -49.8724 -49.8565 -49.8563
   -49.8414 -49.8413 -49.8412 -49.8412 -49.8321 -49.8319 -49.8188 -49.8186
   -49.8145 -49.8144 -49.8053 -49.8052 -49.7929 -49.7927 -49.7910 -49.7908
   -49.7883 -49.7881 -49.7841 -49.7840 -49.7749 -49.7747 -49.7725 -49.7724
   -20.3019 -20.3018 -20.2936 -20.2936 -20.2640 -20.2639 -20.2432 -20.2430
   -20.2416 -20.2414 -20.2410 -20.2409 -20.2011 -20.2010 -20.1537 -20.1537
   -20.1458 -20.1457 -20.1453 -20.1453 -20.0921 -20.0921 -20.0700 -20.0700
   -20.0396 -20.0395 -20.0319 -20.0318 -19.9871 -19.9870 -19.9535 -19.9534
   -19.9238 -19.9237 -19.9082 -19.9080 -19.9064 -19.9063 -19.8739 -19.8738
   -19.8457 -19.8456 -19.7516 -19.7515 -19.7429 -19.7428 -19.7149 -19.7147
   -19.7020 -19.7018 -19.7005 -19.7004 -19.6945 -19.6944 -19.6748 -19.6747
   -19.6643 -19.6642 -19.6589 -19.6589 -19.6553 -19.6552 -19.6537 -19.6536
   -19.6526 -19.6524 -19.6246 -19.6245 -19.6171 -19.6170 -19.5985 -19.5984
[...]
   -19.6175 -19.6175 -19.6174 -19.6174 -19.6174 -19.6174 -19.6173 -19.6173
   -19.5826 -19.5825 -19.5825 -19.5824 -19.5651 -19.5651 -19.5651 -19.5651
   -19.5430 -19.5430 -19.5430 -19.5430 -19.5419 -19.5418 -19.5418 -19.5417
   -19.5087 -19.5085 -19.5085 -19.5083 -19.4273 -19.4273 -19.4273 -19.4273
    16.7838  16.7839  16.7841  16.7842  17.6440  17.6440  17.6440  17.6441
    17.7268  17.7268  17.7269  17.7269  17.7746  17.7746  17.7746  17.7746
    17.9115  17.9115  17.9116  17.9116  17.9118  17.9118  17.9119  17.9119
    18.2241  18.2241  18.2242  18.2242  18.2243  18.2243  18.2244  18.2244
    18.3241  18.3241  18.3242  18.3242  18.3242  18.3242  18.3242  18.3242
    18.5950  18.5951  18.5951  18.5951  19.2308  19.2308  19.2309  19.2309
    19.2310  19.2310  19.2311  19.2311  19.8007  19.8007  19.8007  19.8008
    20.0215  20.0216  20.0217  20.0218  20.2994  20.2994  20.2995  20.2996
    20.5124  20.5125  20.5125  20.5125  20.5253  20.5254  20.5254  20.5254
    20.8866  20.8866  20.8866  20.8866  20.8866  20.8866  20.8866  20.8866
    20.9790  20.9790  20.9791  20.9792  21.1508  21.1508  21.1508  21.1509
    21.1590  21.1591  21.1591  21.1591  21.3044  21.3044  21.3044  21.3045
    21.3045  21.3045  21.3045  21.3046  21.3053  21.3053  21.3054  21.3054
    21.5495  21.5495  21.5497  21.5497  21.6898  21.6898  21.6899  21.6899
    21.6899  21.6899  21.6900  21.6900  22.2102  22.2104  22.2104  22.2105
    23.1645  23.1647  23.1647  23.1648  23.3519  23.3520  23.3520  23.3521
    23.5713  23.5714  23.5714  23.5715  23.5715  23.5715  23.5716  23.5716
    24.0857  24.0858  24.0858  24.0858  24.2063  24.2063  24.2064  24.2064
    24.2064  24.2064  24.2065  24.2066  24.2114  24.2115  24.2115  24.2116
    24.4432  24.4433  24.4433  24.4434  24.4821  24.4821  24.4822  24.4822
    24.4822  24.4822  24.4822  24.4822  24.4896  24.4896  24.4897  24.4897
    24.7395  24.7396  24.7396  24.7397  27.3981  27.3981  27.3981  27.3982
    27.3982  27.3982  27.3983

          k =-0.5000 0.1661-0.5000 ( 30276 PWs)   bands (ev):

   -49.9294 -49.9293 -49.9292 -49.9291 -49.8749 -49.8747 -49.8747 -49.8745
   -49.8349 -49.8347 -49.8347 -49.8346 -49.7996 -49.7995 -49.7994 -49.7994
   -49.7994 -49.7994 -49.7992 -49.7992 -49.7991 -49.7991 -49.7990 -49.7989
   -49.7989 -49.7989 -49.7988 -49.7987 -49.7804 -49.7802 -49.7802 -49.7800
   -20.2537 -20.2536 -20.2536 -20.2536 -20.2536 -20.2536 -20.2536 -20.2535
   -20.1917 -20.1917 -20.1916 -20.1916 -20.1916 -20.1915 -20.1914 -20.1914
   -20.1862 -20.1861 -20.1860 -20.1859 -20.1856 -20.1856 -20.1855 -20.1854
   -20.0706 -20.0705 -20.0705 -20.0704 -19.9461 -19.9460 -19.9460 -19.9460
   -19.7952 -19.7952 -19.7952 -19.7952 -19.7952 -19.7952 -19.7952 -19.7952
   -19.7894 -19.7894 -19.7892 -19.7892 -19.7892 -19.7892 -19.7890 -19.7890
   -19.7547 -19.7547 -19.7547 -19.7547 -19.6824 -19.6824 -19.6823 -19.6823
   -19.6823 -19.6822 -19.6821 -19.6821 -19.6762 -19.6761 -19.6761 -19.6761
   -19.6299 -19.6299 -19.6298 -19.6298 -19.6210 -19.6210 -19.6209 -19.6208
   -19.6208 -19.6208 -19.6207 -19.6207 -19.5869 -19.5869 -19.5869 -19.5868
   -19.5212 -19.5212 -19.5212 -19.5212 -19.5093 -19.5092 -19.5092 -19.5091
   -19.4974 -19.4972 -19.4972 -19.4970 -19.4312 -19.4312 -19.4311 -19.4311
    16.8140  16.8141  16.8143  16.8144  17.4970  17.4970  17.4971  17.4972
    17.7585  17.7585  17.7586  17.7586  17.8759  17.8759  17.8759  17.8759
    17.8770  17.8771  17.8771  17.8772  17.8772  17.8773  17.8773  17.8773
    18.2448  18.2448  18.2448  18.2449  18.2449  18.2449  18.2449  18.2450
    18.3431  18.3431  18.3432  18.3433  18.3433  18.3434  18.3434  18.3434
    18.6264  18.6264  18.6264  18.6265  19.2627  19.2627  19.2628  19.2628
    19.2629  19.2629  19.2630  19.2630  19.7203  19.7204  19.7205  19.7206
    19.8605  19.8605  19.8605  19.8605  20.4423  20.4423  20.4423  20.4424
    20.5837  20.5837  20.5837  20.5837  20.6080  20.6080  20.6081  20.6081
    20.8355  20.8355  20.8356  20.8356  20.8356  20.8356  20.8356  20.8356
    20.9688  20.9688  20.9689  20.9690  21.0355  21.0356  21.0356  21.0356
    21.1060  21.1060  21.1060  21.1061  21.2839  21.2839  21.2839  21.2839
    21.2840  21.2840  21.2840  21.2841  21.4802  21.4802  21.4803  21.4803
    21.4965  21.4966  21.4966  21.4967  21.7683  21.7683  21.7684  21.7684
    21.7684  21.7684  21.7685  21.7685  22.3282  22.3284  22.3284  22.3285
    23.0218  23.0220  23.0220  23.0221  23.2157  23.2157  23.2158  23.2158
    23.2159  23.2159  23.2160  23.2160  23.3071  23.3072  23.3073  23.3073
    23.5671  23.5671  23.5672  23.5672  23.9459  23.9459  23.9459  23.9460
    24.4863  24.4863  24.4863  24.4864  24.4864  24.4864  24.4865  24.4865
    24.5496  24.5496  24.5497  24.5497  24.5497  24.5497  24.5497  24.5497
    24.5754  24.5754  24.5754  24.5754  24.6303  24.6303  24.6303  24.6304
    25.4988  25.4989  25.4989  25.4990  27.4808  27.4808  27.4809  27.4809
    27.4809  27.4810  27.4810

          k =-0.5000 0.2769-0.5000 ( 30240 PWs)   bands (ev):

   -49.9248 -49.9247 -49.9246 -49.9245 -49.8875 -49.8873 -49.8873 -49.8872
   -49.8223 -49.8221 -49.8221 -49.8219 -49.7995 -49.7995 -49.7993 -49.7993
   -49.7993 -49.7993 -49.7992 -49.7992 -49.7991 -49.7991 -49.7990 -49.7989
   -49.7989 -49.7989 -49.7988 -49.7987 -49.7850 -49.7848 -49.7848 -49.7846
   -20.2461 -20.2461 -20.2461 -20.2461 -20.2460 -20.2460 -20.2460 -20.2460
   -20.2070 -20.2069 -20.2069 -20.2068 -20.2023 -20.2022 -20.2021 -20.2020
   -20.2002 -20.2002 -20.2001 -20.2000 -20.2000 -20.2000 -20.1999 -20.1999
   -20.0189 -20.0189 -20.0189 -20.0188 -19.9035 -19.9034 -19.9034 -19.9034
   -19.7974 -19.7974 -19.7974 -19.7973 -19.7953 -19.7953 -19.7953 -19.7953
   -19.7953 -19.7953 -19.7953 -19.7953 -19.7915 -19.7915 -19.7914 -19.7914
   -19.7914 -19.7914 -19.7913 -19.7913 -19.6825 -19.6824 -19.6824 -19.6823
   -19.6725 -19.6725 -19.6724 -19.6724 -19.6723 -19.6723 -19.6722 -19.6722
   -19.6686 -19.6686 -19.6686 -19.6686 -19.6275 -19.6275 -19.6274 -19.6274
   -19.6273 -19.6273 -19.6272 -19.6272 -19.6075 -19.6075 -19.6075 -19.6075
   -19.5004 -19.5004 -19.5004 -19.5004 -19.4856 -19.4855 -19.4855 -19.4854
   -19.4826 -19.4824 -19.4824 -19.4823 -19.4388 -19.4388 -19.4388 -19.4388
    16.8733  16.8734  16.8736  16.8737  17.3460  17.3461  17.3462  17.3462
    17.8142  17.8142  17.8143  17.8143  17.8592  17.8593  17.8593  17.8594
    17.8594  17.8595  17.8595  17.8595  17.9377  17.9377  17.9377  17.9377
    18.1305  18.1306  18.1306  18.1306  18.1306  18.1307  18.1307  18.1307
    18.5244  18.5244  18.5245  18.5245  18.5246  18.5246  18.5247  18.5247
    18.6928  18.6929  18.6929  18.6929  19.2505  19.2505  19.2506  19.2506
    19.2507  19.2507  19.2508  19.2508  19.4301  19.4301  19.4302  19.4303
    19.9729  19.9729  19.9729  19.9729  20.4430  20.4430  20.4430  20.4430
    20.6869  20.6869  20.6869  20.6869  20.7624  20.7625  20.7625  20.7626
    20.8211  20.8212  20.8212  20.8212  20.8212  20.8212  20.8212  20.8213
    20.9497  20.9498  20.9498  20.9499  20.9607  20.9607  20.9607  20.9608
    21.0326  21.0327  21.0327  21.0327  21.2360  21.2360  21.2360  21.2361
    21.2362  21.2362  21.2362  21.2362  21.3526  21.3526  21.3527  21.3528
    21.7207  21.7207  21.7208  21.7208  21.8859  21.8859  21.8860  21.8860
    21.8860  21.8860  21.8861  21.8861  22.5299  22.5301  22.5301  22.5302
    22.7912  22.7913  22.7914  22.7915  22.8311  22.8311  22.8311  22.8311
    22.8312  22.8312  22.8313  22.8313  23.2190  23.2191  23.2191  23.2192
    23.2260  23.2261  23.2262  23.2262  23.6583  23.6584  23.6584  23.6585
    24.6607  24.6607  24.6607  24.6607  24.6608  24.6608  24.6608  24.6608
    24.6917  24.6918  24.6918  24.6918  24.7180  24.7180  24.7181  24.7181
    24.7181  24.7181  24.7182  24.7182  24.7628  24.7628  24.7629  24.7629
    26.3414  26.3415  26.3415  26.3416  27.6520  27.6521  27.6521  27.6521
    27.6522  27.6522  27.6522

          k =-0.5000 0.3877-0.5000 ( 30268 PWs)   bands (ev):

   -49.9181 -49.9179 -49.9179 -49.9178 -49.8992 -49.8990 -49.8990 -49.8988
   -49.8107 -49.8105 -49.8105 -49.8103 -49.7995 -49.7994 -49.7993 -49.7993
   -49.7993 -49.7992 -49.7992 -49.7992 -49.7991 -49.7991 -49.7990 -49.7990
   -49.7990 -49.7989 -49.7989 -49.7988 -49.7917 -49.7915 -49.7915 -49.7913
   -20.2357 -20.2357 -20.2357 -20.2357 -20.2356 -20.2356 -20.2356 -20.2355
   -20.2189 -20.2188 -20.2188 -20.2187 -20.2153 -20.2151 -20.2151 -20.2150
   -20.2113 -20.2113 -20.2112 -20.2112 -20.2112 -20.2112 -20.2111 -20.2111
   -19.9634 -19.9633 -19.9633 -19.9632 -19.8518 -19.8517 -19.8517 -19.8516
   -19.8496 -19.8495 -19.8495 -19.8494 -19.7953 -19.7953 -19.7953 -19.7953
   -19.7953 -19.7953 -19.7952 -19.7952 -19.7935 -19.7935 -19.7934 -19.7934
   -19.7934 -19.7934 -19.7933 -19.7933 -19.7385 -19.7384 -19.7384 -19.7383
   -19.6605 -19.6604 -19.6604 -19.6604 -19.6603 -19.6603 -19.6602 -19.6602
   -19.6576 -19.6576 -19.6576 -19.6576 -19.6367 -19.6367 -19.6367 -19.6367
   -19.6365 -19.6365 -19.6365 -19.6365 -19.6267 -19.6267 -19.6267 -19.6267
   -19.4812 -19.4812 -19.4812 -19.4812 -19.4714 -19.4713 -19.4713 -19.4712
   -19.4712 -19.4711 -19.4711 -19.4709 -19.4499 -19.4499 -19.4499 -19.4499
    16.9599  16.9600  16.9602  16.9602  17.2013  17.2013  17.2015  17.2015
    17.8765  17.8765  17.8765  17.8766  17.8766  17.8767  17.8767  17.8767
    17.8786  17.8786  17.8786  17.8786  17.9553  17.9553  17.9553  17.9553
    18.0191  18.0192  18.0192  18.0192  18.0193  18.0193  18.0194  18.0194
    18.7370  18.7370  18.7370  18.7371  18.7371  18.7372  18.7372  18.7372
    18.8016  18.8016  18.8016  18.8016  19.1416  19.1416  19.1417  19.1417
    19.1418  19.1419  19.1419  19.1419  19.1719  19.1720  19.1720  19.1721
    20.1207  20.1207  20.1207  20.1207  20.3880  20.3880  20.3880  20.3880
    20.8315  20.8315  20.8315  20.8315  20.8510  20.8510  20.8511  20.8511
    20.8959  20.8959  20.8959  20.8959  20.8960  20.8960  20.8960  20.8960
    20.9243  20.9244  20.9244  20.9244  20.9261  20.9262  20.9262  20.9262
    20.9685  20.9685  20.9685  20.9686  21.1504  21.1504  21.1504  21.1505
    21.1505  21.1506  21.1506  21.1506  21.1862  21.1862  21.1863  21.1864
    21.9721  21.9722  21.9722  21.9723  22.0312  22.0313  22.0313  22.0313
    22.0313  22.0313  22.0314  22.0314  22.4907  22.4907  22.4908  22.4908
    22.4908  22.4909  22.4909  22.4909  22.5218  22.5219  22.5219  22.5220
    22.7825  22.7826  22.7826  22.7828  23.0590  23.0590  23.0591  23.0591
    23.1285  23.1286  23.1286  23.1287  23.3606  23.3606  23.3607  23.3608
    24.7755  24.7756  24.7756  24.7756  24.7756  24.7756  24.7756  24.7756
    24.7897  24.7898  24.7898  24.7898  24.8340  24.8341  24.8341  24.8341
    24.8392  24.8392  24.8392  24.8392  24.8393  24.8393  24.8393  24.8393
    27.2488  27.2489  27.2490  27.2491  27.9083  27.9084  27.9084  27.9084
    27.9084  27.9085  27.9085

          k =-0.5000-0.4984-0.5000 ( 30328 PWs)   bands (ev):

   -49.9096 -49.9094 -49.9094 -49.9094 -49.9092 -49.9092 -49.9092 -49.9090
   -49.8005 -49.8003 -49.8003 -49.8003 -49.8002 -49.8001 -49.8001 -49.8000
   -49.7995 -49.7994 -49.7993 -49.7993 -49.7992 -49.7992 -49.7992 -49.7992
   -49.7991 -49.7991 -49.7990 -49.7990 -49.7990 -49.7989 -49.7989 -49.7988
   -20.2237 -20.2237 -20.2237 -20.2236 -20.2236 -20.2236 -20.2236 -20.2236
   -20.2235 -20.2235 -20.2235 -20.2235 -20.2235 -20.2234 -20.2234 -20.2234
   -20.2214 -20.2214 -20.2213 -20.2213 -20.2213 -20.2212 -20.2212 -20.2211
   -19.9061 -19.9060 -19.9060 -19.9060 -19.9060 -19.9060 -19.9060 -19.9059
   -19.7958 -19.7957 -19.7957 -19.7957 -19.7957 -19.7957 -19.7956 -19.7956
   -19.7948 -19.7948 -19.7948 -19.7947 -19.7947 -19.7947 -19.7947 -19.7947
   -19.7947 -19.7947 -19.7946 -19.7946 -19.7946 -19.7946 -19.7946 -19.7946
   -19.6482 -19.6481 -19.6481 -19.6481 -19.6481 -19.6481 -19.6481 -19.6480
   -19.6480 -19.6479 -19.6479 -19.6479 -19.6479 -19.6479 -19.6478 -19.6478
   -19.6436 -19.6436 -19.6436 -19.6436 -19.6435 -19.6435 -19.6435 -19.6435
   -19.4669 -19.4669 -19.4668 -19.4668 -19.4667 -19.4667 -19.4667 -19.4666
   -19.4643 -19.4643 -19.4643 -19.4643 -19.4642 -19.4642 -19.4641 -19.4641
    17.0706  17.0706  17.0707  17.0708  17.0708  17.0709  17.0709  17.0710
    17.9311  17.9311  17.9311  17.9311  17.9312  17.9312  17.9312  17.9312
    17.9312  17.9313  17.9313  17.9313  17.9313  17.9313  17.9314  17.9314
    17.9317  17.9317  17.9317  17.9317  17.9318  17.9319  17.9319  17.9319
    18.9549  18.9549  18.9549  18.9549  18.9549  18.9550  18.9550  18.9550
    18.9551  18.9551  18.9551  18.9551  18.9551  18.9552  18.9552  18.9552
    18.9602  18.9603  18.9603  18.9603  18.9604  18.9604  18.9605  18.9605
    20.2727  20.2727  20.2728  20.2728  20.2728  20.2728  20.2728  20.2728
    20.8943  20.8943  20.8943  20.8944  20.8944  20.8944  20.8944  20.8944
    20.9301  20.9302  20.9302  20.9302  20.9302  20.9302  20.9302  20.9303
    21.0045  21.0046  21.0046  21.0046  21.0046  21.0047  21.0047  21.0048
    21.0263  21.0263  21.0263  21.0264  21.0264  21.0264  21.0264  21.0264
    21.0264  21.0265  21.0265  21.0265  21.0265  21.0265  21.0265  21.0265
    22.2244  22.2244  22.2244  22.2245  22.2245  22.2245  22.2245  22.2245
    22.2245  22.2246  22.2246  22.2246  22.2246  22.2246  22.2246  22.2247
    22.2429  22.2430  22.2430  22.2430  22.2430  22.2431  22.2431  22.2432
    23.0523  23.0524  23.0524  23.0524  23.0524  23.0525  23.0525  23.0526
    23.0644  23.0645  23.0645  23.0645  23.0646  23.0646  23.0646  23.0647
    24.8416  24.8416  24.8416  24.8417  24.8417  24.8417  24.8417  24.8417
    24.8489  24.8489  24.8489  24.8489  24.8489  24.8490  24.8490  24.8490
    24.8490  24.8490  24.8490  24.8490  24.8490  24.8491  24.8491  24.8491
    28.2028  28.2035  28.2045  28.2052  28.2056  28.2111  28.2116  28.2138
    28.2246  28.2246  28.2247

     the Fermi energy is    23.0260 ev

!    total energy              =  -13813.30059308 Ry

     total all-electron energy =   -289989.690932 Ry
     estimated scf accuracy    <       0.00000047 Ry
     smearing contrib. (-TS)   =       0.02020974 Ry
     internal energy E=F+TS    =  -13813.32080282 Ry

     The total energy is F=E-TS. E is the sum of the following terms:
     one-electron contribution =   -1003.45459234 Ry
     hartree contribution      =     918.37599990 Ry
     xc contribution           =    -927.94279430 Ry
     ewald contribution        =   -5210.86240978 Ry
     one-center paw contrib.   =   -7589.43700628 Ry

     convergence has been achieved in  12 iterations

     Forces acting on atoms (cartesian axes, Ry/au):

     atom    1 type  1   force =     0.00000000    0.00000000    0.00000000
     atom    2 type  1   force =    -0.00007106    0.00006986   -0.00000000
     atom    3 type  1   force =    -0.00013311    0.00000000   -0.00013311
     atom    4 type  1   force =     0.00000000    0.00006986   -0.00007106
     atom    5 type  1   force =     0.00000000    0.00000000    0.00000000
     atom    6 type  1   force =    -0.00006372    0.00020302    0.00000000
     atom    7 type  1   force =    -0.00013311   -0.00000000    0.00013311
     atom    8 type  1   force =     0.00000000    0.00006986    0.00007106
     atom    9 type  1   force =     0.00000000    0.00000000    0.00000000
     atom   10 type  1   force =    -0.00007106   -0.00006986    0.00000000
     atom   11 type  1   force =    -0.00000718    0.00000000   -0.00000718
     atom   12 type  1   force =     0.00000000   -0.00006986   -0.00007106
     atom   13 type  1   force =     0.00000000    0.00000000    0.00000000
     atom   14 type  1   force =    -0.00006372   -0.00020302   -0.00000000
     atom   15 type  1   force =    -0.00000718    0.00000000    0.00000718
     atom   16 type  1   force =     0.00000000   -0.00006986    0.00007106
     atom   17 type  1   force =     0.00000000    0.00000000    0.00000000
     atom   18 type  1   force =     0.00007106    0.00006986    0.00000000
     atom   19 type  1   force =     0.00013311   -0.00000000   -0.00013311
     atom   20 type  1   force =     0.00000000    0.00020302   -0.00006372
     atom   21 type  1   force =     0.00000000    0.00000000    0.00000000
     atom   22 type  1   force =     0.00006372    0.00020302   -0.00000000
     atom   23 type  1   force =     0.00013311    0.00000000    0.00013311
     atom   24 type  1   force =    -0.00000000    0.00020302    0.00006372
     atom   25 type  1   force =     0.00000000    0.00000000    0.00000000
     atom   26 type  1   force =     0.00007106   -0.00006986   -0.00000000
     atom   27 type  1   force =     0.00000718    0.00000000   -0.00000718
     atom   28 type  1   force =     0.00000000   -0.00020302   -0.00006372
     atom   29 type  1   force =     0.00000000    0.00000000    0.00000000
     atom   30 type  1   force =     0.00006372   -0.00020302    0.00000000
     atom   31 type  1   force =     0.00000718    0.00000000    0.00000718
     atom   32 type  1   force =     0.00000000   -0.00020302    0.00006372

     Total force =     0.000764     Total SCF correction =     0.002090
     SCF correction compared to forces is large: reduce conv_thr to get better values


     Computing stress (Cartesian axis) and pressure

          total   stress  (Ry/bohr**3)                   (kbar)     P=      -14.48
  -0.00008067   0.00000000   0.00000000          -11.87        0.00        0.00
   0.00000000  -0.00013393   0.00000000            0.00      -19.70        0.00
   0.00000000   0.00000000  -0.00008067            0.00        0.00      -11.87


     Writing output data file /scratch/HpHDgbRwqRDTvuVJ.save/
 
     init_run     :     27.45s CPU     28.09s WALL (       1 calls)
     electrons    :   1041.86s CPU   1267.46s WALL (       1 calls)
     forces       :     11.40s CPU     11.49s WALL (       1 calls)
     stress       :     67.49s CPU     68.08s WALL (       1 calls)

     Called by init_run:
     wfcinit      :     26.71s CPU     27.22s WALL (       1 calls)
     potinit      :      0.21s CPU      0.23s WALL (       1 calls)
     hinit0       :      0.21s CPU      0.21s WALL (       1 calls)

     Called by electrons:
     c_bands      :    931.05s CPU   1154.32s WALL (      13 calls)
     sum_band     :    108.64s CPU    110.73s WALL (      13 calls)
     v_of_rho     :      0.18s CPU      0.21s WALL (      13 calls)
     newd         :      0.53s CPU      0.65s WALL (      13 calls)
     PAW_pot      :      1.19s CPU      1.26s WALL (      13 calls)
     mix_rho      :      0.05s CPU      0.07s WALL (      13 calls)

     Called by c_bands:
     init_us_2    :      3.71s CPU      3.80s WALL (    2175 calls)
     cegterg      :    915.74s CPU    929.60s WALL (     975 calls)

     Called by *egterg:
     cdiaghg      :    113.73s CPU    115.46s WALL (    3597 calls)
     h_psi        :    492.77s CPU    501.45s WALL (    3747 calls)
     s_psi        :     33.90s CPU     34.14s WALL (    3747 calls)
     g_psi        :      0.84s CPU      0.85s WALL (    2697 calls)

     Called by h_psi:
     h_psi:calbec :     63.87s CPU     64.47s WALL (    3747 calls)
     vloc_psi     :    394.03s CPU    401.50s WALL (    3747 calls)
     add_vuspsi   :     32.59s CPU     33.16s WALL (    3747 calls)

     General routines
     calbec       :    125.85s CPU    126.88s WALL (    5097 calls)
     fft          :      0.48s CPU      0.50s WALL (     193 calls)
     ffts         :      0.05s CPU      0.05s WALL (      26 calls)
     fftw         :    455.18s CPU    463.80s WALL ( 1744297 calls)
     interpolate  :      0.20s CPU      0.20s WALL (      13 calls)
 
     Parallel routines
     fft_scatt_xy :     30.31s CPU     30.80s WALL ( 1744516 calls)
     fft_scatt_yz :    373.28s CPU    380.67s WALL ( 1744516 calls)
 
     PWSCF        :  19m27.87s CPU  23m18.35s WALL

 
   This run was terminated on:  18:16: 1  23Nov2021            

=------------------------------------------------------------------------------=
   JOB DONE.
=------------------------------------------------------------------------------=
