
     Program PWSCF v.6.7MaX starts on 23Nov2021 at 18:35:25 

     This program is part of the open-source Quantum ESPRESSO suite
     for quantum simulation of materials; please cite
         "P. Giannozzi et al., J. Phys.:Condens. Matter 21 395502 (2009);
         "P. Giannozzi et al., J. Phys.:Condens. Matter 29 465901 (2017);
          URL http://www.quantum-espresso.org", 
     in publications or presentations arising from this work. More details at
     http://www.quantum-espresso.org/quote

     Parallel version (MPI & OpenMP), running on      72 processor cores
     Number of MPI processes:                72
     Threads/MPI process:                     1

     MPI processes distributed on     1 nodes
     R & G space division:  proc/nbgrp/npool/nimage =      72
     Reading input from /rds/homes/b/bxp912/jobs/20211014_ru_eos/wd/ec/ec_2_008.in
Warning: card &CELL ignored
Warning: card CELL_DYNAMICS = 'BFGS', ignored
Warning: card CELL_FACTOR = 2.0, ignored
Warning: card PRESS = 0.0, ignored
Warning: card / ignored

     Current dimensions of program PWSCF are:
     Max number of different atomic species (ntypx) = 10
     Max number of k-points (npk) =  40000
     Max angular momentum in pseudopotentials (lmaxx) =  3
     file Ru.pbe-spn-kjpaw_psl.1.0.0.UPF: wavefunction(s)  4D renormalized

     Subspace diagonalization in iterative solution of the eigenvalue problem:
     one sub-group per band group will be used
     ELPA distributed-memory algorithm (size of sub-group:  8*  8 procs)

     Found symmetry operation: I + (  0.2500  0.2500  0.0000)
     This is a supercell, fractional translations are disabled
     Message from routine setup:
     using ibrav=0 with symmetry is DISCOURAGED, use correct ibrav instead
 
     Parallelization info
     --------------------
     sticks:   dense  smooth     PW     G-vecs:    dense   smooth      PW
     Min          99      65     17                 6275     3365     477
     Max         101      66     18                 6277     3372     482
     Sum        7137    4705   1289               451879   242457   34561
 


     bravais-lattice index     =            0
     lattice parameter (alat)  =      14.4007  a.u.
     unit-cell volume          =    2999.5111 (a.u.)^3
     number of atoms/cell      =           32
     number of atomic types    =            1
     number of electrons       =       512.00
     number of Kohn-Sham states=          307
     kinetic-energy cutoff     =      71.0000  Ry
     charge density cutoff     =     430.0000  Ry
     scf convergence threshold =      1.0E-06
     mixing beta               =       0.1000
     number of iterations used =           10  plain     mixing
     Exchange-correlation= SLA  PW   PBX  PBC
                           (   1   4   3   4   0   0   0)

     celldm(1)=  14.400742  celldm(2)=   0.000000  celldm(3)=   0.000000
     celldm(4)=   0.000000  celldm(5)=   0.000000  celldm(6)=   0.000000

     crystal axes: (cart. coord. in units of alat)
               a(1) = (   1.000000   0.000000   0.000000 )  
               a(2) = (   0.000000   1.004375   0.000000 )  
               a(3) = (   0.000000   0.000000   1.000000 )  

     reciprocal axes: (cart. coord. in units 2 pi/alat)
               b(1) = (  1.000000  0.000000  0.000000 )  
               b(2) = (  0.000000  0.995644  0.000000 )  
               b(3) = (  0.000000  0.000000  1.000000 )  


     PseudoPot. # 1 for Ru read from file:
     /rds/homes/b/bxp912/pp/Ru.pbe-spn-kjpaw_psl.1.0.0.UPF
     MD5 check sum: 0ae1f594dea09af7be8575c3a481d1ae
     Pseudo is Projector augmented-wave + core cor, Zval = 16.0
     Generated using "atomic" code by A. Dal Corso  v.5.1
     Shape of augmentation charge: PSQ
     Using radial grid of 1233 points,  6 beta functions with: 
                l(1) =   0
                l(2) =   0
                l(3) =   1
                l(4) =   1
                l(5) =   2
                l(6) =   2
     Q(r) pseudized with 0 coefficients 


     atomic species   valence    mass     pseudopotential
        Ru            16.00   101.07000     Ru( 1.00)

     16 Sym. Ops., with inversion, found



   Cartesian axes

     site n.     atom                  positions (alat units)
         1           Ru  tau(   1) = (   0.0000000   0.0000000   0.0000000  )
         2           Ru  tau(   2) = (   0.2500000   0.2510938   0.0000000  )
         3           Ru  tau(   3) = (   0.2500000   0.0000000   0.2499995  )
         4           Ru  tau(   4) = (   0.0000000   0.2510938   0.2499995  )
         5           Ru  tau(   5) = (   0.0000000   0.0000000   0.5000000  )
         6           Ru  tau(   6) = (   0.2499990   0.2510927   0.5000000  )
         7           Ru  tau(   7) = (   0.2500000   0.0000000   0.7499995  )
         8           Ru  tau(   8) = (   0.0000000   0.2510938   0.7499995  )
         9           Ru  tau(   9) = (   0.0000000   0.5021877   0.0000000  )
        10           Ru  tau(  10) = (   0.2500000   0.7532817   0.0000000  )
        11           Ru  tau(  11) = (   0.2499990   0.5021877   0.2499984  )
        12           Ru  tau(  12) = (   0.0000000   0.7532817   0.2499995  )
        13           Ru  tau(  13) = (   0.0000000   0.5021877   0.5000000  )
        14           Ru  tau(  14) = (   0.2499990   0.7532827   0.5000000  )
        15           Ru  tau(  15) = (   0.2499990   0.5021877   0.7500005  )
        16           Ru  tau(  16) = (   0.0000000   0.7532817   0.7499995  )
        17           Ru  tau(  17) = (   0.5000002   0.0000000   0.0000000  )
        18           Ru  tau(  18) = (   0.7500004   0.2510938   0.0000000  )
        19           Ru  tau(  19) = (   0.7500004   0.0000000   0.2499995  )
        20           Ru  tau(  20) = (   0.5000002   0.2510927   0.2499984  )
        21           Ru  tau(  21) = (   0.5000002   0.0000000   0.5000000  )
        22           Ru  tau(  22) = (   0.7500015   0.2510927   0.5000000  )
        23           Ru  tau(  23) = (   0.7500004   0.0000000   0.7499995  )
        24           Ru  tau(  24) = (   0.5000002   0.2510927   0.7500005  )
        25           Ru  tau(  25) = (   0.5000002   0.5021877   0.0000000  )
        26           Ru  tau(  26) = (   0.7500004   0.7532817   0.0000000  )
        27           Ru  tau(  27) = (   0.7500015   0.5021877   0.2499984  )
        28           Ru  tau(  28) = (   0.5000002   0.7532827   0.2499984  )
        29           Ru  tau(  29) = (   0.5000002   0.5021877   0.5000000  )
        30           Ru  tau(  30) = (   0.7500015   0.7532827   0.5000000  )
        31           Ru  tau(  31) = (   0.7500015   0.5021877   0.7500005  )
        32           Ru  tau(  32) = (   0.5000002   0.7532827   0.7500005  )

     number of k points=    75  Marzari-Vanderbilt smearing, width (Ry)=  0.0400
                       cart. coord. in units 2pi/alat
        k(    1) = (   0.0555556   0.0553136   0.0555556), wk =   0.0219479
        k(    2) = (   0.0555556   0.0553136   0.1666667), wk =   0.0438957
        k(    3) = (   0.0555556   0.0553136   0.2777778), wk =   0.0438957
        k(    4) = (   0.0555556   0.0553136   0.3888889), wk =   0.0438957
        k(    5) = (   0.0555556   0.0553136  -0.5000000), wk =   0.0219479
        k(    6) = (   0.0555556   0.1659407   0.0555556), wk =   0.0219479
        k(    7) = (   0.0555556   0.1659407   0.1666667), wk =   0.0438957
        k(    8) = (   0.0555556   0.1659407   0.2777778), wk =   0.0438957
        k(    9) = (   0.0555556   0.1659407   0.3888889), wk =   0.0438957
        k(   10) = (   0.0555556   0.1659407  -0.5000000), wk =   0.0219479
        k(   11) = (   0.0555556   0.2765678   0.0555556), wk =   0.0219479
        k(   12) = (   0.0555556   0.2765678   0.1666667), wk =   0.0438957
        k(   13) = (   0.0555556   0.2765678   0.2777778), wk =   0.0438957
        k(   14) = (   0.0555556   0.2765678   0.3888889), wk =   0.0438957
        k(   15) = (   0.0555556   0.2765678  -0.5000000), wk =   0.0219479
        k(   16) = (   0.0555556   0.3871949   0.0555556), wk =   0.0219479
        k(   17) = (   0.0555556   0.3871949   0.1666667), wk =   0.0438957
        k(   18) = (   0.0555556   0.3871949   0.2777778), wk =   0.0438957
        k(   19) = (   0.0555556   0.3871949   0.3888889), wk =   0.0438957
        k(   20) = (   0.0555556   0.3871949  -0.5000000), wk =   0.0219479
        k(   21) = (   0.0555556  -0.4978220   0.0555556), wk =   0.0109739
        k(   22) = (   0.0555556  -0.4978220   0.1666667), wk =   0.0219479
        k(   23) = (   0.0555556  -0.4978220   0.2777778), wk =   0.0219479
        k(   24) = (   0.0555556  -0.4978220   0.3888889), wk =   0.0219479
        k(   25) = (   0.0555556  -0.4978220  -0.5000000), wk =   0.0109739
        k(   26) = (   0.1666667   0.0553136   0.1666667), wk =   0.0219479
        k(   27) = (   0.1666667   0.0553136   0.2777778), wk =   0.0438957
        k(   28) = (   0.1666667   0.0553136   0.3888889), wk =   0.0438957
        k(   29) = (   0.1666667   0.0553136  -0.5000000), wk =   0.0219479
        k(   30) = (   0.1666667   0.1659407   0.1666667), wk =   0.0219479
        k(   31) = (   0.1666667   0.1659407   0.2777778), wk =   0.0438957
        k(   32) = (   0.1666667   0.1659407   0.3888889), wk =   0.0438957
        k(   33) = (   0.1666667   0.1659407  -0.5000000), wk =   0.0219479
        k(   34) = (   0.1666667   0.2765678   0.1666667), wk =   0.0219479
        k(   35) = (   0.1666667   0.2765678   0.2777778), wk =   0.0438957
        k(   36) = (   0.1666667   0.2765678   0.3888889), wk =   0.0438957
        k(   37) = (   0.1666667   0.2765678  -0.5000000), wk =   0.0219479
        k(   38) = (   0.1666667   0.3871949   0.1666667), wk =   0.0219479
        k(   39) = (   0.1666667   0.3871949   0.2777778), wk =   0.0438957
        k(   40) = (   0.1666667   0.3871949   0.3888889), wk =   0.0438957
        k(   41) = (   0.1666667   0.3871949  -0.5000000), wk =   0.0219479
        k(   42) = (   0.1666667  -0.4978220   0.1666667), wk =   0.0109739
        k(   43) = (   0.1666667  -0.4978220   0.2777778), wk =   0.0219479
        k(   44) = (   0.1666667  -0.4978220   0.3888889), wk =   0.0219479
        k(   45) = (   0.1666667  -0.4978220  -0.5000000), wk =   0.0109739
        k(   46) = (   0.2777778   0.0553136   0.2777778), wk =   0.0219479
        k(   47) = (   0.2777778   0.0553136   0.3888889), wk =   0.0438957
        k(   48) = (   0.2777778   0.0553136  -0.5000000), wk =   0.0219479
        k(   49) = (   0.2777778   0.1659407   0.2777778), wk =   0.0219479
        k(   50) = (   0.2777778   0.1659407   0.3888889), wk =   0.0438957
        k(   51) = (   0.2777778   0.1659407  -0.5000000), wk =   0.0219479
        k(   52) = (   0.2777778   0.2765678   0.2777778), wk =   0.0219479
        k(   53) = (   0.2777778   0.2765678   0.3888889), wk =   0.0438957
        k(   54) = (   0.2777778   0.2765678  -0.5000000), wk =   0.0219479
        k(   55) = (   0.2777778   0.3871949   0.2777778), wk =   0.0219479
        k(   56) = (   0.2777778   0.3871949   0.3888889), wk =   0.0438957
        k(   57) = (   0.2777778   0.3871949  -0.5000000), wk =   0.0219479
        k(   58) = (   0.2777778  -0.4978220   0.2777778), wk =   0.0109739
        k(   59) = (   0.2777778  -0.4978220   0.3888889), wk =   0.0219479
        k(   60) = (   0.2777778  -0.4978220  -0.5000000), wk =   0.0109739
        k(   61) = (   0.3888889   0.0553136   0.3888889), wk =   0.0219479
        k(   62) = (   0.3888889   0.0553136  -0.5000000), wk =   0.0219479
        k(   63) = (   0.3888889   0.1659407   0.3888889), wk =   0.0219479
        k(   64) = (   0.3888889   0.1659407  -0.5000000), wk =   0.0219479
        k(   65) = (   0.3888889   0.2765678   0.3888889), wk =   0.0219479
        k(   66) = (   0.3888889   0.2765678  -0.5000000), wk =   0.0219479
        k(   67) = (   0.3888889   0.3871949   0.3888889), wk =   0.0219479
        k(   68) = (   0.3888889   0.3871949  -0.5000000), wk =   0.0219479
        k(   69) = (   0.3888889  -0.4978220   0.3888889), wk =   0.0109739
        k(   70) = (   0.3888889  -0.4978220  -0.5000000), wk =   0.0109739
        k(   71) = (  -0.5000000   0.0553136  -0.5000000), wk =   0.0054870
        k(   72) = (  -0.5000000   0.1659407  -0.5000000), wk =   0.0054870
        k(   73) = (  -0.5000000   0.2765678  -0.5000000), wk =   0.0054870
        k(   74) = (  -0.5000000   0.3871949  -0.5000000), wk =   0.0054870
        k(   75) = (  -0.5000000  -0.4978220  -0.5000000), wk =   0.0027435

     Dense  grid:   451879 G-vectors     FFT dimensions: (  96,  96,  96)

     Smooth grid:   242457 G-vectors     FFT dimensions: (  80,  80,  80)

     Estimated max dynamical RAM per process >     186.11 MB

     Estimated total dynamical RAM >      13.09 GB

     Check: negative core charge=   -0.000002

     Initial potential from superposition of free atoms

     starting charge  511.97959, renormalised to  512.00000
     Starting wfcs are  320 randomized atomic wfcs
     Checking if some PAW data can be deallocated... 

     total cpu time spent up to now is       30.2 secs

     Self-consistent Calculation

     iteration #  1     ecut=    71.00 Ry     beta= 0.10
     Davidson diagonalization with overlap
     ethr =  1.00E-02,  avg # of iterations =  3.3

     Threshold (ethr) on eigenvalues was too large:
     Diagonalizing with lowered threshold

     Davidson diagonalization with overlap
     ethr =  8.34E-05,  avg # of iterations =  5.6

     total cpu time spent up to now is      212.7 secs

     total energy              =  -13813.41152234 Ry
     estimated scf accuracy    <       0.63701726 Ry

     iteration #  2     ecut=    71.00 Ry     beta= 0.10
     Davidson diagonalization with overlap
     ethr =  1.24E-04,  avg # of iterations =  1.1

     total cpu time spent up to now is      280.6 secs

     total energy              =  -13813.20828006 Ry
     estimated scf accuracy    <       0.39776109 Ry

     iteration #  3     ecut=    71.00 Ry     beta= 0.10
     Davidson diagonalization with overlap
     ethr =  7.77E-05,  avg # of iterations =  2.2

     total cpu time spent up to now is      361.4 secs

     total energy              =  -13813.29794664 Ry
     estimated scf accuracy    <       0.05125174 Ry

     iteration #  4     ecut=    71.00 Ry     beta= 0.10
     Davidson diagonalization with overlap
     ethr =  1.00E-05,  avg # of iterations =  2.5

     total cpu time spent up to now is      431.3 secs

     total energy              =  -13813.29937559 Ry
     estimated scf accuracy    <       0.00886592 Ry

     iteration #  5     ecut=    71.00 Ry     beta= 0.10
     Davidson diagonalization with overlap
     ethr =  1.73E-06,  avg # of iterations =  2.2

     total cpu time spent up to now is      498.1 secs

     total energy              =  -13813.30031575 Ry
     estimated scf accuracy    <       0.00561527 Ry

     iteration #  6     ecut=    71.00 Ry     beta= 0.10
     Davidson diagonalization with overlap
     ethr =  1.10E-06,  avg # of iterations =  3.4

     total cpu time spent up to now is      601.7 secs

     total energy              =  -13813.29972678 Ry
     estimated scf accuracy    <       0.01393921 Ry

     iteration #  7     ecut=    71.00 Ry     beta= 0.10
     Davidson diagonalization with overlap
     ethr =  1.10E-06,  avg # of iterations =  2.2

     total cpu time spent up to now is      683.9 secs

     total energy              =  -13813.30015612 Ry
     estimated scf accuracy    <       0.00194727 Ry

     iteration #  8     ecut=    71.00 Ry     beta= 0.10
     Davidson diagonalization with overlap
     ethr =  3.80E-07,  avg # of iterations =  2.0

     total cpu time spent up to now is      756.7 secs

     total energy              =  -13813.30021269 Ry
     estimated scf accuracy    <       0.00032912 Ry

     iteration #  9     ecut=    71.00 Ry     beta= 0.10
     Davidson diagonalization with overlap
     ethr =  6.43E-08,  avg # of iterations =  2.4

     total cpu time spent up to now is      826.0 secs

     total energy              =  -13813.30018278 Ry
     estimated scf accuracy    <       0.00009853 Ry

     iteration # 10     ecut=    71.00 Ry     beta= 0.10
     Davidson diagonalization with overlap
     ethr =  1.92E-08,  avg # of iterations =  3.1

     total cpu time spent up to now is      918.0 secs

     total energy              =  -13813.30020747 Ry
     estimated scf accuracy    <       0.00000262 Ry

     iteration # 11     ecut=    71.00 Ry     beta= 0.10
     Davidson diagonalization with overlap
     ethr =  5.13E-10,  avg # of iterations =  3.7

     total cpu time spent up to now is     1000.4 secs

     End of self-consistent calculation

          k = 0.0556 0.0553 0.0556 ( 30368 PWs)   bands (ev):

   -50.0229 -49.9258 -49.9244 -49.9244 -49.9070 -49.9055 -49.9055 -49.8707
   -49.8707 -49.8706 -49.8615 -49.8605 -49.8605 -49.8603 -49.8603 -49.8602
   -49.8602 -49.8598 -49.8597 -49.8597 -49.8517 -49.8516 -49.8516 -49.8089
   -49.8072 -49.8071 -49.8069 -49.8069 -49.8061 -49.8060 -49.8056 -49.8055
   -20.4207 -20.4207 -20.4206 -20.4166 -20.3595 -20.3595 -20.3581 -20.1656
   -20.1593 -20.1593 -20.1546 -20.1546 -20.1482 -20.1482 -20.1478 -20.1478
   -20.1349 -20.1279 -20.1278 -20.1112 -20.1112 -20.1065 -20.1065 -20.1061
   -20.1061 -20.0619 -20.0619 -20.0566 -20.0566 -20.0557 -20.0557 -19.9604
   -19.9604 -19.9593 -19.8885 -19.8885 -19.8870 -19.8806 -19.8806 -19.8795
   -19.8481 -19.8481 -19.8471 -19.8470 -19.8460 -19.8460 -19.8079 -19.8079
   -19.8065 -19.8023 -19.8023 -19.8013 -19.8013 -19.8003 -19.8002 -19.7984
   -19.7984 -19.7904 -19.7904 -19.7901 -19.7856 -19.6336 -19.6336 -19.6290
   -19.6290 -19.6275 -19.6268 -19.6014 -19.6014 -19.5977 -19.5977 -19.5960
   -19.5960 -19.5855 -19.5855 -19.5802 -19.5748 -19.5729 -19.5729 -19.5722
   -19.5722 -19.5722 -19.5722 -19.5691 -19.5675 -19.5675 -19.5672 -19.5672
   -19.5654 -19.5626 -19.5539 -19.5539 -19.5493 -19.4409 -19.4343 -19.4339
    15.2454  16.8143  16.8143  16.8181  17.0894  17.1071  17.1071  17.1071
    17.2805  17.2805  17.2851  17.4842  17.5000  17.5000  17.6582  17.6734
    17.6734  18.2009  18.2009  18.2241  18.2241  18.2251  18.2251  18.5213
    18.5364  18.5364  18.7876  18.7876  18.7885  18.7899  18.8095  18.8095
    18.8951  18.8971  18.8971  18.8978  18.8978  18.8978  18.8978  18.8989
    18.8989  19.3789  19.3789  19.3906  19.3906  19.4004  19.4004  19.5187
    19.5411  19.5411  19.5498  19.5498  19.5727  19.5727  19.5744  19.5744
    19.6157  19.6367  19.6367  19.8790  19.8790  19.8867  19.8867  19.8889
    19.8889  19.8890  19.8890  19.8930  19.8930  19.8956  19.8984  19.8985
    19.9040  19.9040  20.0604  20.0604  20.0647  20.3190  20.3450  20.3450
    20.3545  20.3966  20.3966  20.4081  20.4230  20.4556  20.5065  20.5229
    21.4471  21.4875  21.4875  21.6128  21.6568  21.6568  21.6882  21.6882
    21.7023  21.7874  21.7874  21.7890  21.7891  21.8005  21.8005  21.8026
    21.8026  21.8134  22.0922  22.0922  22.1160  22.2148  22.2148  22.2292
    22.4593  22.4593  22.4814  22.5375  22.5375  22.5476  22.5476  22.5487
    22.5487  22.5560  22.5560  22.5759  22.5972  22.5973  22.6111  22.7846
    22.7846  22.7853  22.7853  22.8030  22.8030  22.8174  22.8798  22.9570
    22.9570  22.9751  23.6092  23.6092  23.6378  23.6653  23.6653  23.6711
    23.7695  23.7695  23.7942  23.8679  24.5901  24.5901  24.5935  24.6200
    24.6471  24.6545  24.6748  24.6748  24.9413  24.9524  24.9524  24.9721
    24.9721  24.9859  25.1223  25.1223  25.1240  25.1240  25.1377  25.1434
    25.1434  25.1586  25.1586  26.5652  26.5652  26.5959  26.6921  26.7753
    26.7753  27.0944  27.0944

          k = 0.0556 0.0553 0.1667 ( 30347 PWs)   bands (ev):

   -50.0196 -49.9431 -49.9239 -49.9226 -49.9055 -49.9039 -49.8867 -49.8811
   -49.8807 -49.8704 -49.8692 -49.8688 -49.8631 -49.8605 -49.8602 -49.8598
   -49.8597 -49.8582 -49.8519 -49.8502 -49.8499 -49.8432 -49.8429 -49.8094
   -49.8089 -49.8087 -49.8086 -49.8074 -49.8074 -49.8071 -49.8067 -49.8060
   -20.4133 -20.4096 -20.4093 -20.4015 -20.3512 -20.3498 -20.3466 -20.1903
   -20.1771 -20.1766 -20.1696 -20.1674 -20.1641 -20.1617 -20.1559 -20.1544
   -20.1543 -20.1372 -20.1301 -20.1209 -20.1169 -20.1086 -20.1080 -20.1035
   -20.1013 -20.0693 -20.0646 -20.0529 -20.0476 -20.0379 -20.0081 -20.0069
   -19.9734 -19.9714 -19.9292 -19.9271 -19.8974 -19.8954 -19.8875 -19.8848
   -19.8556 -19.8188 -19.8179 -19.8067 -19.8060 -19.8054 -19.8025 -19.8008
   -19.8007 -19.7994 -19.7948 -19.7935 -19.7873 -19.7851 -19.7850 -19.7846
   -19.7844 -19.7830 -19.7811 -19.7682 -19.7674 -19.6653 -19.6597 -19.6364
   -19.6346 -19.6250 -19.6195 -19.6049 -19.6047 -19.6031 -19.5995 -19.5964
   -19.5917 -19.5914 -19.5878 -19.5872 -19.5850 -19.5833 -19.5796 -19.5725
   -19.5724 -19.5721 -19.5720 -19.5713 -19.5697 -19.5684 -19.5667 -19.5652
   -19.5636 -19.5611 -19.5544 -19.5421 -19.5380 -19.4580 -19.4398 -19.4376
    15.3316  16.8650  16.8780  16.8819  17.1289  17.1640  17.1640  17.1814
    17.1966  17.3186  17.3418  17.3469  17.5468  17.5618  17.6976  17.7240
    17.7386  18.1024  18.1051  18.2502  18.2591  18.2730  18.2791  18.2816
    18.4780  18.5610  18.5745  18.5835  18.5844  18.6346  18.6497  18.6520
    18.8233  18.8375  18.8379  18.8412  18.8627  18.8656  18.9292  18.9475
    18.9933  18.9944  19.0914  19.3676  19.3782  19.3828  19.3949  19.4329
    19.4469  19.4498  19.4646  19.5096  19.5245  19.6035  19.6046  19.6431
    19.7086  19.7149  19.7373  19.7429  19.8364  19.8445  19.8552  19.8718
    19.8778  19.8857  19.8874  19.8947  19.9005  20.1361  20.1400  20.1611
    20.1636  20.1837  20.2383  20.2819  20.2863  20.3287  20.3725  20.4200
    20.4228  20.4233  20.4258  20.4491  20.4518  20.4662  20.5204  20.5670
    21.2238  21.2501  21.3502  21.3809  21.4730  21.4854  21.5952  21.5958
    21.6258  21.7236  21.7370  21.7540  21.8996  21.9048  21.9115  21.9354
    21.9429  21.9821  21.9901  22.0234  22.0752  22.0919  22.3958  22.4140
    22.4161  22.4231  22.4295  22.4479  22.5403  22.5496  22.5550  22.5653
    22.6759  22.6904  22.7055  22.7085  22.7840  22.7955  22.8074  22.8134
    22.8476  22.8668  23.0087  23.0101  23.0251  23.0719  23.0859  23.1577
    23.1898  23.2022  23.2052  23.2512  23.2590  23.4423  23.4554  23.6721
    23.6969  23.8640  23.8832  23.9325  24.3788  24.4112  24.5032  24.5061
    24.5240  24.5496  24.6095  24.6266  24.6291  24.8178  24.8794  24.9980
    24.9986  25.0293  25.0307  25.0325  25.1162  25.1203  25.1254  25.1312
    25.3091  25.3187  25.5390  26.0511  26.0752  26.4723  26.5073  26.5721
    26.6034  27.0392  27.0397

          k = 0.0556 0.0553 0.2778 ( 30318 PWs)   bands (ev):

   -50.0132 -49.9609 -49.9203 -49.9191 -49.9024 -49.9010 -49.8910 -49.8904
   -49.8776 -49.8769 -49.8698 -49.8688 -49.8648 -49.8604 -49.8602 -49.8599
   -49.8597 -49.8566 -49.8523 -49.8405 -49.8400 -49.8352 -49.8346 -49.8159
   -49.8122 -49.8115 -49.8110 -49.8101 -49.8087 -49.8077 -49.8065 -49.8061
   -20.3950 -20.3876 -20.3873 -20.3758 -20.3348 -20.3335 -20.3213 -20.2358
   -20.2214 -20.2209 -20.2003 -20.2002 -20.2000 -20.1726 -20.1681 -20.1666
   -20.1622 -20.1351 -20.1330 -20.1141 -20.1109 -20.1103 -20.1071 -20.1069
   -20.0767 -20.0715 -20.0696 -20.0678 -20.0374 -20.0324 -19.9963 -19.9931
   -19.9677 -19.9650 -19.9614 -19.9599 -19.9266 -19.9250 -19.9232 -19.9218
   -19.8227 -19.8188 -19.8059 -19.8021 -19.7971 -19.7960 -19.7863 -19.7839
   -19.7745 -19.7737 -19.7731 -19.7666 -19.7665 -19.7608 -19.7596 -19.7567
   -19.7565 -19.7396 -19.7302 -19.7299 -19.7235 -19.6954 -19.6889 -19.6508
   -19.6492 -19.6297 -19.6255 -19.6246 -19.6214 -19.6186 -19.6172 -19.6157
   -19.6107 -19.6069 -19.6043 -19.6026 -19.5875 -19.5839 -19.5758 -19.5755
   -19.5731 -19.5722 -19.5720 -19.5718 -19.5701 -19.5644 -19.5620 -19.5614
   -19.5551 -19.5395 -19.5371 -19.5368 -19.5338 -19.4884 -19.4507 -19.4478
    15.5012  16.8206  16.9633  17.0023  17.0062  17.2254  17.2771  17.2771
    17.3109  17.3942  17.4638  17.4700  17.6048  17.6677  17.6816  17.8517
    17.8653  17.8953  17.8990  18.0432  18.1438  18.2437  18.2443  18.3113
    18.3442  18.3641  18.3736  18.3946  18.4735  18.4779  18.5293  18.5445
    18.6392  18.6498  18.6925  18.6958  18.8132  18.8158  18.8885  18.9028
    19.0675  19.0712  19.2629  19.2731  19.3278  19.3321  19.3366  19.3426
    19.3445  19.3541  19.3740  19.3858  19.3979  19.4806  19.4973  19.6411
    19.6493  19.7077  19.7637  19.7733  19.8323  19.8400  19.8795  19.8955
    19.8979  19.9116  19.9657  19.9726  20.0073  20.1794  20.2240  20.2329
    20.2366  20.2535  20.3030  20.3478  20.4868  20.5224  20.5534  20.5574
    20.5611  20.5752  20.5820  20.6112  20.6591  20.6844  20.9520  20.9698
    21.0110  21.0129  21.0346  21.0431  21.2338  21.3455  21.3476  21.3816
    21.3931  21.4536  21.8260  21.8564  21.8659  22.0651  22.0769  22.0816
    22.0895  22.1206  22.1255  22.1973  22.2027  22.3131  22.3264  22.4125
    22.4270  22.5349  22.5428  22.5453  22.5514  22.5550  22.5729  22.5815
    22.6288  22.6384  22.6544  22.6970  22.7249  22.7311  22.8437  22.9083
    22.9146  22.9190  22.9838  22.9877  23.1177  23.2471  23.3122  23.3188
    23.3223  23.4036  23.4111  23.4466  23.4759  23.4858  23.4973  23.6945
    23.7354  23.8513  23.8677  24.0945  24.1212  24.1292  24.2995  24.3000
    24.3344  24.4605  24.4605  24.4738  24.4986  24.5586  24.7691  24.7699
    24.7938  24.7954  24.8341  25.1132  25.1183  25.1266  25.1297  25.2734
    25.5471  25.5645  25.7427  25.7464  25.9428  26.0479  26.0731  26.0933
    26.3890  26.9243  26.9249

          k = 0.0556 0.0553 0.3889 ( 30291 PWs)   bands (ev):

   -50.0038 -49.9772 -49.9150 -49.9139 -49.9001 -49.8993 -49.8979 -49.8966
   -49.8853 -49.8844 -49.8688 -49.8663 -49.8604 -49.8601 -49.8599 -49.8598
   -49.8553 -49.8531 -49.8523 -49.8317 -49.8309 -49.8278 -49.8269 -49.8255
   -49.8173 -49.8162 -49.8158 -49.8145 -49.8086 -49.8080 -49.8064 -49.8061
   -20.3663 -20.3559 -20.3554 -20.3405 -20.3107 -20.3096 -20.2840 -20.2839
   -20.2697 -20.2692 -20.2496 -20.2425 -20.2419 -20.1774 -20.1708 -20.1676
   -20.1570 -20.1541 -20.1495 -20.1492 -20.1243 -20.1233 -20.0865 -20.0801
   -20.0574 -20.0538 -20.0405 -20.0339 -20.0251 -20.0206 -20.0164 -20.0118
   -20.0027 -19.9997 -19.9627 -19.9596 -19.9580 -19.9558 -19.9182 -19.9162
   -19.8476 -19.8446 -19.8010 -19.7978 -19.7942 -19.7885 -19.7680 -19.7592
   -19.7519 -19.7306 -19.7301 -19.7279 -19.7275 -19.7247 -19.7242 -19.7240
   -19.7231 -19.7228 -19.7157 -19.6953 -19.6951 -19.6942 -19.6717 -19.6705
   -19.6589 -19.6583 -19.6551 -19.6545 -19.6538 -19.6513 -19.6387 -19.6376
   -19.6363 -19.6356 -19.6149 -19.5944 -19.5924 -19.5824 -19.5781 -19.5721
   -19.5719 -19.5716 -19.5708 -19.5693 -19.5678 -19.5599 -19.5592 -19.5583
   -19.5564 -19.5386 -19.5364 -19.5317 -19.5116 -19.5091 -19.4667 -19.4638
    15.7484  16.4292  17.1022  17.1805  17.1846  17.3779  17.4447  17.4449
    17.4475  17.4933  17.5064  17.6455  17.6489  17.6531  17.6534  17.8335
    17.8384  17.8415  17.8505  17.9330  17.9334  18.0009  18.0328  18.0448
    18.1806  18.1930  18.2646  18.2717  18.4722  18.4839  18.4873  18.4907
    18.5397  18.5583  18.7349  18.7360  18.7541  18.7605  18.9770  18.9817
    18.9831  18.9909  19.0754  19.0798  19.2213  19.2256  19.2607  19.2661
    19.3022  19.3175  19.3608  19.3746  19.3825  19.3845  19.6237  19.6317
    19.6475  19.6817  19.6876  19.8071  19.8965  19.9034  19.9174  19.9215
    19.9279  19.9382  20.0566  20.1073  20.1238  20.1347  20.1386  20.1474
    20.1550  20.2829  20.3341  20.3404  20.6124  20.6671  20.6811  20.6895
    20.6969  20.6993  20.7111  20.7121  20.7511  20.7964  20.9927  20.9995
    21.0239  21.0762  21.1298  21.1600  21.1646  21.1711  21.1755  21.1975
    21.6382  21.6736  21.9840  21.9890  22.0025  22.0548  22.0612  22.1764
    22.1806  22.1828  22.2339  22.2536  22.2558  22.2958  22.2999  22.3310
    22.3376  22.3814  22.3859  22.3911  22.4007  22.4645  22.5030  22.5091
    22.5460  22.5485  22.5648  22.5715  22.6545  22.6588  22.8732  22.8768
    22.9783  22.9894  23.0298  23.1377  23.1829  23.3282  23.3320  23.4567
    23.6426  23.6462  23.6516  23.7543  23.7624  23.7629  23.8010  23.8035
    24.0226  24.0238  24.0261  24.0830  24.1732  24.1793  24.1837  24.2372
    24.2470  24.2539  24.2951  24.3005  24.4663  24.4721  24.4843  24.4874
    24.5286  24.5316  24.6052  25.0563  25.0667  25.1133  25.1163  25.1275
    25.1289  25.2944  25.5235  25.5422  25.6431  26.1460  26.1472  26.2066
    26.5803  26.7414  26.7419

          k = 0.0556 0.0553-0.5000 ( 30288 PWs)   bands (ev):

   -49.9918 -49.9915 -49.9083 -49.9081 -49.9074 -49.9071 -49.8923 -49.8920
   -49.8911 -49.8909 -49.8678 -49.8675 -49.8603 -49.8601 -49.8600 -49.8598
   -49.8542 -49.8540 -49.8378 -49.8376 -49.8239 -49.8237 -49.8230 -49.8228
   -49.8214 -49.8211 -49.8203 -49.8200 -49.8084 -49.8082 -49.8063 -49.8061
   -20.3287 -20.3286 -20.3158 -20.3158 -20.3153 -20.3152 -20.2977 -20.2976
   -20.2798 -20.2796 -20.2789 -20.2787 -20.2355 -20.2353 -20.1626 -20.1625
   -20.1611 -20.1610 -20.1419 -20.1418 -20.1408 -20.1407 -20.0562 -20.0561
   -20.0506 -20.0505 -20.0333 -20.0331 -20.0299 -20.0297 -20.0018 -20.0017
   -19.9960 -19.9959 -19.9904 -19.9902 -19.9861 -19.9860 -19.8799 -19.8797
   -19.8775 -19.8773 -19.7996 -19.7994 -19.7914 -19.7912 -19.7476 -19.7474
   -19.7395 -19.7392 -19.7001 -19.7000 -19.6987 -19.6985 -19.6978 -19.6976
   -19.6933 -19.6932 -19.6913 -19.6913 -19.6912 -19.6912 -19.6879 -19.6879
   -19.6773 -19.6771 -19.6770 -19.6769 -19.6646 -19.6644 -19.6640 -19.6638
   -19.6514 -19.6513 -19.5867 -19.5865 -19.5805 -19.5803 -19.5794 -19.5793
   -19.5793 -19.5791 -19.5721 -19.5718 -19.5714 -19.5712 -19.5581 -19.5579
   -19.5462 -19.5461 -19.5455 -19.5454 -19.4873 -19.4871 -19.4846 -19.4844
    16.0631  16.0631  17.2699  17.2700  17.4018  17.4018  17.4060  17.4061
    17.5843  17.5843  17.6535  17.6536  17.6646  17.6646  17.6649  17.6649
    17.7251  17.7251  17.8852  17.8853  17.8951  17.8952  18.0444  18.0444
    18.0541  18.0541  18.2519  18.2519  18.2616  18.2616  18.6132  18.6132
    18.6213  18.6213  18.7487  18.7487  18.7633  18.7634  18.9025  18.9026
    18.9038  18.9039  19.0970  19.0971  19.0998  19.0998  19.3024  19.3025
    19.3218  19.3218  19.3298  19.3298  19.3332  19.3332  19.6342  19.6342
    19.6359  19.6359  19.9013  19.9014  19.9048  19.9049  19.9249  19.9249
    19.9278  19.9278  20.0316  20.0317  20.0459  20.0460  20.1990  20.1991
    20.3836  20.3837  20.3954  20.3954  20.4896  20.4896  20.4988  20.4988
    20.7831  20.7832  20.8503  20.8503  20.8680  20.8680  20.9051  20.9052
    20.9357  20.9358  20.9771  20.9772  21.6333  21.6334  21.6347  21.6347
    21.6401  21.6402  21.6707  21.6707  22.0391  22.0392  22.0395  22.0396
    22.2371  22.2373  22.2998  22.2999  22.3381  22.3382  22.3507  22.3508
    22.3546  22.3547  22.4263  22.4264  22.4309  22.4311  22.4432  22.4433
    22.4439  22.4440  22.5055  22.5056  22.5106  22.5107  22.7580  22.7581
    22.7584  22.7585  23.0707  23.0708  23.6881  23.6883  23.6908  23.6910
    23.7052  23.7053  23.7849  23.7849  23.9595  23.9595  23.9668  23.9669
    24.0086  24.0086  24.0465  24.0465  24.1214  24.1216  24.1306  24.1307
    24.1400  24.1402  24.1462  24.1464  24.4149  24.4150  24.5913  24.5913
    24.5941  24.5941  24.6310  24.6310  25.0094  25.0094  25.0209  25.0210
    25.1145  25.1146  25.1282  25.1283  25.9574  25.9575  26.4827  26.4828
    26.4828  26.4829  26.9724

          k = 0.0556 0.1659 0.0556 ( 30319 PWs)   bands (ev):

   -50.0197 -49.9442 -49.9226 -49.9226 -49.9039 -49.9039 -49.8886 -49.8808
   -49.8808 -49.8703 -49.8687 -49.8687 -49.8631 -49.8603 -49.8603 -49.8598
   -49.8597 -49.8582 -49.8520 -49.8504 -49.8504 -49.8431 -49.8431 -49.8122
   -49.8089 -49.8089 -49.8084 -49.8084 -49.8061 -49.8060 -49.8056 -49.8056
   -20.4134 -20.4097 -20.4097 -20.4017 -20.3513 -20.3513 -20.3452 -20.1953
   -20.1823 -20.1823 -20.1636 -20.1636 -20.1618 -20.1608 -20.1608 -20.1584
   -20.1584 -20.1308 -20.1308 -20.1166 -20.1166 -20.1032 -20.1032 -20.1017
   -20.1017 -20.0645 -20.0645 -20.0469 -20.0469 -20.0367 -20.0141 -20.0141
   -19.9726 -19.9726 -19.9282 -19.9282 -19.8965 -19.8965 -19.8855 -19.8855
   -19.8553 -19.8179 -19.8179 -19.8108 -19.8108 -19.8080 -19.8080 -19.7999
   -19.7977 -19.7977 -19.7893 -19.7893 -19.7870 -19.7870 -19.7864 -19.7863
   -19.7847 -19.7808 -19.7803 -19.7692 -19.7692 -19.6584 -19.6570 -19.6408
   -19.6408 -19.6213 -19.6213 -19.6084 -19.6084 -19.6050 -19.6050 -19.5965
   -19.5964 -19.5919 -19.5887 -19.5887 -19.5848 -19.5848 -19.5797 -19.5748
   -19.5680 -19.5673 -19.5673 -19.5668 -19.5668 -19.5657 -19.5652 -19.5652
   -19.5649 -19.5599 -19.5497 -19.5422 -19.5422 -19.4582 -19.4393 -19.4376
    15.3308  16.8680  16.8771  16.8772  17.1287  17.1638  17.1638  17.1812
    17.1820  17.3226  17.3422  17.3422  17.5612  17.5612  17.6844  17.7378
    17.7378  18.0823  18.0823  18.2682  18.2713  18.2713  18.2819  18.2819
    18.4760  18.5755  18.5755  18.5812  18.5812  18.6317  18.6484  18.6484
    18.8341  18.8341  18.8422  18.8422  18.8643  18.8643  18.9387  18.9387
    18.9948  18.9948  19.0670  19.3589  19.3589  19.4038  19.4038  19.4518
    19.4518  19.4666  19.4666  19.5218  19.5218  19.6072  19.6072  19.6301
    19.7146  19.7146  19.7229  19.7229  19.8125  19.8334  19.8334  19.8810
    19.8810  19.8968  19.8968  19.9105  19.9105  20.1422  20.1422  20.1689
    20.1689  20.1913  20.2393  20.2477  20.2905  20.2905  20.3524  20.3844
    20.4394  20.4394  20.4411  20.4625  20.4625  20.4853  20.5607  20.5695
    21.2595  21.2595  21.3874  21.3874  21.4436  21.5055  21.6133  21.6133
    21.6422  21.7194  21.7194  21.7788  21.8978  21.8978  21.9105  21.9309
    21.9309  21.9760  21.9760  21.9772  22.0629  22.0629  22.3932  22.3932
    22.4152  22.4152  22.4228  22.4228  22.5488  22.5488  22.5618  22.5618
    22.6730  22.6730  22.6956  22.6956  22.7463  22.8054  22.8054  22.8088
    22.8678  22.9037  23.0212  23.0212  23.0349  23.0714  23.0714  23.1696
    23.1888  23.1888  23.2089  23.2566  23.2566  23.4435  23.4878  23.6733
    23.6733  23.8637  23.8637  23.9531  24.3874  24.3874  24.5023  24.5023
    24.5058  24.5541  24.6071  24.6086  24.6086  24.8060  24.8988  24.9964
    24.9964  24.9993  24.9993  25.0290  25.1536  25.1536  25.1584  25.1584
    25.3254  25.3254  25.5522  26.0511  26.0511  26.3937  26.5370  26.5725
    26.5725  27.0750  27.0750

          k = 0.0556 0.1659 0.1667 ( 30326 PWs)   bands (ev):

   -50.0165 -49.9420 -49.9410 -49.9209 -49.9025 -49.8928 -49.8873 -49.8855
   -49.8802 -49.8801 -49.8684 -49.8684 -49.8664 -49.8614 -49.8575 -49.8568
   -49.8566 -49.8565 -49.8506 -49.8504 -49.8438 -49.8436 -49.8360 -49.8121
   -49.8103 -49.8101 -49.8095 -49.8093 -49.8079 -49.8077 -49.8069 -49.8060
   -20.4063 -20.4061 -20.3950 -20.3828 -20.3430 -20.3392 -20.3377 -20.2011
   -20.1965 -20.1954 -20.1900 -20.1632 -20.1628 -20.1606 -20.1594 -20.1576
   -20.1534 -20.1522 -20.1521 -20.1481 -20.1345 -20.1287 -20.1267 -20.1264
   -20.0667 -20.0463 -20.0450 -20.0409 -20.0408 -20.0281 -20.0231 -20.0064
   -19.9995 -19.9865 -19.9697 -19.9141 -19.8919 -19.8917 -19.8549 -19.8546
   -19.8461 -19.8431 -19.8245 -19.8201 -19.8192 -19.8051 -19.7950 -19.7869
   -19.7854 -19.7851 -19.7846 -19.7838 -19.7824 -19.7812 -19.7811 -19.7796
   -19.7738 -19.7728 -19.7452 -19.7444 -19.7310 -19.6729 -19.6657 -19.6533
   -19.6512 -19.6324 -19.6271 -19.6194 -19.6051 -19.6039 -19.6036 -19.5985
   -19.5981 -19.5958 -19.5948 -19.5937 -19.5937 -19.5911 -19.5804 -19.5764
   -19.5762 -19.5745 -19.5744 -19.5722 -19.5686 -19.5657 -19.5616 -19.5609
   -19.5566 -19.5553 -19.5431 -19.5389 -19.5254 -19.4796 -19.4445 -19.4370
    15.4156  16.9281  16.9320  16.9349  17.1489  17.2013  17.2434  17.2530
    17.2530  17.2568  17.3796  17.3838  17.4072  17.6080  17.7525  17.7644
    17.7845  18.1163  18.1336  18.1423  18.1640  18.3133  18.3238  18.3284
    18.3294  18.3647  18.3649  18.4390  18.5061  18.5069  18.6290  18.6681
    18.6703  18.6875  18.6913  18.7168  18.8870  18.9530  18.9551  18.9593
    18.9633  18.9834  18.9888  19.0937  19.1171  19.3246  19.3402  19.4354
    19.4368  19.4610  19.5069  19.5127  19.5404  19.5431  19.5895  19.5990
    19.6100  19.7888  19.7934  19.8121  19.8138  19.8877  19.9062  19.9647
    19.9702  20.0174  20.0801  20.0878  20.1745  20.1899  20.2118  20.2142
    20.2468  20.2539  20.2970  20.3414  20.3548  20.3672  20.3681  20.3930
    20.4317  20.4433  20.4504  20.4878  20.5349  20.5513  20.5629  20.6103
    21.1199  21.2202  21.2306  21.2605  21.4875  21.5121  21.6495  21.6555
    21.6659  21.6859  21.6869  21.7301  21.7614  21.7628  21.7776  21.7875
    21.8043  21.9393  22.0106  22.1152  22.1163  22.1324  22.1358  22.1815
    22.2567  22.5483  22.5498  22.6607  22.6695  22.6826  22.6835  22.6941
    22.7245  22.7307  22.7360  22.8035  22.8241  22.8730  22.8847  22.8886
    22.9457  22.9552  22.9640  23.0035  23.0046  23.1055  23.1946  23.2538
    23.2578  23.2821  23.2931  23.3618  23.3737  23.3851  23.4956  23.5232
    23.7033  23.8994  24.0704  24.0832  24.0857  24.2031  24.2085  24.3853
    24.4946  24.4984  24.5661  24.6312  24.6395  24.6543  24.6690  24.8949
    24.8966  24.9939  25.0024  25.0271  25.0281  25.0322  25.0461  25.0731
    25.2683  25.5546  25.9026  25.9046  25.9935  26.0171  26.5182  26.5481
    26.9934  27.0530  27.1284

          k = 0.0556 0.1659 0.2778 ( 30299 PWs)   bands (ev):

   -50.0101 -49.9585 -49.9379 -49.9174 -49.9042 -49.8996 -49.8895 -49.8848
   -49.8790 -49.8763 -49.8695 -49.8679 -49.8678 -49.8644 -49.8630 -49.8552
   -49.8535 -49.8511 -49.8454 -49.8447 -49.8411 -49.8360 -49.8292 -49.8157
   -49.8135 -49.8131 -49.8119 -49.8119 -49.8101 -49.8093 -49.8074 -49.8062
   -20.3918 -20.3881 -20.3701 -20.3538 -20.3267 -20.3227 -20.3152 -20.2427
   -20.2336 -20.2008 -20.2005 -20.2000 -20.1999 -20.1933 -20.1722 -20.1702
   -20.1689 -20.1517 -20.1510 -20.1428 -20.1402 -20.1385 -20.1376 -20.1157
   -20.1013 -20.0602 -20.0491 -20.0286 -20.0267 -20.0144 -20.0112 -20.0086
   -19.9919 -19.9805 -19.9530 -19.9447 -19.9267 -19.8908 -19.8825 -19.8524
   -19.8453 -19.8384 -19.8130 -19.8075 -19.8023 -19.7940 -19.7862 -19.7835
   -19.7814 -19.7803 -19.7729 -19.7625 -19.7543 -19.7508 -19.7478 -19.7460
   -19.7458 -19.7425 -19.7098 -19.7077 -19.7034 -19.6944 -19.6837 -19.6808
   -19.6412 -19.6406 -19.6391 -19.6346 -19.6287 -19.6263 -19.6229 -19.6200
   -19.6157 -19.6077 -19.6018 -19.5963 -19.5944 -19.5930 -19.5856 -19.5836
   -19.5810 -19.5810 -19.5758 -19.5754 -19.5668 -19.5625 -19.5604 -19.5458
   -19.5450 -19.5407 -19.5353 -19.5261 -19.5156 -19.5133 -19.4556 -19.4428
    15.5825  16.8833  17.0269  17.0482  17.0569  17.2245  17.2933  17.3626
    17.3781  17.3942  17.4541  17.5057  17.5356  17.6719  17.6969  17.8726
    17.8853  17.9127  17.9562  18.0537  18.0925  18.1772  18.1794  18.2106
    18.2410  18.2604  18.3578  18.3848  18.4013  18.4029  18.4188  18.4403
    18.5671  18.5832  18.5868  18.6956  18.7364  18.7999  18.8093  18.9763
    18.9866  19.0058  19.0412  19.1445  19.1866  19.2527  19.2560  19.2900
    19.3017  19.3547  19.3920  19.4270  19.5046  19.5070  19.5438  19.6122
    19.6298  19.6643  19.7788  19.9061  19.9524  19.9627  19.9961  20.0258
    20.0595  20.0740  20.1295  20.1452  20.2056  20.2128  20.2535  20.2620
    20.2769  20.3487  20.4057  20.4140  20.4217  20.4836  20.4988  20.5287
    20.5689  20.6260  20.6565  20.6628  20.6740  20.6944  20.9034  20.9071
    20.9552  21.0068  21.0186  21.2293  21.2335  21.2572  21.3983  21.4290
    21.5194  21.5351  21.5905  21.7025  21.7528  21.8037  21.8594  21.9671
    21.9828  22.0230  22.0622  22.1178  22.1519  22.1681  22.2668  22.3437
    22.3762  22.4574  22.4602  22.4929  22.5124  22.5370  22.6435  22.6523
    22.6550  22.6638  22.7577  22.7969  22.8519  22.8885  22.9591  22.9729
    22.9843  23.0140  23.0154  23.1956  23.2945  23.2952  23.3176  23.3322
    23.3671  23.5245  23.5388  23.5771  23.5908  23.5935  23.6369  23.6434
    23.6439  23.7276  23.8330  23.9263  24.0873  24.2021  24.3008  24.3175
    24.3489  24.4154  24.4387  24.5606  24.5645  24.5680  24.7099  24.7108
    24.7946  24.7985  24.8563  24.8902  24.9922  25.0054  25.0213  25.0254
    25.0788  25.4544  25.5085  25.8778  26.0201  26.3245  26.4078  26.5063
    26.5353  26.5906  27.5016

          k = 0.0556 0.1659 0.3889 ( 30304 PWs)   bands (ev):

   -50.0008 -49.9746 -49.9318 -49.9147 -49.9124 -49.8982 -49.8954 -49.8835
   -49.8811 -49.8773 -49.8724 -49.8707 -49.8669 -49.8644 -49.8539 -49.8518
   -49.8516 -49.8508 -49.8463 -49.8349 -49.8325 -49.8289 -49.8251 -49.8230
   -49.8184 -49.8179 -49.8173 -49.8129 -49.8115 -49.8106 -49.8070 -49.8064
   -20.3667 -20.3601 -20.3359 -20.3159 -20.3028 -20.3009 -20.2898 -20.2800
   -20.2798 -20.2477 -20.2390 -20.2351 -20.2218 -20.1980 -20.1922 -20.1787
   -20.1774 -20.1765 -20.1721 -20.1615 -20.1386 -20.1271 -20.1208 -20.1078
   -20.0796 -20.0675 -20.0636 -20.0425 -20.0420 -20.0105 -19.9867 -19.9833
   -19.9825 -19.9715 -19.9588 -19.9402 -19.9250 -19.9161 -19.9096 -19.8935
   -19.8718 -19.8385 -19.7849 -19.7819 -19.7816 -19.7812 -19.7802 -19.7776
   -19.7646 -19.7570 -19.7562 -19.7323 -19.7317 -19.7234 -19.7207 -19.7170
   -19.7132 -19.7117 -19.7028 -19.6983 -19.6780 -19.6762 -19.6761 -19.6667
   -19.6639 -19.6635 -19.6617 -19.6605 -19.6601 -19.6527 -19.6519 -19.6275
   -19.6261 -19.6205 -19.6053 -19.6036 -19.5986 -19.5984 -19.5974 -19.5923
   -19.5895 -19.5859 -19.5728 -19.5697 -19.5683 -19.5634 -19.5582 -19.5557
   -19.5478 -19.5387 -19.5268 -19.5177 -19.5128 -19.4984 -19.4719 -19.4556
    15.8258  16.4965  17.1666  17.2130  17.2362  17.3551  17.4391  17.5139
    17.5322  17.5545  17.5645  17.5843  17.6625  17.6872  17.7080  17.7242
    17.7738  17.8181  17.8843  17.8863  17.9726  17.9924  18.0495  18.0753
    18.0900  18.1036  18.2206  18.2572  18.2633  18.2719  18.4327  18.4656
    18.5357  18.5362  18.5645  18.6029  18.7004  18.8943  18.8976  18.9177
    18.9320  19.0309  19.0503  19.0858  19.1085  19.1460  19.1585  19.1762
    19.2135  19.2138  19.3522  19.3620  19.3671  19.4741  19.6376  19.6386
    19.6573  19.7112  19.9136  19.9178  19.9548  19.9801  20.0193  20.0322
    20.0380  20.0754  20.1137  20.1641  20.1686  20.1972  20.2393  20.2515
    20.3484  20.3709  20.3819  20.5673  20.6108  20.6668  20.6872  20.6991
    20.7556  20.8102  20.8164  20.8169  20.8178  20.8180  20.8223  20.8580
    20.9720  21.0370  21.1083  21.1381  21.1654  21.1845  21.2732  21.3040
    21.5101  21.6281  21.6765  21.7471  21.7507  21.8018  21.9142  21.9655
    21.9888  22.0173  22.0688  22.0704  22.0768  22.0823  22.1595  22.2266
    22.2891  22.3407  22.4406  22.4715  22.4885  22.5467  22.5748  22.5903
    22.6126  22.7129  22.7588  22.7609  22.8306  22.8865  22.9092  22.9586
    23.0158  23.0587  23.1859  23.2357  23.2831  23.2882  23.3571  23.3746
    23.5530  23.5841  23.6552  23.7473  23.8683  23.8722  23.8842  23.8978
    23.9219  23.9290  23.9448  24.0347  24.0547  24.1286  24.1337  24.2334
    24.3136  24.4025  24.4135  24.4679  24.4706  24.4817  24.4866  24.4982
    24.6278  24.6324  24.6937  24.9349  24.9923  25.0044  25.0086  25.0130
    25.0162  25.1962  25.4913  25.7039  25.7402  25.9038  26.0390  26.2393
    26.7319  27.0557  27.3298

          k = 0.0556 0.1659-0.5000 ( 30310 PWs)   bands (ev):

   -49.9890 -49.9888 -49.9241 -49.9239 -49.9060 -49.9058 -49.8901 -49.8899
   -49.8765 -49.8762 -49.8752 -49.8750 -49.8659 -49.8656 -49.8529 -49.8526
   -49.8484 -49.8482 -49.8374 -49.8371 -49.8258 -49.8255 -49.8250 -49.8247
   -49.8227 -49.8224 -49.8176 -49.8174 -49.8112 -49.8110 -49.8068 -49.8066
   -20.3322 -20.3321 -20.3234 -20.3233 -20.2943 -20.2942 -20.2728 -20.2726
   -20.2721 -20.2719 -20.2710 -20.2709 -20.2341 -20.2339 -20.1883 -20.1882
   -20.1797 -20.1795 -20.1788 -20.1788 -20.1260 -20.1259 -20.1006 -20.1005
   -20.0753 -20.0752 -20.0664 -20.0663 -20.0232 -20.0232 -19.9870 -19.9869
   -19.9570 -19.9569 -19.9461 -19.9459 -19.9381 -19.9381 -19.9038 -19.9037
   -19.8712 -19.8710 -19.7834 -19.7832 -19.7805 -19.7804 -19.7568 -19.7566
   -19.7364 -19.7362 -19.7312 -19.7309 -19.7259 -19.7258 -19.7069 -19.7068
   -19.6978 -19.6977 -19.6925 -19.6924 -19.6871 -19.6870 -19.6845 -19.6843
   -19.6840 -19.6839 -19.6565 -19.6564 -19.6499 -19.6497 -19.6307 -19.6305
   -19.6288 -19.6287 -19.6146 -19.6145 -19.6130 -19.6128 -19.5946 -19.5944
   -19.5896 -19.5894 -19.5823 -19.5821 -19.5704 -19.5702 -19.5515 -19.5512
   -19.5486 -19.5485 -19.5169 -19.5168 -19.4929 -19.4927 -19.4746 -19.4745
    16.1356  16.1356  17.3353  17.3353  17.4219  17.4219  17.4590  17.4590
    17.5391  17.5391  17.6369  17.6369  17.7093  17.7094  17.7406  17.7407
    17.7796  17.7797  17.8187  17.8187  17.9264  17.9264  17.9586  17.9586
    17.9671  17.9672  18.1306  18.1306  18.3091  18.3091  18.3598  18.3598
    18.6465  18.6465  18.6512  18.6512  18.7128  18.7129  18.8084  18.8084
    19.0432  19.0432  19.0840  19.0841  19.1095  19.1095  19.1488  19.1488
    19.2037  19.2038  19.2787  19.2788  19.2916  19.2916  19.7680  19.7680
    19.8215  19.8216  19.8294  19.8295  19.9020  19.9021  19.9433  19.9433
    20.1058  20.1058  20.1165  20.1165  20.3123  20.3123  20.3297  20.3297
    20.3973  20.3974  20.4264  20.4265  20.4956  20.4956  20.6706  20.6706
    20.7675  20.7675  20.8611  20.8611  20.9359  20.9360  20.9741  20.9742
    21.0049  21.0049  21.0260  21.0261  21.4421  21.4422  21.4843  21.4843
    21.5182  21.5182  21.5689  21.5689  21.7453  21.7454  21.7499  21.7500
    22.0030  22.0032  22.1550  22.1551  22.2008  22.2009  22.2629  22.2630
    22.2637  22.2639  22.3227  22.3228  22.3863  22.3864  22.4869  22.4870
    22.6866  22.6868  22.7048  22.7049  22.8121  22.8122  23.0601  23.0602
    23.1059  23.1059  23.1098  23.1100  23.1783  23.1784  23.6303  23.6304
    23.7103  23.7105  23.7260  23.7261  23.9439  23.9440  24.0019  24.0020
    24.1273  24.1274  24.1678  24.1679  24.1786  24.1787  24.1923  24.1924
    24.1939  24.1939  24.2018  24.2019  24.2159  24.2160  24.4071  24.4071
    24.5429  24.5429  24.9708  24.9708  24.9953  24.9955  25.0120  25.0122
    25.2563  25.2564  25.4741  25.4743  25.4812  25.4812  26.0134  26.0135
    27.0740  27.0741  27.4996

          k = 0.0556 0.2766 0.0556 ( 30295 PWs)   bands (ev):

   -50.0133 -49.9617 -49.9191 -49.9191 -49.9010 -49.9009 -49.8905 -49.8905
   -49.8768 -49.8768 -49.8709 -49.8696 -49.8647 -49.8603 -49.8602 -49.8598
   -49.8598 -49.8567 -49.8524 -49.8407 -49.8407 -49.8350 -49.8350 -49.8187
   -49.8124 -49.8124 -49.8113 -49.8113 -49.8061 -49.8060 -49.8056 -49.8056
   -20.3953 -20.3880 -20.3880 -20.3764 -20.3352 -20.3352 -20.3198 -20.2394
   -20.2252 -20.2252 -20.2046 -20.2035 -20.2035 -20.1667 -20.1667 -20.1613
   -20.1613 -20.1315 -20.1315 -20.1094 -20.1081 -20.1081 -20.1063 -20.1063
   -20.0703 -20.0703 -20.0671 -20.0671 -20.0318 -20.0318 -19.9943 -19.9943
   -19.9679 -19.9679 -19.9657 -19.9657 -19.9243 -19.9243 -19.9221 -19.9221
   -19.8291 -19.8291 -19.8070 -19.7964 -19.7964 -19.7896 -19.7896 -19.7744
   -19.7744 -19.7742 -19.7700 -19.7695 -19.7695 -19.7616 -19.7616 -19.7593
   -19.7593 -19.7406 -19.7322 -19.7322 -19.7228 -19.6878 -19.6857 -19.6551
   -19.6551 -19.6300 -19.6300 -19.6258 -19.6258 -19.6220 -19.6220 -19.6200
   -19.6083 -19.6083 -19.6073 -19.6073 -19.5916 -19.5786 -19.5744 -19.5744
   -19.5706 -19.5672 -19.5672 -19.5667 -19.5667 -19.5646 -19.5646 -19.5574
   -19.5505 -19.5373 -19.5373 -19.5365 -19.5352 -19.4886 -19.4500 -19.4476
    15.4990  16.8082  16.9646  16.9997  16.9997  17.2249  17.2765  17.2765
    17.3104  17.3971  17.4650  17.4650  17.5945  17.6796  17.6796  17.8629
    17.8629  17.8793  17.8793  18.0361  18.1414  18.2411  18.2411  18.3085
    18.3613  18.3613  18.3936  18.3936  18.4722  18.4722  18.5366  18.5366
    18.6527  18.6527  18.6889  18.6889  18.8124  18.8124  18.9059  18.9059
    19.0670  19.0670  19.2766  19.2767  19.3289  19.3289  19.3358  19.3358
    19.3445  19.3591  19.3591  19.4050  19.4050  19.4908  19.4908  19.6551
    19.6551  19.6940  19.7578  19.7578  19.8215  19.8215  19.9012  19.9012
    19.9203  19.9203  19.9845  19.9845  19.9858  20.1476  20.2154  20.2154
    20.2506  20.2506  20.2582  20.3161  20.5213  20.5645  20.5645  20.5648
    20.5783  20.5783  20.5936  20.6566  20.6624  20.6844  20.9852  20.9852
    21.0290  21.0290  21.0458  21.0458  21.2591  21.3698  21.3698  21.4038
    21.4062  21.4752  21.7939  21.8448  21.8448  22.0487  22.0487  22.0737
    22.0737  22.1124  22.1124  22.1875  22.1875  22.3065  22.3065  22.4027
    22.4027  22.4992  22.5387  22.5387  22.5428  22.5428  22.5744  22.5744
    22.6096  22.6232  22.6232  22.7026  22.7306  22.7307  22.8456  22.9081
    22.9081  22.9511  22.9737  22.9737  23.1242  23.2648  23.3257  23.3257
    23.3479  23.4002  23.4002  23.4514  23.4720  23.4721  23.4990  23.7113
    23.7113  23.8533  23.8533  24.1110  24.1186  24.1186  24.2947  24.2947
    24.3193  24.4541  24.4541  24.4677  24.4818  24.5442  24.7666  24.7667
    24.7694  24.7694  24.8342  25.1552  25.1552  25.1579  25.1579  25.2931
    25.5468  25.5469  25.7613  25.7613  25.8733  26.0481  26.0481  26.1087
    26.4170  26.9574  26.9574

          k = 0.0556 0.2766 0.1667 ( 30309 PWs)   bands (ev):

   -50.0102 -49.9593 -49.9369 -49.9174 -49.9039 -49.8996 -49.8896 -49.8831
   -49.8789 -49.8762 -49.8699 -49.8695 -49.8678 -49.8634 -49.8630 -49.8551
   -49.8536 -49.8509 -49.8464 -49.8448 -49.8413 -49.8359 -49.8295 -49.8185
   -49.8137 -49.8135 -49.8129 -49.8102 -49.8092 -49.8081 -49.8067 -49.8061
   -20.3919 -20.3887 -20.3704 -20.3542 -20.3271 -20.3244 -20.3137 -20.2459
   -20.2376 -20.2042 -20.2038 -20.1964 -20.1961 -20.1957 -20.1765 -20.1672
   -20.1668 -20.1512 -20.1498 -20.1427 -20.1399 -20.1366 -20.1327 -20.1143
   -20.0960 -20.0616 -20.0453 -20.0279 -20.0271 -20.0141 -20.0100 -20.0076
   -19.9854 -19.9853 -19.9609 -19.9434 -19.9261 -19.8902 -19.8785 -19.8534
   -19.8474 -19.8399 -19.8232 -19.8090 -19.8063 -19.7856 -19.7840 -19.7836
   -19.7793 -19.7791 -19.7690 -19.7639 -19.7571 -19.7509 -19.7500 -19.7477
   -19.7453 -19.7426 -19.7110 -19.7083 -19.6954 -19.6953 -19.6877 -19.6813
   -19.6446 -19.6422 -19.6394 -19.6376 -19.6297 -19.6282 -19.6265 -19.6243
   -19.6135 -19.6103 -19.5976 -19.5965 -19.5965 -19.5899 -19.5895 -19.5801
   -19.5800 -19.5797 -19.5796 -19.5710 -19.5657 -19.5625 -19.5559 -19.5426
   -19.5417 -19.5407 -19.5388 -19.5251 -19.5157 -19.5134 -19.4552 -19.4426
    15.5811  16.8719  17.0292  17.0467  17.0512  17.2242  17.2930  17.3738
    17.3776  17.3939  17.4571  17.5012  17.5363  17.6629  17.6957  17.8713
    17.8947  17.8997  17.9375  18.0524  18.0857  18.1755  18.1917  18.2107
    18.2393  18.2801  18.3542  18.3825  18.4002  18.4126  18.4164  18.4401
    18.5598  18.5819  18.5911  18.6957  18.7380  18.8035  18.8042  18.9782
    18.9937  19.0049  19.0491  19.1656  19.1862  19.2429  19.2666  19.2902
    19.2990  19.3560  19.3642  19.4307  19.5029  19.5106  19.5359  19.6100
    19.6354  19.6769  19.7964  19.8970  19.9330  19.9794  20.0114  20.0379
    20.0412  20.0777  20.0998  20.1467  20.1964  20.2262  20.2407  20.2496
    20.2684  20.3489  20.3716  20.4241  20.4274  20.4956  20.5182  20.5347
    20.5925  20.6547  20.6598  20.6675  20.6783  20.6955  20.9168  20.9185
    20.9624  21.0055  21.0370  21.2429  21.2598  21.2640  21.4257  21.4651
    21.5406  21.5553  21.5628  21.6932  21.7217  21.7812  21.8494  21.9513
    21.9656  22.0067  22.0571  22.0847  22.1451  22.1643  22.2584  22.3418
    22.3682  22.4557  22.4637  22.4958  22.5103  22.5319  22.6122  22.6426
    22.6589  22.6656  22.7583  22.7777  22.8456  22.9185  22.9471  22.9652
    22.9814  23.0079  23.0213  23.2108  23.2917  23.2964  23.3113  23.3634
    23.3649  23.5256  23.5381  23.5841  23.5845  23.5880  23.6186  23.6337
    23.6489  23.7249  23.8346  23.9191  24.0853  24.1995  24.2999  24.3275
    24.3310  24.4102  24.4322  24.5457  24.5579  24.5657  24.7082  24.7105
    24.7667  24.7739  24.8431  24.9100  25.0273  25.0338  25.0436  25.0473
    25.0785  25.4697  25.4911  25.9004  25.9958  26.3329  26.4359  26.4853
    26.5143  26.5923  27.5393

          k = 0.0556 0.2766 0.2778 ( 30290 PWs)   bands (ev):

   -50.0040 -49.9546 -49.9539 -49.9168 -49.9142 -49.8969 -49.8879 -49.8878
   -49.8752 -49.8751 -49.8741 -49.8679 -49.8660 -49.8659 -49.8518 -49.8508
   -49.8506 -49.8505 -49.8423 -49.8421 -49.8376 -49.8374 -49.8241 -49.8180
   -49.8163 -49.8161 -49.8154 -49.8146 -49.8127 -49.8092 -49.8085 -49.8065
   -20.3783 -20.3780 -20.3430 -20.3225 -20.3110 -20.3031 -20.3014 -20.2447
   -20.2421 -20.2413 -20.2378 -20.2042 -20.2011 -20.1825 -20.1798 -20.1763
   -20.1754 -20.1748 -20.1727 -20.1650 -20.1632 -20.1419 -20.1381 -20.1380
   -20.1244 -20.1229 -20.0448 -20.0374 -20.0121 -20.0086 -19.9895 -19.9891
   -19.9796 -19.9761 -19.9472 -19.9396 -19.8730 -19.8723 -19.8706 -19.8440
   -19.8426 -19.8415 -19.8366 -19.8116 -19.8016 -19.7834 -19.7827 -19.7717
   -19.7694 -19.7687 -19.7657 -19.7652 -19.7558 -19.7529 -19.7323 -19.7312
   -19.7188 -19.7130 -19.7126 -19.7110 -19.6780 -19.6778 -19.6748 -19.6730
   -19.6631 -19.6620 -19.6601 -19.6539 -19.6315 -19.6314 -19.6298 -19.6246
   -19.6215 -19.6212 -19.6196 -19.6173 -19.5931 -19.5929 -19.5916 -19.5909
   -19.5889 -19.5830 -19.5709 -19.5681 -19.5648 -19.5625 -19.5584 -19.5556
   -19.5511 -19.5420 -19.5383 -19.5117 -19.5109 -19.5008 -19.4665 -19.4426
    15.7426  16.9962  17.0057  17.1413  17.1511  17.1552  17.2751  17.3597
    17.5256  17.5258  17.5733  17.5767  17.6746  17.7273  17.7964  17.8033
    17.8921  17.9329  17.9421  17.9506  17.9715  17.9716  18.0514  18.0683
    18.1086  18.1092  18.1844  18.1906  18.3874  18.4671  18.4680  18.4820
    18.4856  18.5242  18.5256  18.6056  18.6119  18.6967  18.6968  18.7729
    18.7787  18.9000  19.0423  19.0444  19.1083  19.1132  19.1190  19.3506
    19.3543  19.3671  19.3695  19.3993  19.4021  19.4236  19.4776  19.8001
    19.8123  19.9074  19.9162  19.9961  19.9975  20.0584  20.0660  20.0940
    20.1076  20.1094  20.1303  20.1973  20.2314  20.2910  20.3036  20.3824
    20.3930  20.4356  20.4484  20.5888  20.5942  20.5996  20.6655  20.6713
    20.6867  20.7148  20.7260  20.7629  20.7916  20.8018  20.8059  20.8125
    20.9556  20.9666  21.0760  21.0968  21.2920  21.3246  21.4260  21.4591
    21.4866  21.5141  21.5863  21.6128  21.6170  21.6860  21.7118  21.7306
    21.7510  21.7684  21.9245  21.9431  22.0860  22.1064  22.1096  22.1174
    22.1189  22.2380  22.3096  22.4442  22.4456  22.5740  22.6021  22.6060
    22.8894  22.8979  22.9021  23.0205  23.0262  23.0445  23.0450  23.1539
    23.1586  23.1633  23.1765  23.2362  23.2483  23.3567  23.3576  23.3614
    23.3621  23.4092  23.4311  23.6767  23.7036  23.7042  23.7545  23.8442
    23.8502  23.8506  23.8712  23.8767  24.0283  24.0792  24.2536  24.2565
    24.4611  24.5743  24.5790  24.6028  24.6040  24.6043  24.6217  24.6394
    24.7714  24.7798  24.7991  24.8029  24.8248  24.8283  24.8293  24.8415
    24.9321  25.2921  25.3807  25.3975  25.8919  25.9149  26.9583  26.9598
    27.1882  27.2227  27.2643

          k = 0.0556 0.2766 0.3889 ( 30308 PWs)   bands (ev):

   -49.9950 -49.9696 -49.9478 -49.9286 -49.9094 -49.8960 -49.8930 -49.8854
   -49.8819 -49.8784 -49.8735 -49.8688 -49.8650 -49.8568 -49.8502 -49.8481
   -49.8465 -49.8438 -49.8398 -49.8388 -49.8340 -49.8310 -49.8245 -49.8208
   -49.8202 -49.8195 -49.8193 -49.8174 -49.8156 -49.8114 -49.8083 -49.8069
   -20.3573 -20.3541 -20.3074 -20.2874 -20.2872 -20.2834 -20.2826 -20.2816
   -20.2716 -20.2366 -20.2360 -20.2326 -20.2207 -20.2189 -20.2027 -20.2018
   -20.1995 -20.1871 -20.1834 -20.1812 -20.1630 -20.1555 -20.1437 -20.1337
   -20.1295 -20.1024 -20.0715 -20.0690 -20.0405 -20.0165 -19.9716 -19.9623
   -19.9515 -19.9295 -19.9276 -19.9037 -19.9029 -19.8969 -19.8793 -19.8740
   -19.8285 -19.8268 -19.8119 -19.7976 -19.7947 -19.7910 -19.7683 -19.7670
   -19.7621 -19.7558 -19.7543 -19.7476 -19.7373 -19.7338 -19.7245 -19.7164
   -19.7077 -19.7052 -19.7050 -19.7046 -19.6981 -19.6852 -19.6745 -19.6735
   -19.6681 -19.6621 -19.6504 -19.6477 -19.6468 -19.6417 -19.6411 -19.6398
   -19.6276 -19.6194 -19.6165 -19.6081 -19.6062 -19.6060 -19.6037 -19.6019
   -19.5986 -19.5828 -19.5816 -19.5744 -19.5735 -19.5716 -19.5716 -19.5595
   -19.5465 -19.5431 -19.5298 -19.4991 -19.4930 -19.4856 -19.4831 -19.4500
    15.9781  16.6285  17.1752  17.2839  17.2924  17.3363  17.3774  17.4764
    17.6438  17.6571  17.6801  17.6996  17.7042  17.7168  17.7299  17.7545
    17.7730  17.8149  17.8538  17.8718  17.8973  17.9286  17.9884  17.9917
    18.0090  18.0419  18.1888  18.2023  18.2150  18.2286  18.2755  18.3319
    18.3975  18.4973  18.5605  18.6214  18.6229  18.6233  18.6732  18.6763
    18.7687  18.8466  18.8821  18.9575  18.9981  19.1256  19.1264  19.1605
    19.2249  19.3207  19.4410  19.4442  19.4764  19.4923  19.6698  19.7117
    19.7457  19.7596  19.8472  19.9919  20.0743  20.0854  20.1599  20.1903
    20.1970  20.2139  20.2228  20.3304  20.3464  20.3632  20.3911  20.4820
    20.4872  20.5612  20.5882  20.6029  20.6071  20.6385  20.6923  20.7635
    20.7866  20.7931  20.8591  20.8635  20.8735  20.9411  20.9843  20.9856
    20.9887  21.0682  21.0706  21.0920  21.1670  21.2331  21.2879  21.4028
    21.4548  21.4636  21.4894  21.5329  21.5487  21.5709  21.6059  21.6060
    21.7129  21.7299  21.7522  21.8033  21.9369  21.9582  21.9828  22.0318
    22.1365  22.1409  22.3104  22.3352  22.4517  22.4896  22.5580  22.6637
    22.7945  22.8265  22.8348  22.8823  22.9574  23.0437  23.1101  23.1220
    23.1993  23.2256  23.2812  23.3800  23.3925  23.4093  23.4798  23.5409
    23.5906  23.6002  23.7455  23.7510  23.7535  23.7951  23.9726  24.0167
    24.0414  24.0509  24.0915  24.0982  24.1069  24.1177  24.1231  24.1699
    24.2343  24.3850  24.4591  24.4634  24.4635  24.4931  24.4959  24.4966
    24.5203  24.5887  24.7753  24.7837  24.7870  24.8081  24.8541  24.9078
    25.2185  25.3386  25.3593  25.3923  25.4172  25.7397  26.6145  26.6184
    27.3867  27.5651  27.8588

          k = 0.0556 0.2766-0.5000 ( 30316 PWs)   bands (ev):

   -49.9835 -49.9833 -49.9391 -49.9389 -49.9034 -49.9032 -49.8880 -49.8878
   -49.8823 -49.8821 -49.8714 -49.8712 -49.8614 -49.8611 -49.8459 -49.8456
   -49.8430 -49.8427 -49.8364 -49.8361 -49.8284 -49.8282 -49.8269 -49.8267
   -49.8252 -49.8250 -49.8167 -49.8165 -49.8151 -49.8149 -49.8077 -49.8074
   -20.3265 -20.3264 -20.3214 -20.3213 -20.2651 -20.2650 -20.2604 -20.2602
   -20.2570 -20.2569 -20.2366 -20.2365 -20.2308 -20.2306 -20.2235 -20.2235
   -20.2205 -20.2205 -20.1955 -20.1953 -20.1452 -20.1451 -20.1413 -20.1412
   -20.1081 -20.1080 -20.0641 -20.0641 -20.0598 -20.0598 -19.9360 -19.9360
   -19.9337 -19.9337 -19.9151 -19.9150 -19.9031 -19.9029 -19.8784 -19.8783
   -19.8590 -19.8588 -19.7733 -19.7731 -19.7680 -19.7678 -19.7631 -19.7629
   -19.7577 -19.7577 -19.7555 -19.7554 -19.7416 -19.7415 -19.7319 -19.7317
   -19.7041 -19.7040 -19.6974 -19.6974 -19.6787 -19.6786 -19.6762 -19.6761
   -19.6611 -19.6609 -19.6543 -19.6542 -19.6506 -19.6504 -19.6383 -19.6382
   -19.6264 -19.6262 -19.6126 -19.6124 -19.6103 -19.6101 -19.6089 -19.6087
   -19.5988 -19.5986 -19.5879 -19.5878 -19.5762 -19.5760 -19.5548 -19.5547
   -19.5526 -19.5523 -19.5045 -19.5043 -19.4926 -19.4926 -19.4647 -19.4646
    16.2782  16.2783  17.3996  17.3996  17.4632  17.4632  17.4722  17.4723
    17.5299  17.5299  17.5619  17.5619  17.6417  17.6417  17.8203  17.8204
    17.8305  17.8305  17.9264  17.9265  17.9455  17.9455  17.9800  17.9800
    17.9884  17.9885  18.1035  18.1035  18.1174  18.1174  18.2275  18.2275
    18.4157  18.4158  18.5273  18.5274  18.6384  18.6384  18.7602  18.7602
    18.7630  18.7630  18.9126  18.9126  19.0112  19.0113  19.0290  19.0291
    19.4030  19.4030  19.4767  19.4767  19.5704  19.5705  19.5824  19.5825
    19.6113  19.6114  19.8919  19.8919  20.1458  20.1459  20.2328  20.2328
    20.2541  20.2541  20.3562  20.3562  20.3682  20.3683  20.4036  20.4036
    20.4890  20.4890  20.6236  20.6236  20.7525  20.7525  20.8201  20.8201
    20.8418  20.8418  20.9062  20.9063  20.9501  20.9502  20.9726  20.9727
    21.1593  21.1593  21.1624  21.1625  21.1857  21.1857  21.2020  21.2021
    21.3649  21.3649  21.3763  21.3763  21.4824  21.4825  21.4910  21.4911
    21.6984  21.6985  21.9050  21.9051  22.0690  22.0692  22.1070  22.1071
    22.1366  22.1366  22.1776  22.1777  22.2822  22.2824  22.4675  22.4676
    22.6590  22.6591  22.9752  22.9753  23.0160  23.0161  23.0719  23.0720
    23.2206  23.2208  23.4702  23.4703  23.5110  23.5112  23.6246  23.6248
    23.7161  23.7163  23.7961  23.7962  23.8770  23.8770  23.8782  23.8783
    24.1333  24.1333  24.1340  24.1342  24.2342  24.2343  24.2946  24.2947
    24.2949  24.2950  24.3245  24.3245  24.3334  24.3335  24.3348  24.3349
    24.4438  24.4438  24.7959  24.7961  24.8085  24.8086  24.8743  24.8743
    25.0114  25.0115  25.5500  25.5501  25.9523  25.9524  26.0200  26.0201
    27.7411  27.7411  28.0708

          k = 0.0556 0.3872 0.0556 ( 30282 PWs)   bands (ev):

   -50.0040 -49.9778 -49.9139 -49.9139 -49.8994 -49.8994 -49.8966 -49.8966
   -49.8843 -49.8843 -49.8687 -49.8662 -49.8602 -49.8602 -49.8598 -49.8598
   -49.8553 -49.8546 -49.8532 -49.8319 -49.8319 -49.8281 -49.8276 -49.8276
   -49.8175 -49.8175 -49.8156 -49.8156 -49.8060 -49.8060 -49.8057 -49.8056
   -20.3671 -20.3568 -20.3568 -20.3418 -20.3117 -20.3117 -20.2864 -20.2826
   -20.2724 -20.2724 -20.2527 -20.2449 -20.2449 -20.1760 -20.1657 -20.1657
   -20.1526 -20.1526 -20.1465 -20.1465 -20.1213 -20.1213 -20.0812 -20.0812
   -20.0533 -20.0533 -20.0348 -20.0348 -20.0219 -20.0219 -20.0112 -20.0112
   -20.0000 -20.0000 -19.9592 -19.9592 -19.9558 -19.9558 -19.9251 -19.9251
   -19.8546 -19.8546 -19.7947 -19.7946 -19.7909 -19.7909 -19.7587 -19.7549
   -19.7542 -19.7340 -19.7340 -19.7294 -19.7294 -19.7266 -19.7266 -19.7262
   -19.7262 -19.7149 -19.7122 -19.6979 -19.6979 -19.6964 -19.6758 -19.6758
   -19.6596 -19.6596 -19.6590 -19.6589 -19.6576 -19.6509 -19.6420 -19.6420
   -19.6396 -19.6396 -19.6187 -19.5935 -19.5935 -19.5772 -19.5730 -19.5698
   -19.5698 -19.5671 -19.5671 -19.5667 -19.5667 -19.5593 -19.5593 -19.5552
   -19.5517 -19.5390 -19.5390 -19.5316 -19.5095 -19.5077 -19.4657 -19.4631
    15.7441  16.4196  17.1013  17.1755  17.1756  17.3768  17.4405  17.4437
    17.4437  17.4923  17.5076  17.6371  17.6371  17.6478  17.6478  17.8296
    17.8394  17.8468  17.8468  17.9308  17.9308  17.9986  18.0403  18.0403
    18.1860  18.1860  18.2654  18.2655  18.4828  18.4828  18.4831  18.4831
    18.5554  18.5554  18.7324  18.7324  18.7659  18.7659  18.9771  18.9771
    18.9968  18.9968  19.0865  19.0865  19.2342  19.2342  19.2699  19.2699
    19.3058  19.3058  19.3747  19.3747  19.3892  19.3892  19.6132  19.6373
    19.6373  19.6821  19.6821  19.7899  19.9163  19.9163  19.9215  19.9215
    19.9285  19.9285  20.0293  20.0811  20.0849  20.1218  20.1218  20.1630
    20.1630  20.2531  20.3591  20.3592  20.6473  20.7069  20.7069  20.7112
    20.7112  20.7309  20.7309  20.7455  20.7967  20.8007  21.0177  21.0177
    21.0229  21.0770  21.1600  21.1686  21.1904  21.1904  21.1962  21.2091
    21.6574  21.6574  21.9580  21.9661  21.9661  22.0358  22.0358  22.1808
    22.1808  22.1866  22.2354  22.2392  22.2392  22.2870  22.2871  22.3196
    22.3197  22.3705  22.3706  22.3786  22.3786  22.4183  22.5013  22.5014
    22.5320  22.5320  22.5606  22.5606  22.6463  22.6463  22.8641  22.8641
    23.0087  23.0087  23.0209  23.0970  23.2216  23.3182  23.3182  23.4570
    23.6480  23.6480  23.6576  23.7525  23.7551  23.7551  23.7928  23.7929
    24.0132  24.0152  24.0152  24.0723  24.1657  24.1727  24.1727  24.2314
    24.2314  24.2660  24.2877  24.3033  24.4648  24.4648  24.4670  24.4670
    24.5243  24.5243  24.6093  25.0554  25.0554  25.1559  25.1559  25.1573
    25.1573  25.2393  25.5233  25.5233  25.6642  26.1673  26.1673  26.2323
    26.5999  26.7708  26.7708

          k = 0.0556 0.3872 0.1667 ( 30267 PWs)   bands (ev):

   -50.0010 -49.9752 -49.9310 -49.9142 -49.9124 -49.8983 -49.8954 -49.8835
   -49.8795 -49.8772 -49.8724 -49.8695 -49.8670 -49.8645 -49.8538 -49.8538
   -49.8516 -49.8509 -49.8464 -49.8361 -49.8326 -49.8287 -49.8277 -49.8234
   -49.8194 -49.8187 -49.8170 -49.8137 -49.8090 -49.8084 -49.8065 -49.8062
   -20.3673 -20.3612 -20.3367 -20.3170 -20.3036 -20.3029 -20.2919 -20.2829
   -20.2783 -20.2503 -20.2419 -20.2373 -20.2248 -20.1939 -20.1892 -20.1772
   -20.1754 -20.1736 -20.1700 -20.1605 -20.1374 -20.1241 -20.1222 -20.1036
   -20.0811 -20.0646 -20.0589 -20.0407 -20.0396 -20.0093 -19.9861 -19.9838
   -19.9799 -19.9654 -19.9578 -19.9450 -19.9242 -19.9184 -19.9112 -19.8944
   -19.8753 -19.8485 -19.7854 -19.7841 -19.7836 -19.7774 -19.7768 -19.7695
   -19.7680 -19.7583 -19.7533 -19.7333 -19.7253 -19.7229 -19.7222 -19.7202
   -19.7156 -19.7092 -19.7089 -19.6999 -19.6795 -19.6794 -19.6756 -19.6687
   -19.6655 -19.6645 -19.6632 -19.6624 -19.6620 -19.6568 -19.6561 -19.6288
   -19.6284 -19.6243 -19.6086 -19.6041 -19.6012 -19.5976 -19.5935 -19.5882
   -19.5852 -19.5832 -19.5718 -19.5681 -19.5639 -19.5635 -19.5580 -19.5511
   -19.5434 -19.5413 -19.5275 -19.5154 -19.5130 -19.4976 -19.4710 -19.4552
    15.8223  16.4877  17.1666  17.2093  17.2280  17.3543  17.4383  17.5080
    17.5404  17.5534  17.5659  17.5835  17.6533  17.6822  17.6929  17.7256
    17.7724  17.8157  17.8827  17.8828  17.9746  17.9898  18.0467  18.0813
    18.0881  18.1007  18.2141  18.2602  18.2694  18.2697  18.4495  18.4645
    18.5318  18.5447  18.5623  18.6010  18.6974  18.9008  18.9049  18.9201
    18.9356  19.0364  19.0476  19.0910  19.1127  19.1468  19.1652  19.1713
    19.2138  19.2312  19.3620  19.3664  19.3756  19.4829  19.6256  19.6277
    19.6363  19.7082  19.8964  19.9180  19.9530  19.9915  20.0109  20.0140
    20.0544  20.0793  20.0962  20.1708  20.1804  20.1861  20.2095  20.2548
    20.3339  20.3684  20.3898  20.5892  20.6519  20.6793  20.7035  20.7301
    20.7930  20.8113  20.8201  20.8218  20.8436  20.8455  20.8462  20.8686
    20.9542  21.0642  21.0978  21.1388  21.2026  21.2147  21.3032  21.3317
    21.5264  21.6135  21.6496  21.7201  21.7344  21.7844  21.8931  21.9692
    21.9889  22.0197  22.0351  22.0642  22.0697  22.0725  22.1457  22.2118
    22.2733  22.3362  22.4327  22.4343  22.4795  22.5385  22.5648  22.5854
    22.5921  22.7008  22.7417  22.7559  22.8468  22.8760  22.8932  22.9948
    23.0115  23.0523  23.2202  23.2289  23.2764  23.2782  23.3512  23.3738
    23.5408  23.5929  23.6504  23.7407  23.8609  23.8631  23.8874  23.8913
    23.9136  23.9290  23.9384  24.0315  24.0418  24.1280  24.1282  24.2298
    24.2986  24.4017  24.4050  24.4665  24.4665  24.4683  24.4748  24.4777
    24.6249  24.6266  24.6914  24.9333  25.0019  25.0276  25.0352  25.0354
    25.0401  25.2159  25.4728  25.7253  25.7602  25.8671  26.0403  26.2649
    26.7490  27.0707  27.3618

          k = 0.0556 0.3872 0.2778 ( 30311 PWs)   bands (ev):

   -49.9951 -49.9701 -49.9472 -49.9283 -49.9094 -49.8961 -49.8930 -49.8853
   -49.8819 -49.8784 -49.8735 -49.8688 -49.8632 -49.8553 -49.8523 -49.8479
   -49.8466 -49.8436 -49.8402 -49.8400 -49.8342 -49.8308 -49.8270 -49.8213
   -49.8210 -49.8200 -49.8195 -49.8149 -49.8135 -49.8119 -49.8079 -49.8068
   -20.3574 -20.3550 -20.3079 -20.2888 -20.2878 -20.2854 -20.2841 -20.2833
   -20.2700 -20.2353 -20.2342 -20.2336 -20.2226 -20.2212 -20.2014 -20.1993
   -20.1990 -20.1896 -20.1812 -20.1796 -20.1608 -20.1573 -20.1407 -20.1355
   -20.1288 -20.0991 -20.0703 -20.0682 -20.0382 -20.0153 -19.9746 -19.9614
   -19.9514 -19.9297 -19.9205 -19.9054 -19.9043 -19.9020 -19.8782 -19.8682
   -19.8365 -19.8292 -19.8142 -19.8034 -19.7927 -19.7851 -19.7706 -19.7675
   -19.7608 -19.7532 -19.7515 -19.7411 -19.7390 -19.7375 -19.7263 -19.7160
   -19.7080 -19.7076 -19.7067 -19.7029 -19.6986 -19.6860 -19.6756 -19.6739
   -19.6680 -19.6635 -19.6513 -19.6506 -19.6506 -19.6433 -19.6427 -19.6403
   -19.6284 -19.6148 -19.6133 -19.6114 -19.6071 -19.6055 -19.6011 -19.6008
   -19.5985 -19.5864 -19.5777 -19.5768 -19.5757 -19.5719 -19.5681 -19.5555
   -19.5459 -19.5427 -19.5278 -19.4997 -19.4932 -19.4850 -19.4826 -19.4498
    15.9761  16.6214  17.1821  17.2821  17.2943  17.3297  17.3770  17.4760
    17.6399  17.6586  17.6819  17.6938  17.7033  17.7166  17.7292  17.7505
    17.7720  17.8014  17.8528  17.8723  17.8965  17.9277  17.9886  17.9922
    18.0132  18.0414  18.1861  18.2014  18.2285  18.2295  18.2700  18.3371
    18.3976  18.4941  18.5590  18.6172  18.6267  18.6318  18.6774  18.6782
    18.7697  18.8504  18.8843  18.9589  18.9983  19.1215  19.1275  19.1627
    19.2291  19.3226  19.4382  19.4602  19.4781  19.4981  19.6437  19.7112
    19.7361  19.7632  19.8521  19.9841  20.0562  20.0728  20.1602  20.1852
    20.2059  20.2225  20.2435  20.3026  20.3574  20.3718  20.3853  20.4791
    20.4937  20.5500  20.5904  20.6012  20.6151  20.6486  20.7135  20.7763
    20.8063  20.8064  20.8471  20.8599  20.8817  20.9637  20.9738  20.9831
    20.9994  21.0622  21.1039  21.1143  21.2003  21.2643  21.3005  21.3737
    21.4370  21.4771  21.5095  21.5213  21.5392  21.5596  21.5824  21.6086
    21.7144  21.7319  21.7529  21.7947  21.9225  21.9496  21.9690  22.0103
    22.1187  22.1324  22.3069  22.3297  22.4311  22.4885  22.5715  22.6559
    22.7988  22.8191  22.8335  22.8690  22.9771  23.0390  23.1041  23.1113
    23.1907  23.2502  23.2758  23.3797  23.3922  23.4085  23.4793  23.5472
    23.5889  23.5898  23.7457  23.7458  23.7483  23.7918  23.9678  24.0179
    24.0377  24.0506  24.0864  24.0934  24.1108  24.1188  24.1194  24.1575
    24.2331  24.3787  24.4476  24.4611  24.4626  24.4763  24.4911  24.4989
    24.5010  24.5779  24.7914  24.8086  24.8099  24.8267  24.8686  24.8969
    25.2348  25.3310  25.3742  25.3746  25.4197  25.7610  26.5877  26.6189
    27.3987  27.5725  27.8494

          k = 0.0556 0.3872 0.3889 ( 30316 PWs)   bands (ev):

   -49.9865 -49.9626 -49.9622 -49.9414 -49.9051 -49.8929 -49.8928 -49.8894
   -49.8839 -49.8796 -49.8795 -49.8729 -49.8501 -49.8481 -49.8440 -49.8427
   -49.8426 -49.8423 -49.8364 -49.8362 -49.8340 -49.8339 -49.8260 -49.8244
   -49.8242 -49.8236 -49.8231 -49.8211 -49.8159 -49.8103 -49.8100 -49.8077
   -20.3382 -20.3378 -20.2772 -20.2763 -20.2758 -20.2738 -20.2714 -20.2647
   -20.2595 -20.2576 -20.2422 -20.2325 -20.2319 -20.2243 -20.2219 -20.2012
   -20.1998 -20.1865 -20.1859 -20.1847 -20.1839 -20.1838 -20.1821 -20.1487
   -20.1468 -20.1457 -20.1080 -20.0627 -20.0584 -20.0067 -20.0050 -19.9366
   -19.9150 -19.9145 -19.8866 -19.8786 -19.8740 -19.8461 -19.8442 -19.8349
   -19.8299 -19.8289 -19.8282 -19.8191 -19.8098 -19.7706 -19.7652 -19.7648
   -19.7625 -19.7509 -19.7489 -19.7472 -19.7422 -19.7418 -19.7409 -19.7401
   -19.7300 -19.7285 -19.6963 -19.6947 -19.6893 -19.6882 -19.6879 -19.6767
   -19.6763 -19.6538 -19.6532 -19.6481 -19.6429 -19.6421 -19.6402 -19.6393
   -19.6239 -19.6207 -19.6194 -19.6178 -19.6166 -19.6131 -19.6029 -19.5971
   -19.5928 -19.5872 -19.5816 -19.5814 -19.5791 -19.5754 -19.5670 -19.5527
   -19.5497 -19.5475 -19.5460 -19.4996 -19.4802 -19.4770 -19.4766 -19.4513
    16.2002  16.8153  16.8201  17.3474  17.3993  17.4447  17.4736  17.4781
    17.5564  17.7092  17.7092  17.7338  17.7673  17.7701  17.8301  17.8313
    17.8413  17.8416  17.8520  17.8544  17.8783  17.8893  17.8900  17.9559
    17.9670  18.0329  18.0750  18.1461  18.1484  18.3363  18.3384  18.3389
    18.3418  18.3458  18.3486  18.3531  18.3573  18.5832  18.5851  18.6037
    18.6044  18.6533  18.6588  18.9059  18.9103  19.0262  19.2387  19.2423
    19.2438  19.2474  19.4115  19.5640  19.5693  19.5889  19.6008  19.6541
    19.6721  19.9841  20.0020  20.0028  20.1732  20.2611  20.2624  20.3829
    20.3874  20.3934  20.3950  20.3980  20.4027  20.4242  20.4264  20.4380
    20.5239  20.5706  20.7124  20.7238  20.8074  20.8142  20.8151  20.8701
    20.8854  20.9012  20.9157  20.9279  20.9956  21.0069  21.0115  21.0217
    21.1430  21.1712  21.1814  21.1819  21.1937  21.1954  21.2171  21.2596
    21.3165  21.3398  21.3740  21.3806  21.3816  21.3882  21.4384  21.4455
    21.4493  21.4672  21.5905  21.6703  21.6839  21.7017  21.7140  21.9724
    22.1317  22.1321  22.1343  22.1371  22.2157  22.2287  22.3036  22.3665
    22.6881  23.0253  23.0600  23.0647  23.0827  23.0866  23.3509  23.3569
    23.3610  23.3632  23.4605  23.4641  23.5210  23.5211  23.5876  23.6280
    23.7714  23.7754  23.8794  23.9032  23.9085  23.9214  23.9250  23.9285
    23.9320  24.0145  24.1207  24.2237  24.2571  24.2749  24.2762  24.2762
    24.2798  24.3287  24.3905  24.4399  24.4400  24.4887  24.4987  24.5016
    24.5040  24.5348  24.5353  24.5433  24.5478  24.5595  24.7208  24.7457
    24.7565  25.0818  25.2373  25.2538  25.9862  25.9953  27.2579  27.2674
    27.3166  27.3444  28.0614

          k = 0.0556 0.3872-0.5000 ( 30314 PWs)   bands (ev):

   -49.9755 -49.9753 -49.9530 -49.9528 -49.8996 -49.8994 -49.8889 -49.8886
   -49.8850 -49.8848 -49.8766 -49.8764 -49.8474 -49.8472 -49.8394 -49.8392
   -49.8380 -49.8377 -49.8349 -49.8347 -49.8309 -49.8306 -49.8298 -49.8296
   -49.8289 -49.8287 -49.8248 -49.8245 -49.8128 -49.8125 -49.8090 -49.8088
   -20.3116 -20.3116 -20.3094 -20.3094 -20.2583 -20.2583 -20.2579 -20.2578
   -20.2416 -20.2414 -20.2351 -20.2349 -20.2296 -20.2295 -20.2256 -20.2254
   -20.2082 -20.2080 -20.1958 -20.1957 -20.1839 -20.1837 -20.1746 -20.1744
   -20.1479 -20.1478 -20.1042 -20.1041 -20.0376 -20.0376 -19.9706 -19.9706
   -19.8797 -19.8797 -19.8705 -19.8705 -19.8629 -19.8627 -19.8414 -19.8412
   -19.8184 -19.8184 -19.7970 -19.7968 -19.7926 -19.7924 -19.7893 -19.7893
   -19.7821 -19.7821 -19.7457 -19.7456 -19.7368 -19.7368 -19.7259 -19.7257
   -19.7114 -19.7112 -19.7063 -19.7063 -19.7043 -19.7042 -19.6855 -19.6854
   -19.6663 -19.6661 -19.6646 -19.6644 -19.6352 -19.6349 -19.6319 -19.6317
   -19.6308 -19.6306 -19.6227 -19.6226 -19.6012 -19.6010 -19.5961 -19.5960
   -19.5916 -19.5915 -19.5890 -19.5889 -19.5695 -19.5693 -19.5639 -19.5638
   -19.5616 -19.5613 -19.5216 -19.5214 -19.4747 -19.4747 -19.4606 -19.4605
    16.4860  16.4860  17.0611  17.0611  17.5564  17.5564  17.5627  17.5627
    17.6476  17.6476  17.6788  17.6788  17.7077  17.7077  17.7113  17.7113
    17.8493  17.8493  17.8794  17.8794  17.9853  17.9853  18.0686  18.0687
    18.0808  18.0808  18.1016  18.1016  18.1051  18.1051  18.1428  18.1428
    18.3187  18.3188  18.3532  18.3533  18.4637  18.4637  18.4981  18.4981
    18.5170  18.5170  18.8001  18.8001  19.0398  19.0398  19.0498  19.0499
    19.3889  19.3889  19.3953  19.3953  19.6401  19.6401  19.7247  19.7247
    19.8523  19.8523  19.9240  19.9240  20.1287  20.1288  20.3852  20.3853
    20.4261  20.4261  20.4816  20.4816  20.5600  20.5600  20.6112  20.6112
    20.7239  20.7239  20.7497  20.7497  20.7741  20.7741  20.9185  20.9185
    20.9435  20.9436  20.9625  20.9625  20.9753  20.9753  21.0009  21.0009
    21.0817  21.0817  21.0993  21.0993  21.1304  21.1304  21.1665  21.1665
    21.2633  21.2634  21.2726  21.2726  21.4215  21.4215  21.4430  21.4430
    21.4442  21.4443  21.5936  21.5937  21.8508  21.8508  21.8661  21.8662
    21.9088  21.9089  21.9279  21.9279  22.0660  22.0661  22.2449  22.2450
    22.8879  22.8881  23.1570  23.1571  23.2665  23.2666  23.3097  23.3098
    23.3388  23.3390  23.5804  23.5805  23.6494  23.6495  23.6652  23.6653
    23.7464  23.7465  23.8263  23.8265  23.9439  23.9440  24.0769  24.0771
    24.1513  24.1514  24.2405  24.2406  24.3049  24.3049  24.3072  24.3072
    24.3211  24.3211  24.3823  24.3824  24.3857  24.3858  24.4200  24.4201
    24.4221  24.4221  24.5069  24.5071  24.5583  24.5585  24.6134  24.6134
    24.7447  24.7447  25.0908  25.0909  26.6332  26.6332  26.6491  26.6492
    27.9816  27.9816  28.0310

          k = 0.0556-0.4978 0.0556 ( 30276 PWs)   bands (ev):

   -49.9922 -49.9920 -49.9074 -49.9074 -49.9072 -49.9072 -49.8911 -49.8911
   -49.8909 -49.8909 -49.8677 -49.8674 -49.8602 -49.8602 -49.8599 -49.8598
   -49.8543 -49.8540 -49.8403 -49.8401 -49.8242 -49.8242 -49.8239 -49.8239
   -49.8212 -49.8212 -49.8209 -49.8209 -49.8060 -49.8060 -49.8057 -49.8057
   -20.3301 -20.3301 -20.3175 -20.3175 -20.3173 -20.3173 -20.2998 -20.2997
   -20.2814 -20.2814 -20.2812 -20.2812 -20.2343 -20.2341 -20.1586 -20.1586
   -20.1585 -20.1585 -20.1386 -20.1386 -20.1385 -20.1385 -20.0518 -20.0518
   -20.0517 -20.0517 -20.0298 -20.0298 -20.0296 -20.0296 -19.9970 -19.9970
   -19.9969 -19.9969 -19.9858 -19.9858 -19.9856 -19.9856 -19.8871 -19.8871
   -19.8869 -19.8869 -19.7930 -19.7929 -19.7927 -19.7926 -19.7388 -19.7386
   -19.7355 -19.7353 -19.7032 -19.7031 -19.7025 -19.7025 -19.7023 -19.7023
   -19.6943 -19.6942 -19.6942 -19.6942 -19.6924 -19.6924 -19.6924 -19.6924
   -19.6802 -19.6801 -19.6799 -19.6799 -19.6677 -19.6677 -19.6675 -19.6675
   -19.6545 -19.6544 -19.5865 -19.5863 -19.5800 -19.5800 -19.5799 -19.5799
   -19.5754 -19.5752 -19.5671 -19.5671 -19.5668 -19.5668 -19.5534 -19.5532
   -19.5468 -19.5468 -19.5467 -19.5467 -19.4858 -19.4856 -19.4835 -19.4833
    16.0562  16.0565  17.2661  17.2663  17.3936  17.3936  17.3939  17.3939
    17.5827  17.5827  17.6524  17.6526  17.6629  17.6629  17.6631  17.6631
    17.7234  17.7235  17.8888  17.8888  17.8890  17.8890  18.0487  18.0487
    18.0490  18.0490  18.2548  18.2548  18.2551  18.2551  18.6164  18.6164
    18.6165  18.6165  18.7583  18.7583  18.7585  18.7585  18.9121  18.9121
    18.9123  18.9123  19.1091  19.1091  19.1092  19.1092  19.3130  19.3130
    19.3130  19.3130  19.3374  19.3374  19.3375  19.3375  19.6406  19.6406
    19.6406  19.6406  19.8623  19.8625  19.9057  19.9058  19.9302  19.9302
    19.9303  19.9303  20.0186  20.0187  20.0187  20.0188  20.1731  20.1732
    20.4112  20.4113  20.4113  20.4113  20.5188  20.5189  20.5189  20.5189
    20.8161  20.8161  20.8861  20.8861  20.8863  20.8863  20.9365  20.9366
    20.9791  20.9792  20.9834  20.9836  21.6362  21.6363  21.6365  21.6365
    21.6412  21.6413  21.6725  21.6726  22.0176  22.0176  22.0177  22.0177
    22.1908  22.1909  22.3197  22.3197  22.3198  22.3198  22.3355  22.3355
    22.3356  22.3356  22.4200  22.4200  22.4201  22.4201  22.4273  22.4274
    22.4274  22.4275  22.4968  22.4968  22.4969  22.4969  22.7472  22.7472
    22.7474  22.7474  23.1117  23.1118  23.6760  23.6762  23.6790  23.6791
    23.6792  23.6792  23.7793  23.7794  23.9568  23.9568  23.9569  23.9570
    24.0204  24.0205  24.0387  24.0388  24.1174  24.1174  24.1175  24.1175
    24.1324  24.1324  24.1325  24.1325  24.4235  24.4236  24.5887  24.5887
    24.5887  24.5887  24.5961  24.5963  25.0079  25.0079  25.0080  25.0080
    25.1564  25.1566  25.1566  25.1567  25.9807  25.9808  26.5076  26.5077
    26.5078  26.5079  26.9977

          k = 0.0556-0.4978 0.1667 ( 30286 PWs)   bands (ev):

   -49.9894 -49.9891 -49.9234 -49.9232 -49.9061 -49.9058 -49.8901 -49.8898
   -49.8751 -49.8750 -49.8749 -49.8748 -49.8659 -49.8657 -49.8527 -49.8525
   -49.8485 -49.8483 -49.8398 -49.8395 -49.8272 -49.8269 -49.8252 -49.8249
   -49.8225 -49.8222 -49.8183 -49.8180 -49.8088 -49.8085 -49.8064 -49.8062
   -20.3334 -20.3333 -20.3253 -20.3252 -20.2959 -20.2958 -20.2752 -20.2750
   -20.2736 -20.2734 -20.2730 -20.2729 -20.2326 -20.2324 -20.1852 -20.1851
   -20.1772 -20.1770 -20.1769 -20.1768 -20.1240 -20.1240 -20.1021 -20.1020
   -20.0719 -20.0718 -20.0640 -20.0639 -20.0195 -20.0194 -19.9858 -19.9857
   -19.9563 -19.9562 -19.9406 -19.9404 -19.9389 -19.9388 -19.9081 -19.9080
   -19.8806 -19.8804 -19.7848 -19.7846 -19.7765 -19.7764 -19.7475 -19.7473
   -19.7368 -19.7366 -19.7333 -19.7331 -19.7289 -19.7288 -19.7092 -19.7091
   -19.6985 -19.6983 -19.6936 -19.6936 -19.6897 -19.6896 -19.6882 -19.6881
   -19.6873 -19.6871 -19.6593 -19.6592 -19.6518 -19.6516 -19.6333 -19.6331
   -19.6318 -19.6317 -19.6154 -19.6153 -19.6127 -19.6125 -19.5898 -19.5896
   -19.5860 -19.5858 -19.5830 -19.5828 -19.5659 -19.5657 -19.5501 -19.5500
   -19.5470 -19.5468 -19.5174 -19.5173 -19.4914 -19.4912 -19.4740 -19.4739
    16.1295  16.1298  17.3324  17.3326  17.4156  17.4158  17.4474  17.4476
[...]
   -19.6522 -19.6522 -19.6521 -19.6521 -19.6521 -19.6520 -19.6519 -19.6519
   -19.6175 -19.6174 -19.6174 -19.6173 -19.5987 -19.5987 -19.5986 -19.5986
   -19.5771 -19.5770 -19.5770 -19.5769 -19.5767 -19.5767 -19.5766 -19.5766
   -19.5433 -19.5431 -19.5431 -19.5429 -19.4619 -19.4619 -19.4619 -19.4619
    16.7550  16.7550  16.7554  16.7554  17.6157  17.6158  17.6158  17.6159
    17.7019  17.7019  17.7020  17.7020  17.7466  17.7467  17.7467  17.7467
    17.8860  17.8860  17.8860  17.8860  17.8863  17.8863  17.8863  17.8863
    18.1963  18.1963  18.1964  18.1964  18.1966  18.1966  18.1967  18.1967
    18.2961  18.2961  18.2961  18.2961  18.2961  18.2961  18.2961  18.2962
    18.5705  18.5705  18.5706  18.5706  19.2029  19.2030  19.2030  19.2030
    19.2032  19.2032  19.2033  19.2033  19.7721  19.7721  19.7721  19.7721
    19.9891  19.9892  19.9893  19.9894  20.2664  20.2665  20.2666  20.2667
    20.4753  20.4754  20.4754  20.4754  20.4889  20.4889  20.4889  20.4890
    20.8542  20.8542  20.8542  20.8542  20.8542  20.8542  20.8542  20.8543
    20.9409  20.9410  20.9411  20.9411  21.1267  21.1267  21.1267  21.1268
    21.1323  21.1323  21.1324  21.1324  21.2742  21.2742  21.2742  21.2743
    21.2743  21.2743  21.2743  21.2744  21.2806  21.2807  21.2807  21.2808
    21.5093  21.5093  21.5095  21.5095  21.6547  21.6547  21.6547  21.6547
    21.6548  21.6548  21.6548  21.6548  22.1824  22.1826  22.1826  22.1828
    23.1301  23.1302  23.1302  23.1304  23.3117  23.3118  23.3119  23.3119
    23.5351  23.5351  23.5352  23.5353  23.5353  23.5353  23.5354  23.5354
    24.0478  24.0478  24.0479  24.0479  24.1660  24.1660  24.1661  24.1661
    24.1662  24.1662  24.1663  24.1663  24.1727  24.1728  24.1728  24.1729
    24.4034  24.4035  24.4035  24.4036  24.4462  24.4462  24.4463  24.4463
    24.4463  24.4463  24.4463  24.4463  24.4524  24.4524  24.4525  24.4525
    24.6998  24.6999  24.7000  24.7000  27.3635  27.3636  27.3636  27.3636
    27.3637  27.3637  27.3637

          k =-0.5000 0.1659-0.5000 ( 30312 PWs)   bands (ev):

   -49.9627 -49.9625 -49.9625 -49.9623 -49.9086 -49.9084 -49.9083 -49.9082
   -49.8690 -49.8688 -49.8687 -49.8686 -49.8335 -49.8334 -49.8333 -49.8333
   -49.8332 -49.8332 -49.8331 -49.8330 -49.8330 -49.8329 -49.8328 -49.8328
   -49.8327 -49.8327 -49.8326 -49.8325 -49.8148 -49.8147 -49.8146 -49.8145
   -20.2854 -20.2854 -20.2854 -20.2854 -20.2853 -20.2853 -20.2853 -20.2853
   -20.2239 -20.2239 -20.2238 -20.2238 -20.2238 -20.2238 -20.2237 -20.2236
   -20.2176 -20.2175 -20.2175 -20.2173 -20.2169 -20.2167 -20.2167 -20.2166
   -20.1024 -20.1024 -20.1023 -20.1023 -19.9788 -19.9788 -19.9788 -19.9788
   -19.8287 -19.8287 -19.8287 -19.8287 -19.8287 -19.8287 -19.8287 -19.8287
   -19.8225 -19.8224 -19.8223 -19.8223 -19.8223 -19.8223 -19.8221 -19.8221
   -19.7889 -19.7889 -19.7889 -19.7889 -19.7172 -19.7171 -19.7170 -19.7170
   -19.7170 -19.7170 -19.7169 -19.7169 -19.7088 -19.7088 -19.7088 -19.7088
   -19.6646 -19.6645 -19.6645 -19.6645 -19.6556 -19.6556 -19.6555 -19.6555
   -19.6554 -19.6554 -19.6553 -19.6553 -19.6202 -19.6202 -19.6202 -19.6202
   -19.5551 -19.5551 -19.5551 -19.5551 -19.5446 -19.5445 -19.5444 -19.5443
   -19.5321 -19.5320 -19.5319 -19.5318 -19.4657 -19.4657 -19.4657 -19.4657
    16.7851  16.7852  16.7855  16.7856  17.4685  17.4685  17.4687  17.4687
    17.7334  17.7334  17.7335  17.7335  17.8483  17.8484  17.8484  17.8484
    17.8512  17.8512  17.8512  17.8513  17.8514  17.8515  17.8515  17.8515
    18.2171  18.2171  18.2172  18.2172  18.2172  18.2172  18.2172  18.2173
    18.3154  18.3154  18.3155  18.3155  18.3156  18.3157  18.3157  18.3157
    18.6016  18.6017  18.6017  18.6017  19.2343  19.2343  19.2343  19.2343
    19.2345  19.2346  19.2346  19.2346  19.6893  19.6894  19.6896  19.6896
    19.8316  19.8316  19.8317  19.8317  20.4096  20.4096  20.4097  20.4097
    20.5471  20.5471  20.5471  20.5472  20.5697  20.5698  20.5699  20.5699
    20.8041  20.8041  20.8041  20.8042  20.8042  20.8042  20.8042  20.8042
    20.9307  20.9308  20.9308  20.9309  21.0117  21.0117  21.0118  21.0118
    21.0799  21.0799  21.0799  21.0799  21.2537  21.2537  21.2538  21.2538
    21.2538  21.2539  21.2539  21.2539  21.4402  21.4403  21.4404  21.4404
    21.4712  21.4712  21.4713  21.4713  21.7328  21.7328  21.7328  21.7328
    21.7329  21.7329  21.7329  21.7329  22.2996  22.2997  22.2997  22.2999
    22.9885  22.9886  22.9886  22.9887  23.1793  23.1793  23.1794  23.1794
    23.1795  23.1795  23.1795  23.1795  23.2672  23.2673  23.2673  23.2674
    23.5304  23.5304  23.5305  23.5305  23.9084  23.9085  23.9085  23.9086
    24.4465  24.4465  24.4466  24.4466  24.4467  24.4467  24.4467  24.4467
    24.5134  24.5134  24.5134  24.5134  24.5135  24.5135  24.5135  24.5135
    24.5372  24.5372  24.5373  24.5373  24.5896  24.5896  24.5896  24.5897
    25.4570  25.4570  25.4571  25.4572  27.4456  27.4456  27.4457  27.4458
    27.4458  27.4458  27.4458

          k =-0.5000 0.2766-0.5000 ( 30276 PWs)   bands (ev):

   -49.9581 -49.9580 -49.9579 -49.9577 -49.9211 -49.9210 -49.9209 -49.9207
   -49.8564 -49.8563 -49.8562 -49.8560 -49.8334 -49.8334 -49.8333 -49.8332
   -49.8332 -49.8331 -49.8330 -49.8330 -49.8330 -49.8330 -49.8328 -49.8328
   -49.8327 -49.8327 -49.8326 -49.8326 -49.8194 -49.8192 -49.8192 -49.8190
   -20.2779 -20.2779 -20.2779 -20.2779 -20.2778 -20.2778 -20.2778 -20.2778
   -20.2381 -20.2380 -20.2380 -20.2379 -20.2336 -20.2334 -20.2334 -20.2333
   -20.2323 -20.2323 -20.2322 -20.2322 -20.2322 -20.2321 -20.2321 -20.2320
   -20.0511 -20.0511 -20.0510 -20.0510 -19.9365 -19.9365 -19.9365 -19.9364
   -19.8312 -19.8312 -19.8312 -19.8311 -19.8288 -19.8288 -19.8288 -19.8288
   -19.8288 -19.8288 -19.8287 -19.8287 -19.8247 -19.8247 -19.8246 -19.8246
   -19.8246 -19.8245 -19.8244 -19.8244 -19.7169 -19.7168 -19.7168 -19.7168
   -19.7072 -19.7072 -19.7071 -19.7071 -19.7070 -19.7070 -19.7069 -19.7069
   -19.7014 -19.7013 -19.7013 -19.7013 -19.6621 -19.6621 -19.6620 -19.6620
   -19.6619 -19.6619 -19.6619 -19.6618 -19.6407 -19.6407 -19.6407 -19.6407
   -19.5345 -19.5345 -19.5345 -19.5344 -19.5210 -19.5209 -19.5209 -19.5208
   -19.5176 -19.5174 -19.5174 -19.5173 -19.4733 -19.4733 -19.4733 -19.4733
    16.8445  16.8445  16.8449  16.8449  17.3173  17.3174  17.3176  17.3176
    17.7887  17.7887  17.7888  17.7888  17.8331  17.8331  17.8332  17.8333
    17.8333  17.8334  17.8334  17.8334  17.9105  17.9105  17.9105  17.9105
    18.1033  18.1033  18.1033  18.1034  18.1034  18.1034  18.1035  18.1035
    18.4965  18.4965  18.4966  18.4966  18.4966  18.4967  18.4968  18.4968
    18.6677  18.6678  18.6678  18.6678  19.2215  19.2215  19.2215  19.2215
    19.2217  19.2218  19.2218  19.2218  19.4006  19.4006  19.4008  19.4008
    19.9435  19.9435  19.9436  19.9436  20.4100  20.4100  20.4101  20.4101
    20.6499  20.6500  20.6500  20.6500  20.7242  20.7243  20.7243  20.7244
    20.7909  20.7910  20.7910  20.7910  20.7910  20.7910  20.7911  20.7911
    20.9116  20.9116  20.9117  20.9117  20.9369  20.9370  20.9370  20.9371
    21.0073  21.0073  21.0073  21.0073  21.2060  21.2061  21.2061  21.2061
    21.2062  21.2062  21.2062  21.2063  21.3132  21.3132  21.3133  21.3134
    21.6944  21.6944  21.6945  21.6945  21.8500  21.8500  21.8501  21.8501
    21.8501  21.8501  21.8502  21.8502  22.5000  22.5001  22.5001  22.5003
    22.7594  22.7595  22.7595  22.7596  22.7948  22.7949  22.7949  22.7949
    22.7950  22.7950  22.7950  22.7951  23.1827  23.1828  23.1828  23.1829
    23.1866  23.1867  23.1867  23.1868  23.6223  23.6224  23.6224  23.6225
    24.6239  24.6239  24.6239  24.6239  24.6240  24.6240  24.6240  24.6240
    24.6524  24.6524  24.6524  24.6524  24.6785  24.6785  24.6786  24.6786
    24.6787  24.6787  24.6787  24.6787  24.7216  24.7216  24.7216  24.7217
    26.2973  26.2973  26.2974  26.2974  27.6155  27.6156  27.6156  27.6157
    27.6157  27.6157  27.6158

          k =-0.5000 0.3872-0.5000 ( 30288 PWs)   bands (ev):

   -49.9515 -49.9513 -49.9512 -49.9511 -49.9327 -49.9325 -49.9324 -49.9323
   -49.8449 -49.8447 -49.8446 -49.8445 -49.8334 -49.8334 -49.8333 -49.8332
   -49.8331 -49.8331 -49.8330 -49.8330 -49.8330 -49.8330 -49.8329 -49.8328
   -49.8328 -49.8328 -49.8326 -49.8326 -49.8261 -49.8259 -49.8258 -49.8257
   -20.2676 -20.2676 -20.2675 -20.2675 -20.2675 -20.2675 -20.2674 -20.2674
   -20.2500 -20.2498 -20.2498 -20.2497 -20.2464 -20.2463 -20.2463 -20.2461
   -20.2434 -20.2434 -20.2433 -20.2433 -20.2433 -20.2432 -20.2432 -20.2431
   -19.9959 -19.9959 -19.9959 -19.9958 -19.8851 -19.8851 -19.8851 -19.8850
   -19.8829 -19.8829 -19.8829 -19.8828 -19.8287 -19.8287 -19.8287 -19.8287
   -19.8287 -19.8287 -19.8286 -19.8286 -19.8268 -19.8267 -19.8267 -19.8267
   -19.8267 -19.8266 -19.8266 -19.8266 -19.7725 -19.7724 -19.7724 -19.7723
   -19.6951 -19.6951 -19.6951 -19.6951 -19.6949 -19.6949 -19.6949 -19.6949
   -19.6904 -19.6904 -19.6904 -19.6904 -19.6714 -19.6714 -19.6713 -19.6713
   -19.6712 -19.6712 -19.6711 -19.6711 -19.6597 -19.6597 -19.6597 -19.6597
   -19.5154 -19.5154 -19.5154 -19.5154 -19.5068 -19.5067 -19.5067 -19.5066
   -19.5064 -19.5063 -19.5062 -19.5061 -19.4844 -19.4844 -19.4844 -19.4844
    16.9310  16.9311  16.9314  16.9314  17.1725  17.1725  17.1728  17.1728
    17.8501  17.8502  17.8503  17.8503  17.8503  17.8503  17.8504  17.8504
    17.8527  17.8527  17.8527  17.8527  17.9285  17.9285  17.9285  17.9285
    17.9922  17.9923  17.9923  17.9924  17.9924  17.9924  17.9925  17.9925
    18.7086  18.7086  18.7087  18.7088  18.7088  18.7088  18.7089  18.7089
    18.7758  18.7758  18.7758  18.7758  19.1124  19.1125  19.1125  19.1125
    19.1127  19.1127  19.1127  19.1127  19.1439  19.1439  19.1441  19.1441
    20.0906  20.0906  20.0907  20.0907  20.3558  20.3559  20.3559  20.3559
    20.7939  20.7940  20.7941  20.7941  20.8127  20.8127  20.8127  20.8127
    20.8663  20.8664  20.8664  20.8664  20.8665  20.8665  20.8665  20.8665
    20.8860  20.8861  20.8861  20.8862  20.9023  20.9024  20.9024  20.9024
    20.9438  20.9438  20.9438  20.9439  21.1207  21.1207  21.1207  21.1208
    21.1208  21.1209  21.1209  21.1209  21.1474  21.1474  21.1476  21.1476
    21.9446  21.9447  21.9447  21.9448  21.9951  21.9952  21.9952  21.9952
    21.9952  21.9953  21.9953  21.9953  22.4546  22.4546  22.4547  22.4547
    22.4547  22.4548  22.4548  22.4548  22.4916  22.4917  22.4917  22.4918
    22.7511  22.7512  22.7512  22.7514  23.0222  23.0223  23.0223  23.0223
    23.0898  23.0899  23.0899  23.0900  23.3261  23.3262  23.3262  23.3263
    24.7380  24.7381  24.7381  24.7381  24.7381  24.7381  24.7381  24.7381
    24.7493  24.7494  24.7494  24.7494  24.7926  24.7927  24.7927  24.7928
    24.8002  24.8002  24.8003  24.8003  24.8003  24.8003  24.8004  24.8004
    27.2023  27.2023  27.2025  27.2025  27.8701  27.8701  27.8701  27.8702
    27.8702  27.8702  27.8703

          k =-0.5000-0.4978-0.5000 ( 30376 PWs)   bands (ev):

   -49.9430 -49.9429 -49.9428 -49.9428 -49.9426 -49.9426 -49.9426 -49.9424
   -49.8348 -49.8347 -49.8346 -49.8345 -49.8344 -49.8344 -49.8343 -49.8342
   -49.8334 -49.8333 -49.8332 -49.8332 -49.8331 -49.8331 -49.8330 -49.8330
   -49.8330 -49.8329 -49.8329 -49.8328 -49.8328 -49.8328 -49.8326 -49.8326
   -20.2557 -20.2557 -20.2557 -20.2557 -20.2557 -20.2556 -20.2556 -20.2556
   -20.2555 -20.2555 -20.2555 -20.2555 -20.2554 -20.2554 -20.2554 -20.2554
   -20.2525 -20.2524 -20.2524 -20.2524 -20.2523 -20.2523 -20.2522 -20.2522
   -19.9390 -19.9390 -19.9390 -19.9390 -19.9389 -19.9389 -19.9389 -19.9388
   -19.8295 -19.8294 -19.8294 -19.8294 -19.8293 -19.8293 -19.8293 -19.8293
   -19.8282 -19.8281 -19.8281 -19.8281 -19.8281 -19.8281 -19.8280 -19.8280
   -19.8280 -19.8280 -19.8280 -19.8280 -19.8280 -19.8280 -19.8279 -19.8279
   -19.6829 -19.6828 -19.6828 -19.6828 -19.6828 -19.6828 -19.6827 -19.6827
   -19.6826 -19.6826 -19.6826 -19.6826 -19.6826 -19.6825 -19.6825 -19.6825
   -19.6766 -19.6766 -19.6766 -19.6765 -19.6764 -19.6764 -19.6764 -19.6764
   -19.5022 -19.5022 -19.5021 -19.5021 -19.5020 -19.5020 -19.5020 -19.5019
   -19.4987 -19.4986 -19.4986 -19.4986 -19.4984 -19.4984 -19.4984 -19.4984
    17.0417  17.0417  17.0418  17.0419  17.0419  17.0420  17.0422  17.0424
    17.9045  17.9045  17.9045  17.9046  17.9046  17.9046  17.9047  17.9047
    17.9047  17.9047  17.9047  17.9047  17.9048  17.9048  17.9048  17.9048
    17.9053  17.9053  17.9053  17.9053  17.9055  17.9055  17.9055  17.9055
    18.9260  18.9260  18.9260  18.9261  18.9261  18.9261  18.9261  18.9262
    18.9262  18.9262  18.9262  18.9263  18.9263  18.9264  18.9264  18.9265
    18.9335  18.9335  18.9336  18.9336  18.9337  18.9337  18.9338  18.9338
    20.2417  20.2417  20.2417  20.2417  20.2417  20.2417  20.2418  20.2418
    20.8559  20.8559  20.8560  20.8560  20.8560  20.8560  20.8561  20.8561
    20.9060  20.9060  20.9060  20.9060  20.9061  20.9061  20.9061  20.9061
    20.9664  20.9664  20.9665  20.9665  20.9665  20.9666  20.9667  20.9668
    20.9968  20.9968  20.9969  20.9969  20.9969  20.9969  20.9969  20.9969
    20.9970  20.9970  20.9970  20.9970  20.9971  20.9971  20.9971  20.9972
    22.1883  22.1883  22.1883  22.1884  22.1884  22.1884  22.1884  22.1884
    22.1885  22.1885  22.1885  22.1885  22.1885  22.1885  22.1885  22.1886
    22.2141  22.2142  22.2142  22.2142  22.2143  22.2143  22.2143  22.2144
    23.0145  23.0146  23.0146  23.0146  23.0147  23.0147  23.0147  23.0148
    23.0315  23.0315  23.0316  23.0316  23.0316  23.0316  23.0317  23.0318
    24.8005  24.8005  24.8005  24.8006  24.8006  24.8006  24.8006  24.8007
    24.8106  24.8106  24.8107  24.8107  24.8107  24.8107  24.8107  24.8107
    24.8108  24.8108  24.8108  24.8108  24.8108  24.8108  24.8108  24.8109
    28.1540  28.1545  28.1554  28.1562  28.1572  28.1581  28.1609  28.1639
    28.1845  28.1846  28.1847

     the Fermi energy is    22.9908 ev

!    total energy              =  -13813.30020986 Ry

     total all-electron energy =   -289989.690549 Ry
     estimated scf accuracy    <       0.00000088 Ry
     smearing contrib. (-TS)   =       0.02013235 Ry
     internal energy E=F+TS    =  -13813.32034221 Ry

     The total energy is F=E-TS. E is the sum of the following terms:
     one-electron contribution =   -1006.61745791 Ry
     hartree contribution      =     919.32704917 Ry
     xc contribution           =    -927.89548636 Ry
     ewald contribution        =   -5208.69900445 Ry
     one-center paw contrib.   =   -7589.43544265 Ry

     convergence has been achieved in  11 iterations

     Forces acting on atoms (cartesian axes, Ry/au):

     atom    1 type  1   force =     0.00000000    0.00000000    0.00000000
     atom    2 type  1   force =    -0.00014814    0.00002582    0.00000000
     atom    3 type  1   force =    -0.00034547    0.00000000   -0.00034547
     atom    4 type  1   force =     0.00000000    0.00002582   -0.00014814
     atom    5 type  1   force =     0.00000000    0.00000000    0.00000000
     atom    6 type  1   force =    -0.00013564    0.00047006    0.00000000
     atom    7 type  1   force =    -0.00034547    0.00000000    0.00034547
     atom    8 type  1   force =     0.00000000    0.00002582    0.00014814
     atom    9 type  1   force =     0.00000000    0.00000000    0.00000000
     atom   10 type  1   force =    -0.00014814   -0.00002582   -0.00000000
     atom   11 type  1   force =     0.00007568   -0.00000000    0.00007568
     atom   12 type  1   force =     0.00000000   -0.00002582   -0.00014814
     atom   13 type  1   force =     0.00000000    0.00000000    0.00000000
     atom   14 type  1   force =    -0.00013564   -0.00047006    0.00000000
     atom   15 type  1   force =     0.00007568   -0.00000000   -0.00007568
     atom   16 type  1   force =     0.00000000   -0.00002582    0.00014814
     atom   17 type  1   force =     0.00000000    0.00000000    0.00000000
     atom   18 type  1   force =     0.00014814    0.00002582   -0.00000000
     atom   19 type  1   force =     0.00034547    0.00000000   -0.00034547
     atom   20 type  1   force =     0.00000000    0.00047006   -0.00013564
     atom   21 type  1   force =     0.00000000    0.00000000    0.00000000
     atom   22 type  1   force =     0.00013564    0.00047006    0.00000000
     atom   23 type  1   force =     0.00034547    0.00000000    0.00034547
     atom   24 type  1   force =     0.00000000    0.00047006    0.00013564
     atom   25 type  1   force =     0.00000000    0.00000000    0.00000000
     atom   26 type  1   force =     0.00014814   -0.00002582    0.00000000
     atom   27 type  1   force =    -0.00007568   -0.00000000    0.00007568
     atom   28 type  1   force =     0.00000000   -0.00047006   -0.00013564
     atom   29 type  1   force =     0.00000000    0.00000000    0.00000000
     atom   30 type  1   force =     0.00013564   -0.00047006    0.00000000
     atom   31 type  1   force =    -0.00007568   -0.00000000   -0.00007568
     atom   32 type  1   force =     0.00000000   -0.00047006    0.00013564

     Total force =     0.001760     Total SCF correction =     0.007808
     SCF correction compared to forces is large: reduce conv_thr to get better values


     Computing stress (Cartesian axis) and pressure

          total   stress  (Ry/bohr**3)                   (kbar)     P=      -18.03
  -0.00009770   0.00000000   0.00000000          -14.37        0.00        0.00
   0.00000000  -0.00017224   0.00000000            0.00      -25.34        0.00
   0.00000000   0.00000000  -0.00009770            0.00        0.00      -14.37


     Writing output data file /scratch/CuHbDQfMHVudkciJ.save/
 
     init_run     :     26.97s CPU     27.53s WALL (       1 calls)
     electrons    :    955.79s CPU    970.21s WALL (       1 calls)
     forces       :     10.93s CPU     11.06s WALL (       1 calls)
     stress       :     66.55s CPU     67.10s WALL (       1 calls)

     Called by init_run:
     wfcinit      :     26.24s CPU     26.68s WALL (       1 calls)
     potinit      :      0.19s CPU      0.20s WALL (       1 calls)
     hinit0       :      0.23s CPU      0.24s WALL (       1 calls)

     Called by electrons:
     c_bands      :    847.14s CPU    859.43s WALL (      12 calls)
     sum_band     :    106.22s CPU    108.11s WALL (      12 calls)
     v_of_rho     :      0.18s CPU      0.20s WALL (      12 calls)
     newd         :      0.35s CPU      0.48s WALL (      12 calls)
     PAW_pot      :      1.08s CPU      1.15s WALL (      12 calls)
     mix_rho      :      0.41s CPU      0.43s WALL (      12 calls)

     Called by c_bands:
     init_us_2    :      3.65s CPU      3.72s WALL (    2025 calls)
     cegterg      :    833.14s CPU    844.78s WALL (     900 calls)

     Called by *egterg:
     cdiaghg      :    102.05s CPU    104.05s WALL (    3359 calls)
     h_psi        :    450.55s CPU    457.37s WALL (    3509 calls)
     s_psi        :     32.00s CPU     32.25s WALL (    3509 calls)
     g_psi        :      0.76s CPU      0.78s WALL (    2534 calls)

     Called by h_psi:
     h_psi:calbec :     64.78s CPU     65.29s WALL (    3509 calls)
     vloc_psi     :    352.82s CPU    358.58s WALL (    3509 calls)
     add_vuspsi   :     31.03s CPU     31.54s WALL (    3509 calls)

     General routines
     calbec       :    104.78s CPU    105.54s WALL (    4784 calls)
     fft          :      0.66s CPU      0.69s WALL (     180 calls)
     ffts         :      0.04s CPU      0.05s WALL (      24 calls)
     fftw         :    414.88s CPU    421.64s WALL ( 1619264 calls)
     interpolate  :      0.24s CPU      0.25s WALL (      12 calls)
 
     Parallel routines
     fft_scatt_xy :     28.00s CPU     28.45s WALL ( 1619468 calls)
     fft_scatt_yz :    339.46s CPU    345.01s WALL ( 1619468 calls)
 
     PWSCF        :  17m58.34s CPU  18m17.48s WALL

 
   This run was terminated on:  18:53:43  23Nov2021            

=------------------------------------------------------------------------------=
   JOB DONE.
=------------------------------------------------------------------------------=
