
     Program PWSCF v.6.7MaX starts on 23Nov2021 at 16:51:15 

     This program is part of the open-source Quantum ESPRESSO suite
     for quantum simulation of materials; please cite
         "P. Giannozzi et al., J. Phys.:Condens. Matter 21 395502 (2009);
         "P. Giannozzi et al., J. Phys.:Condens. Matter 29 465901 (2017);
          URL http://www.quantum-espresso.org", 
     in publications or presentations arising from this work. More details at
     http://www.quantum-espresso.org/quote

     Parallel version (MPI & OpenMP), running on      72 processor cores
     Number of MPI processes:                72
     Threads/MPI process:                     1

     MPI processes distributed on     1 nodes
     R & G space division:  proc/nbgrp/npool/nimage =      72
     Reading input from /rds/homes/b/bxp912/jobs/20211014_ru_eos/wd/ec/ec_2_003.in
Warning: card &CELL ignored
Warning: card CELL_DYNAMICS = 'BFGS', ignored
Warning: card CELL_FACTOR = 2.0, ignored
Warning: card PRESS = 0.0, ignored
Warning: card / ignored

     Current dimensions of program PWSCF are:
     Max number of different atomic species (ntypx) = 10
     Max number of k-points (npk) =  40000
     Max angular momentum in pseudopotentials (lmaxx) =  3
     file Ru.pbe-spn-kjpaw_psl.1.0.0.UPF: wavefunction(s)  4D renormalized

     Subspace diagonalization in iterative solution of the eigenvalue problem:
     one sub-group per band group will be used
     ELPA distributed-memory algorithm (size of sub-group:  8*  8 procs)

     Found symmetry operation: I + (  0.2500  0.2500  0.0000)
     This is a supercell, fractional translations are disabled
     Message from routine setup:
     using ibrav=0 with symmetry is DISCOURAGED, use correct ibrav instead
 
     Parallelization info
     --------------------
     sticks:   dense  smooth     PW     G-vecs:    dense   smooth      PW
     Min          98      65     17                 6252     3355     475
     Max          99      66     18                 6257     3359     482
     Sum        7121    4705   1281               450383   241737   34465
 


     bravais-lattice index     =            0
     lattice parameter (alat)  =      14.4007  a.u.
     unit-cell volume          =    2990.1784 (a.u.)^3
     number of atoms/cell      =           32
     number of atomic types    =            1
     number of electrons       =       512.00
     number of Kohn-Sham states=          307
     kinetic-energy cutoff     =      71.0000  Ry
     charge density cutoff     =     430.0000  Ry
     scf convergence threshold =      1.0E-06
     mixing beta               =       0.1000
     number of iterations used =           10  plain     mixing
     Exchange-correlation= SLA  PW   PBX  PBC
                           (   1   4   3   4   0   0   0)

     celldm(1)=  14.400742  celldm(2)=   0.000000  celldm(3)=   0.000000
     celldm(4)=   0.000000  celldm(5)=   0.000000  celldm(6)=   0.000000

     crystal axes: (cart. coord. in units of alat)
               a(1) = (   1.000000   0.000000   0.000000 )  
               a(2) = (   0.000000   1.001250   0.000000 )  
               a(3) = (   0.000000   0.000000   1.000000 )  

     reciprocal axes: (cart. coord. in units 2 pi/alat)
               b(1) = (  1.000000  0.000000  0.000000 )  
               b(2) = (  0.000000  0.998752  0.000000 )  
               b(3) = (  0.000000  0.000000  1.000000 )  


     PseudoPot. # 1 for Ru read from file:
     /rds/homes/b/bxp912/pp/Ru.pbe-spn-kjpaw_psl.1.0.0.UPF
     MD5 check sum: 0ae1f594dea09af7be8575c3a481d1ae
     Pseudo is Projector augmented-wave + core cor, Zval = 16.0
     Generated using "atomic" code by A. Dal Corso  v.5.1
     Shape of augmentation charge: PSQ
     Using radial grid of 1233 points,  6 beta functions with: 
                l(1) =   0
                l(2) =   0
                l(3) =   1
                l(4) =   1
                l(5) =   2
                l(6) =   2
     Q(r) pseudized with 0 coefficients 


     atomic species   valence    mass     pseudopotential
        Ru            16.00   101.07000     Ru( 1.00)

     16 Sym. Ops., with inversion, found



   Cartesian axes

     site n.     atom                  positions (alat units)
         1           Ru  tau(   1) = (   0.0000000   0.0000000   0.0000000  )
         2           Ru  tau(   2) = (   0.2500000   0.2503125   0.0000000  )
         3           Ru  tau(   3) = (   0.2500000   0.0000000   0.2499995  )
         4           Ru  tau(   4) = (   0.0000000   0.2503125   0.2499995  )
         5           Ru  tau(   5) = (   0.0000000   0.0000000   0.5000000  )
         6           Ru  tau(   6) = (   0.2499990   0.2503114   0.5000000  )
         7           Ru  tau(   7) = (   0.2500000   0.0000000   0.7499995  )
         8           Ru  tau(   8) = (   0.0000000   0.2503125   0.7499995  )
         9           Ru  tau(   9) = (   0.0000000   0.5006252   0.0000000  )
        10           Ru  tau(  10) = (   0.2500000   0.7509379   0.0000000  )
        11           Ru  tau(  11) = (   0.2499990   0.5006252   0.2499984  )
        12           Ru  tau(  12) = (   0.0000000   0.7509379   0.2499995  )
        13           Ru  tau(  13) = (   0.0000000   0.5006252   0.5000000  )
        14           Ru  tau(  14) = (   0.2499990   0.7509390   0.5000000  )
        15           Ru  tau(  15) = (   0.2499990   0.5006252   0.7500005  )
        16           Ru  tau(  16) = (   0.0000000   0.7509379   0.7499995  )
        17           Ru  tau(  17) = (   0.5000002   0.0000000   0.0000000  )
        18           Ru  tau(  18) = (   0.7500004   0.2503125   0.0000000  )
        19           Ru  tau(  19) = (   0.7500004   0.0000000   0.2499995  )
        20           Ru  tau(  20) = (   0.5000002   0.2503114   0.2499984  )
        21           Ru  tau(  21) = (   0.5000002   0.0000000   0.5000000  )
        22           Ru  tau(  22) = (   0.7500015   0.2503114   0.5000000  )
        23           Ru  tau(  23) = (   0.7500004   0.0000000   0.7499995  )
        24           Ru  tau(  24) = (   0.5000002   0.2503114   0.7500005  )
        25           Ru  tau(  25) = (   0.5000002   0.5006252   0.0000000  )
        26           Ru  tau(  26) = (   0.7500004   0.7509379   0.0000000  )
        27           Ru  tau(  27) = (   0.7500015   0.5006252   0.2499984  )
        28           Ru  tau(  28) = (   0.5000002   0.7509390   0.2499984  )
        29           Ru  tau(  29) = (   0.5000002   0.5006252   0.5000000  )
        30           Ru  tau(  30) = (   0.7500015   0.7509390   0.5000000  )
        31           Ru  tau(  31) = (   0.7500015   0.5006252   0.7500005  )
        32           Ru  tau(  32) = (   0.5000002   0.7509390   0.7500005  )

     number of k points=    75  Marzari-Vanderbilt smearing, width (Ry)=  0.0400
                       cart. coord. in units 2pi/alat
        k(    1) = (   0.0555556   0.0554862   0.0555556), wk =   0.0219479
        k(    2) = (   0.0555556   0.0554862   0.1666667), wk =   0.0438957
        k(    3) = (   0.0555556   0.0554862   0.2777778), wk =   0.0438957
        k(    4) = (   0.0555556   0.0554862   0.3888889), wk =   0.0438957
        k(    5) = (   0.0555556   0.0554862  -0.5000000), wk =   0.0219479
        k(    6) = (   0.0555556   0.1664586   0.0555556), wk =   0.0219479
        k(    7) = (   0.0555556   0.1664586   0.1666667), wk =   0.0438957
        k(    8) = (   0.0555556   0.1664586   0.2777778), wk =   0.0438957
        k(    9) = (   0.0555556   0.1664586   0.3888889), wk =   0.0438957
        k(   10) = (   0.0555556   0.1664586  -0.5000000), wk =   0.0219479
        k(   11) = (   0.0555556   0.2774310   0.0555556), wk =   0.0219479
        k(   12) = (   0.0555556   0.2774310   0.1666667), wk =   0.0438957
        k(   13) = (   0.0555556   0.2774310   0.2777778), wk =   0.0438957
        k(   14) = (   0.0555556   0.2774310   0.3888889), wk =   0.0438957
        k(   15) = (   0.0555556   0.2774310  -0.5000000), wk =   0.0219479
        k(   16) = (   0.0555556   0.3884034   0.0555556), wk =   0.0219479
        k(   17) = (   0.0555556   0.3884034   0.1666667), wk =   0.0438957
        k(   18) = (   0.0555556   0.3884034   0.2777778), wk =   0.0438957
        k(   19) = (   0.0555556   0.3884034   0.3888889), wk =   0.0438957
        k(   20) = (   0.0555556   0.3884034  -0.5000000), wk =   0.0219479
        k(   21) = (   0.0555556  -0.4993758   0.0555556), wk =   0.0109739
        k(   22) = (   0.0555556  -0.4993758   0.1666667), wk =   0.0219479
        k(   23) = (   0.0555556  -0.4993758   0.2777778), wk =   0.0219479
        k(   24) = (   0.0555556  -0.4993758   0.3888889), wk =   0.0219479
        k(   25) = (   0.0555556  -0.4993758  -0.5000000), wk =   0.0109739
        k(   26) = (   0.1666667   0.0554862   0.1666667), wk =   0.0219479
        k(   27) = (   0.1666667   0.0554862   0.2777778), wk =   0.0438957
        k(   28) = (   0.1666667   0.0554862   0.3888889), wk =   0.0438957
        k(   29) = (   0.1666667   0.0554862  -0.5000000), wk =   0.0219479
        k(   30) = (   0.1666667   0.1664586   0.1666667), wk =   0.0219479
        k(   31) = (   0.1666667   0.1664586   0.2777778), wk =   0.0438957
        k(   32) = (   0.1666667   0.1664586   0.3888889), wk =   0.0438957
        k(   33) = (   0.1666667   0.1664586  -0.5000000), wk =   0.0219479
        k(   34) = (   0.1666667   0.2774310   0.1666667), wk =   0.0219479
        k(   35) = (   0.1666667   0.2774310   0.2777778), wk =   0.0438957
        k(   36) = (   0.1666667   0.2774310   0.3888889), wk =   0.0438957
        k(   37) = (   0.1666667   0.2774310  -0.5000000), wk =   0.0219479
        k(   38) = (   0.1666667   0.3884034   0.1666667), wk =   0.0219479
        k(   39) = (   0.1666667   0.3884034   0.2777778), wk =   0.0438957
        k(   40) = (   0.1666667   0.3884034   0.3888889), wk =   0.0438957
        k(   41) = (   0.1666667   0.3884034  -0.5000000), wk =   0.0219479
        k(   42) = (   0.1666667  -0.4993758   0.1666667), wk =   0.0109739
        k(   43) = (   0.1666667  -0.4993758   0.2777778), wk =   0.0219479
        k(   44) = (   0.1666667  -0.4993758   0.3888889), wk =   0.0219479
        k(   45) = (   0.1666667  -0.4993758  -0.5000000), wk =   0.0109739
        k(   46) = (   0.2777778   0.0554862   0.2777778), wk =   0.0219479
        k(   47) = (   0.2777778   0.0554862   0.3888889), wk =   0.0438957
        k(   48) = (   0.2777778   0.0554862  -0.5000000), wk =   0.0219479
        k(   49) = (   0.2777778   0.1664586   0.2777778), wk =   0.0219479
        k(   50) = (   0.2777778   0.1664586   0.3888889), wk =   0.0438957
        k(   51) = (   0.2777778   0.1664586  -0.5000000), wk =   0.0219479
        k(   52) = (   0.2777778   0.2774310   0.2777778), wk =   0.0219479
        k(   53) = (   0.2777778   0.2774310   0.3888889), wk =   0.0438957
        k(   54) = (   0.2777778   0.2774310  -0.5000000), wk =   0.0219479
        k(   55) = (   0.2777778   0.3884034   0.2777778), wk =   0.0219479
        k(   56) = (   0.2777778   0.3884034   0.3888889), wk =   0.0438957
        k(   57) = (   0.2777778   0.3884034  -0.5000000), wk =   0.0219479
        k(   58) = (   0.2777778  -0.4993758   0.2777778), wk =   0.0109739
        k(   59) = (   0.2777778  -0.4993758   0.3888889), wk =   0.0219479
        k(   60) = (   0.2777778  -0.4993758  -0.5000000), wk =   0.0109739
        k(   61) = (   0.3888889   0.0554862   0.3888889), wk =   0.0219479
        k(   62) = (   0.3888889   0.0554862  -0.5000000), wk =   0.0219479
        k(   63) = (   0.3888889   0.1664586   0.3888889), wk =   0.0219479
        k(   64) = (   0.3888889   0.1664586  -0.5000000), wk =   0.0219479
        k(   65) = (   0.3888889   0.2774310   0.3888889), wk =   0.0219479
        k(   66) = (   0.3888889   0.2774310  -0.5000000), wk =   0.0219479
        k(   67) = (   0.3888889   0.3884034   0.3888889), wk =   0.0219479
        k(   68) = (   0.3888889   0.3884034  -0.5000000), wk =   0.0219479
        k(   69) = (   0.3888889  -0.4993758   0.3888889), wk =   0.0109739
        k(   70) = (   0.3888889  -0.4993758  -0.5000000), wk =   0.0109739
        k(   71) = (  -0.5000000   0.0554862  -0.5000000), wk =   0.0054870
        k(   72) = (  -0.5000000   0.1664586  -0.5000000), wk =   0.0054870
        k(   73) = (  -0.5000000   0.2774310  -0.5000000), wk =   0.0054870
        k(   74) = (  -0.5000000   0.3884034  -0.5000000), wk =   0.0054870
        k(   75) = (  -0.5000000  -0.4993758  -0.5000000), wk =   0.0027435

     Dense  grid:   450383 G-vectors     FFT dimensions: (  96,  96,  96)

     Smooth grid:   241737 G-vectors     FFT dimensions: (  80,  80,  80)

     Estimated max dynamical RAM per process >     185.65 MB

     Estimated total dynamical RAM >      13.05 GB

     Check: negative core charge=   -0.000002

     Initial potential from superposition of free atoms

     starting charge  511.97959, renormalised to  512.00000
     Starting wfcs are  320 randomized atomic wfcs
     Checking if some PAW data can be deallocated... 

     total cpu time spent up to now is       32.5 secs

     Self-consistent Calculation

     iteration #  1     ecut=    71.00 Ry     beta= 0.10
     Davidson diagonalization with overlap
     ethr =  1.00E-02,  avg # of iterations =  3.4

     Threshold (ethr) on eigenvalues was too large:
     Diagonalizing with lowered threshold

     Davidson diagonalization with overlap
     ethr =  8.35E-05,  avg # of iterations =  5.3

     total cpu time spent up to now is      207.3 secs

     total energy              =  -13813.41276590 Ry
     estimated scf accuracy    <       0.63801279 Ry

     iteration #  2     ecut=    71.00 Ry     beta= 0.10
     Davidson diagonalization with overlap
     ethr =  1.25E-04,  avg # of iterations =  1.0

     total cpu time spent up to now is      274.4 secs

     total energy              =  -13813.20853950 Ry
     estimated scf accuracy    <       0.39885528 Ry

     iteration #  3     ecut=    71.00 Ry     beta= 0.10
     Davidson diagonalization with overlap
     ethr =  7.79E-05,  avg # of iterations =  2.2

     total cpu time spent up to now is      357.8 secs

     total energy              =  -13813.29871126 Ry
     estimated scf accuracy    <       0.04963404 Ry

     iteration #  4     ecut=    71.00 Ry     beta= 0.10
     Davidson diagonalization with overlap
     ethr =  9.69E-06,  avg # of iterations =  2.9

     total cpu time spent up to now is      432.8 secs

     total energy              =  -13813.30005157 Ry
     estimated scf accuracy    <       0.00886459 Ry

     iteration #  5     ecut=    71.00 Ry     beta= 0.10
     Davidson diagonalization with overlap
     ethr =  1.73E-06,  avg # of iterations =  2.2

     total cpu time spent up to now is      506.0 secs

     total energy              =  -13813.30105177 Ry
     estimated scf accuracy    <       0.00560816 Ry

     iteration #  6     ecut=    71.00 Ry     beta= 0.10
     Davidson diagonalization with overlap
     ethr =  1.10E-06,  avg # of iterations =  3.6

     total cpu time spent up to now is      606.8 secs

     total energy              =  -13813.29983745 Ry
     estimated scf accuracy    <       0.01409293 Ry

     iteration #  7     ecut=    71.00 Ry     beta= 0.10
     Davidson diagonalization with overlap
     ethr =  1.10E-06,  avg # of iterations =  2.3

     total cpu time spent up to now is      688.0 secs

     total energy              =  -13813.30085593 Ry
     estimated scf accuracy    <       0.00107944 Ry

     iteration #  8     ecut=    71.00 Ry     beta= 0.10
     Davidson diagonalization with overlap
     ethr =  2.11E-07,  avg # of iterations =  2.2

     total cpu time spent up to now is      759.6 secs

     total energy              =  -13813.30089449 Ry
     estimated scf accuracy    <       0.00023442 Ry

     iteration #  9     ecut=    71.00 Ry     beta= 0.10
     Davidson diagonalization with overlap
     ethr =  4.58E-08,  avg # of iterations =  2.2

     total cpu time spent up to now is      829.2 secs

     total energy              =  -13813.30086103 Ry
     estimated scf accuracy    <       0.00010044 Ry

     iteration # 10     ecut=    71.00 Ry     beta= 0.10
     Davidson diagonalization with overlap
     ethr =  1.96E-08,  avg # of iterations =  3.0

     total cpu time spent up to now is      906.2 secs

     total energy              =  -13813.30087801 Ry
     estimated scf accuracy    <       0.00000498 Ry

     iteration # 11     ecut=    71.00 Ry     beta= 0.10
     Davidson diagonalization with overlap
     ethr =  9.72E-10,  avg # of iterations =  3.8

     total cpu time spent up to now is      993.3 secs

     total energy              =  -13813.30087839 Ry
     estimated scf accuracy    <       0.00000171 Ry

     iteration # 12     ecut=    71.00 Ry     beta= 0.10
     Davidson diagonalization with overlap
     ethr =  3.34E-10,  avg # of iterations =  3.1

     total cpu time spent up to now is     1090.0 secs

     total energy              =  -13813.30087913 Ry
     estimated scf accuracy    <       0.00000111 Ry

     iteration # 13     ecut=    71.00 Ry     beta= 0.10
     Davidson diagonalization with overlap
     ethr =  2.17E-10,  avg # of iterations =  2.0

     total cpu time spent up to now is     1163.3 secs

     End of self-consistent calculation

          k = 0.0556 0.0555 0.0556 ( 30259 PWs)   bands (ev):

   -49.9406 -49.8416 -49.8412 -49.8412 -49.8224 -49.8220 -49.8220 -49.7864
   -49.7864 -49.7863 -49.7770 -49.7760 -49.7759 -49.7759 -49.7759 -49.7758
   -49.7758 -49.7753 -49.7753 -49.7753 -49.7671 -49.7670 -49.7670 -49.7224
   -49.7217 -49.7216 -49.7215 -49.7215 -49.7214 -49.7214 -49.7211 -49.7211
   -20.3434 -20.3434 -20.3434 -20.3393 -20.2811 -20.2811 -20.2807 -20.0826
   -20.0808 -20.0808 -20.0713 -20.0713 -20.0695 -20.0695 -20.0694 -20.0694
   -20.0513 -20.0492 -20.0492 -20.0283 -20.0283 -20.0269 -20.0269 -20.0268
   -20.0268 -19.9780 -19.9780 -19.9765 -19.9765 -19.9762 -19.9762 -19.8781
   -19.8781 -19.8777 -19.8053 -19.8053 -19.8048 -19.7974 -19.7974 -19.7971
   -19.7640 -19.7640 -19.7637 -19.7637 -19.7634 -19.7634 -19.7238 -19.7238
   -19.7234 -19.7173 -19.7173 -19.7170 -19.7170 -19.7162 -19.7162 -19.7121
   -19.7121 -19.7097 -19.7069 -19.7069 -19.7051 -19.5454 -19.5454 -19.5440
   -19.5440 -19.5438 -19.5432 -19.5133 -19.5133 -19.5122 -19.5122 -19.5118
   -19.5118 -19.4981 -19.4981 -19.4966 -19.4863 -19.4852 -19.4852 -19.4848
   -19.4847 -19.4847 -19.4847 -19.4834 -19.4834 -19.4826 -19.4825 -19.4814
   -19.4805 -19.4786 -19.4663 -19.4663 -19.4650 -19.3534 -19.3466 -19.3464
    15.3157  16.8762  16.8762  16.8773  17.1548  17.1725  17.1725  17.1725
    17.3439  17.3439  17.3453  17.5654  17.5699  17.5699  17.7374  17.7417
    17.7417  18.2789  18.2789  18.2855  18.2855  18.2858  18.2858  18.5958
    18.6001  18.6001  18.8626  18.8626  18.8628  18.8677  18.8732  18.8733
    18.9686  18.9692  18.9692  18.9721  18.9721  18.9721  18.9721  18.9724
    18.9724  19.4598  19.4598  19.4632  19.4632  19.4660  19.4660  19.6028
    19.6093  19.6093  19.6345  19.6345  19.6410  19.6410  19.6415  19.6415
    19.6994  19.7053  19.7053  19.9637  19.9637  19.9647  19.9648  19.9662
    19.9662  19.9662  19.9662  19.9672  19.9677  19.9677  19.9689  19.9689
    19.9708  19.9708  20.1365  20.1365  20.1378  20.4134  20.4238  20.4238
    20.4493  20.4648  20.4693  20.4693  20.4798  20.5489  20.5787  20.5870
    21.5484  21.5600  21.5600  21.7175  21.7301  21.7301  21.7729  21.7730
    21.7771  21.8729  21.8729  21.8734  21.8734  21.8767  21.8767  21.8871
    21.8872  21.8903  22.1821  22.1821  22.1889  22.3027  22.3027  22.3068
    22.5504  22.5504  22.5568  22.6280  22.6280  22.6309  22.6310  22.6313
    22.6313  22.6466  22.6466  22.6523  22.6871  22.6871  22.6910  22.8761
    22.8761  22.8764  22.8764  22.8814  22.8814  22.9279  22.9458  23.0492
    23.0492  23.0544  23.7079  23.7079  23.7161  23.7571  23.7571  23.7588
    23.8682  23.8682  23.8752  23.9583  24.6880  24.6880  24.6889  24.7266
    24.7344  24.7614  24.7674  24.7674  25.0461  25.0498  25.0498  25.0722
    25.0722  25.0763  25.2309  25.2309  25.2314  25.2314  25.2389  25.2400
    25.2401  25.2413  25.2413  26.6777  26.6777  26.6865  26.8312  26.8551
    26.8551  27.2101  27.2101

          k = 0.0556 0.0555 0.1667 ( 30245 PWs)   bands (ev):

   -49.9373 -49.8600 -49.8397 -49.8393 -49.8209 -49.8204 -49.8031 -49.7968
   -49.7966 -49.7860 -49.7846 -49.7845 -49.7787 -49.7759 -49.7758 -49.7754
   -49.7753 -49.7737 -49.7673 -49.7656 -49.7655 -49.7584 -49.7583 -49.7249
   -49.7233 -49.7231 -49.7229 -49.7226 -49.7223 -49.7217 -49.7215 -49.7214
   -20.3360 -20.3321 -20.3321 -20.3240 -20.2728 -20.2724 -20.2682 -20.1118
   -20.0984 -20.0983 -20.0870 -20.0854 -20.0845 -20.0829 -20.0773 -20.0752
   -20.0752 -20.0537 -20.0516 -20.0384 -20.0373 -20.0252 -20.0246 -20.0238
   -20.0226 -19.9860 -19.9847 -19.9690 -19.9675 -19.9562 -19.9276 -19.9273
   -19.8907 -19.8902 -19.8460 -19.8454 -19.8140 -19.8134 -19.8035 -19.8027
   -19.7723 -19.7348 -19.7345 -19.7226 -19.7225 -19.7217 -19.7202 -19.7168
   -19.7168 -19.7159 -19.7072 -19.7066 -19.7045 -19.7026 -19.7018 -19.7016
   -19.7006 -19.7002 -19.6971 -19.6841 -19.6838 -19.5771 -19.5750 -19.5515
   -19.5510 -19.5371 -19.5356 -19.5194 -19.5189 -19.5177 -19.5162 -19.5093
   -19.5079 -19.5037 -19.5025 -19.5023 -19.4976 -19.4962 -19.4953 -19.4855
   -19.4851 -19.4847 -19.4847 -19.4841 -19.4831 -19.4819 -19.4806 -19.4779
   -19.4771 -19.4767 -19.4668 -19.4546 -19.4534 -19.3707 -19.3521 -19.3501
    15.4020  16.9270  16.9399  16.9411  17.1945  17.2296  17.2296  17.2471
    17.2675  17.3820  17.4057  17.4073  17.6276  17.6320  17.7641  17.8030
    17.8072  18.1645  18.1652  18.3275  18.3340  18.3368  18.3427  18.3433
    18.5500  18.6352  18.6391  18.6554  18.6557  18.7057  18.7254  18.7260
    18.9007  18.9058  18.9118  18.9119  18.9349  18.9357  19.0066  19.0119
    19.0671  19.0675  19.1553  19.4412  19.4442  19.4637  19.4672  19.5148
    19.5197  19.5289  19.5340  19.5889  19.5931  19.6792  19.6794  19.7127
    19.7864  19.7882  19.8082  19.8098  19.9050  19.9197  19.9228  19.9509
    19.9528  19.9650  19.9671  19.9705  19.9748  20.2160  20.2171  20.2386
    20.2393  20.2625  20.3166  20.3510  20.3746  20.3863  20.4562  20.4882
    20.4935  20.5118  20.5172  20.5200  20.5292  20.5318  20.6178  20.6319
    21.3192  21.3267  21.4485  21.4573  21.5477  21.5707  21.6807  21.6809
    21.7109  21.8075  21.8114  21.8425  21.9847  21.9882  21.9888  22.0188
    22.0210  22.0656  22.0679  22.0985  22.1602  22.1650  22.4846  22.4898
    22.5034  22.5053  22.5179  22.5232  22.6301  22.6328  22.6446  22.6476
    22.7652  22.7693  22.7902  22.7910  22.8693  22.8857  22.8961  22.8978
    22.9401  22.9575  23.1001  23.1005  23.1161  23.1635  23.1676  23.2494
    23.2822  23.2866  23.2931  23.3437  23.3460  23.5325  23.5543  23.7705
    23.7776  23.9617  23.9672  24.0310  24.4843  24.4936  24.5998  24.6006
    24.6160  24.6475  24.7108  24.7164  24.7188  24.9137  24.9811  25.1042
    25.1050  25.1130  25.1144  25.1295  25.2282  25.2302  25.2317  25.2325
    25.4132  25.4160  25.6406  26.1601  26.1670  26.5529  26.6192  26.6848
    26.6938  27.1544  27.1545

          k = 0.0556 0.0555 0.2778 ( 30220 PWs)   bands (ev):

   -49.9308 -49.8779 -49.8361 -49.8357 -49.8178 -49.8174 -49.8067 -49.8065
   -49.7930 -49.7928 -49.7854 -49.7850 -49.7803 -49.7758 -49.7758 -49.7754
   -49.7754 -49.7721 -49.7678 -49.7557 -49.7556 -49.7502 -49.7500 -49.7315
   -49.7268 -49.7265 -49.7260 -49.7256 -49.7223 -49.7218 -49.7215 -49.7214
   -20.3174 -20.3100 -20.3099 -20.2981 -20.2563 -20.2560 -20.2425 -20.1575
   -20.1428 -20.1427 -20.1217 -20.1214 -20.1213 -20.0902 -20.0889 -20.0843
   -20.0831 -20.0534 -20.0528 -20.0305 -20.0300 -20.0285 -20.0279 -20.0270
   -19.9926 -19.9906 -19.9886 -19.9875 -19.9535 -19.9520 -19.9133 -19.9124
   -19.8845 -19.8838 -19.8805 -19.8800 -19.8428 -19.8418 -19.8410 -19.8401
   -19.7395 -19.7384 -19.7224 -19.7157 -19.7142 -19.7084 -19.7055 -19.6958
   -19.6910 -19.6896 -19.6895 -19.6831 -19.6831 -19.6765 -19.6761 -19.6730
   -19.6729 -19.6555 -19.6461 -19.6460 -19.6388 -19.6072 -19.6046 -19.5660
   -19.5656 -19.5428 -19.5414 -19.5389 -19.5377 -19.5333 -19.5329 -19.5308
   -19.5234 -19.5223 -19.5185 -19.5181 -19.5023 -19.4965 -19.4887 -19.4882
   -19.4879 -19.4846 -19.4846 -19.4841 -19.4836 -19.4774 -19.4766 -19.4747
   -19.4676 -19.4519 -19.4502 -19.4497 -19.4488 -19.4013 -19.3631 -19.3603
    15.5718  16.8919  17.0255  17.0643  17.0655  17.2914  17.3431  17.3432
    17.3770  17.4576  17.5289  17.5307  17.6698  17.7481  17.7521  17.9303
    17.9342  17.9577  17.9588  18.1068  18.2139  18.3138  18.3140  18.3811
    18.4201  18.4258  18.4507  18.4567  18.5500  18.5513  18.6035  18.6078
    18.7130  18.7160  18.7676  18.7685  18.8834  18.8841  18.9651  18.9692
    19.1400  19.1410  19.3411  19.3441  19.4048  19.4074  19.4075  19.4111
    19.4217  19.4250  19.4379  19.4663  19.4698  19.5617  19.5665  19.7210
    19.7234  19.7771  19.8397  19.8425  19.9047  19.9070  19.9645  19.9698
    19.9807  19.9853  20.0454  20.0474  20.0763  20.2473  20.3049  20.3130
    20.3131  20.3140  20.3679  20.4184  20.5686  20.6155  20.6241  20.6418
    20.6418  20.6573  20.6593  20.7110  20.7251  20.7646  21.0432  21.0483
    21.1035  21.1060  21.1122  21.1127  21.3191  21.4317  21.4323  21.4669
    21.4799  21.5372  21.9007  21.9384  21.9412  22.1478  22.1512  22.1653
    22.1677  22.2034  22.2049  22.2804  22.2820  22.3994  22.4033  22.4992
    22.5033  22.6228  22.6232  22.6255  22.6367  22.6377  22.6610  22.6636
    22.7161  22.7188  22.7323  22.7860  22.8156  22.8173  22.9325  23.0024
    23.0037  23.0054  23.0701  23.0712  23.2079  23.3409  23.4109  23.4111
    23.4119  23.4948  23.4969  23.5380  23.5678  23.5707  23.5886  23.8005
    23.8122  23.9488  23.9534  24.1928  24.2169  24.2192  24.3937  24.3938
    24.4260  24.5580  24.5589  24.5619  24.5907  24.6515  24.8723  24.8730
    24.8792  24.8805  24.9316  25.2267  25.2293  25.2314  25.2317  25.3766
    25.6523  25.6573  25.8477  25.8488  26.0248  26.1571  26.1643  26.1974
    26.4998  27.0381  27.0383

          k = 0.0556 0.0555 0.3889 ( 30186 PWs)   bands (ev):

   -49.9213 -49.8945 -49.8308 -49.8304 -49.8158 -49.8156 -49.8133 -49.8129
   -49.8007 -49.8005 -49.7845 -49.7819 -49.7758 -49.7757 -49.7755 -49.7754
   -49.7708 -49.7686 -49.7683 -49.7467 -49.7465 -49.7427 -49.7424 -49.7412
   -49.7320 -49.7317 -49.7304 -49.7300 -49.7222 -49.7219 -49.7215 -49.7214
   -20.2886 -20.2780 -20.2779 -20.2627 -20.2322 -20.2319 -20.2059 -20.2048
   -20.1914 -20.1912 -20.1712 -20.1637 -20.1636 -20.0971 -20.0889 -20.0880
   -20.0752 -20.0744 -20.0685 -20.0684 -20.0429 -20.0426 -20.0029 -20.0010
   -19.9744 -19.9734 -19.9563 -19.9544 -19.9418 -19.9405 -19.9325 -19.9311
   -19.9197 -19.9188 -19.8787 -19.8774 -19.8756 -19.8746 -19.8367 -19.8362
   -19.7651 -19.7642 -19.7140 -19.7120 -19.7101 -19.7074 -19.6799 -19.6755
   -19.6682 -19.6467 -19.6466 -19.6436 -19.6434 -19.6401 -19.6400 -19.6400
   -19.6395 -19.6349 -19.6316 -19.6110 -19.6109 -19.6098 -19.5872 -19.5869
   -19.5726 -19.5724 -19.5715 -19.5714 -19.5693 -19.5659 -19.5537 -19.5534
   -19.5513 -19.5511 -19.5300 -19.5077 -19.5071 -19.4950 -19.4907 -19.4845
   -19.4844 -19.4842 -19.4839 -19.4828 -19.4824 -19.4727 -19.4725 -19.4724
   -19.4689 -19.4516 -19.4510 -19.4451 -19.4242 -19.4221 -19.3792 -19.3763
    15.8192  16.5005  17.1648  17.2428  17.2440  17.4445  17.5114  17.5115
    17.5115  17.5601  17.5698  17.7114  17.7122  17.7126  17.7145  17.8970
    17.9102  17.9180  17.9215  18.0017  18.0018  18.0695  18.1107  18.1141
    18.2519  18.2555  18.3422  18.3442  18.5458  18.5502  18.5600  18.5619
    18.6158  18.6211  18.8032  18.8035  18.8272  18.8291  19.0478  19.0496
    19.0572  19.0598  19.1502  19.1515  19.2968  19.2981  19.3383  19.3399
    19.3803  19.3847  19.4438  19.4500  19.4537  19.4566  19.7034  19.7057
    19.7115  19.7581  19.7598  19.8761  19.9829  19.9890  19.9892  19.9944
    20.0012  20.0042  20.1245  20.1766  20.1882  20.2115  20.2172  20.2212
    20.2237  20.3519  20.4170  20.4187  20.6965  20.7586  20.7649  20.7701
    20.7747  20.7874  20.7911  20.7962  20.8510  20.8642  21.0784  21.0897
    21.0966  21.1581  21.2179  21.2505  21.2540  21.2570  21.2571  21.2714
    21.7345  21.7447  22.0642  22.0656  22.0754  22.1355  22.1374  22.2643
    22.2656  22.2695  22.3205  22.3354  22.3361  22.3792  22.3804  22.4148
    22.4168  22.4649  22.4662  22.4758  22.4786  22.5401  22.5895  22.5913
    22.6297  22.6303  22.6511  22.6531  22.7402  22.7414  22.9599  22.9609
    23.0767  23.0928  23.1044  23.2187  23.2819  23.4164  23.4175  23.5471
    23.7378  23.7393  23.7408  23.8458  23.8528  23.8529  23.8919  23.8926
    24.1146  24.1150  24.1164  24.1742  24.2692  24.2709  24.2748  24.3327
    24.3356  24.3518  24.3914  24.3924  24.5661  24.5704  24.5712  24.5748
    24.6246  24.6255  24.7031  25.1574  25.1604  25.2268  25.2283  25.2312
    25.2315  25.3785  25.6288  25.6342  25.7483  26.2529  26.2532  26.3158
    26.6875  26.8532  26.8533

          k = 0.0556 0.0555-0.5000 ( 30214 PWs)   bands (ev):

   -49.9091 -49.9090 -49.8240 -49.8239 -49.8237 -49.8236 -49.8076 -49.8075
   -49.8073 -49.8072 -49.7833 -49.7832 -49.7757 -49.7756 -49.7756 -49.7755
   -49.7696 -49.7695 -49.7536 -49.7535 -49.7388 -49.7387 -49.7385 -49.7384
   -49.7360 -49.7359 -49.7357 -49.7356 -49.7221 -49.7220 -49.7215 -49.7214
   -20.2507 -20.2507 -20.2377 -20.2377 -20.2375 -20.2375 -20.2196 -20.2196
   -20.2011 -20.2010 -20.2009 -20.2007 -20.1559 -20.1558 -20.0812 -20.0812
   -20.0808 -20.0807 -20.0606 -20.0606 -20.0603 -20.0602 -19.9727 -19.9726
   -19.9711 -19.9710 -19.9502 -19.9501 -19.9493 -19.9492 -19.9176 -19.9175
   -19.9159 -19.9158 -19.9064 -19.9063 -19.9052 -19.9051 -19.7980 -19.7978
   -19.7972 -19.7971 -19.7121 -19.7120 -19.7097 -19.7096 -19.6595 -19.6593
   -19.6556 -19.6554 -19.6159 -19.6159 -19.6145 -19.6144 -19.6142 -19.6141
   -19.6081 -19.6080 -19.6075 -19.6074 -19.6057 -19.6057 -19.6048 -19.6047
   -19.5927 -19.5927 -19.5926 -19.5926 -19.5800 -19.5798 -19.5798 -19.5796
   -19.5667 -19.5667 -19.5007 -19.5006 -19.4933 -19.4933 -19.4933 -19.4933
   -19.4931 -19.4930 -19.4845 -19.4843 -19.4842 -19.4841 -19.4706 -19.4704
   -19.4597 -19.4596 -19.4595 -19.4594 -19.3998 -19.3997 -19.3973 -19.3971
    16.1341  16.1343  17.3330  17.3332  17.4642  17.4643  17.4654  17.4655
    17.6518  17.6518  17.7170  17.7171  17.7322  17.7322  17.7323  17.7324
    17.7927  17.7927  17.9539  17.9541  17.9568  17.9570  18.1230  18.1231
    18.1258  18.1259  18.3289  18.3290  18.3317  18.3318  18.6837  18.6838
    18.6861  18.6861  18.8231  18.8232  18.8273  18.8274  18.9750  18.9751
    18.9753  18.9754  19.1711  19.1712  19.1718  19.1719  19.3836  19.3836
    19.3892  19.3892  19.4061  19.4061  19.4070  19.4070  19.7108  19.7108
    19.7112  19.7112  19.9654  19.9656  19.9912  19.9913  19.9961  19.9963
    19.9969  19.9970  20.1062  20.1063  20.1102  20.1104  20.2681  20.2682
    20.4693  20.4694  20.4727  20.4727  20.5750  20.5751  20.5777  20.5777
    20.8680  20.8681  20.9407  20.9408  20.9458  20.9458  20.9906  20.9906
    21.0350  21.0351  21.0471  21.0472  21.7183  21.7183  21.7187  21.7187
    21.7246  21.7246  21.7551  21.7551  22.1177  22.1178  22.1178  22.1179
    22.3110  22.3111  22.3999  22.4000  22.4109  22.4110  22.4332  22.4333
    22.4343  22.4344  22.5110  22.5111  22.5123  22.5125  22.5253  22.5254
    22.5255  22.5257  22.5902  22.5903  22.5917  22.5918  22.8428  22.8429
    22.8429  22.8430  23.1695  23.1697  23.7782  23.7784  23.7791  23.7792
    23.7911  23.7912  23.8757  23.8757  24.0536  24.0537  24.0558  24.0558
    24.1047  24.1048  24.1381  24.1382  24.2166  24.2167  24.2192  24.2193
    24.2337  24.2338  24.2355  24.2356  24.5133  24.5133  24.6880  24.6880
    24.6888  24.6889  24.7178  24.7180  25.1104  25.1104  25.1137  25.1137
    25.2273  25.2275  25.2313  25.2314  26.0647  26.0648  26.5919  26.5920
    26.5921  26.5921  27.0828

          k = 0.0556 0.1665 0.0556 ( 30228 PWs)   bands (ev):

   -49.9373 -49.8603 -49.8393 -49.8393 -49.8204 -49.8204 -49.8036 -49.7967
   -49.7967 -49.7860 -49.7845 -49.7845 -49.7787 -49.7759 -49.7758 -49.7754
   -49.7753 -49.7737 -49.7674 -49.7656 -49.7656 -49.7584 -49.7584 -49.7257
   -49.7234 -49.7234 -49.7230 -49.7230 -49.7216 -49.7215 -49.7211 -49.7211
   -20.3360 -20.3321 -20.3321 -20.3241 -20.2728 -20.2728 -20.2678 -20.1132
   -20.0999 -20.0999 -20.0852 -20.0852 -20.0826 -20.0826 -20.0790 -20.0764
   -20.0764 -20.0518 -20.0518 -20.0372 -20.0372 -20.0238 -20.0238 -20.0227
   -20.0227 -19.9846 -19.9846 -19.9673 -19.9673 -19.9559 -19.9293 -19.9293
   -19.8905 -19.8905 -19.8457 -19.8457 -19.8137 -19.8137 -19.8029 -19.8029
   -19.7722 -19.7345 -19.7345 -19.7231 -19.7231 -19.7230 -19.7230 -19.7166
   -19.7154 -19.7154 -19.7059 -19.7058 -19.7042 -19.7025 -19.7025 -19.7012
   -19.7011 -19.6998 -19.6969 -19.6844 -19.6844 -19.5754 -19.5740 -19.5528
   -19.5528 -19.5360 -19.5360 -19.5204 -19.5204 -19.5177 -19.5177 -19.5093
   -19.5093 -19.5037 -19.5029 -19.5029 -19.4968 -19.4968 -19.4961 -19.4863
   -19.4841 -19.4833 -19.4833 -19.4825 -19.4825 -19.4809 -19.4800 -19.4779
   -19.4779 -19.4758 -19.4654 -19.4546 -19.4546 -19.3708 -19.3520 -19.3501
    15.4018  16.9279  16.9397  16.9397  17.1944  17.2296  17.2296  17.2470
    17.2633  17.3832  17.4059  17.4059  17.6317  17.6318  17.7604  17.8069
    17.8069  18.1587  18.1587  18.3335  18.3336  18.3396  18.3434  18.3434
    18.5494  18.6393  18.6394  18.6547  18.6547  18.7048  18.7250  18.7250
    18.9061  18.9061  18.9108  18.9108  18.9354  18.9354  19.0094  19.0094
    19.0676  19.0676  19.1483  19.4387  19.4387  19.4697  19.4697  19.5202
    19.5202  19.5346  19.5346  19.5923  19.5923  19.6801  19.6802  19.7090
    19.7882  19.7882  19.8041  19.8041  19.8981  19.9165  19.9165  19.9537
    19.9537  19.9676  19.9677  19.9777  19.9777  20.2177  20.2177  20.2408
    20.2408  20.2647  20.3169  20.3405  20.3759  20.3759  20.4465  20.4816
    20.4981  20.5164  20.5164  20.5280  20.5280  20.5428  20.6282  20.6338
    21.3294  21.3294  21.4591  21.4591  21.5393  21.5765  21.6860  21.6860
    21.7157  21.8063  21.8063  21.8496  21.9842  21.9842  21.9904  22.0174
    22.0175  22.0638  22.0638  22.0853  22.1567  22.1567  22.4839  22.4839
    22.5031  22.5031  22.5160  22.5160  22.6325  22.6325  22.6466  22.6466
    22.7643  22.7643  22.7873  22.7873  22.8565  22.8895  22.8955  22.8956
    22.9459  22.9701  23.1037  23.1037  23.1189  23.1634  23.1634  23.2528
    23.2820  23.2820  23.2950  23.3453  23.3453  23.5328  23.5636  23.7709
    23.7709  23.9616  23.9616  24.0369  24.4867  24.4867  24.5997  24.5997
    24.6107  24.6487  24.7105  24.7105  24.7132  24.9100  24.9867  25.1036
    25.1036  25.1054  25.1054  25.1289  25.2389  25.2389  25.2411  25.2411
    25.4179  25.4179  25.6445  26.1601  26.1601  26.5303  26.6277  26.6849
    26.6849  27.1647  27.1647

          k = 0.0556 0.1665 0.1667 ( 30247 PWs)   bands (ev):

   -49.9341 -49.8582 -49.8579 -49.8375 -49.8190 -49.8087 -49.8023 -49.8018
   -49.7961 -49.7960 -49.7842 -49.7842 -49.7820 -49.7770 -49.7728 -49.7726
   -49.7721 -49.7720 -49.7659 -49.7658 -49.7590 -49.7590 -49.7514 -49.7257
   -49.7250 -49.7248 -49.7246 -49.7238 -49.7233 -49.7226 -49.7224 -49.7216
   -20.3288 -20.3287 -20.3173 -20.3051 -20.2645 -20.2606 -20.2601 -20.1194
   -20.1181 -20.1133 -20.1118 -20.0818 -20.0815 -20.0804 -20.0801 -20.0786
   -20.0744 -20.0740 -20.0700 -20.0688 -20.0513 -20.0497 -20.0471 -20.0470
   -19.9874 -19.9650 -19.9646 -19.9607 -19.9607 -19.9441 -19.9427 -19.9217
   -19.9196 -19.9043 -19.8874 -19.8311 -19.8092 -19.8091 -19.7719 -19.7718
   -19.7613 -19.7604 -19.7388 -19.7366 -19.7364 -19.7173 -19.7145 -19.7032
   -19.7028 -19.7003 -19.6993 -19.6992 -19.6990 -19.6981 -19.6977 -19.6973
   -19.6888 -19.6885 -19.6604 -19.6602 -19.6462 -19.5847 -19.5826 -19.5685
   -19.5679 -19.5455 -19.5411 -19.5322 -19.5175 -19.5170 -19.5167 -19.5151
   -19.5106 -19.5090 -19.5087 -19.5073 -19.5068 -19.5068 -19.4941 -19.4906
   -19.4901 -19.4885 -19.4883 -19.4873 -19.4803 -19.4784 -19.4772 -19.4766
   -19.4704 -19.4700 -19.4555 -19.4543 -19.4378 -19.3925 -19.3571 -19.3493
    15.4866  16.9908  16.9919  16.9974  17.2147  17.2672  17.3190  17.3190
    17.3245  17.3283  17.4433  17.4446  17.4715  17.6786  17.8283  17.8317
    17.8535  18.1915  18.1965  18.2186  18.2248  18.3846  18.3875  18.3908
    18.3911  18.4378  18.4378  18.5157  18.5793  18.5795  18.6939  18.7403
    18.7409  18.7609  18.7620  18.7859  18.9520  19.0255  19.0279  19.0297
    19.0315  19.0596  19.0612  19.1745  19.1811  19.4031  19.4076  19.5069
    19.5074  19.5298  19.5824  19.5840  19.6152  19.6159  19.6655  19.6682
    19.6881  19.8725  19.8780  19.8792  19.8839  19.9700  19.9754  20.0407
    20.0424  20.0882  20.1591  20.1614  20.2632  20.2679  20.2868  20.2875
    20.3269  20.3290  20.3650  20.4283  20.4321  20.4416  20.4518  20.4691
    20.5083  20.5116  20.5261  20.5714  20.6079  20.6128  20.6435  20.6754
    21.1923  21.2934  21.3215  21.3300  21.5756  21.5828  21.7412  21.7501
    21.7541  21.7602  21.7605  21.8247  21.8341  21.8478  21.8525  21.8741
    21.8791  22.0293  22.0956  22.1998  22.2000  22.2202  22.2212  22.2705
    22.3481  22.6327  22.6331  22.7483  22.7591  22.7629  22.7745  22.7776
    22.8152  22.8170  22.8391  22.8962  22.9021  22.9460  22.9726  22.9737
    23.0354  23.0381  23.0545  23.0947  23.0950  23.1949  23.2852  23.3451
    23.3461  23.3752  23.3783  23.4554  23.4669  23.4702  23.5930  23.6009
    23.8008  23.9968  24.1691  24.1702  24.1734  24.3062  24.3078  24.4820
    24.5922  24.5934  24.6594  24.7355  24.7379  24.7517  24.7616  25.0006
    25.0011  25.1022  25.1072  25.1120  25.1158  25.1272  25.1326  25.1716
    25.3672  25.6598  26.0005  26.0011  26.1020  26.1087  26.6300  26.6386
    27.1269  27.1441  27.2447

          k = 0.0556 0.1665 0.2778 ( 30214 PWs)   bands (ev):

   -49.9277 -49.8756 -49.8540 -49.8340 -49.8201 -49.8160 -49.8056 -49.7998
   -49.7949 -49.7922 -49.7852 -49.7840 -49.7836 -49.7796 -49.7786 -49.7706
   -49.7690 -49.7664 -49.7611 -49.7600 -49.7563 -49.7510 -49.7446 -49.7314
   -49.7282 -49.7277 -49.7274 -49.7255 -49.7248 -49.7242 -49.7224 -49.7217
   -20.3143 -20.3107 -20.2921 -20.2758 -20.2482 -20.2451 -20.2363 -20.1645
   -20.1555 -20.1222 -20.1211 -20.1189 -20.1187 -20.1142 -20.0932 -20.0896
   -20.0891 -20.0724 -20.0711 -20.0633 -20.0602 -20.0581 -20.0547 -20.0350
   -20.0179 -19.9802 -19.9663 -19.9478 -19.9470 -19.9338 -19.9286 -19.9263
   -19.9071 -19.8994 -19.8730 -19.8614 -19.8444 -19.8083 -19.7976 -19.7703
   -19.7610 -19.7555 -19.7325 -19.7244 -19.7196 -19.7060 -19.7032 -19.6995
   -19.6971 -19.6951 -19.6894 -19.6793 -19.6702 -19.6663 -19.6640 -19.6618
   -19.6617 -19.6578 -19.6253 -19.6229 -19.6152 -19.6096 -19.5993 -19.5978
   -19.5567 -19.5563 -19.5523 -19.5493 -19.5424 -19.5400 -19.5397 -19.5363
   -19.5285 -19.5222 -19.5146 -19.5098 -19.5088 -19.5073 -19.5008 -19.4972
   -19.4956 -19.4940 -19.4901 -19.4877 -19.4793 -19.4777 -19.4730 -19.4581
   -19.4574 -19.4548 -19.4503 -19.4395 -19.4279 -19.4267 -19.3682 -19.3551
    15.6537  16.9551  17.0898  17.1107  17.1169  17.2907  17.3596  17.4431
    17.4444  17.4606  17.5178  17.5668  17.6012  17.7377  17.7675  17.9416
    17.9608  17.9759  18.0167  18.1243  18.1562  18.2476  18.2525  18.2877
    18.3134  18.3366  18.4272  18.4544  18.4735  18.4740  18.4811  18.5033
    18.6307  18.6510  18.6606  18.7663  18.8032  18.8731  18.8817  19.0432
    19.0567  19.0807  19.1169  19.2240  19.2575  19.3213  19.3326  19.3616
    19.3718  19.4267  19.4562  19.4975  19.5783  19.5861  19.6146  19.6859
    19.7080  19.7447  19.8579  19.9784  20.0172  20.0450  20.0720  20.1064
    20.1336  20.1573  20.1950  20.2156  20.2831  20.2951  20.3224  20.3310
    20.3483  20.4291  20.4639  20.4896  20.5019  20.5618  20.5932  20.6029
    20.6613  20.7188  20.7299  20.7337  20.7508  20.7606  20.9822  20.9939
    21.0301  21.0883  21.0951  21.3184  21.3282  21.3282  21.4879  21.5246
    21.6054  21.6205  21.6626  21.7856  21.8257  21.8789  21.9455  22.0437
    22.0629  22.0998  22.1484  22.1962  22.2403  22.2524  22.3502  22.4304
    22.4609  22.5417  22.5466  22.5826  22.5960  22.6197  22.7293  22.7361
    22.7418  22.7533  22.8469  22.8759  22.9381  22.9779  23.0433  23.0572
    23.0731  23.1021  23.1045  23.2876  23.3832  23.3843  23.4053  23.4295
    23.4577  23.6179  23.6280  23.6715  23.6819  23.6840  23.7190  23.7317
    23.7370  23.8183  23.9300  24.0234  24.1829  24.2967  24.3960  24.4177
    24.4366  24.5077  24.5337  24.6485  24.6646  24.6659  24.8125  24.8129
    24.8804  24.8835  24.9449  24.9932  25.1015  25.1092  25.1217  25.1316
    25.1801  25.5579  25.6010  25.9854  26.1113  26.4262  26.5185  26.6086
    26.6282  26.7040  27.6183

          k = 0.0556 0.1665 0.3889 ( 30188 PWs)   bands (ev):

   -49.9183 -49.8918 -49.8479 -49.8307 -49.8289 -49.8145 -49.8117 -49.7996
   -49.7962 -49.7931 -49.7882 -49.7858 -49.7826 -49.7801 -49.7693 -49.7676
   -49.7671 -49.7662 -49.7616 -49.7506 -49.7475 -49.7438 -49.7408 -49.7384
   -49.7335 -49.7332 -49.7319 -49.7283 -49.7252 -49.7245 -49.7221 -49.7217
   -20.2891 -20.2825 -20.2577 -20.2377 -20.2242 -20.2231 -20.2118 -20.2021
   -20.2006 -20.1690 -20.1607 -20.1562 -20.1430 -20.1169 -20.1115 -20.0986
   -20.0978 -20.0960 -20.0919 -20.0817 -20.0585 -20.0452 -20.0422 -20.0248
   -20.0001 -19.9854 -19.9800 -19.9603 -19.9592 -19.9292 -19.9056 -19.9031
   -19.8990 -19.8867 -19.8768 -19.8586 -19.8429 -19.8312 -19.8295 -19.8121
   -19.7885 -19.7581 -19.7025 -19.7004 -19.6978 -19.6950 -19.6934 -19.6896
   -19.6818 -19.6733 -19.6725 -19.6482 -19.6435 -19.6384 -19.6365 -19.6335
   -19.6289 -19.6276 -19.6199 -19.6137 -19.5931 -19.5917 -19.5912 -19.5819
   -19.5782 -19.5774 -19.5760 -19.5757 -19.5753 -19.5689 -19.5688 -19.5429
   -19.5407 -19.5360 -19.5204 -19.5177 -19.5124 -19.5118 -19.5115 -19.5054
   -19.5027 -19.4997 -19.4850 -19.4843 -19.4808 -19.4769 -19.4720 -19.4680
   -19.4602 -19.4533 -19.4403 -19.4301 -19.4254 -19.4114 -19.3844 -19.3680
    15.8971  16.5682  17.2298  17.2756  17.2962  17.4219  17.5060  17.5785
    17.6120  17.6214  17.6282  17.6513  17.7256  17.7487  17.7682  17.7913
    17.8428  17.8889  17.9501  17.9533  18.0505  18.0616  18.1179  18.1503
    18.1587  18.1753  18.2834  18.3285  18.3339  18.3428  18.5087  18.5331
    18.5992  18.6071  18.6379  18.6666  18.7689  18.9669  18.9707  18.9906
    19.0027  19.1005  19.1178  19.1641  19.1781  19.2146  19.2334  19.2457
    19.2840  19.2912  19.4346  19.4369  19.4401  19.5506  19.7095  19.7130
    19.7219  19.7860  19.9858  19.9935  20.0340  20.0602  20.0959  20.0968
    20.1207  20.1579  20.1807  20.2453  20.2474  20.2572  20.3034  20.3227
    20.4267  20.4303  20.4561  20.6490  20.7050  20.7429  20.7642  20.7930
    20.8522  20.8856  20.8894  20.8946  20.9020  20.9027  20.9071  20.9441
    21.0435  21.1239  21.1834  21.2114  21.2603  21.2737  21.3619  21.3913
    21.6043  21.6993  21.7514  21.8225  21.8316  21.8840  21.9925  22.0529
    22.0724  22.1021  22.1459  22.1576  22.1620  22.1652  22.2382  22.3054
    22.3708  22.4254  22.5229  22.5511  22.5703  22.6315  22.6597  22.6780
    22.6955  22.7954  22.8392  22.8483  22.9316  22.9718  22.9846  23.0534
    23.1036  23.1447  23.2830  23.3229  23.3720  23.3743  23.4470  23.4635
    23.6462  23.6751  23.7434  23.8369  23.9598  23.9603  23.9801  23.9898
    24.0129  24.0232  24.0365  24.1282  24.1431  24.2238  24.2242  24.3236
    24.4011  24.5016  24.5090  24.5673  24.5689  24.5732  24.5753  24.5863
    24.7233  24.7250  24.7944  25.0359  25.1021  25.1064  25.1113  25.1135
    25.1171  25.2998  25.5831  25.8103  25.8456  25.9992  26.1487  26.3484
    26.8385  27.1624  27.4440

          k = 0.0556 0.1665-0.5000 ( 30214 PWs)   bands (ev):

   -49.9063 -49.9062 -49.8401 -49.8400 -49.8224 -49.8223 -49.8063 -49.8061
   -49.7915 -49.7914 -49.7909 -49.7908 -49.7815 -49.7814 -49.7681 -49.7680
   -49.7637 -49.7636 -49.7531 -49.7530 -49.7413 -49.7412 -49.7398 -49.7397
   -49.7374 -49.7372 -49.7330 -49.7329 -49.7250 -49.7248 -49.7220 -49.7218
   -20.2543 -20.2543 -20.2457 -20.2456 -20.2158 -20.2158 -20.1947 -20.1946
   -20.1933 -20.1932 -20.1925 -20.1924 -20.1544 -20.1543 -20.1076 -20.1076
   -20.0996 -20.0995 -20.0986 -20.0986 -20.0450 -20.0450 -20.0216 -20.0215
   -19.9923 -19.9923 -19.9844 -19.9844 -19.9396 -19.9396 -19.9053 -19.9053
   -19.8754 -19.8753 -19.8613 -19.8611 -19.8574 -19.8574 -19.8213 -19.8212
   -19.7909 -19.7907 -19.7016 -19.7015 -19.6936 -19.6936 -19.6686 -19.6685
   -19.6526 -19.6524 -19.6482 -19.6481 -19.6420 -19.6420 -19.6225 -19.6225
   -19.6129 -19.6128 -19.6067 -19.6066 -19.6031 -19.6031 -19.6007 -19.6007
   -19.5998 -19.5997 -19.5718 -19.5718 -19.5647 -19.5646 -19.5458 -19.5457
   -19.5438 -19.5438 -19.5293 -19.5292 -19.5274 -19.5274 -19.5076 -19.5074
   -19.5030 -19.5028 -19.4962 -19.4962 -19.4827 -19.4826 -19.4638 -19.4637
   -19.4627 -19.4626 -19.4299 -19.4298 -19.4054 -19.4052 -19.3872 -19.3871
    16.2071  16.2073  17.3991  17.3992  17.4846  17.4848  17.5190  17.5192
    17.6069  17.6069  17.7047  17.7047  17.7730  17.7731  17.8194  17.8196
    17.8472  17.8472  17.8865  17.8865  17.9884  17.9885  18.0297  18.0298
    18.0362  18.0364  18.2004  18.2004  18.3833  18.3835  18.4282  18.4283
    18.7121  18.7121  18.7271  18.7273  18.7835  18.7836  18.8732  18.8733
    19.1173  19.1173  19.1530  19.1531  19.1816  19.1816  19.2186  19.2186
    19.2848  19.2849  19.3517  19.3517  19.3670  19.3671  19.8391  19.8392
    19.8985  19.8986  19.9059  19.9061  19.9673  19.9674  20.0216  20.0216
    20.1782  20.1783  20.1890  20.1891  20.3744  20.3745  20.4023  20.4024
    20.4740  20.4740  20.5126  20.5126  20.5735  20.5736  20.7549  20.7549
    20.8598  20.8599  20.9539  20.9540  21.0327  21.0328  21.0444  21.0445
    21.0776  21.0777  21.1069  21.1069  21.5270  21.5271  21.5688  21.5688
    21.6027  21.6027  21.6524  21.6525  21.8237  21.8238  21.8281  21.8282
    22.0848  22.0849  22.2528  22.2528  22.2820  22.2821  22.3360  22.3360
    22.3410  22.3411  22.4033  22.4034  22.4668  22.4669  22.5729  22.5730
    22.7690  22.7691  22.7907  22.7908  22.8961  22.8962  23.1565  23.1567
    23.1940  23.1941  23.1972  23.1973  23.2659  23.2660  23.7190  23.7191
    23.8021  23.8022  23.8147  23.8148  24.0339  24.0340  24.0897  24.0897
    24.2155  24.2156  24.2652  24.2652  24.2688  24.2689  24.2879  24.2880
    24.2886  24.2887  24.2964  24.2965  24.3087  24.3087  24.4984  24.4984
    24.6373  24.6373  25.0633  25.0633  25.1053  25.1054  25.1137  25.1139
    25.3545  25.3546  25.5791  25.5792  25.5869  25.5869  26.1206  26.1208
    27.1848  27.1849  27.6108

          k = 0.0556 0.2774 0.0556 ( 30216 PWs)   bands (ev):

   -49.9309 -49.8782 -49.8357 -49.8357 -49.8174 -49.8174 -49.8065 -49.8065
   -49.7928 -49.7928 -49.7856 -49.7854 -49.7803 -49.7758 -49.7758 -49.7754
   -49.7753 -49.7722 -49.7678 -49.7558 -49.7558 -49.7502 -49.7502 -49.7323
   -49.7269 -49.7269 -49.7260 -49.7260 -49.7216 -49.7215 -49.7212 -49.7211
   -20.3175 -20.3101 -20.3101 -20.2983 -20.2565 -20.2565 -20.2421 -20.1585
   -20.1439 -20.1439 -20.1229 -20.1223 -20.1223 -20.0885 -20.0885 -20.0828
   -20.0828 -20.0524 -20.0523 -20.0296 -20.0288 -20.0287 -20.0268 -20.0268
   -19.9907 -19.9907 -19.9873 -19.9873 -19.9518 -19.9518 -19.9128 -19.9128
   -19.8840 -19.8840 -19.8823 -19.8823 -19.8421 -19.8421 -19.8402 -19.8402
   -19.7413 -19.7413 -19.7228 -19.7140 -19.7140 -19.7065 -19.7065 -19.6934
   -19.6898 -19.6898 -19.6893 -19.6840 -19.6840 -19.6767 -19.6767 -19.6737
   -19.6737 -19.6557 -19.6467 -19.6467 -19.6386 -19.6053 -19.6033 -19.5673
   -19.5673 -19.5429 -19.5429 -19.5390 -19.5390 -19.5343 -19.5343 -19.5321
   -19.5227 -19.5227 -19.5195 -19.5195 -19.5035 -19.4950 -19.4882 -19.4882
   -19.4867 -19.4832 -19.4832 -19.4826 -19.4825 -19.4775 -19.4775 -19.4734
   -19.4663 -19.4511 -19.4498 -19.4498 -19.4496 -19.4014 -19.3629 -19.3603
    15.5711  16.8884  17.0259  17.0636  17.0636  17.2912  17.3430  17.3430
    17.3769  17.4585  17.5292  17.5292  17.6669  17.7515  17.7515  17.9335
    17.9335  17.9531  17.9531  18.1048  18.2132  18.3131  18.3131  18.3803
    18.4250  18.4250  18.4564  18.4564  18.5496  18.5496  18.6056  18.6056
    18.7168  18.7168  18.7665  18.7665  18.8831  18.8831  18.9701  18.9701
    19.1398  19.1398  19.3450  19.3450  19.4066  19.4066  19.4071  19.4071
    19.4264  19.4264  19.4295  19.4719  19.4719  19.5646  19.5646  19.7251
    19.7251  19.7732  19.8380  19.8380  19.9016  19.9016  19.9708  19.9708
    19.9878  19.9878  20.0508  20.0508  20.0701  20.2379  20.3023  20.3023
    20.3180  20.3180  20.3551  20.4085  20.5794  20.6275  20.6275  20.6429
    20.6525  20.6582  20.6582  20.7230  20.7271  20.7645  21.0527  21.0527
    21.1087  21.1087  21.1154  21.1154  21.3265  21.4388  21.4388  21.4733
    21.4830  21.5442  21.8913  21.9351  21.9351  22.1431  22.1431  22.1631
    22.1631  22.2010  22.2011  22.2775  22.2775  22.3975  22.3976  22.4963
    22.4963  22.6096  22.6243  22.6243  22.6343  22.6343  22.6615  22.6615
    22.7145  22.7145  22.7190  22.7876  22.8172  22.8172  22.9330  23.0006
    23.0006  23.0182  23.0671  23.0671  23.2098  23.3460  23.4129  23.4129
    23.4214  23.4938  23.4938  23.5394  23.5667  23.5667  23.5890  23.8053
    23.8053  23.9493  23.9493  24.1975  24.2162  24.2162  24.3923  24.3923
    24.4216  24.5562  24.5562  24.5608  24.5858  24.6473  24.8714  24.8714
    24.8731  24.8731  24.9318  25.2387  25.2387  25.2406  25.2406  25.3823
    25.6522  25.6522  25.8531  25.8531  26.0049  26.1572  26.1572  26.2019
    26.5078  27.0476  27.0476

          k = 0.0556 0.2774 0.1667 ( 30203 PWs)   bands (ev):

   -49.9277 -49.8758 -49.8537 -49.8340 -49.8201 -49.8160 -49.8056 -49.7993
   -49.7948 -49.7922 -49.7852 -49.7846 -49.7836 -49.7793 -49.7786 -49.7706
   -49.7690 -49.7663 -49.7614 -49.7601 -49.7563 -49.7510 -49.7447 -49.7321
   -49.7283 -49.7279 -49.7276 -49.7250 -49.7247 -49.7236 -49.7221 -49.7216
   -20.3143 -20.3109 -20.2922 -20.2759 -20.2483 -20.2456 -20.2359 -20.1654
   -20.1567 -20.1232 -20.1222 -20.1176 -20.1175 -20.1151 -20.0945 -20.0891
   -20.0881 -20.0722 -20.0708 -20.0633 -20.0605 -20.0571 -20.0533 -20.0346
   -20.0164 -19.9806 -19.9652 -19.9476 -19.9471 -19.9338 -19.9282 -19.9260
   -19.9052 -19.9009 -19.8752 -19.8610 -19.8442 -19.8081 -19.7965 -19.7705
   -19.7616 -19.7560 -19.7354 -19.7248 -19.7207 -19.7033 -19.7030 -19.7004
   -19.6958 -19.6944 -19.6881 -19.6796 -19.6711 -19.6663 -19.6646 -19.6623
   -19.6615 -19.6579 -19.6256 -19.6231 -19.6130 -19.6098 -19.5998 -19.5986
   -19.5572 -19.5571 -19.5523 -19.5501 -19.5427 -19.5412 -19.5400 -19.5375
   -19.5279 -19.5229 -19.5130 -19.5100 -19.5099 -19.5061 -19.5019 -19.4962
   -19.4953 -19.4936 -19.4914 -19.4863 -19.4786 -19.4781 -19.4716 -19.4572
   -19.4562 -19.4551 -19.4513 -19.4392 -19.4280 -19.4267 -19.3681 -19.3550
    15.6532  16.9518  17.0904  17.1103  17.1152  17.2906  17.3595  17.4443
    17.4463  17.4605  17.5187  17.5655  17.6014  17.7351  17.7672  17.9412
    17.9635  17.9722  18.0113  18.1239  18.1543  18.2471  18.2561  18.2878
    18.3129  18.3423  18.4262  18.4538  18.4732  18.4767  18.4805  18.5032
    18.6286  18.6507  18.6618  18.7664  18.8036  18.8742  18.8803  19.0438
    19.0588  19.0805  19.1191  19.2300  19.2573  19.3185  19.3357  19.3617
    19.3710  19.4271  19.4483  19.4986  19.5772  19.5879  19.6124  19.6853
    19.7096  19.7483  19.8629  19.9758  20.0117  20.0498  20.0764  20.1099
    20.1282  20.1583  20.1864  20.2160  20.2805  20.2990  20.3165  20.3353
    20.3404  20.4291  20.4548  20.4925  20.5035  20.5652  20.5999  20.6029
    20.6678  20.7269  20.7291  20.7401  20.7489  20.7610  20.9850  20.9983
    21.0322  21.0845  21.1037  21.3241  21.3272  21.3370  21.4958  21.5350
    21.6116  21.6264  21.6546  21.7830  21.8168  21.8724  21.9426  22.0391
    22.0578  22.0951  22.1470  22.1867  22.2384  22.2513  22.3479  22.4299
    22.4586  22.5412  22.5476  22.5834  22.5954  22.6182  22.7198  22.7325
    22.7438  22.7538  22.8471  22.8704  22.9363  22.9871  23.0398  23.0550
    23.0723  23.1003  23.1062  23.2920  23.3833  23.3838  23.4035  23.4385
    23.4571  23.6142  23.6319  23.6735  23.6794  23.6832  23.7137  23.7288
    23.7386  23.8174  23.9305  24.0214  24.1824  24.2960  24.3958  24.4205
    24.4315  24.5061  24.5319  24.6442  24.6617  24.6662  24.8118  24.8130
    24.8724  24.8764  24.9412  24.9989  25.1115  25.1173  25.1281  25.1379
    25.1800  25.5623  25.5960  25.9918  26.1043  26.4286  26.5265  26.6110
    26.6139  26.7045  27.6292

          k = 0.0556 0.2774 0.2778 ( 30189 PWs)   bands (ev):

   -49.9215 -49.8711 -49.8709 -49.8330 -49.8307 -49.8132 -49.8039 -49.8039
   -49.7911 -49.7910 -49.7899 -49.7826 -49.7821 -49.7817 -49.7667 -49.7664
   -49.7660 -49.7659 -49.7574 -49.7573 -49.7527 -49.7526 -49.7394 -49.7318
   -49.7311 -49.7309 -49.7308 -49.7288 -49.7283 -49.7242 -49.7240 -49.7219
   -20.3005 -20.3004 -20.2646 -20.2439 -20.2321 -20.2240 -20.2235 -20.1645
   -20.1638 -20.1608 -20.1598 -20.1235 -20.1227 -20.1013 -20.1005 -20.0959
   -20.0958 -20.0944 -20.0933 -20.0856 -20.0851 -20.0596 -20.0585 -20.0584
   -20.0439 -20.0435 -19.9634 -19.9554 -19.9288 -19.9278 -19.9084 -19.9083
   -19.8993 -19.8935 -19.8615 -19.8593 -19.7887 -19.7885 -19.7882 -19.7604
   -19.7600 -19.7559 -19.7544 -19.7237 -19.7208 -19.6999 -19.6997 -19.6884
   -19.6875 -19.6836 -19.6822 -19.6821 -19.6693 -19.6685 -19.6473 -19.6470
   -19.6308 -19.6286 -19.6278 -19.6277 -19.5926 -19.5925 -19.5903 -19.5897
   -19.5766 -19.5763 -19.5746 -19.5670 -19.5456 -19.5455 -19.5439 -19.5377
   -19.5363 -19.5348 -19.5346 -19.5335 -19.5074 -19.5070 -19.5060 -19.5054
   -19.5030 -19.4963 -19.4829 -19.4808 -19.4799 -19.4778 -19.4710 -19.4701
   -19.4651 -19.4545 -19.4534 -19.4247 -19.4245 -19.4130 -19.3794 -19.3548
    15.8149  17.0757  17.0784  17.2047  17.2153  17.2165  17.3418  17.4266
    17.5927  17.5927  17.6375  17.6385  17.7410  17.7982  17.8685  17.8704
    17.9614  18.0099  18.0124  18.0149  18.0426  18.0426  18.1252  18.1301
    18.1797  18.1798  18.2530  18.2548  18.4548  18.5377  18.5380  18.5540
    18.5550  18.5888  18.5893  18.6742  18.6760  18.7703  18.7704  18.8471
    18.8488  18.9680  19.1131  19.1138  19.1818  19.1832  19.1870  19.4239
    19.4249  19.4400  19.4407  19.4816  19.4816  19.4885  19.5474  19.8795
    19.8830  19.9900  19.9925  20.0692  20.0695  20.1377  20.1398  20.1781
    20.1826  20.1919  20.1982  20.2774  20.2978  20.3672  20.3707  20.4523
    20.4609  20.5178  20.5216  20.6713  20.6744  20.6788  20.7390  20.7573
    20.7695  20.8024  20.8056  20.8295  20.8617  20.8758  20.8768  20.8788
    21.0332  21.0363  21.1583  21.1642  21.3851  21.3945  21.5217  21.5312
    21.5793  21.5872  21.6823  21.6898  21.7041  21.7761  21.7983  21.8038
    21.8371  21.8421  22.0120  22.0342  22.1729  22.1950  22.1960  22.2016
    22.2021  22.3255  22.3957  22.5290  22.5294  22.6721  22.6919  22.6931
    22.9796  22.9808  22.9832  23.1099  23.1115  23.1353  23.1354  23.2403
    23.2430  23.2548  23.2586  23.3371  23.3406  23.4456  23.4459  23.4522
    23.4524  23.5036  23.5098  23.7676  23.7947  23.7948  23.8494  23.9406
    23.9425  23.9460  23.9668  23.9684  24.1229  24.1752  24.3490  24.3499
    24.5538  24.6767  24.6780  24.7002  24.7043  24.7047  24.7146  24.7370
    24.8777  24.8811  24.8857  24.8877  24.9230  24.9278  24.9303  24.9305
    25.0304  25.3897  25.4848  25.4896  25.9994  26.0060  27.0598  27.0602
    27.3061  27.3520  27.3640

          k = 0.0556 0.2774 0.3889 ( 30223 PWs)   bands (ev):

   -49.9124 -49.8867 -49.8642 -49.8449 -49.8259 -49.8122 -49.8092 -49.8014
   -49.7980 -49.7942 -49.7893 -49.7846 -49.7797 -49.7717 -49.7661 -49.7633
   -49.7618 -49.7589 -49.7550 -49.7545 -49.7491 -49.7459 -49.7402 -49.7356
   -49.7351 -49.7348 -49.7346 -49.7312 -49.7297 -49.7268 -49.7235 -49.7223
   -20.2794 -20.2765 -20.2286 -20.2091 -20.2084 -20.2055 -20.2038 -20.2038
   -20.1923 -20.1564 -20.1562 -20.1543 -20.1415 -20.1397 -20.1231 -20.1216
   -20.1203 -20.1077 -20.1038 -20.1012 -20.0817 -20.0772 -20.0617 -20.0548
   -20.0490 -20.0199 -19.9894 -19.9878 -19.9583 -19.9339 -19.8900 -19.8805
   -19.8700 -19.8486 -19.8420 -19.8206 -19.8195 -19.8165 -19.7963 -19.7884
   -19.7463 -19.7461 -19.7289 -19.7154 -19.7077 -19.7068 -19.6867 -19.6843
   -19.6758 -19.6708 -19.6692 -19.6596 -19.6533 -19.6514 -19.6392 -19.6323
   -19.6231 -19.6214 -19.6210 -19.6200 -19.6128 -19.6001 -19.5895 -19.5869
   -19.5828 -19.5782 -19.5648 -19.5637 -19.5635 -19.5565 -19.5557 -19.5545
   -19.5421 -19.5327 -19.5302 -19.5235 -19.5202 -19.5195 -19.5176 -19.5166
   -19.5132 -19.4975 -19.4938 -19.4890 -19.4881 -19.4854 -19.4842 -19.4721
   -19.4590 -19.4578 -19.4424 -19.4121 -19.4054 -19.3982 -19.3959 -19.3623
    16.0505  16.7011  17.2540  17.3472  17.3570  17.3977  17.4447  17.5437
    17.7098  17.7345  17.7443  17.7634  17.7715  17.7844  17.7992  17.8167
    17.8435  17.8764  17.9229  17.9400  17.9681  17.9977  18.0558  18.0602
    18.0774  18.1121  18.2574  18.2714  18.2890  18.2954  18.3389  18.4005
    18.4693  18.5679  18.6300  18.6862  18.6950  18.6977  18.7415  18.7425
    18.8376  18.9231  18.9508  19.0292  19.0686  19.1937  19.1970  19.2312
    19.3047  19.3916  19.5152  19.5206  19.5505  19.5650  19.7356  19.7863
    19.8193  19.8384  19.9248  20.0667  20.1463  20.1503  20.2369  20.2597
    20.2734  20.2943  20.3007  20.3917  20.4278  20.4412  20.4520  20.5646
    20.5660  20.6386  20.6597  20.6798  20.6834  20.7114  20.7850  20.8415
    20.8772  20.8841  20.9270  20.9366  20.9491  21.0232  21.0587  21.0604
    21.0628  21.1394  21.1623  21.1832  21.2626  21.3268  21.3790  21.4772
    21.5389  21.5402  21.5740  21.6042  21.6321  21.6561  21.6834  21.6912
    21.7986  21.8129  21.8350  21.8905  22.0131  22.0428  22.0595  22.1132
    22.2201  22.2261  22.3929  22.4172  22.5395  22.5761  22.6560  22.7404
    22.8841  22.9133  22.9231  22.9718  23.0446  23.1327  23.1963  23.2057
    23.2862  23.3190  23.3691  23.4720  23.4824  23.4983  23.5693  23.6313
    23.6808  23.6842  23.8375  23.8403  23.8419  23.8873  24.0663  24.1112
    24.1318  24.1459  24.1857  24.1921  24.2047  24.2140  24.2141  24.2581
    24.3279  24.4780  24.5478  24.5618  24.5625  24.5796  24.5938  24.5973
    24.6096  24.6772  24.8764  24.8872  24.8901  24.9067  24.9573  25.0007
    25.3216  25.4417  25.4618  25.4838  25.5238  25.8458  26.7198  26.7291
    27.4936  27.6707  27.9748

          k = 0.0556 0.2774-0.5000 ( 30218 PWs)   bands (ev):

   -49.9007 -49.9006 -49.8554 -49.8553 -49.8197 -49.8196 -49.8042 -49.8040
   -49.7982 -49.7980 -49.7872 -49.7871 -49.7761 -49.7760 -49.7610 -49.7609
   -49.7582 -49.7581 -49.7521 -49.7520 -49.7440 -49.7439 -49.7418 -49.7417
   -49.7400 -49.7398 -49.7306 -49.7305 -49.7304 -49.7303 -49.7229 -49.7228
   -20.2485 -20.2485 -20.2437 -20.2436 -20.1861 -20.1860 -20.1823 -20.1822
   -20.1780 -20.1778 -20.1574 -20.1573 -20.1511 -20.1510 -20.1436 -20.1436
   -20.1411 -20.1411 -20.1155 -20.1154 -20.0666 -20.0665 -20.0601 -20.0600
   -20.0259 -20.0258 -19.9827 -19.9827 -19.9772 -19.9771 -19.8536 -19.8536
   -19.8512 -19.8512 -19.8328 -19.8327 -19.8174 -19.8173 -19.7969 -19.7969
   -19.7784 -19.7783 -19.6858 -19.6857 -19.6852 -19.6851 -19.6807 -19.6806
   -19.6718 -19.6717 -19.6711 -19.6711 -19.6573 -19.6573 -19.6481 -19.6480
   -19.6195 -19.6194 -19.6114 -19.6113 -19.5945 -19.5944 -19.5927 -19.5926
   -19.5759 -19.5757 -19.5694 -19.5694 -19.5659 -19.5659 -19.5535 -19.5534
   -19.5405 -19.5404 -19.5260 -19.5259 -19.5243 -19.5242 -19.5236 -19.5236
   -19.5133 -19.5132 -19.5020 -19.5019 -19.4886 -19.4885 -19.4690 -19.4689
   -19.4650 -19.4648 -19.4172 -19.4171 -19.4052 -19.4052 -19.3771 -19.3770
    16.3507  16.3508  17.4776  17.4778  17.5282  17.5284  17.5356  17.5357
    17.5980  17.5980  17.6232  17.6233  17.7097  17.7098  17.8845  17.8846
    17.9009  17.9010  17.9943  17.9943  18.0137  18.0137  18.0494  18.0494
    18.0511  18.0513  18.1706  18.1706  18.1874  18.1874  18.2987  18.2988
    18.4899  18.4900  18.5960  18.5961  18.7058  18.7058  18.8311  18.8312
    18.8327  18.8327  18.9785  18.9786  19.0811  19.0812  19.1078  19.1079
    19.4760  19.4760  19.5529  19.5529  19.6446  19.6447  19.6543  19.6545
    19.6874  19.6875  19.9596  19.9597  20.2085  20.2086  20.3101  20.3102
    20.3336  20.3336  20.4284  20.4285  20.4378  20.4379  20.4787  20.4787
    20.5648  20.5648  20.7105  20.7105  20.8260  20.8261  20.9132  20.9133
    20.9226  20.9226  20.9935  20.9935  21.0386  21.0387  21.0473  21.0474
    21.2262  21.2262  21.2503  21.2503  21.2702  21.2702  21.2790  21.2790
    21.4536  21.4536  21.4604  21.4605  21.5622  21.5623  21.5703  21.5704
    21.7808  21.7809  21.9997  21.9998  22.1526  22.1527  22.1806  22.1806
    22.2160  22.2161  22.2572  22.2573  22.3658  22.3659  22.5532  22.5533
    22.7468  22.7469  23.0627  23.0628  23.1019  23.1021  23.1635  23.1636
    23.3079  23.3080  23.5601  23.5602  23.6004  23.6005  23.7156  23.7158
    23.8096  23.8097  23.8847  23.8847  23.9668  23.9668  23.9675  23.9675
    24.2214  24.2214  24.2220  24.2222  24.3260  24.3260  24.3910  24.3910
    24.3911  24.3912  24.4144  24.4145  24.4318  24.4319  24.4328  24.4328
    24.5374  24.5375  24.8952  24.8954  24.9140  24.9141  24.9662  24.9662
    25.1134  25.1135  25.6545  25.6547  26.0550  26.0551  26.1310  26.1310
    27.8533  27.8534  28.1820

          k = 0.0556 0.3884 0.0556 ( 30192 PWs)   bands (ev):

   -49.9214 -49.8946 -49.8305 -49.8305 -49.8156 -49.8156 -49.8129 -49.8129
   -49.8004 -49.8004 -49.7844 -49.7819 -49.7758 -49.7757 -49.7755 -49.7754
   -49.7708 -49.7690 -49.7686 -49.7468 -49.7468 -49.7426 -49.7426 -49.7419
   -49.7321 -49.7321 -49.7303 -49.7303 -49.7215 -49.7214 -49.7213 -49.7212
   -20.2888 -20.2783 -20.2783 -20.2631 -20.2325 -20.2325 -20.2065 -20.2044
   -20.1921 -20.1921 -20.1722 -20.1644 -20.1644 -20.0968 -20.0875 -20.0875
   -20.0739 -20.0739 -20.0676 -20.0676 -20.0421 -20.0421 -20.0014 -20.0014
   -19.9732 -19.9732 -19.9547 -19.9547 -19.9409 -19.9409 -19.9310 -19.9310
   -19.9189 -19.9189 -19.8777 -19.8777 -19.8746 -19.8745 -19.8387 -19.8387
   -19.7671 -19.7671 -19.7121 -19.7121 -19.7081 -19.7081 -19.6776 -19.6739
   -19.6688 -19.6477 -19.6477 -19.6440 -19.6440 -19.6407 -19.6407 -19.6406
   -19.6405 -19.6329 -19.6303 -19.6118 -19.6117 -19.6105 -19.5884 -19.5884
   -19.5728 -19.5728 -19.5726 -19.5725 -19.5704 -19.5657 -19.5547 -19.5547
   -19.5523 -19.5523 -19.5311 -19.5074 -19.5074 -19.4935 -19.4893 -19.4831
   -19.4831 -19.4829 -19.4829 -19.4827 -19.4827 -19.4727 -19.4727 -19.4711
   -19.4675 -19.4517 -19.4517 -19.4451 -19.4236 -19.4216 -19.3789 -19.3762
    15.8180  16.4977  17.1645  17.2413  17.2413  17.4442  17.5094  17.5112
    17.5112  17.5598  17.5702  17.7081  17.7081  17.7129  17.7129  17.8959
    17.9096  17.9204  17.9204  18.0011  18.0011  18.0688  18.1128  18.1128
    18.2534  18.2534  18.3424  18.3424  18.5489  18.5489  18.5597  18.5597
    18.6203  18.6203  18.8024  18.8024  18.8306  18.8306  19.0478  19.0478
    19.0615  19.0615  19.1534  19.1534  19.3005  19.3006  19.3409  19.3409
    19.3813  19.3813  19.4478  19.4478  19.4579  19.4579  19.7017  19.7074
    19.7074  19.7582  19.7582  19.8711  19.9902  19.9902  19.9964  19.9964
    19.9979  19.9979  20.1166  20.1701  20.1760  20.2077  20.2077  20.2282
    20.2282  20.3431  20.4241  20.4241  20.7068  20.7700  20.7700  20.7788
    20.7788  20.7965  20.7965  20.8062  20.8633  20.8662  21.0871  21.0950
    21.0950  21.1584  21.2261  21.2504  21.2613  21.2613  21.2656  21.2766
    21.7401  21.7401  22.0591  22.0591  22.0625  22.1301  22.1301  22.2656
    22.2656  22.2706  22.3210  22.3313  22.3313  22.3766  22.3766  22.4116
    22.4116  22.4617  22.4617  22.4722  22.4722  22.5266  22.5890  22.5890
    22.6257  22.6257  22.6499  22.6499  22.7378  22.7378  22.9573  22.9573
    23.0892  23.0984  23.0984  23.2071  23.2930  23.4135  23.4135  23.5472
    23.7398  23.7398  23.7421  23.8453  23.8507  23.8507  23.8895  23.8895
    24.1125  24.1125  24.1126  24.1711  24.2690  24.2690  24.2695  24.3311
    24.3311  24.3553  24.3887  24.3940  24.5656  24.5656  24.5689  24.5690
    24.6234  24.6234  24.7042  25.1572  25.1572  25.2389  25.2390  25.2400
    25.2401  25.3627  25.6287  25.6288  25.7544  26.2590  26.2590  26.3232
    26.6931  26.8616  26.8616

          k = 0.0556 0.3884 0.1667 ( 30183 PWs)   bands (ev):

   -49.9183 -49.8920 -49.8477 -49.8305 -49.8289 -49.8145 -49.8117 -49.7996
   -49.7957 -49.7931 -49.7882 -49.7855 -49.7827 -49.7801 -49.7692 -49.7682
   -49.7671 -49.7662 -49.7617 -49.7509 -49.7476 -49.7437 -49.7416 -49.7385
   -49.7339 -49.7333 -49.7318 -49.7286 -49.7245 -49.7239 -49.7220 -49.7217
   -20.2892 -20.2829 -20.2579 -20.2380 -20.2244 -20.2236 -20.2124 -20.2030
   -20.2002 -20.1697 -20.1615 -20.1568 -20.1439 -20.1157 -20.1106 -20.0982
   -20.0973 -20.0951 -20.0913 -20.0814 -20.0582 -20.0444 -20.0426 -20.0236
   -20.0005 -19.9846 -19.9787 -19.9598 -19.9585 -19.9289 -19.9054 -19.9033
   -19.8982 -19.8850 -19.8764 -19.8599 -19.8427 -19.8320 -19.8298 -19.8123
   -19.7895 -19.7610 -19.7027 -19.7011 -19.6985 -19.6938 -19.6924 -19.6869
   -19.6832 -19.6731 -19.6722 -19.6485 -19.6410 -19.6389 -19.6369 -19.6344
   -19.6296 -19.6268 -19.6217 -19.6142 -19.5935 -19.5926 -19.5911 -19.5825
   -19.5788 -19.5776 -19.5762 -19.5762 -19.5761 -19.5702 -19.5699 -19.5432
   -19.5414 -19.5371 -19.5214 -19.5178 -19.5135 -19.5115 -19.5100 -19.5042
   -19.5015 -19.4989 -19.4849 -19.4837 -19.4795 -19.4770 -19.4720 -19.4667
   -19.4589 -19.4540 -19.4405 -19.4294 -19.4255 -19.4111 -19.3842 -19.3679
    15.8961  16.5657  17.2298  17.2745  17.2938  17.4217  17.5058  17.5768
    17.6143  17.6211  17.6286  17.6511  17.7230  17.7472  17.7639  17.7917
    17.8424  17.8883  17.9491  17.9528  18.0511  18.0609  18.1171  18.1520
    18.1582  18.1745  18.2815  18.3294  18.3357  18.3421  18.5135  18.5328
    18.5981  18.6095  18.6373  18.6660  18.7680  18.9678  18.9737  18.9913
    19.0037  19.1021  19.1170  19.1656  19.1794  19.2149  19.2354  19.2443
    19.2839  19.2962  19.4374  19.4381  19.4425  19.5531  19.7063  19.7127
    19.7128  19.7852  19.9808  19.9936  20.0335  20.0635  20.0898  20.0953
    20.1254  20.1639  20.1709  20.2497  20.2503  20.2521  20.2948  20.3237
    20.4199  20.4324  20.4584  20.6553  20.7167  20.7464  20.7688  20.8018
    20.8629  20.8863  20.8905  20.8949  20.9088  20.9112  20.9147  20.9472
    21.0383  21.1317  21.1803  21.2112  21.2714  21.2825  21.3706  21.3993
    21.6090  21.6951  21.7437  21.8147  21.8269  21.8791  21.9864  22.0539
    22.0724  22.1028  22.1361  22.1582  22.1584  22.1616  22.2342  22.3011
    22.3664  22.4241  22.5211  22.5397  22.5677  22.6292  22.6568  22.6786
    22.6878  22.7920  22.8343  22.8469  22.9362  22.9687  22.9801  23.0640
    23.1024  23.1428  23.2929  23.3209  23.3705  23.3708  23.4453  23.4633
    23.6427  23.6777  23.7420  23.8350  23.9572  23.9582  23.9810  23.9879
    24.0106  24.0231  24.0347  24.1273  24.1394  24.2221  24.2241  24.3225
    24.3967  24.5014  24.5065  24.5669  24.5677  24.5680  24.5733  24.5804
    24.7212  24.7247  24.7937  25.0355  25.1032  25.1122  25.1189  25.1223
    25.1240  25.3055  25.5778  25.8164  25.8514  25.9886  26.1491  26.3557
    26.8434  27.1667  27.4532

          k = 0.0556 0.3884 0.2778 ( 30218 PWs)   bands (ev):

   -49.9124 -49.8868 -49.8641 -49.8448 -49.8259 -49.8123 -49.8092 -49.8014
   -49.7980 -49.7942 -49.7893 -49.7846 -49.7792 -49.7712 -49.7668 -49.7633
   -49.7618 -49.7589 -49.7551 -49.7549 -49.7491 -49.7458 -49.7409 -49.7357
   -49.7356 -49.7348 -49.7347 -49.7305 -49.7291 -49.7270 -49.7233 -49.7223
   -20.2795 -20.2767 -20.2288 -20.2096 -20.2085 -20.2061 -20.2045 -20.2040
   -20.1919 -20.1557 -20.1556 -20.1551 -20.1420 -20.1403 -20.1227 -20.1207
   -20.1202 -20.1084 -20.1032 -20.1007 -20.0811 -20.0777 -20.0608 -20.0552
   -20.0488 -20.0189 -19.9890 -19.9876 -19.9576 -19.9335 -19.8909 -19.8802
   -19.8699 -19.8487 -19.8399 -19.8201 -19.8199 -19.8190 -19.7960 -19.7867
   -19.7489 -19.7465 -19.7296 -19.7170 -19.7082 -19.7040 -19.6874 -19.6844
   -19.6754 -19.6700 -19.6684 -19.6571 -19.6535 -19.6534 -19.6397 -19.6321
   -19.6232 -19.6221 -19.6206 -19.6203 -19.6130 -19.6003 -19.5898 -19.5870
   -19.5827 -19.5786 -19.5648 -19.5648 -19.5645 -19.5570 -19.5562 -19.5546
   -19.5423 -19.5313 -19.5293 -19.5245 -19.5205 -19.5193 -19.5167 -19.5164
   -19.5132 -19.4986 -19.4926 -19.4897 -19.4888 -19.4854 -19.4832 -19.4709
   -19.4586 -19.4579 -19.4419 -19.4122 -19.4054 -19.3981 -19.3958 -19.3622
    16.0499  16.6991  17.2560  17.3467  17.3575  17.3957  17.4446  17.5436
    17.7087  17.7350  17.7449  17.7618  17.7713  17.7843  17.7990  17.8155
    17.8432  17.8725  17.9226  17.9402  17.9678  17.9975  18.0550  18.0612
    18.0786  18.1120  18.2566  18.2711  18.2931  18.2954  18.3372  18.4019
    18.4693  18.5670  18.6296  18.6850  18.6961  18.7001  18.7428  18.7430
    18.8379  18.9243  18.9515  19.0296  19.0686  19.1925  19.1973  19.2319
    19.3059  19.3922  19.5135  19.5260  19.5510  19.5667  19.7282  19.7861
    19.8165  19.8394  19.9262  20.0645  20.1411  20.1467  20.2370  20.2563
    20.2778  20.2968  20.3066  20.3838  20.4310  20.4467  20.4475  20.5637
    20.5680  20.6354  20.6603  20.6821  20.6829  20.7143  20.7908  20.8451
    20.8829  20.8878  20.9273  20.9318  20.9515  21.0296  21.0571  21.0572
    21.0668  21.1371  21.1726  21.1895  21.2721  21.3358  21.3826  21.4689
    21.5313  21.5467  21.5799  21.6009  21.6294  21.6529  21.6767  21.6919
    21.7990  21.8135  21.8352  21.8880  22.0089  22.0404  22.0555  22.1071
    22.2149  22.2237  22.3919  22.4156  22.5334  22.5758  22.6599  22.7381
    22.8853  22.9112  22.9227  22.9680  23.0504  23.1313  23.1946  23.2026
    23.2837  23.3261  23.3676  23.4719  23.4823  23.4980  23.5692  23.6331
    23.6806  23.6810  23.8375  23.8388  23.8404  23.8863  24.0649  24.1116
    24.1307  24.1458  24.1842  24.1907  24.2059  24.2130  24.2143  24.2545
    24.3276  24.4762  24.5445  24.5611  24.5622  24.5748  24.5924  24.5980
    24.6040  24.6741  24.8810  24.8934  24.8976  24.9121  24.9614  24.9975
    25.3263  25.4395  25.4661  25.4787  25.5246  25.8519  26.7109  26.7304
    27.4970  27.6729  27.9720

          k = 0.0556 0.3884 0.3889 ( 30218 PWs)   bands (ev):

   -49.9037 -49.8793 -49.8792 -49.8579 -49.8215 -49.8090 -49.8090 -49.8056
   -49.7998 -49.7955 -49.7955 -49.7887 -49.7646 -49.7640 -49.7586 -49.7582
   -49.7578 -49.7578 -49.7514 -49.7514 -49.7490 -49.7490 -49.7400 -49.7394
   -49.7391 -49.7390 -49.7373 -49.7367 -49.7311 -49.7255 -49.7254 -49.7231
   -20.2600 -20.2599 -20.1982 -20.1979 -20.1964 -20.1959 -20.1921 -20.1854
   -20.1800 -20.1795 -20.1626 -20.1534 -20.1532 -20.1444 -20.1437 -20.1206
   -20.1202 -20.1062 -20.1057 -20.1054 -20.1049 -20.1041 -20.1035 -20.0672
   -20.0667 -20.0651 -20.0266 -19.9819 -19.9766 -19.9242 -19.9237 -19.8534
   -19.8327 -19.8326 -19.8002 -19.7979 -19.7924 -19.7622 -19.7616 -19.7485
   -19.7466 -19.7462 -19.7459 -19.7315 -19.7288 -19.6830 -19.6819 -19.6817
   -19.6806 -19.6675 -19.6669 -19.6611 -19.6586 -19.6585 -19.6558 -19.6555
   -19.6433 -19.6429 -19.6120 -19.6115 -19.6041 -19.6038 -19.6012 -19.5917
   -19.5916 -19.5680 -19.5678 -19.5634 -19.5567 -19.5565 -19.5559 -19.5556
   -19.5386 -19.5342 -19.5338 -19.5324 -19.5321 -19.5262 -19.5177 -19.5111
   -19.5059 -19.5002 -19.4957 -19.4945 -19.4937 -19.4877 -19.4821 -19.4654
   -19.4645 -19.4604 -19.4600 -19.4127 -19.3924 -19.3893 -19.3892 -19.3636
    16.2740  16.8925  16.8939  17.4238  17.4634  17.5127  17.5400  17.5413
    17.6243  17.7789  17.7789  17.8041  17.8340  17.8348  17.8987  17.8990
    17.9107  17.9108  17.9169  17.9176  17.9475  17.9577  17.9579  18.0272
    18.0304  18.0990  18.1448  18.2127  18.2133  18.4081  18.4083  18.4084
    18.4100  18.4166  18.4174  18.4202  18.4214  18.6574  18.6579  18.6710
    18.6713  18.7245  18.7261  18.9757  18.9770  19.1032  19.3110  19.3120
    19.3162  19.3172  19.4838  19.6409  19.6425  19.6605  19.6736  19.7346
    19.7397  20.0611  20.0746  20.0748  20.2397  20.3381  20.3386  20.4541
    20.4640  20.4696  20.4720  20.4724  20.4780  20.4854  20.5105  20.5138
    20.5925  20.6386  20.7954  20.7988  20.8898  20.8920  20.9013  20.9543
    20.9580  20.9729  20.9843  21.0159  21.0716  21.0748  21.0996  21.1026
    21.2386  21.2466  21.2612  21.2632  21.2652  21.2868  21.2934  21.3423
    21.4112  21.4178  21.4509  21.4531  21.4670  21.4776  21.5216  21.5236
    21.5415  21.5466  21.6807  21.7538  21.7578  21.7849  21.7885  22.0612
    22.2143  22.2144  22.2256  22.2264  22.3112  22.3149  22.3812  22.4610
    22.7759  23.1062  23.1511  23.1525  23.1740  23.1752  23.4408  23.4444
    23.4502  23.4514  23.5507  23.5518  23.6111  23.6112  23.6799  23.7188
    23.8635  23.8646  23.9702  23.9964  23.9979  24.0138  24.0149  24.0225
    24.0236  24.1090  24.2168  24.3167  24.3517  24.3726  24.3730  24.3751
    24.3761  24.4219  24.4845  24.5386  24.5387  24.5860  24.5904  24.5994
    24.6002  24.6281  24.6314  24.6350  24.6459  24.6505  24.8185  24.8453
    24.8484  25.1779  25.3401  25.3448  26.0991  26.1017  27.3777  27.3805
    27.4423  27.4503  28.1674

          k = 0.0556 0.3884-0.5000 ( 30208 PWs)   bands (ev):

   -49.8926 -49.8924 -49.8696 -49.8695 -49.8158 -49.8157 -49.8049 -49.8047
   -49.8011 -49.8010 -49.7925 -49.7924 -49.7619 -49.7618 -49.7544 -49.7543
   -49.7531 -49.7529 -49.7506 -49.7505 -49.7465 -49.7464 -49.7448 -49.7446
   -49.7437 -49.7436 -49.7388 -49.7387 -49.7281 -49.7279 -49.7242 -49.7241
   -20.2334 -20.2334 -20.2315 -20.2315 -20.1792 -20.1791 -20.1791 -20.1791
   -20.1634 -20.1633 -20.1556 -20.1555 -20.1499 -20.1498 -20.1459 -20.1458
   -20.1284 -20.1283 -20.1159 -20.1159 -20.1055 -20.1054 -20.0939 -20.0938
   -20.0666 -20.0665 -20.0225 -20.0224 -19.9560 -19.9560 -19.8884 -19.8884
   -19.7966 -19.7966 -19.7877 -19.7876 -19.7765 -19.7764 -19.7605 -19.7604
   -19.7361 -19.7360 -19.7108 -19.7107 -19.7093 -19.7092 -19.7058 -19.7058
   -19.6981 -19.6981 -19.6631 -19.6630 -19.6504 -19.6503 -19.6420 -19.6419
   -19.6271 -19.6269 -19.6202 -19.6202 -19.6201 -19.6201 -19.6016 -19.6015
   -19.5816 -19.5815 -19.5806 -19.5806 -19.5494 -19.5493 -19.5460 -19.5459
   -19.5456 -19.5455 -19.5377 -19.5377 -19.5146 -19.5145 -19.5101 -19.5100
   -19.5061 -19.5060 -19.5017 -19.5015 -19.4834 -19.4833 -19.4783 -19.4782
   -19.4742 -19.4741 -19.4345 -19.4344 -19.3870 -19.3870 -19.3728 -19.3728
    16.5597  16.5599  17.1378  17.1380  17.6250  17.6250  17.6268  17.6269
    17.7145  17.7146  17.7472  17.7472  17.7709  17.7711  17.7811  17.7811
    17.9184  17.9184  17.9454  17.9454  18.0501  18.0503  18.1370  18.1371
    18.1444  18.1446  18.1699  18.1699  18.1741  18.1741  18.2144  18.2145
    18.3902  18.3903  18.4199  18.4200  18.5307  18.5308  18.5669  18.5670
    18.5882  18.5882  18.8761  18.8762  19.1073  19.1074  19.1200  19.1201
    19.4599  19.4600  19.4695  19.4696  19.7160  19.7160  19.7984  19.7984
    19.9234  19.9234  19.9996  19.9996  20.1954  20.1956  20.4494  20.4495
    20.4990  20.4990  20.5540  20.5540  20.6404  20.6404  20.6917  20.6917
    20.8026  20.8028  20.8243  20.8244  20.8506  20.8506  21.0065  21.0065
    21.0188  21.0189  21.0442  21.0443  21.0573  21.0573  21.0908  21.0908
    21.1567  21.1567  21.1932  21.1932  21.2109  21.2109  21.2406  21.2407
    21.3463  21.3464  21.3541  21.3542  21.5004  21.5005  21.5237  21.5238
    21.5290  21.5291  21.6854  21.6855  21.9339  21.9340  21.9402  21.9402
    21.9872  21.9873  22.0066  22.0066  22.1543  22.1545  22.3346  22.3347
    22.9772  22.9773  23.2437  23.2438  23.3555  23.3556  23.3995  23.3996
    23.4288  23.4289  23.6669  23.6669  23.7402  23.7404  23.7591  23.7592
    23.8366  23.8367  23.9182  23.9184  24.0336  24.0336  24.1715  24.1717
    24.2392  24.2393  24.3294  24.3294  24.3968  24.3968  24.3976  24.3976
    24.4151  24.4151  24.4801  24.4802  24.4832  24.4833  24.5181  24.5182
    24.5219  24.5220  24.6035  24.6036  24.6569  24.6570  24.7144  24.7144
    24.8359  24.8359  25.1918  25.1920  26.7498  26.7498  26.7558  26.7559
    28.0951  28.0952  28.1591

          k = 0.0556-0.4994 0.0556 ( 30200 PWs)   bands (ev):

   -49.9093 -49.9091 -49.8238 -49.8238 -49.8236 -49.8236 -49.8073 -49.8073
   -49.8072 -49.8072 -49.7833 -49.7832 -49.7757 -49.7756 -49.7756 -49.7754
   -49.7697 -49.7695 -49.7543 -49.7542 -49.7389 -49.7389 -49.7387 -49.7387
   -49.7360 -49.7360 -49.7359 -49.7358 -49.7215 -49.7214 -49.7213 -49.7212
   -20.2511 -20.2511 -20.2383 -20.2382 -20.2381 -20.2380 -20.2202 -20.2201
   -20.2016 -20.2016 -20.2014 -20.2014 -20.1555 -20.1554 -20.0801 -20.0801
   -20.0800 -20.0800 -20.0597 -20.0596 -20.0596 -20.0596 -19.9714 -19.9714
   -19.9713 -19.9713 -19.9492 -19.9492 -19.9491 -19.9491 -19.9162 -19.9162
   -19.9162 -19.9162 -19.9051 -19.9051 -19.9050 -19.9049 -19.8000 -19.8000
   -19.7999 -19.7999 -19.7102 -19.7101 -19.7101 -19.7100 -19.6573 -19.6571
   -19.6540 -19.6539 -19.6168 -19.6167 -19.6156 -19.6156 -19.6154 -19.6154
   -19.6083 -19.6083 -19.6083 -19.6083 -19.6061 -19.6061 -19.6060 -19.6060
   -19.5936 -19.5935 -19.5935 -19.5934 -19.5809 -19.5808 -19.5807 -19.5807
   -19.5676 -19.5675 -19.5006 -19.5005 -19.4935 -19.4935 -19.4934 -19.4934
   -19.4916 -19.4915 -19.4831 -19.4829 -19.4829 -19.4828 -19.4692 -19.4691
   -19.4599 -19.4599 -19.4598 -19.4598 -19.3994 -19.3993 -19.3969 -19.3968
    16.1322  16.1324  17.3319  17.3321  17.4618  17.4619  17.4620  17.4621
    17.6513  17.6514  17.7167  17.7169  17.7317  17.7317  17.7319  17.7319
    17.7922  17.7922  17.9550  17.9550  17.9551  17.9551  18.1242  18.1242
    18.1244  18.1244  18.3298  18.3298  18.3299  18.3299  18.6846  18.6847
    18.6847  18.6847  18.8258  18.8258  18.8260  18.8260  18.9777  18.9777
    18.9778  18.9778  19.1745  19.1745  19.1746  19.1746  19.3866  19.3866
    19.3867  19.3867  19.4082  19.4082  19.4083  19.4083  19.7126  19.7126
    19.7126  19.7126  19.9543  19.9544  19.9898  19.9899  19.9984  19.9985
    19.9986  19.9986  20.1023  20.1024  20.1025  20.1026  20.2605  20.2606
    20.4772  20.4773  20.4773  20.4773  20.5834  20.5834  20.5835  20.5835
    20.8777  20.8777  20.9510  20.9511  20.9512  20.9512  20.9996  20.9997
    21.0465  21.0467  21.0498  21.0500  21.7191  21.7191  21.7192  21.7192
    21.7249  21.7250  21.7556  21.7556  22.1115  22.1115  22.1116  22.1116
    22.2976  22.2977  22.4057  22.4057  22.4057  22.4057  22.4288  22.4288
    22.4289  22.4290  22.5091  22.5092  22.5093  22.5093  22.5208  22.5208
    22.5209  22.5209  22.5877  22.5877  22.5878  22.5878  22.8397  22.8397
    22.8398  22.8398  23.1813  23.1815  23.7756  23.7757  23.7757  23.7758
    23.7827  23.7829  23.8740  23.8741  24.0528  24.0529  24.0529  24.0530
    24.1082  24.1082  24.1359  24.1359  24.2154  24.2155  24.2155  24.2155
    24.2315  24.2315  24.2316  24.2316  24.5156  24.5157  24.6873  24.6873
    24.6873  24.6873  24.7078  24.7079  25.1100  25.1100  25.1100  25.1100
    25.2393  25.2394  25.2395  25.2396  26.0714  26.0715  26.5991  26.5991
    26.5992  26.5993  27.0901

          k = 0.0556-0.4994 0.1667 ( 30194 PWs)   bands (ev):

   -49.9064 -49.9063 -49.8399 -49.8398 -49.8224 -49.8223 -49.8063 -49.8061
   -49.7911 -49.7910 -49.7909 -49.7908 -49.7816 -49.7814 -49.7681 -49.7680
   -49.7638 -49.7636 -49.7538 -49.7537 -49.7417 -49.7416 -49.7399 -49.7397
   -49.7373 -49.7372 -49.7332 -49.7330 -49.7243 -49.7241 -49.7219 -49.7217
   -20.2547 -20.2546 -20.2463 -20.2462 -20.2163 -20.2162 -20.1954 -20.1952
   -20.1937 -20.1936 -20.1931 -20.1930 -20.1540 -20.1539 -20.1067 -20.1067
   -20.0989 -20.0988 -20.0980 -20.0980 -20.0444 -20.0444 -20.0220 -20.0219
   -19.9913 -19.9913 -19.9837 -19.9836 -19.9385 -19.9385 -19.9050 -19.9049
   -19.8752 -19.8751 -19.8597 -19.8595 -19.8576 -19.8576 -19.8226 -19.8225
[...]
   -19.5657 -19.5657 -19.5656 -19.5656 -19.5655 -19.5655 -19.5654 -19.5654
   -19.5303 -19.5303 -19.5302 -19.5302 -19.5149 -19.5149 -19.5149 -19.5149
   -19.4925 -19.4925 -19.4925 -19.4925 -19.4894 -19.4893 -19.4892 -19.4892
   -19.4568 -19.4567 -19.4566 -19.4565 -19.3755 -19.3755 -19.3755 -19.3755
    16.8272  16.8274  16.8274  16.8276  17.6863  17.6864  17.6864  17.6865
    17.7642  17.7643  17.7643  17.7643  17.8165  17.8165  17.8165  17.8165
    17.9500  17.9500  17.9502  17.9502  17.9502  17.9503  17.9504  17.9504
    18.2657  18.2657  18.2659  18.2659  18.2660  18.2660  18.2661  18.2661
    18.3662  18.3662  18.3663  18.3663  18.3663  18.3663  18.3663  18.3663
    18.6319  18.6319  18.6320  18.6320  19.2726  19.2726  19.2727  19.2727
    19.2728  19.2728  19.2729  19.2729  19.8437  19.8437  19.8437  19.8438
    20.0702  20.0703  20.0703  20.0704  20.3488  20.3489  20.3490  20.3491
    20.5683  20.5683  20.5683  20.5683  20.5802  20.5802  20.5802  20.5802
    20.9353  20.9353  20.9353  20.9353  20.9353  20.9353  20.9354  20.9354
    21.0361  21.0361  21.0362  21.0363  21.1869  21.1870  21.1870  21.1871
    21.1991  21.1992  21.1992  21.1992  21.3422  21.3423  21.3423  21.3424
    21.3497  21.3497  21.3498  21.3498  21.3499  21.3499  21.3499  21.3499
    21.6099  21.6100  21.6100  21.6101  21.7427  21.7427  21.7428  21.7428
    21.7428  21.7428  21.7429  21.7429  22.2519  22.2521  22.2521  22.2522
    23.2163  23.2165  23.2165  23.2166  23.4121  23.4122  23.4123  23.4123
    23.6257  23.6257  23.6257  23.6258  23.6258  23.6258  23.6259  23.6259
    24.1427  24.1427  24.1428  24.1428  24.2667  24.2667  24.2668  24.2668
    24.2668  24.2668  24.2669  24.2669  24.2695  24.2696  24.2696  24.2697
    24.5030  24.5031  24.5031  24.5032  24.5359  24.5359  24.5360  24.5360
    24.5360  24.5360  24.5360  24.5360  24.5454  24.5454  24.5455  24.5455
    24.7992  24.7993  24.7993  24.7993  27.4499  27.4499  27.4500  27.4500
    27.4500  27.4500  27.4501

          k =-0.5000 0.1665-0.5000 ( 30200 PWs)   bands (ev):

   -49.8797 -49.8796 -49.8795 -49.8794 -49.8245 -49.8244 -49.8243 -49.8242
   -49.7841 -49.7840 -49.7839 -49.7838 -49.7490 -49.7489 -49.7488 -49.7488
   -49.7487 -49.7487 -49.7486 -49.7486 -49.7485 -49.7485 -49.7484 -49.7483
   -49.7483 -49.7482 -49.7482 -49.7481 -49.7289 -49.7288 -49.7287 -49.7286
   -20.2061 -20.2061 -20.2061 -20.2061 -20.2061 -20.2060 -20.2060 -20.2060
   -20.1435 -20.1435 -20.1434 -20.1434 -20.1433 -20.1433 -20.1432 -20.1432
   -20.1392 -20.1390 -20.1390 -20.1390 -20.1389 -20.1389 -20.1389 -20.1388
   -20.0229 -20.0229 -20.0228 -20.0228 -19.8970 -19.8970 -19.8970 -19.8970
   -19.7450 -19.7450 -19.7450 -19.7450 -19.7450 -19.7450 -19.7450 -19.7450
   -19.7398 -19.7398 -19.7397 -19.7397 -19.7396 -19.7396 -19.7395 -19.7395
   -19.7035 -19.7035 -19.7035 -19.7035 -19.6304 -19.6304 -19.6303 -19.6302
   -19.6302 -19.6302 -19.6301 -19.6301 -19.6273 -19.6273 -19.6273 -19.6273
   -19.5781 -19.5780 -19.5780 -19.5779 -19.5691 -19.5691 -19.5690 -19.5689
   -19.5689 -19.5689 -19.5688 -19.5688 -19.5369 -19.5369 -19.5369 -19.5369
   -19.4705 -19.4705 -19.4705 -19.4705 -19.4565 -19.4564 -19.4563 -19.4563
   -19.4453 -19.4451 -19.4451 -19.4449 -19.3794 -19.3794 -19.3794 -19.3794
    16.8574  16.8576  16.8576  16.8578  17.5398  17.5398  17.5399  17.5399
    17.7962  17.7963  17.7963  17.7963  17.9159  17.9160  17.9160  17.9161
    17.9161  17.9162  17.9162  17.9162  17.9173  17.9173  17.9173  17.9173
    18.2864  18.2864  18.2864  18.2865  18.2865  18.2865  18.2865  18.2865
    18.3847  18.3847  18.3848  18.3849  18.3849  18.3850  18.3850  18.3850
    18.6635  18.6635  18.6635  18.6636  19.3054  19.3054  19.3055  19.3055
    19.3056  19.3056  19.3057  19.3057  19.7669  19.7670  19.7671  19.7672
    19.9038  19.9038  19.9039  19.9039  20.4914  20.4915  20.4915  20.4915
    20.6387  20.6387  20.6387  20.6387  20.6655  20.6655  20.6656  20.6656
    20.8827  20.8827  20.8827  20.8827  20.8828  20.8828  20.8828  20.8828
    21.0260  21.0260  21.0261  21.0262  21.0712  21.0713  21.0713  21.0713
    21.1452  21.1452  21.1452  21.1453  21.3291  21.3291  21.3291  21.3291
    21.3292  21.3293  21.3293  21.3293  21.5346  21.5347  21.5347  21.5348
    21.5401  21.5402  21.5402  21.5403  21.8218  21.8218  21.8218  21.8219
    21.8219  21.8219  21.8219  21.8220  22.3712  22.3714  22.3714  22.3715
    23.0720  23.0721  23.0721  23.0723  23.2704  23.2704  23.2704  23.2705
    23.2705  23.2706  23.2706  23.2706  23.3670  23.3671  23.3672  23.3673
    23.6222  23.6223  23.6223  23.6223  24.0020  24.0021  24.0021  24.0022
    24.5459  24.5460  24.5460  24.5460  24.5461  24.5461  24.5461  24.5462
    24.6039  24.6040  24.6040  24.6040  24.6040  24.6040  24.6040  24.6040
    24.6326  24.6326  24.6327  24.6327  24.6913  24.6914  24.6914  24.6915
    25.5616  25.5617  25.5617  25.5618  27.5337  27.5337  27.5337  27.5337
    27.5338  27.5338  27.5338

          k =-0.5000 0.2774-0.5000 ( 30196 PWs)   bands (ev):

   -49.8751 -49.8749 -49.8749 -49.8747 -49.8373 -49.8372 -49.8371 -49.8370
   -49.7713 -49.7712 -49.7711 -49.7710 -49.7489 -49.7489 -49.7488 -49.7487
   -49.7487 -49.7486 -49.7486 -49.7486 -49.7485 -49.7485 -49.7484 -49.7484
   -49.7483 -49.7483 -49.7482 -49.7481 -49.7336 -49.7335 -49.7334 -49.7332
   -20.1985 -20.1985 -20.1985 -20.1984 -20.1984 -20.1984 -20.1984 -20.1984
   -20.1605 -20.1604 -20.1604 -20.1603 -20.1555 -20.1554 -20.1553 -20.1552
   -20.1521 -20.1521 -20.1520 -20.1519 -20.1519 -20.1519 -20.1518 -20.1518
   -19.9708 -19.9708 -19.9707 -19.9707 -19.8540 -19.8540 -19.8540 -19.8540
   -19.7468 -19.7468 -19.7468 -19.7467 -19.7452 -19.7452 -19.7452 -19.7452
   -19.7452 -19.7452 -19.7452 -19.7452 -19.7419 -19.7419 -19.7418 -19.7418
   -19.7417 -19.7417 -19.7417 -19.7416 -19.6311 -19.6310 -19.6310 -19.6309
   -19.6205 -19.6205 -19.6205 -19.6204 -19.6204 -19.6203 -19.6203 -19.6203
   -19.6197 -19.6197 -19.6197 -19.6197 -19.5756 -19.5755 -19.5755 -19.5754
   -19.5754 -19.5753 -19.5753 -19.5753 -19.5578 -19.5578 -19.5578 -19.5578
   -19.4495 -19.4495 -19.4494 -19.4494 -19.4327 -19.4326 -19.4326 -19.4325
   -19.4302 -19.4301 -19.4300 -19.4299 -19.3871 -19.3871 -19.3871 -19.3871
    16.9168  16.9169  16.9170  16.9171  17.3891  17.3892  17.3892  17.3893
    17.8525  17.8525  17.8525  17.8526  17.8985  17.8985  17.8985  17.8986
    17.8986  17.8987  17.8987  17.8987  17.9785  17.9785  17.9785  17.9785
    18.1715  18.1715  18.1715  18.1716  18.1716  18.1716  18.1716  18.1717
    18.5664  18.5664  18.5664  18.5665  18.5666  18.5666  18.5666  18.5666
    18.7305  18.7306  18.7306  18.7306  19.2942  19.2942  19.2943  19.2943
    19.2944  19.2944  19.2944  19.2945  19.4743  19.4744  19.4745  19.4746
    20.0169  20.0169  20.0169  20.0169  20.4925  20.4925  20.4925  20.4925
    20.7424  20.7425  20.7425  20.7425  20.8198  20.8199  20.8199  20.8200
    20.8665  20.8665  20.8666  20.8666  20.8666  20.8666  20.8666  20.8666
    20.9962  20.9963  20.9963  20.9963  21.0071  21.0071  21.0072  21.0072
    21.0707  21.0707  21.0707  21.0707  21.2810  21.2810  21.2810  21.2811
    21.2812  21.2812  21.2812  21.2812  21.4118  21.4119  21.4119  21.4120
    21.7601  21.7602  21.7602  21.7603  21.9399  21.9399  21.9400  21.9400
    21.9400  21.9400  21.9401  21.9401  22.5749  22.5750  22.5750  22.5752
    22.8390  22.8391  22.8392  22.8393  22.8854  22.8854  22.8855  22.8855
    22.8856  22.8856  22.8856  22.8857  23.2735  23.2736  23.2736  23.2737
    23.2853  23.2854  23.2854  23.2855  23.7123  23.7124  23.7124  23.7125
    24.7159  24.7159  24.7159  24.7159  24.7159  24.7160  24.7160  24.7160
    24.7508  24.7508  24.7509  24.7509  24.7772  24.7772  24.7772  24.7773
    24.7773  24.7773  24.7774  24.7774  24.8247  24.8247  24.8247  24.8248
    26.4077  26.4078  26.4078  26.4079  27.7069  27.7069  27.7069  27.7069
    27.7070  27.7070  27.7071

          k =-0.5000 0.3884-0.5000 ( 30204 PWs)   bands (ev):

   -49.8683 -49.8681 -49.8681 -49.8679 -49.8491 -49.8490 -49.8489 -49.8488
   -49.7596 -49.7594 -49.7593 -49.7592 -49.7489 -49.7488 -49.7487 -49.7487
   -49.7486 -49.7486 -49.7486 -49.7485 -49.7485 -49.7485 -49.7484 -49.7484
   -49.7484 -49.7483 -49.7483 -49.7482 -49.7404 -49.7402 -49.7402 -49.7400
   -20.1880 -20.1880 -20.1880 -20.1879 -20.1879 -20.1879 -20.1879 -20.1878
   -20.1725 -20.1724 -20.1723 -20.1723 -20.1687 -20.1686 -20.1685 -20.1684
   -20.1633 -20.1633 -20.1633 -20.1632 -20.1632 -20.1631 -20.1631 -20.1631
   -19.9147 -19.9146 -19.9146 -19.9146 -19.8018 -19.8017 -19.8017 -19.8017
   -19.7996 -19.7995 -19.7995 -19.7995 -19.7453 -19.7453 -19.7453 -19.7453
   -19.7453 -19.7453 -19.7452 -19.7452 -19.7437 -19.7437 -19.7437 -19.7436
   -19.7436 -19.7436 -19.7435 -19.7435 -19.6875 -19.6875 -19.6874 -19.6874
   -19.6086 -19.6086 -19.6086 -19.6086 -19.6085 -19.6085 -19.6084 -19.6084
   -19.6083 -19.6083 -19.6083 -19.6083 -19.5848 -19.5848 -19.5848 -19.5847
   -19.5846 -19.5846 -19.5846 -19.5846 -19.5772 -19.5772 -19.5772 -19.5772
   -19.4300 -19.4300 -19.4300 -19.4300 -19.4185 -19.4185 -19.4184 -19.4184
   -19.4184 -19.4183 -19.4183 -19.4182 -19.3984 -19.3984 -19.3984 -19.3984
    17.0033  17.0035  17.0035  17.0037  17.2445  17.2447  17.2447  17.2448
    17.9161  17.9161  17.9161  17.9161  17.9162  17.9162  17.9163  17.9163
    17.9176  17.9176  17.9176  17.9176  17.9955  17.9955  17.9955  17.9955
    18.0595  18.0596  18.0596  18.0596  18.0597  18.0597  18.0597  18.0598
    18.7796  18.7796  18.7796  18.7797  18.7798  18.7798  18.7798  18.7798
    18.8402  18.8403  18.8403  18.8403  19.1855  19.1855  19.1856  19.1856
    19.1856  19.1857  19.1857  19.1858  19.2140  19.2141  19.2141  19.2142
    20.1658  20.1658  20.1658  20.1658  20.4363  20.4363  20.4363  20.4363
    20.8878  20.8878  20.8878  20.8878  20.9087  20.9087  20.9087  20.9087
    20.9402  20.9402  20.9402  20.9403  20.9403  20.9403  20.9403  20.9403
    20.9619  20.9619  20.9619  20.9620  20.9818  20.9819  20.9819  20.9820
    21.0055  21.0055  21.0055  21.0055  21.1950  21.1950  21.1950  21.1950
    21.1951  21.1951  21.1952  21.1952  21.2445  21.2445  21.2445  21.2446
    22.0133  22.0133  22.0134  22.0135  22.0855  22.0855  22.0855  22.0855
    22.0856  22.0856  22.0856  22.0856  22.5449  22.5449  22.5450  22.5450
    22.5450  22.5451  22.5451  22.5451  22.5672  22.5673  22.5674  22.5674
    22.8297  22.8298  22.8298  22.8299  23.1142  23.1143  23.1143  23.1143
    23.1867  23.1868  23.1868  23.1869  23.4123  23.4124  23.4124  23.4125
    24.8317  24.8318  24.8318  24.8318  24.8318  24.8318  24.8318  24.8318
    24.8503  24.8504  24.8504  24.8505  24.8961  24.8961  24.8962  24.8962
    24.8975  24.8975  24.8976  24.8976  24.8976  24.8976  24.8977  24.8977
    27.3188  27.3189  27.3189  27.3190  27.9657  27.9658  27.9658  27.9658
    27.9659  27.9659  27.9659

          k =-0.5000-0.4994-0.5000 ( 30280 PWs)   bands (ev):

   -49.8596 -49.8595 -49.8595 -49.8594 -49.8593 -49.8593 -49.8592 -49.8591
   -49.7492 -49.7491 -49.7491 -49.7490 -49.7489 -49.7489 -49.7489 -49.7488
   -49.7488 -49.7487 -49.7487 -49.7487 -49.7486 -49.7486 -49.7485 -49.7485
   -49.7485 -49.7485 -49.7485 -49.7484 -49.7484 -49.7483 -49.7483 -49.7482
   -20.1759 -20.1759 -20.1759 -20.1758 -20.1758 -20.1758 -20.1758 -20.1757
   -20.1757 -20.1757 -20.1757 -20.1757 -20.1756 -20.1756 -20.1756 -20.1756
   -20.1749 -20.1749 -20.1748 -20.1748 -20.1748 -20.1747 -20.1747 -20.1746
   -19.8568 -19.8567 -19.8567 -19.8567 -19.8567 -19.8567 -19.8567 -19.8566
   -19.7453 -19.7452 -19.7452 -19.7452 -19.7452 -19.7452 -19.7452 -19.7451
   -19.7449 -19.7449 -19.7449 -19.7449 -19.7449 -19.7448 -19.7448 -19.7448
   -19.7448 -19.7448 -19.7448 -19.7448 -19.7448 -19.7448 -19.7448 -19.7447
   -19.5962 -19.5962 -19.5962 -19.5962 -19.5962 -19.5962 -19.5962 -19.5961
   -19.5961 -19.5960 -19.5960 -19.5960 -19.5960 -19.5960 -19.5960 -19.5960
   -19.5944 -19.5944 -19.5944 -19.5944 -19.5942 -19.5942 -19.5942 -19.5942
   -19.4140 -19.4139 -19.4139 -19.4139 -19.4139 -19.4138 -19.4137 -19.4137
   -19.4129 -19.4129 -19.4129 -19.4129 -19.4128 -19.4128 -19.4128 -19.4128
    17.1139  17.1141  17.1141  17.1141  17.1142  17.1143  17.1143  17.1144
    17.9710  17.9710  17.9711  17.9711  17.9711  17.9711  17.9711  17.9711
    17.9712  17.9712  17.9712  17.9712  17.9713  17.9713  17.9713  17.9713
    17.9713  17.9713  17.9713  17.9713  17.9715  17.9715  17.9715  17.9715
    18.9982  18.9983  18.9983  18.9983  18.9983  18.9983  18.9983  18.9984
    18.9984  18.9985  18.9985  18.9985  18.9985  18.9985  18.9985  18.9986
    19.0004  19.0004  19.0005  19.0005  19.0006  19.0006  19.0006  19.0007
    20.3193  20.3194  20.3194  20.3194  20.3194  20.3194  20.3194  20.3194
    20.9520  20.9520  20.9520  20.9520  20.9520  20.9521  20.9521  20.9521
    20.9663  20.9664  20.9664  20.9664  20.9664  20.9664  20.9664  20.9665
    21.0618  21.0618  21.0619  21.0619  21.0619  21.0619  21.0620  21.0620
    21.0705  21.0705  21.0705  21.0706  21.0706  21.0706  21.0706  21.0706
    21.0706  21.0706  21.0707  21.0707  21.0707  21.0707  21.0707  21.0707
    22.2786  22.2787  22.2787  22.2787  22.2787  22.2788  22.2788  22.2788
    22.2788  22.2788  22.2788  22.2788  22.2789  22.2789  22.2789  22.2790
    22.2861  22.2861  22.2862  22.2862  22.2862  22.2863  22.2863  22.2863
    23.1090  23.1091  23.1091  23.1091  23.1091  23.1092  23.1092  23.1092
    23.1138  23.1139  23.1139  23.1139  23.1140  23.1140  23.1141  23.1141
    24.9032  24.9033  24.9033  24.9033  24.9033  24.9034  24.9034  24.9034
    24.9062  24.9062  24.9062  24.9062  24.9063  24.9063  24.9063  24.9063
    24.9063  24.9063  24.9063  24.9063  24.9064  24.9064  24.9064  24.9064
    28.2761  28.2769  28.2774  28.2781  28.2792  28.2809  28.2822  28.2837
    28.2848  28.2848  28.2848

     the Fermi energy is    23.0789 ev

!    total energy              =  -13813.30088077 Ry

     total all-electron energy =   -289989.691220 Ry
     estimated scf accuracy    <       0.00000003 Ry
     smearing contrib. (-TS)   =       0.02033590 Ry
     internal energy E=F+TS    =  -13813.32121667 Ry

     The total energy is F=E-TS. E is the sum of the following terms:
     one-electron contribution =    -998.71489708 Ry
     hartree contribution      =     916.96540946 Ry
     xc contribution           =    -928.01744155 Ry
     ewald contribution        =   -5214.11377420 Ry
     one-center paw contrib.   =   -7589.44051330 Ry

     convergence has been achieved in  13 iterations

     Forces acting on atoms (cartesian axes, Ry/au):

     atom    1 type  1   force =     0.00000000    0.00000000    0.00000000
     atom    2 type  1   force =    -0.00000722    0.00002519   -0.00000000
     atom    3 type  1   force =     0.00000387   -0.00000000    0.00000387
     atom    4 type  1   force =     0.00000000    0.00002519   -0.00000722
     atom    5 type  1   force =     0.00000000    0.00000000    0.00000000
     atom    6 type  1   force =    -0.00001841    0.00002272   -0.00000000
     atom    7 type  1   force =     0.00000387    0.00000000   -0.00000387
     atom    8 type  1   force =     0.00000000    0.00002519    0.00000722
     atom    9 type  1   force =     0.00000000    0.00000000    0.00000000
     atom   10 type  1   force =    -0.00000722   -0.00002519    0.00000000
     atom   11 type  1   force =    -0.00001292    0.00000000   -0.00001292
     atom   12 type  1   force =     0.00000000   -0.00002519   -0.00000722
     atom   13 type  1   force =     0.00000000    0.00000000    0.00000000
     atom   14 type  1   force =    -0.00001841   -0.00002272   -0.00000000
     atom   15 type  1   force =    -0.00001292   -0.00000000    0.00001292
     atom   16 type  1   force =     0.00000000   -0.00002519    0.00000722
     atom   17 type  1   force =     0.00000000    0.00000000    0.00000000
     atom   18 type  1   force =     0.00000722    0.00002519    0.00000000
     atom   19 type  1   force =    -0.00000387    0.00000000    0.00000387
     atom   20 type  1   force =     0.00000000    0.00002272   -0.00001841
     atom   21 type  1   force =     0.00000000    0.00000000    0.00000000
     atom   22 type  1   force =     0.00001841    0.00002272   -0.00000000
     atom   23 type  1   force =    -0.00000387   -0.00000000   -0.00000387
     atom   24 type  1   force =     0.00000000    0.00002272    0.00001841
     atom   25 type  1   force =     0.00000000    0.00000000    0.00000000
     atom   26 type  1   force =     0.00000722   -0.00002519   -0.00000000
     atom   27 type  1   force =     0.00001292   -0.00000000   -0.00001292
     atom   28 type  1   force =     0.00000000   -0.00002272   -0.00001841
     atom   29 type  1   force =     0.00000000    0.00000000    0.00000000
     atom   30 type  1   force =     0.00001841   -0.00002272   -0.00000000
     atom   31 type  1   force =     0.00001292    0.00000000    0.00001292
     atom   32 type  1   force =     0.00000000   -0.00002272    0.00001841

     Total force =     0.000117     Total SCF correction =     0.000499
     SCF correction compared to forces is large: reduce conv_thr to get better values


     Computing stress (Cartesian axis) and pressure

          total   stress  (Ry/bohr**3)                   (kbar)     P=       -8.11
  -0.00004803   0.00000000   0.00000000           -7.06        0.00        0.00
   0.00000000  -0.00006943   0.00000000            0.00      -10.21        0.00
   0.00000000   0.00000000  -0.00004803            0.00        0.00       -7.06


     Writing output data file /scratch/hcOoMotcjEQqkRiR.save/
 
     init_run     :     28.07s CPU     28.52s WALL (       1 calls)
     electrons    :   1113.35s CPU   1130.89s WALL (       1 calls)
     forces       :     11.30s CPU     11.52s WALL (       1 calls)
     stress       :     66.35s CPU     66.91s WALL (       1 calls)

     Called by init_run:
     wfcinit      :     27.15s CPU     27.53s WALL (       1 calls)
     potinit      :      0.19s CPU      0.20s WALL (       1 calls)
     hinit0       :      0.37s CPU      0.38s WALL (       1 calls)

     Called by electrons:
     c_bands      :    990.95s CPU   1006.08s WALL (      14 calls)
     sum_band     :    120.65s CPU    122.79s WALL (      14 calls)
     v_of_rho     :      0.20s CPU      0.23s WALL (      14 calls)
     newd         :      0.32s CPU      0.46s WALL (      14 calls)
     PAW_pot      :      1.23s CPU      1.30s WALL (      14 calls)
     mix_rho      :      0.06s CPU      0.08s WALL (      14 calls)

     Called by c_bands:
     init_us_2    :      4.62s CPU      4.70s WALL (    2325 calls)
     cegterg      :    975.02s CPU    989.50s WALL (    1050 calls)

     Called by *egterg:
     cdiaghg      :    119.06s CPU    120.04s WALL (    3916 calls)
     h_psi        :    526.76s CPU    536.44s WALL (    4066 calls)
     s_psi        :     37.03s CPU     37.29s WALL (    4066 calls)
     g_psi        :      0.89s CPU      0.91s WALL (    2941 calls)

     Called by h_psi:
     h_psi:calbec :     72.83s CPU     73.53s WALL (    4066 calls)
     vloc_psi     :    415.96s CPU    424.30s WALL (    4066 calls)
     add_vuspsi   :     35.69s CPU     36.32s WALL (    4066 calls)

     General routines
     calbec       :    114.51s CPU    115.66s WALL (    5491 calls)
     fft          :      0.24s CPU      0.26s WALL (     206 calls)
     ffts         :      0.02s CPU      0.03s WALL (      28 calls)
     fftw         :    484.53s CPU    493.85s WALL ( 1908488 calls)
     interpolate  :      0.03s CPU      0.04s WALL (      14 calls)
 
     Parallel routines
     fft_scatt_xy :     33.05s CPU     33.57s WALL ( 1908722 calls)
     fft_scatt_yz :    394.83s CPU    402.83s WALL ( 1908722 calls)
 
     PWSCF        :  20m38.12s CPU  21m 0.41s WALL

 
   This run was terminated on:  17:12:16  23Nov2021            

=------------------------------------------------------------------------------=
   JOB DONE.
=------------------------------------------------------------------------------=
