
     Program PWSCF v.6.7MaX starts on 23Nov2021 at 17:12:39 

     This program is part of the open-source Quantum ESPRESSO suite
     for quantum simulation of materials; please cite
         "P. Giannozzi et al., J. Phys.:Condens. Matter 21 395502 (2009);
         "P. Giannozzi et al., J. Phys.:Condens. Matter 29 465901 (2017);
          URL http://www.quantum-espresso.org", 
     in publications or presentations arising from this work. More details at
     http://www.quantum-espresso.org/quote

     Parallel version (MPI & OpenMP), running on      72 processor cores
     Number of MPI processes:                72
     Threads/MPI process:                     1

     MPI processes distributed on     1 nodes
     R & G space division:  proc/nbgrp/npool/nimage =      72
     Reading input from /rds/homes/b/bxp912/jobs/20211014_ru_eos/wd/ec/ec_2_004.in
Warning: card &CELL ignored
Warning: card CELL_DYNAMICS = 'BFGS', ignored
Warning: card CELL_FACTOR = 2.0, ignored
Warning: card PRESS = 0.0, ignored
Warning: card / ignored

     Current dimensions of program PWSCF are:
     Max number of different atomic species (ntypx) = 10
     Max number of k-points (npk) =  40000
     Max angular momentum in pseudopotentials (lmaxx) =  3
     file Ru.pbe-spn-kjpaw_psl.1.0.0.UPF: wavefunction(s)  4D renormalized

     Subspace diagonalization in iterative solution of the eigenvalue problem:
     one sub-group per band group will be used
     ELPA distributed-memory algorithm (size of sub-group:  8*  8 procs)

     Found symmetry operation: I + (  0.2500  0.2500  0.0000)
     This is a supercell, fractional translations are disabled
     Message from routine setup:
     using ibrav=0 with symmetry is DISCOURAGED, use correct ibrav instead
 
     Parallelization info
     --------------------
     sticks:   dense  smooth     PW     G-vecs:    dense   smooth      PW
     Min          98      65     17                 6256     3357     475
     Max          99      66     18                 6261     3362     482
     Sum        7125    4705   1281               450647   241905   34465
 


     bravais-lattice index     =            0
     lattice parameter (alat)  =      14.4007  a.u.
     unit-cell volume          =    2992.0449 (a.u.)^3
     number of atoms/cell      =           32
     number of atomic types    =            1
     number of electrons       =       512.00
     number of Kohn-Sham states=          307
     kinetic-energy cutoff     =      71.0000  Ry
     charge density cutoff     =     430.0000  Ry
     scf convergence threshold =      1.0E-06
     mixing beta               =       0.1000
     number of iterations used =           10  plain     mixing
     Exchange-correlation= SLA  PW   PBX  PBC
                           (   1   4   3   4   0   0   0)

     celldm(1)=  14.400742  celldm(2)=   0.000000  celldm(3)=   0.000000
     celldm(4)=   0.000000  celldm(5)=   0.000000  celldm(6)=   0.000000

     crystal axes: (cart. coord. in units of alat)
               a(1) = (   1.000000   0.000000   0.000000 )  
               a(2) = (   0.000000   1.001875   0.000000 )  
               a(3) = (   0.000000   0.000000   1.000000 )  

     reciprocal axes: (cart. coord. in units 2 pi/alat)
               b(1) = (  1.000000  0.000000  0.000000 )  
               b(2) = (  0.000000  0.998129  0.000000 )  
               b(3) = (  0.000000  0.000000  1.000000 )  


     PseudoPot. # 1 for Ru read from file:
     /rds/homes/b/bxp912/pp/Ru.pbe-spn-kjpaw_psl.1.0.0.UPF
     MD5 check sum: 0ae1f594dea09af7be8575c3a481d1ae
     Pseudo is Projector augmented-wave + core cor, Zval = 16.0
     Generated using "atomic" code by A. Dal Corso  v.5.1
     Shape of augmentation charge: PSQ
     Using radial grid of 1233 points,  6 beta functions with: 
                l(1) =   0
                l(2) =   0
                l(3) =   1
                l(4) =   1
                l(5) =   2
                l(6) =   2
     Q(r) pseudized with 0 coefficients 


     atomic species   valence    mass     pseudopotential
        Ru            16.00   101.07000     Ru( 1.00)

     16 Sym. Ops., with inversion, found



   Cartesian axes

     site n.     atom                  positions (alat units)
         1           Ru  tau(   1) = (   0.0000000   0.0000000   0.0000000  )
         2           Ru  tau(   2) = (   0.2500000   0.2504688   0.0000000  )
         3           Ru  tau(   3) = (   0.2500000   0.0000000   0.2499995  )
         4           Ru  tau(   4) = (   0.0000000   0.2504688   0.2499995  )
         5           Ru  tau(   5) = (   0.0000000   0.0000000   0.5000000  )
         6           Ru  tau(   6) = (   0.2499990   0.2504677   0.5000000  )
         7           Ru  tau(   7) = (   0.2500000   0.0000000   0.7499995  )
         8           Ru  tau(   8) = (   0.0000000   0.2504688   0.7499995  )
         9           Ru  tau(   9) = (   0.0000000   0.5009377   0.0000000  )
        10           Ru  tau(  10) = (   0.2500000   0.7514067   0.0000000  )
        11           Ru  tau(  11) = (   0.2499990   0.5009377   0.2499984  )
        12           Ru  tau(  12) = (   0.0000000   0.7514067   0.2499995  )
        13           Ru  tau(  13) = (   0.0000000   0.5009377   0.5000000  )
        14           Ru  tau(  14) = (   0.2499990   0.7514077   0.5000000  )
        15           Ru  tau(  15) = (   0.2499990   0.5009377   0.7500005  )
        16           Ru  tau(  16) = (   0.0000000   0.7514067   0.7499995  )
        17           Ru  tau(  17) = (   0.5000002   0.0000000   0.0000000  )
        18           Ru  tau(  18) = (   0.7500004   0.2504688   0.0000000  )
        19           Ru  tau(  19) = (   0.7500004   0.0000000   0.2499995  )
        20           Ru  tau(  20) = (   0.5000002   0.2504677   0.2499984  )
        21           Ru  tau(  21) = (   0.5000002   0.0000000   0.5000000  )
        22           Ru  tau(  22) = (   0.7500015   0.2504677   0.5000000  )
        23           Ru  tau(  23) = (   0.7500004   0.0000000   0.7499995  )
        24           Ru  tau(  24) = (   0.5000002   0.2504677   0.7500005  )
        25           Ru  tau(  25) = (   0.5000002   0.5009377   0.0000000  )
        26           Ru  tau(  26) = (   0.7500004   0.7514067   0.0000000  )
        27           Ru  tau(  27) = (   0.7500015   0.5009377   0.2499984  )
        28           Ru  tau(  28) = (   0.5000002   0.7514077   0.2499984  )
        29           Ru  tau(  29) = (   0.5000002   0.5009377   0.5000000  )
        30           Ru  tau(  30) = (   0.7500015   0.7514077   0.5000000  )
        31           Ru  tau(  31) = (   0.7500015   0.5009377   0.7500005  )
        32           Ru  tau(  32) = (   0.5000002   0.7514077   0.7500005  )

     number of k points=    75  Marzari-Vanderbilt smearing, width (Ry)=  0.0400
                       cart. coord. in units 2pi/alat
        k(    1) = (   0.0555556   0.0554516   0.0555556), wk =   0.0219479
        k(    2) = (   0.0555556   0.0554516   0.1666667), wk =   0.0438957
        k(    3) = (   0.0555556   0.0554516   0.2777778), wk =   0.0438957
        k(    4) = (   0.0555556   0.0554516   0.3888889), wk =   0.0438957
        k(    5) = (   0.0555556   0.0554516  -0.5000000), wk =   0.0219479
        k(    6) = (   0.0555556   0.1663548   0.0555556), wk =   0.0219479
        k(    7) = (   0.0555556   0.1663548   0.1666667), wk =   0.0438957
        k(    8) = (   0.0555556   0.1663548   0.2777778), wk =   0.0438957
        k(    9) = (   0.0555556   0.1663548   0.3888889), wk =   0.0438957
        k(   10) = (   0.0555556   0.1663548  -0.5000000), wk =   0.0219479
        k(   11) = (   0.0555556   0.2772579   0.0555556), wk =   0.0219479
        k(   12) = (   0.0555556   0.2772579   0.1666667), wk =   0.0438957
        k(   13) = (   0.0555556   0.2772579   0.2777778), wk =   0.0438957
        k(   14) = (   0.0555556   0.2772579   0.3888889), wk =   0.0438957
        k(   15) = (   0.0555556   0.2772579  -0.5000000), wk =   0.0219479
        k(   16) = (   0.0555556   0.3881611   0.0555556), wk =   0.0219479
        k(   17) = (   0.0555556   0.3881611   0.1666667), wk =   0.0438957
        k(   18) = (   0.0555556   0.3881611   0.2777778), wk =   0.0438957
        k(   19) = (   0.0555556   0.3881611   0.3888889), wk =   0.0438957
        k(   20) = (   0.0555556   0.3881611  -0.5000000), wk =   0.0219479
        k(   21) = (   0.0555556  -0.4990643   0.0555556), wk =   0.0109739
        k(   22) = (   0.0555556  -0.4990643   0.1666667), wk =   0.0219479
        k(   23) = (   0.0555556  -0.4990643   0.2777778), wk =   0.0219479
        k(   24) = (   0.0555556  -0.4990643   0.3888889), wk =   0.0219479
        k(   25) = (   0.0555556  -0.4990643  -0.5000000), wk =   0.0109739
        k(   26) = (   0.1666667   0.0554516   0.1666667), wk =   0.0219479
        k(   27) = (   0.1666667   0.0554516   0.2777778), wk =   0.0438957
        k(   28) = (   0.1666667   0.0554516   0.3888889), wk =   0.0438957
        k(   29) = (   0.1666667   0.0554516  -0.5000000), wk =   0.0219479
        k(   30) = (   0.1666667   0.1663548   0.1666667), wk =   0.0219479
        k(   31) = (   0.1666667   0.1663548   0.2777778), wk =   0.0438957
        k(   32) = (   0.1666667   0.1663548   0.3888889), wk =   0.0438957
        k(   33) = (   0.1666667   0.1663548  -0.5000000), wk =   0.0219479
        k(   34) = (   0.1666667   0.2772579   0.1666667), wk =   0.0219479
        k(   35) = (   0.1666667   0.2772579   0.2777778), wk =   0.0438957
        k(   36) = (   0.1666667   0.2772579   0.3888889), wk =   0.0438957
        k(   37) = (   0.1666667   0.2772579  -0.5000000), wk =   0.0219479
        k(   38) = (   0.1666667   0.3881611   0.1666667), wk =   0.0219479
        k(   39) = (   0.1666667   0.3881611   0.2777778), wk =   0.0438957
        k(   40) = (   0.1666667   0.3881611   0.3888889), wk =   0.0438957
        k(   41) = (   0.1666667   0.3881611  -0.5000000), wk =   0.0219479
        k(   42) = (   0.1666667  -0.4990643   0.1666667), wk =   0.0109739
        k(   43) = (   0.1666667  -0.4990643   0.2777778), wk =   0.0219479
        k(   44) = (   0.1666667  -0.4990643   0.3888889), wk =   0.0219479
        k(   45) = (   0.1666667  -0.4990643  -0.5000000), wk =   0.0109739
        k(   46) = (   0.2777778   0.0554516   0.2777778), wk =   0.0219479
        k(   47) = (   0.2777778   0.0554516   0.3888889), wk =   0.0438957
        k(   48) = (   0.2777778   0.0554516  -0.5000000), wk =   0.0219479
        k(   49) = (   0.2777778   0.1663548   0.2777778), wk =   0.0219479
        k(   50) = (   0.2777778   0.1663548   0.3888889), wk =   0.0438957
        k(   51) = (   0.2777778   0.1663548  -0.5000000), wk =   0.0219479
        k(   52) = (   0.2777778   0.2772579   0.2777778), wk =   0.0219479
        k(   53) = (   0.2777778   0.2772579   0.3888889), wk =   0.0438957
        k(   54) = (   0.2777778   0.2772579  -0.5000000), wk =   0.0219479
        k(   55) = (   0.2777778   0.3881611   0.2777778), wk =   0.0219479
        k(   56) = (   0.2777778   0.3881611   0.3888889), wk =   0.0438957
        k(   57) = (   0.2777778   0.3881611  -0.5000000), wk =   0.0219479
        k(   58) = (   0.2777778  -0.4990643   0.2777778), wk =   0.0109739
        k(   59) = (   0.2777778  -0.4990643   0.3888889), wk =   0.0219479
        k(   60) = (   0.2777778  -0.4990643  -0.5000000), wk =   0.0109739
        k(   61) = (   0.3888889   0.0554516   0.3888889), wk =   0.0219479
        k(   62) = (   0.3888889   0.0554516  -0.5000000), wk =   0.0219479
        k(   63) = (   0.3888889   0.1663548   0.3888889), wk =   0.0219479
        k(   64) = (   0.3888889   0.1663548  -0.5000000), wk =   0.0219479
        k(   65) = (   0.3888889   0.2772579   0.3888889), wk =   0.0219479
        k(   66) = (   0.3888889   0.2772579  -0.5000000), wk =   0.0219479
        k(   67) = (   0.3888889   0.3881611   0.3888889), wk =   0.0219479
        k(   68) = (   0.3888889   0.3881611  -0.5000000), wk =   0.0219479
        k(   69) = (   0.3888889  -0.4990643   0.3888889), wk =   0.0109739
        k(   70) = (   0.3888889  -0.4990643  -0.5000000), wk =   0.0109739
        k(   71) = (  -0.5000000   0.0554516  -0.5000000), wk =   0.0054870
        k(   72) = (  -0.5000000   0.1663548  -0.5000000), wk =   0.0054870
        k(   73) = (  -0.5000000   0.2772579  -0.5000000), wk =   0.0054870
        k(   74) = (  -0.5000000   0.3881611  -0.5000000), wk =   0.0054870
        k(   75) = (  -0.5000000  -0.4990643  -0.5000000), wk =   0.0027435

     Dense  grid:   450647 G-vectors     FFT dimensions: (  96,  96,  96)

     Smooth grid:   241905 G-vectors     FFT dimensions: (  80,  80,  80)

     Estimated max dynamical RAM per process >     185.67 MB

     Estimated total dynamical RAM >      13.05 GB

     Check: negative core charge=   -0.000002

     Initial potential from superposition of free atoms

     starting charge  511.97959, renormalised to  512.00000
     Starting wfcs are  320 randomized atomic wfcs
     Checking if some PAW data can be deallocated... 

     total cpu time spent up to now is       30.3 secs

     Self-consistent Calculation

     iteration #  1     ecut=    71.00 Ry     beta= 0.10
     Davidson diagonalization with overlap
     ethr =  1.00E-02,  avg # of iterations =  3.3

     Threshold (ethr) on eigenvalues was too large:
     Diagonalizing with lowered threshold

     Davidson diagonalization with overlap
     ethr =  8.30E-05,  avg # of iterations =  5.3

     total cpu time spent up to now is      215.0 secs

     total energy              =  -13813.41260708 Ry
     estimated scf accuracy    <       0.63783983 Ry

     iteration #  2     ecut=    71.00 Ry     beta= 0.10
     Davidson diagonalization with overlap
     ethr =  1.25E-04,  avg # of iterations =  1.0

     total cpu time spent up to now is      282.5 secs

     total energy              =  -13813.20863227 Ry
     estimated scf accuracy    <       0.39859513 Ry

     iteration #  3     ecut=    71.00 Ry     beta= 0.10
     Davidson diagonalization with overlap
     ethr =  7.79E-05,  avg # of iterations =  2.3

     total cpu time spent up to now is      370.6 secs

     total energy              =  -13813.29863043 Ry
     estimated scf accuracy    <       0.04998198 Ry

     iteration #  4     ecut=    71.00 Ry     beta= 0.10
     Davidson diagonalization with overlap
     ethr =  9.76E-06,  avg # of iterations =  2.7

     total cpu time spent up to now is      441.7 secs

     total energy              =  -13813.29999354 Ry
     estimated scf accuracy    <       0.00885155 Ry

     iteration #  5     ecut=    71.00 Ry     beta= 0.10
     Davidson diagonalization with overlap
     ethr =  1.73E-06,  avg # of iterations =  2.3

     total cpu time spent up to now is      509.8 secs

     total energy              =  -13813.30098520 Ry
     estimated scf accuracy    <       0.00560653 Ry

     iteration #  6     ecut=    71.00 Ry     beta= 0.10
     Davidson diagonalization with overlap
     ethr =  1.10E-06,  avg # of iterations =  3.4

     total cpu time spent up to now is      607.2 secs

     total energy              =  -13813.29986056 Ry
     estimated scf accuracy    <       0.01399703 Ry

     iteration #  7     ecut=    71.00 Ry     beta= 0.10
     Davidson diagonalization with overlap
     ethr =  1.10E-06,  avg # of iterations =  2.4

     total cpu time spent up to now is      692.5 secs

     total energy              =  -13813.30081270 Ry
     estimated scf accuracy    <       0.00118022 Ry

     iteration #  8     ecut=    71.00 Ry     beta= 0.10
     Davidson diagonalization with overlap
     ethr =  2.31E-07,  avg # of iterations =  2.2

     total cpu time spent up to now is      761.4 secs

     total energy              =  -13813.30083360 Ry
     estimated scf accuracy    <       0.00027104 Ry

     iteration #  9     ecut=    71.00 Ry     beta= 0.10
     Davidson diagonalization with overlap
     ethr =  5.29E-08,  avg # of iterations =  2.3

     total cpu time spent up to now is      829.6 secs

     total energy              =  -13813.30080231 Ry
     estimated scf accuracy    <       0.00009767 Ry

     iteration # 10     ecut=    71.00 Ry     beta= 0.10
     Davidson diagonalization with overlap
     ethr =  1.91E-08,  avg # of iterations =  3.0

     total cpu time spent up to now is      915.5 secs

     total energy              =  -13813.30082205 Ry
     estimated scf accuracy    <       0.00000362 Ry

     iteration # 11     ecut=    71.00 Ry     beta= 0.10
     Davidson diagonalization with overlap
     ethr =  7.07E-10,  avg # of iterations =  4.1

     total cpu time spent up to now is      999.1 secs

     total energy              =  -13813.30082293 Ry
     estimated scf accuracy    <       0.00000123 Ry

     iteration # 12     ecut=    71.00 Ry     beta= 0.10
     Davidson diagonalization with overlap
     ethr =  2.41E-10,  avg # of iterations =  2.6

     total cpu time spent up to now is     1077.4 secs

     End of self-consistent calculation

          k = 0.0556 0.0555 0.0556 ( 30281 PWs)   bands (ev):

   -49.9573 -49.8586 -49.8580 -49.8580 -49.8396 -49.8389 -49.8389 -49.8035
   -49.8034 -49.8034 -49.7941 -49.7931 -49.7931 -49.7930 -49.7930 -49.7929
   -49.7928 -49.7924 -49.7924 -49.7924 -49.7842 -49.7842 -49.7841 -49.7399
   -49.7389 -49.7389 -49.7388 -49.7388 -49.7386 -49.7386 -49.7382 -49.7382
   -20.3591 -20.3591 -20.3590 -20.3550 -20.2970 -20.2970 -20.2964 -20.0994
   -20.0967 -20.0967 -20.0882 -20.0882 -20.0854 -20.0854 -20.0853 -20.0853
   -20.0682 -20.0651 -20.0651 -20.0451 -20.0451 -20.0430 -20.0430 -20.0428
   -20.0428 -19.9950 -19.9950 -19.9927 -19.9927 -19.9923 -19.9923 -19.8948
   -19.8947 -19.8942 -19.8221 -19.8221 -19.8214 -19.8143 -19.8143 -19.8138
   -19.7810 -19.7810 -19.7806 -19.7806 -19.7801 -19.7801 -19.7409 -19.7409
   -19.7402 -19.7345 -19.7345 -19.7341 -19.7341 -19.7328 -19.7328 -19.7299
   -19.7299 -19.7260 -19.7239 -19.7239 -19.7214 -19.5633 -19.5633 -19.5612
   -19.5612 -19.5608 -19.5601 -19.5312 -19.5312 -19.5296 -19.5296 -19.5289
   -19.5288 -19.5158 -19.5158 -19.5135 -19.5042 -19.5028 -19.5028 -19.5025
   -19.5025 -19.5024 -19.5024 -19.5004 -19.5004 -19.4999 -19.4999 -19.4984
   -19.4984 -19.4956 -19.4841 -19.4841 -19.4821 -19.3711 -19.3643 -19.3641
    15.3016  16.8637  16.8637  16.8654  17.1416  17.1594  17.1594  17.1594
    17.3311  17.3311  17.3331  17.5491  17.5558  17.5558  17.7215  17.7280
    17.7280  18.2631  18.2631  18.2731  18.2731  18.2735  18.2735  18.5808
    18.5872  18.5873  18.8475  18.8475  18.8479  18.8520  18.8604  18.8604
    18.9538  18.9547  18.9547  18.9572  18.9572  18.9572  18.9572  18.9576
    18.9577  19.4435  19.4435  19.4485  19.4485  19.4527  19.4528  19.5859
    19.5955  19.5955  19.6174  19.6174  19.6273  19.6273  19.6280  19.6280
    19.6825  19.6915  19.6915  19.9466  19.9466  19.9490  19.9490  19.9506
    19.9506  19.9506  19.9506  19.9526  19.9526  19.9528  19.9547  19.9547
    19.9574  19.9574  20.1211  20.1212  20.1230  20.3943  20.4091  20.4091
    20.4302  20.4533  20.4534  20.4534  20.4683  20.5312  20.5630  20.5740
    21.5280  21.5454  21.5454  21.6964  21.7153  21.7153  21.7558  21.7558
    21.7620  21.8556  21.8556  21.8563  21.8563  21.8613  21.8613  21.8700
    21.8700  21.8748  22.1640  22.1640  22.1742  22.2849  22.2849  22.2912
    22.5320  22.5321  22.5415  22.6097  22.6097  22.6141  22.6141  22.6146
    22.6146  22.6283  22.6284  22.6369  22.6689  22.6690  22.6749  22.8577
    22.8577  22.8580  22.8580  22.8656  22.8656  22.9056  22.9324  23.0306
    23.0306  23.0384  23.6880  23.6880  23.7003  23.7387  23.7387  23.7412
    23.8483  23.8483  23.8588  23.9401  24.6682  24.6682  24.6696  24.7050
    24.7167  24.7398  24.7487  24.7487  25.0250  25.0303  25.0303  25.0520
    25.0520  25.0580  25.2090  25.2090  25.2097  25.2097  25.2185  25.2203
    25.2204  25.2246  25.2246  26.6550  26.6550  26.6682  26.8033  26.8391
    26.8391  27.1868  27.1868

          k = 0.0556 0.0555 0.1667 ( 30270 PWs)   bands (ev):

   -49.9540 -49.8768 -49.8567 -49.8562 -49.8380 -49.8373 -49.8200 -49.8138
   -49.8137 -49.8031 -49.8018 -49.8016 -49.7958 -49.7930 -49.7929 -49.7925
   -49.7924 -49.7908 -49.7844 -49.7827 -49.7826 -49.7756 -49.7754 -49.7420
   -49.7406 -49.7404 -49.7400 -49.7399 -49.7397 -49.7390 -49.7387 -49.7386
   -20.3516 -20.3478 -20.3477 -20.3397 -20.2886 -20.2881 -20.2840 -20.1277
   -20.1143 -20.1142 -20.1037 -20.1013 -20.1012 -20.0988 -20.0933 -20.0913
   -20.0912 -20.0706 -20.0675 -20.0551 -20.0534 -20.0419 -20.0416 -20.0400
   -20.0385 -20.0029 -20.0008 -19.9860 -19.9837 -19.9728 -19.9439 -19.9434
   -19.9075 -19.9067 -19.8628 -19.8619 -19.8309 -19.8300 -19.8205 -19.8193
   -19.7892 -19.7518 -19.7514 -19.7395 -19.7393 -19.7388 -19.7365 -19.7342
   -19.7338 -19.7328 -19.7247 -19.7244 -19.7208 -19.7197 -19.7186 -19.7184
   -19.7177 -19.7169 -19.7141 -19.7012 -19.7008 -19.5949 -19.5922 -19.5687
   -19.5679 -19.5549 -19.5526 -19.5366 -19.5359 -19.5354 -19.5330 -19.5269
   -19.5249 -19.5215 -19.5196 -19.5196 -19.5153 -19.5138 -19.5123 -19.5031
   -19.5024 -19.5024 -19.5024 -19.5020 -19.5004 -19.4996 -19.4981 -19.4955
   -19.4947 -19.4938 -19.4845 -19.4723 -19.4705 -19.3884 -19.3699 -19.3678
    15.3879  16.9145  16.9274  16.9291  17.1813  17.2164  17.2164  17.2338
    17.2533  17.3692  17.3928  17.3951  17.6114  17.6179  17.7507  17.7871
    17.7934  18.1519  18.1531  18.3119  18.3212  18.3217  18.3299  18.3308
    18.5355  18.6203  18.6261  18.6409  18.6413  18.6914  18.7102  18.7111
    18.8852  18.8928  18.8969  18.8970  18.9204  18.9216  18.9911  18.9989
    19.0522  19.0528  19.1424  19.4263  19.4309  19.4474  19.4526  19.4983
    19.5056  19.5124  19.5200  19.5730  19.5793  19.6640  19.6644  19.6986
    19.7707  19.7733  19.7939  19.7963  19.8912  19.9045  19.9092  19.9349
    19.9376  19.9493  19.9525  19.9535  19.9598  20.1999  20.2016  20.2229
    20.2240  20.2466  20.3009  20.3373  20.3569  20.3746  20.4408  20.4730
    20.4800  20.4940  20.4981  20.5063  20.5149  20.5163  20.5981  20.6187
    21.3000  21.3113  21.4287  21.4419  21.5326  21.5534  21.6634  21.6637
    21.6937  21.7905  21.7963  21.8247  21.9675  21.9718  21.9727  22.0019
    22.0052  22.0487  22.0522  22.0834  22.1431  22.1502  22.4667  22.4745
    22.4857  22.4887  22.5001  22.5080  22.6119  22.6160  22.6265  22.6310
    22.7472  22.7534  22.7730  22.7744  22.8529  22.8675  22.8782  22.8808
    22.9214  22.9383  23.0817  23.0823  23.0978  23.1451  23.1511  23.2309
    23.2636  23.2702  23.2748  23.3251  23.3285  23.5143  23.5344  23.7506
    23.7613  23.9420  23.9502  24.0111  24.4631  24.4771  24.5802  24.5815
    24.5974  24.6277  24.6903  24.6988  24.7002  24.8945  24.9606  25.0829
    25.0834  25.0961  25.0975  25.1098  25.2056  25.2080  25.2102  25.2120
    25.3922  25.3963  25.6201  26.1381  26.1485  26.5367  26.5966  26.6621
    26.6756  27.1312  27.1314

          k = 0.0556 0.0555 0.2778 ( 30238 PWs)   bands (ev):

   -49.9475 -49.8947 -49.8531 -49.8526 -49.8349 -49.8343 -49.8238 -49.8235
   -49.8101 -49.8098 -49.8025 -49.8020 -49.7974 -49.7930 -49.7929 -49.7925
   -49.7924 -49.7892 -49.7849 -49.7729 -49.7727 -49.7674 -49.7671 -49.7486
   -49.7441 -49.7436 -49.7433 -49.7427 -49.7398 -49.7392 -49.7387 -49.7386
   -20.3331 -20.3257 -20.3256 -20.3138 -20.2722 -20.2717 -20.2585 -20.1733
   -20.1587 -20.1585 -20.1376 -20.1373 -20.1372 -20.1069 -20.1050 -20.1010
   -20.0991 -20.0699 -20.0690 -20.0474 -20.0464 -20.0446 -20.0444 -20.0432
   -20.0096 -20.0066 -20.0054 -20.0037 -19.9704 -19.9683 -19.9301 -19.9287
   -19.9014 -19.9002 -19.8969 -19.8962 -19.8598 -19.8583 -19.8580 -19.8567
   -19.7563 -19.7547 -19.7393 -19.7332 -19.7310 -19.7261 -19.7219 -19.7135
   -19.7080 -19.7067 -19.7064 -19.7000 -19.7000 -19.6935 -19.6930 -19.6899
   -19.6898 -19.6725 -19.6631 -19.6630 -19.6559 -19.6250 -19.6217 -19.5831
   -19.5825 -19.5604 -19.5582 -19.5564 -19.5546 -19.5506 -19.5500 -19.5480
   -19.5410 -19.5394 -19.5359 -19.5352 -19.5195 -19.5142 -19.5063 -19.5059
   -19.5051 -19.5024 -19.5023 -19.5019 -19.5011 -19.4950 -19.4937 -19.4924
   -19.4853 -19.4696 -19.4678 -19.4674 -19.4660 -19.4189 -19.3808 -19.3780
    15.5576  16.8776  17.0129  17.0518  17.0535  17.2781  17.3298  17.3299
    17.3637  17.4448  17.5157  17.5185  17.6567  17.7320  17.7379  17.9145
    17.9203  17.9451  17.9467  18.0940  18.1998  18.2997  18.3000  18.3670
    18.4048  18.4134  18.4351  18.4442  18.5347  18.5365  18.5885  18.5951
    18.6981  18.7027  18.7525  18.7539  18.8692  18.8703  18.9497  18.9558
    19.1254  19.1270  19.3254  19.3298  19.3893  19.3923  19.3931  19.3977
    19.4058  19.4107  19.4250  19.4501  19.4553  19.5454  19.5526  19.7049
    19.7084  19.7631  19.8244  19.8285  19.8901  19.8934  19.9474  19.9553
    19.9635  19.9705  20.0293  20.0323  20.0624  20.2337  20.2887  20.2968
    20.2984  20.3011  20.3548  20.4045  20.5517  20.5967  20.6097  20.6247
    20.6256  20.6408  20.6437  20.6909  20.7118  20.7485  21.0248  21.0325
    21.0849  21.0873  21.0966  21.0987  21.3019  21.4143  21.4152  21.4496
    21.4627  21.5200  21.8856  21.9218  21.9260  22.1311  22.1362  22.1484
    22.1519  22.1866  22.1888  22.2636  22.2659  22.3820  22.3877  22.4817
    22.4879  22.6053  22.6072  22.6088  22.6195  22.6210  22.6432  22.6470
    22.6985  22.7026  22.7168  22.7681  22.7973  22.8000  22.9146  22.9847
    22.9856  22.9866  23.0526  23.0543  23.1897  23.3220  23.3912  23.3923
    23.3938  23.4764  23.4796  23.5196  23.5493  23.5535  23.5702  23.7792
    23.7967  23.9291  23.9361  24.1730  24.1976  24.2010  24.3747  24.3748
    24.4075  24.5383  24.5391  24.5441  24.5721  24.6328  24.8517  24.8520
    24.8619  24.8633  24.9119  25.2038  25.2069  25.2105  25.2109  25.3558
    25.6311  25.6386  25.8265  25.8282  26.0084  26.1351  26.1459  26.1764
    26.4774  27.0152  27.0154

          k = 0.0556 0.0555 0.3889 ( 30208 PWs)   bands (ev):

   -49.9380 -49.9112 -49.8478 -49.8473 -49.8329 -49.8326 -49.8305 -49.8299
   -49.8179 -49.8174 -49.8016 -49.7990 -49.7929 -49.7928 -49.7926 -49.7925
   -49.7879 -49.7857 -49.7853 -49.7639 -49.7636 -49.7599 -49.7595 -49.7582
   -49.7493 -49.7488 -49.7477 -49.7471 -49.7397 -49.7393 -49.7387 -49.7385
   -20.3044 -20.2938 -20.2936 -20.2784 -20.2481 -20.2476 -20.2217 -20.2208
   -20.2073 -20.2070 -20.1871 -20.1797 -20.1794 -20.1134 -20.1055 -20.1041
   -20.0917 -20.0905 -20.0849 -20.0848 -20.0594 -20.0590 -20.0198 -20.0170
   -19.9912 -19.9897 -19.9734 -19.9705 -19.9586 -19.9567 -19.9494 -19.9474
   -19.9365 -19.9352 -19.8957 -19.8937 -19.8926 -19.8910 -19.8532 -19.8524
   -19.7818 -19.7805 -19.7316 -19.7287 -19.7278 -19.7238 -19.6976 -19.6925
   -19.6851 -19.6637 -19.6635 -19.6606 -19.6605 -19.6572 -19.6571 -19.6570
   -19.6564 -19.6527 -19.6488 -19.6280 -19.6280 -19.6269 -19.6043 -19.6038
   -19.5901 -19.5898 -19.5884 -19.5882 -19.5864 -19.5832 -19.5709 -19.5705
   -19.5685 -19.5682 -19.5472 -19.5252 -19.5244 -19.5127 -19.5084 -19.5022
   -19.5021 -19.5019 -19.5015 -19.5003 -19.4997 -19.4902 -19.4902 -19.4898
   -19.4866 -19.4692 -19.4683 -19.4627 -19.4419 -19.4397 -19.3969 -19.3940
    15.8050  16.4862  17.1521  17.2302  17.2320  17.4311  17.4981  17.4981
    17.4985  17.5466  17.5570  17.6988  17.6988  17.7006  17.7022  17.8842
    17.8964  17.9021  17.9072  17.9879  17.9881  18.0557  18.0950  18.1002
    18.2375  18.2429  18.3266  18.3296  18.5310  18.5375  18.5447  18.5476
    18.6004  18.6084  18.7894  18.7899  18.8125  18.8152  19.0336  19.0362
    19.0420  19.0459  19.1352  19.1371  19.2816  19.2835  19.3227  19.3250
    19.3645  19.3712  19.4271  19.4364  19.4378  19.4420  19.6874  19.6908
    19.6986  19.7427  19.7452  19.8622  19.9655  19.9719  19.9746  19.9797
    19.9864  19.9909  20.1108  20.1626  20.1752  20.1961  20.2046  20.2046
    20.2083  20.3381  20.4003  20.4029  20.6794  20.7401  20.7495  20.7522
    20.7590  20.7697  20.7752  20.7790  20.8309  20.8505  21.0611  21.0715
    21.0819  21.1415  21.2003  21.2343  21.2359  21.2378  21.2406  21.2562
    21.7152  21.7304  22.0480  22.0502  22.0607  22.1192  22.1220  22.2466
    22.2485  22.2521  22.3031  22.3189  22.3199  22.3623  22.3641  22.3979
    22.4008  22.4480  22.4500  22.4587  22.4628  22.5249  22.5720  22.5747
    22.6128  22.6138  22.6337  22.6366  22.7229  22.7247  22.9424  22.9439
    23.0568  23.0720  23.0894  23.2024  23.2619  23.3985  23.4002  23.5289
    23.7186  23.7205  23.7228  23.8273  23.8346  23.8347  23.8735  23.8746
    24.0960  24.0966  24.0982  24.1558  24.2498  24.2524  24.2566  24.3135
    24.3177  24.3320  24.3719  24.3739  24.5459  24.5506  24.5537  24.5571
    24.6052  24.6065  24.6833  25.1370  25.1415  25.2039  25.2057  25.2105
    25.2106  25.3616  25.6076  25.6156  25.7271  26.2314  26.2319  26.2938
    26.6659  26.8307  26.8309

          k = 0.0556 0.0555-0.5000 ( 30232 PWs)   bands (ev):

   -49.9259 -49.9257 -49.8411 -49.8409 -49.8407 -49.8405 -49.8248 -49.8246
   -49.8243 -49.8241 -49.8005 -49.8003 -49.7929 -49.7927 -49.7927 -49.7925
   -49.7868 -49.7866 -49.7707 -49.7705 -49.7560 -49.7559 -49.7556 -49.7555
   -49.7533 -49.7532 -49.7529 -49.7527 -49.7396 -49.7394 -49.7387 -49.7385
   -20.2665 -20.2664 -20.2536 -20.2535 -20.2533 -20.2532 -20.2354 -20.2354
   -20.2170 -20.2169 -20.2167 -20.2165 -20.1720 -20.1719 -20.0977 -20.0977
   -20.0970 -20.0970 -20.0771 -20.0770 -20.0766 -20.0765 -19.9896 -19.9895
   -19.9872 -19.9871 -19.9670 -19.9669 -19.9656 -19.9655 -19.9346 -19.9346
   -19.9321 -19.9320 -19.9234 -19.9232 -19.9216 -19.9214 -19.8145 -19.8144
   -19.8135 -19.8133 -19.7298 -19.7297 -19.7262 -19.7261 -19.6772 -19.6771
   -19.6727 -19.6725 -19.6329 -19.6329 -19.6316 -19.6314 -19.6311 -19.6310
   -19.6253 -19.6252 -19.6245 -19.6244 -19.6231 -19.6230 -19.6216 -19.6216
   -19.6099 -19.6098 -19.6097 -19.6096 -19.5971 -19.5969 -19.5968 -19.5967
   -19.5839 -19.5838 -19.5181 -19.5180 -19.5108 -19.5108 -19.5107 -19.5107
   -19.5106 -19.5106 -19.5022 -19.5020 -19.5019 -19.5017 -19.4883 -19.4881
   -19.4772 -19.4771 -19.4769 -19.4768 -19.4175 -19.4174 -19.4149 -19.4148
    16.1199  16.1200  17.3203  17.3204  17.4516  17.4517  17.4534  17.4535
    17.6382  17.6382  17.7042  17.7043  17.7186  17.7186  17.7188  17.7188
    17.7791  17.7791  17.9401  17.9402  17.9444  17.9445  18.1072  18.1073
    18.1114  18.1115  18.3134  18.3135  18.3176  18.3177  18.6695  18.6696
    18.6730  18.6730  18.8081  18.8082  18.8144  18.8145  18.9604  18.9605
    18.9609  18.9610  19.1562  19.1562  19.1573  19.1574  19.3672  19.3673
    19.3756  19.3756  19.3907  19.3907  19.3921  19.3921  19.6953  19.6953
    19.6960  19.6960  19.9525  19.9526  19.9738  19.9739  19.9824  19.9824
    19.9825  19.9825  20.0912  20.0913  20.0973  20.0974  20.2542  20.2543
    20.4521  20.4521  20.4571  20.4571  20.5578  20.5578  20.5618  20.5618
    20.8508  20.8509  20.9224  20.9225  20.9300  20.9301  20.9733  20.9733
    21.0150  21.0151  21.0329  21.0330  21.7012  21.7012  21.7017  21.7018
    21.7076  21.7076  21.7381  21.7381  22.1018  22.1019  22.1020  22.1021
    22.2961  22.2962  22.3798  22.3799  22.3963  22.3963  22.4165  22.4166
    22.4182  22.4183  22.4938  22.4940  22.4959  22.4960  22.5087  22.5088
    22.5091  22.5092  22.5731  22.5732  22.5753  22.5754  22.8257  22.8258
    22.8258  22.8259  23.1495  23.1497  23.7600  23.7602  23.7613  23.7614
    23.7738  23.7740  23.8573  23.8574  24.0346  24.0347  24.0378  24.0379
    24.0853  24.0853  24.1196  24.1197  24.1974  24.1975  24.2013  24.2014
    24.2148  24.2149  24.2175  24.2176  24.4934  24.4935  24.6685  24.6685
    24.6697  24.6698  24.7003  24.7004  25.0900  25.0900  25.0950  25.0950
    25.2046  25.2047  25.2104  25.2106  26.0431  26.0432  26.5699  26.5700
    26.5701  26.5701  27.0605

          k = 0.0556 0.1664 0.0556 ( 30244 PWs)   bands (ev):

   -49.9540 -49.8773 -49.8562 -49.8562 -49.8373 -49.8373 -49.8208 -49.8137
   -49.8137 -49.8031 -49.8015 -49.8015 -49.7958 -49.7930 -49.7929 -49.7924
   -49.7924 -49.7908 -49.7845 -49.7828 -49.7828 -49.7756 -49.7756 -49.7432
   -49.7407 -49.7407 -49.7403 -49.7403 -49.7387 -49.7386 -49.7382 -49.7382
   -20.3516 -20.3478 -20.3478 -20.3398 -20.2887 -20.2887 -20.2835 -20.1298
   -20.1166 -20.1166 -20.1011 -20.1011 -20.0984 -20.0984 -20.0958 -20.0930
   -20.0930 -20.0678 -20.0678 -20.0533 -20.0533 -20.0398 -20.0398 -20.0387
   -20.0387 -20.0008 -20.0008 -19.9834 -19.9834 -19.9722 -19.9465 -19.9465
   -19.9072 -19.9071 -19.8624 -19.8624 -19.8305 -19.8305 -19.8196 -19.8196
   -19.7890 -19.7514 -19.7514 -19.7407 -19.7407 -19.7403 -19.7403 -19.7335
   -19.7321 -19.7321 -19.7228 -19.7228 -19.7205 -19.7196 -19.7196 -19.7184
   -19.7184 -19.7161 -19.7139 -19.7016 -19.7016 -19.5922 -19.5908 -19.5706
   -19.5706 -19.5533 -19.5533 -19.5382 -19.5382 -19.5354 -19.5354 -19.5269
   -19.5269 -19.5215 -19.5203 -19.5203 -19.5146 -19.5146 -19.5130 -19.5042
   -19.5010 -19.5003 -19.5003 -19.4996 -19.4996 -19.4981 -19.4972 -19.4956
   -19.4956 -19.4928 -19.4825 -19.4723 -19.4723 -19.3885 -19.3697 -19.3678
    15.3875  16.9158  16.9271  16.9271  17.1812  17.2164  17.2164  17.2338
    17.2470  17.3710  17.3930  17.3930  17.6176  17.6176  17.7451  17.7930
    17.7930  18.1433  18.1433  18.3210  18.3210  18.3253  18.3309  18.3310
    18.5347  18.6265  18.6265  18.6399  18.6399  18.6901  18.7096  18.7096
    18.8932  18.8932  18.8954  18.8954  18.9211  18.9211  18.9951  18.9951
    19.0530  19.0530  19.1319  19.4226  19.4226  19.4564  19.4564  19.5064
    19.5064  19.5209  19.5209  19.5781  19.5781  19.6654  19.6655  19.6931
    19.7733  19.7733  19.7877  19.7877  19.8809  19.8998  19.8998  19.9390
    19.9390  19.9533  19.9533  19.9641  19.9641  20.2025  20.2025  20.2263
    20.2263  20.2499  20.3012  20.3218  20.3589  20.3589  20.4275  20.4621
    20.4866  20.5009  20.5009  20.5145  20.5145  20.5312  20.6145  20.6208
    21.3153  21.3153  21.4446  21.4446  21.5200  21.5621  21.6713  21.6713
    21.7008  21.7887  21.7887  21.8353  21.9667  21.9667  21.9742  21.9999
    21.9999  22.0460  22.0460  22.0635  22.1378  22.1378  22.4656  22.4656
    22.4854  22.4854  22.4972  22.4972  22.6156  22.6156  22.6295  22.6295
    22.7459  22.7459  22.7688  22.7688  22.8343  22.8732  22.8774  22.8774
    22.9301  22.9567  23.0870  23.0870  23.1019  23.1449  23.1449  23.2360
    23.2632  23.2632  23.2777  23.3275  23.3275  23.5149  23.5482  23.7512
    23.7512  23.9419  23.9419  24.0199  24.4667  24.4667  24.5800  24.5800
    24.5895  24.6296  24.6899  24.6899  24.6918  24.8891  24.9690  25.0820
    25.0820  25.0840  25.0840  25.1087  25.2216  25.2216  25.2244  25.2244
    25.3992  25.3992  25.6259  26.1381  26.1381  26.5029  26.6094  26.6623
    26.6623  27.1466  27.1466

          k = 0.0556 0.1664 0.1667 ( 30261 PWs)   bands (ev):

   -49.9508 -49.8752 -49.8747 -49.8544 -49.8359 -49.8257 -49.8195 -49.8188
   -49.8131 -49.8130 -49.8013 -49.8012 -49.7991 -49.7941 -49.7899 -49.7896
   -49.7892 -49.7892 -49.7830 -49.7829 -49.7762 -49.7761 -49.7685 -49.7432
   -49.7422 -49.7420 -49.7419 -49.7411 -49.7404 -49.7399 -49.7395 -49.7387
   -20.3445 -20.3444 -20.3331 -20.3208 -20.2804 -20.2765 -20.2758 -20.1360
   -20.1340 -20.1299 -20.1276 -20.0981 -20.0977 -20.0969 -20.0964 -20.0946
   -20.0904 -20.0899 -20.0866 -20.0849 -20.0682 -20.0657 -20.0632 -20.0631
   -20.0034 -19.9815 -19.9808 -19.9769 -19.9769 -19.9611 -19.9590 -19.9388
   -19.9358 -19.9209 -19.9040 -19.8479 -19.8259 -19.8258 -19.7887 -19.7886
   -19.7784 -19.7771 -19.7561 -19.7535 -19.7531 -19.7350 -19.7308 -19.7201
   -19.7195 -19.7172 -19.7166 -19.7165 -19.7153 -19.7149 -19.7148 -19.7143
   -19.7060 -19.7056 -19.6776 -19.6772 -19.6633 -19.6025 -19.5994 -19.5857
   -19.5848 -19.5630 -19.5585 -19.5498 -19.5352 -19.5345 -19.5343 -19.5320
   -19.5283 -19.5264 -19.5263 -19.5244 -19.5244 -19.5243 -19.5114 -19.5080
   -19.5072 -19.5063 -19.5058 -19.5045 -19.4981 -19.4961 -19.4943 -19.4937
   -19.4878 -19.4873 -19.4733 -19.4715 -19.4555 -19.4101 -19.3748 -19.3670
    15.4724  16.9781  16.9798  16.9848  17.2015  17.2539  17.3057  17.3057
    17.3082  17.3140  17.4305  17.4323  17.4585  17.6644  17.8131  17.8182
    17.8396  18.1764  18.1838  18.2032  18.2125  18.3702  18.3747  18.3782
    18.3786  18.4231  18.4232  18.5003  18.5646  18.5649  18.6808  18.7258
    18.7267  18.7462  18.7478  18.7720  18.9389  19.0113  19.0142  19.0149
    19.0170  19.0443  19.0466  19.1582  19.1682  19.3873  19.3940  19.4925
    19.4932  19.5159  19.5672  19.5696  19.6001  19.6012  19.6501  19.6542
    19.6724  19.8556  19.8610  19.8657  19.8698  19.9535  19.9614  20.0253
    20.0278  20.0739  20.1432  20.1466  20.2454  20.2523  20.2717  20.2727
    20.3108  20.3139  20.3515  20.4108  20.4165  20.4266  20.4352  20.4547
    20.4928  20.4978  20.5098  20.5543  20.5930  20.6004  20.6270  20.6622
    21.1777  21.2786  21.3032  21.3160  21.5578  21.5685  21.7238  21.7299
    21.7362  21.7453  21.7455  21.8056  21.8197  21.8303  21.8374  21.8566
    21.8640  22.0111  22.0784  22.1827  22.1831  22.2024  22.2039  22.2526
    22.3296  22.6157  22.6163  22.7306  22.7410  22.7466  22.7561  22.7607
    22.7969  22.7996  22.8186  22.8775  22.8863  22.9309  22.9549  22.9566
    23.0173  23.0214  23.0363  23.0763  23.0767  23.1769  23.2670  23.3267
    23.3283  23.3564  23.3611  23.4365  23.4481  23.4530  23.5734  23.5852
    23.7811  23.9772  24.1492  24.1527  24.1557  24.2855  24.2878  24.4624
    24.5724  24.5742  24.6407  24.7144  24.7180  24.7319  24.7429  24.9793
    24.9800  25.0803  25.0861  25.0950  25.0989  25.1070  25.1151  25.1517
    25.3472  25.6385  25.9808  25.9817  26.0801  26.0902  26.6075  26.6203
    27.1001  27.1258  27.2213

          k = 0.0556 0.1664 0.2778 ( 30230 PWs)   bands (ev):

   -49.9444 -49.8924 -49.8710 -49.8509 -49.8371 -49.8329 -49.8226 -49.8170
   -49.8119 -49.8092 -49.8023 -49.8010 -49.8006 -49.7967 -49.7957 -49.7877
   -49.7861 -49.7835 -49.7782 -49.7772 -49.7734 -49.7682 -49.7617 -49.7484
   -49.7455 -49.7450 -49.7445 -49.7430 -49.7419 -49.7416 -49.7396 -49.7388
   -20.3300 -20.3264 -20.3079 -20.2915 -20.2641 -20.2608 -20.2523 -20.1803
   -20.1713 -20.1381 -20.1371 -20.1354 -20.1351 -20.1302 -20.1092 -20.1056
   -20.1055 -20.0884 -20.0873 -20.0794 -20.0761 -20.0747 -20.0715 -20.0513
   -20.0348 -19.9964 -19.9830 -19.9642 -19.9632 -19.9502 -19.9453 -19.9429
   -19.9243 -19.9158 -19.8892 -19.8782 -19.8611 -19.8250 -19.8148 -19.7869
   -19.7780 -19.7723 -19.7488 -19.7412 -19.7363 -19.7238 -19.7200 -19.7158
   -19.7146 -19.7126 -19.7063 -19.6961 -19.6873 -19.6834 -19.6810 -19.6788
   -19.6788 -19.6749 -19.6424 -19.6401 -19.6331 -19.6267 -19.6164 -19.6146
   -19.5736 -19.5735 -19.5698 -19.5665 -19.5599 -19.5574 -19.5565 -19.5532
   -19.5462 -19.5395 -19.5322 -19.5273 -19.5258 -19.5250 -19.5179 -19.5147
   -19.5129 -19.5116 -19.5073 -19.5055 -19.4970 -19.4949 -19.4907 -19.4759
   -19.4751 -19.4722 -19.4675 -19.4570 -19.4457 -19.4443 -19.3859 -19.3728
    15.6394  16.9407  17.0771  17.0981  17.1048  17.2774  17.3463  17.4270
    17.4311  17.4472  17.5049  17.5545  17.5879  17.7245  17.7533  17.9277
    17.9456  17.9631  18.0045  18.1101  18.1434  18.2335  18.2378  18.2723
    18.2989  18.3213  18.4132  18.4404  18.4589  18.4596  18.4685  18.4905
    18.6179  18.6374  18.6457  18.7521  18.7897  18.8584  18.8671  19.0297
    19.0426  19.0656  19.1017  19.2080  19.2433  19.3075  19.3172  19.3472
    19.3577  19.4122  19.4432  19.4833  19.5639  19.5697  19.6003  19.6710
    19.6923  19.7285  19.8419  19.9638  20.0041  20.0284  20.0566  20.0901
    20.1187  20.1405  20.1818  20.2014  20.2675  20.2785  20.3102  20.3153
    20.3339  20.4129  20.4521  20.4744  20.4857  20.5460  20.5741  20.5880
    20.6426  20.7000  20.7163  20.7180  20.7354  20.7472  20.9671  20.9757
    21.0150  21.0742  21.0773  21.3004  21.3092  21.3139  21.4698  21.5053
    21.5880  21.6032  21.6480  21.7688  21.8110  21.8637  21.9281  22.0282
    22.0467  22.0843  22.1310  22.1804  22.2225  22.2353  22.3333  22.4129
    22.4438  22.5248  22.5292  22.5645  22.5791  22.6030  22.7122  22.7197
    22.7237  22.7353  22.8288  22.8600  22.9207  22.9596  23.0263  23.0402
    23.0552  23.0843  23.0865  23.2690  23.3653  23.3663  23.3876  23.4099
    23.4394  23.6020  23.6072  23.6525  23.6641  23.6652  23.7024  23.7140
    23.7181  23.8000  23.9104  24.0039  24.1636  24.2776  24.3767  24.3975
    24.4189  24.4891  24.5145  24.6307  24.6451  24.6454  24.7920  24.7921
    24.8631  24.8663  24.9270  24.9724  25.0794  25.0882  25.1014  25.1102
    25.1596  25.5371  25.5824  25.9637  26.0929  26.4058  26.4962  26.5880
    26.6095  26.6812  27.5948

          k = 0.0556 0.1664 0.3889 ( 30214 PWs)   bands (ev):

   -49.9350 -49.9086 -49.8649 -49.8477 -49.8458 -49.8314 -49.8287 -49.8166
   -49.8134 -49.8102 -49.8053 -49.8030 -49.7997 -49.7972 -49.7864 -49.7846
   -49.7843 -49.7833 -49.7788 -49.7677 -49.7647 -49.7610 -49.7579 -49.7555
   -49.7506 -49.7505 -49.7492 -49.7455 -49.7427 -49.7420 -49.7393 -49.7389
   -20.3048 -20.2982 -20.2735 -20.2535 -20.2401 -20.2388 -20.2276 -20.2179
   -20.2166 -20.1849 -20.1765 -20.1722 -20.1590 -20.1333 -20.1278 -20.1148
   -20.1140 -20.1123 -20.1082 -20.0978 -20.0747 -20.0618 -20.0581 -20.0416
   -20.0162 -20.0020 -19.9970 -19.9769 -19.9760 -19.9457 -19.9220 -19.9194
   -19.9159 -19.9039 -19.8934 -19.8751 -19.8595 -19.8484 -19.8457 -19.8286
   -19.8054 -19.7744 -19.7192 -19.7169 -19.7147 -19.7126 -19.7109 -19.7074
   -19.6985 -19.6903 -19.6895 -19.6653 -19.6613 -19.6556 -19.6536 -19.6504
   -19.6459 -19.6446 -19.6366 -19.6308 -19.6103 -19.6088 -19.6084 -19.5991
   -19.5955 -19.5949 -19.5933 -19.5929 -19.5925 -19.5858 -19.5856 -19.5600
   -19.5580 -19.5531 -19.5376 -19.5351 -19.5296 -19.5293 -19.5291 -19.5230
   -19.5203 -19.5171 -19.5028 -19.5016 -19.4985 -19.4944 -19.4895 -19.4858
   -19.4779 -19.4706 -19.4578 -19.4478 -19.4431 -19.4290 -19.4021 -19.3857
    15.8828  16.5538  17.2170  17.2629  17.2841  17.4085  17.4925  17.5655
    17.5959  17.6080  17.6154  17.6378  17.7129  17.7363  17.7560  17.7778
    17.8289  17.8747  17.9372  17.9394  18.0349  18.0477  18.1041  18.1352
    18.1449  18.1609  18.2708  18.3142  18.3196  18.3286  18.4934  18.5195
    18.5864  18.5928  18.6231  18.6537  18.7551  18.9529  18.9553  18.9759
    18.9884  19.0865  19.1042  19.1483  19.1641  19.2008  19.2183  19.2317
    19.2698  19.2755  19.4180  19.4218  19.4254  19.5352  19.6952  19.6978
    19.7088  19.7709  19.9713  19.9782  20.0180  20.0441  20.0812  20.0830
    20.1040  20.1413  20.1672  20.2298  20.2306  20.2450  20.2905  20.3084
    20.4109  20.4183  20.4412  20.6325  20.6860  20.7275  20.7487  20.7740
    20.8327  20.8719  20.8749  20.8776  20.8853  20.8859  20.8889  20.9268
    21.0291  21.1063  21.1684  21.1968  21.2409  21.2557  21.3439  21.3736
    21.5854  21.6849  21.7363  21.8073  21.8152  21.8674  21.9767  22.0353
    22.0555  22.0851  22.1303  22.1400  22.1448  22.1484  22.2223  22.2894
    22.3543  22.4083  22.5063  22.5351  22.5538  22.6143  22.6425  22.6603
    22.6789  22.7788  22.8230  22.8307  22.9112  22.9546  22.9695  23.0341
    23.0859  23.1273  23.2634  23.3053  23.3540  23.3569  23.4288  23.4455
    23.6275  23.6568  23.7256  23.8188  23.9417  23.9421  23.9607  23.9712
    23.9945  24.0042  24.0180  24.1093  24.1253  24.2049  24.2056  24.3053
    24.3834  24.4816  24.4897  24.5472  24.5491  24.5557  24.5564  24.5685
    24.7050  24.7054  24.7741  25.0155  25.0800  25.0876  25.0906  25.0915
    25.0968  25.2789  25.5646  25.7888  25.8244  25.9800  26.1266  26.3264
    26.8170  27.1409  27.4210

          k = 0.0556 0.1664-0.5000 ( 30226 PWs)   bands (ev):

   -49.9231 -49.9229 -49.8571 -49.8570 -49.8393 -49.8392 -49.8233 -49.8231
   -49.8087 -49.8085 -49.8080 -49.8078 -49.7986 -49.7984 -49.7853 -49.7851
   -49.7809 -49.7807 -49.7702 -49.7700 -49.7584 -49.7583 -49.7571 -49.7569
   -49.7546 -49.7545 -49.7501 -49.7500 -49.7424 -49.7423 -49.7392 -49.7390
   -20.2701 -20.2700 -20.2614 -20.2613 -20.2317 -20.2316 -20.2105 -20.2103
   -20.2093 -20.2091 -20.2084 -20.2083 -20.1705 -20.1704 -20.1239 -20.1239
   -20.1158 -20.1157 -20.1148 -20.1148 -20.0614 -20.0613 -20.0376 -20.0375
   -20.0091 -20.0090 -20.0010 -20.0009 -19.9566 -19.9565 -19.9219 -19.9218
   -19.8919 -19.8918 -19.8784 -19.8783 -19.8738 -19.8737 -19.8380 -19.8379
   -19.8071 -19.8070 -19.7182 -19.7180 -19.7112 -19.7111 -19.6864 -19.6863
   -19.6696 -19.6694 -19.6650 -19.6648 -19.6590 -19.6589 -19.6396 -19.6395
   -19.6301 -19.6300 -19.6240 -19.6240 -19.6201 -19.6201 -19.6176 -19.6175
   -19.6170 -19.6168 -19.5890 -19.5889 -19.5820 -19.5818 -19.5630 -19.5628
   -19.5610 -19.5609 -19.5466 -19.5465 -19.5447 -19.5447 -19.5252 -19.5250
   -19.5205 -19.5204 -19.5137 -19.5136 -19.5005 -19.5003 -19.4816 -19.4814
   -19.4801 -19.4800 -19.4475 -19.4474 -19.4231 -19.4229 -19.4049 -19.4048
    16.1928  16.1929  17.3862  17.3863  17.4720  17.4720  17.5069  17.5070
    17.5933  17.5933  17.6911  17.6911  17.7601  17.7603  17.8036  17.8037
    17.8336  17.8336  17.8728  17.8728  17.9759  17.9760  18.0154  18.0155
    18.0223  18.0224  18.1863  18.1864  18.3684  18.3685  18.4144  18.4144
    18.6988  18.6989  18.7118  18.7119  18.7692  18.7693  18.8601  18.8602
    19.1024  19.1024  19.1391  19.1392  19.1671  19.1671  19.2045  19.2045
    19.2685  19.2685  19.3370  19.3370  19.3518  19.3519  19.8248  19.8249
    19.8830  19.8831  19.8905  19.8906  19.9541  19.9542  20.0058  20.0058
    20.1657  20.1658  20.1723  20.1723  20.3619  20.3620  20.3876  20.3877
    20.4585  20.4585  20.4952  20.4953  20.5578  20.5578  20.7379  20.7380
    20.8412  20.8412  20.9352  20.9352  21.0135  21.0136  21.0300  21.0301
    21.0629  21.0630  21.0905  21.0906  21.5100  21.5100  21.5518  21.5518
    21.5857  21.5857  21.6356  21.6356  21.8079  21.8080  21.8123  21.8124
    22.0683  22.0684  22.2331  22.2331  22.2656  22.2657  22.3213  22.3213
    22.3254  22.3255  22.3870  22.3871  22.4505  22.4506  22.5555  22.5556
    22.7524  22.7525  22.7733  22.7734  22.8791  22.8793  23.1370  23.1371
    23.1763  23.1764  23.1795  23.1797  23.2482  23.2483  23.7011  23.7012
    23.7835  23.7837  23.7968  23.7968  24.0158  24.0158  24.0720  24.0720
    24.1977  24.1978  24.2455  24.2456  24.2506  24.2507  24.2686  24.2687
    24.2695  24.2695  24.2773  24.2774  24.2900  24.2900  24.4800  24.4800
    24.6182  24.6183  25.0446  25.0446  25.0831  25.0833  25.0932  25.0933
    25.3347  25.3348  25.5579  25.5580  25.5656  25.5656  26.0990  26.0992
    27.1625  27.1626  27.5885

          k = 0.0556 0.2773 0.0556 ( 30236 PWs)   bands (ev):

   -49.9476 -49.8951 -49.8526 -49.8526 -49.8343 -49.8343 -49.8235 -49.8235
   -49.8098 -49.8098 -49.8029 -49.8024 -49.7974 -49.7929 -49.7929 -49.7925
   -49.7924 -49.7893 -49.7850 -49.7730 -49.7730 -49.7674 -49.7674 -49.7498
   -49.7442 -49.7442 -49.7432 -49.7432 -49.7387 -49.7386 -49.7383 -49.7382
   -20.3333 -20.3259 -20.3259 -20.3141 -20.2724 -20.2724 -20.2579 -20.1748
   -20.1604 -20.1604 -20.1395 -20.1387 -20.1387 -20.1044 -20.1044 -20.0987
   -20.0987 -20.0684 -20.0684 -20.0458 -20.0448 -20.0448 -20.0429 -20.0429
   -20.0068 -20.0068 -20.0034 -20.0034 -19.9680 -19.9680 -19.9293 -19.9293
   -19.9005 -19.9005 -19.8997 -19.8997 -19.8588 -19.8588 -19.8567 -19.8567
   -19.7591 -19.7591 -19.7399 -19.7307 -19.7307 -19.7234 -19.7234 -19.7098
   -19.7070 -19.7070 -19.7056 -19.7013 -19.7013 -19.6939 -19.6939 -19.6910
   -19.6910 -19.6729 -19.6640 -19.6640 -19.6556 -19.6220 -19.6200 -19.5850
   -19.5850 -19.5605 -19.5605 -19.5565 -19.5565 -19.5521 -19.5521 -19.5499
   -19.5400 -19.5400 -19.5372 -19.5372 -19.5213 -19.5119 -19.5057 -19.5057
   -19.5037 -19.5002 -19.5002 -19.4996 -19.4996 -19.4951 -19.4951 -19.4904
   -19.4834 -19.4684 -19.4675 -19.4675 -19.4670 -19.4191 -19.3805 -19.3780
    15.5567  16.8723  17.0135  17.0507  17.0507  17.2779  17.3296  17.3296
    17.3635  17.4461  17.5162  17.5162  17.6523  17.7370  17.7370  17.9193
    17.9193  17.9382  17.9382  18.0910  18.1988  18.2986  18.2986  18.3658
    18.4121  18.4121  18.4437  18.4437  18.5341  18.5341  18.5917  18.5917
    18.7039  18.7039  18.7509  18.7509  18.8689  18.8689  18.9571  18.9571
    19.1252  19.1252  19.3312  19.3313  19.3910  19.3910  19.3927  19.3927
    19.4123  19.4128  19.4128  19.4584  19.4584  19.5497  19.5497  19.7110
    19.7110  19.7572  19.8219  19.8219  19.8855  19.8855  19.9568  19.9568
    19.9742  19.9742  20.0374  20.0374  20.0531  20.2197  20.2848  20.2848
    20.3044  20.3044  20.3356  20.3899  20.5676  20.6147  20.6147  20.6271
    20.6406  20.6421  20.6421  20.7096  20.7140  20.7484  21.0391  21.0391
    21.0926  21.0926  21.1014  21.1014  21.3129  21.4249  21.4249  21.4593
    21.4676  21.5302  21.8716  21.9168  21.9168  22.1241  22.1241  22.1450
    22.1450  22.1831  22.1831  22.2593  22.2593  22.3792  22.3792  22.4774
    22.4775  22.5875  22.6070  22.6070  22.6158  22.6158  22.6439  22.6439
    22.6961  22.6961  22.6969  22.7705  22.7998  22.7998  22.9154  22.9819
    22.9819  23.0046  23.0483  23.0483  23.1925  23.3296  23.3953  23.3953
    23.4065  23.4749  23.4749  23.5216  23.5476  23.5476  23.5708  23.7864
    23.7864  23.9299  23.9299  24.1800  24.1965  24.1965  24.3726  24.3726
    24.4009  24.5356  24.5356  24.5420  24.5648  24.6266  24.8503  24.8503
    24.8522  24.8522  24.9121  25.2218  25.2218  25.2239  25.2239  25.3643
    25.6310  25.6310  25.8346  25.8346  25.9784  26.1352  26.1352  26.1831
    26.4895  27.0295  27.0295

          k = 0.0556 0.2773 0.1667 ( 30230 PWs)   bands (ev):

   -49.9444 -49.8927 -49.8706 -49.8509 -49.8370 -49.8329 -49.8226 -49.8163
   -49.8119 -49.8092 -49.8023 -49.8019 -49.8006 -49.7963 -49.7957 -49.7877
   -49.7861 -49.7835 -49.7786 -49.7772 -49.7735 -49.7682 -49.7618 -49.7496
   -49.7456 -49.7452 -49.7449 -49.7423 -49.7418 -49.7407 -49.7392 -49.7387
   -20.3300 -20.3266 -20.3080 -20.2918 -20.2642 -20.2616 -20.2517 -20.1817
   -20.1731 -20.1396 -20.1387 -20.1335 -20.1334 -20.1316 -20.1111 -20.1050
   -20.1040 -20.0882 -20.0868 -20.0793 -20.0766 -20.0732 -20.0694 -20.0507
   -20.0325 -19.9970 -19.9814 -19.9638 -19.9633 -19.9500 -19.9448 -19.9425
   -19.9214 -19.9180 -19.8926 -19.8777 -19.8608 -19.8247 -19.8131 -19.7873
   -19.7789 -19.7730 -19.7531 -19.7419 -19.7381 -19.7197 -19.7196 -19.7173
   -19.7127 -19.7116 -19.7045 -19.6967 -19.6885 -19.6834 -19.6819 -19.6796
   -19.6785 -19.6750 -19.6429 -19.6404 -19.6296 -19.6271 -19.6175 -19.6154
   -19.5749 -19.5744 -19.5700 -19.5678 -19.5603 -19.5588 -19.5575 -19.5550
   -19.5452 -19.5406 -19.5299 -19.5277 -19.5274 -19.5230 -19.5196 -19.5132
   -19.5125 -19.5111 -19.5093 -19.5035 -19.4962 -19.4952 -19.4887 -19.4745
   -19.4733 -19.4727 -19.4690 -19.4566 -19.4457 -19.4442 -19.3857 -19.3728
    15.6388  16.9358  17.0781  17.0974  17.1023  17.2773  17.3461  17.4309
    17.4318  17.4471  17.5063  17.5525  17.5882  17.7206  17.7528  17.9271
    17.9497  17.9575  17.9964  18.1095  18.1405  18.2327  18.2431  18.2723
    18.2981  18.3297  18.4117  18.4394  18.4585  18.4638  18.4675  18.4904
    18.6147  18.6368  18.6476  18.7521  18.7904  18.8600  18.8650  19.0305
    19.0457  19.0652  19.1050  19.2170  19.2430  19.3033  19.3218  19.3473
    19.3564  19.4127  19.4314  19.4849  19.5623  19.5723  19.5969  19.6701
    19.6946  19.7340  19.8495  19.9600  19.9958  20.0356  20.0632  20.0954
    20.1107  20.1421  20.1690  20.2020  20.2636  20.2843  20.3013  20.3218
    20.3222  20.4129  20.4383  20.4787  20.4882  20.5512  20.5834  20.5888
    20.6525  20.7123  20.7150  20.7275  20.7325  20.7477  20.9712  20.9822
    21.0181  21.0686  21.0902  21.3078  21.3136  21.3223  21.4816  21.5209
    21.5973  21.6120  21.6361  21.7648  21.7976  21.8540  21.9238  22.0214
    22.0391  22.0772  22.1289  22.1662  22.2196  22.2337  22.3298  22.4121
    22.4404  22.5240  22.5307  22.5657  22.5782  22.6008  22.6981  22.7144
    22.7266  22.7360  22.8291  22.8517  22.9180  22.9732  23.0210  23.0369
    23.0539  23.0816  23.0891  23.2756  23.3649  23.3662  23.3849  23.4233
    23.4385  23.5964  23.6130  23.6554  23.6602  23.6640  23.6945  23.7096
    23.7205  23.7988  23.9111  24.0008  24.1628  24.2765  24.3764  24.4017
    24.4112  24.4867  24.5118  24.6243  24.6407  24.6459  24.7909  24.7923
    24.8511  24.8558  24.9214  24.9809  25.0945  25.1004  25.1110  25.1196
    25.1595  25.5436  25.5749  25.9734  26.0824  26.4093  26.5082  26.5880
    26.5915  26.6819  27.6111

          k = 0.0556 0.2773 0.2778 ( 30203 PWs)   bands (ev):

   -49.9382 -49.8880 -49.8877 -49.8499 -49.8476 -49.8302 -49.8209 -49.8209
   -49.8081 -49.8080 -49.8069 -49.7999 -49.7991 -49.7988 -49.7840 -49.7835
   -49.7831 -49.7831 -49.7746 -49.7745 -49.7699 -49.7698 -49.7566 -49.7492
   -49.7483 -49.7481 -49.7480 -49.7462 -49.7454 -49.7414 -49.7411 -49.7390
   -20.3162 -20.3161 -20.2805 -20.2598 -20.2481 -20.2400 -20.2393 -20.1807
   -20.1797 -20.1771 -20.1756 -20.1399 -20.1385 -20.1177 -20.1165 -20.1120
   -20.1118 -20.1109 -20.1094 -20.1017 -20.1009 -20.0763 -20.0746 -20.0746
   -20.0602 -20.0595 -19.9798 -19.9720 -19.9456 -19.9441 -19.9248 -19.9246
   -19.9156 -19.9103 -19.8789 -19.8756 -19.8056 -19.8056 -19.8049 -19.7773
   -19.7767 -19.7732 -19.7711 -19.7415 -19.7372 -19.7168 -19.7165 -19.7053
   -19.7039 -19.7009 -19.6991 -19.6989 -19.6868 -19.6856 -19.6645 -19.6640
   -19.6486 -19.6453 -19.6450 -19.6449 -19.6099 -19.6098 -19.6074 -19.6066
   -19.5941 -19.5936 -19.5919 -19.5846 -19.5630 -19.5629 -19.5613 -19.5553
   -19.5532 -19.5523 -19.5521 -19.5505 -19.5247 -19.5241 -19.5236 -19.5226
   -19.5204 -19.5139 -19.5007 -19.4985 -19.4971 -19.4950 -19.4887 -19.4874
   -19.4825 -19.4722 -19.4706 -19.4423 -19.4420 -19.4308 -19.3970 -19.3726
    15.8004  17.0597  17.0638  17.1919  17.2023  17.2041  17.3284  17.4131
    17.5792  17.5793  17.6245  17.6260  17.7276  17.7840  17.8539  17.8569
    17.9475  17.9945  17.9982  18.0019  18.0283  18.0284  18.1103  18.1176
    18.1654  18.1656  18.2392  18.2418  18.4412  18.5235  18.5239  18.5395
    18.5411  18.5758  18.5764  18.6603  18.6631  18.7555  18.7555  18.8322
    18.8346  18.9543  19.0988  19.0998  19.1670  19.1691  19.1733  19.4091
    19.4107  19.4253  19.4263  19.4650  19.4656  19.4754  19.5333  19.8635
    19.8688  19.9734  19.9771  20.0545  20.0550  20.1217  20.1249  20.1612
    20.1679  20.1749  20.1845  20.2613  20.2844  20.3518  20.3571  20.4382
    20.4474  20.5013  20.5069  20.6546  20.6594  20.6615  20.7242  20.7399
    20.7527  20.7847  20.7895  20.8160  20.8476  20.8608  20.8625  20.8654
    21.0176  21.0223  21.1417  21.1506  21.3663  21.3803  21.5024  21.5166
    21.5606  21.5724  21.6630  21.6743  21.6865  21.7579  21.7808  21.7890
    21.8197  21.8272  21.9943  22.0158  22.1554  22.1770  22.1786  22.1847
    22.1853  22.3079  22.3782  22.5119  22.5125  22.6524  22.6738  22.6755
    22.9623  22.9638  22.9660  23.0919  23.0943  23.1170  23.1172  23.2238
    23.2250  23.2364  23.2420  23.3168  23.3220  23.4277  23.4281  23.4339
    23.4342  23.4845  23.4939  23.7493  23.7763  23.7765  23.8303  23.9212
    23.9239  23.9267  23.9475  23.9499  24.1038  24.1558  24.3297  24.3310
    24.5351  24.6560  24.6580  24.6808  24.6838  24.6844  24.6958  24.7173
    24.8563  24.8607  24.8682  24.8706  24.9032  24.9098  24.9101  24.9104
    25.0106  25.3700  25.4638  25.4711  25.9777  25.9876  27.0394  27.0400
    27.2824  27.3260  27.3439

          k = 0.0556 0.2773 0.3889 ( 30242 PWs)   bands (ev):

   -49.9291 -49.9035 -49.8811 -49.8618 -49.8428 -49.8292 -49.8262 -49.8184
   -49.8150 -49.8113 -49.8064 -49.8017 -49.7970 -49.7889 -49.7832 -49.7805
   -49.7790 -49.7761 -49.7722 -49.7715 -49.7663 -49.7631 -49.7573 -49.7529
   -49.7522 -49.7521 -49.7518 -49.7486 -49.7471 -49.7439 -49.7407 -49.7394
   -20.2952 -20.2922 -20.2446 -20.2249 -20.2244 -20.2213 -20.2197 -20.2195
   -20.2084 -20.1726 -20.1724 -20.1702 -20.1575 -20.1557 -20.1392 -20.1378
   -20.1363 -20.1237 -20.1199 -20.1174 -20.0982 -20.0930 -20.0783 -20.0707
   -20.0653 -20.0366 -20.0060 -20.0043 -19.9749 -19.9506 -19.9065 -19.8971
   -19.8865 -19.8650 -19.8593 -19.8374 -19.8364 -19.8328 -19.8131 -19.8057
   -19.7629 -19.7625 -19.7457 -19.7320 -19.7246 -19.7245 -19.7033 -19.7010
   -19.6933 -19.6877 -19.6867 -19.6774 -19.6704 -19.6681 -19.6564 -19.6493
   -19.6402 -19.6384 -19.6380 -19.6371 -19.6300 -19.6173 -19.6067 -19.6044
   -19.6000 -19.5952 -19.5821 -19.5807 -19.5804 -19.5738 -19.5730 -19.5718
   -19.5594 -19.5502 -19.5477 -19.5406 -19.5376 -19.5370 -19.5350 -19.5339
   -19.5305 -19.5148 -19.5115 -19.5063 -19.5054 -19.5028 -19.5019 -19.4898
   -19.4767 -19.4751 -19.4601 -19.4297 -19.4231 -19.4159 -19.4136 -19.3800
    16.0359  16.6865  17.2382  17.3344  17.3439  17.3853  17.4311  17.5302
    17.6965  17.7190  17.7314  17.7505  17.7580  17.7708  17.7853  17.8042
    17.8293  17.8640  17.9090  17.9263  17.9538  17.9838  18.0429  18.0457
    18.0636  18.0980  18.2436  18.2575  18.2740  18.2820  18.3261  18.3867
    18.4548  18.5537  18.6160  18.6731  18.6805  18.6827  18.7278  18.7291
    18.8237  18.9077  18.9370  19.0148  19.0544  19.1799  19.1827  19.2170
    19.2886  19.3773  19.5009  19.5046  19.5355  19.5504  19.7223  19.7713
    19.8045  19.8225  19.9092  20.0517  20.1318  20.1372  20.2214  20.2470
    20.2567  20.2782  20.2850  20.3793  20.4114  20.4255  20.4397  20.5480
    20.5502  20.6230  20.6453  20.6652  20.6672  20.6967  20.7662  20.8258
    20.8589  20.8657  20.9133  20.9219  20.9339  21.0067  21.0445  21.0451
    21.0472  21.1255  21.1433  21.1648  21.2433  21.3079  21.3606  21.4622
    21.5229  21.5237  21.5569  21.5898  21.6153  21.6389  21.6678  21.6740
    21.7813  21.7962  21.8183  21.8729  21.9977  22.0257  22.0440  22.0969
    22.2032  22.2088  22.3762  22.4006  22.5218  22.5586  22.6363  22.7249
    22.8660  22.8958  22.9052  22.9538  23.0269  23.1147  23.1789  23.1888
    23.2686  23.3001  23.3514  23.4534  23.4643  23.4803  23.5513  23.6130
    23.6626  23.6673  23.8189  23.8222  23.8240  23.8686  24.0474  24.0921
    24.1135  24.1267  24.1666  24.1732  24.1850  24.1946  24.1957  24.2403
    24.3090  24.4592  24.5299  24.5419  24.5425  24.5621  24.5740  24.5770
    24.5915  24.6593  24.8560  24.8670  24.8686  24.8868  24.9365  24.9819
    25.3008  25.4209  25.4412  25.4653  25.5023  25.8244  26.6994  26.7061
    27.4720  27.6495  27.9514

          k = 0.0556 0.2773-0.5000 ( 30238 PWs)   bands (ev):

   -49.9175 -49.9173 -49.8724 -49.8722 -49.8367 -49.8365 -49.8212 -49.8210
   -49.8152 -49.8150 -49.8043 -49.8041 -49.7934 -49.7932 -49.7782 -49.7780
   -49.7754 -49.7752 -49.7692 -49.7690 -49.7611 -49.7609 -49.7591 -49.7589
   -49.7572 -49.7571 -49.7480 -49.7479 -49.7476 -49.7474 -49.7401 -49.7399
   -20.2643 -20.2642 -20.2594 -20.2594 -20.2021 -20.2020 -20.1981 -20.1980
   -20.1940 -20.1938 -20.1734 -20.1733 -20.1673 -20.1671 -20.1598 -20.1598
   -20.1572 -20.1572 -20.1317 -20.1316 -20.0825 -20.0824 -20.0766 -20.0764
   -20.0425 -20.0425 -19.9992 -19.9992 -19.9939 -19.9938 -19.8703 -19.8703
   -19.8679 -19.8679 -19.8494 -19.8494 -19.8347 -19.8346 -19.8134 -19.8134
   -19.7948 -19.7946 -19.7031 -19.7029 -19.7025 -19.7023 -19.6974 -19.6973
   -19.6887 -19.6887 -19.6886 -19.6886 -19.6744 -19.6743 -19.6651 -19.6650
   -19.6366 -19.6365 -19.6288 -19.6287 -19.6115 -19.6114 -19.6096 -19.6095
   -19.5931 -19.5930 -19.5866 -19.5866 -19.5831 -19.5830 -19.5706 -19.5706
   -19.5579 -19.5577 -19.5435 -19.5434 -19.5417 -19.5416 -19.5409 -19.5408
   -19.5306 -19.5304 -19.5194 -19.5193 -19.5064 -19.5062 -19.4863 -19.4863
   -19.4827 -19.4825 -19.4349 -19.4347 -19.4229 -19.4229 -19.3948 -19.3948
    16.3362  16.3363  17.4620  17.4621  17.5151  17.5152  17.5228  17.5229
    17.5843  17.5843  17.6108  17.6109  17.6961  17.6961  17.8715  17.8716
    17.8868  17.8868  17.9807  17.9807  18.0000  18.0000  18.0354  18.0355
    18.0385  18.0386  18.1570  18.1570  18.1732  18.1733  18.2844  18.2845
    18.4749  18.4750  18.5822  18.5823  18.6922  18.6922  18.8174  18.8175
    18.8181  18.8181  18.9652  18.9653  19.0670  19.0671  19.0920  19.0920
    19.4613  19.4613  19.5375  19.5376  19.6297  19.6297  19.6398  19.6399
    19.6720  19.6721  19.9460  19.9461  20.1958  20.1959  20.2945  20.2946
    20.3176  20.3176  20.4162  20.4163  20.4214  20.4214  20.4635  20.4635
    20.5495  20.5495  20.6930  20.6931  20.8112  20.8113  20.8944  20.8945
    20.9063  20.9063  20.9759  20.9759  21.0227  21.0228  21.0303  21.0304
    21.2127  21.2127  21.2325  21.2325  21.2532  21.2532  21.2635  21.2636
    21.4357  21.4357  21.4434  21.4434  21.5460  21.5461  21.5543  21.5544
    21.7642  21.7643  21.9807  21.9807  22.1357  22.1358  22.1657  22.1658
    22.2000  22.2001  22.2411  22.2412  22.3489  22.3491  22.5360  22.5361
    22.7290  22.7291  23.0450  23.0451  23.0846  23.0847  23.1450  23.1451
    23.2903  23.2904  23.5419  23.5421  23.5823  23.5825  23.6973  23.6974
    23.7907  23.7908  23.8668  23.8668  23.9487  23.9487  23.9495  23.9495
    24.2036  24.2036  24.2043  24.2044  24.3074  24.3075  24.3716  24.3717
    24.3717  24.3717  24.3963  24.3963  24.4123  24.4123  24.4127  24.4127
    24.5185  24.5186  24.8752  24.8753  24.8928  24.8928  24.9477  24.9477
    25.0928  25.0929  25.6335  25.6336  26.0344  26.0345  26.1086  26.1086
    27.8307  27.8308  28.1597

          k = 0.0556 0.3882 0.0556 ( 30204 PWs)   bands (ev):

   -49.9381 -49.9115 -49.8474 -49.8474 -49.8326 -49.8326 -49.8299 -49.8299
   -49.8174 -49.8174 -49.8015 -49.7989 -49.7928 -49.7928 -49.7926 -49.7925
   -49.7879 -49.7863 -49.7857 -49.7640 -49.7640 -49.7598 -49.7598 -49.7594
   -49.7494 -49.7494 -49.7476 -49.7476 -49.7386 -49.7386 -49.7383 -49.7383
   -20.3047 -20.2942 -20.2942 -20.2790 -20.2485 -20.2485 -20.2227 -20.2203
   -20.2083 -20.2083 -20.1885 -20.1807 -20.1807 -20.1128 -20.1033 -20.1033
   -20.0898 -20.0898 -20.0836 -20.0836 -20.0581 -20.0581 -20.0176 -20.0175
   -19.9895 -19.9894 -19.9709 -19.9709 -19.9573 -19.9572 -19.9472 -19.9472
   -19.9353 -19.9353 -19.8942 -19.8942 -19.8910 -19.8910 -19.8562 -19.8562
   -19.7848 -19.7848 -19.7288 -19.7288 -19.7249 -19.7249 -19.6940 -19.6903
   -19.6861 -19.6652 -19.6652 -19.6613 -19.6613 -19.6580 -19.6580 -19.6579
   -19.6579 -19.6495 -19.6469 -19.6292 -19.6292 -19.6279 -19.6061 -19.6061
   -19.5904 -19.5904 -19.5900 -19.5900 -19.5880 -19.5829 -19.5724 -19.5724
   -19.5699 -19.5699 -19.5488 -19.5249 -19.5249 -19.5104 -19.5062 -19.5005
   -19.5005 -19.5001 -19.5001 -19.4997 -19.4997 -19.4902 -19.4902 -19.4881
   -19.4846 -19.4694 -19.4694 -19.4626 -19.4410 -19.4391 -19.3964 -19.3938
    15.8032  16.4821  17.1517  17.2280  17.2280  17.4306  17.4955  17.4976
    17.4976  17.5462  17.5576  17.6937  17.6937  17.6997  17.6997  17.8826
    17.8955  17.9056  17.9056  17.9869  17.9869  18.0547  18.0982  18.0982
    18.2399  18.2399  18.3269  18.3269  18.5356  18.5356  18.5442  18.5442
    18.6072  18.6072  18.7883  18.7883  18.8175  18.8176  19.0335  19.0335
    19.0485  19.0485  19.1399  19.1399  19.2872  19.2872  19.3266  19.3266
    19.3661  19.3661  19.4331  19.4331  19.4441  19.4441  19.6839  19.6933
    19.6933  19.7429  19.7429  19.8547  19.9763  19.9763  19.9814  19.9814
    19.9827  19.9827  20.0990  20.1529  20.1569  20.1904  20.1904  20.2150
    20.2151  20.3249  20.4110  20.4110  20.6948  20.7572  20.7572  20.7651
    20.7652  20.7832  20.7832  20.7939  20.8498  20.8530  21.0741  21.0795
    21.0795  21.1420  21.2127  21.2339  21.2469  21.2469  21.2516  21.2630
    21.7234  21.7234  22.0403  22.0403  22.0414  22.1111  22.1111  22.2486
    22.2486  22.2537  22.3038  22.3127  22.3127  22.3585  22.3585  22.3930
    22.3930  22.4433  22.4433  22.4533  22.4533  22.5047  22.5713  22.5713
    22.6068  22.6068  22.6319  22.6319  22.7193  22.7193  22.9385  22.9385
    23.0753  23.0804  23.0804  23.1850  23.2785  23.3943  23.3943  23.5290
    23.7212  23.7212  23.7250  23.8265  23.8314  23.8314  23.8700  23.8700
    24.0925  24.0929  24.0929  24.1511  24.2486  24.2496  24.2496  24.3110
    24.3110  24.3372  24.3683  24.3757  24.5453  24.5453  24.5484  24.5484
    24.6034  24.6034  24.6850  25.1366  25.1366  25.2222  25.2222  25.2233
    25.2233  25.3379  25.6075  25.6075  25.7362  26.2405  26.2405  26.3049
    26.6743  26.8433  26.8433

          k = 0.0556 0.3882 0.1667 ( 30216 PWs)   bands (ev):

   -49.9351 -49.9089 -49.8645 -49.8475 -49.8458 -49.8315 -49.8287 -49.8166
   -49.8127 -49.8101 -49.8052 -49.8025 -49.7997 -49.7972 -49.7864 -49.7856
   -49.7842 -49.7833 -49.7788 -49.7682 -49.7648 -49.7609 -49.7590 -49.7557
   -49.7512 -49.7506 -49.7491 -49.7458 -49.7416 -49.7410 -49.7391 -49.7388
   -20.3050 -20.2988 -20.2739 -20.2540 -20.2404 -20.2397 -20.2285 -20.2191
   -20.2160 -20.1860 -20.1778 -20.1731 -20.1603 -20.1316 -20.1265 -20.1142
   -20.1131 -20.1110 -20.1072 -20.0974 -20.0742 -20.0605 -20.0587 -20.0398
   -20.0168 -20.0008 -19.9950 -19.9761 -19.9749 -19.9452 -19.9217 -19.9196
   -19.9147 -19.9013 -19.8929 -19.8772 -19.8592 -19.8495 -19.8463 -19.8289
   -19.8069 -19.7787 -19.7194 -19.7179 -19.7157 -19.7107 -19.7095 -19.7033
   -19.7006 -19.6904 -19.6886 -19.6657 -19.6576 -19.6564 -19.6542 -19.6518
   -19.6470 -19.6434 -19.6394 -19.6315 -19.6109 -19.6102 -19.6082 -19.6000
   -19.5964 -19.5952 -19.5938 -19.5937 -19.5935 -19.5877 -19.5873 -19.5606
   -19.5590 -19.5548 -19.5391 -19.5353 -19.5313 -19.5290 -19.5269 -19.5212
   -19.5185 -19.5160 -19.5025 -19.5008 -19.4966 -19.4945 -19.4894 -19.4838
   -19.4760 -19.4717 -19.4581 -19.4468 -19.4432 -19.4286 -19.4017 -19.3856
    15.8813  16.5501  17.2171  17.2614  17.2805  17.4082  17.4922  17.5629
    17.5995  17.6075  17.6160  17.6375  17.7089  17.7341  17.7495  17.7784
    17.8283  17.8737  17.9357  17.9387  18.0357  18.0466  18.1029  18.1378
    18.1441  18.1597  18.2679  18.3154  18.3224  18.3275  18.5006  18.5190
    18.5847  18.5964  18.6222  18.6529  18.7538  18.9543  18.9598  18.9769
    18.9899  19.0889  19.1030  19.1506  19.1659  19.2012  19.2212  19.2296
    19.2698  19.2831  19.4222  19.4237  19.4290  19.5390  19.6905  19.6953
    19.6973  19.7697  19.9638  19.9783  20.0173  20.0490  20.0739  20.0790
    20.1111  20.1502  20.1524  20.2338  20.2373  20.2377  20.2776  20.3098
    20.4026  20.4195  20.4446  20.6419  20.7035  20.7329  20.7556  20.7873
    20.8487  20.8730  20.8766  20.8781  20.8960  20.8981  20.9004  20.9314
    21.0213  21.1180  21.1637  21.1966  21.2575  21.2688  21.3570  21.3857
    21.5923  21.6787  21.7247  21.7957  21.8082  21.8600  21.9676  22.0369
    22.0556  22.0861  22.1157  22.1394  22.1409  22.1431  22.2163  22.2830
    22.3476  22.4063  22.5036  22.5181  22.5499  22.6109  22.6382  22.6611
    22.6672  22.7736  22.8156  22.8285  22.9182  22.9500  22.9626  23.0500
    23.0840  23.1246  23.2782  23.3024  23.3518  23.3519  23.4263  23.4452
    23.6222  23.6606  23.7235  23.8160  23.9382  23.9386  23.9621  23.9684
    23.9910  24.0041  24.0152  24.1080  24.1197  24.2031  24.2048  24.3038
    24.3769  24.4813  24.4860  24.5467  24.5473  24.5479  24.5534  24.5597
    24.7017  24.7049  24.7730  25.0149  25.0828  25.0951  25.1021  25.1047
    25.1070  25.2874  25.5566  25.7980  25.8330  25.9642  26.1272  26.3374
    26.8244  27.1474  27.4348

          k = 0.0556 0.3882 0.2778 ( 30238 PWs)   bands (ev):

   -49.9291 -49.9037 -49.8809 -49.8617 -49.8428 -49.8292 -49.8262 -49.8184
   -49.8150 -49.8113 -49.8064 -49.8016 -49.7962 -49.7883 -49.7841 -49.7804
   -49.7790 -49.7760 -49.7723 -49.7721 -49.7664 -49.7630 -49.7584 -49.7530
   -49.7530 -49.7520 -49.7518 -49.7476 -49.7462 -49.7442 -49.7405 -49.7394
   -20.2952 -20.2926 -20.2448 -20.2256 -20.2246 -20.2222 -20.2206 -20.2200
   -20.2077 -20.1716 -20.1714 -20.1713 -20.1583 -20.1567 -20.1387 -20.1366
   -20.1363 -20.1248 -20.1190 -20.1167 -20.0973 -20.0938 -20.0770 -20.0715
   -20.0650 -20.0352 -20.0054 -20.0039 -19.9739 -19.9500 -19.9078 -19.8967
   -19.8864 -19.8651 -19.8562 -19.8370 -19.8367 -19.8364 -19.8126 -19.8032
   -19.7667 -19.7632 -19.7467 -19.7345 -19.7253 -19.7204 -19.7043 -19.7012
   -19.6927 -19.6865 -19.6856 -19.6737 -19.6712 -19.6704 -19.6572 -19.6491
   -19.6404 -19.6394 -19.6380 -19.6370 -19.6303 -19.6177 -19.6072 -19.6046
   -19.6000 -19.5958 -19.5823 -19.5822 -19.5820 -19.5744 -19.5737 -19.5720
   -19.5598 -19.5482 -19.5463 -19.5420 -19.5380 -19.5368 -19.5338 -19.5336
   -19.5304 -19.5164 -19.5098 -19.5073 -19.5064 -19.5029 -19.5003 -19.4880
   -19.4763 -19.4751 -19.4593 -19.4299 -19.4232 -19.4157 -19.4133 -19.3799
    16.0351  16.6835  17.2412  17.3336  17.3447  17.3824  17.4310  17.5300
    17.6948  17.7196  17.7322  17.7481  17.7576  17.7707  17.7850  17.8024
    17.8289  17.8582  17.9086  17.9265  17.9535  17.9834  18.0416  18.0473
    18.0654  18.0978  18.2424  18.2571  18.2803  18.2819  18.3237  18.3888
    18.4549  18.5523  18.6154  18.6713  18.6822  18.6863  18.7296  18.7299
    18.8241  18.9094  18.9379  19.0154  19.0545  19.1782  19.1832  19.2179
    19.2905  19.3781  19.4983  19.5127  19.5363  19.5529  19.7112  19.7710
    19.8003  19.8241  19.9113  20.0483  20.1240  20.1318  20.2215  20.2420
    20.2634  20.2818  20.2939  20.3674  20.4162  20.4317  20.4349  20.5467
    20.5530  20.6182  20.6462  20.6664  20.6686  20.7010  20.7751  20.8312
    20.8674  20.8713  20.9136  20.9147  20.9374  21.0163  21.0404  21.0421
    21.0532  21.1220  21.1587  21.1744  21.2576  21.3214  21.3660  21.4497
    21.5123  21.5326  21.5656  21.5849  21.6112  21.6341  21.6576  21.6751
    21.7820  21.7970  21.8186  21.8692  21.9914  22.0220  22.0380  22.0876
    22.1954  22.2053  22.3747  22.3982  22.5128  22.5581  22.6421  22.7216
    22.8678  22.8926  22.9047  22.9481  23.0356  23.1127  23.1763  23.1842
    23.2649  23.3107  23.3491  23.4533  23.4642  23.4800  23.5511  23.6157
    23.6622  23.6624  23.8190  23.8200  23.8218  23.8672  24.0454  24.0927
    24.1119  24.1266  24.1644  24.1711  24.1867  24.1941  24.1950  24.2349
    24.3085  24.4566  24.5249  24.5410  24.5422  24.5549  24.5720  24.5780
    24.5833  24.6546  24.8629  24.8763  24.8799  24.8948  24.9427  24.9772
    25.3078  25.4176  25.4476  25.4577  25.5035  25.8336  26.6861  26.7080
    27.4772  27.6527  27.9474

          k = 0.0556 0.3882 0.3889 ( 30237 PWs)   bands (ev):

   -49.9204 -49.8961 -49.8960 -49.8748 -49.8384 -49.8260 -49.8259 -49.8226
   -49.8168 -49.8126 -49.8125 -49.8058 -49.7819 -49.7811 -49.7759 -49.7752
   -49.7750 -49.7749 -49.7686 -49.7685 -49.7662 -49.7661 -49.7574 -49.7565
   -49.7564 -49.7562 -49.7547 -49.7538 -49.7483 -49.7427 -49.7425 -49.7402
   -20.2759 -20.2757 -20.2142 -20.2138 -20.2125 -20.2117 -20.2081 -20.2014
   -20.1961 -20.1953 -20.1787 -20.1694 -20.1692 -20.1606 -20.1595 -20.1369
   -20.1363 -20.1223 -20.1218 -20.1215 -20.1210 -20.1202 -20.1194 -20.0837
   -20.0829 -20.0815 -20.0431 -19.9983 -19.9932 -19.9409 -19.9401 -19.8702
   -19.8494 -19.8491 -19.8177 -19.8143 -19.8089 -19.7792 -19.7783 -19.7660
   -19.7631 -19.7631 -19.7627 -19.7492 -19.7452 -19.7007 -19.6988 -19.6986
   -19.6972 -19.6844 -19.6835 -19.6785 -19.6755 -19.6753 -19.6730 -19.6727
   -19.6609 -19.6603 -19.6290 -19.6283 -19.6214 -19.6209 -19.6188 -19.6089
   -19.6087 -19.5853 -19.5851 -19.5805 -19.5741 -19.5738 -19.5730 -19.5725
   -19.5559 -19.5517 -19.5511 -19.5497 -19.5492 -19.5438 -19.5349 -19.5285
   -19.5235 -19.5178 -19.5131 -19.5121 -19.5110 -19.5054 -19.4993 -19.4830
   -19.4818 -19.4780 -19.4774 -19.4303 -19.4102 -19.4070 -19.4069 -19.3814
    16.2592  16.8770  16.8791  17.4085  17.4504  17.4990  17.5266  17.5286
    17.6106  17.7648  17.7649  17.7899  17.8205  17.8217  17.8849  17.8853
    17.8967  17.8968  17.9038  17.9049  17.9336  17.9440  17.9442  18.0128
    18.0176  18.0857  18.1307  18.1993  18.2002  18.3939  18.3941  18.3943
    18.3962  18.4024  18.4036  18.4067  18.4085  18.6425  18.6432  18.6574
    18.6578  18.7102  18.7125  18.9616  18.9636  19.0877  19.2964  19.2979
    19.3016  19.3031  19.4693  19.6254  19.6277  19.6461  19.6589  19.7184
    19.7261  20.0456  20.0600  20.0603  20.2263  20.3226  20.3232  20.4407
    20.4477  20.4560  20.4562  20.4568  20.4619  20.4730  20.4936  20.4985
    20.5787  20.6249  20.7787  20.7837  20.8732  20.8766  20.8837  20.9373
    20.9433  20.9585  20.9704  20.9982  21.0563  21.0611  21.0819  21.0863
    21.2193  21.2313  21.2452  21.2468  21.2511  21.2680  21.2780  21.3256
    21.3921  21.4020  21.4355  21.4387  21.4496  21.4596  21.5048  21.5078
    21.5229  21.5306  21.6625  21.7369  21.7428  21.7681  21.7734  22.0432
    22.1976  22.1978  22.2071  22.2084  22.2920  22.2975  22.3656  22.4420
    22.7582  23.0898  23.1327  23.1347  23.1556  23.1573  23.4227  23.4280
    23.4314  23.4332  23.5325  23.5341  23.5929  23.5930  23.6613  23.7005
    23.8449  23.8466  23.9518  23.9776  23.9799  23.9952  23.9968  24.0035
    24.0051  24.0899  24.1974  24.2980  24.3325  24.3529  24.3534  24.3551
    24.3567  24.4031  24.4655  24.5187  24.5187  24.5664  24.5730  24.5791
    24.5803  24.6092  24.6120  24.6174  24.6252  24.6322  24.7988  24.8252
    24.8299  25.1585  25.3194  25.3265  26.0763  26.0803  27.3536  27.3577
    27.4170  27.4290  28.1464

          k = 0.0556 0.3882-0.5000 ( 30236 PWs)   bands (ev):

   -49.9094 -49.9092 -49.8865 -49.8863 -49.8328 -49.8326 -49.8219 -49.8217
   -49.8181 -49.8179 -49.8095 -49.8094 -49.7792 -49.7791 -49.7716 -49.7715
   -49.7703 -49.7701 -49.7677 -49.7675 -49.7636 -49.7634 -49.7620 -49.7618
   -49.7610 -49.7608 -49.7562 -49.7560 -49.7452 -49.7450 -49.7414 -49.7412
   -20.2493 -20.2492 -20.2473 -20.2472 -20.1952 -20.1952 -20.1951 -20.1950
   -20.1792 -20.1791 -20.1717 -20.1716 -20.1661 -20.1660 -20.1620 -20.1619
   -20.1446 -20.1444 -20.1321 -20.1320 -20.1213 -20.1212 -20.1102 -20.1101
   -20.0830 -20.0830 -20.0390 -20.0389 -19.9725 -19.9725 -19.9051 -19.9050
   -19.8134 -19.8134 -19.8044 -19.8044 -19.7940 -19.7938 -19.7769 -19.7767
   -19.7527 -19.7527 -19.7274 -19.7272 -19.7270 -19.7269 -19.7227 -19.7227
   -19.7151 -19.7151 -19.6798 -19.6797 -19.6679 -19.6678 -19.6590 -19.6589
   -19.6441 -19.6440 -19.6376 -19.6375 -19.6372 -19.6372 -19.6186 -19.6185
   -19.5987 -19.5986 -19.5976 -19.5975 -19.5668 -19.5666 -19.5634 -19.5632
   -19.5629 -19.5627 -19.5550 -19.5549 -19.5321 -19.5320 -19.5275 -19.5274
   -19.5234 -19.5233 -19.5194 -19.5192 -19.5008 -19.5007 -19.4956 -19.4955
   -19.4920 -19.4918 -19.4522 -19.4520 -19.4048 -19.4047 -19.3906 -19.3905
    16.5449  16.5450  17.1225  17.1226  17.6112  17.6112  17.6139  17.6139
    17.7010  17.7011  17.7334  17.7334  17.7582  17.7583  17.7671  17.7671
    17.9045  17.9045  17.9321  17.9321  18.0370  18.0372  18.1232  18.1233
    18.1316  18.1317  18.1562  18.1562  18.1602  18.1602  18.2000  18.2001
    18.3758  18.3759  18.4065  18.4066  18.5172  18.5173  18.5531  18.5531
    18.5739  18.5739  18.8608  18.8608  19.0936  19.0937  19.1058  19.1059
    19.4456  19.4457  19.4545  19.4546  19.7007  19.7007  19.7836  19.7836
    19.9091  19.9091  19.9844  19.9844  20.1820  20.1821  20.4364  20.4365
    20.4843  20.4843  20.5394  20.5394  20.6242  20.6242  20.6755  20.6755
    20.7868  20.7869  20.8093  20.8093  20.8352  20.8352  20.9888  20.9888
    21.0037  21.0037  21.0303  21.0304  21.0381  21.0382  21.0726  21.0727
    21.1416  21.1417  21.1742  21.1743  21.1948  21.1948  21.2257  21.2258
    21.3295  21.3296  21.3376  21.3377  21.4844  21.4844  21.5074  21.5074
    21.5119  21.5120  21.6670  21.6670  21.9172  21.9173  21.9253  21.9253
    21.9714  21.9714  21.9906  21.9907  22.1365  22.1366  22.3165  22.3166
    22.9591  22.9592  23.2262  23.2263  23.3375  23.3376  23.3813  23.3815
    23.4106  23.4107  23.6494  23.6495  23.7219  23.7220  23.7401  23.7403
    23.8184  23.8185  23.8997  23.8998  24.0155  24.0155  24.1524  24.1526
    24.2215  24.2216  24.3114  24.3115  24.3787  24.3787  24.3789  24.3789
    24.3961  24.3961  24.4604  24.4604  24.4636  24.4636  24.4983  24.4984
    24.5018  24.5018  24.5840  24.5841  24.6370  24.6371  24.6940  24.6940
    24.8175  24.8175  25.1715  25.1716  26.7263  26.7263  26.7343  26.7344
    28.0722  28.0723  28.1334

          k = 0.0556-0.4991 0.0556 ( 30204 PWs)   bands (ev):

   -49.9260 -49.9259 -49.8407 -49.8407 -49.8405 -49.8405 -49.8243 -49.8243
   -49.8241 -49.8241 -49.8004 -49.8002 -49.7928 -49.7927 -49.7926 -49.7925
   -49.7868 -49.7866 -49.7717 -49.7716 -49.7561 -49.7561 -49.7560 -49.7560
   -49.7532 -49.7532 -49.7531 -49.7531 -49.7386 -49.7385 -49.7384 -49.7383
   -20.2671 -20.2670 -20.2543 -20.2542 -20.2541 -20.2541 -20.2363 -20.2362
   -20.2177 -20.2177 -20.2176 -20.2176 -20.1715 -20.1713 -20.0960 -20.0960
   -20.0959 -20.0959 -20.0756 -20.0756 -20.0756 -20.0756 -19.9877 -19.9877
   -19.9876 -19.9876 -19.9655 -19.9655 -19.9654 -19.9654 -19.9326 -19.9326
   -19.9325 -19.9325 -19.9214 -19.9214 -19.9213 -19.9213 -19.8176 -19.8176
   -19.8175 -19.8175 -19.7270 -19.7269 -19.7268 -19.7267 -19.6738 -19.6736
   -19.6705 -19.6704 -19.6343 -19.6342 -19.6332 -19.6332 -19.6330 -19.6330
   -19.6257 -19.6257 -19.6257 -19.6257 -19.6236 -19.6236 -19.6235 -19.6235
   -19.6111 -19.6111 -19.6110 -19.6109 -19.5984 -19.5984 -19.5983 -19.5983
   -19.5852 -19.5851 -19.5180 -19.5178 -19.5110 -19.5110 -19.5109 -19.5109
   -19.5086 -19.5084 -19.5001 -19.5000 -19.4999 -19.4998 -19.4863 -19.4861
   -19.4775 -19.4775 -19.4774 -19.4774 -19.4169 -19.4168 -19.4145 -19.4143
    16.1169  16.1171  17.3187  17.3188  17.4480  17.4481  17.4482  17.4483
    17.6375  17.6376  17.7037  17.7039  17.7179  17.7179  17.7180  17.7180
    17.7784  17.7784  17.9416  17.9416  17.9418  17.9418  18.1091  18.1091
    18.1092  18.1092  18.3147  18.3147  18.3149  18.3149  18.6709  18.6709
    18.6709  18.6710  18.8122  18.8122  18.8123  18.8123  18.9644  18.9645
    18.9646  18.9646  19.1613  19.1613  19.1614  19.1614  19.3718  19.3718
    19.3719  19.3719  19.3940  19.3940  19.3940  19.3940  19.6981  19.6981
    19.6981  19.6981  19.9358  19.9359  19.9728  19.9729  19.9847  19.9847
    19.9848  19.9848  20.0854  20.0856  20.0856  20.0857  20.2429  20.2430
    20.4639  20.4639  20.4640  20.4640  20.5704  20.5704  20.5704  20.5704
    20.8652  20.8652  20.9379  20.9379  20.9380  20.9381  20.9869  20.9869
    21.0329  21.0330  21.0364  21.0366  21.7024  21.7025  21.7025  21.7025
    21.7081  21.7081  21.7389  21.7389  22.0926  22.0926  22.0927  22.0927
    22.2760  22.2761  22.3884  22.3884  22.3884  22.3884  22.4100  22.4100
    22.4101  22.4101  22.4911  22.4911  22.4912  22.4913  22.5019  22.5019
    22.5020  22.5020  22.5693  22.5693  22.5694  22.5694  22.8211  22.8211
    22.8212  22.8212  23.1672  23.1674  23.7561  23.7562  23.7562  23.7563
    23.7613  23.7615  23.8549  23.8550  24.0334  24.0335  24.0336  24.0336
    24.0905  24.0905  24.1163  24.1163  24.1957  24.1957  24.1958  24.1958
    24.2115  24.2116  24.2116  24.2116  24.4970  24.4970  24.6674  24.6674
    24.6674  24.6674  24.6853  24.6854  25.0894  25.0894  25.0894  25.0894
    25.2226  25.2227  25.2227  25.2228  26.0531  26.0532  26.5806  26.5807
    26.5808  26.5808  27.0715

          k = 0.0556-0.4991 0.1667 ( 30226 PWs)   bands (ev):

   -49.9232 -49.9231 -49.8568 -49.8567 -49.8393 -49.8392 -49.8232 -49.8231
   -49.8081 -49.8080 -49.8079 -49.8078 -49.7986 -49.7985 -49.7852 -49.7851
   -49.7809 -49.7808 -49.7712 -49.7711 -49.7590 -49.7589 -49.7572 -49.7570
   -49.7545 -49.7544 -49.7504 -49.7502 -49.7414 -49.7412 -49.7390 -49.7389
   -20.2706 -20.2706 -20.2623 -20.2622 -20.2324 -20.2323 -20.2115 -20.2114
   -20.2099 -20.2097 -20.2092 -20.2092 -20.1699 -20.1698 -20.1226 -20.1226
   -20.1147 -20.1147 -20.1140 -20.1140 -20.0605 -20.0605 -20.0382 -20.0381
   -20.0076 -20.0075 -20.0000 -19.9999 -19.9549 -19.9548 -19.9214 -19.9213
   -19.8916 -19.8915 -19.8761 -19.8759 -19.8741 -19.8740 -19.8399 -19.8398
   -19.8112 -19.8110 -19.7188 -19.7187 -19.7095 -19.7094 -19.6825 -19.6824
   -19.6681 -19.6680 -19.6675 -19.6673 -19.6603 -19.6602 -19.6406 -19.6405
   -19.6304 -19.6303 -19.6245 -19.6245 -19.6213 -19.6212 -19.6194 -19.6193
   -19.6182 -19.6180 -19.5902 -19.5901 -19.5828 -19.5826 -19.5641 -19.5640
[...]
   -19.5832 -19.5832 -19.5831 -19.5831 -19.5831 -19.5830 -19.5829 -19.5829
   -19.5480 -19.5479 -19.5479 -19.5478 -19.5319 -19.5319 -19.5319 -19.5319
   -19.5096 -19.5096 -19.5096 -19.5096 -19.5071 -19.5070 -19.5070 -19.5069
   -19.4743 -19.4742 -19.4741 -19.4740 -19.3930 -19.3930 -19.3930 -19.3930
    16.8127  16.8128  16.8130  16.8131  17.6722  17.6722  17.6722  17.6723
    17.7516  17.7517  17.7517  17.7518  17.8024  17.8024  17.8025  17.8025
    17.9371  17.9371  17.9372  17.9372  17.9373  17.9373  17.9374  17.9374
    18.2517  18.2518  18.2519  18.2519  18.2520  18.2520  18.2521  18.2521
    18.3521  18.3521  18.3521  18.3521  18.3522  18.3522  18.3522  18.3522
    18.6195  18.6195  18.6196  18.6196  19.2585  19.2585  19.2586  19.2587
    19.2587  19.2588  19.2588  19.2589  19.8293  19.8293  19.8293  19.8293
    20.0538  20.0539  20.0540  20.0541  20.3322  20.3323  20.3324  20.3325
    20.5495  20.5496  20.5496  20.5496  20.5618  20.5618  20.5618  20.5618
    20.9189  20.9189  20.9189  20.9190  20.9190  20.9190  20.9190  20.9190
    21.0169  21.0170  21.0170  21.0171  21.1747  21.1748  21.1748  21.1749
    21.1856  21.1857  21.1857  21.1857  21.3298  21.3298  21.3299  21.3299
    21.3345  21.3345  21.3345  21.3346  21.3347  21.3347  21.3347  21.3347
    21.5897  21.5897  21.5898  21.5898  21.7249  21.7249  21.7250  21.7250
    21.7250  21.7250  21.7251  21.7251  22.2379  22.2380  22.2380  22.2382
    23.1989  23.1990  23.1991  23.1992  23.3919  23.3920  23.3920  23.3921
    23.6074  23.6074  23.6075  23.6075  23.6075  23.6076  23.6077  23.6077
    24.1235  24.1236  24.1236  24.1237  24.2464  24.2464  24.2465  24.2465
    24.2465  24.2465  24.2466  24.2467  24.2500  24.2500  24.2500  24.2501
    24.4829  24.4830  24.4830  24.4831  24.5178  24.5178  24.5179  24.5179
    24.5179  24.5179  24.5179  24.5179  24.5267  24.5267  24.5267  24.5267
    24.7792  24.7792  24.7793  24.7793  27.4325  27.4325  27.4326  27.4326
    27.4326  27.4326  27.4327

          k =-0.5000 0.1664-0.5000 ( 30228 PWs)   bands (ev):

   -49.8965 -49.8964 -49.8963 -49.8962 -49.8415 -49.8414 -49.8413 -49.8412
   -49.8013 -49.8011 -49.8011 -49.8009 -49.7661 -49.7660 -49.7659 -49.7659
   -49.7659 -49.7659 -49.7657 -49.7657 -49.7656 -49.7656 -49.7654 -49.7654
   -49.7654 -49.7654 -49.7653 -49.7652 -49.7463 -49.7462 -49.7461 -49.7460
   -20.2222 -20.2222 -20.2222 -20.2222 -20.2221 -20.2221 -20.2221 -20.2221
   -20.1598 -20.1598 -20.1597 -20.1596 -20.1596 -20.1596 -20.1595 -20.1595
   -20.1551 -20.1549 -20.1549 -20.1548 -20.1547 -20.1547 -20.1546 -20.1546
   -20.0390 -20.0389 -20.0389 -20.0388 -19.9136 -19.9136 -19.9136 -19.9136
   -19.7620 -19.7620 -19.7620 -19.7620 -19.7620 -19.7619 -19.7619 -19.7619
   -19.7565 -19.7565 -19.7564 -19.7564 -19.7564 -19.7564 -19.7562 -19.7562
   -19.7208 -19.7208 -19.7208 -19.7208 -19.6479 -19.6479 -19.6478 -19.6478
   -19.6478 -19.6478 -19.6477 -19.6477 -19.6438 -19.6438 -19.6438 -19.6438
   -19.5956 -19.5955 -19.5955 -19.5954 -19.5866 -19.5866 -19.5865 -19.5865
   -19.5864 -19.5864 -19.5863 -19.5863 -19.5538 -19.5538 -19.5538 -19.5538
   -19.4876 -19.4876 -19.4876 -19.4876 -19.4743 -19.4742 -19.4742 -19.4741
   -19.4628 -19.4627 -19.4627 -19.4625 -19.3969 -19.3969 -19.3969 -19.3969
    16.8429  16.8430  16.8432  16.8433  17.5255  17.5255  17.5256  17.5256
    17.7836  17.7836  17.7836  17.7837  17.9029  17.9029  17.9029  17.9030
    17.9030  17.9031  17.9031  17.9032  17.9034  17.9034  17.9034  17.9034
    18.2724  18.2725  18.2725  18.2725  18.2725  18.2726  18.2726  18.2726
    18.3707  18.3708  18.3708  18.3709  18.3709  18.3710  18.3710  18.3711
    18.6510  18.6511  18.6511  18.6511  19.2910  19.2910  19.2911  19.2912
    19.2912  19.2913  19.2913  19.2913  19.7513  19.7514  19.7515  19.7515
    19.8893  19.8893  19.8893  19.8893  20.4750  20.4750  20.4750  20.4750
    20.6202  20.6203  20.6203  20.6203  20.6461  20.6462  20.6462  20.6463
    20.8669  20.8669  20.8669  20.8669  20.8669  20.8669  20.8669  20.8670
    21.0068  21.0068  21.0069  21.0070  21.0592  21.0592  21.0592  21.0593
    21.1320  21.1320  21.1320  21.1321  21.3139  21.3139  21.3140  21.3140
    21.3141  21.3141  21.3141  21.3141  21.5200  21.5201  21.5202  21.5202
    21.5218  21.5218  21.5219  21.5219  21.8038  21.8038  21.8039  21.8039
    21.8039  21.8039  21.8040  21.8040  22.3567  22.3569  22.3569  22.3570
    23.0551  23.0552  23.0552  23.0554  23.2520  23.2520  23.2521  23.2521
    23.2522  23.2522  23.2522  23.2523  23.3469  23.3470  23.3470  23.3471
    23.6037  23.6037  23.6038  23.6038  23.9831  23.9832  23.9832  23.9833
    24.5259  24.5259  24.5259  24.5260  24.5260  24.5260  24.5261  24.5261
    24.5857  24.5857  24.5857  24.5857  24.5857  24.5857  24.5857  24.5857
    24.6133  24.6134  24.6134  24.6134  24.6708  24.6709  24.6709  24.6710
    25.5405  25.5406  25.5407  25.5407  27.5159  27.5160  27.5160  27.5160
    27.5161  27.5161  27.5161

          k =-0.5000 0.2773-0.5000 ( 30204 PWs)   bands (ev):

   -49.8919 -49.8917 -49.8917 -49.8915 -49.8543 -49.8541 -49.8541 -49.8539
   -49.7885 -49.7884 -49.7883 -49.7882 -49.7660 -49.7660 -49.7658 -49.7658
   -49.7658 -49.7658 -49.7657 -49.7656 -49.7656 -49.7656 -49.7655 -49.7654
   -49.7654 -49.7654 -49.7653 -49.7652 -49.7510 -49.7508 -49.7508 -49.7506
   -20.2145 -20.2145 -20.2145 -20.2145 -20.2144 -20.2144 -20.2144 -20.2144
   -20.1762 -20.1761 -20.1761 -20.1760 -20.1713 -20.1712 -20.1712 -20.1710
   -20.1683 -20.1683 -20.1682 -20.1682 -20.1682 -20.1681 -20.1681 -20.1680
   -19.9871 -19.9870 -19.9870 -19.9869 -19.8707 -19.8707 -19.8707 -19.8707
   -19.7639 -19.7639 -19.7639 -19.7638 -19.7622 -19.7622 -19.7621 -19.7621
   -19.7621 -19.7621 -19.7621 -19.7621 -19.7587 -19.7587 -19.7585 -19.7585
   -19.7585 -19.7585 -19.7584 -19.7584 -19.6484 -19.6484 -19.6483 -19.6483
   -19.6381 -19.6380 -19.6380 -19.6380 -19.6379 -19.6379 -19.6378 -19.6378
   -19.6362 -19.6362 -19.6362 -19.6362 -19.5931 -19.5931 -19.5930 -19.5930
   -19.5929 -19.5929 -19.5928 -19.5928 -19.5746 -19.5746 -19.5746 -19.5746
   -19.4667 -19.4667 -19.4667 -19.4666 -19.4506 -19.4505 -19.4505 -19.4504
   -19.4479 -19.4477 -19.4477 -19.4476 -19.4046 -19.4046 -19.4046 -19.4046
    16.9023  16.9024  16.9025  16.9026  17.3747  17.3747  17.3748  17.3749
    17.8396  17.8396  17.8397  17.8397  17.8853  17.8853  17.8853  17.8854
    17.8854  17.8855  17.8855  17.8856  17.9648  17.9648  17.9648  17.9648
    18.1577  18.1578  18.1578  18.1578  18.1578  18.1579  18.1579  18.1579
    18.5523  18.5523  18.5523  18.5524  18.5525  18.5525  18.5525  18.5526
    18.7179  18.7179  18.7179  18.7179  19.2795  19.2795  19.2796  19.2796
    19.2797  19.2797  19.2798  19.2798  19.4595  19.4595  19.4596  19.4597
    20.0021  20.0021  20.0021  20.0021  20.4759  20.4759  20.4759  20.4760
    20.7238  20.7238  20.7239  20.7239  20.8005  20.8006  20.8006  20.8007
    20.8513  20.8513  20.8513  20.8513  20.8513  20.8514  20.8514  20.8514
    20.9842  20.9843  20.9843  20.9844  20.9878  20.9879  20.9879  20.9880
    21.0579  21.0579  21.0579  21.0579  21.2659  21.2659  21.2659  21.2660
    21.2661  21.2661  21.2661  21.2661  21.3920  21.3920  21.3921  21.3921
    21.7468  21.7469  21.7469  21.7470  21.9218  21.9218  21.9218  21.9218
    21.9219  21.9219  21.9219  21.9219  22.5597  22.5599  22.5599  22.5600
    22.8229  22.8230  22.8231  22.8232  22.8671  22.8672  22.8672  22.8672
    22.8673  22.8673  22.8674  22.8674  23.2552  23.2553  23.2553  23.2553
    23.2654  23.2655  23.2655  23.2656  23.6941  23.6942  23.6942  23.6943
    24.6973  24.6973  24.6973  24.6973  24.6974  24.6974  24.6974  24.6974
    24.7309  24.7309  24.7310  24.7310  24.7573  24.7573  24.7573  24.7573
    24.7574  24.7574  24.7575  24.7575  24.8038  24.8039  24.8039  24.8040
    26.3855  26.3855  26.3856  26.3857  27.6885  27.6885  27.6885  27.6886
    27.6886  27.6886  27.6887

          k =-0.5000 0.3882-0.5000 ( 30220 PWs)   bands (ev):

   -49.8851 -49.8850 -49.8849 -49.8848 -49.8660 -49.8659 -49.8658 -49.8657
   -49.7768 -49.7767 -49.7766 -49.7765 -49.7660 -49.7659 -49.7658 -49.7658
   -49.7658 -49.7658 -49.7657 -49.7656 -49.7656 -49.7656 -49.7655 -49.7655
   -49.7655 -49.7654 -49.7654 -49.7653 -49.7577 -49.7576 -49.7575 -49.7574
   -20.2041 -20.2041 -20.2041 -20.2041 -20.2040 -20.2040 -20.2040 -20.2040
   -20.1882 -20.1881 -20.1880 -20.1879 -20.1844 -20.1843 -20.1843 -20.1842
   -20.1795 -20.1795 -20.1795 -20.1794 -20.1794 -20.1794 -20.1793 -20.1793
   -19.9311 -19.9311 -19.9311 -19.9310 -19.8186 -19.8186 -19.8186 -19.8185
   -19.8164 -19.8164 -19.8164 -19.8163 -19.7622 -19.7622 -19.7622 -19.7621
   -19.7621 -19.7621 -19.7621 -19.7621 -19.7606 -19.7606 -19.7605 -19.7605
   -19.7605 -19.7604 -19.7604 -19.7604 -19.7047 -19.7047 -19.7046 -19.7046
   -19.6260 -19.6260 -19.6260 -19.6260 -19.6259 -19.6258 -19.6258 -19.6258
   -19.6251 -19.6251 -19.6251 -19.6251 -19.6023 -19.6023 -19.6023 -19.6023
   -19.6021 -19.6021 -19.6021 -19.6021 -19.5939 -19.5939 -19.5939 -19.5939
   -19.4473 -19.4473 -19.4473 -19.4473 -19.4364 -19.4363 -19.4363 -19.4362
   -19.4362 -19.4361 -19.4361 -19.4360 -19.4158 -19.4158 -19.4158 -19.4158
    16.9888  16.9889  16.9891  16.9892  17.2301  17.2302  17.2303  17.2303
    17.9028  17.9028  17.9028  17.9028  17.9029  17.9029  17.9030  17.9030
    17.9045  17.9045  17.9045  17.9045  17.9820  17.9820  17.9820  17.9820
    18.0460  18.0460  18.0460  18.0461  18.0461  18.0462  18.0462  18.0462
    18.7653  18.7653  18.7653  18.7654  18.7655  18.7655  18.7655  18.7655
    18.8272  18.8273  18.8273  18.8273  19.1707  19.1708  19.1708  19.1709
    19.1709  19.1710  19.1710  19.1710  19.1998  19.1999  19.2000  19.2000
    20.1507  20.1507  20.1507  20.1507  20.4201  20.4201  20.4201  20.4201
    20.8689  20.8689  20.8690  20.8690  20.8893  20.8893  20.8893  20.8894
    20.9253  20.9253  20.9254  20.9254  20.9254  20.9254  20.9254  20.9255
    20.9498  20.9499  20.9499  20.9499  20.9625  20.9626  20.9626  20.9626
    20.9930  20.9930  20.9930  20.9931  21.1800  21.1800  21.1801  21.1801
    21.1801  21.1802  21.1802  21.1802  21.2249  21.2250  21.2250  21.2251
    21.9994  21.9995  21.9995  21.9996  22.0672  22.0672  22.0673  22.0673
    22.0673  22.0673  22.0674  22.0674  22.5267  22.5267  22.5267  22.5268
    22.5268  22.5268  22.5269  22.5269  22.5519  22.5520  22.5521  22.5521
    22.8138  22.8139  22.8139  22.8140  23.0956  23.0957  23.0957  23.0958
    23.1671  23.1672  23.1672  23.1673  23.3949  23.3950  23.3950  23.3951
    24.8128  24.8128  24.8129  24.8129  24.8129  24.8129  24.8129  24.8129
    24.8299  24.8300  24.8300  24.8301  24.8752  24.8753  24.8753  24.8753
    24.8779  24.8779  24.8779  24.8779  24.8780  24.8780  24.8780  24.8780
    27.2953  27.2954  27.2955  27.2956  27.9465  27.9465  27.9466  27.9466
    27.9466  27.9467  27.9467

          k =-0.5000-0.4991-0.5000 ( 30280 PWs)   bands (ev):

   -49.8765 -49.8764 -49.8763 -49.8763 -49.8762 -49.8761 -49.8761 -49.8760
   -49.7666 -49.7664 -49.7664 -49.7664 -49.7662 -49.7662 -49.7662 -49.7660
   -49.7659 -49.7659 -49.7658 -49.7658 -49.7657 -49.7657 -49.7657 -49.7657
   -49.7656 -49.7656 -49.7655 -49.7655 -49.7655 -49.7654 -49.7654 -49.7653
   -20.1920 -20.1920 -20.1920 -20.1920 -20.1919 -20.1919 -20.1919 -20.1919
   -20.1919 -20.1918 -20.1918 -20.1918 -20.1918 -20.1917 -20.1917 -20.1917
   -20.1906 -20.1906 -20.1905 -20.1905 -20.1905 -20.1904 -20.1904 -20.1903
   -19.8734 -19.8734 -19.8734 -19.8734 -19.8733 -19.8733 -19.8733 -19.8732
   -19.7623 -19.7623 -19.7623 -19.7622 -19.7622 -19.7622 -19.7622 -19.7621
   -19.7618 -19.7617 -19.7617 -19.7617 -19.7617 -19.7617 -19.7617 -19.7617
   -19.7616 -19.7616 -19.7616 -19.7616 -19.7616 -19.7616 -19.7616 -19.7615
   -19.6138 -19.6138 -19.6138 -19.6137 -19.6137 -19.6137 -19.6137 -19.6136
   -19.6136 -19.6136 -19.6135 -19.6135 -19.6135 -19.6135 -19.6135 -19.6135
   -19.6110 -19.6110 -19.6110 -19.6110 -19.6109 -19.6109 -19.6109 -19.6109
   -19.4318 -19.4318 -19.4317 -19.4317 -19.4317 -19.4316 -19.4316 -19.4315
   -19.4303 -19.4303 -19.4303 -19.4303 -19.4301 -19.4301 -19.4301 -19.4301
    17.0994  17.0995  17.0996  17.0997  17.0997  17.0997  17.0998  17.0999
    17.9576  17.9576  17.9577  17.9577  17.9577  17.9577  17.9577  17.9577
    17.9578  17.9578  17.9578  17.9578  17.9578  17.9579  17.9579  17.9579
    17.9580  17.9580  17.9580  17.9581  17.9582  17.9582  17.9582  17.9582
    18.9837  18.9837  18.9837  18.9837  18.9837  18.9838  18.9838  18.9838
    18.9838  18.9839  18.9839  18.9839  18.9839  18.9840  18.9840  18.9840
    18.9869  18.9869  18.9870  18.9870  18.9871  18.9871  18.9871  18.9872
    20.3037  20.3037  20.3037  20.3037  20.3037  20.3037  20.3038  20.3038
    20.9326  20.9326  20.9326  20.9327  20.9327  20.9327  20.9327  20.9327
    20.9541  20.9542  20.9542  20.9542  20.9542  20.9542  20.9542  20.9543
    21.0426  21.0426  21.0427  21.0427  21.0427  21.0427  21.0428  21.0428
    21.0557  21.0557  21.0557  21.0557  21.0557  21.0558  21.0558  21.0558
    21.0558  21.0558  21.0558  21.0558  21.0559  21.0559  21.0559  21.0559
    22.2604  22.2604  22.2604  22.2605  22.2605  22.2605  22.2605  22.2605
    22.2605  22.2606  22.2606  22.2606  22.2606  22.2606  22.2606  22.2607
    22.2715  22.2716  22.2716  22.2716  22.2717  22.2717  22.2717  22.2718
    23.0899  23.0900  23.0900  23.0900  23.0901  23.0901  23.0901  23.0902
    23.0972  23.0972  23.0973  23.0973  23.0974  23.0974  23.0974  23.0975
    24.8825  24.8825  24.8825  24.8826  24.8826  24.8826  24.8826  24.8827
    24.8869  24.8869  24.8869  24.8870  24.8870  24.8870  24.8870  24.8870
    24.8870  24.8870  24.8870  24.8871  24.8871  24.8871  24.8871  24.8871
    28.2516  28.2523  28.2540  28.2549  28.2556  28.2585  28.2608  28.2623
    28.2646  28.2646  28.2647

     the Fermi energy is    23.0611 ev

!    total energy              =  -13813.30082468 Ry

     total all-electron energy =   -289989.691164 Ry
     estimated scf accuracy    <       0.00000039 Ry
     smearing contrib. (-TS)   =       0.02029314 Ry
     internal energy E=F+TS    =  -13813.32111783 Ry

     The total energy is F=E-TS. E is the sum of the following terms:
     one-electron contribution =   -1000.30033962 Ry
     hartree contribution      =     917.44112024 Ry
     xc contribution           =    -927.99343955 Ry
     ewald contribution        =   -5213.02914939 Ry
     one-center paw contrib.   =   -7589.43930951 Ry

     convergence has been achieved in  12 iterations

     Forces acting on atoms (cartesian axes, Ry/au):

     atom    1 type  1   force =     0.00000000    0.00000000    0.00000000
     atom    2 type  1   force =    -0.00005384    0.00007850    0.00000000
     atom    3 type  1   force =    -0.00006971   -0.00000000   -0.00006971
     atom    4 type  1   force =     0.00000000    0.00007850   -0.00005384
     atom    5 type  1   force =     0.00000000    0.00000000    0.00000000
     atom    6 type  1   force =    -0.00004412    0.00012437   -0.00000000
     atom    7 type  1   force =    -0.00006971   -0.00000000    0.00006971
     atom    8 type  1   force =     0.00000000    0.00007850    0.00005384
     atom    9 type  1   force =     0.00000000    0.00000000    0.00000000
     atom   10 type  1   force =    -0.00005384   -0.00007850    0.00000000
     atom   11 type  1   force =    -0.00002753    0.00000000   -0.00002753
     atom   12 type  1   force =     0.00000000   -0.00007850   -0.00005384
     atom   13 type  1   force =     0.00000000    0.00000000    0.00000000
     atom   14 type  1   force =    -0.00004412   -0.00012437   -0.00000000
     atom   15 type  1   force =    -0.00002753    0.00000000    0.00002753
     atom   16 type  1   force =     0.00000000   -0.00007850    0.00005384
     atom   17 type  1   force =     0.00000000    0.00000000    0.00000000
     atom   18 type  1   force =     0.00005384    0.00007850    0.00000000
     atom   19 type  1   force =     0.00006971   -0.00000000   -0.00006971
     atom   20 type  1   force =     0.00000000    0.00012437   -0.00004412
     atom   21 type  1   force =     0.00000000    0.00000000    0.00000000
     atom   22 type  1   force =     0.00004412    0.00012437   -0.00000000
     atom   23 type  1   force =     0.00006971   -0.00000000    0.00006971
     atom   24 type  1   force =     0.00000000    0.00012437    0.00004412
     atom   25 type  1   force =     0.00000000    0.00000000    0.00000000
     atom   26 type  1   force =     0.00005384   -0.00007850    0.00000000
     atom   27 type  1   force =     0.00002753    0.00000000   -0.00002753
     atom   28 type  1   force =     0.00000000   -0.00012437   -0.00004412
     atom   29 type  1   force =     0.00000000    0.00000000    0.00000000
     atom   30 type  1   force =     0.00004412   -0.00012437   -0.00000000
     atom   31 type  1   force =     0.00002753    0.00000000    0.00002753
     atom   32 type  1   force =     0.00000000   -0.00012437    0.00004412

     Total force =     0.000507     Total SCF correction =     0.001525
     SCF correction compared to forces is large: reduce conv_thr to get better values


     Computing stress (Cartesian axis) and pressure

          total   stress  (Ry/bohr**3)                   (kbar)     P=      -10.17
  -0.00005846   0.00000000   0.00000000           -8.60        0.00        0.00
   0.00000000  -0.00009053   0.00000000            0.00      -13.32        0.00
   0.00000000   0.00000000  -0.00005846            0.00        0.00       -8.60


     Writing output data file /scratch/wBBmUqDefsAMaIVh.save/
 
     init_run     :     26.63s CPU     27.45s WALL (       1 calls)
     electrons    :   1031.08s CPU   1047.12s WALL (       1 calls)
     forces       :     11.61s CPU     11.84s WALL (       1 calls)
     stress       :     67.47s CPU     68.08s WALL (       1 calls)

     Called by init_run:
     wfcinit      :     25.97s CPU     26.72s WALL (       1 calls)
     potinit      :      0.19s CPU      0.20s WALL (       1 calls)
     hinit0       :      0.13s CPU      0.13s WALL (       1 calls)

     Called by electrons:
     c_bands      :    918.64s CPU    932.05s WALL (      13 calls)
     sum_band     :    110.76s CPU    113.13s WALL (      13 calls)
     v_of_rho     :      0.19s CPU      0.21s WALL (      13 calls)
     newd         :      0.29s CPU      0.42s WALL (      13 calls)
     PAW_pot      :      1.11s CPU      1.18s WALL (      13 calls)
     mix_rho      :      0.14s CPU      0.16s WALL (      13 calls)

     Called by c_bands:
     init_us_2    :      4.11s CPU      4.19s WALL (    2175 calls)
     cegterg      :    903.74s CPU    916.49s WALL (     975 calls)

     Called by *egterg:
     cdiaghg      :    119.61s CPU    121.31s WALL (    3663 calls)
     h_psi        :    479.44s CPU    486.96s WALL (    3813 calls)
     s_psi        :     33.83s CPU     34.11s WALL (    3813 calls)
     g_psi        :      0.84s CPU      0.86s WALL (    2763 calls)

     Called by h_psi:
     h_psi:calbec :     65.57s CPU     66.07s WALL (    3813 calls)
     vloc_psi     :    378.95s CPU    385.30s WALL (    3813 calls)
     add_vuspsi   :     32.68s CPU     33.32s WALL (    3813 calls)

     General routines
     calbec       :    103.58s CPU    104.57s WALL (    5163 calls)
     fft          :      0.25s CPU      0.27s WALL (     193 calls)
     ffts         :      0.02s CPU      0.03s WALL (      26 calls)
     fftw         :    442.16s CPU    449.79s WALL ( 1752837 calls)
     interpolate  :      0.03s CPU      0.04s WALL (      13 calls)
 
     Parallel routines
     fft_scatt_xy :     30.35s CPU     30.83s WALL ( 1753056 calls)
     fft_scatt_yz :    359.78s CPU    366.19s WALL ( 1753056 calls)
 
     PWSCF        :  19m14.80s CPU  19m35.80s WALL

 
   This run was terminated on:  17:32:15  23Nov2021            

=------------------------------------------------------------------------------=
   JOB DONE.
=------------------------------------------------------------------------------=
