
     Program PWSCF v.6.7MaX starts on 23Nov2021 at 21:21:21 

     This program is part of the open-source Quantum ESPRESSO suite
     for quantum simulation of materials; please cite
         "P. Giannozzi et al., J. Phys.:Condens. Matter 21 395502 (2009);
         "P. Giannozzi et al., J. Phys.:Condens. Matter 29 465901 (2017);
          URL http://www.quantum-espresso.org", 
     in publications or presentations arising from this work. More details at
     http://www.quantum-espresso.org/quote

     Parallel version (MPI & OpenMP), running on      72 processor cores
     Number of MPI processes:                72
     Threads/MPI process:                     1

     MPI processes distributed on     1 nodes
     R & G space division:  proc/nbgrp/npool/nimage =      72
     Reading input from /rds/homes/b/bxp912/jobs/20211014_ru_eos/wd/ec/ec_3_008.in
Warning: card &CELL ignored
Warning: card CELL_DYNAMICS = 'BFGS', ignored
Warning: card CELL_FACTOR = 2.0, ignored
Warning: card PRESS = 0.0, ignored
Warning: card / ignored

     Current dimensions of program PWSCF are:
     Max number of different atomic species (ntypx) = 10
     Max number of k-points (npk) =  40000
     Max angular momentum in pseudopotentials (lmaxx) =  3
     file Ru.pbe-spn-kjpaw_psl.1.0.0.UPF: wavefunction(s)  4D renormalized

     Subspace diagonalization in iterative solution of the eigenvalue problem:
     one sub-group per band group will be used
     ELPA distributed-memory algorithm (size of sub-group:  8*  8 procs)

     Found symmetry operation: I + (  0.2500  0.2500  0.0000)
     This is a supercell, fractional translations are disabled
     Message from routine setup:
     using ibrav=0 with symmetry is DISCOURAGED, use correct ibrav instead
 
     Parallelization info
     --------------------
     sticks:   dense  smooth     PW     G-vecs:    dense   smooth      PW
     Min          98      65     17                 6274     3366     477
     Max          99      67     18                 6279     3369     484
     Sum        7113    4693   1281               451879   242457   34561
 


     bravais-lattice index     =            0
     lattice parameter (alat)  =      14.4007  a.u.
     unit-cell volume          =    2999.5111 (a.u.)^3
     number of atoms/cell      =           32
     number of atomic types    =            1
     number of electrons       =       512.00
     number of Kohn-Sham states=          307
     kinetic-energy cutoff     =      71.0000  Ry
     charge density cutoff     =     430.0000  Ry
     scf convergence threshold =      1.0E-06
     mixing beta               =       0.1000
     number of iterations used =           10  plain     mixing
     Exchange-correlation= SLA  PW   PBX  PBC
                           (   1   4   3   4   0   0   0)

     celldm(1)=  14.400742  celldm(2)=   0.000000  celldm(3)=   0.000000
     celldm(4)=   0.000000  celldm(5)=   0.000000  celldm(6)=   0.000000

     crystal axes: (cart. coord. in units of alat)
               a(1) = (   1.000000   0.000000   0.000000 )  
               a(2) = (   0.000000   1.000000   0.000000 )  
               a(3) = (   0.000000   0.000000   1.004375 )  

     reciprocal axes: (cart. coord. in units 2 pi/alat)
               b(1) = (  1.000000  0.000000  0.000000 )  
               b(2) = (  0.000000  1.000000  0.000000 )  
               b(3) = (  0.000000  0.000000  0.995644 )  


     PseudoPot. # 1 for Ru read from file:
     /rds/homes/b/bxp912/pp/Ru.pbe-spn-kjpaw_psl.1.0.0.UPF
     MD5 check sum: 0ae1f594dea09af7be8575c3a481d1ae
     Pseudo is Projector augmented-wave + core cor, Zval = 16.0
     Generated using "atomic" code by A. Dal Corso  v.5.1
     Shape of augmentation charge: PSQ
     Using radial grid of 1233 points,  6 beta functions with: 
                l(1) =   0
                l(2) =   0
                l(3) =   1
                l(4) =   1
                l(5) =   2
                l(6) =   2
     Q(r) pseudized with 0 coefficients 


     atomic species   valence    mass     pseudopotential
        Ru            16.00   101.07000     Ru( 1.00)

     16 Sym. Ops., with inversion, found



   Cartesian axes

     site n.     atom                  positions (alat units)
         1           Ru  tau(   1) = (   0.0000000   0.0000000   0.0000000  )
         2           Ru  tau(   2) = (   0.2500000   0.2500000   0.0000000  )
         3           Ru  tau(   3) = (   0.2500000   0.0000000   0.2510932  )
         4           Ru  tau(   4) = (   0.0000000   0.2500000   0.2510932  )
         5           Ru  tau(   5) = (   0.0000000   0.0000000   0.5021875  )
         6           Ru  tau(   6) = (   0.2499990   0.2499990   0.5021875  )
         7           Ru  tau(   7) = (   0.2500000   0.0000000   0.7532807  )
         8           Ru  tau(   8) = (   0.0000000   0.2500000   0.7532807  )
         9           Ru  tau(   9) = (   0.0000000   0.5000002   0.0000000  )
        10           Ru  tau(  10) = (   0.2500000   0.7500004   0.0000000  )
        11           Ru  tau(  11) = (   0.2499990   0.5000002   0.2510922  )
        12           Ru  tau(  12) = (   0.0000000   0.7500004   0.2510932  )
        13           Ru  tau(  13) = (   0.0000000   0.5000002   0.5021875  )
        14           Ru  tau(  14) = (   0.2499990   0.7500015   0.5021875  )
        15           Ru  tau(  15) = (   0.2499990   0.5000002   0.7532818  )
        16           Ru  tau(  16) = (   0.0000000   0.7500004   0.7532807  )
        17           Ru  tau(  17) = (   0.5000002   0.0000000   0.0000000  )
        18           Ru  tau(  18) = (   0.7500004   0.2500000   0.0000000  )
        19           Ru  tau(  19) = (   0.7500004   0.0000000   0.2510932  )
        20           Ru  tau(  20) = (   0.5000002   0.2499990   0.2510922  )
        21           Ru  tau(  21) = (   0.5000002   0.0000000   0.5021875  )
        22           Ru  tau(  22) = (   0.7500015   0.2499990   0.5021875  )
        23           Ru  tau(  23) = (   0.7500004   0.0000000   0.7532807  )
        24           Ru  tau(  24) = (   0.5000002   0.2499990   0.7532818  )
        25           Ru  tau(  25) = (   0.5000002   0.5000002   0.0000000  )
        26           Ru  tau(  26) = (   0.7500004   0.7500004   0.0000000  )
        27           Ru  tau(  27) = (   0.7500015   0.5000002   0.2510922  )
        28           Ru  tau(  28) = (   0.5000002   0.7500015   0.2510922  )
        29           Ru  tau(  29) = (   0.5000002   0.5000002   0.5021875  )
        30           Ru  tau(  30) = (   0.7500015   0.7500015   0.5021875  )
        31           Ru  tau(  31) = (   0.7500015   0.5000002   0.7532818  )
        32           Ru  tau(  32) = (   0.5000002   0.7500015   0.7532818  )

     number of k points=    75  Marzari-Vanderbilt smearing, width (Ry)=  0.0400
                       cart. coord. in units 2pi/alat
        k(    1) = (   0.0555556   0.0555556   0.0553136), wk =   0.0219479
        k(    2) = (   0.0555556   0.0555556   0.1659407), wk =   0.0219479
        k(    3) = (   0.0555556   0.0555556   0.2765678), wk =   0.0219479
        k(    4) = (   0.0555556   0.0555556   0.3871949), wk =   0.0219479
        k(    5) = (   0.0555556   0.0555556  -0.4978220), wk =   0.0109739
        k(    6) = (   0.0555556   0.1666667   0.0553136), wk =   0.0438957
        k(    7) = (   0.0555556   0.1666667   0.1659407), wk =   0.0438957
        k(    8) = (   0.0555556   0.1666667   0.2765678), wk =   0.0438957
        k(    9) = (   0.0555556   0.1666667   0.3871949), wk =   0.0438957
        k(   10) = (   0.0555556   0.1666667  -0.4978220), wk =   0.0219479
        k(   11) = (   0.0555556   0.2777778   0.0553136), wk =   0.0438957
        k(   12) = (   0.0555556   0.2777778   0.1659407), wk =   0.0438957
        k(   13) = (   0.0555556   0.2777778   0.2765678), wk =   0.0438957
        k(   14) = (   0.0555556   0.2777778   0.3871949), wk =   0.0438957
        k(   15) = (   0.0555556   0.2777778  -0.4978220), wk =   0.0219479
        k(   16) = (   0.0555556   0.3888889   0.0553136), wk =   0.0438957
        k(   17) = (   0.0555556   0.3888889   0.1659407), wk =   0.0438957
        k(   18) = (   0.0555556   0.3888889   0.2765678), wk =   0.0438957
        k(   19) = (   0.0555556   0.3888889   0.3871949), wk =   0.0438957
        k(   20) = (   0.0555556   0.3888889  -0.4978220), wk =   0.0219479
        k(   21) = (   0.0555556  -0.5000000   0.0553136), wk =   0.0219479
        k(   22) = (   0.0555556  -0.5000000   0.1659407), wk =   0.0219479
        k(   23) = (   0.0555556  -0.5000000   0.2765678), wk =   0.0219479
        k(   24) = (   0.0555556  -0.5000000   0.3871949), wk =   0.0219479
        k(   25) = (   0.0555556  -0.5000000  -0.4978220), wk =   0.0109739
        k(   26) = (   0.1666667   0.1666667   0.0553136), wk =   0.0219479
        k(   27) = (   0.1666667   0.1666667   0.1659407), wk =   0.0219479
        k(   28) = (   0.1666667   0.1666667   0.2765678), wk =   0.0219479
        k(   29) = (   0.1666667   0.1666667   0.3871949), wk =   0.0219479
        k(   30) = (   0.1666667   0.1666667  -0.4978220), wk =   0.0109739
        k(   31) = (   0.1666667   0.2777778   0.0553136), wk =   0.0438957
        k(   32) = (   0.1666667   0.2777778   0.1659407), wk =   0.0438957
        k(   33) = (   0.1666667   0.2777778   0.2765678), wk =   0.0438957
        k(   34) = (   0.1666667   0.2777778   0.3871949), wk =   0.0438957
        k(   35) = (   0.1666667   0.2777778  -0.4978220), wk =   0.0219479
        k(   36) = (   0.1666667   0.3888889   0.0553136), wk =   0.0438957
        k(   37) = (   0.1666667   0.3888889   0.1659407), wk =   0.0438957
        k(   38) = (   0.1666667   0.3888889   0.2765678), wk =   0.0438957
        k(   39) = (   0.1666667   0.3888889   0.3871949), wk =   0.0438957
        k(   40) = (   0.1666667   0.3888889  -0.4978220), wk =   0.0219479
        k(   41) = (   0.1666667  -0.5000000   0.0553136), wk =   0.0219479
        k(   42) = (   0.1666667  -0.5000000   0.1659407), wk =   0.0219479
        k(   43) = (   0.1666667  -0.5000000   0.2765678), wk =   0.0219479
        k(   44) = (   0.1666667  -0.5000000   0.3871949), wk =   0.0219479
        k(   45) = (   0.1666667  -0.5000000  -0.4978220), wk =   0.0109739
        k(   46) = (   0.2777778   0.2777778   0.0553136), wk =   0.0219479
        k(   47) = (   0.2777778   0.2777778   0.1659407), wk =   0.0219479
        k(   48) = (   0.2777778   0.2777778   0.2765678), wk =   0.0219479
        k(   49) = (   0.2777778   0.2777778   0.3871949), wk =   0.0219479
        k(   50) = (   0.2777778   0.2777778  -0.4978220), wk =   0.0109739
        k(   51) = (   0.2777778   0.3888889   0.0553136), wk =   0.0438957
        k(   52) = (   0.2777778   0.3888889   0.1659407), wk =   0.0438957
        k(   53) = (   0.2777778   0.3888889   0.2765678), wk =   0.0438957
        k(   54) = (   0.2777778   0.3888889   0.3871949), wk =   0.0438957
        k(   55) = (   0.2777778   0.3888889  -0.4978220), wk =   0.0219479
        k(   56) = (   0.2777778  -0.5000000   0.0553136), wk =   0.0219479
        k(   57) = (   0.2777778  -0.5000000   0.1659407), wk =   0.0219479
        k(   58) = (   0.2777778  -0.5000000   0.2765678), wk =   0.0219479
        k(   59) = (   0.2777778  -0.5000000   0.3871949), wk =   0.0219479
        k(   60) = (   0.2777778  -0.5000000  -0.4978220), wk =   0.0109739
        k(   61) = (   0.3888889   0.3888889   0.0553136), wk =   0.0219479
        k(   62) = (   0.3888889   0.3888889   0.1659407), wk =   0.0219479
        k(   63) = (   0.3888889   0.3888889   0.2765678), wk =   0.0219479
        k(   64) = (   0.3888889   0.3888889   0.3871949), wk =   0.0219479
        k(   65) = (   0.3888889   0.3888889  -0.4978220), wk =   0.0109739
        k(   66) = (   0.3888889  -0.5000000   0.0553136), wk =   0.0219479
        k(   67) = (   0.3888889  -0.5000000   0.1659407), wk =   0.0219479
        k(   68) = (   0.3888889  -0.5000000   0.2765678), wk =   0.0219479
        k(   69) = (   0.3888889  -0.5000000   0.3871949), wk =   0.0219479
        k(   70) = (   0.3888889  -0.5000000  -0.4978220), wk =   0.0109739
        k(   71) = (  -0.5000000  -0.5000000   0.0553136), wk =   0.0054870
        k(   72) = (  -0.5000000  -0.5000000   0.1659407), wk =   0.0054870
        k(   73) = (  -0.5000000  -0.5000000   0.2765678), wk =   0.0054870
        k(   74) = (  -0.5000000  -0.5000000   0.3871949), wk =   0.0054870
        k(   75) = (  -0.5000000  -0.5000000  -0.4978220), wk =   0.0027435

     Dense  grid:   451879 G-vectors     FFT dimensions: (  96,  96,  96)

     Smooth grid:   242457 G-vectors     FFT dimensions: (  80,  80,  80)

     Estimated max dynamical RAM per process >     186.11 MB

     Estimated total dynamical RAM >      13.09 GB

     Check: negative core charge=   -0.000002

     Initial potential from superposition of free atoms

     starting charge  511.97959, renormalised to  512.00000
     Starting wfcs are  320 randomized atomic wfcs
     Checking if some PAW data can be deallocated... 

     total cpu time spent up to now is       32.4 secs

     Self-consistent Calculation

     iteration #  1     ecut=    71.00 Ry     beta= 0.10
     Davidson diagonalization with overlap
     ethr =  1.00E-02,  avg # of iterations =  3.4

     Threshold (ethr) on eigenvalues was too large:
     Diagonalizing with lowered threshold

     Davidson diagonalization with overlap
     ethr =  8.31E-05,  avg # of iterations =  5.5

     total cpu time spent up to now is      213.0 secs

     total energy              =  -13813.41154293 Ry
     estimated scf accuracy    <       0.63669836 Ry

     iteration #  2     ecut=    71.00 Ry     beta= 0.10
     Davidson diagonalization with overlap
     ethr =  1.24E-04,  avg # of iterations =  1.1

     total cpu time spent up to now is      281.0 secs

     total energy              =  -13813.20376479 Ry
     estimated scf accuracy    <       0.39737867 Ry

     iteration #  3     ecut=    71.00 Ry     beta= 0.10
     Davidson diagonalization with overlap
     ethr =  7.76E-05,  avg # of iterations =  2.3

     total cpu time spent up to now is      368.8 secs

     total energy              =  -13813.29952441 Ry
     estimated scf accuracy    <       0.01241741 Ry

     iteration #  4     ecut=    71.00 Ry     beta= 0.10
     Davidson diagonalization with overlap
     ethr =  2.43E-06,  avg # of iterations =  3.3

     total cpu time spent up to now is      454.4 secs

     total energy              =  -13813.29943251 Ry
     estimated scf accuracy    <       0.00823385 Ry

     iteration #  5     ecut=    71.00 Ry     beta= 0.10
     Davidson diagonalization with overlap
     ethr =  1.61E-06,  avg # of iterations =  1.4

     total cpu time spent up to now is      521.3 secs

     total energy              =  -13813.30097040 Ry
     estimated scf accuracy    <       0.00553443 Ry

     iteration #  6     ecut=    71.00 Ry     beta= 0.10
     Davidson diagonalization with overlap
     ethr =  1.08E-06,  avg # of iterations =  3.4

     total cpu time spent up to now is      622.1 secs

     total energy              =  -13813.29873768 Ry
     estimated scf accuracy    <       0.01695869 Ry

     iteration #  7     ecut=    71.00 Ry     beta= 0.10
     Davidson diagonalization with overlap
     ethr =  1.08E-06,  avg # of iterations =  2.6

     total cpu time spent up to now is      715.3 secs

     total energy              =  -13813.30018063 Ry
     estimated scf accuracy    <       0.00110411 Ry

     iteration #  8     ecut=    71.00 Ry     beta= 0.10
     Davidson diagonalization with overlap
     ethr =  2.16E-07,  avg # of iterations =  2.3

     total cpu time spent up to now is      787.3 secs

     total energy              =  -13813.30024955 Ry
     estimated scf accuracy    <       0.00023197 Ry

     iteration #  9     ecut=    71.00 Ry     beta= 0.10
     Davidson diagonalization with overlap
     ethr =  4.53E-08,  avg # of iterations =  2.1

     total cpu time spent up to now is      857.5 secs

     total energy              =  -13813.30018568 Ry
     estimated scf accuracy    <       0.00015479 Ry

     iteration # 10     ecut=    71.00 Ry     beta= 0.10
     Davidson diagonalization with overlap
     ethr =  3.02E-08,  avg # of iterations =  2.3

     total cpu time spent up to now is      938.5 secs

     total energy              =  -13813.30020598 Ry
     estimated scf accuracy    <       0.00000914 Ry

     iteration # 11     ecut=    71.00 Ry     beta= 0.10
     Davidson diagonalization with overlap
     ethr =  1.79E-09,  avg # of iterations =  4.3

     total cpu time spent up to now is     1037.0 secs

     End of self-consistent calculation

          k = 0.0556 0.0556 0.0553 ( 30368 PWs)   bands (ev):

   -50.0225 -49.9254 -49.9240 -49.9240 -49.9066 -49.9051 -49.9050 -49.8703
   -49.8703 -49.8702 -49.8610 -49.8601 -49.8600 -49.8599 -49.8599 -49.8598
   -49.8598 -49.8594 -49.8593 -49.8593 -49.8513 -49.8512 -49.8512 -49.8085
   -49.8068 -49.8067 -49.8065 -49.8065 -49.8056 -49.8056 -49.8052 -49.8052
   -20.4204 -20.4204 -20.4203 -20.4163 -20.3591 -20.3591 -20.3577 -20.1653
   -20.1589 -20.1589 -20.1543 -20.1543 -20.1478 -20.1478 -20.1474 -20.1474
   -20.1345 -20.1275 -20.1275 -20.1108 -20.1108 -20.1062 -20.1061 -20.1057
   -20.1057 -20.0615 -20.0615 -20.0562 -20.0562 -20.0554 -20.0554 -19.9601
   -19.9601 -19.9589 -19.8882 -19.8882 -19.8866 -19.8802 -19.8802 -19.8791
   -19.8477 -19.8477 -19.8467 -19.8467 -19.8456 -19.8456 -19.8076 -19.8076
   -19.8061 -19.8020 -19.8020 -19.8009 -19.8009 -19.7999 -19.7999 -19.7980
   -19.7980 -19.7900 -19.7900 -19.7898 -19.7852 -19.6333 -19.6333 -19.6287
   -19.6286 -19.6271 -19.6264 -19.6011 -19.6011 -19.5974 -19.5973 -19.5957
   -19.5956 -19.5852 -19.5851 -19.5799 -19.5744 -19.5726 -19.5726 -19.5719
   -19.5718 -19.5718 -19.5718 -19.5687 -19.5670 -19.5670 -19.5670 -19.5670
   -19.5650 -19.5622 -19.5536 -19.5535 -19.5489 -19.4406 -19.4339 -19.4335
    15.2454  16.8145  16.8145  16.8183  17.0895  17.1072  17.1072  17.1072
    17.2807  17.2807  17.2852  17.4843  17.4999  17.5001  17.6583  17.6734
    17.6735  18.2011  18.2011  18.2242  18.2243  18.2252  18.2253  18.5215
    18.5366  18.5366  18.7876  18.7877  18.7886  18.7900  18.8097  18.8097
    18.8952  18.8972  18.8973  18.8979  18.8979  18.8980  18.8980  18.8990
    18.8990  19.3790  19.3790  19.3908  19.3908  19.4005  19.4006  19.5189
    19.5413  19.5413  19.5500  19.5500  19.5729  19.5729  19.5746  19.5746
    19.6159  19.6368  19.6369  19.8792  19.8792  19.8868  19.8869  19.8890
    19.8891  19.8891  19.8892  19.8932  19.8932  19.8957  19.8986  19.8986
    19.9041  19.9042  20.0605  20.0606  20.0649  20.3192  20.3453  20.3453
    20.3547  20.3968  20.3968  20.4083  20.4232  20.4558  20.5067  20.5231
    21.4473  21.4877  21.4877  21.6130  21.6569  21.6570  21.6884  21.6884
    21.7026  21.7877  21.7877  21.7893  21.7893  21.8008  21.8008  21.8028
    21.8029  21.8137  22.0924  22.0924  22.1163  22.2151  22.2151  22.2295
    22.4596  22.4596  22.4817  22.5377  22.5378  22.5478  22.5478  22.5490
    22.5490  22.5563  22.5563  22.5762  22.5975  22.5975  22.6114  22.7848
    22.7848  22.7856  22.7856  22.8033  22.8033  22.8177  22.8801  22.9573
    22.9573  22.9754  23.6095  23.6095  23.6381  23.6654  23.6654  23.6712
    23.7698  23.7699  23.7945  23.8679  24.5904  24.5905  24.5938  24.6203
    24.6474  24.6548  24.6751  24.6751  24.9416  24.9527  24.9527  24.9723
    24.9723  24.9861  25.1226  25.1226  25.1243  25.1243  25.1380  25.1437
    25.1437  25.1589  25.1589  26.5655  26.5655  26.5961  26.6921  26.7753
    26.7753  27.0946  27.0947

          k = 0.0556 0.0556 0.1659 ( 30319 PWs)   bands (ev):

   -50.0193 -49.9438 -49.9222 -49.9222 -49.9035 -49.9035 -49.8882 -49.8804
   -49.8804 -49.8699 -49.8683 -49.8683 -49.8627 -49.8599 -49.8598 -49.8594
   -49.8594 -49.8578 -49.8515 -49.8500 -49.8499 -49.8427 -49.8427 -49.8118
   -49.8085 -49.8085 -49.8080 -49.8080 -49.8056 -49.8056 -49.8053 -49.8052
   -20.4130 -20.4093 -20.4093 -20.4013 -20.3510 -20.3510 -20.3449 -20.1950
   -20.1820 -20.1820 -20.1633 -20.1633 -20.1615 -20.1605 -20.1605 -20.1581
   -20.1581 -20.1304 -20.1304 -20.1163 -20.1162 -20.1028 -20.1028 -20.1013
   -20.1013 -20.0642 -20.0641 -20.0465 -20.0465 -20.0364 -20.0137 -20.0137
   -19.9722 -19.9722 -19.9278 -19.9278 -19.8961 -19.8961 -19.8851 -19.8851
   -19.8549 -19.8176 -19.8176 -19.8104 -19.8104 -19.8076 -19.8076 -19.7995
   -19.7974 -19.7973 -19.7889 -19.7889 -19.7866 -19.7866 -19.7860 -19.7860
   -19.7844 -19.7805 -19.7800 -19.7689 -19.7689 -19.6580 -19.6567 -19.6405
   -19.6405 -19.6209 -19.6209 -19.6080 -19.6080 -19.6046 -19.6046 -19.5961
   -19.5961 -19.5916 -19.5883 -19.5883 -19.5844 -19.5844 -19.5794 -19.5744
   -19.5676 -19.5669 -19.5669 -19.5665 -19.5664 -19.5653 -19.5649 -19.5648
   -19.5645 -19.5595 -19.5494 -19.5418 -19.5418 -19.4578 -19.4389 -19.4373
    15.3308  16.8681  16.8773  16.8773  17.1289  17.1639  17.1639  17.1813
    17.1820  17.3227  17.3423  17.3423  17.5611  17.5613  17.6845  17.7378
    17.7380  18.0824  18.0825  18.2684  18.2715  18.2715  18.2821  18.2821
    18.4761  18.5757  18.5757  18.5813  18.5813  18.6318  18.6484  18.6485
    18.8342  18.8343  18.8424  18.8424  18.8644  18.8645  18.9389  18.9389
    18.9950  18.9950  19.0671  19.3591  19.3591  19.4039  19.4039  19.4520
    19.4520  19.4668  19.4668  19.5219  19.5220  19.6073  19.6074  19.6303
    19.7147  19.7147  19.7231  19.7231  19.8127  19.8336  19.8336  19.8811
    19.8811  19.8970  19.8970  19.9107  19.9107  20.1423  20.1423  20.1691
    20.1691  20.1914  20.2394  20.2479  20.2908  20.2908  20.3526  20.3846
    20.4396  20.4396  20.4413  20.4627  20.4627  20.4855  20.5609  20.5697
    21.2597  21.2597  21.3875  21.3876  21.4438  21.5057  21.6136  21.6136
    21.6425  21.7196  21.7197  21.7790  21.8981  21.8981  21.9108  21.9311
    21.9311  21.9762  21.9763  21.9774  22.0631  22.0632  22.3935  22.3935
    22.4154  22.4154  22.4230  22.4230  22.5491  22.5491  22.5621  22.5621
    22.6733  22.6733  22.6959  22.6959  22.7466  22.8056  22.8056  22.8091
    22.8680  22.9040  23.0215  23.0215  23.0352  23.0717  23.0717  23.1699
    23.1891  23.1891  23.2090  23.2567  23.2567  23.4436  23.4881  23.6736
    23.6736  23.8640  23.8641  23.9534  24.3876  24.3876  24.5027  24.5027
    24.5061  24.5544  24.6074  24.6089  24.6089  24.8063  24.8990  24.9967
    24.9967  24.9996  24.9996  25.0293  25.1539  25.1539  25.1587  25.1587
    25.3256  25.3256  25.5524  26.0513  26.0514  26.3937  26.5373  26.5727
    26.5728  27.0752  27.0752

          k = 0.0556 0.0556 0.2766 ( 30295 PWs)   bands (ev):

   -50.0129 -49.9613 -49.9187 -49.9187 -49.9006 -49.9005 -49.8901 -49.8901
   -49.8764 -49.8764 -49.8705 -49.8692 -49.8643 -49.8598 -49.8598 -49.8595
   -49.8594 -49.8563 -49.8520 -49.8403 -49.8403 -49.8346 -49.8346 -49.8182
   -49.8120 -49.8120 -49.8109 -49.8109 -49.8056 -49.8055 -49.8053 -49.8053
   -20.3949 -20.3877 -20.3877 -20.3760 -20.3349 -20.3349 -20.3195 -20.2390
   -20.2249 -20.2249 -20.2043 -20.2032 -20.2032 -20.1664 -20.1664 -20.1609
   -20.1609 -20.1312 -20.1311 -20.1091 -20.1077 -20.1077 -20.1060 -20.1059
   -20.0699 -20.0699 -20.0667 -20.0667 -20.0314 -20.0314 -19.9940 -19.9940
   -19.9676 -19.9676 -19.9654 -19.9654 -19.9240 -19.9240 -19.9217 -19.9217
   -19.8287 -19.8287 -19.8067 -19.7961 -19.7960 -19.7893 -19.7892 -19.7740
   -19.7740 -19.7738 -19.7697 -19.7692 -19.7692 -19.7613 -19.7612 -19.7589
   -19.7589 -19.7403 -19.7318 -19.7318 -19.7224 -19.6874 -19.6854 -19.6547
   -19.6547 -19.6296 -19.6296 -19.6254 -19.6254 -19.6216 -19.6216 -19.6196
   -19.6079 -19.6079 -19.6069 -19.6069 -19.5912 -19.5783 -19.5740 -19.5740
   -19.5702 -19.5668 -19.5668 -19.5664 -19.5663 -19.5642 -19.5642 -19.5571
   -19.5501 -19.5369 -19.5369 -19.5361 -19.5348 -19.4882 -19.4497 -19.4472
    15.4990  16.8082  16.9648  16.9999  16.9999  17.2250  17.2766  17.2766
    17.3105  17.3972  17.4651  17.4651  17.5946  17.6796  17.6797  17.8629
    17.8630  17.8794  17.8794  18.0363  18.1415  18.2413  18.2413  18.3086
    18.3614  18.3615  18.3937  18.3938  18.4722  18.4723  18.5368  18.5368
    18.6529  18.6529  18.6889  18.6890  18.8126  18.8126  18.9061  18.9061
    19.0672  19.0672  19.2768  19.2768  19.3290  19.3290  19.3359  19.3360
    19.3447  19.3593  19.3593  19.4052  19.4052  19.4909  19.4910  19.6552
    19.6553  19.6942  19.7580  19.7580  19.8217  19.8217  19.9014  19.9014
    19.9204  19.9205  19.9847  19.9847  19.9860  20.1478  20.2156  20.2156
    20.2508  20.2508  20.2584  20.3163  20.5216  20.5647  20.5647  20.5649
    20.5785  20.5785  20.5939  20.6569  20.6626  20.6845  20.9854  20.9854
    21.0292  21.0292  21.0460  21.0460  21.2594  21.3701  21.3701  21.4040
    21.4065  21.4754  21.7942  21.8450  21.8450  22.0490  22.0490  22.0739
    22.0740  22.1127  22.1127  22.1877  22.1878  22.3068  22.3068  22.4029
    22.4030  22.4994  22.5390  22.5390  22.5430  22.5430  22.5747  22.5747
    22.6098  22.6235  22.6235  22.7027  22.7308  22.7308  22.8457  22.9083
    22.9083  22.9514  22.9739  22.9739  23.1245  23.2651  23.3260  23.3260
    23.3482  23.4005  23.4005  23.4517  23.4723  23.4723  23.4992  23.7115
    23.7115  23.8536  23.8536  24.1113  24.1189  24.1189  24.2950  24.2950
    24.3196  24.4544  24.4544  24.4680  24.4821  24.5444  24.7670  24.7670
    24.7697  24.7697  24.8345  25.1555  25.1555  25.1582  25.1582  25.2933
    25.5471  25.5471  25.7615  25.7616  25.8734  26.0484  26.0484  26.1089
    26.4172  26.9577  26.9577

          k = 0.0556 0.0556 0.3872 ( 30282 PWs)   bands (ev):

   -50.0036 -49.9774 -49.9135 -49.9135 -49.8990 -49.8990 -49.8962 -49.8962
   -49.8839 -49.8839 -49.8683 -49.8658 -49.8597 -49.8597 -49.8595 -49.8595
   -49.8549 -49.8542 -49.8528 -49.8315 -49.8315 -49.8277 -49.8272 -49.8272
   -49.8171 -49.8171 -49.8152 -49.8151 -49.8055 -49.8055 -49.8054 -49.8053
   -20.3667 -20.3564 -20.3564 -20.3414 -20.3113 -20.3113 -20.2860 -20.2822
   -20.2720 -20.2720 -20.2524 -20.2445 -20.2445 -20.1756 -20.1654 -20.1654
   -20.1522 -20.1522 -20.1461 -20.1461 -20.1210 -20.1209 -20.0809 -20.0809
   -20.0529 -20.0529 -20.0344 -20.0344 -20.0215 -20.0215 -20.0109 -20.0108
   -19.9996 -19.9996 -19.9588 -19.9588 -19.9554 -19.9554 -19.9247 -19.9247
   -19.8543 -19.8543 -19.7943 -19.7943 -19.7906 -19.7906 -19.7583 -19.7545
   -19.7538 -19.7336 -19.7336 -19.7291 -19.7291 -19.7262 -19.7262 -19.7259
   -19.7259 -19.7145 -19.7118 -19.6976 -19.6976 -19.6960 -19.6754 -19.6754
   -19.6592 -19.6592 -19.6586 -19.6586 -19.6572 -19.6505 -19.6416 -19.6416
   -19.6392 -19.6392 -19.6183 -19.5932 -19.5931 -19.5768 -19.5727 -19.5695
   -19.5694 -19.5667 -19.5667 -19.5664 -19.5664 -19.5589 -19.5589 -19.5549
   -19.5514 -19.5386 -19.5386 -19.5313 -19.5092 -19.5073 -19.4653 -19.4628
    15.7441  16.4196  17.1014  17.1757  17.1757  17.3769  17.4406  17.4438
    17.4438  17.4924  17.5077  17.6372  17.6373  17.6480  17.6480  17.8298
    17.8395  17.8468  17.8469  17.9309  17.9309  17.9987  18.0403  18.0404
    18.1862  18.1862  18.2654  18.2656  18.4829  18.4830  18.4832  18.4833
    18.5555  18.5556  18.7326  18.7326  18.7661  18.7661  18.9772  18.9773
    18.9970  18.9970  19.0867  19.0867  19.2344  19.2344  19.2700  19.2700
    19.3059  19.3060  19.3748  19.3749  19.3893  19.3894  19.6134  19.6375
    19.6375  19.6822  19.6823  19.7901  19.9165  19.9165  19.9216  19.9217
    19.9286  19.9287  20.0295  20.0813  20.0851  20.1221  20.1221  20.1632
    20.1632  20.2533  20.3594  20.3594  20.6475  20.7071  20.7071  20.7114
    20.7114  20.7311  20.7311  20.7457  20.7970  20.8010  21.0179  21.0179
    21.0232  21.0771  21.1603  21.1687  21.1906  21.1906  21.1965  21.2093
    21.6576  21.6576  21.9582  21.9664  21.9664  22.0360  22.0360  22.1810
    22.1810  22.1867  22.2355  22.2394  22.2395  22.2873  22.2873  22.3199
    22.3199  22.3708  22.3708  22.3788  22.3789  22.4185  22.5016  22.5016
    22.5322  22.5323  22.5608  22.5608  22.6465  22.6466  22.8643  22.8643
    23.0089  23.0089  23.0212  23.0972  23.2219  23.3185  23.3185  23.4573
    23.6483  23.6483  23.6579  23.7528  23.7554  23.7554  23.7931  23.7931
    24.0135  24.0155  24.0155  24.0726  24.1660  24.1730  24.1730  24.2317
    24.2317  24.2663  24.2880  24.3036  24.4651  24.4651  24.4673  24.4673
    24.5246  24.5246  24.6096  25.0556  25.0557  25.1562  25.1562  25.1576
    25.1576  25.2394  25.5235  25.5235  25.6644  26.1676  26.1676  26.2326
    26.6001  26.7710  26.7710

          k = 0.0556 0.0556-0.4978 ( 30276 PWs)   bands (ev):

   -49.9917 -49.9917 -49.9069 -49.9069 -49.9069 -49.9068 -49.8906 -49.8906
   -49.8906 -49.8905 -49.8672 -49.8671 -49.8597 -49.8596 -49.8596 -49.8596
   -49.8538 -49.8537 -49.8398 -49.8398 -49.8237 -49.8237 -49.8237 -49.8236
   -49.8207 -49.8207 -49.8207 -49.8206 -49.8055 -49.8054 -49.8054 -49.8054
   -20.3298 -20.3297 -20.3171 -20.3170 -20.3170 -20.3170 -20.2994 -20.2994
   -20.2810 -20.2810 -20.2809 -20.2809 -20.2338 -20.2338 -20.1582 -20.1582
   -20.1582 -20.1582 -20.1382 -20.1382 -20.1382 -20.1382 -20.0514 -20.0514
   -20.0514 -20.0514 -20.0294 -20.0293 -20.0293 -20.0293 -19.9966 -19.9966
   -19.9966 -19.9966 -19.9854 -19.9854 -19.9854 -19.9854 -19.8866 -19.8866
   -19.8866 -19.8866 -19.7925 -19.7924 -19.7924 -19.7924 -19.7383 -19.7383
   -19.7350 -19.7350 -19.7027 -19.7027 -19.7020 -19.7020 -19.7020 -19.7020
   -19.6939 -19.6938 -19.6938 -19.6938 -19.6921 -19.6920 -19.6920 -19.6920
   -19.6797 -19.6797 -19.6796 -19.6796 -19.6672 -19.6672 -19.6672 -19.6672
   -19.6541 -19.6541 -19.5860 -19.5860 -19.5796 -19.5796 -19.5795 -19.5795
   -19.5749 -19.5749 -19.5666 -19.5665 -19.5665 -19.5665 -19.5530 -19.5530
   -19.5464 -19.5464 -19.5464 -19.5464 -19.4854 -19.4853 -19.4831 -19.4830
    16.0563  16.0564  17.2663  17.2663  17.3939  17.3939  17.3939  17.3939
    17.5828  17.5828  17.6526  17.6526  17.6631  17.6631  17.6631  17.6632
    17.7236  17.7236  17.8891  17.8891  17.8891  17.8891  18.0488  18.0488
    18.0489  18.0490  18.2550  18.2550  18.2551  18.2551  18.6166  18.6166
    18.6167  18.6167  18.7585  18.7585  18.7586  18.7586  18.9123  18.9124
    18.9124  18.9124  19.1093  19.1093  19.1093  19.1094  19.3131  19.3131
    19.3132  19.3132  19.3376  19.3376  19.3376  19.3376  19.6407  19.6407
    19.6408  19.6408  19.8626  19.8626  19.9060  19.9060  19.9304  19.9304
    19.9304  19.9305  20.0189  20.0189  20.0189  20.0189  20.1734  20.1734
    20.4115  20.4115  20.4115  20.4115  20.5191  20.5191  20.5191  20.5191
    20.8163  20.8163  20.8864  20.8864  20.8864  20.8864  20.9368  20.9368
    20.9794  20.9794  20.9837  20.9838  21.6365  21.6365  21.6365  21.6365
    21.6413  21.6414  21.6727  21.6727  22.0179  22.0179  22.0179  22.0179
    22.1911  22.1912  22.3199  22.3199  22.3200  22.3200  22.3358  22.3358
    22.3358  22.3359  22.4203  22.4203  22.4203  22.4203  22.4276  22.4276
    22.4277  22.4277  22.4971  22.4971  22.4971  22.4971  22.7475  22.7476
    22.7476  22.7476  23.1120  23.1120  23.6762  23.6762  23.6794  23.6794
    23.6794  23.6794  23.7796  23.7796  23.9571  23.9572  23.9572  23.9572
    24.0207  24.0208  24.0391  24.0391  24.1177  24.1177  24.1177  24.1177
    24.1327  24.1327  24.1328  24.1328  24.4238  24.4239  24.5890  24.5890
    24.5890  24.5890  24.5964  24.5964  25.0082  25.0082  25.0082  25.0082
    25.1569  25.1569  25.1569  25.1569  25.9810  25.9810  26.5080  26.5080
    26.5080  26.5080  26.9979

          k = 0.0556 0.1667 0.0553 ( 30347 PWs)   bands (ev):

   -50.0192 -49.9427 -49.9235 -49.9222 -49.9051 -49.9035 -49.8863 -49.8807
   -49.8803 -49.8700 -49.8688 -49.8683 -49.8627 -49.8600 -49.8598 -49.8594
   -49.8593 -49.8577 -49.8515 -49.8498 -49.8495 -49.8428 -49.8425 -49.8090
   -49.8085 -49.8083 -49.8082 -49.8070 -49.8070 -49.8067 -49.8063 -49.8056
   -20.4130 -20.4092 -20.4090 -20.4011 -20.3508 -20.3495 -20.3463 -20.1899
   -20.1767 -20.1763 -20.1693 -20.1670 -20.1638 -20.1613 -20.1556 -20.1540
   -20.1539 -20.1368 -20.1298 -20.1205 -20.1166 -20.1082 -20.1076 -20.1031
   -20.1010 -20.0690 -20.0642 -20.0525 -20.0473 -20.0375 -20.0077 -20.0066
   -19.9730 -19.9711 -19.9288 -19.9267 -19.8970 -19.8950 -19.8871 -19.8845
   -19.8552 -19.8184 -19.8175 -19.8063 -19.8056 -19.8051 -19.8022 -19.8004
   -19.8003 -19.7991 -19.7944 -19.7932 -19.7869 -19.7847 -19.7846 -19.7842
   -19.7840 -19.7826 -19.7808 -19.7679 -19.7670 -19.6649 -19.6594 -19.6360
   -19.6342 -19.6246 -19.6192 -19.6045 -19.6044 -19.6028 -19.5992 -19.5960
   -19.5914 -19.5911 -19.5874 -19.5868 -19.5846 -19.5829 -19.5793 -19.5721
   -19.5720 -19.5718 -19.5717 -19.5709 -19.5694 -19.5680 -19.5663 -19.5648
   -19.5632 -19.5607 -19.5540 -19.5418 -19.5376 -19.4577 -19.4394 -19.4372
    15.3316  16.8652  16.8782  16.8820  17.1290  17.1641  17.1642  17.1815
    17.1966  17.3187  17.3419  17.3470  17.5468  17.5619  17.6977  17.7241
    17.7387  18.1025  18.1052  18.2503  18.2593  18.2732  18.2793  18.2818
    18.4781  18.5611  18.5747  18.5836  18.5845  18.6347  18.6498  18.6521
    18.8235  18.8376  18.8380  18.8414  18.8629  18.8657  18.9294  18.9477
    18.9934  18.9945  19.0916  19.3678  19.3784  19.3829  19.3951  19.4331
    19.4470  19.4500  19.4648  19.5098  19.5247  19.6037  19.6048  19.6433
    19.7088  19.7151  19.7375  19.7431  19.8366  19.8447  19.8554  19.8720
    19.8780  19.8859  19.8876  19.8949  19.9006  20.1362  20.1401  20.1613
    20.1638  20.1839  20.2385  20.2822  20.2865  20.3289  20.3727  20.4203
    20.4230  20.4234  20.4261  20.4494  20.4520  20.4664  20.5206  20.5673
    21.2240  21.2503  21.3504  21.3811  21.4732  21.4857  21.5954  21.5960
    21.6261  21.7239  21.7372  21.7542  21.8998  21.9051  21.9118  21.9357
    21.9431  21.9824  21.9903  22.0235  22.0755  22.0922  22.3961  22.4142
    22.4163  22.4233  22.4298  22.4481  22.5406  22.5499  22.5552  22.5655
    22.6762  22.6907  22.7057  22.7087  22.7843  22.7958  22.8076  22.8136
    22.8479  22.8671  23.0090  23.0104  23.0254  23.0721  23.0862  23.1580
    23.1901  23.2023  23.2055  23.2513  23.2591  23.4423  23.4557  23.6724
    23.6972  23.8643  23.8835  23.9328  24.3791  24.4115  24.5036  24.5064
    24.5243  24.5499  24.6098  24.6269  24.6294  24.8181  24.8797  24.9983
    24.9989  25.0296  25.0311  25.0328  25.1165  25.1207  25.1257  25.1315
    25.3093  25.3189  25.5392  26.0514  26.0755  26.4723  26.5075  26.5723
    26.6037  27.0395  27.0400

          k = 0.0556 0.1667 0.1659 ( 30326 PWs)   bands (ev):

   -50.0161 -49.9416 -49.9406 -49.9205 -49.9021 -49.8924 -49.8869 -49.8851
   -49.8798 -49.8797 -49.8680 -49.8680 -49.8660 -49.8610 -49.8571 -49.8564
   -49.8562 -49.8561 -49.8502 -49.8500 -49.8434 -49.8432 -49.8356 -49.8117
   -49.8099 -49.8097 -49.8091 -49.8089 -49.8075 -49.8073 -49.8065 -49.8057
   -20.4060 -20.4058 -20.3947 -20.3825 -20.3427 -20.3388 -20.3373 -20.2008
   -20.1962 -20.1950 -20.1897 -20.1629 -20.1625 -20.1602 -20.1590 -20.1572
   -20.1530 -20.1518 -20.1517 -20.1477 -20.1341 -20.1284 -20.1263 -20.1260
   -20.0663 -20.0460 -20.0447 -20.0405 -20.0405 -20.0278 -20.0228 -20.0061
   -19.9991 -19.9862 -19.9694 -19.9137 -19.8915 -19.8913 -19.8545 -19.8542
   -19.8457 -19.8427 -19.8241 -19.8198 -19.8188 -19.8048 -19.7947 -19.7866
   -19.7850 -19.7847 -19.7843 -19.7834 -19.7821 -19.7809 -19.7807 -19.7792
   -19.7734 -19.7724 -19.7448 -19.7440 -19.7306 -19.6725 -19.6653 -19.6529
   -19.6509 -19.6320 -19.6267 -19.6190 -19.6047 -19.6035 -19.6032 -19.5981
   -19.5977 -19.5954 -19.5944 -19.5933 -19.5933 -19.5908 -19.5800 -19.5760
   -19.5758 -19.5741 -19.5740 -19.5718 -19.5682 -19.5654 -19.5612 -19.5605
   -19.5562 -19.5549 -19.5427 -19.5385 -19.5251 -19.4792 -19.4441 -19.4366
    15.4156  16.9283  16.9321  16.9350  17.1490  17.2014  17.2434  17.2531
    17.2532  17.2569  17.3798  17.3839  17.4073  17.6081  17.7526  17.7645
    17.7845  18.1165  18.1338  18.1425  18.1642  18.3134  18.3239  18.3285
    18.3295  18.3648  18.3650  18.4391  18.5062  18.5070  18.6292  18.6683
    18.6705  18.6876  18.6914  18.7169  18.8872  18.9531  18.9553  18.9595
    18.9635  18.9835  18.9889  19.0939  19.1173  19.3248  19.3404  19.4355
    19.4370  19.4612  19.5071  19.5129  19.5406  19.5433  19.5897  19.5992
    19.6102  19.7890  19.7936  19.8123  19.8139  19.8879  19.9064  19.9648
    19.9704  20.0175  20.0803  20.0879  20.1748  20.1902  20.2120  20.2143
    20.2470  20.2541  20.2972  20.3416  20.3550  20.3674  20.3683  20.3932
    20.4319  20.4435  20.4506  20.4880  20.5351  20.5516  20.5631  20.6105
    21.1201  21.2204  21.2308  21.2607  21.4877  21.5124  21.6497  21.6557
    21.6661  21.6860  21.6872  21.7303  21.7616  21.7631  21.7779  21.7877
    21.8046  21.9396  22.0108  22.1154  22.1165  22.1326  22.1360  22.1818
    22.2570  22.5486  22.5500  22.6609  22.6697  22.6828  22.6838  22.6944
    22.7247  22.7310  22.7363  22.8037  22.8243  22.8732  22.8848  22.8887
    22.9459  22.9554  22.9641  23.0037  23.0048  23.1057  23.1947  23.2541
    23.2580  23.2824  23.2934  23.3621  23.3739  23.3854  23.4959  23.5235
    23.7036  23.8997  24.0707  24.0834  24.0860  24.2033  24.2087  24.3856
    24.4949  24.4987  24.5665  24.6315  24.6398  24.6546  24.6693  24.8953
    24.8969  24.9942  25.0027  25.0274  25.0284  25.0326  25.0464  25.0735
    25.2685  25.5548  25.9028  25.9048  25.9938  26.0173  26.5185  26.5484
    26.9935  27.0531  27.1285

          k = 0.0556 0.1667 0.2766 ( 30309 PWs)   bands (ev):

   -50.0098 -49.9589 -49.9365 -49.9170 -49.9035 -49.8992 -49.8892 -49.8827
   -49.8785 -49.8758 -49.8695 -49.8691 -49.8674 -49.8630 -49.8626 -49.8547
   -49.8532 -49.8505 -49.8460 -49.8444 -49.8409 -49.8354 -49.8291 -49.8180
   -49.8133 -49.8131 -49.8125 -49.8098 -49.8087 -49.8077 -49.8062 -49.8057
   -20.3916 -20.3883 -20.3700 -20.3539 -20.3267 -20.3241 -20.3133 -20.2456
   -20.2372 -20.2038 -20.2035 -20.1960 -20.1957 -20.1954 -20.1761 -20.1668
   -20.1665 -20.1508 -20.1494 -20.1423 -20.1395 -20.1362 -20.1323 -20.1139
   -20.0956 -20.0613 -20.0449 -20.0275 -20.0267 -20.0138 -20.0096 -20.0073
   -19.9851 -19.9849 -19.9605 -19.9430 -19.9258 -19.8899 -19.8781 -19.8530
   -19.8470 -19.8396 -19.8228 -19.8086 -19.8059 -19.7852 -19.7837 -19.7832
   -19.7789 -19.7788 -19.7686 -19.7635 -19.7567 -19.7506 -19.7496 -19.7473
   -19.7449 -19.7423 -19.7106 -19.7079 -19.6951 -19.6950 -19.6873 -19.6810
   -19.6443 -19.6418 -19.6390 -19.6373 -19.6293 -19.6278 -19.6261 -19.6239
   -19.6132 -19.6099 -19.5972 -19.5961 -19.5961 -19.5896 -19.5891 -19.5798
   -19.5796 -19.5793 -19.5792 -19.5706 -19.5654 -19.5622 -19.5555 -19.5423
   -19.5414 -19.5404 -19.5385 -19.5247 -19.5153 -19.5130 -19.4549 -19.4423
    15.5811  16.8719  17.0293  17.0468  17.0514  17.2243  17.2931  17.3738
    17.3777  17.3940  17.4573  17.5014  17.5365  17.6630  17.6957  17.8713
    17.8948  17.8999  17.9376  18.0525  18.0858  18.1756  18.1919  18.2108
    18.2394  18.2803  18.3543  18.3826  18.4003  18.4127  18.4166  18.4403
    18.5599  18.5821  18.5912  18.6959  18.7382  18.8037  18.8043  18.9784
    18.9939  19.0051  19.0492  19.1658  19.1863  19.2430  19.2668  19.2904
    19.2992  19.3561  19.3644  19.4309  19.5031  19.5108  19.5361  19.6102
    19.6356  19.6771  19.7965  19.8972  19.9332  19.9795  20.0116  20.0380
    20.0414  20.0779  20.1000  20.1469  20.1965  20.2264  20.2410  20.2498
    20.2687  20.3490  20.3719  20.4242  20.4276  20.4958  20.5184  20.5350
    20.5928  20.6549  20.6601  20.6676  20.6785  20.6957  20.9170  20.9187
    20.9626  21.0057  21.0372  21.2431  21.2601  21.2641  21.4260  21.4654
    21.5409  21.5555  21.5631  21.6935  21.7219  21.7814  21.8497  21.9516
    21.9659  22.0070  22.0574  22.0848  22.1453  22.1646  22.2587  22.3420
    22.3685  22.4558  22.4638  22.4959  22.5106  22.5322  22.6125  22.6428
    22.6591  22.6656  22.7585  22.7779  22.8458  22.9188  22.9473  22.9655
    22.9816  23.0082  23.0216  23.2111  23.2919  23.2967  23.3115  23.3637
    23.3652  23.5258  23.5384  23.5843  23.5848  23.5883  23.6189  23.6340
    23.6492  23.7251  23.8349  23.9194  24.0856  24.1998  24.3003  24.3278
    24.3313  24.4105  24.4325  24.5460  24.5582  24.5660  24.7086  24.7108
    24.7671  24.7743  24.8435  24.9103  25.0277  25.0341  25.0439  25.0476
    25.0787  25.4699  25.4914  25.9006  25.9961  26.3330  26.4361  26.4854
    26.5145  26.5925  27.5395

          k = 0.0556 0.1667 0.3872 ( 30267 PWs)   bands (ev):

   -50.0006 -49.9748 -49.9306 -49.9138 -49.9120 -49.8979 -49.8950 -49.8831
   -49.8791 -49.8768 -49.8720 -49.8691 -49.8665 -49.8641 -49.8534 -49.8534
   -49.8512 -49.8504 -49.8460 -49.8357 -49.8322 -49.8283 -49.8273 -49.8230
   -49.8190 -49.8183 -49.8166 -49.8133 -49.8085 -49.8080 -49.8061 -49.8058
   -20.3669 -20.3609 -20.3364 -20.3166 -20.3033 -20.3025 -20.2916 -20.2825
   -20.2780 -20.2500 -20.2415 -20.2370 -20.2244 -20.1936 -20.1889 -20.1769
   -20.1750 -20.1732 -20.1696 -20.1602 -20.1371 -20.1237 -20.1219 -20.1032
   -20.0807 -20.0642 -20.0586 -20.0403 -20.0393 -20.0090 -19.9857 -19.9834
   -19.9795 -19.9650 -19.9574 -19.9447 -19.9238 -19.9181 -19.9109 -19.8940
   -19.8749 -19.8481 -19.7850 -19.7837 -19.7832 -19.7770 -19.7764 -19.7691
   -19.7677 -19.7579 -19.7530 -19.7329 -19.7249 -19.7226 -19.7218 -19.7198
   -19.7152 -19.7088 -19.7085 -19.6995 -19.6791 -19.6791 -19.6753 -19.6683
   -19.6651 -19.6641 -19.6628 -19.6620 -19.6617 -19.6564 -19.6558 -19.6284
   -19.6280 -19.6239 -19.6082 -19.6037 -19.6009 -19.5972 -19.5931 -19.5878
   -19.5849 -19.5828 -19.5714 -19.5677 -19.5636 -19.5632 -19.5576 -19.5507
   -19.5430 -19.5410 -19.5272 -19.5150 -19.5127 -19.4972 -19.4706 -19.4549
    15.8223  16.4877  17.1667  17.2095  17.2281  17.3544  17.4384  17.5081
    17.5404  17.5535  17.5660  17.5836  17.6535  17.6824  17.6930  17.7257
    17.7725  17.8158  17.8828  17.8829  17.9746  17.9899  18.0468  18.0814
    18.0883  18.1007  18.2143  18.2603  18.2694  18.2699  18.4496  18.4646
    18.5319  18.5449  18.5624  18.6011  18.6976  18.9010  18.9050  18.9203
    18.9358  19.0366  19.0478  19.0911  19.1129  19.1470  19.1654  19.1715
    19.2139  19.2314  19.3621  19.3665  19.3758  19.4831  19.6258  19.6279
    19.6364  19.7084  19.8966  19.9182  19.9532  19.9916  20.0111  20.0142
    20.0545  20.0795  20.0964  20.1710  20.1805  20.1863  20.2097  20.2549
    20.3341  20.3686  20.3900  20.5894  20.6522  20.6795  20.7037  20.7304
    20.7933  20.8114  20.8204  20.8221  20.8438  20.8457  20.8464  20.8688
    20.9543  21.0644  21.0980  21.1390  21.2028  21.2149  21.3034  21.3319
    21.5265  21.6137  21.6498  21.7204  21.7346  21.7847  21.8934  21.9693
    21.9891  22.0198  22.0353  22.0645  22.0700  22.0726  22.1460  22.2120
    22.2735  22.3364  22.4330  22.4346  22.4798  22.5388  22.5650  22.5855
    22.5923  22.7011  22.7420  22.7561  22.8470  22.8763  22.8934  22.9951
    23.0118  23.0525  23.2205  23.2291  23.2767  23.2784  23.3515  23.3741
    23.5410  23.5932  23.6507  23.7410  23.8612  23.8634  23.8877  23.8916
    23.9139  23.9293  23.9387  24.0318  24.0421  24.1283  24.1285  24.2301
    24.2989  24.4021  24.4053  24.4668  24.4668  24.4686  24.4750  24.4780
    24.6252  24.6269  24.6916  24.9336  25.0021  25.0279  25.0355  25.0357
    25.0404  25.2161  25.4731  25.7256  25.7604  25.8672  26.0405  26.2651
    26.7491  27.0709  27.3621

          k = 0.0556 0.1667-0.4978 ( 30286 PWs)   bands (ev):

   -49.9889 -49.9888 -49.9229 -49.9229 -49.9056 -49.9055 -49.8896 -49.8895
   -49.8746 -49.8746 -49.8745 -49.8745 -49.8654 -49.8654 -49.8522 -49.8522
   -49.8480 -49.8480 -49.8393 -49.8392 -49.8267 -49.8266 -49.8247 -49.8246
   -49.8220 -49.8219 -49.8177 -49.8177 -49.8083 -49.8082 -49.8059 -49.8059
   -20.3330 -20.3330 -20.3249 -20.3249 -20.2955 -20.2955 -20.2747 -20.2747
   -20.2731 -20.2731 -20.2726 -20.2726 -20.2322 -20.2321 -20.1848 -20.1848
   -20.1767 -20.1767 -20.1765 -20.1765 -20.1236 -20.1236 -20.1017 -20.1017
   -20.0715 -20.0714 -20.0636 -20.0636 -20.0191 -20.0190 -19.9854 -19.9854
   -19.9559 -19.9559 -19.9401 -19.9401 -19.9385 -19.9385 -19.9077 -19.9077
   -19.8802 -19.8801 -19.7844 -19.7843 -19.7761 -19.7761 -19.7471 -19.7470
   -19.7364 -19.7363 -19.7328 -19.7328 -19.7285 -19.7285 -19.7088 -19.7088
   -19.6980 -19.6980 -19.6932 -19.6932 -19.6892 -19.6892 -19.6878 -19.6878
   -19.6868 -19.6868 -19.6589 -19.6588 -19.6514 -19.6513 -19.6328 -19.6328
   -19.6314 -19.6314 -19.6150 -19.6150 -19.6122 -19.6122 -19.5894 -19.5893
   -19.5856 -19.5855 -19.5825 -19.5825 -19.5654 -19.5654 -19.5496 -19.5496
   -19.5465 -19.5465 -19.5170 -19.5170 -19.4909 -19.4909 -19.4736 -19.4736
    16.1296  16.1297  17.3327  17.3327  17.4158  17.4158  17.4477  17.4477
    17.5381  17.5381  17.6358  17.6358  17.7086  17.7087  17.7455  17.7456
    17.7778  17.7779  17.8175  17.8175  17.9208  17.9208  17.9555  17.9555
    17.9695  17.9695  18.1275  18.1275  18.3110  18.3110  18.3614  18.3614
    18.6418  18.6419  18.6647  18.6648  18.7195  18.7196  18.8047  18.8047
    19.0485  19.0485  19.0877  19.0877  19.1139  19.1139  19.1477  19.1477
    19.2133  19.2133  19.2854  19.2855  19.3052  19.3052  19.7539  19.7539
    19.8194  19.8194  19.8263  19.8263  19.8678  19.8679  19.9506  19.9506
    20.0919  20.0919  20.1227  20.1227  20.2791  20.2791  20.3353  20.3353
    20.4135  20.4135  20.4503  20.4503  20.5156  20.5156  20.6983  20.6983
    20.8064  20.8064  20.8898  20.8898  20.9705  20.9705  20.9823  20.9823
    21.0069  21.0069  21.0473  21.0473  21.4485  21.4486  21.4868  21.4868
    21.5248  21.5248  21.5713  21.5713  21.7225  21.7225  21.7285  21.7285
    21.9859  21.9859  22.1720  22.1720  22.1837  22.1837  22.2249  22.2250
    22.2474  22.2474  22.3125  22.3125  22.3742  22.3742  22.4848  22.4848
    22.6733  22.6733  22.6962  22.6962  22.8006  22.8006  23.0865  23.0865
    23.0967  23.0967  23.1047  23.1047  23.1729  23.1729  23.6208  23.6208
    23.7058  23.7058  23.7192  23.7192  23.9461  23.9461  23.9915  23.9915
    24.1156  24.1156  24.1655  24.1655  24.1685  24.1685  24.1888  24.1888
    24.1893  24.1893  24.1960  24.1960  24.2127  24.2127  24.4025  24.4025
    24.5379  24.5379  24.9584  24.9584  25.0300  25.0300  25.0377  25.0378
    25.2360  25.2360  25.4819  25.4819  25.4947  25.4947  26.0365  26.0365
    27.0992  27.0993  27.5234

          k = 0.0556 0.2778 0.0553 ( 30318 PWs)   bands (ev):

   -50.0128 -49.9605 -49.9199 -49.9187 -49.9020 -49.9006 -49.8906 -49.8900
   -49.8772 -49.8765 -49.8694 -49.8684 -49.8644 -49.8600 -49.8598 -49.8595
   -49.8594 -49.8562 -49.8519 -49.8401 -49.8396 -49.8348 -49.8342 -49.8155
   -49.8118 -49.8111 -49.8106 -49.8097 -49.8083 -49.8073 -49.8061 -49.8057
   -20.3946 -20.3873 -20.3870 -20.3754 -20.3344 -20.3332 -20.3209 -20.2355
   -20.2210 -20.2205 -20.1999 -20.1998 -20.1997 -20.1723 -20.1677 -20.1662
   -20.1619 -20.1348 -20.1326 -20.1137 -20.1105 -20.1099 -20.1067 -20.1066
   -20.0763 -20.0712 -20.0693 -20.0674 -20.0370 -20.0321 -19.9959 -19.9927
   -19.9673 -19.9647 -19.9611 -19.9595 -19.9262 -19.9246 -19.9228 -19.9214
   -19.8223 -19.8184 -19.8056 -19.8018 -19.7967 -19.7956 -19.7859 -19.7836
   -19.7742 -19.7733 -19.7728 -19.7662 -19.7662 -19.7605 -19.7592 -19.7563
   -19.7561 -19.7393 -19.7299 -19.7295 -19.7231 -19.6950 -19.6885 -19.6504
   -19.6488 -19.6293 -19.6251 -19.6242 -19.6210 -19.6182 -19.6168 -19.6154
   -19.6103 -19.6065 -19.6039 -19.6022 -19.5872 -19.5835 -19.5754 -19.5751
   -19.5728 -19.5718 -19.5716 -19.5715 -19.5697 -19.5640 -19.5616 -19.5611
   -19.5548 -19.5391 -19.5367 -19.5365 -19.5334 -19.4880 -19.4503 -19.4475
    15.5012  16.8206  16.9634  17.0024  17.0064  17.2255  17.2772  17.2773
    17.3110  17.3944  17.4640  17.4702  17.6049  17.6678  17.6816  17.8518
    17.8654  17.8954  17.8991  18.0434  18.1439  18.2438  18.2444  18.3114
    18.3444  18.3643  18.3737  18.3948  18.4736  18.4780  18.5295  18.5446
    18.6394  18.6500  18.6926  18.6959  18.8134  18.8159  18.8887  18.9030
    19.0677  19.0713  19.2631  19.2733  19.3280  19.3323  19.3368  19.3428
    19.3446  19.3543  19.3742  19.3859  19.3981  19.4807  19.4974  19.6412
    19.6495  19.7079  19.7639  19.7735  19.8325  19.8402  19.8797  19.8957
    19.8980  19.9118  19.9659  19.9728  20.0076  20.1797  20.2242  20.2331
    20.2368  20.2537  20.3032  20.3480  20.4870  20.5226  20.5537  20.5576
    20.5613  20.5754  20.5821  20.6114  20.6593  20.6846  20.9522  20.9700
    21.0112  21.0131  21.0348  21.0433  21.2340  21.3457  21.3478  21.3819
    21.3933  21.4539  21.8262  21.8566  21.8662  22.0653  22.0771  22.0818
    22.0897  22.1208  22.1258  22.1976  22.2030  22.3133  22.3267  22.4128
    22.4272  22.5352  22.5430  22.5454  22.5516  22.5553  22.5731  22.5818
    22.6290  22.6387  22.6547  22.6971  22.7250  22.7313  22.8438  22.9086
    22.9148  22.9193  22.9840  22.9879  23.1180  23.2473  23.3125  23.3191
    23.3225  23.4039  23.4114  23.4469  23.4761  23.4861  23.4976  23.6947
    23.7356  23.8516  23.8680  24.0948  24.1215  24.1295  24.2999  24.3003
    24.3347  24.4608  24.4608  24.4742  24.4989  24.5588  24.7694  24.7702
    24.7941  24.7957  24.8345  25.1135  25.1186  25.1269  25.1301  25.2737
    25.5474  25.5648  25.7429  25.7467  25.9429  26.0482  26.0734  26.0935
    26.3892  26.9246  26.9251

          k = 0.0556 0.2778 0.1659 ( 30299 PWs)   bands (ev):

   -50.0097 -49.9581 -49.9375 -49.9170 -49.9038 -49.8992 -49.8891 -49.8844
   -49.8786 -49.8759 -49.8691 -49.8675 -49.8674 -49.8640 -49.8626 -49.8548
   -49.8531 -49.8507 -49.8450 -49.8443 -49.8406 -49.8356 -49.8288 -49.8153
   -49.8131 -49.8127 -49.8115 -49.8114 -49.8096 -49.8089 -49.8070 -49.8058
   -20.3915 -20.3877 -20.3697 -20.3534 -20.3264 -20.3224 -20.3148 -20.2424
   -20.2332 -20.2005 -20.2002 -20.1997 -20.1996 -20.1930 -20.1718 -20.1699
   -20.1685 -20.1513 -20.1506 -20.1424 -20.1398 -20.1381 -20.1373 -20.1154
   -20.1009 -20.0598 -20.0488 -20.0282 -20.0264 -20.0140 -20.0108 -20.0082
   -19.9916 -19.9801 -19.9526 -19.9443 -19.9264 -19.8905 -19.8821 -19.8520
   -19.8449 -19.8381 -19.8126 -19.8072 -19.8020 -19.7936 -19.7859 -19.7831
   -19.7810 -19.7800 -19.7725 -19.7621 -19.7539 -19.7505 -19.7475 -19.7456
   -19.7455 -19.7421 -19.7094 -19.7073 -19.7031 -19.6940 -19.6833 -19.6804
   -19.6409 -19.6402 -19.6388 -19.6342 -19.6284 -19.6260 -19.6225 -19.6197
   -19.6154 -19.6074 -19.6014 -19.5959 -19.5940 -19.5927 -19.5853 -19.5832
   -19.5807 -19.5806 -19.5755 -19.5751 -19.5664 -19.5622 -19.5600 -19.5455
   -19.5446 -19.5404 -19.5349 -19.5258 -19.5152 -19.5130 -19.4552 -19.4424
    15.5825  16.8833  17.0270  17.0484  17.0571  17.2246  17.2934  17.3626
    17.3782  17.3943  17.4542  17.5059  17.5358  17.6721  17.6969  17.8727
    17.8854  17.9129  17.9564  18.0538  18.0926  18.1773  18.1796  18.2106
    18.2411  18.2606  18.3579  18.3849  18.4014  18.4030  18.4190  18.4405
    18.5673  18.5834  18.5869  18.6958  18.7365  18.8000  18.8094  18.9765
    18.9868  19.0059  19.0414  19.1447  19.1868  19.2529  19.2562  19.2902
    19.3019  19.3549  19.3922  19.4272  19.5047  19.5071  19.5440  19.6124
    19.6299  19.6644  19.7790  19.9062  19.9526  19.9629  19.9964  20.0260
    20.0597  20.0742  20.1297  20.1454  20.2058  20.2129  20.2537  20.2622
    20.2772  20.3488  20.4059  20.4142  20.4219  20.4838  20.4990  20.5288
    20.5691  20.6263  20.6567  20.6631  20.6742  20.6946  20.9036  20.9073
    20.9554  21.0070  21.0188  21.2296  21.2337  21.2574  21.3985  21.4292
    21.5196  21.5353  21.5908  21.7028  21.7530  21.8039  21.8597  21.9673
    21.9831  22.0232  22.0624  22.1180  22.1521  22.1684  22.2670  22.3439
    22.3765  22.4576  22.4603  22.4930  22.5127  22.5373  22.6437  22.6526
    22.6553  22.6639  22.7579  22.7972  22.8521  22.8888  22.9593  22.9732
    22.9845  23.0143  23.0157  23.1958  23.2947  23.2954  23.3178  23.3325
    23.3673  23.5247  23.5390  23.5774  23.5911  23.5938  23.6372  23.6437
    23.6442  23.7278  23.8334  23.9265  24.0876  24.2024  24.3011  24.3178
    24.3492  24.4157  24.4390  24.5609  24.5648  24.5683  24.7102  24.7111
    24.7949  24.7989  24.8566  24.8905  24.9926  25.0058  25.0216  25.0257
    25.0791  25.4546  25.5087  25.8781  26.0203  26.3247  26.4081  26.5064
    26.5354  26.5909  27.5018

          k = 0.0556 0.2778 0.2766 ( 30290 PWs)   bands (ev):

   -50.0036 -49.9542 -49.9535 -49.9163 -49.9138 -49.8965 -49.8875 -49.8874
   -49.8748 -49.8747 -49.8737 -49.8675 -49.8656 -49.8655 -49.8514 -49.8503
   -49.8502 -49.8501 -49.8419 -49.8417 -49.8372 -49.8370 -49.8237 -49.8176
   -49.8159 -49.8157 -49.8150 -49.8142 -49.8123 -49.8088 -49.8081 -49.8061
   -20.3779 -20.3776 -20.3427 -20.3221 -20.3106 -20.3027 -20.3010 -20.2444
   -20.2417 -20.2410 -20.2375 -20.2038 -20.2007 -20.1821 -20.1794 -20.1759
   -20.1750 -20.1744 -20.1724 -20.1646 -20.1629 -20.1416 -20.1377 -20.1377
   -20.1240 -20.1225 -20.0445 -20.0370 -20.0118 -20.0082 -19.9891 -19.9888
   -19.9792 -19.9758 -19.9468 -19.9392 -19.8726 -19.8719 -19.8702 -19.8436
   -19.8422 -19.8411 -19.8362 -19.8112 -19.8013 -19.7831 -19.7823 -19.7713
   -19.7690 -19.7683 -19.7653 -19.7649 -19.7554 -19.7526 -19.7319 -19.7308
   -19.7184 -19.7126 -19.7122 -19.7107 -19.6776 -19.6774 -19.6744 -19.6726
   -19.6627 -19.6617 -19.6597 -19.6536 -19.6312 -19.6311 -19.6294 -19.6243
   -19.6211 -19.6208 -19.6193 -19.6170 -19.5927 -19.5925 -19.5912 -19.5906
   -19.5886 -19.5826 -19.5705 -19.5677 -19.5644 -19.5621 -19.5581 -19.5552
   -19.5508 -19.5416 -19.5379 -19.5114 -19.5106 -19.5004 -19.4662 -19.4422
    15.7426  16.9962  17.0057  17.1415  17.1512  17.1554  17.2752  17.3599
    17.5257  17.5259  17.5734  17.5768  17.6747  17.7273  17.7965  17.8034
    17.8922  17.9329  17.9423  17.9507  17.9716  17.9717  18.0515  18.0685
    18.1087  18.1093  18.1846  18.1908  18.3876  18.4673  18.4682  18.4821
    18.4857  18.5243  18.5258  18.6057  18.6121  18.6968  18.6969  18.7731
    18.7788  18.9002  19.0424  19.0446  19.1084  19.1133  19.1192  19.3508
    19.3545  19.3673  19.3697  19.3995  19.4023  19.4238  19.4778  19.8003
    19.8125  19.9077  19.9164  19.9962  19.9977  20.0586  20.0661  20.0942
    20.1078  20.1095  20.1305  20.1975  20.2316  20.2912  20.3038  20.3826
    20.3933  20.4357  20.4485  20.5889  20.5944  20.5997  20.6657  20.6715
    20.6869  20.7150  20.7261  20.7631  20.7918  20.8021  20.8061  20.8127
    20.9558  20.9668  21.0762  21.0970  21.2922  21.3248  21.4263  21.4593
    21.4869  21.5143  21.5865  21.6129  21.6173  21.6863  21.7121  21.7308
    21.7513  21.7687  21.9247  21.9434  22.0861  22.1066  22.1098  22.1176
    22.1190  22.2380  22.3098  22.4445  22.4458  22.5743  22.6024  22.6063
    22.8897  22.8982  22.9024  23.0208  23.0265  23.0448  23.0453  23.1542
    23.1588  23.1635  23.1767  23.2364  23.2485  23.3569  23.3579  23.3617
    23.3624  23.4095  23.4314  23.6769  23.7038  23.7044  23.7548  23.8445
    23.8505  23.8509  23.8714  23.8770  24.0286  24.0795  24.2539  24.2568
    24.4614  24.5746  24.5794  24.6031  24.6043  24.6045  24.6220  24.6397
    24.7718  24.7801  24.7994  24.8032  24.8251  24.8286  24.8296  24.8418
    24.9324  25.2923  25.3809  25.3978  25.8921  25.9151  26.9585  26.9599
    27.1880  27.1927  27.2228

          k = 0.0556 0.2778 0.3872 ( 30311 PWs)   bands (ev):

   -49.9947 -49.9697 -49.9468 -49.9279 -49.9090 -49.8957 -49.8925 -49.8849
   -49.8815 -49.8780 -49.8731 -49.8684 -49.8628 -49.8549 -49.8519 -49.8475
   -49.8462 -49.8432 -49.8398 -49.8396 -49.8338 -49.8304 -49.8266 -49.8209
   -49.8206 -49.8196 -49.8191 -49.8145 -49.8131 -49.8115 -49.8075 -49.8064
   -20.3570 -20.3546 -20.3075 -20.2884 -20.2875 -20.2851 -20.2837 -20.2829
   -20.2696 -20.2350 -20.2338 -20.2333 -20.2222 -20.2209 -20.2010 -20.1990
   -20.1987 -20.1893 -20.1809 -20.1792 -20.1605 -20.1569 -20.1404 -20.1351
   -20.1285 -20.0988 -20.0700 -20.0678 -20.0378 -20.0149 -19.9742 -19.9610
   -19.9510 -19.9294 -19.9201 -19.9050 -19.9039 -19.9016 -19.8778 -19.8678
   -19.8361 -19.8288 -19.8138 -19.8030 -19.7923 -19.7847 -19.7702 -19.7671
   -19.7605 -19.7528 -19.7512 -19.7407 -19.7387 -19.7371 -19.7259 -19.7156
   -19.7077 -19.7073 -19.7064 -19.7025 -19.6982 -19.6857 -19.6753 -19.6735
   -19.6677 -19.6631 -19.6509 -19.6502 -19.6502 -19.6430 -19.6423 -19.6399
   -19.6281 -19.6144 -19.6129 -19.6110 -19.6067 -19.6052 -19.6008 -19.6004
   -19.5982 -19.5860 -19.5773 -19.5764 -19.5753 -19.5716 -19.5677 -19.5551
   -19.5455 -19.5424 -19.5275 -19.4993 -19.4928 -19.4847 -19.4822 -19.4494
    15.9761  16.6214  17.1821  17.2823  17.2944  17.3298  17.3771  17.4761
    17.6401  17.6587  17.6821  17.6940  17.7034  17.7167  17.7293  17.7507
    17.7721  17.8016  17.8529  17.8724  17.8966  17.9278  17.9888  17.9923
    18.0133  18.0415  18.1862  18.2015  18.2287  18.2296  18.2702  18.3372
    18.3978  18.4943  18.5592  18.6174  18.6268  18.6320  18.6776  18.6783
    18.7699  18.8505  18.8844  18.9591  18.9985  19.1217  19.1276  19.1629
    19.2292  19.3227  19.4384  19.4604  19.4783  19.4983  19.6439  19.7114
    19.7363  19.7634  19.8522  19.9843  20.0564  20.0731  20.1604  20.1855
    20.2061  20.2226  20.2437  20.3028  20.3576  20.3720  20.3855  20.4793
    20.4938  20.5502  20.5906  20.6013  20.6153  20.6488  20.7137  20.7766
    20.8065  20.8067  20.8472  20.8601  20.8818  20.9639  20.9740  20.9833
    20.9996  21.0624  21.1041  21.1144  21.2005  21.2646  21.3006  21.3739
    21.4372  21.4773  21.5098  21.5215  21.5394  21.5598  21.5826  21.6087
    21.7145  21.7320  21.7531  21.7950  21.9228  21.9498  21.9693  22.0104
    22.1189  22.1326  22.3071  22.3300  22.4314  22.4888  22.5717  22.6561
    22.7991  22.8194  22.8337  22.8692  22.9774  23.0393  23.1043  23.1115
    23.1910  23.2505  23.2760  23.3799  23.3925  23.4088  23.4796  23.5475
    23.5892  23.5900  23.7460  23.7461  23.7486  23.7921  23.9681  24.0182
    24.0379  24.0509  24.0867  24.0937  24.1111  24.1191  24.1197  24.1578
    24.2334  24.3790  24.4479  24.4614  24.4629  24.4766  24.4914  24.4992
    24.5013  24.5782  24.7917  24.8089  24.8102  24.8271  24.8689  24.8972
    25.2351  25.3312  25.3744  25.3749  25.4200  25.7612  26.5879  26.6191
    27.3989  27.5727  27.8496

          k = 0.0556 0.2778-0.4978 ( 30302 PWs)   bands (ev):

   -49.9833 -49.9833 -49.9382 -49.9382 -49.9030 -49.9029 -49.8875 -49.8875
   -49.8818 -49.8817 -49.8710 -49.8709 -49.8592 -49.8592 -49.8452 -49.8452
   -49.8426 -49.8426 -49.8382 -49.8382 -49.8295 -49.8295 -49.8266 -49.8266
   -49.8245 -49.8245 -49.8150 -49.8149 -49.8139 -49.8138 -49.8069 -49.8069
   -20.3268 -20.3268 -20.3226 -20.3226 -20.2660 -20.2660 -20.2623 -20.2623
   -20.2577 -20.2577 -20.2377 -20.2377 -20.2287 -20.2287 -20.2209 -20.2209
   -20.2191 -20.2191 -20.1925 -20.1925 -20.1467 -20.1466 -20.1394 -20.1394
   -20.1055 -20.1055 -20.0622 -20.0622 -20.0570 -20.0570 -19.9380 -19.9380
   -19.9319 -19.9319 -19.9139 -19.9139 -19.8961 -19.8961 -19.8785 -19.8785
   -19.8677 -19.8677 -19.7692 -19.7692 -19.7688 -19.7688 -19.7636 -19.7636
   -19.7576 -19.7576 -19.7553 -19.7553 -19.7426 -19.7426 -19.7290 -19.7290
   -19.7038 -19.7038 -19.6980 -19.6980 -19.6800 -19.6800 -19.6794 -19.6793
   -19.6620 -19.6619 -19.6536 -19.6536 -19.6511 -19.6511 -19.6403 -19.6403
   -19.6265 -19.6265 -19.6112 -19.6112 -19.6081 -19.6081 -19.6076 -19.6075
   -19.6000 -19.6000 -19.5884 -19.5884 -19.5720 -19.5719 -19.5560 -19.5560
   -19.5481 -19.5481 -19.5029 -19.5028 -19.4926 -19.4926 -19.4639 -19.4639
    16.2738  16.2738  17.4037  17.4037  17.4624  17.4624  17.4687  17.4687
    17.5293  17.5293  17.5521  17.5522  17.6410  17.6410  17.8201  17.8201
    17.8293  17.8293  17.9248  17.9248  17.9450  17.9450  17.9790  17.9790
    17.9839  17.9840  18.1048  18.1048  18.1180  18.1180  18.2279  18.2279
    18.4275  18.4275  18.5311  18.5311  18.6340  18.6340  18.7660  18.7660
    18.7665  18.7666  18.9075  18.9075  19.0141  19.0141  19.0346  19.0346
    19.4043  19.4043  19.4895  19.4895  19.5740  19.5740  19.5744  19.5744
    19.6134  19.6134  19.8670  19.8670  20.1310  20.1310  20.2263  20.2263
    20.2609  20.2609  20.3425  20.3425  20.3667  20.3667  20.4188  20.4188
    20.5072  20.5072  20.6426  20.6426  20.7577  20.7578  20.8442  20.8442
    20.8623  20.8623  20.9076  20.9076  20.9669  20.9669  20.9847  20.9848
    21.1366  21.1366  21.1832  21.1832  21.1933  21.1933  21.2081  21.2081
    21.3848  21.3848  21.3893  21.3893  21.4612  21.4612  21.4730  21.4730
    21.6819  21.6819  21.9188  21.9188  22.0565  22.0565  22.0963  22.0964
    22.1278  22.1278  22.1682  22.1682  22.2579  22.2580  22.4509  22.4510
    22.6600  22.6600  22.9679  22.9679  23.0096  23.0096  23.0973  23.0973
    23.2146  23.2146  23.4700  23.4700  23.5048  23.5048  23.6248  23.6248
    23.7166  23.7167  23.7894  23.7894  23.8743  23.8743  23.8770  23.8770
    24.1234  24.1234  24.1237  24.1238  24.2231  24.2232  24.2916  24.2916
    24.2918  24.2918  24.3181  24.3181  24.3325  24.3325  24.3361  24.3361
    24.4390  24.4390  24.8164  24.8164  24.8312  24.8312  24.8625  24.8625
    25.0278  25.0278  25.5695  25.5695  25.9338  25.9338  26.0242  26.0242
    27.7646  27.7646  28.0900

          k = 0.0556 0.3889 0.0553 ( 30291 PWs)   bands (ev):

   -50.0034 -49.9768 -49.9146 -49.9135 -49.8997 -49.8989 -49.8975 -49.8962
   -49.8849 -49.8840 -49.8684 -49.8659 -49.8599 -49.8597 -49.8596 -49.8594
   -49.8549 -49.8527 -49.8519 -49.8313 -49.8305 -49.8274 -49.8265 -49.8250
   -49.8169 -49.8158 -49.8154 -49.8141 -49.8081 -49.8076 -49.8060 -49.8057
   -20.3659 -20.3555 -20.3551 -20.3402 -20.3104 -20.3093 -20.2836 -20.2835
   -20.2694 -20.2689 -20.2492 -20.2421 -20.2416 -20.1770 -20.1704 -20.1673
   -20.1566 -20.1538 -20.1491 -20.1489 -20.1239 -20.1229 -20.0862 -20.0797
   -20.0570 -20.0535 -20.0402 -20.0335 -20.0247 -20.0202 -20.0160 -20.0114
   -20.0024 -19.9993 -19.9624 -19.9592 -19.9577 -19.9555 -19.9178 -19.9158
   -19.8472 -19.8442 -19.8007 -19.7975 -19.7939 -19.7881 -19.7677 -19.7588
   -19.7516 -19.7302 -19.7297 -19.7275 -19.7271 -19.7244 -19.7239 -19.7237
   -19.7228 -19.7224 -19.7154 -19.6949 -19.6947 -19.6939 -19.6713 -19.6701
   -19.6585 -19.6580 -19.6548 -19.6541 -19.6534 -19.6509 -19.6383 -19.6373
   -19.6360 -19.6352 -19.6146 -19.5940 -19.5921 -19.5820 -19.5777 -19.5717
   -19.5715 -19.5713 -19.5704 -19.5690 -19.5674 -19.5595 -19.5589 -19.5580
   -19.5560 -19.5382 -19.5361 -19.5313 -19.5113 -19.5088 -19.4663 -19.4634
    15.7484  16.4292  17.1023  17.1807  17.1848  17.3780  17.4449  17.4450
    17.4476  17.4934  17.5066  17.6457  17.6491  17.6532  17.6535  17.8336
    17.8385  17.8416  17.8505  17.9331  17.9335  18.0010  18.0328  18.0448
    18.1808  18.1932  18.2647  18.2717  18.4724  18.4840  18.4875  18.4908
    18.5398  18.5585  18.7351  18.7361  18.7542  18.7607  18.9772  18.9819
    18.9833  18.9910  19.0756  19.0800  19.2214  19.2258  19.2609  19.2663
    19.3024  19.3177  19.3609  19.3748  19.3827  19.3847  19.6239  19.6318
    19.6477  19.6819  19.6878  19.8073  19.8967  19.9036  19.9176  19.9217
    19.9281  19.9384  20.0568  20.1075  20.1240  20.1349  20.1389  20.1476
    20.1552  20.2831  20.3344  20.3406  20.6126  20.6673  20.6813  20.6897
    20.6971  20.6995  20.7114  20.7123  20.7513  20.7967  20.9930  20.9997
    21.0241  21.0763  21.1300  21.1603  21.1648  21.1712  21.1757  21.1977
    21.6384  21.6737  21.9843  21.9892  22.0028  22.0551  22.0614  22.1765
    22.1807  22.1829  22.2340  22.2539  22.2561  22.2961  22.3002  22.3313
    22.3379  22.3816  22.3861  22.3913  22.4010  22.4648  22.5033  22.5094
    22.5462  22.5487  22.5650  22.5718  22.6548  22.6591  22.8734  22.8771
    22.9786  22.9896  23.0300  23.1378  23.1832  23.3285  23.3323  23.4570
    23.6429  23.6465  23.6519  23.7546  23.7627  23.7631  23.8013  23.8038
    24.0229  24.0241  24.0263  24.0833  24.1735  24.1796  24.1840  24.2375
    24.2473  24.2542  24.2954  24.3008  24.4666  24.4724  24.4846  24.4877
    24.5289  24.5319  24.6055  25.0566  25.0670  25.1137  25.1166  25.1278
    25.1292  25.2945  25.5238  25.5425  25.6433  26.1463  26.1474  26.2068
    26.5805  26.7416  26.7421

          k = 0.0556 0.3889 0.1659 ( 30304 PWs)   bands (ev):

   -50.0004 -49.9742 -49.9314 -49.9143 -49.9120 -49.8978 -49.8950 -49.8831
   -49.8807 -49.8769 -49.8720 -49.8703 -49.8665 -49.8640 -49.8535 -49.8514
   -49.8512 -49.8504 -49.8459 -49.8345 -49.8320 -49.8285 -49.8247 -49.8226
   -49.8180 -49.8175 -49.8169 -49.8125 -49.8111 -49.8102 -49.8066 -49.8060
   -20.3664 -20.3597 -20.3355 -20.3156 -20.3025 -20.3005 -20.2895 -20.2796
   -20.2794 -20.2473 -20.2386 -20.2348 -20.2214 -20.1977 -20.1919 -20.1784
   -20.1771 -20.1762 -20.1718 -20.1612 -20.1382 -20.1267 -20.1204 -20.1075
   -20.0792 -20.0671 -20.0632 -20.0421 -20.0417 -20.0101 -19.9863 -19.9829
   -19.9822 -19.9712 -19.9584 -19.9399 -19.9246 -19.9157 -19.9093 -19.8931
   -19.8715 -19.8382 -19.7846 -19.7815 -19.7813 -19.7809 -19.7798 -19.7773
   -19.7642 -19.7566 -19.7558 -19.7319 -19.7313 -19.7230 -19.7204 -19.7166
   -19.7129 -19.7113 -19.7025 -19.6980 -19.6776 -19.6759 -19.6758 -19.6664
   -19.6635 -19.6631 -19.6613 -19.6602 -19.6597 -19.6523 -19.6516 -19.6271
   -19.6258 -19.6202 -19.6049 -19.6032 -19.5983 -19.5980 -19.5970 -19.5919
   -19.5892 -19.5855 -19.5725 -19.5693 -19.5679 -19.5630 -19.5578 -19.5553
   -19.5474 -19.5383 -19.5264 -19.5173 -19.5124 -19.4980 -19.4715 -19.4553
    15.8257  16.4964  17.1667  17.2131  17.2364  17.3552  17.4392  17.5140
    17.5322  17.5547  17.5647  17.5844  17.6627  17.6874  17.7081  17.7243
    17.7739  17.8182  17.8844  17.8865  17.9727  17.9925  18.0496  18.0754
    18.0902  18.1037  18.2208  18.2574  18.2634  18.2720  18.4328  18.4658
    18.5359  18.5364  18.5646  18.6031  18.7006  18.8944  18.8977  18.9178
    18.9322  19.0311  19.0505  19.0859  19.1086  19.1461  19.1586  19.1764
    19.2136  19.2140  19.3523  19.3621  19.3673  19.4743  19.6378  19.6388
    19.6575  19.7114  19.9139  19.9180  19.9550  19.9803  20.0195  20.0324
    20.0381  20.0755  20.1139  20.1642  20.1688  20.1974  20.2395  20.2517
    20.3486  20.3711  20.3821  20.5675  20.6111  20.6670  20.6875  20.6994
    20.7558  20.8103  20.8166  20.8171  20.8180  20.8182  20.8225  20.8581
    20.9722  21.0372  21.1084  21.1383  21.1656  21.1847  21.2735  21.3042
    21.5103  21.6283  21.6768  21.7474  21.7509  21.8021  21.9145  21.9656
    21.9889  22.0175  22.0690  22.0705  22.0770  22.0826  22.1598  22.2268
    22.2893  22.3410  22.4409  22.4717  22.4888  22.5470  22.5751  22.5905
    22.6128  22.7132  22.7591  22.7612  22.8307  22.8868  22.9094  22.9589
    23.0161  23.0590  23.1862  23.2359  23.2833  23.2885  23.3574  23.3749
    23.5532  23.5844  23.6555  23.7476  23.8686  23.8725  23.8845  23.8981
    23.9222  23.9293  23.9451  24.0350  24.0550  24.1289  24.1340  24.2337
    24.3139  24.4028  24.4138  24.4682  24.4709  24.4820  24.4869  24.4985
    24.6281  24.6327  24.6939  24.9352  24.9926  25.0047  25.0089  25.0133
    25.0165  25.1964  25.4916  25.7042  25.7404  25.9039  26.0392  26.2396
    26.7321  27.0559  27.3300

          k = 0.0556 0.3889 0.2766 ( 30308 PWs)   bands (ev):

   -49.9946 -49.9692 -49.9474 -49.9282 -49.9090 -49.8956 -49.8926 -49.8850
   -49.8815 -49.8780 -49.8731 -49.8684 -49.8646 -49.8564 -49.8498 -49.8477
   -49.8461 -49.8434 -49.8394 -49.8384 -49.8336 -49.8306 -49.8241 -49.8204
   -49.8198 -49.8191 -49.8189 -49.8170 -49.8152 -49.8109 -49.8079 -49.8065
   -20.3569 -20.3537 -20.3070 -20.2870 -20.2869 -20.2831 -20.2823 -20.2812
   -20.2713 -20.2362 -20.2357 -20.2322 -20.2203 -20.2186 -20.2024 -20.2015
   -20.1991 -20.1867 -20.1830 -20.1808 -20.1627 -20.1551 -20.1434 -20.1333
   -20.1291 -20.1020 -20.0712 -20.0687 -20.0401 -20.0162 -19.9712 -19.9620
   -19.9512 -19.9291 -19.9273 -19.9033 -19.9025 -19.8965 -19.8790 -19.8736
   -19.8281 -19.8264 -19.8115 -19.7972 -19.7944 -19.7907 -19.7680 -19.7667
   -19.7618 -19.7555 -19.7539 -19.7472 -19.7369 -19.7334 -19.7242 -19.7160
   -19.7073 -19.7049 -19.7047 -19.7043 -19.6977 -19.6848 -19.6742 -19.6731
   -19.6677 -19.6617 -19.6501 -19.6473 -19.6465 -19.6414 -19.6407 -19.6395
   -19.6272 -19.6190 -19.6162 -19.6077 -19.6058 -19.6057 -19.6033 -19.6015
   -19.5983 -19.5824 -19.5812 -19.5741 -19.5731 -19.5712 -19.5712 -19.5592
   -19.5462 -19.5428 -19.5294 -19.4987 -19.4927 -19.4852 -19.4828 -19.4496
    15.9781  16.6285  17.1752  17.2841  17.2926  17.3365  17.3775  17.4765
    17.6440  17.6571  17.6803  17.6997  17.7043  17.7169  17.7300  17.7546
    17.7730  17.8150  17.8539  17.8720  17.8974  17.9287  17.9886  17.9918
    18.0092  18.0420  18.1890  18.2025  18.2151  18.2288  18.2757  18.3320
    18.3977  18.4974  18.5607  18.6216  18.6230  18.6235  18.6734  18.6765
    18.7688  18.8467  18.8823  18.9577  18.9982  19.1258  19.1265  19.1607
    19.2250  19.3208  19.4412  19.4444  19.4765  19.4925  19.6700  19.7119
    19.7459  19.7598  19.8473  19.9921  20.0745  20.0856  20.1601  20.1905
    20.1973  20.2141  20.2230  20.3306  20.3465  20.3634  20.3913  20.4822
    20.4874  20.5613  20.5884  20.6031  20.6073  20.6387  20.6925  20.7638
    20.7868  20.7933  20.8593  20.8637  20.8736  20.9413  20.9844  20.9858
    20.9889  21.0684  21.0708  21.0922  21.1673  21.2333  21.2880  21.4031
    21.4550  21.4638  21.4896  21.5330  21.5489  21.5712  21.6060  21.6062
    21.7130  21.7301  21.7523  21.8036  21.9371  21.9585  21.9830  22.0320
    22.1368  22.1411  22.3107  22.3354  22.4520  22.4898  22.5581  22.6639
    22.7948  22.8268  22.8351  22.8825  22.9577  23.0440  23.1103  23.1222
    23.1995  23.2259  23.2814  23.3803  23.3928  23.4096  23.4800  23.5412
    23.5909  23.6005  23.7458  23.7513  23.7538  23.7954  23.9729  24.0170
    24.0417  24.0512  24.0918  24.0985  24.1072  24.1180  24.1234  24.1702
    24.2345  24.3853  24.4594  24.4637  24.4638  24.4934  24.4963  24.4969
    24.5206  24.5890  24.7755  24.7840  24.7873  24.8084  24.8544  24.9081
    25.2188  25.3388  25.3596  25.3926  25.4174  25.7399  26.6147  26.6186
    27.3868  27.5653  27.8590

          k = 0.0556 0.3889 0.3872 ( 30316 PWs)   bands (ev):

   -49.9861 -49.9622 -49.9618 -49.9410 -49.9047 -49.8925 -49.8924 -49.8890
   -49.8835 -49.8791 -49.8791 -49.8725 -49.8497 -49.8477 -49.8436 -49.8423
   -49.8422 -49.8419 -49.8360 -49.8358 -49.8336 -49.8335 -49.8256 -49.8240
   -49.8238 -49.8232 -49.8227 -49.8207 -49.8154 -49.8099 -49.8095 -49.8073
   -20.3379 -20.3374 -20.2768 -20.2759 -20.2754 -20.2735 -20.2711 -20.2644
   -20.2591 -20.2572 -20.2419 -20.2321 -20.2315 -20.2240 -20.2215 -20.2008
   -20.1995 -20.1862 -20.1855 -20.1844 -20.1836 -20.1834 -20.1817 -20.1484
   -20.1464 -20.1454 -20.1076 -20.0624 -20.0581 -20.0064 -20.0046 -19.9363
   -19.9146 -19.9141 -19.8863 -19.8783 -19.8736 -19.8458 -19.8438 -19.8345
   -19.8296 -19.8285 -19.8278 -19.8187 -19.8094 -19.7702 -19.7649 -19.7644
   -19.7621 -19.7505 -19.7485 -19.7468 -19.7418 -19.7415 -19.7405 -19.7398
   -19.7296 -19.7282 -19.6959 -19.6943 -19.6889 -19.6878 -19.6875 -19.6763
   -19.6759 -19.6534 -19.6528 -19.6477 -19.6426 -19.6417 -19.6398 -19.6389
   -19.6235 -19.6203 -19.6191 -19.6174 -19.6163 -19.6128 -19.6025 -19.5967
   -19.5925 -19.5869 -19.5812 -19.5810 -19.5787 -19.5750 -19.5667 -19.5523
   -19.5494 -19.5471 -19.5456 -19.4992 -19.4798 -19.4766 -19.4762 -19.4510
    16.2002  16.8153  16.8201  17.3474  17.3994  17.4448  17.4738  17.4782
    17.5565  17.7093  17.7093  17.7339  17.7675  17.7703  17.8303  17.8314
    17.8414  17.8417  17.8522  17.8545  17.8784  17.8895  17.8901  17.9560
    17.9672  18.0331  18.0752  18.1463  18.1486  18.3365  18.3385  18.3390
    18.3419  18.3460  18.3488  18.3533  18.3574  18.5834  18.5852  18.6038
    18.6045  18.6535  18.6589  18.9060  18.9105  19.0263  19.2389  19.2425
    19.2440  19.2476  19.4117  19.5642  19.5695  19.5891  19.6010  19.6543
    19.6723  19.9843  20.0022  20.0029  20.1734  20.2612  20.2626  20.3831
    20.3876  20.3936  20.3951  20.3982  20.4028  20.4244  20.4266  20.4381
    20.5241  20.5709  20.7126  20.7240  20.8076  20.8144  20.8153  20.8704
    20.8856  20.9014  20.9160  20.9281  20.9958  21.0071  21.0117  21.0219
    21.1433  21.1714  21.1816  21.1820  21.1940  21.1957  21.2174  21.2597
    21.3167  21.3400  21.3742  21.3808  21.3817  21.3884  21.4386  21.4457
    21.4494  21.4673  21.5908  21.6705  21.6842  21.7019  21.7142  21.9727
    22.1320  22.1324  22.1346  22.1374  22.2158  22.2288  22.3038  22.3668
    22.6884  23.0255  23.0603  23.0650  23.0830  23.0869  23.3512  23.3572
    23.3613  23.3635  23.4607  23.4644  23.5213  23.5214  23.5879  23.6282
    23.7717  23.7757  23.8797  23.9035  23.9087  23.9217  23.9253  23.9288
    23.9323  24.0148  24.1210  24.2239  24.2574  24.2752  24.2765  24.2765
    24.2801  24.3291  24.3907  24.4402  24.4403  24.4890  24.4990  24.5020
    24.5043  24.5351  24.5356  24.5437  24.5481  24.5598  24.7211  24.7460
    24.7568  25.0820  25.2376  25.2540  25.9864  25.9955  27.2581  27.2676
    27.3168  27.3445  28.0631

          k = 0.0556 0.3889-0.4978 ( 30300 PWs)   bands (ev):

   -49.9752 -49.9752 -49.9523 -49.9523 -49.8991 -49.8991 -49.8884 -49.8883
   -49.8845 -49.8845 -49.8761 -49.8761 -49.8450 -49.8450 -49.8387 -49.8387
   -49.8376 -49.8376 -49.8366 -49.8366 -49.8322 -49.8322 -49.8295 -49.8295
   -49.8282 -49.8282 -49.8220 -49.8220 -49.8124 -49.8124 -49.8084 -49.8083
   -20.3114 -20.3114 -20.3102 -20.3102 -20.2573 -20.2573 -20.2567 -20.2567
   -20.2433 -20.2433 -20.2353 -20.2353 -20.2300 -20.2299 -20.2232 -20.2232
   -20.2054 -20.2054 -20.1964 -20.1963 -20.1854 -20.1853 -20.1734 -20.1733
   -20.1465 -20.1465 -20.1026 -20.1026 -20.0365 -20.0365 -19.9713 -19.9713
   -19.8781 -19.8781 -19.8699 -19.8699 -19.8551 -19.8551 -19.8497 -19.8496
   -19.8182 -19.8182 -19.7996 -19.7996 -19.7905 -19.7905 -19.7877 -19.7877
   -19.7821 -19.7821 -19.7464 -19.7464 -19.7356 -19.7356 -19.7236 -19.7236
   -19.7105 -19.7105 -19.7065 -19.7065 -19.7037 -19.7037 -19.6860 -19.6860
   -19.6666 -19.6666 -19.6663 -19.6663 -19.6346 -19.6345 -19.6298 -19.6297
   -19.6288 -19.6288 -19.6242 -19.6242 -19.5999 -19.5999 -19.5968 -19.5968
   -19.5937 -19.5937 -19.5859 -19.5859 -19.5698 -19.5698 -19.5653 -19.5653
   -19.5580 -19.5579 -19.5204 -19.5204 -19.4745 -19.4745 -19.4600 -19.4600
    16.4836  16.4836  17.0634  17.0635  17.5563  17.5563  17.5613  17.5613
    17.6495  17.6495  17.6786  17.6786  17.7002  17.7002  17.7111  17.7111
    17.8493  17.8493  17.8804  17.8804  17.9857  17.9858  18.0666  18.0667
    18.0778  18.0778  18.1001  18.1001  18.1056  18.1056  18.1513  18.1513
    18.3185  18.3185  18.3544  18.3544  18.4663  18.4663  18.4956  18.4956
    18.5205  18.5205  18.8022  18.8022  19.0360  19.0360  19.0533  19.0533
    19.3842  19.3842  19.3992  19.3992  19.6488  19.6488  19.7244  19.7245
    19.8401  19.8401  19.9250  19.9250  20.1249  20.1249  20.3756  20.3756
    20.4369  20.4370  20.4944  20.4944  20.5653  20.5653  20.6158  20.6158
    20.7143  20.7143  20.7366  20.7366  20.7612  20.7612  20.9334  20.9334
    20.9526  20.9526  20.9717  20.9717  20.9881  20.9881  21.0171  21.0171
    21.0666  21.0666  21.1198  21.1198  21.1285  21.1285  21.1701  21.1701
    21.2491  21.2491  21.2614  21.2614  21.4312  21.4312  21.4329  21.4329
    21.4564  21.4564  21.6057  21.6057  21.8364  21.8364  21.8612  21.8612
    21.9032  21.9032  21.9225  21.9225  22.0624  22.0625  22.2373  22.2374
    22.8897  22.8898  23.1674  23.1674  23.2610  23.2610  23.3100  23.3100
    23.3362  23.3363  23.5770  23.5770  23.6491  23.6491  23.6691  23.6692
    23.7448  23.7448  23.8303  23.8303  23.9381  23.9381  24.0826  24.0827
    24.1424  24.1424  24.2334  24.2335  24.2986  24.2986  24.3003  24.3004
    24.3143  24.3143  24.3818  24.3818  24.3839  24.3839  24.4189  24.4189
    24.4251  24.4251  24.5212  24.5212  24.5697  24.5697  24.6238  24.6238
    24.7337  24.7337  25.1050  25.1050  26.6314  26.6314  26.6429  26.6429
    27.9653  27.9653  28.0569

          k = 0.0556-0.5000 0.0553 ( 30288 PWs)   bands (ev):

   -49.9913 -49.9912 -49.9079 -49.9077 -49.9069 -49.9068 -49.8918 -49.8917
   -49.8907 -49.8905 -49.8673 -49.8672 -49.8598 -49.8597 -49.8596 -49.8594
   -49.8538 -49.8536 -49.8374 -49.8372 -49.8235 -49.8233 -49.8226 -49.8224
   -49.8209 -49.8208 -49.8198 -49.8197 -49.8080 -49.8078 -49.8059 -49.8057
   -20.3283 -20.3282 -20.3155 -20.3154 -20.3150 -20.3149 -20.2973 -20.2973
   -20.2794 -20.2792 -20.2785 -20.2784 -20.2352 -20.2350 -20.1622 -20.1622
   -20.1607 -20.1606 -20.1415 -20.1415 -20.1404 -20.1404 -20.0558 -20.0557
   -20.0502 -20.0501 -20.0329 -20.0328 -20.0295 -20.0294 -20.0014 -20.0013
   -19.9956 -19.9956 -19.9900 -19.9899 -19.9858 -19.9856 -19.8795 -19.8794
   -19.8771 -19.8770 -19.7992 -19.7991 -19.7910 -19.7908 -19.7473 -19.7471
   -19.7391 -19.7389 -19.6997 -19.6996 -19.6983 -19.6982 -19.6974 -19.6972
   -19.6929 -19.6928 -19.6909 -19.6909 -19.6908 -19.6908 -19.6876 -19.6875
   -19.6768 -19.6768 -19.6766 -19.6766 -19.6642 -19.6641 -19.6636 -19.6635
   -19.6510 -19.6510 -19.5863 -19.5862 -19.5801 -19.5800 -19.5790 -19.5789
   -19.5789 -19.5788 -19.5716 -19.5715 -19.5710 -19.5708 -19.5577 -19.5575
   -19.5458 -19.5458 -19.5451 -19.5450 -19.4869 -19.4867 -19.4842 -19.4840
    16.0630  16.0632  17.2700  17.2702  17.4019  17.4021  17.4061  17.4063
    17.5844  17.5844  17.6536  17.6538  17.6647  17.6647  17.6650  17.6650
    17.7252  17.7252  17.8853  17.8855  17.8952  17.8954  18.0444  18.0445
    18.0541  18.0542  18.2519  18.2520  18.2616  18.2617  18.6133  18.6134
    18.6214  18.6215  18.7488  18.7490  18.7634  18.7636  18.9027  18.9028
    18.9039  18.9041  19.0971  19.0973  19.0999  19.1000  19.3026  19.3026
    19.3220  19.3220  19.3299  19.3300  19.3333  19.3333  19.6344  19.6344
    19.6360  19.6360  19.9015  19.9016  19.9050  19.9051  19.9250  19.9251
    19.9280  19.9281  20.0318  20.0320  20.0461  20.0462  20.1992  20.1993
    20.3838  20.3839  20.3956  20.3956  20.4898  20.4899  20.4990  20.4990
    20.7834  20.7834  20.8505  20.8505  20.8682  20.8683  20.9054  20.9054
    20.9359  20.9360  20.9773  20.9774  21.6335  21.6335  21.6348  21.6348
    21.6402  21.6403  21.6708  21.6709  22.0393  22.0394  22.0398  22.0399
    22.2374  22.2375  22.3001  22.3001  22.3383  22.3384  22.3509  22.3510
    22.3549  22.3550  22.4265  22.4267  22.4312  22.4313  22.4435  22.4436
    22.4442  22.4443  22.5058  22.5059  22.5109  22.5110  22.7582  22.7583
    22.7586  22.7587  23.0710  23.0711  23.6884  23.6886  23.6912  23.6913
    23.7054  23.7055  23.7852  23.7852  23.9598  23.9598  23.9671  23.9672
    24.0089  24.0089  24.0468  24.0468  24.1218  24.1218  24.1309  24.1310
    24.1403  24.1404  24.1465  24.1466  24.4152  24.4153  24.5916  24.5916
    24.5944  24.5944  24.6311  24.6312  25.0096  25.0096  25.0212  25.0212
    25.1148  25.1149  25.1285  25.1286  25.9576  25.9578  26.4830  26.4830
    26.4831  26.4832  26.9726

          k = 0.0556-0.5000 0.1659 ( 30310 PWs)   bands (ev):

   -49.9886 -49.9884 -49.9237 -49.9235 -49.9056 -49.9054 -49.8897 -49.8895
   -49.8760 -49.8759 -49.8747 -49.8746 -49.8654 -49.8653 -49.8524 -49.8523
   -49.8480 -49.8478 -49.8369 -49.8367 -49.8253 -49.8252 -49.8245 -49.8244
   -49.8222 -49.8221 -49.8172 -49.8170 -49.8107 -49.8106 -49.8064 -49.8062
   -20.3318 -20.3318 -20.3230 -20.3229 -20.2940 -20.2939 -20.2724 -20.2722
   -20.2717 -20.2716 -20.2707 -20.2706 -20.2337 -20.2335 -20.1879 -20.1879
   -20.1793 -20.1792 -20.1785 -20.1785 -20.1256 -20.1256 -20.1002 -20.1001
   -20.0750 -20.0749 -20.0661 -20.0660 -20.0229 -20.0228 -19.9867 -19.9866
   -19.9567 -19.9565 -19.9457 -19.9456 -19.9378 -19.9377 -19.9034 -19.9033
   -19.8708 -19.8707 -19.7830 -19.7829 -19.7802 -19.7801 -19.7564 -19.7562
   -19.7360 -19.7359 -19.7308 -19.7306 -19.7255 -19.7255 -19.7065 -19.7064
   -19.6974 -19.6973 -19.6921 -19.6921 -19.6867 -19.6866 -19.6841 -19.6839
   -19.6837 -19.6836 -19.6561 -19.6560 -19.6495 -19.6493 -19.6303 -19.6301
   -19.6284 -19.6283 -19.6142 -19.6141 -19.6126 -19.6125 -19.5942 -19.5941
   -19.5892 -19.5891 -19.5819 -19.5818 -19.5700 -19.5699 -19.5511 -19.5509
   -19.5482 -19.5481 -19.5165 -19.5165 -19.4925 -19.4924 -19.4742 -19.4741
    16.1355  16.1357  17.3354  17.3355  17.4220  17.4221  17.4591  17.4593
[...]
   -19.6518 -19.6518 -19.6517 -19.6517 -19.6517 -19.6516 -19.6516 -19.6516
   -19.6171 -19.6170 -19.6170 -19.6170 -19.5983 -19.5983 -19.5983 -19.5983
   -19.5767 -19.5766 -19.5766 -19.5765 -19.5763 -19.5763 -19.5763 -19.5763
   -19.5429 -19.5427 -19.5427 -19.5426 -19.4616 -19.4615 -19.4615 -19.4615
    16.7550  16.7551  16.7553  16.7554  17.6158  17.6159  17.6159  17.6159
    17.7021  17.7021  17.7021  17.7022  17.7468  17.7468  17.7468  17.7468
    17.8861  17.8862  17.8862  17.8863  17.8863  17.8864  17.8865  17.8865
    18.1965  18.1965  18.1966  18.1967  18.1967  18.1967  18.1968  18.1969
    18.2962  18.2962  18.2962  18.2963  18.2963  18.2963  18.2963  18.2963
    18.5706  18.5706  18.5707  18.5707  19.2031  19.2032  19.2033  19.2033
    19.2033  19.2033  19.2034  19.2034  19.7723  19.7723  19.7723  19.7723
    19.9893  19.9894  19.9895  19.9895  20.2666  20.2667  20.2668  20.2668
    20.4755  20.4755  20.4756  20.4756  20.4890  20.4891  20.4891  20.4891
    20.8543  20.8543  20.8544  20.8544  20.8544  20.8544  20.8544  20.8544
    20.9412  20.9412  20.9413  20.9413  21.1269  21.1269  21.1270  21.1270
    21.1326  21.1326  21.1326  21.1326  21.2744  21.2744  21.2744  21.2744
    21.2745  21.2745  21.2745  21.2746  21.2809  21.2809  21.2810  21.2810
    21.5095  21.5095  21.5096  21.5096  21.6549  21.6549  21.6550  21.6550
    21.6550  21.6550  21.6551  21.6551  22.1827  22.1829  22.1829  22.1830
    23.1304  23.1305  23.1305  23.1306  23.3120  23.3121  23.3121  23.3122
    23.5354  23.5354  23.5355  23.5355  23.5356  23.5356  23.5356  23.5357
    24.0480  24.0481  24.0481  24.0481  24.1663  24.1663  24.1664  24.1664
    24.1665  24.1665  24.1665  24.1665  24.1730  24.1731  24.1731  24.1732
    24.4037  24.4038  24.4038  24.4039  24.4465  24.4465  24.4466  24.4466
    24.4466  24.4466  24.4466  24.4466  24.4527  24.4527  24.4528  24.4528
    24.7000  24.7001  24.7001  24.7002  27.3637  27.3638  27.3638  27.3638
    27.3639  27.3639  27.3639

          k =-0.5000-0.5000 0.1659 ( 30312 PWs)   bands (ev):

   -49.9622 -49.9621 -49.9621 -49.9619 -49.9081 -49.9080 -49.9080 -49.9078
   -49.8685 -49.8684 -49.8683 -49.8682 -49.8330 -49.8329 -49.8328 -49.8328
   -49.8328 -49.8328 -49.8327 -49.8326 -49.8326 -49.8325 -49.8325 -49.8324
   -49.8324 -49.8324 -49.8323 -49.8322 -49.8144 -49.8143 -49.8142 -49.8141
   -20.2850 -20.2850 -20.2850 -20.2850 -20.2850 -20.2850 -20.2850 -20.2849
   -20.2236 -20.2235 -20.2235 -20.2234 -20.2234 -20.2234 -20.2233 -20.2233
   -20.2172 -20.2171 -20.2171 -20.2170 -20.2165 -20.2164 -20.2164 -20.2163
   -20.1021 -20.1020 -20.1020 -20.1019 -19.9784 -19.9784 -19.9784 -19.9784
   -19.8283 -19.8283 -19.8283 -19.8283 -19.8283 -19.8283 -19.8283 -19.8283
   -19.8221 -19.8220 -19.8220 -19.8219 -19.8219 -19.8219 -19.8218 -19.8218
   -19.7885 -19.7885 -19.7885 -19.7885 -19.7167 -19.7167 -19.7167 -19.7166
   -19.7166 -19.7166 -19.7165 -19.7165 -19.7084 -19.7084 -19.7084 -19.7084
   -19.6642 -19.6642 -19.6642 -19.6641 -19.6552 -19.6552 -19.6551 -19.6551
   -19.6551 -19.6551 -19.6550 -19.6550 -19.6198 -19.6198 -19.6198 -19.6198
   -19.5547 -19.5547 -19.5547 -19.5547 -19.5442 -19.5441 -19.5441 -19.5440
   -19.5317 -19.5316 -19.5316 -19.5315 -19.4654 -19.4654 -19.4654 -19.4653
    16.7852  16.7853  16.7854  16.7855  17.4686  17.4687  17.4687  17.4688
    17.7336  17.7336  17.7336  17.7337  17.8485  17.8485  17.8485  17.8485
    17.8513  17.8514  17.8514  17.8515  17.8515  17.8516  17.8516  17.8516
    18.2172  18.2173  18.2173  18.2173  18.2174  18.2174  18.2174  18.2174
    18.3156  18.3156  18.3157  18.3157  18.3158  18.3158  18.3158  18.3159
    18.6018  18.6018  18.6019  18.6019  19.2345  19.2345  19.2346  19.2346
    19.2346  19.2346  19.2347  19.2347  19.6895  19.6896  19.6897  19.6898
    19.8318  19.8318  19.8318  19.8319  20.4097  20.4097  20.4098  20.4098
    20.5472  20.5473  20.5473  20.5473  20.5700  20.5700  20.5701  20.5701
    20.8043  20.8043  20.8043  20.8043  20.8043  20.8044  20.8044  20.8044
    20.9309  20.9310  20.9310  20.9311  21.0119  21.0120  21.0120  21.0120
    21.0801  21.0801  21.0801  21.0802  21.2539  21.2539  21.2539  21.2540
    21.2540  21.2540  21.2541  21.2541  21.4404  21.4405  21.4405  21.4406
    21.4714  21.4715  21.4715  21.4716  21.7330  21.7330  21.7331  21.7331
    21.7331  21.7331  21.7332  21.7332  22.2999  22.3000  22.3000  22.3001
    22.9888  22.9889  22.9889  22.9890  23.1796  23.1796  23.1796  23.1797
    23.1797  23.1797  23.1798  23.1798  23.2675  23.2676  23.2676  23.2677
    23.5306  23.5307  23.5307  23.5307  23.9088  23.9088  23.9089  23.9089
    24.4468  24.4468  24.4469  24.4469  24.4470  24.4470  24.4470  24.4470
    24.5137  24.5137  24.5137  24.5138  24.5138  24.5138  24.5138  24.5138
    24.5375  24.5375  24.5376  24.5376  24.5899  24.5900  24.5900  24.5900
    25.4572  25.4572  25.4573  25.4574  27.4458  27.4458  27.4459  27.4459
    27.4459  27.4459  27.4460

          k =-0.5000-0.5000 0.2766 ( 30276 PWs)   bands (ev):

   -49.9577 -49.9576 -49.9575 -49.9574 -49.9207 -49.9205 -49.9205 -49.9204
   -49.8560 -49.8558 -49.8558 -49.8557 -49.8329 -49.8328 -49.8328 -49.8327
   -49.8327 -49.8327 -49.8326 -49.8326 -49.8326 -49.8326 -49.8325 -49.8324
   -49.8324 -49.8324 -49.8323 -49.8323 -49.8189 -49.8188 -49.8188 -49.8186
   -20.2775 -20.2775 -20.2775 -20.2775 -20.2774 -20.2774 -20.2774 -20.2774
   -20.2378 -20.2377 -20.2377 -20.2376 -20.2332 -20.2331 -20.2330 -20.2329
   -20.2319 -20.2319 -20.2318 -20.2318 -20.2318 -20.2318 -20.2317 -20.2317
   -20.0508 -20.0507 -20.0507 -20.0506 -19.9361 -19.9361 -19.9361 -19.9361
   -19.8308 -19.8308 -19.8308 -19.8308 -19.8284 -19.8284 -19.8284 -19.8284
   -19.8284 -19.8284 -19.8284 -19.8284 -19.8243 -19.8243 -19.8242 -19.8242
   -19.8242 -19.8242 -19.8241 -19.8241 -19.7165 -19.7165 -19.7165 -19.7164
   -19.7068 -19.7068 -19.7067 -19.7067 -19.7066 -19.7066 -19.7066 -19.7066
   -19.7010 -19.7010 -19.7010 -19.7010 -19.6617 -19.6617 -19.6617 -19.6616
   -19.6616 -19.6616 -19.6615 -19.6615 -19.6404 -19.6404 -19.6404 -19.6404
   -19.5341 -19.5341 -19.5341 -19.5341 -19.5206 -19.5205 -19.5205 -19.5204
   -19.5172 -19.5171 -19.5170 -19.5169 -19.4729 -19.4729 -19.4729 -19.4729
    16.8445  16.8446  16.8448  16.8449  17.3174  17.3175  17.3176  17.3176
    17.7889  17.7889  17.7889  17.7889  17.8333  17.8333  17.8334  17.8334
    17.8335  17.8335  17.8335  17.8335  17.9106  17.9106  17.9107  17.9107
    18.1034  18.1035  18.1035  18.1035  18.1036  18.1036  18.1036  18.1036
    18.4967  18.4967  18.4967  18.4967  18.4969  18.4969  18.4969  18.4969
    18.6679  18.6679  18.6680  18.6680  19.2217  19.2217  19.2218  19.2218
    19.2218  19.2218  19.2219  19.2219  19.4008  19.4008  19.4009  19.4010
    19.9437  19.9437  19.9437  19.9438  20.4101  20.4101  20.4102  20.4102
    20.6501  20.6501  20.6502  20.6502  20.7245  20.7245  20.7245  20.7246
    20.7911  20.7911  20.7912  20.7912  20.7912  20.7912  20.7912  20.7912
    20.9118  20.9119  20.9119  20.9119  20.9372  20.9372  20.9373  20.9373
    21.0075  21.0075  21.0076  21.0076  21.2062  21.2062  21.2063  21.2063
    21.2063  21.2064  21.2064  21.2064  21.3134  21.3134  21.3135  21.3135
    21.6946  21.6947  21.6947  21.6948  21.8503  21.8503  21.8503  21.8503
    21.8504  21.8504  21.8504  21.8504  22.5003  22.5004  22.5004  22.5005
    22.7597  22.7598  22.7598  22.7599  22.7951  22.7951  22.7952  22.7952
    22.7953  22.7953  22.7953  22.7953  23.1830  23.1831  23.1831  23.1831
    23.1869  23.1870  23.1870  23.1871  23.6227  23.6227  23.6227  23.6228
    24.6242  24.6243  24.6243  24.6243  24.6243  24.6243  24.6243  24.6243
    24.6527  24.6527  24.6527  24.6528  24.6789  24.6789  24.6789  24.6789
    24.6790  24.6790  24.6790  24.6790  24.7219  24.7219  24.7220  24.7220
    26.2974  26.2975  26.2976  26.2976  27.6157  27.6158  27.6158  27.6158
    27.6158  27.6159  27.6159

          k =-0.5000-0.5000 0.3872 ( 30288 PWs)   bands (ev):

   -49.9510 -49.9509 -49.9509 -49.9507 -49.9322 -49.9321 -49.9321 -49.9319
   -49.8444 -49.8443 -49.8443 -49.8441 -49.8328 -49.8328 -49.8327 -49.8327
   -49.8327 -49.8326 -49.8326 -49.8326 -49.8325 -49.8325 -49.8325 -49.8325
   -49.8325 -49.8325 -49.8324 -49.8323 -49.8256 -49.8255 -49.8254 -49.8253
   -20.2672 -20.2672 -20.2672 -20.2672 -20.2671 -20.2671 -20.2671 -20.2671
   -20.2496 -20.2495 -20.2495 -20.2494 -20.2460 -20.2459 -20.2459 -20.2458
   -20.2430 -20.2430 -20.2429 -20.2429 -20.2429 -20.2429 -20.2428 -20.2428
   -19.9956 -19.9955 -19.9955 -19.9954 -19.8848 -19.8847 -19.8847 -19.8847
   -19.8825 -19.8825 -19.8825 -19.8825 -19.8283 -19.8283 -19.8283 -19.8283
   -19.8283 -19.8283 -19.8283 -19.8283 -19.8264 -19.8264 -19.8263 -19.8263
   -19.8263 -19.8263 -19.8262 -19.8262 -19.7721 -19.7721 -19.7720 -19.7720
   -19.6947 -19.6947 -19.6947 -19.6947 -19.6946 -19.6946 -19.6946 -19.6945
   -19.6901 -19.6901 -19.6901 -19.6901 -19.6710 -19.6710 -19.6710 -19.6709
   -19.6708 -19.6708 -19.6708 -19.6708 -19.6594 -19.6594 -19.6594 -19.6594
   -19.5150 -19.5150 -19.5150 -19.5150 -19.5064 -19.5064 -19.5063 -19.5063
   -19.5060 -19.5059 -19.5059 -19.5058 -19.4840 -19.4840 -19.4840 -19.4840
    16.9311  16.9312  16.9313  16.9314  17.1726  17.1726  17.1727  17.1728
    17.8504  17.8504  17.8504  17.8504  17.8505  17.8505  17.8505  17.8505
    17.8528  17.8528  17.8528  17.8529  17.9286  17.9286  17.9287  17.9287
    17.9924  17.9925  17.9925  17.9925  17.9926  17.9926  17.9926  17.9926
    18.7088  18.7088  18.7088  18.7089  18.7090  18.7090  18.7090  18.7090
    18.7759  18.7760  18.7760  18.7760  19.1126  19.1127  19.1127  19.1128
    19.1128  19.1128  19.1129  19.1129  19.1441  19.1441  19.1442  19.1443
    20.0908  20.0908  20.0908  20.0908  20.3560  20.3560  20.3560  20.3560
    20.7941  20.7941  20.7942  20.7942  20.8129  20.8129  20.8129  20.8129
    20.8665  20.8665  20.8666  20.8666  20.8666  20.8666  20.8667  20.8667
    20.8863  20.8863  20.8863  20.8864  20.9025  20.9026  20.9026  20.9026
    20.9440  20.9441  20.9441  20.9441  21.1209  21.1209  21.1209  21.1209
    21.1210  21.1210  21.1210  21.1211  21.1476  21.1477  21.1477  21.1477
    21.9449  21.9450  21.9450  21.9451  21.9954  21.9954  21.9955  21.9955
    21.9955  21.9955  21.9955  21.9956  22.4549  22.4549  22.4550  22.4550
    22.4550  22.4550  22.4551  22.4551  22.4918  22.4919  22.4919  22.4920
    22.7514  22.7515  22.7515  22.7516  23.0225  23.0225  23.0226  23.0226
    23.0901  23.0902  23.0902  23.0903  23.3264  23.3265  23.3265  23.3266
    24.7384  24.7384  24.7384  24.7384  24.7384  24.7384  24.7384  24.7385
    24.7496  24.7497  24.7497  24.7497  24.7930  24.7930  24.7930  24.7931
    24.8006  24.8006  24.8006  24.8006  24.8006  24.8006  24.8007  24.8007
    27.2025  27.2026  27.2026  27.2027  27.8703  27.8703  27.8703  27.8703
    27.8703  27.8704  27.8704

          k =-0.5000-0.5000-0.4978 ( 30376 PWs)   bands (ev):

   -49.9425 -49.9424 -49.9423 -49.9423 -49.9423 -49.9423 -49.9422 -49.9421
   -49.8342 -49.8342 -49.8341 -49.8341 -49.8341 -49.8340 -49.8339 -49.8339
   -49.8328 -49.8327 -49.8327 -49.8327 -49.8327 -49.8326 -49.8326 -49.8326
   -49.8326 -49.8326 -49.8326 -49.8325 -49.8325 -49.8324 -49.8324 -49.8324
   -20.2553 -20.2553 -20.2553 -20.2553 -20.2553 -20.2552 -20.2552 -20.2552
   -20.2552 -20.2552 -20.2552 -20.2552 -20.2551 -20.2551 -20.2551 -20.2551
   -20.2521 -20.2521 -20.2520 -20.2520 -20.2520 -20.2520 -20.2519 -20.2519
   -19.9386 -19.9386 -19.9386 -19.9386 -19.9386 -19.9386 -19.9385 -19.9385
   -19.8291 -19.8291 -19.8290 -19.8290 -19.8290 -19.8290 -19.8290 -19.8289
   -19.8278 -19.8277 -19.8277 -19.8277 -19.8277 -19.8277 -19.8277 -19.8277
   -19.8277 -19.8277 -19.8277 -19.8276 -19.8276 -19.8276 -19.8276 -19.8276
   -19.6824 -19.6824 -19.6824 -19.6824 -19.6824 -19.6824 -19.6824 -19.6824
   -19.6823 -19.6822 -19.6822 -19.6822 -19.6822 -19.6822 -19.6822 -19.6822
   -19.6761 -19.6761 -19.6761 -19.6761 -19.6761 -19.6761 -19.6761 -19.6761
   -19.5018 -19.5018 -19.5017 -19.5017 -19.5017 -19.5017 -19.5016 -19.5016
   -19.4982 -19.4982 -19.4982 -19.4982 -19.4982 -19.4982 -19.4981 -19.4981
    17.0418  17.0418  17.0419  17.0419  17.0420  17.0421  17.0421  17.0421
    17.9047  17.9047  17.9047  17.9047  17.9047  17.9047  17.9048  17.9048
    17.9049  17.9049  17.9049  17.9049  17.9049  17.9049  17.9049  17.9049
    17.9055  17.9055  17.9055  17.9055  17.9056  17.9056  17.9056  17.9056
    18.9262  18.9262  18.9263  18.9263  18.9263  18.9263  18.9263  18.9263
    18.9264  18.9264  18.9264  18.9264  18.9265  18.9265  18.9265  18.9265
    18.9337  18.9338  18.9338  18.9338  18.9338  18.9339  18.9339  18.9339
    20.2418  20.2418  20.2419  20.2419  20.2419  20.2419  20.2419  20.2419
    20.8562  20.8562  20.8562  20.8562  20.8562  20.8562  20.8562  20.8563
    20.9062  20.9062  20.9062  20.9063  20.9063  20.9063  20.9063  20.9063
    20.9666  20.9666  20.9667  20.9667  20.9667  20.9667  20.9668  20.9668
    20.9970  20.9970  20.9971  20.9971  20.9971  20.9971  20.9971  20.9971
    20.9972  20.9972  20.9972  20.9972  20.9972  20.9972  20.9972  20.9973
    22.1886  22.1886  22.1886  22.1886  22.1887  22.1887  22.1887  22.1887
    22.1887  22.1887  22.1887  22.1887  22.1888  22.1888  22.1888  22.1888
    22.2144  22.2144  22.2145  22.2145  22.2145  22.2145  22.2146  22.2146
    23.0149  23.0149  23.0149  23.0149  23.0149  23.0150  23.0150  23.0150
    23.0318  23.0318  23.0319  23.0319  23.0319  23.0319  23.0320  23.0320
    24.8008  24.8008  24.8009  24.8009  24.8009  24.8009  24.8009  24.8010
    24.8110  24.8110  24.8110  24.8110  24.8110  24.8110  24.8111  24.8111
    24.8111  24.8111  24.8111  24.8111  24.8111  24.8111  24.8111  24.8111
    28.1539  28.1545  28.1549  28.1561  28.1572  28.1588  28.1588  28.1597
    28.1847  28.1847  28.1848

     the Fermi energy is    22.9911 ev

!    total energy              =  -13813.30020974 Ry

     total all-electron energy =   -289989.690549 Ry
     estimated scf accuracy    <       0.00000078 Ry
     smearing contrib. (-TS)   =       0.02013120 Ry
     internal energy E=F+TS    =  -13813.32034094 Ry

     The total energy is F=E-TS. E is the sum of the following terms:
     one-electron contribution =   -1006.60266602 Ry
     hartree contribution      =     919.30823665 Ry
     xc contribution           =    -927.89203255 Ry
     ewald contribution        =   -5208.69900445 Ry
     one-center paw contrib.   =   -7589.43487457 Ry

     convergence has been achieved in  11 iterations

     Forces acting on atoms (cartesian axes, Ry/au):

     atom    1 type  1   force =     0.00000000    0.00000000    0.00000000
     atom    2 type  1   force =    -0.00012611   -0.00012611    0.00000000
     atom    3 type  1   force =    -0.00026306    0.00000000   -0.00012962
     atom    4 type  1   force =     0.00000000   -0.00026306   -0.00012962
     atom    5 type  1   force =     0.00000000    0.00000000    0.00000000
     atom    6 type  1   force =     0.00011314    0.00011314    0.00000000
     atom    7 type  1   force =    -0.00026306    0.00000000    0.00012962
     atom    8 type  1   force =     0.00000000   -0.00026306    0.00012962
     atom    9 type  1   force =     0.00000000    0.00000000    0.00000000
     atom   10 type  1   force =    -0.00012611    0.00012611    0.00000000
     atom   11 type  1   force =     0.00027891    0.00000000    0.00008539
     atom   12 type  1   force =     0.00000000    0.00026306   -0.00012962
     atom   13 type  1   force =     0.00000000    0.00000000    0.00000000
     atom   14 type  1   force =     0.00011314   -0.00011314   -0.00000000
     atom   15 type  1   force =     0.00027891    0.00000000   -0.00008539
     atom   16 type  1   force =     0.00000000    0.00026306    0.00012962
     atom   17 type  1   force =     0.00000000    0.00000000    0.00000000
     atom   18 type  1   force =     0.00012611   -0.00012611    0.00000000
     atom   19 type  1   force =     0.00026306    0.00000000   -0.00012962
     atom   20 type  1   force =     0.00000000    0.00027891    0.00008539
     atom   21 type  1   force =     0.00000000    0.00000000    0.00000000
     atom   22 type  1   force =    -0.00011314    0.00011314   -0.00000000
     atom   23 type  1   force =     0.00026306    0.00000000    0.00012962
     atom   24 type  1   force =     0.00000000    0.00027891   -0.00008539
     atom   25 type  1   force =     0.00000000    0.00000000    0.00000000
     atom   26 type  1   force =     0.00012611    0.00012611    0.00000000
     atom   27 type  1   force =    -0.00027891    0.00000000    0.00008539
     atom   28 type  1   force =     0.00000000   -0.00027891    0.00008539
     atom   29 type  1   force =     0.00000000    0.00000000    0.00000000
     atom   30 type  1   force =    -0.00011314   -0.00011314    0.00000000
     atom   31 type  1   force =    -0.00027891    0.00000000   -0.00008539
     atom   32 type  1   force =     0.00000000   -0.00027891   -0.00008539

     Total force =     0.001264     Total SCF correction =     0.005149
     SCF correction compared to forces is large: reduce conv_thr to get better values


     Computing stress (Cartesian axis) and pressure

          total   stress  (Ry/bohr**3)                   (kbar)     P=      -18.67
  -0.00010209   0.00000000   0.00000000          -15.02        0.00        0.00
   0.00000000  -0.00010209   0.00000000            0.00      -15.02        0.00
   0.00000000   0.00000000  -0.00017653            0.00        0.00      -25.97


     Writing output data file /scratch/KofLQGyMdSyIGwpS.save/
 
     init_run     :     28.19s CPU     29.86s WALL (       1 calls)
     electrons    :    987.49s CPU   1004.61s WALL (       1 calls)
     forces       :     11.09s CPU     11.18s WALL (       1 calls)
     stress       :     66.85s CPU     67.34s WALL (       1 calls)

     Called by init_run:
     wfcinit      :     27.11s CPU     28.70s WALL (       1 calls)
     potinit      :      0.20s CPU      0.22s WALL (       1 calls)
     hinit0       :      0.48s CPU      0.48s WALL (       1 calls)

     Called by electrons:
     c_bands      :    875.24s CPU    888.78s WALL (      12 calls)
     sum_band     :    110.26s CPU    113.60s WALL (      12 calls)
     v_of_rho     :      0.47s CPU      0.49s WALL (      12 calls)
     newd         :      0.27s CPU      0.39s WALL (      12 calls)
     PAW_pot      :      1.02s CPU      1.09s WALL (      12 calls)
     mix_rho      :      0.34s CPU      0.35s WALL (      12 calls)

     Called by c_bands:
     init_us_2    :      3.62s CPU      3.70s WALL (    2025 calls)
     cegterg      :    861.03s CPU    873.94s WALL (     900 calls)

     Called by *egterg:
     cdiaghg      :    116.22s CPU    117.75s WALL (    3358 calls)
     h_psi        :    457.29s CPU    465.64s WALL (    3508 calls)
     s_psi        :     33.02s CPU     33.29s WALL (    3508 calls)
     g_psi        :      0.86s CPU      0.88s WALL (    2533 calls)

     Called by h_psi:
     h_psi:calbec :     62.31s CPU     62.98s WALL (    3508 calls)
     vloc_psi     :    360.78s CPU    367.87s WALL (    3508 calls)
     add_vuspsi   :     32.08s CPU     32.66s WALL (    3508 calls)

     General routines
     calbec       :    100.58s CPU    101.54s WALL (    4783 calls)
     fft          :      0.76s CPU      0.78s WALL (     180 calls)
     ffts         :      0.02s CPU      0.02s WALL (      24 calls)
     fftw         :    425.36s CPU    434.77s WALL ( 1657168 calls)
     interpolate  :      0.03s CPU      0.04s WALL (      12 calls)
 
     Parallel routines
     fft_scatt_xy :     28.46s CPU     28.97s WALL ( 1657372 calls)
     fft_scatt_yz :    348.44s CPU    356.54s WALL ( 1657372 calls)
 
     PWSCF        :  18m31.46s CPU  18m54.23s WALL

 
   This run was terminated on:  21:40:15  23Nov2021            

=------------------------------------------------------------------------------=
   JOB DONE.
=------------------------------------------------------------------------------=
