
     Program PWSCF v.6.7MaX starts on 23Nov2021 at 21: 2: 2 

     This program is part of the open-source Quantum ESPRESSO suite
     for quantum simulation of materials; please cite
         "P. Giannozzi et al., J. Phys.:Condens. Matter 21 395502 (2009);
         "P. Giannozzi et al., J. Phys.:Condens. Matter 29 465901 (2017);
          URL http://www.quantum-espresso.org", 
     in publications or presentations arising from this work. More details at
     http://www.quantum-espresso.org/quote

     Parallel version (MPI & OpenMP), running on      72 processor cores
     Number of MPI processes:                72
     Threads/MPI process:                     1

     MPI processes distributed on     1 nodes
     R & G space division:  proc/nbgrp/npool/nimage =      72
     Reading input from /rds/homes/b/bxp912/jobs/20211014_ru_eos/wd/ec/ec_3_007.in
Warning: card &CELL ignored
Warning: card CELL_DYNAMICS = 'BFGS', ignored
Warning: card CELL_FACTOR = 2.0, ignored
Warning: card PRESS = 0.0, ignored
Warning: card / ignored

     Current dimensions of program PWSCF are:
     Max number of different atomic species (ntypx) = 10
     Max number of k-points (npk) =  40000
     Max angular momentum in pseudopotentials (lmaxx) =  3
     file Ru.pbe-spn-kjpaw_psl.1.0.0.UPF: wavefunction(s)  4D renormalized

     Subspace diagonalization in iterative solution of the eigenvalue problem:
     one sub-group per band group will be used
     ELPA distributed-memory algorithm (size of sub-group:  8*  8 procs)

     Found symmetry operation: I + (  0.2500  0.2500  0.0000)
     This is a supercell, fractional translations are disabled
     Message from routine setup:
     using ibrav=0 with symmetry is DISCOURAGED, use correct ibrav instead
 
     Parallelization info
     --------------------
     sticks:   dense  smooth     PW     G-vecs:    dense   smooth      PW
     Min          98      65     17                 6268     3365     477
     Max          99      66     18                 6273     3369     484
     Sum        7113    4693   1281               451479   242393   34553
 


     bravais-lattice index     =            0
     lattice parameter (alat)  =      14.4007  a.u.
     unit-cell volume          =    2997.6445 (a.u.)^3
     number of atoms/cell      =           32
     number of atomic types    =            1
     number of electrons       =       512.00
     number of Kohn-Sham states=          307
     kinetic-energy cutoff     =      71.0000  Ry
     charge density cutoff     =     430.0000  Ry
     scf convergence threshold =      1.0E-06
     mixing beta               =       0.1000
     number of iterations used =           10  plain     mixing
     Exchange-correlation= SLA  PW   PBX  PBC
                           (   1   4   3   4   0   0   0)

     celldm(1)=  14.400742  celldm(2)=   0.000000  celldm(3)=   0.000000
     celldm(4)=   0.000000  celldm(5)=   0.000000  celldm(6)=   0.000000

     crystal axes: (cart. coord. in units of alat)
               a(1) = (   1.000000   0.000000   0.000000 )  
               a(2) = (   0.000000   1.000000   0.000000 )  
               a(3) = (   0.000000   0.000000   1.003750 )  

     reciprocal axes: (cart. coord. in units 2 pi/alat)
               b(1) = (  1.000000  0.000000  0.000000 )  
               b(2) = (  0.000000  1.000000  0.000000 )  
               b(3) = (  0.000000  0.000000  0.996264 )  


     PseudoPot. # 1 for Ru read from file:
     /rds/homes/b/bxp912/pp/Ru.pbe-spn-kjpaw_psl.1.0.0.UPF
     MD5 check sum: 0ae1f594dea09af7be8575c3a481d1ae
     Pseudo is Projector augmented-wave + core cor, Zval = 16.0
     Generated using "atomic" code by A. Dal Corso  v.5.1
     Shape of augmentation charge: PSQ
     Using radial grid of 1233 points,  6 beta functions with: 
                l(1) =   0
                l(2) =   0
                l(3) =   1
                l(4) =   1
                l(5) =   2
                l(6) =   2
     Q(r) pseudized with 0 coefficients 


     atomic species   valence    mass     pseudopotential
        Ru            16.00   101.07000     Ru( 1.00)

     16 Sym. Ops., with inversion, found



   Cartesian axes

     site n.     atom                  positions (alat units)
         1           Ru  tau(   1) = (   0.0000000   0.0000000   0.0000000  )
         2           Ru  tau(   2) = (   0.2500000   0.2500000   0.0000000  )
         3           Ru  tau(   3) = (   0.2500000   0.0000000   0.2509370  )
         4           Ru  tau(   4) = (   0.0000000   0.2500000   0.2509370  )
         5           Ru  tau(   5) = (   0.0000000   0.0000000   0.5018750  )
         6           Ru  tau(   6) = (   0.2499990   0.2499990   0.5018750  )
         7           Ru  tau(   7) = (   0.2500000   0.0000000   0.7528120  )
         8           Ru  tau(   8) = (   0.0000000   0.2500000   0.7528120  )
         9           Ru  tau(   9) = (   0.0000000   0.5000002   0.0000000  )
        10           Ru  tau(  10) = (   0.2500000   0.7500004   0.0000000  )
        11           Ru  tau(  11) = (   0.2499990   0.5000002   0.2509359  )
        12           Ru  tau(  12) = (   0.0000000   0.7500004   0.2509370  )
        13           Ru  tau(  13) = (   0.0000000   0.5000002   0.5018750  )
        14           Ru  tau(  14) = (   0.2499990   0.7500015   0.5018750  )
        15           Ru  tau(  15) = (   0.2499990   0.5000002   0.7528130  )
        16           Ru  tau(  16) = (   0.0000000   0.7500004   0.7528120  )
        17           Ru  tau(  17) = (   0.5000002   0.0000000   0.0000000  )
        18           Ru  tau(  18) = (   0.7500004   0.2500000   0.0000000  )
        19           Ru  tau(  19) = (   0.7500004   0.0000000   0.2509370  )
        20           Ru  tau(  20) = (   0.5000002   0.2499990   0.2509359  )
        21           Ru  tau(  21) = (   0.5000002   0.0000000   0.5018750  )
        22           Ru  tau(  22) = (   0.7500015   0.2499990   0.5018750  )
        23           Ru  tau(  23) = (   0.7500004   0.0000000   0.7528120  )
        24           Ru  tau(  24) = (   0.5000002   0.2499990   0.7528130  )
        25           Ru  tau(  25) = (   0.5000002   0.5000002   0.0000000  )
        26           Ru  tau(  26) = (   0.7500004   0.7500004   0.0000000  )
        27           Ru  tau(  27) = (   0.7500015   0.5000002   0.2509359  )
        28           Ru  tau(  28) = (   0.5000002   0.7500015   0.2509359  )
        29           Ru  tau(  29) = (   0.5000002   0.5000002   0.5018750  )
        30           Ru  tau(  30) = (   0.7500015   0.7500015   0.5018750  )
        31           Ru  tau(  31) = (   0.7500015   0.5000002   0.7528130  )
        32           Ru  tau(  32) = (   0.5000002   0.7500015   0.7528130  )

     number of k points=    75  Marzari-Vanderbilt smearing, width (Ry)=  0.0400
                       cart. coord. in units 2pi/alat
        k(    1) = (   0.0555556   0.0555556   0.0553480), wk =   0.0219479
        k(    2) = (   0.0555556   0.0555556   0.1660440), wk =   0.0219479
        k(    3) = (   0.0555556   0.0555556   0.2767400), wk =   0.0219479
        k(    4) = (   0.0555556   0.0555556   0.3874360), wk =   0.0219479
        k(    5) = (   0.0555556   0.0555556  -0.4981320), wk =   0.0109739
        k(    6) = (   0.0555556   0.1666667   0.0553480), wk =   0.0438957
        k(    7) = (   0.0555556   0.1666667   0.1660440), wk =   0.0438957
        k(    8) = (   0.0555556   0.1666667   0.2767400), wk =   0.0438957
        k(    9) = (   0.0555556   0.1666667   0.3874360), wk =   0.0438957
        k(   10) = (   0.0555556   0.1666667  -0.4981320), wk =   0.0219479
        k(   11) = (   0.0555556   0.2777778   0.0553480), wk =   0.0438957
        k(   12) = (   0.0555556   0.2777778   0.1660440), wk =   0.0438957
        k(   13) = (   0.0555556   0.2777778   0.2767400), wk =   0.0438957
        k(   14) = (   0.0555556   0.2777778   0.3874360), wk =   0.0438957
        k(   15) = (   0.0555556   0.2777778  -0.4981320), wk =   0.0219479
        k(   16) = (   0.0555556   0.3888889   0.0553480), wk =   0.0438957
        k(   17) = (   0.0555556   0.3888889   0.1660440), wk =   0.0438957
        k(   18) = (   0.0555556   0.3888889   0.2767400), wk =   0.0438957
        k(   19) = (   0.0555556   0.3888889   0.3874360), wk =   0.0438957
        k(   20) = (   0.0555556   0.3888889  -0.4981320), wk =   0.0219479
        k(   21) = (   0.0555556  -0.5000000   0.0553480), wk =   0.0219479
        k(   22) = (   0.0555556  -0.5000000   0.1660440), wk =   0.0219479
        k(   23) = (   0.0555556  -0.5000000   0.2767400), wk =   0.0219479
        k(   24) = (   0.0555556  -0.5000000   0.3874360), wk =   0.0219479
        k(   25) = (   0.0555556  -0.5000000  -0.4981320), wk =   0.0109739
        k(   26) = (   0.1666667   0.1666667   0.0553480), wk =   0.0219479
        k(   27) = (   0.1666667   0.1666667   0.1660440), wk =   0.0219479
        k(   28) = (   0.1666667   0.1666667   0.2767400), wk =   0.0219479
        k(   29) = (   0.1666667   0.1666667   0.3874360), wk =   0.0219479
        k(   30) = (   0.1666667   0.1666667  -0.4981320), wk =   0.0109739
        k(   31) = (   0.1666667   0.2777778   0.0553480), wk =   0.0438957
        k(   32) = (   0.1666667   0.2777778   0.1660440), wk =   0.0438957
        k(   33) = (   0.1666667   0.2777778   0.2767400), wk =   0.0438957
        k(   34) = (   0.1666667   0.2777778   0.3874360), wk =   0.0438957
        k(   35) = (   0.1666667   0.2777778  -0.4981320), wk =   0.0219479
        k(   36) = (   0.1666667   0.3888889   0.0553480), wk =   0.0438957
        k(   37) = (   0.1666667   0.3888889   0.1660440), wk =   0.0438957
        k(   38) = (   0.1666667   0.3888889   0.2767400), wk =   0.0438957
        k(   39) = (   0.1666667   0.3888889   0.3874360), wk =   0.0438957
        k(   40) = (   0.1666667   0.3888889  -0.4981320), wk =   0.0219479
        k(   41) = (   0.1666667  -0.5000000   0.0553480), wk =   0.0219479
        k(   42) = (   0.1666667  -0.5000000   0.1660440), wk =   0.0219479
        k(   43) = (   0.1666667  -0.5000000   0.2767400), wk =   0.0219479
        k(   44) = (   0.1666667  -0.5000000   0.3874360), wk =   0.0219479
        k(   45) = (   0.1666667  -0.5000000  -0.4981320), wk =   0.0109739
        k(   46) = (   0.2777778   0.2777778   0.0553480), wk =   0.0219479
        k(   47) = (   0.2777778   0.2777778   0.1660440), wk =   0.0219479
        k(   48) = (   0.2777778   0.2777778   0.2767400), wk =   0.0219479
        k(   49) = (   0.2777778   0.2777778   0.3874360), wk =   0.0219479
        k(   50) = (   0.2777778   0.2777778  -0.4981320), wk =   0.0109739
        k(   51) = (   0.2777778   0.3888889   0.0553480), wk =   0.0438957
        k(   52) = (   0.2777778   0.3888889   0.1660440), wk =   0.0438957
        k(   53) = (   0.2777778   0.3888889   0.2767400), wk =   0.0438957
        k(   54) = (   0.2777778   0.3888889   0.3874360), wk =   0.0438957
        k(   55) = (   0.2777778   0.3888889  -0.4981320), wk =   0.0219479
        k(   56) = (   0.2777778  -0.5000000   0.0553480), wk =   0.0219479
        k(   57) = (   0.2777778  -0.5000000   0.1660440), wk =   0.0219479
        k(   58) = (   0.2777778  -0.5000000   0.2767400), wk =   0.0219479
        k(   59) = (   0.2777778  -0.5000000   0.3874360), wk =   0.0219479
        k(   60) = (   0.2777778  -0.5000000  -0.4981320), wk =   0.0109739
        k(   61) = (   0.3888889   0.3888889   0.0553480), wk =   0.0219479
        k(   62) = (   0.3888889   0.3888889   0.1660440), wk =   0.0219479
        k(   63) = (   0.3888889   0.3888889   0.2767400), wk =   0.0219479
        k(   64) = (   0.3888889   0.3888889   0.3874360), wk =   0.0219479
        k(   65) = (   0.3888889   0.3888889  -0.4981320), wk =   0.0109739
        k(   66) = (   0.3888889  -0.5000000   0.0553480), wk =   0.0219479
        k(   67) = (   0.3888889  -0.5000000   0.1660440), wk =   0.0219479
        k(   68) = (   0.3888889  -0.5000000   0.2767400), wk =   0.0219479
        k(   69) = (   0.3888889  -0.5000000   0.3874360), wk =   0.0219479
        k(   70) = (   0.3888889  -0.5000000  -0.4981320), wk =   0.0109739
        k(   71) = (  -0.5000000  -0.5000000   0.0553480), wk =   0.0054870
        k(   72) = (  -0.5000000  -0.5000000   0.1660440), wk =   0.0054870
        k(   73) = (  -0.5000000  -0.5000000   0.2767400), wk =   0.0054870
        k(   74) = (  -0.5000000  -0.5000000   0.3874360), wk =   0.0054870
        k(   75) = (  -0.5000000  -0.5000000  -0.4981320), wk =   0.0027435

     Dense  grid:   451479 G-vectors     FFT dimensions: (  96,  96,  96)

     Smooth grid:   242393 G-vectors     FFT dimensions: (  80,  80,  80)

     Estimated max dynamical RAM per process >     186.08 MB

     Estimated total dynamical RAM >      13.08 GB

     Check: negative core charge=   -0.000002

     Initial potential from superposition of free atoms

     starting charge  511.97959, renormalised to  512.00000
     Starting wfcs are  320 randomized atomic wfcs
     Checking if some PAW data can be deallocated... 

     total cpu time spent up to now is       32.4 secs

     Self-consistent Calculation

     iteration #  1     ecut=    71.00 Ry     beta= 0.10
     Davidson diagonalization with overlap
     ethr =  1.00E-02,  avg # of iterations =  3.4

     Threshold (ethr) on eigenvalues was too large:
     Diagonalizing with lowered threshold

     Davidson diagonalization with overlap
     ethr =  8.32E-05,  avg # of iterations =  5.4

     total cpu time spent up to now is      211.3 secs

     total energy              =  -13813.41186826 Ry
     estimated scf accuracy    <       0.63693861 Ry

     iteration #  2     ecut=    71.00 Ry     beta= 0.10
     Davidson diagonalization with overlap
     ethr =  1.24E-04,  avg # of iterations =  1.0

     total cpu time spent up to now is      276.8 secs

     total energy              =  -13813.20388248 Ry
     estimated scf accuracy    <       0.39763034 Ry

     iteration #  3     ecut=    71.00 Ry     beta= 0.10
     Davidson diagonalization with overlap
     ethr =  7.77E-05,  avg # of iterations =  2.3

     total cpu time spent up to now is      372.3 secs

     total energy              =  -13813.29974857 Ry
     estimated scf accuracy    <       0.01241912 Ry

     iteration #  4     ecut=    71.00 Ry     beta= 0.10
     Davidson diagonalization with overlap
     ethr =  2.43E-06,  avg # of iterations =  3.1

     total cpu time spent up to now is      451.1 secs

     total energy              =  -13813.29964224 Ry
     estimated scf accuracy    <       0.00822714 Ry

     iteration #  5     ecut=    71.00 Ry     beta= 0.10
     Davidson diagonalization with overlap
     ethr =  1.61E-06,  avg # of iterations =  1.0

     total cpu time spent up to now is      517.9 secs

     total energy              =  -13813.30119904 Ry
     estimated scf accuracy    <       0.00553043 Ry

     iteration #  6     ecut=    71.00 Ry     beta= 0.10
     Davidson diagonalization with overlap
     ethr =  1.08E-06,  avg # of iterations =  3.5

     total cpu time spent up to now is      622.8 secs

     total energy              =  -13813.29893143 Ry
     estimated scf accuracy    <       0.01700085 Ry

     iteration #  7     ecut=    71.00 Ry     beta= 0.10
     Davidson diagonalization with overlap
     ethr =  1.08E-06,  avg # of iterations =  2.4

     total cpu time spent up to now is      709.8 secs

     total energy              =  -13813.30038824 Ry
     estimated scf accuracy    <       0.00109438 Ry

     iteration #  8     ecut=    71.00 Ry     beta= 0.10
     Davidson diagonalization with overlap
     ethr =  2.14E-07,  avg # of iterations =  2.4

     total cpu time spent up to now is      783.3 secs

     total energy              =  -13813.30046138 Ry
     estimated scf accuracy    <       0.00022471 Ry

     iteration #  9     ecut=    71.00 Ry     beta= 0.10
     Davidson diagonalization with overlap
     ethr =  4.39E-08,  avg # of iterations =  2.0

     total cpu time spent up to now is      853.1 secs

     total energy              =  -13813.30039953 Ry
     estimated scf accuracy    <       0.00015509 Ry

     iteration # 10     ecut=    71.00 Ry     beta= 0.10
     Davidson diagonalization with overlap
     ethr =  3.03E-08,  avg # of iterations =  2.2

     total cpu time spent up to now is      936.8 secs

     total energy              =  -13813.30041705 Ry
     estimated scf accuracy    <       0.00001141 Ry

     iteration # 11     ecut=    71.00 Ry     beta= 0.10
     Davidson diagonalization with overlap
     ethr =  2.23E-09,  avg # of iterations =  4.5

     total cpu time spent up to now is     1037.1 secs

     End of self-consistent calculation

          k = 0.0556 0.0556 0.0553 ( 30350 PWs)   bands (ev):

   -50.0059 -49.9084 -49.9073 -49.9073 -49.8896 -49.8883 -49.8882 -49.8533
   -49.8533 -49.8532 -49.8441 -49.8431 -49.8430 -49.8429 -49.8429 -49.8429
   -49.8428 -49.8424 -49.8424 -49.8423 -49.8342 -49.8342 -49.8341 -49.7911
   -49.7895 -49.7895 -49.7893 -49.7893 -49.7886 -49.7886 -49.7882 -49.7882
   -20.4048 -20.4048 -20.4047 -20.4007 -20.3433 -20.3433 -20.3422 -20.1486
   -20.1431 -20.1431 -20.1375 -20.1375 -20.1320 -20.1320 -20.1317 -20.1316
   -20.1177 -20.1117 -20.1117 -20.0942 -20.0942 -20.0901 -20.0901 -20.0898
   -20.0898 -20.0447 -20.0447 -20.0401 -20.0401 -20.0394 -20.0394 -19.9435
   -19.9435 -19.9426 -19.8714 -19.8714 -19.8700 -19.8635 -19.8635 -19.8626
   -19.8308 -19.8308 -19.8299 -19.8299 -19.8290 -19.8290 -19.7907 -19.7907
   -19.7894 -19.7849 -19.7849 -19.7840 -19.7840 -19.7821 -19.7821 -19.7815
   -19.7815 -19.7736 -19.7733 -19.7733 -19.7690 -19.6155 -19.6155 -19.6116
   -19.6115 -19.6103 -19.6096 -19.5834 -19.5834 -19.5802 -19.5801 -19.5787
   -19.5787 -19.5676 -19.5676 -19.5630 -19.5567 -19.5548 -19.5548 -19.5543
   -19.5542 -19.5542 -19.5542 -19.5509 -19.5501 -19.5501 -19.5500 -19.5500
   -19.5481 -19.5453 -19.5360 -19.5359 -19.5320 -19.4230 -19.4163 -19.4159
    15.2594  16.8269  16.8269  16.8301  17.1026  17.1203  17.1203  17.1203
    17.2934  17.2934  17.2973  17.5005  17.5139  17.5140  17.6741  17.6870
    17.6872  18.2166  18.2167  18.2365  18.2366  18.2373  18.2374  18.5364
    18.5493  18.5494  18.8026  18.8027  18.8034  18.8056  18.8225  18.8225
    18.9100  18.9117  18.9117  18.9127  18.9128  18.9128  18.9128  18.9137
    18.9138  19.3952  19.3952  19.4053  19.4053  19.4137  19.4137  19.5357
    19.5549  19.5550  19.5669  19.5669  19.5866  19.5866  19.5881  19.5881
    19.6327  19.6506  19.6506  19.8961  19.8961  19.9024  19.9025  19.9045
    19.9045  19.9046  19.9046  19.9082  19.9082  19.9100  19.9127  19.9127
    19.9175  19.9176  20.0758  20.0758  20.0795  20.3381  20.3621  20.3621
    20.3737  20.4103  20.4103  20.4197  20.4346  20.4753  20.5204  20.5360
    21.4676  21.5022  21.5022  21.6339  21.6716  21.6716  21.7054  21.7054
    21.7175  21.8048  21.8048  21.8062  21.8062  21.8160  21.8160  21.8197
    21.8198  21.8291  22.1105  22.1105  22.1309  22.2326  22.2327  22.2450
    22.4778  22.4778  22.4968  22.5559  22.5559  22.5645  22.5645  22.5655
    22.5655  22.5744  22.5744  22.5915  22.6155  22.6155  22.6274  22.8032
    22.8032  22.8038  22.8038  22.8190  22.8190  22.8398  22.8933  22.9758
    22.9758  22.9913  23.6293  23.6293  23.6538  23.6837  23.6837  23.6887
    23.7896  23.7896  23.8108  23.8859  24.6101  24.6101  24.6129  24.6417
    24.6649  24.6762  24.6937  24.6937  24.9626  24.9724  24.9724  24.9923
    24.9923  25.0042  25.1444  25.1444  25.1458  25.1458  25.1583  25.1629
    25.1629  25.1755  25.1755  26.5880  26.5880  26.6143  26.7199  26.7912
    26.7912  27.1178  27.1178

          k = 0.0556 0.0556 0.1660 ( 30302 PWs)   bands (ev):

   -50.0027 -49.9269 -49.9055 -49.9055 -49.8867 -49.8867 -49.8711 -49.8635
   -49.8635 -49.8529 -49.8513 -49.8513 -49.8457 -49.8429 -49.8428 -49.8424
   -49.8424 -49.8408 -49.8345 -49.8329 -49.8329 -49.8257 -49.8256 -49.7944
   -49.7913 -49.7913 -49.7908 -49.7908 -49.7886 -49.7886 -49.7882 -49.7882
   -20.3975 -20.3937 -20.3937 -20.3857 -20.3352 -20.3352 -20.3293 -20.1785
   -20.1654 -20.1654 -20.1475 -20.1475 -20.1448 -20.1447 -20.1447 -20.1416
   -20.1416 -20.1145 -20.1145 -20.1003 -20.1003 -20.0868 -20.0868 -20.0854
   -20.0854 -20.0481 -20.0481 -20.0305 -20.0305 -20.0201 -19.9967 -19.9967
   -19.9557 -19.9557 -19.9112 -19.9112 -19.8795 -19.8795 -19.8685 -19.8685
   -19.8382 -19.8008 -19.8008 -19.7928 -19.7928 -19.7905 -19.7905 -19.7828
   -19.7808 -19.7808 -19.7722 -19.7722 -19.7696 -19.7696 -19.7689 -19.7689
   -19.7682 -19.7638 -19.7636 -19.7518 -19.7518 -19.6413 -19.6399 -19.6228
   -19.6228 -19.6038 -19.6038 -19.5903 -19.5903 -19.5871 -19.5871 -19.5786
   -19.5785 -19.5738 -19.5711 -19.5710 -19.5667 -19.5667 -19.5625 -19.5566
   -19.5507 -19.5501 -19.5500 -19.5495 -19.5495 -19.5483 -19.5475 -19.5473
   -19.5473 -19.5426 -19.5324 -19.5242 -19.5242 -19.4402 -19.4214 -19.4197
    15.3450  16.8801  16.8898  16.8898  17.1420  17.1771  17.1771  17.1945
    17.1982  17.3349  17.3551  17.3551  17.5752  17.5754  17.6997  17.7516
    17.7518  18.0977  18.0977  18.2827  18.2839  18.2840  18.2943  18.2944
    18.4908  18.5885  18.5885  18.5960  18.5960  18.6465  18.6637  18.6638
    18.8495  18.8496  18.8552  18.8552  18.8787  18.8787  18.9531  18.9531
    19.0095  19.0096  19.0834  19.3750  19.3751  19.4171  19.4172  19.4657
    19.4657  19.4804  19.4804  19.5361  19.5361  19.6219  19.6220  19.6461
    19.7294  19.7295  19.7394  19.7394  19.8298  19.8502  19.8502  19.8956
    19.8957  19.9112  19.9112  19.9241  19.9242  20.1574  20.1574  20.1835
    20.1835  20.2061  20.2549  20.2665  20.3081  20.3081  20.3715  20.4041
    20.4528  20.4550  20.4550  20.4757  20.4757  20.4971  20.5744  20.5826
    21.2737  21.2737  21.4019  21.4019  21.4630  21.5200  21.6281  21.6281
    21.6572  21.7370  21.7370  21.7932  21.9153  21.9154  21.9267  21.9484
    21.9485  21.9938  21.9938  21.9990  22.0819  22.0819  22.4116  22.4116
    22.4330  22.4330  22.4417  22.4417  22.5659  22.5659  22.5791  22.5791
    22.6916  22.6916  22.7142  22.7142  22.7687  22.8236  22.8237  22.8252
    22.8837  22.9174  23.0380  23.0380  23.0520  23.0901  23.0901  23.1865
    23.2077  23.2077  23.2262  23.2744  23.2745  23.4614  23.5033  23.6932
    23.6932  23.8837  23.8837  23.9702  24.4075  24.4075  24.5222  24.5222
    24.5271  24.5734  24.6287  24.6293  24.6293  24.8271  24.9167  25.0182
    25.0182  25.0209  25.0209  25.0494  25.1710  25.1710  25.1753  25.1753
    25.3441  25.3441  25.5709  26.0732  26.0732  26.4210  26.5554  26.5952
    26.5953  27.0932  27.0932

          k = 0.0556 0.0556 0.2767 ( 30285 PWs)   bands (ev):

   -49.9963 -49.9445 -49.9019 -49.9019 -49.8837 -49.8837 -49.8732 -49.8732
   -49.8595 -49.8595 -49.8533 -49.8523 -49.8473 -49.8428 -49.8428 -49.8425
   -49.8424 -49.8393 -49.8350 -49.8233 -49.8232 -49.8176 -49.8175 -49.8009
   -49.7948 -49.7948 -49.7937 -49.7937 -49.7886 -49.7885 -49.7883 -49.7883
   -20.3793 -20.3720 -20.3720 -20.3603 -20.3190 -20.3190 -20.3039 -20.2227
   -20.2085 -20.2085 -20.1879 -20.1868 -20.1868 -20.1507 -20.1506 -20.1451
   -20.1451 -20.1153 -20.1152 -20.0930 -20.0918 -20.0918 -20.0900 -20.0900
   -20.0539 -20.0539 -20.0507 -20.0507 -20.0153 -20.0153 -19.9776 -19.9776
   -19.9504 -19.9504 -19.9489 -19.9489 -19.9074 -19.9074 -19.9052 -19.9052
   -19.8110 -19.8110 -19.7897 -19.7795 -19.7795 -19.7726 -19.7725 -19.7576
   -19.7570 -19.7570 -19.7534 -19.7520 -19.7520 -19.7442 -19.7442 -19.7417
   -19.7417 -19.7232 -19.7147 -19.7146 -19.7055 -19.6708 -19.6688 -19.6370
   -19.6370 -19.6121 -19.6121 -19.6080 -19.6080 -19.6040 -19.6040 -19.6019
   -19.5907 -19.5907 -19.5893 -19.5892 -19.5735 -19.5614 -19.5567 -19.5567
   -19.5533 -19.5499 -19.5499 -19.5495 -19.5494 -19.5467 -19.5467 -19.5402
   -19.5332 -19.5193 -19.5193 -19.5189 -19.5176 -19.4707 -19.4321 -19.4297
    15.5134  16.8242  16.9770  17.0126  17.0127  17.2383  17.2899  17.2899
    17.3238  17.4095  17.4780  17.4780  17.6091  17.6939  17.6941  17.8770
    17.8771  17.8942  17.8942  18.0500  18.1559  18.2557  18.2557  18.3230
    18.3742  18.3742  18.4063  18.4064  18.4877  18.4878  18.5506  18.5506
    18.6657  18.6657  18.7044  18.7045  18.8268  18.8268  18.9189  18.9189
    19.0818  19.0818  19.2905  19.2905  19.3446  19.3446  19.3502  19.3502
    19.3617  19.3727  19.3728  19.4186  19.4186  19.5057  19.5058  19.6692
    19.6693  19.7101  19.7740  19.7741  19.8378  19.8378  19.9153  19.9153
    19.9340  19.9340  19.9980  19.9980  20.0029  20.1659  20.2331  20.2331
    20.2643  20.2643  20.2778  20.3348  20.5332  20.5773  20.5773  20.5805
    20.5944  20.5944  20.6057  20.6701  20.6756  20.7005  20.9990  20.9990
    21.0451  21.0451  21.0599  21.0599  21.2729  21.3839  21.3839  21.4180
    21.4219  21.4892  21.8136  21.8631  21.8631  22.0679  22.0679  22.0918
    22.0918  22.1304  22.1304  22.2057  22.2058  22.3250  22.3250  22.4217
    22.4217  22.5214  22.5561  22.5561  22.5613  22.5613  22.5921  22.5921
    22.6318  22.6417  22.6418  22.7197  22.7481  22.7481  22.8631  22.9268
    22.9268  22.9649  22.9926  22.9927  23.1417  23.2814  23.3435  23.3435
    23.3629  23.4193  23.4193  23.4693  23.4913  23.4913  23.5172  23.7303
    23.7303  23.8728  23.8728  24.1286  24.1385  24.1385  24.3146  24.3146
    24.3401  24.4748  24.4748  24.4867  24.5029  24.5651  24.7880  24.7880
    24.7905  24.7905  24.8541  25.1723  25.1723  25.1748  25.1748  25.3112
    25.5682  25.5682  25.7799  25.7799  25.8996  26.0702  26.0702  26.1275
    26.4354  26.9757  26.9757

          k = 0.0556 0.0556 0.3874 ( 30265 PWs)   bands (ev):

   -49.9870 -49.9607 -49.8967 -49.8967 -49.8821 -49.8821 -49.8794 -49.8793
   -49.8671 -49.8670 -49.8513 -49.8488 -49.8427 -49.8427 -49.8425 -49.8425
   -49.8379 -49.8370 -49.8358 -49.8144 -49.8143 -49.8104 -49.8101 -49.8101
   -49.7999 -49.7999 -49.7980 -49.7980 -49.7885 -49.7885 -49.7884 -49.7883
   -20.3510 -20.3407 -20.3406 -20.3256 -20.2954 -20.2954 -20.2700 -20.2665
   -20.2559 -20.2559 -20.2362 -20.2283 -20.2283 -20.1597 -20.1496 -20.1496
   -20.1364 -20.1364 -20.1303 -20.1302 -20.1050 -20.1050 -20.0648 -20.0648
   -20.0368 -20.0368 -20.0183 -20.0183 -20.0052 -20.0052 -19.9947 -19.9947
   -19.9833 -19.9833 -19.9424 -19.9424 -19.9391 -19.9391 -19.9074 -19.9074
   -19.8367 -19.8367 -19.7777 -19.7777 -19.7739 -19.7739 -19.7420 -19.7382
   -19.7367 -19.7163 -19.7163 -19.7119 -19.7119 -19.7089 -19.7089 -19.7087
   -19.7087 -19.6980 -19.6953 -19.6803 -19.6802 -19.6788 -19.6579 -19.6579
   -19.6418 -19.6418 -19.6412 -19.6412 -19.6397 -19.6334 -19.6241 -19.6241
   -19.6217 -19.6216 -19.6007 -19.5758 -19.5758 -19.5600 -19.5558 -19.5520
   -19.5520 -19.5498 -19.5498 -19.5495 -19.5495 -19.5415 -19.5415 -19.5380
   -19.5344 -19.5211 -19.5211 -19.5139 -19.4919 -19.4900 -19.4478 -19.4453
    15.7589  16.4352  17.1140  17.1888  17.1889  17.3904  17.4544  17.4573
    17.4573  17.5059  17.5203  17.6514  17.6514  17.6610  17.6610  17.8431
    17.8536  17.8615  17.8616  17.9450  17.9450  18.0128  18.0548  18.0549
    18.1997  18.1997  18.2808  18.2809  18.4964  18.4965  18.4982  18.4983
    18.5685  18.5686  18.7466  18.7466  18.7790  18.7791  18.9914  18.9915
    19.0099  19.0100  19.1000  19.1001  19.2477  19.2477  19.2842  19.2842
    19.3211  19.3211  19.3894  19.3895  19.4031  19.4031  19.6311  19.6515
    19.6516  19.6974  19.6975  19.8064  19.9328  19.9328  19.9354  19.9354
    19.9422  19.9423  20.0470  20.1003  20.1022  20.1393  20.1393  20.1763
    20.1763  20.2713  20.3724  20.3724  20.6595  20.7198  20.7198  20.7249
    20.7249  20.7443  20.7443  20.7579  20.8103  20.8141  21.0334  21.0334
    21.0360  21.0934  21.1735  21.1850  21.2047  21.2047  21.2104  21.2228
    21.6742  21.6742  21.9791  21.9850  21.9850  22.0549  22.0549  22.1979
    22.1979  22.2035  22.2526  22.2579  22.2579  22.3052  22.3052  22.3383
    22.3383  22.3890  22.3891  22.3976  22.3976  22.4402  22.5191  22.5192
    22.5510  22.5510  22.5787  22.5787  22.6649  22.6649  22.8830  22.8830
    23.0269  23.0269  23.0349  23.1192  23.2362  23.3376  23.3376  23.4753
    23.6667  23.6667  23.6749  23.7714  23.7746  23.7746  23.8125  23.8125
    24.0333  24.0350  24.0350  24.0924  24.1868  24.1923  24.1923  24.2517
    24.2517  24.2842  24.3082  24.3218  24.4853  24.4853  24.4878  24.4878
    24.5444  24.5444  24.6287  25.0760  25.0761  25.1729  25.1729  25.1742
    25.1742  25.2640  25.5446  25.5447  25.6825  26.1859  26.1859  26.2508
    26.6188  26.7892  26.7892

          k = 0.0556 0.0556-0.4981 ( 30268 PWs)   bands (ev):

   -49.9750 -49.9750 -49.8901 -49.8901 -49.8901 -49.8900 -49.8737 -49.8737
   -49.8737 -49.8737 -49.8502 -49.8502 -49.8427 -49.8426 -49.8426 -49.8426
   -49.8368 -49.8367 -49.8225 -49.8225 -49.8065 -49.8065 -49.8065 -49.8064
   -49.8035 -49.8035 -49.8035 -49.8035 -49.7885 -49.7884 -49.7884 -49.7884
   -20.3139 -20.3139 -20.3011 -20.3011 -20.3011 -20.3011 -20.2834 -20.2834
   -20.2649 -20.2649 -20.2649 -20.2649 -20.2180 -20.2180 -20.1424 -20.1424
   -20.1424 -20.1424 -20.1223 -20.1223 -20.1223 -20.1223 -20.0353 -20.0352
   -20.0352 -20.0352 -20.0132 -20.0131 -20.0131 -20.0131 -19.9804 -19.9803
   -19.9803 -19.9803 -19.9691 -19.9691 -19.9691 -19.9691 -19.8691 -19.8691
   -19.8691 -19.8691 -19.7758 -19.7758 -19.7758 -19.7758 -19.7220 -19.7219
   -19.7187 -19.7186 -19.6854 -19.6854 -19.6846 -19.6846 -19.6845 -19.6845
   -19.6766 -19.6766 -19.6766 -19.6766 -19.6747 -19.6747 -19.6747 -19.6747
   -19.6623 -19.6623 -19.6623 -19.6623 -19.6498 -19.6498 -19.6497 -19.6497
   -19.6366 -19.6366 -19.5687 -19.5687 -19.5622 -19.5622 -19.5622 -19.5621
   -19.5581 -19.5581 -19.5497 -19.5496 -19.5496 -19.5496 -19.5361 -19.5360
   -19.5289 -19.5289 -19.5289 -19.5289 -19.4680 -19.4680 -19.4657 -19.4656
    16.0715  16.0715  17.2795  17.2795  17.4075  17.4075  17.4075  17.4076
    17.5966  17.5966  17.6655  17.6655  17.6769  17.6769  17.6769  17.6769
    17.7373  17.7373  17.9023  17.9023  17.9023  17.9023  18.0639  18.0639
    18.0640  18.0640  18.2699  18.2700  18.2700  18.2701  18.6303  18.6303
    18.6303  18.6303  18.7720  18.7721  18.7721  18.7721  18.9255  18.9255
    18.9255  18.9255  19.1224  19.1224  19.1224  19.1225  19.3278  19.3279
    19.3279  19.3279  19.3518  19.3518  19.3518  19.3518  19.6551  19.6551
    19.6552  19.6552  19.8810  19.8810  19.9228  19.9228  19.9441  19.9441
    19.9441  19.9441  20.0357  20.0357  20.0357  20.0357  20.1909  20.1909
    20.4247  20.4247  20.4247  20.4247  20.5320  20.5321  20.5321  20.5321
    20.8287  20.8287  20.8994  20.8994  20.8995  20.8995  20.9494  20.9494
    20.9929  20.9929  20.9971  20.9971  21.6530  21.6531  21.6531  21.6531
    21.6581  21.6581  21.6893  21.6893  22.0367  22.0367  22.0367  22.0367
    22.2125  22.2125  22.3371  22.3371  22.3372  22.3372  22.3545  22.3545
    22.3545  22.3545  22.4381  22.4381  22.4382  22.4382  22.4463  22.4463
    22.4464  22.4464  22.5153  22.5153  22.5153  22.5153  22.7660  22.7661
    22.7661  22.7661  23.1260  23.1260  23.6976  23.6977  23.6987  23.6988
    23.6988  23.6988  23.7986  23.7986  23.9764  23.9764  23.9764  23.9764
    24.0383  24.0384  24.0585  24.0585  24.1374  24.1374  24.1374  24.1374
    24.1526  24.1526  24.1526  24.1526  24.4423  24.4423  24.6087  24.6087
    24.6088  24.6088  24.6186  24.6186  25.0286  25.0286  25.0287  25.0287
    25.1735  25.1735  25.1735  25.1736  25.9992  25.9992  26.5263  26.5263
    26.5263  26.5263  27.0164

          k = 0.0556 0.1667 0.0553 ( 30326 PWs)   bands (ev):

   -50.0027 -49.9260 -49.9066 -49.9055 -49.8881 -49.8867 -49.8695 -49.8637
   -49.8634 -49.8530 -49.8518 -49.8514 -49.8457 -49.8430 -49.8428 -49.8424
   -49.8424 -49.8407 -49.8344 -49.8327 -49.8325 -49.8258 -49.8255 -49.7920
   -49.7911 -49.7911 -49.7909 -49.7900 -49.7898 -49.7897 -49.7891 -49.7886
   -20.3974 -20.3936 -20.3934 -20.3855 -20.3350 -20.3339 -20.3305 -20.1741
   -20.1609 -20.1605 -20.1526 -20.1503 -20.1479 -20.1455 -20.1398 -20.1381
   -20.1380 -20.1200 -20.1140 -20.1039 -20.1006 -20.0913 -20.0910 -20.0871
   -20.0851 -20.0522 -20.0481 -20.0357 -20.0311 -20.0211 -19.9916 -19.9906
   -19.9564 -19.9548 -19.9121 -19.9103 -19.8803 -19.8785 -19.8702 -19.8680
   -19.8385 -19.8015 -19.8008 -19.7891 -19.7888 -19.7884 -19.7849 -19.7841
   -19.7836 -19.7823 -19.7766 -19.7759 -19.7699 -19.7684 -19.7680 -19.7674
   -19.7674 -19.7660 -19.7639 -19.7509 -19.7502 -19.6472 -19.6423 -19.6190
   -19.6174 -19.6070 -19.6023 -19.5872 -19.5870 -19.5858 -19.5824 -19.5785
   -19.5745 -19.5735 -19.5702 -19.5697 -19.5671 -19.5654 -19.5623 -19.5547
   -19.5543 -19.5542 -19.5541 -19.5535 -19.5517 -19.5509 -19.5490 -19.5473
   -19.5459 -19.5438 -19.5364 -19.5242 -19.5206 -19.4401 -19.4218 -19.4196
    15.3456  16.8776  16.8905  16.8939  17.1422  17.1773  17.1773  17.1947
    17.2108  17.3314  17.3547  17.3592  17.5629  17.5759  17.7110  17.7398
    17.7524  18.1150  18.1173  18.2658  18.2748  18.2854  18.2920  18.2941
    18.4925  18.5760  18.5876  18.5980  18.5988  18.6490  18.6649  18.6669
    18.8390  18.8525  18.8528  18.8543  18.8774  18.8798  18.9449  18.9606
    19.0082  19.0092  19.1044  19.3825  19.3916  19.3991  19.4095  19.4494
    19.4635  19.4640  19.4787  19.5257  19.5384  19.6189  19.6198  19.6572
    19.7243  19.7297  19.7517  19.7565  19.8503  19.8597  19.8689  19.8877
    19.8930  19.9029  19.9032  19.9094  19.9155  20.1522  20.1556  20.1768
    20.1789  20.1996  20.2541  20.2963  20.3043  20.3405  20.3906  20.4328
    20.4398  20.4412  20.4419  20.4656  20.4657  20.4789  20.5399  20.5802
    21.2431  21.2657  21.3701  21.3964  21.4882  21.5027  21.6126  21.6131
    21.6431  21.7406  21.7522  21.7720  21.9168  21.9218  21.9271  21.9524
    21.9588  21.9991  22.0059  22.0385  22.0925  22.1068  22.4139  22.4294
    22.4338  22.4398  22.4475  22.4632  22.5586  22.5665  22.5732  22.5821
    22.6940  22.7065  22.7227  22.7253  22.8023  22.8139  22.8254  22.8305
    22.8664  22.8843  23.0273  23.0285  23.0436  23.0905  23.1026  23.1764
    23.2086  23.2205  23.2218  23.2698  23.2765  23.4603  23.4756  23.6921
    23.7134  23.8839  23.9004  23.9526  24.4002  24.4280  24.5229  24.5253
    24.5427  24.5696  24.6301  24.6454  24.6469  24.8374  24.9000  25.0198
    25.0200  25.0464  25.0478  25.0521  25.1389  25.1427  25.1470  25.1518
    25.3301  25.3384  25.5595  26.0732  26.0939  26.4884  26.5299  26.5949
    26.6218  27.0625  27.0629

          k = 0.0556 0.1667 0.1660 ( 30309 PWs)   bands (ev):

   -49.9995 -49.9248 -49.9239 -49.9037 -49.8853 -49.8754 -49.8698 -49.8682
   -49.8629 -49.8628 -49.8511 -49.8510 -49.8490 -49.8440 -49.8401 -49.8395
   -49.8392 -49.8391 -49.8332 -49.8330 -49.8263 -49.8262 -49.8186 -49.7943
   -49.7927 -49.7925 -49.7919 -49.7918 -49.7903 -49.7903 -49.7895 -49.7887
   -20.3903 -20.3902 -20.3790 -20.3668 -20.3269 -20.3230 -20.3217 -20.1843
   -20.1804 -20.1785 -20.1739 -20.1464 -20.1458 -20.1443 -20.1431 -20.1413
   -20.1371 -20.1361 -20.1352 -20.1318 -20.1174 -20.1125 -20.1103 -20.1101
   -20.0504 -20.0296 -20.0285 -20.0244 -20.0244 -20.0109 -20.0066 -19.9890
   -19.9830 -19.9696 -19.9528 -19.8970 -19.8749 -19.8747 -19.8379 -19.8376
   -19.8287 -19.8261 -19.8069 -19.8030 -19.8022 -19.7871 -19.7785 -19.7697
   -19.7684 -19.7675 -19.7671 -19.7667 -19.7650 -19.7641 -19.7639 -19.7630
   -19.7564 -19.7555 -19.7278 -19.7271 -19.7136 -19.6548 -19.6486 -19.6359
   -19.6341 -19.6145 -19.6095 -19.6015 -19.5871 -19.5860 -19.5858 -19.5814
   -19.5801 -19.5779 -19.5771 -19.5759 -19.5758 -19.5739 -19.5625 -19.5586
   -19.5583 -19.5572 -19.5568 -19.5547 -19.5504 -19.5478 -19.5443 -19.5436
   -19.5389 -19.5378 -19.5251 -19.5215 -19.5074 -19.4617 -19.4265 -19.4190
    15.4298  16.9408  16.9441  16.9475  17.1622  17.2146  17.2596  17.2663
    17.2664  17.2711  17.3925  17.3961  17.4202  17.6222  17.7678  17.7779
    17.7983  18.1315  18.1464  18.1577  18.1763  18.3277  18.3367  18.3410
    18.3419  18.3794  18.3796  18.4544  18.5208  18.5215  18.6422  18.6827
    18.6846  18.7023  18.7056  18.7308  18.9002  18.9685  18.9694  18.9740
    18.9764  18.9988  19.0034  19.1101  19.1301  19.3405  19.3539  19.4499
    19.4511  19.4750  19.5222  19.5272  19.5556  19.5579  19.6049  19.6130
    19.6258  19.8057  19.8105  19.8257  19.8280  19.9043  19.9203  19.9800
    19.9848  20.0317  20.0961  20.1027  20.1926  20.2059  20.2270  20.2290
    20.2630  20.2691  20.3111  20.3590  20.3705  20.3823  20.3853  20.4095
    20.4472  20.4572  20.4648  20.5046  20.5496  20.5639  20.5790  20.6235
    21.1346  21.2350  21.2490  21.2747  21.5054  21.5266  21.6698  21.6729
    21.6837  21.7010  21.7018  21.7493  21.7774  21.7789  21.7929  21.8051
    21.8196  21.9576  22.0278  22.1324  22.1333  22.1502  22.1531  22.1996
    22.2753  22.5655  22.5667  22.6784  22.6877  22.6989  22.7020  22.7111
    22.7429  22.7483  22.7573  22.8223  22.8400  22.8876  22.9024  22.9058
    22.9639  22.9721  22.9822  23.0220  23.0229  23.1236  23.2128  23.2723
    23.2757  23.3010  23.3105  23.3809  23.3926  23.4025  23.5154  23.5391
    23.7231  23.9193  24.0905  24.1009  24.1036  24.2240  24.2286  24.4050
    24.5144  24.5178  24.5853  24.6524  24.6595  24.6739  24.6879  24.9164
    24.9179  25.0159  25.0237  25.0452  25.0475  25.0493  25.0638  25.0932
    25.2882  25.5759  25.9224  25.9241  26.0155  26.0357  26.5408  26.5665
    27.0201  27.0713  27.1518

          k = 0.0556 0.1667 0.2767 ( 30287 PWs)   bands (ev):

   -49.9932 -49.9421 -49.9198 -49.9002 -49.8866 -49.8824 -49.8723 -49.8658
   -49.8616 -49.8589 -49.8523 -49.8521 -49.8505 -49.8460 -49.8456 -49.8377
   -49.8362 -49.8335 -49.8289 -49.8274 -49.8238 -49.8184 -49.8120 -49.8007
   -49.7961 -49.7959 -49.7953 -49.7927 -49.7917 -49.7907 -49.7892 -49.7887
   -20.3759 -20.3727 -20.3543 -20.3381 -20.3109 -20.3082 -20.2976 -20.2294
   -20.2210 -20.1875 -20.1871 -20.1799 -20.1797 -20.1796 -20.1596 -20.1511
   -20.1506 -20.1350 -20.1336 -20.1263 -20.1235 -20.1202 -20.1163 -20.0979
   -20.0796 -20.0450 -20.0288 -20.0114 -20.0106 -19.9976 -19.9932 -19.9908
   -19.9688 -19.9680 -19.9433 -19.9264 -19.9093 -19.8733 -19.8617 -19.8363
   -19.8297 -19.8227 -19.8051 -19.7917 -19.7887 -19.7686 -19.7674 -19.7665
   -19.7620 -19.7619 -19.7524 -19.7466 -19.7394 -19.7335 -19.7325 -19.7302
   -19.7281 -19.7252 -19.6935 -19.6908 -19.6785 -19.6778 -19.6696 -19.6643
   -19.6267 -19.6248 -19.6215 -19.6197 -19.6118 -19.6103 -19.6087 -19.6065
   -19.5959 -19.5923 -19.5796 -19.5793 -19.5787 -19.5727 -19.5715 -19.5629
   -19.5626 -19.5620 -19.5615 -19.5536 -19.5479 -19.5452 -19.5386 -19.5251
   -19.5240 -19.5234 -19.5209 -19.5074 -19.4977 -19.4956 -19.4373 -19.4246
    15.5955  16.8879  17.0416  17.0595  17.0642  17.2376  17.3064  17.3883
    17.3911  17.4074  17.4696  17.5142  17.5495  17.6774  17.7100  17.8853
    17.9086  17.9144  17.9524  18.0668  18.0996  18.1899  18.2048  18.2262
    18.2541  18.2927  18.3688  18.3969  18.4149  18.4256  18.4294  18.4529
    18.5737  18.5959  18.6054  18.7100  18.7513  18.8178  18.8195  18.9915
    19.0070  19.0202  19.0633  19.1787  19.2006  19.2582  19.2806  19.3047
    19.3136  19.3704  19.3813  19.4445  19.5180  19.5262  19.5514  19.6252
    19.6504  19.6914  19.8099  19.9130  19.9490  19.9936  20.0246  20.0524
    20.0588  20.0941  20.1174  20.1607  20.2134  20.2409  20.2563  20.2681
    20.2820  20.3650  20.3888  20.4379  20.4428  20.5098  20.5347  20.5484
    20.6077  20.6693  20.6739  20.6839  20.6909  20.7088  20.9307  20.9346
    20.9766  21.0216  21.0506  21.2594  21.2736  21.2788  21.4400  21.4794
    21.5551  21.5698  21.5814  21.7114  21.7409  21.7997  21.8683  21.9691
    21.9843  22.0247  22.0754  22.1052  22.1640  22.1820  22.2766  22.3597
    22.3866  22.4729  22.4806  22.5134  22.5276  22.5495  22.6341  22.6608
    22.6761  22.6833  22.7763  22.7965  22.8640  22.9326  22.9659  22.9835
    22.9998  23.0267  23.0386  23.2273  23.3103  23.3142  23.3300  23.3788
    23.3837  23.5436  23.5571  23.6023  23.6038  23.6074  23.6380  23.6531
    23.6672  23.7436  23.8541  23.9398  24.1051  24.2192  24.3195  24.3464
    24.3514  24.4297  24.4525  24.5657  24.5790  24.5861  24.7293  24.7313
    24.7882  24.7948  24.8631  24.9281  25.0445  25.0508  25.0608  25.0658
    25.0991  25.4884  25.5124  25.9189  26.0178  26.3522  26.4543  26.5111
    26.5338  26.6150  27.5575

          k = 0.0556 0.1667 0.3874 ( 30250 PWs)   bands (ev):

   -49.9840 -49.9581 -49.9138 -49.8970 -49.8952 -49.8810 -49.8781 -49.8662
   -49.8622 -49.8599 -49.8550 -49.8522 -49.8496 -49.8471 -49.8364 -49.8362
   -49.8342 -49.8334 -49.8289 -49.8186 -49.8151 -49.8112 -49.8100 -49.8059
   -49.8018 -49.8011 -49.7995 -49.7961 -49.7915 -49.7910 -49.7891 -49.7888
   -20.3512 -20.3451 -20.3205 -20.3007 -20.2873 -20.2866 -20.2755 -20.2664
   -20.2623 -20.2338 -20.2253 -20.2208 -20.2082 -20.1778 -20.1730 -20.1610
   -20.1593 -20.1574 -20.1538 -20.1443 -20.1211 -20.1077 -20.1059 -20.0871
   -20.0645 -20.0481 -20.0424 -20.0240 -20.0230 -19.9928 -19.9695 -19.9672
   -19.9631 -19.9488 -19.9410 -19.9276 -19.9074 -19.9007 -19.8945 -19.8775
   -19.8577 -19.8305 -19.7684 -19.7670 -19.7661 -19.7602 -19.7595 -19.7518
   -19.7513 -19.7408 -19.7366 -19.7159 -19.7076 -19.7061 -19.7046 -19.7026
   -19.6979 -19.6920 -19.6912 -19.6823 -19.6619 -19.6616 -19.6582 -19.6510
   -19.6477 -19.6466 -19.6453 -19.6447 -19.6444 -19.6390 -19.6384 -19.6112
   -19.6106 -19.6064 -19.5907 -19.5864 -19.5832 -19.5799 -19.5763 -19.5709
   -19.5680 -19.5659 -19.5540 -19.5508 -19.5466 -19.5458 -19.5403 -19.5337
   -19.5260 -19.5234 -19.5097 -19.4977 -19.4951 -19.4798 -19.4532 -19.4373
    15.8370  16.5033  17.1794  17.2225  17.2413  17.3679  17.4519  17.5219
    17.5552  17.5671  17.5786  17.5972  17.6674  17.6954  17.7072  17.7390
    17.7865  17.8303  17.8962  17.8968  17.9899  18.0041  18.0609  18.0955
    18.1023  18.1155  18.2278  18.2742  18.2831  18.2840  18.4624  18.4783
    18.5452  18.5578  18.5774  18.6142  18.7117  18.9144  18.9188  18.9345
    18.9494  19.0498  19.0617  19.1061  19.1262  19.1606  19.1794  19.1861
    19.2280  19.2444  19.3772  19.3809  19.3892  19.4972  19.6433  19.6437
    19.6517  19.7239  19.9135  19.9333  19.9694  20.0061  20.0269  20.0305
    20.0688  20.0979  20.1100  20.1869  20.1949  20.1992  20.2268  20.2687
    20.3514  20.3815  20.4038  20.6027  20.6651  20.6930  20.7168  20.7447
    20.8073  20.8282  20.8336  20.8358  20.8580  20.8584  20.8594  20.8845
    20.9712  21.0779  21.1145  21.1536  21.2166  21.2285  21.3169  21.3454
    21.5431  21.6301  21.6686  21.7393  21.7532  21.8036  21.9121  21.9862
    22.0058  22.0365  22.0555  22.0833  22.0884  22.0897  22.1637  22.2299
    22.2922  22.3540  22.4520  22.4544  22.4974  22.5569  22.5834  22.6061
    22.6097  22.7193  22.7605  22.7744  22.8649  22.8948  22.9108  23.0090
    23.0300  23.0707  23.2351  23.2475  23.2956  23.2969  23.3704  23.3920
    23.5614  23.6102  23.6690  23.7599  23.8807  23.8823  23.9065  23.9110
    23.9333  23.9481  23.9580  24.0510  24.0616  24.1471  24.1477  24.2487
    24.3185  24.4220  24.4256  24.4869  24.4871  24.4886  24.4948  24.4986
    24.6445  24.6465  24.7121  24.9540  25.0224  25.0449  25.0525  25.0530
    25.0573  25.2341  25.4941  25.7438  25.7787  25.8915  26.0623  26.2833
    26.7680  27.0901  27.3804

          k = 0.0556 0.1667-0.4981 ( 30272 PWs)   bands (ev):

   -49.9722 -49.9721 -49.9061 -49.9061 -49.8887 -49.8887 -49.8727 -49.8727
   -49.8577 -49.8576 -49.8576 -49.8576 -49.8484 -49.8484 -49.8352 -49.8352
   -49.8310 -49.8310 -49.8220 -49.8220 -49.8095 -49.8094 -49.8075 -49.8075
   -49.8048 -49.8048 -49.8006 -49.8006 -49.7913 -49.7912 -49.7889 -49.7889
   -20.3172 -20.3172 -20.3090 -20.3090 -20.2795 -20.2795 -20.2587 -20.2587
   -20.2571 -20.2570 -20.2565 -20.2565 -20.2164 -20.2163 -20.1690 -20.1690
   -20.1610 -20.1610 -20.1606 -20.1606 -20.1076 -20.1076 -20.0856 -20.0856
   -20.0553 -20.0552 -20.0475 -20.0474 -20.0028 -20.0028 -19.9692 -19.9692
   -19.9396 -19.9396 -19.9239 -19.9238 -19.9222 -19.9222 -19.8905 -19.8905
   -19.8627 -19.8626 -19.7677 -19.7677 -19.7592 -19.7592 -19.7307 -19.7307
   -19.7189 -19.7189 -19.7164 -19.7164 -19.7112 -19.7112 -19.6915 -19.6915
   -19.6809 -19.6809 -19.6758 -19.6758 -19.6720 -19.6720 -19.6705 -19.6704
   -19.6694 -19.6694 -19.6415 -19.6415 -19.6340 -19.6339 -19.6154 -19.6154
   -19.6139 -19.6139 -19.5977 -19.5977 -19.5951 -19.5951 -19.5726 -19.5725
   -19.5687 -19.5686 -19.5652 -19.5651 -19.5484 -19.5484 -19.5322 -19.5321
   -19.5295 -19.5295 -19.4994 -19.4994 -19.4735 -19.4735 -19.4561 -19.4561
    16.1448  16.1448  17.3458  17.3458  17.4293  17.4293  17.4613  17.4613
    17.5518  17.5518  17.6495  17.6495  17.7215  17.7216  17.7606  17.7606
    17.7916  17.7916  17.8312  17.8312  17.9340  17.9341  17.9702  17.9702
    17.9830  17.9830  18.1419  18.1420  18.3256  18.3256  18.3749  18.3749
    18.6557  18.6557  18.6780  18.6781  18.7327  18.7328  18.8182  18.8182
    19.0626  19.0626  19.1011  19.1011  19.1277  19.1277  19.1618  19.1618
    19.2282  19.2282  19.2991  19.2991  19.3184  19.3184  19.7702  19.7702
    19.8352  19.8352  19.8421  19.8422  19.8858  19.8859  19.9653  19.9653
    20.1079  20.1079  20.1370  20.1370  20.2964  20.2964  20.3491  20.3491
    20.4266  20.4266  20.4642  20.4642  20.5284  20.5284  20.7113  20.7113
    20.8194  20.8194  20.9044  20.9044  20.9845  20.9845  20.9957  20.9957
    21.0213  21.0213  21.0605  21.0605  21.4646  21.4646  21.5033  21.5033
    21.5408  21.5408  21.5876  21.5877  21.7415  21.7415  21.7473  21.7473
    22.0047  22.0048  22.1892  22.1892  22.2024  22.2024  22.2459  22.2460
    22.2643  22.2643  22.3301  22.3301  22.3921  22.3921  22.5024  22.5024
    22.6917  22.6917  22.7146  22.7146  22.8191  22.8191  23.1070  23.1070
    23.1109  23.1109  23.1229  23.1230  23.1912  23.1913  23.6400  23.6400
    23.7249  23.7249  23.7380  23.7380  23.9639  23.9639  24.0106  24.0106
    24.1350  24.1350  24.1855  24.1856  24.1880  24.1880  24.2085  24.2085
    24.2090  24.2090  24.2158  24.2159  24.2318  24.2318  24.4214  24.4214
    24.5576  24.5576  24.9788  24.9788  25.0471  25.0472  25.0545  25.0545
    25.2585  25.2586  25.5030  25.5030  25.5128  25.5129  26.0547  26.0547
    27.1179  27.1179  27.5423

          k = 0.0556 0.2778 0.0553 ( 30301 PWs)   bands (ev):

   -49.9962 -49.9438 -49.9029 -49.9019 -49.8850 -49.8837 -49.8736 -49.8731
   -49.8601 -49.8595 -49.8524 -49.8515 -49.8474 -49.8430 -49.8428 -49.8425
   -49.8424 -49.8392 -49.8349 -49.8231 -49.8226 -49.8177 -49.8171 -49.7985
   -49.7946 -49.7939 -49.7936 -49.7927 -49.7909 -49.7900 -49.7890 -49.7887
   -20.3790 -20.3717 -20.3714 -20.3598 -20.3186 -20.3176 -20.3051 -20.2197
   -20.2052 -20.2048 -20.1841 -20.1840 -20.1839 -20.1557 -20.1518 -20.1497
   -20.1460 -20.1183 -20.1165 -20.0969 -20.0942 -20.0933 -20.0909 -20.0905
   -20.0594 -20.0545 -20.0534 -20.0513 -20.0201 -20.0159 -19.9792 -19.9765
   -19.9506 -19.9483 -19.9448 -19.9435 -19.9094 -19.9078 -19.9064 -19.9050
   -19.8056 -19.8023 -19.7888 -19.7844 -19.7801 -19.7780 -19.7697 -19.7658
   -19.7574 -19.7564 -19.7560 -19.7494 -19.7494 -19.7435 -19.7424 -19.7395
   -19.7393 -19.7223 -19.7130 -19.7126 -19.7061 -19.6773 -19.6716 -19.6334
   -19.6320 -19.6118 -19.6077 -19.6075 -19.6042 -19.6010 -19.5999 -19.5983
   -19.5927 -19.5895 -19.5867 -19.5852 -19.5700 -19.5660 -19.5579 -19.5576
   -19.5556 -19.5542 -19.5540 -19.5539 -19.5523 -19.5465 -19.5441 -19.5440
   -19.5372 -19.5215 -19.5192 -19.5191 -19.5163 -19.4705 -19.4327 -19.4299
    15.5153  16.8349  16.9759  17.0148  17.0182  17.2387  17.2904  17.2905
    17.3243  17.4071  17.4770  17.4824  17.6179  17.6838  17.6957  17.8675
    17.8791  17.9079  17.9111  18.0561  18.1580  18.2578  18.2584  18.3254
    18.3596  18.3767  18.3892  18.4072  18.4889  18.4926  18.5443  18.5573
    18.6542  18.6633  18.7076  18.7104  18.8274  18.8296  18.9040  18.9163
    19.0822  19.0854  19.2787  19.2875  19.3434  19.3474  19.3510  19.3580
    19.3586  19.3685  19.3870  19.4021  19.4125  19.4970  19.5113  19.6572
    19.6643  19.7218  19.7791  19.7873  19.8470  19.8537  19.8966  19.9124
    19.9127  19.9266  19.9818  19.9878  20.0214  20.1933  20.2406  20.2491
    20.2523  20.2657  20.3162  20.3625  20.5030  20.5412  20.5677  20.5745
    20.5774  20.5918  20.5976  20.6314  20.6726  20.7006  20.9704  20.9858
    21.0297  21.0318  21.0503  21.0573  21.2511  21.3629  21.3648  21.3989
    21.4110  21.4703  21.8412  21.8730  21.8812  22.0819  22.0920  22.0986
    22.1054  22.1374  22.1417  22.2142  22.2188  22.3306  22.3421  22.4301
    22.4425  22.5529  22.5596  22.5609  22.5687  22.5718  22.5908  22.5982
    22.6465  22.6548  22.6705  22.7149  22.7432  22.7485  22.8615  22.9279
    22.9324  22.9362  23.0013  23.0047  23.1361  23.2661  23.3323  23.3375
    23.3405  23.4222  23.4286  23.4652  23.4946  23.5031  23.5158  23.7159
    23.7510  23.8712  23.8852  24.1145  24.1407  24.1475  24.3187  24.3191
    24.3530  24.4804  24.4806  24.4918  24.5174  24.5775  24.7903  24.7907
    24.8112  24.8128  24.8539  25.1363  25.1409  25.1480  25.1504  25.2943
    25.5685  25.5834  25.7639  25.7671  25.9593  26.0700  26.0917  26.1143
    26.4114  26.9473  26.9478

          k = 0.0556 0.2778 0.1660 ( 30284 PWs)   bands (ev):

   -49.9931 -49.9414 -49.9206 -49.9002 -49.8868 -49.8824 -49.8722 -49.8673
   -49.8617 -49.8590 -49.8521 -49.8506 -49.8504 -49.8469 -49.8456 -49.8378
   -49.8361 -49.8336 -49.8280 -49.8273 -49.8236 -49.8185 -49.8118 -49.7983
   -49.7959 -49.7955 -49.7945 -49.7941 -49.7924 -49.7919 -49.7899 -49.7888
   -20.3759 -20.3721 -20.3540 -20.3377 -20.3106 -20.3068 -20.2989 -20.2266
   -20.2175 -20.1847 -20.1838 -20.1837 -20.1832 -20.1771 -20.1560 -20.1536
   -20.1526 -20.1354 -20.1346 -20.1264 -20.1233 -20.1224 -20.1206 -20.0991
   -20.0842 -20.0438 -20.0321 -20.0120 -20.0104 -19.9978 -19.9942 -19.9917
   -19.9745 -19.9638 -19.9365 -19.9276 -19.9098 -19.8738 -19.8651 -19.8355
   -19.8279 -19.8214 -19.7964 -19.7905 -19.7853 -19.7759 -19.7692 -19.7657
   -19.7637 -19.7637 -19.7558 -19.7454 -19.7370 -19.7335 -19.7306 -19.7287
   -19.7285 -19.7251 -19.6924 -19.6903 -19.6854 -19.6770 -19.6664 -19.6637
   -19.6238 -19.6233 -19.6213 -19.6171 -19.6110 -19.6086 -19.6058 -19.6028
   -19.5978 -19.5902 -19.5839 -19.5786 -19.5765 -19.5757 -19.5682 -19.5659
   -19.5635 -19.5632 -19.5579 -19.5578 -19.5488 -19.5451 -19.5425 -19.5278
   -19.5270 -19.5231 -19.5178 -19.5083 -19.4976 -19.4956 -19.4376 -19.4248
    15.5967  16.8976  17.0396  17.0609  17.0691  17.2379  17.3067  17.3787
    17.3915  17.4076  17.4670  17.5181  17.5489  17.6852  17.7110  17.8864
    17.9005  17.9255  17.9685  18.0679  18.1054  18.1914  18.1942  18.2261
    18.2555  18.2758  18.3718  18.3988  18.4158  18.4173  18.4314  18.4531
    18.5800  18.5970  18.6017  18.7100  18.7499  18.8147  18.8239  18.9899
    19.0008  19.0209  19.0565  19.1606  19.2010  19.2666  19.2716  19.3045
    19.3160  19.3693  19.4050  19.4413  19.5210  19.5214  19.5581  19.6271
    19.6456  19.6805  19.7948  19.9207  19.9656  19.9794  20.0115  20.0421
    20.0746  20.0909  20.1428  20.1595  20.2213  20.2294  20.2692  20.2744
    20.2915  20.3649  20.4176  20.4293  20.4379  20.4995  20.5179  20.5437
    20.5876  20.6448  20.6721  20.6765  20.6895  20.7078  20.9217  20.9224
    20.9704  21.0247  21.0328  21.2474  21.2527  21.2717  21.4164  21.4484
    21.5368  21.5524  21.6052  21.7194  21.7677  21.8190  21.8769  21.9827
    21.9991  22.0386  22.0797  22.1337  22.1698  22.1852  22.2837  22.3613
    22.3934  22.4744  22.4776  22.5110  22.5294  22.5538  22.6612  22.6705
    22.6715  22.6817  22.7758  22.8130  22.8694  22.9065  22.9762  22.9901
    23.0024  23.0319  23.0335  23.2143  23.3125  23.3132  23.3354  23.3520
    23.3855  23.5455  23.5548  23.5963  23.6098  23.6115  23.6537  23.6618
    23.6625  23.7460  23.8528  23.9460  24.1068  24.2214  24.3202  24.3379
    24.3668  24.4342  24.4580  24.5785  24.5851  24.5877  24.7309  24.7315
    24.8121  24.8159  24.8744  24.9111  25.0145  25.0266  25.0418  25.0470
    25.0993  25.4753  25.5273  25.8996  26.0386  26.3450  26.4302  26.5269
    26.5539  26.6136  27.5251

          k = 0.0556 0.2778 0.2767 ( 30269 PWs)   bands (ev):

   -49.9870 -49.9374 -49.9368 -49.8995 -49.8970 -49.8796 -49.8706 -49.8705
   -49.8578 -49.8578 -49.8568 -49.8503 -49.8487 -49.8486 -49.8343 -49.8333
   -49.8332 -49.8331 -49.8248 -49.8246 -49.8201 -49.8200 -49.8067 -49.8003
   -49.7987 -49.7986 -49.7980 -49.7970 -49.7953 -49.7917 -49.7911 -49.7890
   -20.3623 -20.3620 -20.3269 -20.3063 -20.2948 -20.2868 -20.2854 -20.2282
   -20.2260 -20.2248 -20.2218 -20.1876 -20.1849 -20.1658 -20.1635 -20.1594
   -20.1590 -20.1585 -20.1564 -20.1486 -20.1472 -20.1250 -20.1217 -20.1217
   -20.1078 -20.1065 -20.0281 -20.0205 -19.9950 -19.9920 -19.9728 -19.9725
   -19.9631 -19.9592 -19.9296 -19.9231 -19.8556 -19.8551 -19.8536 -19.8268
   -19.8256 -19.8239 -19.8197 -19.7936 -19.7850 -19.7663 -19.7656 -19.7545
   -19.7520 -19.7518 -19.7486 -19.7482 -19.7380 -19.7356 -19.7148 -19.7139
   -19.7007 -19.6955 -19.6952 -19.6941 -19.6605 -19.6603 -19.6574 -19.6559
   -19.6453 -19.6444 -19.6426 -19.6361 -19.6139 -19.6138 -19.6121 -19.6068
   -19.6037 -19.6034 -19.6025 -19.6001 -19.5753 -19.5752 -19.5742 -19.5733
   -19.5713 -19.5652 -19.5528 -19.5502 -19.5473 -19.5451 -19.5405 -19.5380
   -19.5335 -19.5240 -19.5209 -19.4938 -19.4932 -19.4828 -19.4486 -19.4246
    15.7570  17.0121  17.0202  17.1542  17.1641  17.1676  17.2885  17.3732
    17.5391  17.5393  17.5863  17.5892  17.6880  17.7415  17.8109  17.8168
    17.9060  17.9483  17.9564  17.9636  17.9858  17.9859  18.0663  18.0809
    18.1230  18.1234  18.1983  18.2036  18.4011  18.4814  18.4822  18.4965
    18.4996  18.5373  18.5385  18.6195  18.6249  18.7116  18.7117  18.7879
    18.7929  18.9138  19.0566  19.0585  19.1232  19.1274  19.1328  19.3655
    19.3687  19.3819  19.3840  19.4160  19.4182  19.4368  19.4918  19.8162
    19.8267  19.9242  19.9317  20.0109  20.0121  20.0745  20.0809  20.1110
    20.1242  20.1246  20.1440  20.2136  20.2450  20.3065  20.3172  20.3966
    20.4071  20.4522  20.4632  20.6054  20.6112  20.6147  20.6804  20.6887
    20.7034  20.7325  20.7421  20.7764  20.8059  20.8169  20.8203  20.8260
    20.9713  20.9808  21.0927  21.1105  21.3108  21.3388  21.4454  21.4738
    21.5054  21.5290  21.6057  21.6284  21.6347  21.7043  21.7294  21.7455
    21.7685  21.7834  21.9422  21.9616  22.1035  22.1243  22.1272  22.1344
    22.1357  22.2555  22.3271  22.4615  22.4626  22.5941  22.6203  22.6237
    22.9080  22.9153  22.9178  23.0387  23.0436  23.0630  23.0634  23.1720
    23.1752  23.1819  23.1932  23.2566  23.2670  23.3748  23.3756  23.3799
    23.3805  23.4284  23.4472  23.6951  23.7221  23.7226  23.7738  23.8638
    23.8693  23.8697  23.8906  23.8954  24.0476  24.0988  24.2730  24.2755
    24.4800  24.5951  24.5992  24.6235  24.6237  24.6245  24.6407  24.6592
    24.7931  24.8004  24.8168  24.8202  24.8448  24.8490  24.8498  24.8591
    24.9521  25.3118  25.4018  25.4162  25.9137  25.9334  26.9788  26.9800
    27.2116  27.2156  27.2487

          k = 0.0556 0.2778 0.3874 ( 30291 PWs)   bands (ev):

   -49.9781 -49.9529 -49.9301 -49.9111 -49.8922 -49.8788 -49.8757 -49.8680
   -49.8646 -49.8610 -49.8562 -49.8515 -49.8459 -49.8380 -49.8347 -49.8305
   -49.8291 -49.8262 -49.8226 -49.8225 -49.8167 -49.8133 -49.8093 -49.8037
   -49.8034 -49.8024 -49.8020 -49.7975 -49.7961 -49.7944 -49.7904 -49.7894
   -20.3414 -20.3389 -20.2916 -20.2725 -20.2715 -20.2691 -20.2677 -20.2670
   -20.2539 -20.2189 -20.2180 -20.2176 -20.2060 -20.2046 -20.1852 -20.1831
   -20.1829 -20.1729 -20.1652 -20.1633 -20.1444 -20.1409 -20.1243 -20.1190
   -20.1124 -20.0826 -20.0536 -20.0516 -20.0216 -19.9985 -19.9574 -19.9447
   -19.9346 -19.9131 -19.9039 -19.8876 -19.8869 -19.8852 -19.8613 -19.8514
   -19.8185 -19.8122 -19.7968 -19.7857 -19.7753 -19.7684 -19.7535 -19.7504
   -19.7433 -19.7358 -19.7347 -19.7231 -19.7222 -19.7202 -19.7085 -19.6987
   -19.6906 -19.6901 -19.6891 -19.6859 -19.6810 -19.6684 -19.6580 -19.6561
   -19.6505 -19.6461 -19.6335 -19.6330 -19.6329 -19.6256 -19.6249 -19.6227
   -19.6108 -19.5977 -19.5960 -19.5935 -19.5893 -19.5878 -19.5837 -19.5835
   -19.5810 -19.5684 -19.5602 -19.5589 -19.5579 -19.5542 -19.5506 -19.5381
   -19.5280 -19.5253 -19.5102 -19.4817 -19.4752 -19.4672 -19.4648 -19.4318
    15.9908  16.6369  17.1969  17.2952  17.3071  17.3430  17.3906  17.4896
    17.6538  17.6739  17.6947  17.7076  17.7170  17.7302  17.7433  17.7637
    17.7863  17.8158  17.8669  17.8860  17.9108  17.9417  18.0021  18.0061
    18.0264  18.0557  18.2003  18.2155  18.2420  18.2424  18.2836  18.3502
    18.4121  18.5088  18.5733  18.6310  18.6407  18.6456  18.6907  18.6913
    18.7835  18.8653  18.8979  18.9733  19.0125  19.1359  19.1416  19.1767
    19.2446  19.3367  19.4535  19.4736  19.4929  19.5120  19.6608  19.7264
    19.7524  19.7787  19.8670  20.0004  20.0734  20.0879  20.1757  20.1998
    20.2205  20.2375  20.2564  20.3191  20.3724  20.3872  20.3980  20.4962
    20.5087  20.5672  20.6046  20.6176  20.6287  20.6620  20.7291  20.7904
    20.8219  20.8228  20.8642  20.8736  20.8958  20.9771  20.9907  20.9981
    21.0132  21.0775  21.1179  21.1295  21.2149  21.2789  21.3171  21.3930
    21.4561  21.4913  21.5239  21.5375  21.5575  21.5785  21.6015  21.6254
    21.7314  21.7483  21.7695  21.8136  21.9400  21.9680  21.9866  22.0298
    22.1382  22.1509  22.3242  22.3472  22.4519  22.5062  22.5894  22.6726
    22.8164  22.8378  22.8516  22.8890  22.9921  23.0577  23.1224  23.1298
    23.2096  23.2657  23.2944  23.3984  23.4106  23.4267  23.4976  23.5647
    23.6077  23.6082  23.7643  23.7647  23.7670  23.8110  23.9876  24.0370
    24.0566  24.0700  24.1063  24.1132  24.1302  24.1382  24.1384  24.1772
    24.2523  24.3985  24.4673  24.4815  24.4829  24.4963  24.5117  24.5190
    24.5220  24.5975  24.8096  24.8259  24.8278  24.8442  24.8875  24.9174
    25.2534  25.3529  25.3928  25.3957  25.4410  25.7795  26.6125  26.6415
    27.4186  27.5927  27.8741

          k = 0.0556 0.2778-0.4981 ( 30286 PWs)   bands (ev):

   -49.9666 -49.9666 -49.9214 -49.9214 -49.8861 -49.8861 -49.8706 -49.8706
   -49.8648 -49.8648 -49.8540 -49.8540 -49.8423 -49.8423 -49.8281 -49.8281
   -49.8255 -49.8255 -49.8209 -49.8209 -49.8123 -49.8123 -49.8095 -49.8094
   -49.8074 -49.8074 -49.7979 -49.7979 -49.7969 -49.7968 -49.7899 -49.7899
   -20.3111 -20.3110 -20.3067 -20.3067 -20.2499 -20.2499 -20.2462 -20.2462
   -20.2417 -20.2417 -20.2216 -20.2216 -20.2129 -20.2129 -20.2052 -20.2052
   -20.2033 -20.2033 -20.1768 -20.1768 -20.1306 -20.1305 -20.1233 -20.1232
   -20.0893 -20.0893 -20.0461 -20.0461 -20.0408 -20.0408 -19.9211 -19.9211
   -19.9155 -19.9155 -19.8975 -19.8975 -19.8798 -19.8798 -19.8620 -19.8620
   -19.8502 -19.8502 -19.7521 -19.7521 -19.7517 -19.7517 -19.7473 -19.7472
   -19.7404 -19.7404 -19.7382 -19.7382 -19.7255 -19.7255 -19.7125 -19.7125
   -19.6868 -19.6867 -19.6806 -19.6805 -19.6628 -19.6628 -19.6621 -19.6621
   -19.6446 -19.6446 -19.6366 -19.6366 -19.6339 -19.6339 -19.6229 -19.6229
   -19.6092 -19.6091 -19.5937 -19.5937 -19.5913 -19.5913 -19.5906 -19.5906
   -19.5826 -19.5826 -19.5710 -19.5710 -19.5549 -19.5549 -19.5385 -19.5385
   -19.5311 -19.5311 -19.4855 -19.4855 -19.4750 -19.4750 -19.4464 -19.4463
    16.2889  16.2889  17.4187  17.4187  17.4756  17.4756  17.4819  17.4819
    17.5431  17.5431  17.5658  17.5658  17.6547  17.6548  17.8330  17.8331
    17.8436  17.8436  17.9386  17.9386  17.9587  17.9587  17.9931  17.9931
    17.9971  17.9972  18.1181  18.1181  18.1319  18.1320  18.2421  18.2421
    18.4407  18.4407  18.5443  18.5443  18.6482  18.6482  18.7797  18.7797
    18.7797  18.7797  18.9214  18.9214  19.0277  19.0277  19.0496  19.0496
    19.4187  19.4187  19.5030  19.5030  19.5884  19.5884  19.5900  19.5900
    19.6284  19.6284  19.8842  19.8842  20.1458  20.1458  20.2427  20.2427
    20.2759  20.2759  20.3584  20.3584  20.3816  20.3816  20.4317  20.4317
    20.5199  20.5199  20.6573  20.6573  20.7718  20.7718  20.8594  20.8594
    20.8756  20.8756  20.9249  20.9249  20.9814  20.9814  20.9989  20.9989
    21.1533  21.1533  21.1978  21.1978  21.2091  21.2091  21.2228  21.2228
    21.4004  21.4004  21.4035  21.4035  21.4802  21.4803  21.4915  21.4915
    21.7008  21.7008  21.9358  21.9358  22.0751  22.0751  22.1126  22.1127
    22.1450  22.1450  22.1855  22.1855  22.2781  22.2782  22.4705  22.4705
    22.6775  22.6775  22.9864  22.9865  23.0277  23.0278  23.1121  23.1121
    23.2330  23.2330  23.4881  23.4881  23.5236  23.5236  23.6431  23.6431
    23.7353  23.7354  23.8082  23.8082  23.8928  23.8928  23.8950  23.8951
    24.1425  24.1425  24.1429  24.1429  24.2431  24.2432  24.3114  24.3114
    24.3116  24.3116  24.3371  24.3371  24.3523  24.3523  24.3557  24.3557
    24.4585  24.4585  24.8335  24.8335  24.8492  24.8492  24.8826  24.8826
    25.0459  25.0459  25.5877  25.5877  25.9570  25.9570  26.0458  26.0458
    27.7837  27.7837  28.1096

          k = 0.0556 0.3889 0.0553 ( 30273 PWs)   bands (ev):

   -49.9868 -49.9601 -49.8976 -49.8967 -49.8827 -49.8821 -49.8805 -49.8794
   -49.8679 -49.8671 -49.8515 -49.8489 -49.8429 -49.8427 -49.8426 -49.8424
   -49.8379 -49.8357 -49.8350 -49.8142 -49.8135 -49.8103 -49.8095 -49.8081
   -49.7997 -49.7988 -49.7982 -49.7971 -49.7908 -49.7903 -49.7889 -49.7887
   -20.3503 -20.3399 -20.3395 -20.3245 -20.2946 -20.2936 -20.2679 -20.2676
   -20.2536 -20.2532 -20.2335 -20.2263 -20.2258 -20.1609 -20.1540 -20.1512
   -20.1402 -20.1377 -20.1328 -20.1326 -20.1076 -20.1067 -20.0693 -20.0638
   -20.0404 -20.0373 -20.0232 -20.0175 -20.0080 -20.0042 -19.9991 -19.9952
   -19.9857 -19.9831 -19.9455 -19.9424 -19.9414 -19.9391 -19.9015 -19.8997
   -19.8306 -19.8280 -19.7832 -19.7799 -19.7773 -19.7718 -19.7499 -19.7420
   -19.7347 -19.7133 -19.7129 -19.7106 -19.7102 -19.7073 -19.7069 -19.7067
   -19.7057 -19.7050 -19.6985 -19.6779 -19.6778 -19.6769 -19.6544 -19.6533
   -19.6412 -19.6407 -19.6379 -19.6374 -19.6364 -19.6337 -19.6212 -19.6204
   -19.6189 -19.6183 -19.5975 -19.5766 -19.5749 -19.5644 -19.5602 -19.5541
   -19.5539 -19.5537 -19.5530 -19.5516 -19.5503 -19.5420 -19.5415 -19.5407
   -19.5384 -19.5207 -19.5189 -19.5139 -19.4937 -19.4913 -19.4487 -19.4458
    15.7625  16.4434  17.1148  17.1931  17.1967  17.3913  17.4582  17.4584
    17.4604  17.5068  17.5193  17.6590  17.6616  17.6652  17.6658  17.8463
    17.8544  17.8554  17.8647  17.9468  17.9472  18.0147  18.0484  18.0587
    18.1951  18.2057  18.2802  18.2862  18.4871  18.4992  18.5001  18.5050
    18.5551  18.5711  18.7488  18.7497  18.7689  18.7744  18.9914  18.9966
    18.9970  19.0048  19.0906  19.0943  19.2366  19.2403  19.2764  19.2810
    19.3180  19.3312  19.3775  19.3906  19.3962  19.3991  19.6398  19.6466
    19.6606  19.6972  19.7022  19.8212  19.9139  19.9207  19.9319  19.9363
    19.9428  19.9517  20.0705  20.1214  20.1369  20.1504  20.1554  20.1629
    20.1677  20.2971  20.3510  20.3563  20.6293  20.6856  20.6991  20.7047
    20.7127  20.7172  20.7281  20.7283  20.7713  20.8102  21.0101  21.0177
    21.0386  21.0926  21.1478  21.1799  21.1826  21.1869  21.1920  21.2124
    21.6576  21.6880  22.0003  22.0046  22.0174  22.0712  22.0767  22.1941
    22.1977  22.2003  22.2513  22.2702  22.2722  22.3127  22.3163  22.3481
    22.3537  22.3983  22.4022  22.4083  22.4166  22.4801  22.5206  22.5258
    22.5630  22.5651  22.5823  22.5881  22.6719  22.6756  22.8908  22.8939
    22.9983  23.0103  23.0450  23.1540  23.2031  23.3462  23.3494  23.4751
    23.6620  23.6651  23.6698  23.7729  23.7808  23.7812  23.8195  23.8217
    24.0413  24.0424  24.0444  24.1016  24.1927  24.1979  24.2023  24.2566
    24.2650  24.2738  24.3146  24.3193  24.4866  24.4921  24.5021  24.5052
    24.5481  24.5507  24.6252  25.0768  25.0858  25.1364  25.1391  25.1487
    25.1497  25.3113  25.5449  25.5609  25.6644  26.1676  26.1686  26.2287
    26.6019  26.7640  26.7644

          k = 0.0556 0.3889 0.1660 ( 30286 PWs)   bands (ev):

   -49.9838 -49.9576 -49.9145 -49.8974 -49.8952 -49.8810 -49.8781 -49.8662
   -49.8636 -49.8600 -49.8551 -49.8532 -49.8495 -49.8471 -49.8365 -49.8344
   -49.8343 -49.8333 -49.8289 -49.8175 -49.8149 -49.8113 -49.8078 -49.8056
   -49.8009 -49.8005 -49.7997 -49.7955 -49.7937 -49.7929 -49.7895 -49.7890
   -20.3508 -20.3441 -20.3198 -20.2998 -20.2867 -20.2849 -20.2738 -20.2640
   -20.2635 -20.2315 -20.2229 -20.2189 -20.2056 -20.1813 -20.1756 -20.1623
   -20.1611 -20.1600 -20.1556 -20.1451 -20.1221 -20.1102 -20.1046 -20.0908
   -20.0632 -20.0506 -20.0464 -20.0256 -20.0250 -19.9938 -19.9700 -19.9668
   -19.9654 -19.9541 -19.9419 -19.9234 -19.9081 -19.8987 -19.8932 -19.8767
   -19.8547 -19.8220 -19.7680 -19.7650 -19.7641 -19.7640 -19.7624 -19.7596
   -19.7476 -19.7398 -19.7390 -19.7150 -19.7136 -19.7059 -19.7034 -19.6998
   -19.6959 -19.6944 -19.6858 -19.6810 -19.6605 -19.6589 -19.6587 -19.6493
   -19.6461 -19.6460 -19.6441 -19.6431 -19.6427 -19.6354 -19.6349 -19.6101
   -19.6086 -19.6032 -19.5879 -19.5859 -19.5807 -19.5806 -19.5799 -19.5745
   -19.5717 -19.5682 -19.5548 -19.5522 -19.5503 -19.5457 -19.5405 -19.5377
   -19.5298 -19.5212 -19.5090 -19.4997 -19.4949 -19.4805 -19.4539 -19.4376
    15.8400  16.5108  17.1794  17.2257  17.2484  17.3686  17.4526  17.5269
    17.5481  17.5681  17.5774  17.5978  17.6753  17.6997  17.7202  17.7378
    17.7877  17.8323  17.8982  17.8993  17.9882  18.0063  18.0633  18.0904
    18.1039  18.1180  18.2334  18.2716  18.2776  18.2862  18.4481  18.4793
    18.5486  18.5506  18.5793  18.6158  18.7143  18.9097  18.9116  18.9324
    18.9463  19.0450  19.0640  19.1016  19.1226  19.1599  19.1736  19.1903
    19.2280  19.2292  19.3688  19.3771  19.3819  19.4896  19.6529  19.6530
    19.6704  19.7264  19.9283  19.9331  19.9709  19.9963  20.0350  20.0452
    20.0547  20.0921  20.1274  20.1809  20.1841  20.2094  20.2524  20.2660
    20.3643  20.3831  20.3970  20.5839  20.6299  20.6822  20.7029  20.7182
    20.7751  20.8272  20.8316  20.8325  20.8339  20.8352  20.8385  20.8754
    20.9865  21.0545  21.1235  21.1533  21.1843  21.2025  21.2911  21.3216
    21.5292  21.6425  21.6918  21.7625  21.7671  21.8185  21.9302  21.9831
    22.0056  22.0344  22.0845  22.0879  22.0941  22.0992  22.1755  22.2426
    22.3057  22.3580  22.4574  22.4878  22.5052  22.5639  22.5921  22.6081
    22.6294  22.7297  22.7752  22.7787  22.8510  22.9038  22.9245  22.9778
    23.0337  23.0762  23.2057  23.2534  23.3011  23.3058  23.3754  23.3927
    23.5719  23.6026  23.6732  23.7655  23.8870  23.8900  23.9037  23.9166
    23.9404  23.9482  23.9635  24.0537  24.0728  24.1480  24.1520  24.2517
    24.3315  24.4227  24.4329  24.4881  24.4906  24.5007  24.5043  24.5161
    24.6476  24.6509  24.7141  24.9554  25.0146  25.0266  25.0295  25.0320
    25.0367  25.2172  25.5100  25.7255  25.7615  25.9230  26.0612  26.2614
    26.7534  27.0772  27.3528

          k = 0.0556 0.3889 0.2767 ( 30291 PWs)   bands (ev):

   -49.9780 -49.9525 -49.9306 -49.9113 -49.8922 -49.8788 -49.8757 -49.8681
   -49.8646 -49.8610 -49.8561 -49.8515 -49.8474 -49.8392 -49.8329 -49.8306
   -49.8290 -49.8263 -49.8223 -49.8214 -49.8165 -49.8134 -49.8071 -49.8032
   -49.8026 -49.8022 -49.8018 -49.7996 -49.7979 -49.7939 -49.7909 -49.7895
   -20.3413 -20.3381 -20.2912 -20.2711 -20.2711 -20.2674 -20.2664 -20.2656
   -20.2553 -20.2201 -20.2196 -20.2165 -20.2044 -20.2026 -20.1864 -20.1853
   -20.1832 -20.1707 -20.1670 -20.1647 -20.1463 -20.1394 -20.1269 -20.1175
   -20.1129 -20.0855 -20.0546 -20.0523 -20.0236 -19.9996 -19.9548 -19.9455
   -19.9348 -19.9128 -19.9101 -19.8866 -19.8858 -19.8804 -19.8623 -19.8564
   -19.8116 -19.8102 -19.7949 -19.7807 -19.7767 -19.7739 -19.7515 -19.7500
   -19.7444 -19.7381 -19.7371 -19.7295 -19.7201 -19.7168 -19.7070 -19.6991
   -19.6903 -19.6880 -19.6878 -19.6872 -19.6805 -19.6677 -19.6571 -19.6557
   -19.6506 -19.6448 -19.6329 -19.6304 -19.6297 -19.6242 -19.6235 -19.6223
   -19.6100 -19.6016 -19.5988 -19.5907 -19.5886 -19.5883 -19.5860 -19.5844
   -19.5811 -19.5653 -19.5636 -19.5569 -19.5559 -19.5539 -19.5536 -19.5416
   -19.5286 -19.5256 -19.5119 -19.4812 -19.4750 -19.4677 -19.4652 -19.4320
    15.9925  16.6430  17.1910  17.2968  17.3055  17.3488  17.3909  17.4900
    17.6572  17.6726  17.6932  17.7125  17.7178  17.7304  17.7439  17.7671
    17.7871  17.8273  17.8677  17.8857  17.9116  17.9425  18.0029  18.0047
    18.0229  18.0561  18.2027  18.2163  18.2299  18.2422  18.2884  18.3458
    18.4121  18.5115  18.5746  18.6345  18.6375  18.6383  18.6870  18.6897
    18.7826  18.8621  18.8961  18.9720  19.0123  19.1394  19.1407  19.1748
    19.2410  19.3350  19.4572  19.4586  19.4914  19.5071  19.6832  19.7268
    19.7606  19.7756  19.8629  20.0071  20.0890  20.0987  20.1755  20.2071
    20.2098  20.2302  20.2386  20.3429  20.3628  20.3791  20.4036  20.4987
    20.5032  20.5768  20.6027  20.6192  20.6219  20.6533  20.7111  20.7794
    20.8049  20.8115  20.8729  20.8783  20.8888  20.9578  20.9997  21.0013
    21.0030  21.0846  21.0872  21.1105  21.1864  21.2521  21.3063  21.4180
    21.4721  21.4789  21.5065  21.5473  21.5656  21.5882  21.6217  21.6231
    21.7302  21.7467  21.7689  21.8210  21.9524  21.9754  21.9984  22.0483
    22.1535  22.1582  22.3272  22.3519  22.4697  22.5071  22.5778  22.6793
    22.8127  22.8442  22.8527  22.9005  22.9751  23.0618  23.1276  23.1390
    23.2170  23.2446  23.2990  23.3987  23.4108  23.4274  23.4980  23.5593
    23.6089  23.6173  23.7642  23.7691  23.7715  23.8139  23.9917  24.0359
    24.0598  24.0702  24.1107  24.1173  24.1268  24.1373  24.1416  24.1879
    24.2533  24.4039  24.4772  24.4834  24.4836  24.5108  24.5159  24.5171
    24.5385  24.6067  24.7958  24.8054  24.8074  24.8282  24.8751  24.9267
    25.2394  25.3594  25.3801  25.4109  25.4388  25.7612  26.6377  26.6388
    27.4082  27.5864  27.8822

          k = 0.0556 0.3889 0.3874 ( 30295 PWs)   bands (ev):

   -49.9694 -49.9454 -49.9451 -49.9242 -49.8878 -49.8756 -49.8755 -49.8722
   -49.8666 -49.8622 -49.8622 -49.8555 -49.8325 -49.8308 -49.8264 -49.8252
   -49.8251 -49.8249 -49.8189 -49.8187 -49.8165 -49.8164 -49.8083 -49.8068
   -49.8067 -49.8062 -49.8054 -49.8037 -49.7984 -49.7928 -49.7925 -49.7903
   -20.3221 -20.3218 -20.2610 -20.2602 -20.2595 -20.2578 -20.2551 -20.2484
   -20.2431 -20.2415 -20.2258 -20.2162 -20.2157 -20.2079 -20.2057 -20.1846
   -20.1835 -20.1698 -20.1695 -20.1683 -20.1677 -20.1675 -20.1659 -20.1320
   -20.1303 -20.1292 -20.0913 -20.0461 -20.0416 -19.9898 -19.9883 -19.9195
   -19.8981 -19.8976 -19.8689 -19.8620 -19.8572 -19.8289 -19.8272 -19.8172
   -19.8127 -19.8118 -19.8114 -19.8011 -19.7931 -19.7526 -19.7481 -19.7477
   -19.7457 -19.7338 -19.7320 -19.7295 -19.7250 -19.7247 -19.7234 -19.7227
   -19.7122 -19.7110 -19.6790 -19.6776 -19.6718 -19.6708 -19.6701 -19.6592
   -19.6589 -19.6362 -19.6356 -19.6307 -19.6252 -19.6245 -19.6229 -19.6221
   -19.6064 -19.6029 -19.6018 -19.6002 -19.5993 -19.5953 -19.5854 -19.5795
   -19.5750 -19.5694 -19.5638 -19.5637 -19.5616 -19.5573 -19.5496 -19.5348
   -19.5322 -19.5296 -19.5283 -19.4818 -19.4622 -19.4590 -19.4586 -19.4333
    16.2149  16.8307  16.8348  17.3626  17.4122  17.4584  17.4870  17.4909
    17.5701  17.7232  17.7232  17.7479  17.7808  17.7832  17.8440  17.8449
    17.8553  17.8555  17.8652  17.8672  17.8923  17.9032  17.9037  17.9703
    17.9799  18.0463  18.0891  18.1596  18.1615  18.3509  18.3525  18.3529
    18.3556  18.3601  18.3626  18.3667  18.3703  18.5982  18.5998  18.6173
    18.6179  18.6678  18.6724  18.9200  18.9238  19.0418  19.2534  19.2564
    19.2585  19.2616  19.4262  19.5796  19.5842  19.6034  19.6155  19.6704
    19.6858  19.9997  20.0167  20.0174  20.1868  20.2766  20.2778  20.3993
    20.4010  20.4093  20.4106  20.4143  20.4162  20.4366  20.4434  20.4533
    20.5378  20.5845  20.7292  20.7390  20.8241  20.8307  20.8318  20.8872
    20.9002  20.9158  20.9297  20.9458  21.0111  21.0207  21.0293  21.0381
    21.1624  21.1865  21.1977  21.1982  21.2097  21.2126  21.2326  21.2763
    21.3357  21.3556  21.3896  21.3961  21.3981  21.4063  21.4551  21.4612
    21.4679  21.4833  21.6088  21.6872  21.6990  21.7186  21.7291  21.9904
    22.1485  22.1489  22.1529  22.1553  22.2350  22.2461  22.3194  22.3858
    22.7060  23.0417  23.0785  23.0826  23.1012  23.1046  23.3692  23.3759
    23.3794  23.3798  23.4788  23.4820  23.5393  23.5394  23.6064  23.6464
    23.7901  23.7936  23.8979  23.9222  23.9267  23.9402  23.9433  23.9476
    23.9506  24.0338  24.1402  24.2426  24.2763  24.2948  24.2959  24.2963
    24.2994  24.3478  24.4095  24.4600  24.4600  24.5085  24.5192  24.5216
    24.5217  24.5538  24.5548  24.5642  24.5656  24.5781  24.7407  24.7660
    24.7752  25.1012  25.2581  25.2723  26.0090  26.0168  27.2821  27.2902
    27.3419  27.3657  28.0827

          k = 0.0556 0.3889-0.4981 ( 30286 PWs)   bands (ev):

   -49.9585 -49.9584 -49.9356 -49.9355 -49.8823 -49.8822 -49.8715 -49.8714
   -49.8676 -49.8676 -49.8592 -49.8592 -49.8281 -49.8281 -49.8217 -49.8216
   -49.8205 -49.8205 -49.8193 -49.8193 -49.8150 -49.8150 -49.8124 -49.8123
   -49.8111 -49.8111 -49.8051 -49.8050 -49.7954 -49.7953 -49.7913 -49.7913
   -20.2957 -20.2956 -20.2944 -20.2943 -20.2415 -20.2415 -20.2409 -20.2409
   -20.2273 -20.2272 -20.2193 -20.2193 -20.2138 -20.2138 -20.2074 -20.2074
   -20.1897 -20.1897 -20.1802 -20.1801 -20.1693 -20.1693 -20.1573 -20.1572
   -20.1303 -20.1303 -20.0864 -20.0864 -20.0202 -20.0202 -19.9546 -19.9546
   -19.8616 -19.8616 -19.8533 -19.8533 -19.8388 -19.8387 -19.8322 -19.8321
   -19.8016 -19.8016 -19.7821 -19.7821 -19.7735 -19.7735 -19.7713 -19.7713
   -19.7651 -19.7651 -19.7296 -19.7296 -19.7184 -19.7184 -19.7070 -19.7070
   -19.6936 -19.6936 -19.6891 -19.6891 -19.6868 -19.6868 -19.6690 -19.6690
   -19.6494 -19.6494 -19.6492 -19.6492 -19.6174 -19.6173 -19.6127 -19.6127
   -19.6119 -19.6119 -19.6068 -19.6068 -19.5826 -19.5826 -19.5794 -19.5794
   -19.5761 -19.5761 -19.5687 -19.5687 -19.5524 -19.5524 -19.5479 -19.5479
   -19.5409 -19.5408 -19.5030 -19.5030 -19.4569 -19.4569 -19.4424 -19.4424
    16.4987  16.4987  17.0784  17.0785  17.5701  17.5701  17.5743  17.5744
    17.6626  17.6627  17.6923  17.6923  17.7140  17.7140  17.7251  17.7251
    17.8631  17.8631  17.8935  17.8935  17.9987  17.9987  18.0806  18.0806
    18.0910  18.0910  18.1140  18.1140  18.1194  18.1194  18.1644  18.1645
    18.3328  18.3329  18.3676  18.3676  18.4794  18.4794  18.5098  18.5098
    18.5343  18.5343  18.8172  18.8172  19.0501  19.0501  19.0669  19.0669
    19.3991  19.3992  19.4135  19.4135  19.6628  19.6628  19.7393  19.7393
    19.8562  19.8562  19.9400  19.9400  20.1389  20.1389  20.3899  20.3899
    20.4500  20.4500  20.5071  20.5071  20.5807  20.5807  20.6313  20.6313
    20.7315  20.7315  20.7535  20.7535  20.7784  20.7784  20.9489  20.9489
    20.9665  20.9665  20.9862  20.9862  21.0034  21.0034  21.0327  21.0328
    21.0838  21.0838  21.1356  21.1356  21.1449  21.1449  21.1845  21.1845
    21.2678  21.2678  21.2793  21.2793  21.4457  21.4457  21.4515  21.4515
    21.4707  21.4707  21.6224  21.6224  21.8551  21.8551  21.8768  21.8768
    21.9197  21.9197  21.9390  21.9390  22.0807  22.0807  22.2564  22.2564
    22.9074  22.9074  23.1833  23.1833  23.2797  23.2797  23.3280  23.3280
    23.3547  23.3547  23.5948  23.5949  23.6673  23.6674  23.6874  23.6875
    23.7631  23.7631  23.8482  23.8482  23.9569  23.9569  24.1008  24.1008
    24.1613  24.1614  24.2523  24.2523  24.3178  24.3178  24.3196  24.3196
    24.3341  24.3342  24.4015  24.4015  24.4037  24.4037  24.4387  24.4387
    24.4447  24.4448  24.5386  24.5386  24.5878  24.5879  24.6426  24.6426
    24.7536  24.7536  25.1232  25.1232  26.6553  26.6553  26.6649  26.6649
    27.9904  27.9904  28.0789

          k = 0.0556-0.5000 0.0553 ( 30276 PWs)   bands (ev):

   -49.9747 -49.9745 -49.8909 -49.8908 -49.8901 -49.8899 -49.8748 -49.8747
   -49.8738 -49.8737 -49.8503 -49.8502 -49.8428 -49.8427 -49.8426 -49.8425
   -49.8367 -49.8366 -49.8204 -49.8203 -49.8064 -49.8062 -49.8056 -49.8054
   -49.8038 -49.8036 -49.8028 -49.8027 -49.7906 -49.7905 -49.7888 -49.7887
   -20.3126 -20.3125 -20.2998 -20.2997 -20.2993 -20.2992 -20.2816 -20.2815
   -20.2636 -20.2634 -20.2629 -20.2627 -20.2191 -20.2190 -20.1459 -20.1458
   -20.1445 -20.1445 -20.1252 -20.1251 -20.1242 -20.1242 -20.0390 -20.0389
   -20.0342 -20.0341 -20.0162 -20.0161 -20.0133 -20.0132 -19.9845 -19.9844
   -19.9795 -19.9795 -19.9731 -19.9730 -19.9695 -19.9693 -19.8630 -19.8629
   -19.8609 -19.8608 -19.7816 -19.7815 -19.7746 -19.7744 -19.7295 -19.7293
   -19.7223 -19.7221 -19.6828 -19.6827 -19.6814 -19.6813 -19.6806 -19.6805
   -19.6758 -19.6757 -19.6741 -19.6740 -19.6737 -19.6736 -19.6709 -19.6708
   -19.6598 -19.6598 -19.6597 -19.6596 -19.6472 -19.6471 -19.6467 -19.6465
   -19.6340 -19.6339 -19.5690 -19.5689 -19.5626 -19.5624 -19.5617 -19.5616
   -19.5616 -19.5615 -19.5540 -19.5539 -19.5535 -19.5533 -19.5401 -19.5400
   -19.5284 -19.5284 -19.5278 -19.5277 -19.4693 -19.4691 -19.4666 -19.4665
    16.0772  16.0774  17.2826  17.2828  17.4144  17.4146  17.4180  17.4182
    17.5979  17.5979  17.6663  17.6665  17.6782  17.6782  17.6785  17.6785
    17.7387  17.7388  17.8991  17.8992  17.9076  17.9078  18.0601  18.0602
    18.0684  18.0686  18.2673  18.2674  18.2756  18.2758  18.6274  18.6275
    18.6344  18.6345  18.7637  18.7639  18.7763  18.7764  18.9172  18.9173
    18.9183  18.9184  19.1120  19.1121  19.1143  19.1145  19.3188  19.3189
    19.3354  19.3355  19.3452  19.3453  19.3481  19.3481  19.6497  19.6497
    19.6511  19.6511  19.9143  19.9145  19.9222  19.9224  19.9394  19.9396
    19.9417  19.9418  20.0468  20.0469  20.0590  20.0592  20.2131  20.2132
    20.4010  20.4010  20.4111  20.4111  20.5070  20.5070  20.5148  20.5149
    20.8003  20.8004  20.8686  20.8686  20.8838  20.8838  20.9224  20.9225
    20.9558  20.9559  20.9913  20.9915  21.6504  21.6505  21.6516  21.6516
    21.6571  21.6572  21.6877  21.6878  22.0551  22.0552  22.0555  22.0556
    22.2522  22.2524  22.3201  22.3201  22.3529  22.3530  22.3674  22.3676
    22.3708  22.3709  22.4435  22.4436  22.4475  22.4476  22.4599  22.4600
    22.4605  22.4606  22.5227  22.5229  22.5271  22.5273  22.7752  22.7753
    22.7756  22.7757  23.0907  23.0909  23.7065  23.7066  23.7089  23.7090
    23.7226  23.7227  23.8034  23.8034  23.9786  23.9787  23.9850  23.9850
    24.0281  24.0282  24.0652  24.0652  24.1408  24.1409  24.1487  24.1488
    24.1591  24.1592  24.1644  24.1645  24.4350  24.4351  24.6110  24.6110
    24.6134  24.6134  24.6484  24.6485  25.0299  25.0299  25.0398  25.0398
    25.1374  25.1376  25.1491  25.1493  25.9791  25.9792  26.5048  26.5049
    26.5049  26.5050  26.9947

          k = 0.0556-0.5000 0.1660 ( 30286 PWs)   bands (ev):

   -49.9719 -49.9718 -49.9068 -49.9066 -49.8888 -49.8886 -49.8728 -49.8726
   -49.8589 -49.8588 -49.8578 -49.8576 -49.8485 -49.8483 -49.8354 -49.8352
   -49.8309 -49.8308 -49.8200 -49.8198 -49.8083 -49.8082 -49.8074 -49.8072
   -49.8051 -49.8049 -49.8001 -49.8000 -49.7934 -49.7933 -49.7893 -49.7891
   -20.3162 -20.3161 -20.3074 -20.3073 -20.2782 -20.2781 -20.2567 -20.2565
   -20.2559 -20.2557 -20.2549 -20.2548 -20.2177 -20.2175 -20.1717 -20.1717
   -20.1632 -20.1631 -20.1623 -20.1623 -20.1093 -20.1093 -20.0843 -20.0842
   -20.0583 -20.0582 -20.0496 -20.0495 -20.0061 -20.0060 -19.9702 -19.9701
   -19.9402 -19.9401 -19.9287 -19.9285 -19.9215 -19.9215 -19.8868 -19.8867
   -19.8546 -19.8545 -19.7666 -19.7665 -19.7627 -19.7626 -19.7387 -19.7385
   -19.7192 -19.7191 -19.7141 -19.7139 -19.7087 -19.7086 -19.6895 -19.6895
   -19.6803 -19.6803 -19.6749 -19.6748 -19.6698 -19.6698 -19.6671 -19.6669
   -19.6669 -19.6668 -19.6391 -19.6390 -19.6324 -19.6322 -19.6132 -19.6131
   -19.6113 -19.6112 -19.5971 -19.5970 -19.5954 -19.5953 -19.5767 -19.5766
   -19.5718 -19.5716 -19.5646 -19.5645 -19.5524 -19.5522 -19.5335 -19.5333
   -19.5309 -19.5309 -19.4990 -19.4990 -19.4749 -19.4748 -19.4567 -19.4566
    16.1498  16.1500  17.3481  17.3483  17.4345  17.4347  17.4711  17.4713
[...]
   -19.6344 -19.6344 -19.6343 -19.6343 -19.6343 -19.6343 -19.6342 -19.6342
   -19.5996 -19.5995 -19.5995 -19.5994 -19.5814 -19.5814 -19.5814 -19.5814
   -19.5594 -19.5594 -19.5594 -19.5594 -19.5590 -19.5589 -19.5589 -19.5589
   -19.5255 -19.5254 -19.5253 -19.5252 -19.4442 -19.4442 -19.4442 -19.4442
    16.7694  16.7695  16.7697  16.7698  17.6300  17.6300  17.6300  17.6301
    17.7145  17.7146  17.7146  17.7147  17.7607  17.7607  17.7608  17.7608
    17.8989  17.8990  17.8990  17.8991  17.8991  17.8992  17.8993  17.8993
    18.2104  18.2104  18.2105  18.2106  18.2106  18.2106  18.2107  18.2107
    18.3102  18.3102  18.3103  18.3103  18.3103  18.3103  18.3104  18.3104
    18.5829  18.5830  18.5830  18.5830  19.2171  19.2171  19.2172  19.2172
    19.2173  19.2173  19.2174  19.2174  19.7866  19.7866  19.7866  19.7867
    20.0055  20.0056  20.0057  20.0058  20.2831  20.2832  20.2833  20.2833
    20.4941  20.4941  20.4941  20.4941  20.5073  20.5073  20.5074  20.5074
    20.8706  20.8706  20.8706  20.8706  20.8706  20.8706  20.8706  20.8706
    20.9602  20.9603  20.9603  20.9604  21.1390  21.1390  21.1391  21.1391
    21.1460  21.1460  21.1460  21.1460  21.2895  21.2895  21.2895  21.2896
    21.2896  21.2896  21.2897  21.2897  21.2933  21.2933  21.2933  21.2934
    21.5296  21.5297  21.5297  21.5298  21.6725  21.6725  21.6726  21.6726
    21.6726  21.6726  21.6727  21.6727  22.1967  22.1968  22.1968  22.1969
    23.1476  23.1478  23.1478  23.1479  23.3322  23.3322  23.3323  23.3323
    23.5536  23.5536  23.5537  23.5537  23.5537  23.5537  23.5538  23.5538
    24.0670  24.0671  24.0671  24.0671  24.1865  24.1865  24.1866  24.1866
    24.1866  24.1866  24.1867  24.1867  24.1924  24.1925  24.1925  24.1926
    24.4237  24.4238  24.4238  24.4238  24.4645  24.4645  24.4646  24.4646
    24.4646  24.4646  24.4646  24.4646  24.4714  24.4714  24.4714  24.4714
    24.7199  24.7200  24.7200  24.7201  27.3810  27.3811  27.3811  27.3811
    27.3812  27.3812  27.3812

          k =-0.5000-0.5000 0.1660 ( 30296 PWs)   bands (ev):

   -49.9455 -49.9454 -49.9454 -49.9453 -49.8912 -49.8911 -49.8910 -49.8909
   -49.8514 -49.8513 -49.8513 -49.8511 -49.8160 -49.8159 -49.8158 -49.8158
   -49.8158 -49.8158 -49.8157 -49.8156 -49.8156 -49.8155 -49.8155 -49.8154
   -49.8154 -49.8154 -49.8153 -49.8152 -49.7971 -49.7970 -49.7969 -49.7968
   -20.2691 -20.2691 -20.2691 -20.2691 -20.2690 -20.2690 -20.2690 -20.2690
   -20.2074 -20.2074 -20.2073 -20.2072 -20.2072 -20.2072 -20.2071 -20.2071
   -20.2015 -20.2013 -20.2013 -20.2012 -20.2008 -20.2007 -20.2007 -20.2006
   -20.0861 -20.0860 -20.0860 -20.0859 -19.9620 -19.9620 -19.9620 -19.9620
   -19.8115 -19.8115 -19.8115 -19.8115 -19.8115 -19.8115 -19.8115 -19.8115
   -19.8055 -19.8054 -19.8054 -19.8053 -19.8053 -19.8053 -19.8052 -19.8052
   -19.7714 -19.7714 -19.7714 -19.7713 -19.6993 -19.6993 -19.6992 -19.6992
   -19.6992 -19.6992 -19.6991 -19.6991 -19.6920 -19.6920 -19.6920 -19.6920
   -19.6468 -19.6468 -19.6468 -19.6467 -19.6378 -19.6378 -19.6378 -19.6377
   -19.6377 -19.6377 -19.6376 -19.6376 -19.6031 -19.6031 -19.6031 -19.6031
   -19.5377 -19.5377 -19.5377 -19.5377 -19.5265 -19.5264 -19.5264 -19.5263
   -19.5143 -19.5142 -19.5141 -19.5140 -19.4480 -19.4480 -19.4480 -19.4480
    16.7996  16.7997  16.7998  16.8000  17.4829  17.4829  17.4830  17.4830
    17.7461  17.7462  17.7462  17.7463  17.8623  17.8623  17.8623  17.8623
    17.8643  17.8643  17.8644  17.8644  17.8645  17.8645  17.8646  17.8646
    18.2311  18.2311  18.2312  18.2312  18.2312  18.2312  18.2313  18.2313
    18.3295  18.3295  18.3296  18.3296  18.3297  18.3297  18.3297  18.3298
    18.6142  18.6142  18.6143  18.6143  19.2487  19.2487  19.2488  19.2488
    19.2489  19.2489  19.2490  19.2490  19.7051  19.7051  19.7052  19.7053
    19.8463  19.8463  19.8463  19.8463  20.4261  20.4261  20.4262  20.4262
    20.5656  20.5656  20.5656  20.5656  20.5891  20.5892  20.5892  20.5893
    20.8200  20.8200  20.8200  20.8200  20.8201  20.8201  20.8201  20.8201
    20.9500  20.9501  20.9501  20.9502  21.0239  21.0239  21.0240  21.0240
    21.0932  21.0932  21.0932  21.0933  21.2690  21.2690  21.2690  21.2691
    21.2691  21.2691  21.2692  21.2692  21.4604  21.4605  21.4605  21.4606
    21.4842  21.4842  21.4842  21.4843  21.7508  21.7508  21.7509  21.7509
    21.7509  21.7509  21.7510  21.7510  22.3143  22.3144  22.3144  22.3145
    23.0055  23.0056  23.0056  23.0057  23.1979  23.1979  23.1979  23.1979
    23.1980  23.1980  23.1980  23.1980  23.2875  23.2876  23.2876  23.2877
    23.5490  23.5491  23.5491  23.5491  23.9275  23.9276  23.9276  23.9277
    24.4668  24.4668  24.4668  24.4668  24.4669  24.4669  24.4669  24.4669
    24.5319  24.5319  24.5319  24.5319  24.5319  24.5319  24.5320  24.5320
    24.5566  24.5566  24.5567  24.5567  24.6103  24.6103  24.6104  24.6104
    25.4781  25.4782  25.4782  25.4783  27.4634  27.4635  27.4635  27.4635
    27.4636  27.4636  27.4636

          k =-0.5000-0.5000 0.2767 ( 30248 PWs)   bands (ev):

   -49.9410 -49.9408 -49.9408 -49.9407 -49.9038 -49.9037 -49.9036 -49.9035
   -49.8388 -49.8387 -49.8387 -49.8385 -49.8159 -49.8159 -49.8158 -49.8157
   -49.8157 -49.8157 -49.8156 -49.8156 -49.8156 -49.8156 -49.8155 -49.8154
   -49.8154 -49.8154 -49.8153 -49.8153 -49.8017 -49.8015 -49.8015 -49.8014
   -20.2615 -20.2615 -20.2615 -20.2615 -20.2615 -20.2615 -20.2614 -20.2614
   -20.2221 -20.2220 -20.2220 -20.2219 -20.2175 -20.2174 -20.2173 -20.2172
   -20.2158 -20.2158 -20.2157 -20.2157 -20.2157 -20.2157 -20.2156 -20.2156
   -20.0346 -20.0345 -20.0345 -20.0345 -19.9196 -19.9195 -19.9195 -19.9195
   -19.8139 -19.8138 -19.8138 -19.8138 -19.8116 -19.8116 -19.8116 -19.8116
   -19.8116 -19.8116 -19.8116 -19.8116 -19.8077 -19.8076 -19.8076 -19.8075
   -19.8075 -19.8075 -19.8074 -19.8074 -19.6993 -19.6992 -19.6992 -19.6991
   -19.6894 -19.6894 -19.6893 -19.6893 -19.6892 -19.6892 -19.6892 -19.6892
   -19.6846 -19.6846 -19.6845 -19.6845 -19.6443 -19.6443 -19.6443 -19.6443
   -19.6442 -19.6442 -19.6441 -19.6441 -19.6237 -19.6237 -19.6237 -19.6237
   -19.5170 -19.5170 -19.5170 -19.5170 -19.5029 -19.5028 -19.5027 -19.5027
   -19.4996 -19.4995 -19.4995 -19.4994 -19.4556 -19.4556 -19.4556 -19.4556
    16.8590  16.8591  16.8592  16.8593  17.3318  17.3318  17.3319  17.3320
    17.8016  17.8017  17.8017  17.8017  17.8464  17.8464  17.8464  17.8465
    17.8465  17.8466  17.8466  17.8466  17.9242  17.9243  17.9243  17.9243
    18.1171  18.1171  18.1171  18.1171  18.1172  18.1172  18.1172  18.1173
    18.5107  18.5107  18.5107  18.5107  18.5108  18.5108  18.5109  18.5109
    18.6805  18.6805  18.6805  18.6805  19.2362  19.2362  19.2363  19.2364
    19.2364  19.2364  19.2365  19.2365  19.4155  19.4156  19.4157  19.4158
    19.9584  19.9584  19.9584  19.9584  20.4266  20.4266  20.4267  20.4267
    20.6686  20.6686  20.6687  20.6687  20.7436  20.7436  20.7437  20.7437
    20.8062  20.8063  20.8063  20.8063  20.8063  20.8063  20.8063  20.8064
    20.9309  20.9310  20.9310  20.9311  20.9491  20.9491  20.9492  20.9492
    21.0202  21.0202  21.0203  21.0203  21.2212  21.2212  21.2213  21.2213
    21.2214  21.2214  21.2214  21.2214  21.3331  21.3332  21.3332  21.3332
    21.7078  21.7079  21.7079  21.7080  21.8683  21.8683  21.8683  21.8683
    21.8684  21.8684  21.8684  21.8684  22.5153  22.5154  22.5154  22.5155
    22.7756  22.7757  22.7758  22.7759  22.8133  22.8133  22.8133  22.8133
    22.8134  22.8134  22.8135  22.8135  23.2012  23.2013  23.2013  23.2013
    23.2067  23.2067  23.2068  23.2068  23.6407  23.6408  23.6408  23.6409
    24.6427  24.6427  24.6427  24.6427  24.6427  24.6427  24.6428  24.6428
    24.6724  24.6724  24.6725  24.6725  24.6987  24.6987  24.6987  24.6987
    24.6988  24.6988  24.6988  24.6988  24.7425  24.7426  24.7426  24.7427
    26.3195  26.3196  26.3197  26.3197  27.6340  27.6340  27.6341  27.6341
    27.6341  27.6341  27.6342

          k =-0.5000-0.5000 0.3874 ( 30288 PWs)   bands (ev):

   -49.9343 -49.9342 -49.9341 -49.9340 -49.9154 -49.9153 -49.9153 -49.9151
   -49.8273 -49.8271 -49.8271 -49.8270 -49.8158 -49.8158 -49.8157 -49.8157
   -49.8157 -49.8156 -49.8156 -49.8156 -49.8156 -49.8155 -49.8155 -49.8155
   -49.8155 -49.8155 -49.8154 -49.8153 -49.8084 -49.8082 -49.8082 -49.8081
   -20.2512 -20.2512 -20.2512 -20.2512 -20.2511 -20.2511 -20.2511 -20.2511
   -20.2340 -20.2339 -20.2339 -20.2338 -20.2304 -20.2303 -20.2303 -20.2302
   -20.2269 -20.2269 -20.2268 -20.2268 -20.2268 -20.2268 -20.2267 -20.2267
   -19.9792 -19.9792 -19.9792 -19.9791 -19.8680 -19.8680 -19.8680 -19.8679
   -19.8658 -19.8658 -19.8657 -19.8657 -19.8116 -19.8116 -19.8116 -19.8115
   -19.8115 -19.8115 -19.8115 -19.8115 -19.8097 -19.8097 -19.8096 -19.8096
   -19.8096 -19.8096 -19.8095 -19.8095 -19.7550 -19.7550 -19.7550 -19.7549
   -19.6773 -19.6773 -19.6773 -19.6773 -19.6772 -19.6772 -19.6772 -19.6771
   -19.6736 -19.6736 -19.6736 -19.6736 -19.6536 -19.6536 -19.6536 -19.6535
   -19.6534 -19.6534 -19.6534 -19.6534 -19.6428 -19.6428 -19.6428 -19.6428
   -19.4979 -19.4979 -19.4979 -19.4979 -19.4887 -19.4886 -19.4886 -19.4885
   -19.4883 -19.4882 -19.4882 -19.4881 -19.4667 -19.4667 -19.4667 -19.4667
    16.9455  16.9456  16.9457  16.9458  17.1870  17.1870  17.1871  17.1872
    17.8635  17.8635  17.8636  17.8636  17.8637  17.8637  17.8637  17.8637
    17.8658  17.8658  17.8658  17.8659  17.9421  17.9421  17.9421  17.9421
    18.0059  18.0059  18.0059  18.0060  18.0060  18.0060  18.0061  18.0061
    18.7230  18.7230  18.7230  18.7231  18.7232  18.7232  18.7232  18.7232
    18.7888  18.7889  18.7889  18.7889  19.1273  19.1273  19.1273  19.1274
    19.1274  19.1274  19.1275  19.1275  19.1581  19.1582  19.1582  19.1583
    20.1058  20.1059  20.1059  20.1059  20.3720  20.3721  20.3721  20.3721
    20.8129  20.8129  20.8130  20.8130  20.8321  20.8321  20.8321  20.8322
    20.8813  20.8813  20.8813  20.8814  20.8814  20.8814  20.8814  20.8815
    20.9054  20.9055  20.9055  20.9056  20.9145  20.9145  20.9146  20.9146
    20.9564  20.9564  20.9565  20.9565  21.1357  21.1358  21.1358  21.1358
    21.1359  21.1359  21.1359  21.1359  21.1670  21.1671  21.1671  21.1672
    21.9587  21.9587  21.9588  21.9588  22.0135  22.0135  22.0135  22.0136
    22.0136  22.0136  22.0136  22.0136  22.4730  22.4730  22.4730  22.4731
    22.4731  22.4731  22.4732  22.4732  22.5070  22.5071  22.5071  22.5072
    22.7672  22.7673  22.7673  22.7674  23.0409  23.0410  23.0410  23.0410
    23.1095  23.1096  23.1096  23.1097  23.3437  23.3438  23.3438  23.3439
    24.7572  24.7572  24.7572  24.7572  24.7572  24.7572  24.7572  24.7573
    24.7699  24.7699  24.7699  24.7700  24.8137  24.8137  24.8138  24.8138
    24.8201  24.8201  24.8201  24.8201  24.8202  24.8202  24.8202  24.8202
    27.2258  27.2259  27.2259  27.2260  27.8894  27.8894  27.8894  27.8895
    27.8895  27.8895  27.8896

          k =-0.5000-0.5000-0.4981 ( 30376 PWs)   bands (ev):

   -49.9257 -49.9257 -49.9256 -49.9255 -49.9255 -49.9255 -49.9254 -49.9254
   -49.8170 -49.8170 -49.8169 -49.8169 -49.8169 -49.8168 -49.8167 -49.8167
   -49.8158 -49.8157 -49.8157 -49.8157 -49.8157 -49.8156 -49.8156 -49.8156
   -49.8156 -49.8156 -49.8156 -49.8155 -49.8155 -49.8154 -49.8154 -49.8154
   -20.2392 -20.2392 -20.2392 -20.2392 -20.2392 -20.2392 -20.2392 -20.2392
   -20.2391 -20.2391 -20.2391 -20.2391 -20.2391 -20.2391 -20.2391 -20.2390
   -20.2365 -20.2365 -20.2364 -20.2364 -20.2364 -20.2364 -20.2363 -20.2363
   -19.9221 -19.9221 -19.9221 -19.9220 -19.9220 -19.9220 -19.9220 -19.9220
   -19.8122 -19.8121 -19.8121 -19.8121 -19.8121 -19.8121 -19.8120 -19.8120
   -19.8110 -19.8110 -19.8110 -19.8110 -19.8110 -19.8110 -19.8109 -19.8109
   -19.8109 -19.8109 -19.8109 -19.8109 -19.8109 -19.8109 -19.8109 -19.8109
   -19.6650 -19.6650 -19.6650 -19.6650 -19.6650 -19.6650 -19.6650 -19.6650
   -19.6649 -19.6648 -19.6648 -19.6648 -19.6648 -19.6648 -19.6648 -19.6648
   -19.6596 -19.6596 -19.6596 -19.6596 -19.6596 -19.6596 -19.6596 -19.6595
   -19.4841 -19.4841 -19.4840 -19.4840 -19.4840 -19.4839 -19.4839 -19.4839
   -19.4810 -19.4810 -19.4810 -19.4810 -19.4809 -19.4809 -19.4809 -19.4809
    17.0562  17.0563  17.0564  17.0564  17.0564  17.0565  17.0565  17.0566
    17.9180  17.9180  17.9180  17.9180  17.9181  17.9181  17.9181  17.9181
    17.9182  17.9182  17.9182  17.9182  17.9182  17.9182  17.9182  17.9182
    17.9188  17.9188  17.9188  17.9188  17.9188  17.9188  17.9188  17.9188
    18.9407  18.9407  18.9407  18.9407  18.9407  18.9407  18.9408  18.9408
    18.9408  18.9409  18.9409  18.9409  18.9409  18.9409  18.9409  18.9410
    18.9471  18.9472  18.9472  18.9472  18.9472  18.9472  18.9473  18.9473
    20.2574  20.2574  20.2574  20.2574  20.2574  20.2574  20.2574  20.2574
    20.8754  20.8754  20.8754  20.8754  20.8755  20.8755  20.8755  20.8755
    20.9183  20.9183  20.9184  20.9184  20.9184  20.9184  20.9184  20.9184
    20.9857  20.9857  20.9858  20.9858  20.9858  20.9858  20.9858  20.9858
    21.0118  21.0118  21.0118  21.0118  21.0118  21.0119  21.0119  21.0119
    21.0119  21.0119  21.0119  21.0120  21.0120  21.0120  21.0120  21.0120
    22.2067  22.2067  22.2067  22.2067  22.2068  22.2068  22.2068  22.2068
    22.2068  22.2068  22.2068  22.2068  22.2068  22.2069  22.2069  22.2069
    22.2289  22.2289  22.2289  22.2289  22.2290  22.2290  22.2290  22.2290
    23.0338  23.0338  23.0338  23.0339  23.0339  23.0339  23.0339  23.0340
    23.0483  23.0483  23.0484  23.0484  23.0484  23.0484  23.0485  23.0485
    24.8214  24.8214  24.8215  24.8215  24.8215  24.8215  24.8215  24.8215
    24.8302  24.8302  24.8302  24.8302  24.8302  24.8302  24.8302  24.8302
    24.8302  24.8302  24.8302  24.8302  24.8303  24.8303  24.8303  24.8303
    28.1788  28.1795  28.1801  28.1805  28.1817  28.1843  28.1867  28.1953
    28.2048  28.2048  28.2048

     the Fermi energy is    23.0087 ev

!    total energy              =  -13813.30042094 Ry

     total all-electron energy =   -289989.690760 Ry
     estimated scf accuracy    <       0.00000094 Ry
     smearing contrib. (-TS)   =       0.02016815 Ry
     internal energy E=F+TS    =  -13813.32058909 Ry

     The total energy is F=E-TS. E is the sum of the following terms:
     one-electron contribution =   -1005.01983124 Ry
     hartree contribution      =     918.83032436 Ry
     xc contribution           =    -927.91520024 Ry
     ewald contribution        =   -5209.78029126 Ry
     one-center paw contrib.   =   -7589.43559070 Ry

     convergence has been achieved in  11 iterations

     Forces acting on atoms (cartesian axes, Ry/au):

     atom    1 type  1   force =     0.00000000    0.00000000    0.00000000
     atom    2 type  1   force =    -0.00012353   -0.00012353    0.00000000
     atom    3 type  1   force =    -0.00025899    0.00000000   -0.00013009
     atom    4 type  1   force =     0.00000000   -0.00025899   -0.00013009
     atom    5 type  1   force =     0.00000000    0.00000000    0.00000000
     atom    6 type  1   force =     0.00011558    0.00011558    0.00000000
     atom    7 type  1   force =    -0.00025899    0.00000000    0.00013009
     atom    8 type  1   force =     0.00000000   -0.00025899    0.00013009
     atom    9 type  1   force =     0.00000000    0.00000000    0.00000000
     atom   10 type  1   force =    -0.00012353    0.00012353    0.00000000
     atom   11 type  1   force =     0.00027755    0.00000000    0.00008577
     atom   12 type  1   force =     0.00000000    0.00025899   -0.00013009
     atom   13 type  1   force =     0.00000000    0.00000000    0.00000000
     atom   14 type  1   force =     0.00011558   -0.00011558    0.00000000
     atom   15 type  1   force =     0.00027755    0.00000000   -0.00008577
     atom   16 type  1   force =     0.00000000    0.00025899    0.00013009
     atom   17 type  1   force =     0.00000000    0.00000000    0.00000000
     atom   18 type  1   force =     0.00012353   -0.00012353    0.00000000
     atom   19 type  1   force =     0.00025899    0.00000000   -0.00013009
     atom   20 type  1   force =     0.00000000    0.00027755    0.00008577
     atom   21 type  1   force =     0.00000000    0.00000000    0.00000000
     atom   22 type  1   force =    -0.00011558    0.00011558    0.00000000
     atom   23 type  1   force =     0.00025899    0.00000000    0.00013009
     atom   24 type  1   force =     0.00000000    0.00027755   -0.00008577
     atom   25 type  1   force =     0.00000000    0.00000000    0.00000000
     atom   26 type  1   force =     0.00012353    0.00012353    0.00000000
     atom   27 type  1   force =    -0.00027755    0.00000000    0.00008577
     atom   28 type  1   force =     0.00000000   -0.00027755    0.00008577
     atom   29 type  1   force =     0.00000000    0.00000000    0.00000000
     atom   30 type  1   force =    -0.00011558   -0.00011558    0.00000000
     atom   31 type  1   force =    -0.00027755    0.00000000   -0.00008577
     atom   32 type  1   force =     0.00000000   -0.00027755   -0.00008577

     Total force =     0.001255     Total SCF correction =     0.005123
     SCF correction compared to forces is large: reduce conv_thr to get better values


     Computing stress (Cartesian axis) and pressure

          total   stress  (Ry/bohr**3)                   (kbar)     P=      -16.97
  -0.00009403   0.00000000   0.00000000          -13.83        0.00        0.00
   0.00000000  -0.00009403   0.00000000            0.00      -13.83        0.00
   0.00000000   0.00000000  -0.00015792            0.00        0.00      -23.23


     Writing output data file /scratch/YRylprKrHaeNnkGN.save/
 
     init_run     :     28.30s CPU     29.50s WALL (       1 calls)
     electrons    :    988.19s CPU   1004.68s WALL (       1 calls)
     forces       :     11.60s CPU     11.70s WALL (       1 calls)
     stress       :     66.96s CPU     67.49s WALL (       1 calls)

     Called by init_run:
     wfcinit      :     27.65s CPU     28.80s WALL (       1 calls)
     potinit      :      0.18s CPU      0.20s WALL (       1 calls)
     hinit0       :      0.13s CPU      0.13s WALL (       1 calls)

     Called by electrons:
     c_bands      :    888.50s CPU    902.71s WALL (      12 calls)
     sum_band     :     98.01s CPU    100.05s WALL (      12 calls)
     v_of_rho     :      0.16s CPU      0.18s WALL (      12 calls)
     newd         :      0.28s CPU      0.39s WALL (      12 calls)
     PAW_pot      :      1.11s CPU      1.18s WALL (      12 calls)
     mix_rho      :      0.05s CPU      0.06s WALL (      12 calls)

     Called by c_bands:
     init_us_2    :      3.83s CPU      3.92s WALL (    2025 calls)
     cegterg      :    874.26s CPU    887.86s WALL (     900 calls)

     Called by *egterg:
     cdiaghg      :    115.79s CPU    118.09s WALL (    3314 calls)
     h_psi        :    459.94s CPU    468.84s WALL (    3464 calls)
     s_psi        :     33.16s CPU     33.39s WALL (    3464 calls)
     g_psi        :      0.83s CPU      0.85s WALL (    2489 calls)

     Called by h_psi:
     h_psi:calbec :     64.42s CPU     64.92s WALL (    3464 calls)
     vloc_psi     :    360.98s CPU    368.73s WALL (    3464 calls)
     add_vuspsi   :     32.53s CPU     33.16s WALL (    3464 calls)

     General routines
     calbec       :    101.72s CPU    102.56s WALL (    4739 calls)
     fft          :      0.32s CPU      0.33s WALL (     180 calls)
     ffts         :      0.02s CPU      0.02s WALL (      24 calls)
     fftw         :    414.91s CPU    423.67s WALL ( 1656484 calls)
     interpolate  :      0.13s CPU      0.13s WALL (      12 calls)
 
     Parallel routines
     fft_scatt_xy :     28.90s CPU     29.37s WALL ( 1656688 calls)
     fft_scatt_yz :    336.86s CPU    344.42s WALL ( 1656688 calls)
 
     PWSCF        :  18m33.42s CPU  18m55.28s WALL

 
   This run was terminated on:  21:20:58  23Nov2021            

=------------------------------------------------------------------------------=
   JOB DONE.
=------------------------------------------------------------------------------=
