
     Program PWSCF v.6.7MaX starts on 23Nov2021 at 19:55:52 

     This program is part of the open-source Quantum ESPRESSO suite
     for quantum simulation of materials; please cite
         "P. Giannozzi et al., J. Phys.:Condens. Matter 21 395502 (2009);
         "P. Giannozzi et al., J. Phys.:Condens. Matter 29 465901 (2017);
          URL http://www.quantum-espresso.org", 
     in publications or presentations arising from this work. More details at
     http://www.quantum-espresso.org/quote

     Parallel version (MPI & OpenMP), running on      72 processor cores
     Number of MPI processes:                72
     Threads/MPI process:                     1

     MPI processes distributed on     1 nodes
     R & G space division:  proc/nbgrp/npool/nimage =      72
     Reading input from /rds/homes/b/bxp912/jobs/20211014_ru_eos/wd/ec/ec_3_004.in
Warning: card &CELL ignored
Warning: card CELL_DYNAMICS = 'BFGS', ignored
Warning: card CELL_FACTOR = 2.0, ignored
Warning: card PRESS = 0.0, ignored
Warning: card / ignored

     Current dimensions of program PWSCF are:
     Max number of different atomic species (ntypx) = 10
     Max number of k-points (npk) =  40000
     Max angular momentum in pseudopotentials (lmaxx) =  3
     file Ru.pbe-spn-kjpaw_psl.1.0.0.UPF: wavefunction(s)  4D renormalized

     Subspace diagonalization in iterative solution of the eigenvalue problem:
     one sub-group per band group will be used
     ELPA distributed-memory algorithm (size of sub-group:  8*  8 procs)

     Found symmetry operation: I + (  0.2500  0.2500  0.0000)
     This is a supercell, fractional translations are disabled
     Message from routine setup:
     using ibrav=0 with symmetry is DISCOURAGED, use correct ibrav instead
 
     Parallelization info
     --------------------
     sticks:   dense  smooth     PW     G-vecs:    dense   smooth      PW
     Min          98      65     17                 6256     3358     475
     Max          99      67     18                 6261     3363     482
     Sum        7113    4693   1281               450647   241905   34465
 


     bravais-lattice index     =            0
     lattice parameter (alat)  =      14.4007  a.u.
     unit-cell volume          =    2992.0449 (a.u.)^3
     number of atoms/cell      =           32
     number of atomic types    =            1
     number of electrons       =       512.00
     number of Kohn-Sham states=          307
     kinetic-energy cutoff     =      71.0000  Ry
     charge density cutoff     =     430.0000  Ry
     scf convergence threshold =      1.0E-06
     mixing beta               =       0.1000
     number of iterations used =           10  plain     mixing
     Exchange-correlation= SLA  PW   PBX  PBC
                           (   1   4   3   4   0   0   0)

     celldm(1)=  14.400742  celldm(2)=   0.000000  celldm(3)=   0.000000
     celldm(4)=   0.000000  celldm(5)=   0.000000  celldm(6)=   0.000000

     crystal axes: (cart. coord. in units of alat)
               a(1) = (   1.000000   0.000000   0.000000 )  
               a(2) = (   0.000000   1.000000   0.000000 )  
               a(3) = (   0.000000   0.000000   1.001875 )  

     reciprocal axes: (cart. coord. in units 2 pi/alat)
               b(1) = (  1.000000  0.000000  0.000000 )  
               b(2) = (  0.000000  1.000000  0.000000 )  
               b(3) = (  0.000000  0.000000  0.998129 )  


     PseudoPot. # 1 for Ru read from file:
     /rds/homes/b/bxp912/pp/Ru.pbe-spn-kjpaw_psl.1.0.0.UPF
     MD5 check sum: 0ae1f594dea09af7be8575c3a481d1ae
     Pseudo is Projector augmented-wave + core cor, Zval = 16.0
     Generated using "atomic" code by A. Dal Corso  v.5.1
     Shape of augmentation charge: PSQ
     Using radial grid of 1233 points,  6 beta functions with: 
                l(1) =   0
                l(2) =   0
                l(3) =   1
                l(4) =   1
                l(5) =   2
                l(6) =   2
     Q(r) pseudized with 0 coefficients 


     atomic species   valence    mass     pseudopotential
        Ru            16.00   101.07000     Ru( 1.00)

     16 Sym. Ops., with inversion, found



   Cartesian axes

     site n.     atom                  positions (alat units)
         1           Ru  tau(   1) = (   0.0000000   0.0000000   0.0000000  )
         2           Ru  tau(   2) = (   0.2500000   0.2500000   0.0000000  )
         3           Ru  tau(   3) = (   0.2500000   0.0000000   0.2504682  )
         4           Ru  tau(   4) = (   0.0000000   0.2500000   0.2504682  )
         5           Ru  tau(   5) = (   0.0000000   0.0000000   0.5009375  )
         6           Ru  tau(   6) = (   0.2499990   0.2499990   0.5009375  )
         7           Ru  tau(   7) = (   0.2500000   0.0000000   0.7514057  )
         8           Ru  tau(   8) = (   0.0000000   0.2500000   0.7514057  )
         9           Ru  tau(   9) = (   0.0000000   0.5000002   0.0000000  )
        10           Ru  tau(  10) = (   0.2500000   0.7500004   0.0000000  )
        11           Ru  tau(  11) = (   0.2499990   0.5000002   0.2504672  )
        12           Ru  tau(  12) = (   0.0000000   0.7500004   0.2504682  )
        13           Ru  tau(  13) = (   0.0000000   0.5000002   0.5009375  )
        14           Ru  tau(  14) = (   0.2499990   0.7500015   0.5009375  )
        15           Ru  tau(  15) = (   0.2499990   0.5000002   0.7514068  )
        16           Ru  tau(  16) = (   0.0000000   0.7500004   0.7514057  )
        17           Ru  tau(  17) = (   0.5000002   0.0000000   0.0000000  )
        18           Ru  tau(  18) = (   0.7500004   0.2500000   0.0000000  )
        19           Ru  tau(  19) = (   0.7500004   0.0000000   0.2504682  )
        20           Ru  tau(  20) = (   0.5000002   0.2499990   0.2504672  )
        21           Ru  tau(  21) = (   0.5000002   0.0000000   0.5009375  )
        22           Ru  tau(  22) = (   0.7500015   0.2499990   0.5009375  )
        23           Ru  tau(  23) = (   0.7500004   0.0000000   0.7514057  )
        24           Ru  tau(  24) = (   0.5000002   0.2499990   0.7514068  )
        25           Ru  tau(  25) = (   0.5000002   0.5000002   0.0000000  )
        26           Ru  tau(  26) = (   0.7500004   0.7500004   0.0000000  )
        27           Ru  tau(  27) = (   0.7500015   0.5000002   0.2504672  )
        28           Ru  tau(  28) = (   0.5000002   0.7500015   0.2504672  )
        29           Ru  tau(  29) = (   0.5000002   0.5000002   0.5009375  )
        30           Ru  tau(  30) = (   0.7500015   0.7500015   0.5009375  )
        31           Ru  tau(  31) = (   0.7500015   0.5000002   0.7514068  )
        32           Ru  tau(  32) = (   0.5000002   0.7500015   0.7514068  )

     number of k points=    75  Marzari-Vanderbilt smearing, width (Ry)=  0.0400
                       cart. coord. in units 2pi/alat
        k(    1) = (   0.0555556   0.0555556   0.0554516), wk =   0.0219479
        k(    2) = (   0.0555556   0.0555556   0.1663548), wk =   0.0219479
        k(    3) = (   0.0555556   0.0555556   0.2772579), wk =   0.0219479
        k(    4) = (   0.0555556   0.0555556   0.3881611), wk =   0.0219479
        k(    5) = (   0.0555556   0.0555556  -0.4990643), wk =   0.0109739
        k(    6) = (   0.0555556   0.1666667   0.0554516), wk =   0.0438957
        k(    7) = (   0.0555556   0.1666667   0.1663548), wk =   0.0438957
        k(    8) = (   0.0555556   0.1666667   0.2772579), wk =   0.0438957
        k(    9) = (   0.0555556   0.1666667   0.3881611), wk =   0.0438957
        k(   10) = (   0.0555556   0.1666667  -0.4990643), wk =   0.0219479
        k(   11) = (   0.0555556   0.2777778   0.0554516), wk =   0.0438957
        k(   12) = (   0.0555556   0.2777778   0.1663548), wk =   0.0438957
        k(   13) = (   0.0555556   0.2777778   0.2772579), wk =   0.0438957
        k(   14) = (   0.0555556   0.2777778   0.3881611), wk =   0.0438957
        k(   15) = (   0.0555556   0.2777778  -0.4990643), wk =   0.0219479
        k(   16) = (   0.0555556   0.3888889   0.0554516), wk =   0.0438957
        k(   17) = (   0.0555556   0.3888889   0.1663548), wk =   0.0438957
        k(   18) = (   0.0555556   0.3888889   0.2772579), wk =   0.0438957
        k(   19) = (   0.0555556   0.3888889   0.3881611), wk =   0.0438957
        k(   20) = (   0.0555556   0.3888889  -0.4990643), wk =   0.0219479
        k(   21) = (   0.0555556  -0.5000000   0.0554516), wk =   0.0219479
        k(   22) = (   0.0555556  -0.5000000   0.1663548), wk =   0.0219479
        k(   23) = (   0.0555556  -0.5000000   0.2772579), wk =   0.0219479
        k(   24) = (   0.0555556  -0.5000000   0.3881611), wk =   0.0219479
        k(   25) = (   0.0555556  -0.5000000  -0.4990643), wk =   0.0109739
        k(   26) = (   0.1666667   0.1666667   0.0554516), wk =   0.0219479
        k(   27) = (   0.1666667   0.1666667   0.1663548), wk =   0.0219479
        k(   28) = (   0.1666667   0.1666667   0.2772579), wk =   0.0219479
        k(   29) = (   0.1666667   0.1666667   0.3881611), wk =   0.0219479
        k(   30) = (   0.1666667   0.1666667  -0.4990643), wk =   0.0109739
        k(   31) = (   0.1666667   0.2777778   0.0554516), wk =   0.0438957
        k(   32) = (   0.1666667   0.2777778   0.1663548), wk =   0.0438957
        k(   33) = (   0.1666667   0.2777778   0.2772579), wk =   0.0438957
        k(   34) = (   0.1666667   0.2777778   0.3881611), wk =   0.0438957
        k(   35) = (   0.1666667   0.2777778  -0.4990643), wk =   0.0219479
        k(   36) = (   0.1666667   0.3888889   0.0554516), wk =   0.0438957
        k(   37) = (   0.1666667   0.3888889   0.1663548), wk =   0.0438957
        k(   38) = (   0.1666667   0.3888889   0.2772579), wk =   0.0438957
        k(   39) = (   0.1666667   0.3888889   0.3881611), wk =   0.0438957
        k(   40) = (   0.1666667   0.3888889  -0.4990643), wk =   0.0219479
        k(   41) = (   0.1666667  -0.5000000   0.0554516), wk =   0.0219479
        k(   42) = (   0.1666667  -0.5000000   0.1663548), wk =   0.0219479
        k(   43) = (   0.1666667  -0.5000000   0.2772579), wk =   0.0219479
        k(   44) = (   0.1666667  -0.5000000   0.3881611), wk =   0.0219479
        k(   45) = (   0.1666667  -0.5000000  -0.4990643), wk =   0.0109739
        k(   46) = (   0.2777778   0.2777778   0.0554516), wk =   0.0219479
        k(   47) = (   0.2777778   0.2777778   0.1663548), wk =   0.0219479
        k(   48) = (   0.2777778   0.2777778   0.2772579), wk =   0.0219479
        k(   49) = (   0.2777778   0.2777778   0.3881611), wk =   0.0219479
        k(   50) = (   0.2777778   0.2777778  -0.4990643), wk =   0.0109739
        k(   51) = (   0.2777778   0.3888889   0.0554516), wk =   0.0438957
        k(   52) = (   0.2777778   0.3888889   0.1663548), wk =   0.0438957
        k(   53) = (   0.2777778   0.3888889   0.2772579), wk =   0.0438957
        k(   54) = (   0.2777778   0.3888889   0.3881611), wk =   0.0438957
        k(   55) = (   0.2777778   0.3888889  -0.4990643), wk =   0.0219479
        k(   56) = (   0.2777778  -0.5000000   0.0554516), wk =   0.0219479
        k(   57) = (   0.2777778  -0.5000000   0.1663548), wk =   0.0219479
        k(   58) = (   0.2777778  -0.5000000   0.2772579), wk =   0.0219479
        k(   59) = (   0.2777778  -0.5000000   0.3881611), wk =   0.0219479
        k(   60) = (   0.2777778  -0.5000000  -0.4990643), wk =   0.0109739
        k(   61) = (   0.3888889   0.3888889   0.0554516), wk =   0.0219479
        k(   62) = (   0.3888889   0.3888889   0.1663548), wk =   0.0219479
        k(   63) = (   0.3888889   0.3888889   0.2772579), wk =   0.0219479
        k(   64) = (   0.3888889   0.3888889   0.3881611), wk =   0.0219479
        k(   65) = (   0.3888889   0.3888889  -0.4990643), wk =   0.0109739
        k(   66) = (   0.3888889  -0.5000000   0.0554516), wk =   0.0219479
        k(   67) = (   0.3888889  -0.5000000   0.1663548), wk =   0.0219479
        k(   68) = (   0.3888889  -0.5000000   0.2772579), wk =   0.0219479
        k(   69) = (   0.3888889  -0.5000000   0.3881611), wk =   0.0219479
        k(   70) = (   0.3888889  -0.5000000  -0.4990643), wk =   0.0109739
        k(   71) = (  -0.5000000  -0.5000000   0.0554516), wk =   0.0054870
        k(   72) = (  -0.5000000  -0.5000000   0.1663548), wk =   0.0054870
        k(   73) = (  -0.5000000  -0.5000000   0.2772579), wk =   0.0054870
        k(   74) = (  -0.5000000  -0.5000000   0.3881611), wk =   0.0054870
        k(   75) = (  -0.5000000  -0.5000000  -0.4990643), wk =   0.0027435

     Dense  grid:   450647 G-vectors     FFT dimensions: (  96,  96,  96)

     Smooth grid:   241905 G-vectors     FFT dimensions: (  80,  80,  80)

     Estimated max dynamical RAM per process >     185.66 MB

     Estimated total dynamical RAM >      13.05 GB

     Check: negative core charge=   -0.000002

     Initial potential from superposition of free atoms

     starting charge  511.97959, renormalised to  512.00000
     Starting wfcs are  320 randomized atomic wfcs
     Checking if some PAW data can be deallocated... 

     total cpu time spent up to now is       29.0 secs

     Self-consistent Calculation

     iteration #  1     ecut=    71.00 Ry     beta= 0.10
     Davidson diagonalization with overlap
     ethr =  1.00E-02,  avg # of iterations =  3.4

     Threshold (ethr) on eigenvalues was too large:
     Diagonalizing with lowered threshold

     Davidson diagonalization with overlap
     ethr =  8.30E-05,  avg # of iterations =  5.4

     total cpu time spent up to now is      214.8 secs

     total energy              =  -13813.41260396 Ry
     estimated scf accuracy    <       0.63759410 Ry

     iteration #  2     ecut=    71.00 Ry     beta= 0.10
     Davidson diagonalization with overlap
     ethr =  1.25E-04,  avg # of iterations =  1.0

     total cpu time spent up to now is      281.3 secs

     total energy              =  -13813.20416944 Ry
     estimated scf accuracy    <       0.39823695 Ry

     iteration #  3     ecut=    71.00 Ry     beta= 0.10
     Davidson diagonalization with overlap
     ethr =  7.78E-05,  avg # of iterations =  2.4

     total cpu time spent up to now is      368.2 secs

     total energy              =  -13813.30016905 Ry
     estimated scf accuracy    <       0.01231302 Ry

     iteration #  4     ecut=    71.00 Ry     beta= 0.10
     Davidson diagonalization with overlap
     c_bands:  1 eigenvalues not converged
     c_bands:  1 eigenvalues not converged
     ethr =  2.40E-06,  avg # of iterations =  3.3

     total cpu time spent up to now is      449.0 secs

     total energy              =  -13813.30004893 Ry
     estimated scf accuracy    <       0.00818999 Ry

     iteration #  5     ecut=    71.00 Ry     beta= 0.10
     Davidson diagonalization with overlap
     ethr =  1.60E-06,  avg # of iterations =  1.2

     total cpu time spent up to now is      507.3 secs

     total energy              =  -13813.30161147 Ry
     estimated scf accuracy    <       0.00552441 Ry

     iteration #  6     ecut=    71.00 Ry     beta= 0.10
     Davidson diagonalization with overlap
     ethr =  1.08E-06,  avg # of iterations =  3.6

     total cpu time spent up to now is      607.1 secs

     total energy              =  -13813.29930592 Ry
     estimated scf accuracy    <       0.01681201 Ry

     iteration #  7     ecut=    71.00 Ry     beta= 0.10
     Davidson diagonalization with overlap
     ethr =  1.08E-06,  avg # of iterations =  2.4

     total cpu time spent up to now is      695.4 secs

     total energy              =  -13813.30078210 Ry
     estimated scf accuracy    <       0.00103093 Ry

     iteration #  8     ecut=    71.00 Ry     beta= 0.10
     Davidson diagonalization with overlap
     ethr =  2.01E-07,  avg # of iterations =  2.4

     total cpu time spent up to now is      775.5 secs

     total energy              =  -13813.30086849 Ry
     estimated scf accuracy    <       0.00019739 Ry

     iteration #  9     ecut=    71.00 Ry     beta= 0.10
     Davidson diagonalization with overlap
     ethr =  3.86E-08,  avg # of iterations =  2.0

     total cpu time spent up to now is      848.8 secs

     total energy              =  -13813.30082703 Ry
     estimated scf accuracy    <       0.00015973 Ry

     iteration # 10     ecut=    71.00 Ry     beta= 0.10
     Davidson diagonalization with overlap
     ethr =  3.12E-08,  avg # of iterations =  2.0

     total cpu time spent up to now is      914.8 secs

     total energy              =  -13813.30081581 Ry
     estimated scf accuracy    <       0.00004626 Ry

     iteration # 11     ecut=    71.00 Ry     beta= 0.10
     Davidson diagonalization with overlap
     ethr =  9.03E-09,  avg # of iterations =  2.9

     total cpu time spent up to now is      997.0 secs

     total energy              =  -13813.30082168 Ry
     estimated scf accuracy    <       0.00000244 Ry

     iteration # 12     ecut=    71.00 Ry     beta= 0.10
     Davidson diagonalization with overlap
     ethr =  4.77E-10,  avg # of iterations =  4.2

     total cpu time spent up to now is     1102.8 secs

     total energy              =  -13813.30082308 Ry
     estimated scf accuracy    <       0.00000131 Ry

     iteration # 13     ecut=    71.00 Ry     beta= 0.10
     Davidson diagonalization with overlap
     ethr =  2.55E-10,  avg # of iterations =  2.1

     total cpu time spent up to now is     1178.8 secs

     End of self-consistent calculation

          k = 0.0556 0.0556 0.0555 ( 30281 PWs)   bands (ev):

   -49.9573 -49.8586 -49.8580 -49.8580 -49.8395 -49.8389 -49.8388 -49.8034
   -49.8034 -49.8033 -49.7941 -49.7930 -49.7930 -49.7929 -49.7929 -49.7929
   -49.7929 -49.7924 -49.7924 -49.7923 -49.7842 -49.7841 -49.7841 -49.7399
   -49.7389 -49.7389 -49.7388 -49.7387 -49.7386 -49.7385 -49.7382 -49.7382
   -20.3590 -20.3590 -20.3590 -20.3549 -20.2969 -20.2969 -20.2963 -20.0994
   -20.0966 -20.0966 -20.0881 -20.0881 -20.0853 -20.0853 -20.0852 -20.0852
   -20.0681 -20.0651 -20.0651 -20.0450 -20.0450 -20.0430 -20.0430 -20.0428
   -20.0428 -19.9950 -19.9950 -19.9927 -19.9926 -19.9923 -19.9923 -19.8947
   -19.8947 -19.8942 -19.8221 -19.8221 -19.8214 -19.8142 -19.8142 -19.8138
   -19.7810 -19.7810 -19.7805 -19.7805 -19.7801 -19.7801 -19.7408 -19.7408
   -19.7402 -19.7345 -19.7345 -19.7340 -19.7340 -19.7328 -19.7328 -19.7298
   -19.7298 -19.7259 -19.7239 -19.7239 -19.7213 -19.5632 -19.5632 -19.5611
   -19.5611 -19.5607 -19.5601 -19.5311 -19.5311 -19.5295 -19.5295 -19.5288
   -19.5288 -19.5158 -19.5158 -19.5135 -19.5042 -19.5027 -19.5027 -19.5024
   -19.5024 -19.5024 -19.5024 -19.5003 -19.5003 -19.4998 -19.4998 -19.4984
   -19.4983 -19.4956 -19.4840 -19.4840 -19.4820 -19.3711 -19.3643 -19.3641
    15.3016  16.8638  16.8638  16.8654  17.1417  17.1594  17.1594  17.1594
    17.3312  17.3312  17.3332  17.5491  17.5558  17.5558  17.7215  17.7280
    17.7280  18.2632  18.2632  18.2732  18.2732  18.2736  18.2736  18.5809
    18.5873  18.5873  18.8475  18.8475  18.8479  18.8520  18.8604  18.8604
    18.9539  18.9547  18.9548  18.9572  18.9572  18.9572  18.9572  18.9577
    18.9577  19.4435  19.4435  19.4486  19.4486  19.4528  19.4528  19.5859
    19.5956  19.5956  19.6174  19.6174  19.6273  19.6273  19.6280  19.6281
    19.6826  19.6915  19.6915  19.9466  19.9466  19.9491  19.9491  19.9506
    19.9507  19.9507  19.9507  19.9527  19.9527  19.9528  19.9548  19.9548
    19.9574  19.9574  20.1212  20.1212  20.1231  20.3944  20.4092  20.4092
    20.4303  20.4534  20.4534  20.4534  20.4684  20.5313  20.5630  20.5741
    21.5280  21.5454  21.5454  21.6965  21.7153  21.7154  21.7559  21.7559
    21.7620  21.8557  21.8557  21.8564  21.8564  21.8614  21.8614  21.8701
    21.8701  21.8749  22.1641  22.1641  22.1742  22.2850  22.2850  22.2912
    22.5321  22.5321  22.5416  22.6098  22.6098  22.6142  22.6142  22.6147
    22.6147  22.6284  22.6284  22.6370  22.6690  22.6690  22.6749  22.8577
    22.8577  22.8580  22.8581  22.8656  22.8656  22.9057  22.9325  23.0307
    23.0307  23.0384  23.6881  23.6881  23.7004  23.7387  23.7387  23.7412
    23.8484  23.8484  23.8589  23.9401  24.6683  24.6683  24.6697  24.7051
    24.7168  24.7399  24.7488  24.7488  25.0250  25.0304  25.0304  25.0520
    25.0520  25.0581  25.2091  25.2091  25.2098  25.2098  25.2186  25.2204
    25.2204  25.2247  25.2247  26.6551  26.6551  26.6683  26.8033  26.8390
    26.8390  27.1869  27.1869

          k = 0.0556 0.0556 0.1664 ( 30244 PWs)   bands (ev):

   -49.9540 -49.8773 -49.8562 -49.8561 -49.8373 -49.8373 -49.8208 -49.8137
   -49.8137 -49.8030 -49.8015 -49.8015 -49.7957 -49.7929 -49.7929 -49.7924
   -49.7924 -49.7907 -49.7844 -49.7827 -49.7827 -49.7755 -49.7755 -49.7432
   -49.7406 -49.7406 -49.7402 -49.7402 -49.7386 -49.7386 -49.7382 -49.7382
   -20.3516 -20.3478 -20.3478 -20.3397 -20.2887 -20.2887 -20.2834 -20.1298
   -20.1166 -20.1166 -20.1011 -20.1011 -20.0984 -20.0984 -20.0957 -20.0929
   -20.0929 -20.0678 -20.0678 -20.0532 -20.0532 -20.0398 -20.0398 -20.0386
   -20.0386 -20.0007 -20.0007 -19.9833 -19.9833 -19.9722 -19.9464 -19.9464
   -19.9071 -19.9071 -19.8623 -19.8623 -19.8304 -19.8304 -19.8195 -19.8195
   -19.7890 -19.7513 -19.7513 -19.7407 -19.7407 -19.7402 -19.7402 -19.7334
   -19.7320 -19.7320 -19.7227 -19.7227 -19.7205 -19.7195 -19.7195 -19.7183
   -19.7183 -19.7161 -19.7139 -19.7015 -19.7015 -19.5921 -19.5907 -19.5705
   -19.5705 -19.5532 -19.5532 -19.5382 -19.5382 -19.5353 -19.5353 -19.5269
   -19.5269 -19.5215 -19.5202 -19.5202 -19.5145 -19.5145 -19.5130 -19.5042
   -19.5010 -19.5003 -19.5003 -19.4996 -19.4995 -19.4980 -19.4971 -19.4955
   -19.4955 -19.4928 -19.4824 -19.4723 -19.4723 -19.3884 -19.3696 -19.3677
    15.3875  16.9159  16.9271  16.9271  17.1812  17.2164  17.2164  17.2338
    17.2470  17.3710  17.3930  17.3930  17.6176  17.6176  17.7451  17.7930
    17.7930  18.1433  18.1433  18.3210  18.3211  18.3253  18.3310  18.3310
    18.5347  18.6265  18.6265  18.6399  18.6399  18.6901  18.7096  18.7096
    18.8933  18.8933  18.8954  18.8954  18.9211  18.9211  18.9952  18.9952
    19.0530  19.0530  19.1319  19.4226  19.4226  19.4565  19.4565  19.5065
    19.5065  19.5209  19.5209  19.5781  19.5782  19.6655  19.6655  19.6932
    19.7734  19.7734  19.7878  19.7878  19.8809  19.8998  19.8998  19.9391
    19.9391  19.9534  19.9534  19.9642  19.9642  20.2025  20.2025  20.2264
    20.2264  20.2500  20.3012  20.3219  20.3590  20.3590  20.4276  20.4622
    20.4867  20.5010  20.5010  20.5146  20.5146  20.5313  20.6145  20.6209
    21.3154  21.3154  21.4447  21.4447  21.5201  21.5622  21.6714  21.6714
    21.7009  21.7888  21.7888  21.8354  21.9668  21.9668  21.9743  22.0000
    22.0000  22.0461  22.0461  22.0636  22.1378  22.1378  22.4656  22.4657
    22.4854  22.4854  22.4972  22.4972  22.6157  22.6157  22.6296  22.6296
    22.7460  22.7460  22.7689  22.7689  22.8343  22.8733  22.8774  22.8774
    22.9302  22.9567  23.0871  23.0871  23.1020  23.1449  23.1449  23.2360
    23.2632  23.2632  23.2777  23.3275  23.3275  23.5149  23.5483  23.7513
    23.7513  23.9420  23.9420  24.0200  24.4668  24.4668  24.5801  24.5801
    24.5896  24.6297  24.6900  24.6900  24.6919  24.8891  24.9690  25.0820
    25.0821  25.0840  25.0840  25.1088  25.2217  25.2217  25.2244  25.2244
    25.3993  25.3993  25.6259  26.1382  26.1382  26.5029  26.6095  26.6623
    26.6623  27.1466  27.1466

          k = 0.0556 0.0556 0.2773 ( 30236 PWs)   bands (ev):

   -49.9475 -49.8950 -49.8526 -49.8525 -49.8343 -49.8343 -49.8235 -49.8235
   -49.8098 -49.8097 -49.8028 -49.8024 -49.7974 -49.7928 -49.7928 -49.7925
   -49.7925 -49.7892 -49.7849 -49.7730 -49.7729 -49.7673 -49.7673 -49.7498
   -49.7442 -49.7442 -49.7432 -49.7432 -49.7386 -49.7385 -49.7383 -49.7382
   -20.3332 -20.3258 -20.3258 -20.3141 -20.2724 -20.2724 -20.2578 -20.1748
   -20.1603 -20.1603 -20.1395 -20.1387 -20.1387 -20.1043 -20.1043 -20.0986
   -20.0986 -20.0684 -20.0683 -20.0457 -20.0448 -20.0448 -20.0429 -20.0428
   -20.0068 -20.0068 -20.0034 -20.0034 -19.9680 -19.9680 -19.9292 -19.9292
   -19.9005 -19.9005 -19.8996 -19.8996 -19.8587 -19.8587 -19.8567 -19.8567
   -19.7590 -19.7590 -19.7398 -19.7306 -19.7306 -19.7233 -19.7233 -19.7097
   -19.7069 -19.7069 -19.7056 -19.7012 -19.7012 -19.6938 -19.6938 -19.6910
   -19.6910 -19.6729 -19.6639 -19.6639 -19.6556 -19.6220 -19.6200 -19.5850
   -19.5850 -19.5605 -19.5605 -19.5565 -19.5565 -19.5520 -19.5520 -19.5498
   -19.5399 -19.5399 -19.5372 -19.5372 -19.5213 -19.5119 -19.5056 -19.5056
   -19.5037 -19.5002 -19.5001 -19.4996 -19.4996 -19.4950 -19.4950 -19.4903
   -19.4833 -19.4683 -19.4674 -19.4674 -19.4669 -19.4190 -19.3805 -19.3779
    15.5567  16.8723  17.0136  17.0508  17.0508  17.2779  17.3296  17.3296
    17.3635  17.4462  17.5163  17.5163  17.6524  17.7371  17.7371  17.9193
    17.9193  17.9383  17.9383  18.0910  18.1988  18.2986  18.2986  18.3658
    18.4122  18.4122  18.4438  18.4438  18.5341  18.5341  18.5917  18.5917
    18.7039  18.7039  18.7509  18.7509  18.8689  18.8689  18.9572  18.9572
    19.1252  19.1252  19.3313  19.3313  19.3910  19.3910  19.3927  19.3928
    19.4124  19.4129  19.4129  19.4584  19.4584  19.5498  19.5498  19.7111
    19.7111  19.7573  19.8219  19.8219  19.8855  19.8856  19.9568  19.9568
    19.9742  19.9742  20.0375  20.0375  20.0532  20.2197  20.2849  20.2849
    20.3045  20.3045  20.3356  20.3899  20.5677  20.6148  20.6148  20.6272
    20.6407  20.6421  20.6421  20.7096  20.7141  20.7484  21.0391  21.0391
    21.0927  21.0927  21.1014  21.1014  21.3130  21.4249  21.4249  21.4594
    21.4676  21.5303  21.8717  21.9169  21.9169  22.1241  22.1241  22.1451
    22.1451  22.1832  22.1832  22.2594  22.2594  22.3792  22.3793  22.4775
    22.4775  22.5875  22.6071  22.6071  22.6159  22.6159  22.6440  22.6440
    22.6961  22.6961  22.6970  22.7705  22.7998  22.7998  22.9154  22.9820
    22.9820  23.0047  23.0483  23.0483  23.1925  23.3297  23.3954  23.3954
    23.4066  23.4750  23.4750  23.5217  23.5477  23.5477  23.5709  23.7864
    23.7864  23.9300  23.9300  24.1801  24.1966  24.1966  24.3727  24.3727
    24.4010  24.5356  24.5356  24.5420  24.5649  24.6266  24.8504  24.8504
    24.8522  24.8522  24.9121  25.2219  25.2219  25.2240  25.2240  25.3644
    25.6310  25.6310  25.8346  25.8346  25.9784  26.1352  26.1353  26.1831
    26.4895  27.0295  27.0295

          k = 0.0556 0.0556 0.3882 ( 30204 PWs)   bands (ev):

   -49.9381 -49.9114 -49.8473 -49.8473 -49.8326 -49.8325 -49.8298 -49.8298
   -49.8174 -49.8174 -49.8015 -49.7989 -49.7927 -49.7927 -49.7925 -49.7925
   -49.7879 -49.7863 -49.7857 -49.7640 -49.7640 -49.7598 -49.7598 -49.7593
   -49.7494 -49.7493 -49.7475 -49.7475 -49.7385 -49.7385 -49.7383 -49.7383
   -20.3046 -20.2941 -20.2941 -20.2790 -20.2484 -20.2484 -20.2226 -20.2202
   -20.2083 -20.2083 -20.1884 -20.1806 -20.1806 -20.1127 -20.1032 -20.1032
   -20.0898 -20.0898 -20.0836 -20.0835 -20.0581 -20.0580 -20.0175 -20.0175
   -19.9894 -19.9894 -19.9708 -19.9708 -19.9572 -19.9572 -19.9472 -19.9472
   -19.9352 -19.9352 -19.8941 -19.8941 -19.8909 -19.8909 -19.8561 -19.8561
   -19.7848 -19.7848 -19.7288 -19.7288 -19.7248 -19.7248 -19.6940 -19.6902
   -19.6860 -19.6651 -19.6651 -19.6612 -19.6612 -19.6580 -19.6580 -19.6579
   -19.6579 -19.6494 -19.6468 -19.6291 -19.6291 -19.6278 -19.6060 -19.6060
   -19.5903 -19.5903 -19.5900 -19.5900 -19.5880 -19.5829 -19.5723 -19.5723
   -19.5699 -19.5699 -19.5488 -19.5248 -19.5248 -19.5104 -19.5062 -19.5005
   -19.5004 -19.5000 -19.5000 -19.4997 -19.4997 -19.4902 -19.4902 -19.4881
   -19.4845 -19.4693 -19.4693 -19.4626 -19.4410 -19.4390 -19.3964 -19.3937
    15.8032  16.4821  17.1518  17.2281  17.2281  17.4306  17.4956  17.4976
    17.4976  17.5462  17.5576  17.6938  17.6938  17.6998  17.6998  17.8826
    17.8955  17.9057  17.9057  17.9870  17.9870  18.0547  18.0983  18.0983
    18.2399  18.2399  18.3269  18.3270  18.5357  18.5357  18.5442  18.5442
    18.6072  18.6073  18.7884  18.7884  18.8176  18.8176  19.0336  19.0336
    19.0485  19.0485  19.1399  19.1399  19.2872  19.2872  19.3266  19.3267
    19.3662  19.3662  19.4331  19.4331  19.4441  19.4441  19.6839  19.6933
    19.6933  19.7429  19.7429  19.8548  19.9763  19.9764  19.9815  19.9815
    19.9827  19.9827  20.0990  20.1530  20.1569  20.1904  20.1904  20.2151
    20.2151  20.3250  20.4111  20.4111  20.6949  20.7573  20.7573  20.7652
    20.7652  20.7833  20.7833  20.7940  20.8499  20.8530  21.0742  21.0795
    21.0795  21.1420  21.2128  21.2339  21.2470  21.2470  21.2516  21.2630
    21.7235  21.7235  22.0404  22.0404  22.0415  22.1111  22.1111  22.2486
    22.2486  22.2537  22.3038  22.3128  22.3128  22.3586  22.3586  22.3931
    22.3931  22.4434  22.4434  22.4534  22.4534  22.5048  22.5714  22.5714
    22.6068  22.6068  22.6320  22.6320  22.7194  22.7194  22.9386  22.9386
    23.0754  23.0804  23.0804  23.1850  23.2786  23.3943  23.3943  23.5291
    23.7213  23.7213  23.7251  23.8266  23.8315  23.8315  23.8701  23.8701
    24.0925  24.0930  24.0930  24.1512  24.2487  24.2496  24.2497  24.3110
    24.3110  24.3373  24.3684  24.3757  24.5454  24.5454  24.5485  24.5485
    24.6035  24.6035  24.6851  25.1367  25.1367  25.2222  25.2222  25.2234
    25.2234  25.3379  25.6075  25.6076  25.7362  26.2406  26.2406  26.3049
    26.6744  26.8434  26.8434

          k = 0.0556 0.0556-0.4991 ( 30204 PWs)   bands (ev):

   -49.9259 -49.9259 -49.8406 -49.8406 -49.8406 -49.8406 -49.8242 -49.8242
   -49.8241 -49.8241 -49.8003 -49.8003 -49.7926 -49.7926 -49.7926 -49.7926
   -49.7867 -49.7867 -49.7716 -49.7716 -49.7560 -49.7560 -49.7560 -49.7560
   -49.7531 -49.7531 -49.7531 -49.7531 -49.7384 -49.7384 -49.7384 -49.7384
   -20.2670 -20.2670 -20.2541 -20.2541 -20.2541 -20.2541 -20.2362 -20.2362
   -20.2176 -20.2176 -20.2176 -20.2176 -20.1713 -20.1713 -20.0959 -20.0959
   -20.0959 -20.0959 -20.0756 -20.0755 -20.0755 -20.0755 -19.9876 -19.9876
   -19.9876 -19.9876 -19.9654 -19.9654 -19.9654 -19.9654 -19.9325 -19.9325
   -19.9325 -19.9325 -19.9213 -19.9213 -19.9213 -19.9213 -19.8175 -19.8175
   -19.8175 -19.8175 -19.7268 -19.7268 -19.7268 -19.7268 -19.6737 -19.6737
   -19.6704 -19.6704 -19.6342 -19.6342 -19.6330 -19.6330 -19.6330 -19.6330
   -19.6256 -19.6256 -19.6256 -19.6256 -19.6235 -19.6235 -19.6235 -19.6235
   -19.6110 -19.6110 -19.6110 -19.6110 -19.5983 -19.5983 -19.5983 -19.5983
   -19.5851 -19.5851 -19.5178 -19.5178 -19.5109 -19.5109 -19.5109 -19.5109
   -19.5085 -19.5085 -19.4999 -19.4999 -19.4999 -19.4999 -19.4861 -19.4861
   -19.4774 -19.4774 -19.4774 -19.4774 -19.4168 -19.4168 -19.4143 -19.4143
    16.1170  16.1170  17.3188  17.3188  17.4482  17.4482  17.4482  17.4482
    17.6376  17.6376  17.7038  17.7039  17.7179  17.7180  17.7180  17.7180
    17.7784  17.7784  17.9417  17.9417  17.9418  17.9418  18.1091  18.1092
    18.1092  18.1092  18.3148  18.3148  18.3148  18.3148  18.6710  18.6710
    18.6710  18.6710  18.8123  18.8123  18.8123  18.8124  18.9645  18.9645
    18.9646  18.9646  19.1614  19.1614  19.1614  19.1614  19.3719  19.3719
    19.3719  19.3719  19.3940  19.3940  19.3940  19.3940  19.6981  19.6981
    19.6981  19.6982  19.9359  19.9359  19.9729  19.9729  19.9848  19.9848
    19.9848  19.9848  20.0856  20.0856  20.0856  20.0856  20.2430  20.2430
    20.4640  20.4640  20.4640  20.4640  20.5705  20.5705  20.5705  20.5705
    20.8653  20.8653  20.9380  20.9380  20.9381  20.9381  20.9870  20.9870
    21.0330  21.0330  21.0365  21.0365  21.7025  21.7025  21.7025  21.7025
    21.7081  21.7081  21.7389  21.7389  22.0927  22.0927  22.0927  22.0927
    22.2762  22.2762  22.3884  22.3884  22.3884  22.3884  22.4101  22.4101
    22.4101  22.4101  22.4913  22.4913  22.4913  22.4913  22.5020  22.5020
    22.5020  22.5020  22.5694  22.5695  22.5695  22.5695  22.8212  22.8212
    22.8212  22.8212  23.1674  23.1674  23.7563  23.7563  23.7563  23.7563
    23.7614  23.7614  23.8550  23.8550  24.0336  24.0336  24.0336  24.0336
    24.0905  24.0906  24.1164  24.1164  24.1958  24.1958  24.1958  24.1958
    24.2116  24.2116  24.2117  24.2117  24.4971  24.4971  24.6675  24.6675
    24.6675  24.6675  24.6854  24.6854  25.0895  25.0895  25.0895  25.0895
    25.2228  25.2228  25.2228  25.2228  26.0532  26.0532  26.5808  26.5808
    26.5808  26.5808  27.0715

          k = 0.0556 0.1667 0.0555 ( 30270 PWs)   bands (ev):

   -49.9540 -49.8768 -49.8567 -49.8562 -49.8380 -49.8373 -49.8200 -49.8138
   -49.8136 -49.8031 -49.8017 -49.8015 -49.7958 -49.7930 -49.7929 -49.7924
   -49.7924 -49.7907 -49.7844 -49.7826 -49.7825 -49.7756 -49.7754 -49.7420
   -49.7405 -49.7404 -49.7400 -49.7398 -49.7397 -49.7390 -49.7387 -49.7385
   -20.3516 -20.3478 -20.3477 -20.3396 -20.2886 -20.2880 -20.2840 -20.1276
   -20.1143 -20.1141 -20.1036 -20.1013 -20.1012 -20.0988 -20.0932 -20.0912
   -20.0911 -20.0705 -20.0674 -20.0551 -20.0534 -20.0419 -20.0416 -20.0399
   -20.0385 -20.0028 -20.0008 -19.9859 -19.9836 -19.9727 -19.9439 -19.9434
   -19.9074 -19.9066 -19.8628 -19.8618 -19.8308 -19.8299 -19.8204 -19.8192
   -19.7891 -19.7517 -19.7514 -19.7394 -19.7392 -19.7387 -19.7364 -19.7341
   -19.7338 -19.7328 -19.7247 -19.7243 -19.7207 -19.7197 -19.7185 -19.7184
   -19.7176 -19.7169 -19.7140 -19.7011 -19.7007 -19.5948 -19.5921 -19.5686
   -19.5679 -19.5549 -19.5525 -19.5366 -19.5359 -19.5353 -19.5330 -19.5269
   -19.5248 -19.5214 -19.5196 -19.5195 -19.5152 -19.5137 -19.5123 -19.5031
   -19.5024 -19.5023 -19.5023 -19.5019 -19.5004 -19.4996 -19.4980 -19.4955
   -19.4947 -19.4937 -19.4845 -19.4722 -19.4705 -19.3883 -19.3698 -19.3677
    15.3878  16.9146  16.9275  16.9292  17.1813  17.2164  17.2165  17.2339
    17.2533  17.3692  17.3929  17.3951  17.6114  17.6179  17.7508  17.7871
    17.7934  18.1520  18.1531  18.3120  18.3212  18.3218  18.3299  18.3309
    18.5356  18.6203  18.6261  18.6410  18.6413  18.6914  18.7102  18.7111
    18.8852  18.8928  18.8969  18.8970  18.9204  18.9216  18.9911  18.9990
    19.0523  19.0528  19.1424  19.4264  19.4309  19.4474  19.4526  19.4983
    19.5056  19.5124  19.5201  19.5731  19.5793  19.6641  19.6644  19.6987
    19.7707  19.7734  19.7939  19.7964  19.8912  19.9046  19.9092  19.9350
    19.9377  19.9494  19.9525  19.9535  19.9598  20.2000  20.2016  20.2230
    20.2241  20.2467  20.3009  20.3374  20.3570  20.3747  20.4408  20.4730
    20.4801  20.4940  20.4982  20.5063  20.5149  20.5163  20.5981  20.6188
    21.3000  21.3113  21.4287  21.4419  21.5327  21.5535  21.6635  21.6638
    21.6938  21.7906  21.7964  21.8247  21.9675  21.9719  21.9728  22.0020
    22.0053  22.0488  22.0522  22.0834  22.1431  22.1503  22.4668  22.4746
    22.4858  22.4888  22.5001  22.5080  22.6120  22.6160  22.6266  22.6311
    22.7472  22.7535  22.7731  22.7744  22.8530  22.8676  22.8783  22.8808
    22.9215  22.9384  23.0817  23.0823  23.0978  23.1451  23.1511  23.2309
    23.2637  23.2703  23.2748  23.3251  23.3285  23.5143  23.5345  23.7507
    23.7614  23.9421  23.9503  24.0112  24.4631  24.4771  24.5803  24.5816
    24.5975  24.6278  24.6904  24.6988  24.7003  24.8946  24.9606  25.0830
    25.0835  25.0962  25.0975  25.1099  25.2056  25.2081  25.2103  25.2121
    25.3923  25.3964  25.6202  26.1382  26.1485  26.5367  26.5967  26.6621
    26.6756  27.1312  27.1315

          k = 0.0556 0.1667 0.1664 ( 30261 PWs)   bands (ev):

   -49.9507 -49.8751 -49.8747 -49.8544 -49.8358 -49.8257 -49.8195 -49.8187
   -49.8131 -49.8130 -49.8012 -49.8012 -49.7991 -49.7941 -49.7899 -49.7896
   -49.7892 -49.7891 -49.7830 -49.7829 -49.7761 -49.7761 -49.7684 -49.7431
   -49.7421 -49.7420 -49.7418 -49.7411 -49.7403 -49.7399 -49.7394 -49.7386
   -20.3444 -20.3444 -20.3330 -20.3208 -20.2804 -20.2764 -20.2758 -20.1359
   -20.1339 -20.1299 -20.1276 -20.0980 -20.0977 -20.0968 -20.0963 -20.0945
   -20.0903 -20.0898 -20.0865 -20.0848 -20.0681 -20.0656 -20.0632 -20.0631
   -20.0034 -19.9814 -19.9808 -19.9769 -19.9768 -19.9610 -19.9589 -19.9388
   -19.9358 -19.9209 -19.9040 -19.8478 -19.8258 -19.8258 -19.7886 -19.7885
   -19.7784 -19.7771 -19.7561 -19.7535 -19.7531 -19.7350 -19.7308 -19.7201
   -19.7194 -19.7172 -19.7166 -19.7165 -19.7152 -19.7149 -19.7148 -19.7142
   -19.7060 -19.7055 -19.6775 -19.6772 -19.6633 -19.6025 -19.5994 -19.5856
   -19.5847 -19.5630 -19.5585 -19.5498 -19.5352 -19.5345 -19.5343 -19.5319
   -19.5282 -19.5263 -19.5262 -19.5243 -19.5243 -19.5242 -19.5114 -19.5079
   -19.5072 -19.5063 -19.5058 -19.5044 -19.4981 -19.4960 -19.4942 -19.4936
   -19.4877 -19.4872 -19.4732 -19.4714 -19.4555 -19.4101 -19.3747 -19.3670
    15.4724  16.9782  16.9799  16.9848  17.2015  17.2539  17.3057  17.3057
    17.3082  17.3140  17.4305  17.4324  17.4586  17.6644  17.8131  17.8182
    17.8396  18.1764  18.1839  18.2033  18.2126  18.3702  18.3747  18.3783
    18.3787  18.4231  18.4232  18.5003  18.5646  18.5649  18.6808  18.7258
    18.7268  18.7462  18.7478  18.7720  18.9389  19.0114  19.0143  19.0149
    19.0170  19.0443  19.0466  19.1582  19.1682  19.3873  19.3940  19.4926
    19.4932  19.5160  19.5672  19.5697  19.6002  19.6013  19.6502  19.6542
    19.6724  19.8557  19.8610  19.8658  19.8698  19.9535  19.9615  20.0254
    20.0279  20.0739  20.1432  20.1466  20.2455  20.2524  20.2718  20.2727
    20.3108  20.3140  20.3516  20.4108  20.4166  20.4267  20.4352  20.4548
    20.4929  20.4979  20.5099  20.5544  20.5931  20.6004  20.6270  20.6623
    21.1778  21.2787  21.3033  21.3161  21.5579  21.5686  21.7239  21.7299
    21.7363  21.7454  21.7455  21.8057  21.8198  21.8304  21.8375  21.8567
    21.8640  22.0112  22.0784  22.1828  22.1831  22.2025  22.2040  22.2526
    22.3297  22.6157  22.6164  22.7307  22.7411  22.7467  22.7562  22.7608
    22.7970  22.7997  22.8187  22.8775  22.8864  22.9310  22.9549  22.9566
    23.0174  23.0214  23.0364  23.0763  23.0768  23.1769  23.2670  23.3267
    23.3284  23.3565  23.3612  23.4366  23.4482  23.4531  23.5735  23.5853
    23.7812  23.9773  24.1493  24.1527  24.1558  24.2855  24.2878  24.4625
    24.5725  24.5743  24.6408  24.7145  24.7181  24.7320  24.7430  24.9794
    24.9801  25.0804  25.0861  25.0951  25.0990  25.1070  25.1152  25.1518
    25.3473  25.6386  25.9808  25.9817  26.0802  26.0903  26.6075  26.6204
    27.1001  27.1257  27.2213

          k = 0.0556 0.1667 0.2773 ( 30230 PWs)   bands (ev):

   -49.9444 -49.8927 -49.8705 -49.8509 -49.8370 -49.8329 -49.8226 -49.8162
   -49.8118 -49.8092 -49.8022 -49.8018 -49.8006 -49.7963 -49.7957 -49.7877
   -49.7861 -49.7834 -49.7785 -49.7772 -49.7735 -49.7681 -49.7618 -49.7496
   -49.7455 -49.7452 -49.7448 -49.7422 -49.7417 -49.7406 -49.7392 -49.7387
   -20.3300 -20.3266 -20.3080 -20.2917 -20.2642 -20.2615 -20.2516 -20.1816
   -20.1730 -20.1395 -20.1387 -20.1334 -20.1333 -20.1315 -20.1110 -20.1049
   -20.1040 -20.0882 -20.0867 -20.0793 -20.0766 -20.0731 -20.0693 -20.0506
   -20.0324 -19.9970 -19.9813 -19.9638 -19.9633 -19.9500 -19.9447 -19.9425
   -19.9214 -19.9179 -19.8925 -19.8776 -19.8607 -19.8247 -19.8130 -19.7873
   -19.7789 -19.7729 -19.7531 -19.7418 -19.7380 -19.7196 -19.7196 -19.7172
   -19.7126 -19.7116 -19.7045 -19.6966 -19.6884 -19.6834 -19.6818 -19.6795
   -19.6784 -19.6750 -19.6428 -19.6403 -19.6296 -19.6271 -19.6175 -19.6153
   -19.5748 -19.5743 -19.5699 -19.5678 -19.5603 -19.5587 -19.5575 -19.5550
   -19.5451 -19.5405 -19.5299 -19.5277 -19.5274 -19.5230 -19.5195 -19.5131
   -19.5124 -19.5110 -19.5092 -19.5034 -19.4962 -19.4952 -19.4886 -19.4744
   -19.4732 -19.4726 -19.4690 -19.4565 -19.4457 -19.4442 -19.3857 -19.3727
    15.6388  16.9358  17.0781  17.0975  17.1024  17.2773  17.3461  17.4309
    17.4318  17.4471  17.5063  17.5525  17.5883  17.7206  17.7528  17.9272
    17.9497  17.9576  17.9965  18.1096  18.1405  18.2327  18.2431  18.2723
    18.2982  18.3298  18.4117  18.4395  18.4585  18.4638  18.4676  18.4905
    18.6148  18.6368  18.6476  18.7522  18.7904  18.8600  18.8650  19.0306
    19.0457  19.0653  19.1051  19.2171  19.2430  19.3033  19.3218  19.3474
    19.3565  19.4128  19.4314  19.4849  19.5623  19.5724  19.5970  19.6701
    19.6947  19.7340  19.8495  19.9600  19.9959  20.0356  20.0633  20.0954
    20.1108  20.1422  20.1690  20.2020  20.2636  20.2844  20.3014  20.3218
    20.3223  20.4130  20.4383  20.4787  20.4882  20.5512  20.5834  20.5889
    20.6526  20.7123  20.7151  20.7276  20.7325  20.7478  20.9713  20.9822
    21.0181  21.0687  21.0903  21.3079  21.3136  21.3223  21.4817  21.5209
    21.5973  21.6121  21.6361  21.7649  21.7977  21.8541  21.9239  22.0215
    22.0392  22.0773  22.1289  22.1662  22.2196  22.2338  22.3299  22.4122
    22.4404  22.5240  22.5308  22.5658  22.5783  22.6009  22.6982  22.7144
    22.7267  22.7361  22.8292  22.8517  22.9181  22.9733  23.0211  23.0370
    23.0540  23.0817  23.0891  23.2756  23.3649  23.3662  23.3849  23.4234
    23.4385  23.5964  23.6131  23.6555  23.6603  23.6641  23.6946  23.7097
    23.7206  23.7988  23.9112  24.0008  24.1629  24.2766  24.3765  24.4018
    24.4113  24.4868  24.5119  24.6244  24.6408  24.6460  24.7910  24.7924
    24.8512  24.8558  24.9215  24.9810  25.0946  25.1005  25.1111  25.1197
    25.1596  25.5437  25.5750  25.9735  26.0825  26.4094  26.5083  26.5880
    26.5915  26.6820  27.6111

          k = 0.0556 0.1667 0.3882 ( 30216 PWs)   bands (ev):

   -49.9350 -49.9088 -49.8645 -49.8474 -49.8458 -49.8314 -49.8286 -49.8166
   -49.8126 -49.8101 -49.8052 -49.8025 -49.7997 -49.7972 -49.7863 -49.7855
   -49.7841 -49.7833 -49.7788 -49.7681 -49.7647 -49.7609 -49.7590 -49.7557
   -49.7512 -49.7506 -49.7490 -49.7458 -49.7415 -49.7410 -49.7390 -49.7388
   -20.3050 -20.2987 -20.2738 -20.2539 -20.2404 -20.2396 -20.2284 -20.2191
   -20.2160 -20.1860 -20.1777 -20.1731 -20.1602 -20.1315 -20.1265 -20.1142
   -20.1130 -20.1110 -20.1072 -20.0974 -20.0742 -20.0604 -20.0587 -20.0397
   -20.0168 -20.0007 -19.9949 -19.9761 -19.9749 -19.9451 -19.9217 -19.9195
   -19.9147 -19.9012 -19.8928 -19.8771 -19.8591 -19.8495 -19.8463 -19.8289
   -19.8068 -19.7786 -19.7193 -19.7179 -19.7157 -19.7107 -19.7094 -19.7033
   -19.7006 -19.6903 -19.6885 -19.6656 -19.6575 -19.6564 -19.6541 -19.6517
   -19.6469 -19.6434 -19.6393 -19.6315 -19.6109 -19.6101 -19.6081 -19.5999
   -19.5963 -19.5951 -19.5937 -19.5936 -19.5934 -19.5876 -19.5873 -19.5605
   -19.5590 -19.5547 -19.5390 -19.5352 -19.5312 -19.5289 -19.5268 -19.5212
   -19.5184 -19.5160 -19.5024 -19.5007 -19.4966 -19.4945 -19.4893 -19.4837
   -19.4760 -19.4716 -19.4581 -19.4468 -19.4431 -19.4286 -19.4017 -19.3855
    15.8813  16.5501  17.2171  17.2614  17.2806  17.4082  17.4922  17.5630
    17.5995  17.6075  17.6160  17.6375  17.7090  17.7341  17.7496  17.7784
    17.8283  17.8737  17.9358  17.9387  18.0357  18.0466  18.1029  18.1378
    18.1441  18.1597  18.2679  18.3155  18.3224  18.3275  18.5007  18.5190
    18.5848  18.5965  18.6222  18.6530  18.7538  18.9544  18.9599  18.9770
    18.9900  19.0889  19.1031  19.1506  19.1659  19.2012  19.2213  19.2296
    19.2698  19.2832  19.4223  19.4237  19.4290  19.5390  19.6906  19.6953
    19.6973  19.7697  19.9639  19.9784  20.0173  20.0490  20.0740  20.0790
    20.1112  20.1503  20.1525  20.2339  20.2374  20.2377  20.2777  20.3098
    20.4027  20.4196  20.4446  20.6420  20.7036  20.7329  20.7557  20.7873
    20.8488  20.8730  20.8767  20.8781  20.8960  20.8981  20.9004  20.9314
    21.0214  21.1181  21.1637  21.1966  21.2576  21.2688  21.3571  21.3857
    21.5924  21.6787  21.7247  21.7957  21.8083  21.8600  21.9677  22.0369
    22.0556  22.0861  22.1158  22.1395  22.1409  22.1431  22.2164  22.2831
    22.3477  22.4064  22.5036  22.5182  22.5499  22.6109  22.6383  22.6612
    22.6672  22.7736  22.8157  22.8286  22.9183  22.9501  22.9626  23.0501
    23.0841  23.1246  23.2783  23.3024  23.3518  23.3520  23.4264  23.4453
    23.6222  23.6606  23.7236  23.8161  23.9383  23.9386  23.9622  23.9685
    23.9911  24.0042  24.0153  24.1081  24.1197  24.2032  24.2048  24.3039
    24.3770  24.4813  24.4861  24.5467  24.5474  24.5479  24.5535  24.5598
    24.7018  24.7050  24.7731  25.0149  25.0829  25.0952  25.1021  25.1048
    25.1071  25.2875  25.5567  25.7981  25.8330  25.9642  26.1273  26.3374
    26.8244  27.1474  27.4349

          k = 0.0556 0.1667-0.4991 ( 30226 PWs)   bands (ev):

   -49.9231 -49.9231 -49.8567 -49.8567 -49.8392 -49.8392 -49.8231 -49.8231
   -49.8080 -49.8080 -49.8078 -49.8078 -49.7985 -49.7985 -49.7851 -49.7851
   -49.7808 -49.7808 -49.7711 -49.7711 -49.7589 -49.7589 -49.7570 -49.7570
   -49.7544 -49.7544 -49.7503 -49.7503 -49.7413 -49.7413 -49.7389 -49.7389
   -20.2706 -20.2706 -20.2622 -20.2622 -20.2323 -20.2323 -20.2114 -20.2114
   -20.2098 -20.2098 -20.2091 -20.2091 -20.1698 -20.1698 -20.1226 -20.1226
   -20.1146 -20.1146 -20.1139 -20.1139 -20.0604 -20.0604 -20.0381 -20.0381
   -20.0075 -20.0075 -19.9999 -19.9999 -19.9548 -19.9548 -19.9213 -19.9213
   -19.8915 -19.8915 -19.8759 -19.8759 -19.8740 -19.8740 -19.8398 -19.8398
   -19.8111 -19.8111 -19.7187 -19.7187 -19.7094 -19.7094 -19.6824 -19.6824
   -19.6680 -19.6680 -19.6673 -19.6673 -19.6602 -19.6602 -19.6405 -19.6405
   -19.6303 -19.6303 -19.6244 -19.6244 -19.6212 -19.6212 -19.6193 -19.6193
   -19.6180 -19.6180 -19.5901 -19.5901 -19.5826 -19.5826 -19.5640 -19.5640
   -19.5623 -19.5623 -19.5468 -19.5468 -19.5445 -19.5445 -19.5230 -19.5230
   -19.5188 -19.5188 -19.5139 -19.5139 -19.4984 -19.4984 -19.4806 -19.4806
   -19.4795 -19.4795 -19.4476 -19.4476 -19.4223 -19.4223 -19.4046 -19.4046
    16.1903  16.1903  17.3851  17.3851  17.4694  17.4694  17.5021  17.5021
    17.5928  17.5928  17.6905  17.6905  17.7599  17.7599  17.8058  17.8058
    17.8328  17.8328  17.8723  17.8723  17.9735  17.9735  18.0141  18.0141
    18.0233  18.0233  18.1850  18.1850  18.3692  18.3692  18.4151  18.4151
    18.6968  18.6968  18.7177  18.7177  18.7721  18.7721  18.8585  18.8585
    19.1046  19.1046  19.1407  19.1407  19.1689  19.1689  19.2040  19.2040
    19.2726  19.2726  19.3398  19.3398  19.3577  19.3577  19.8187  19.8187
    19.8821  19.8821  19.8892  19.8892  19.9395  19.9395  20.0090  20.0090
    20.1552  20.1552  20.1796  20.1796  20.3476  20.3476  20.3901  20.3901
    20.4654  20.4654  20.5055  20.5055  20.5664  20.5664  20.7498  20.7498
    20.8579  20.8579  20.9476  20.9476  21.0262  21.0262  21.0356  21.0356
    21.0639  21.0639  21.0997  21.0997  21.5126  21.5127  21.5528  21.5529
    21.5885  21.5885  21.6366  21.6366  21.7981  21.7981  21.8031  21.8031
    22.0609  22.0609  22.2404  22.2404  22.2583  22.2583  22.3086  22.3086
    22.3146  22.3146  22.3826  22.3826  22.4453  22.4453  22.5546  22.5546
    22.7466  22.7466  22.7696  22.7696  22.8741  22.8742  23.1529  23.1529
    23.1679  23.1680  23.1773  23.1773  23.2459  23.2459  23.6969  23.6970
    23.7816  23.7816  23.7938  23.7938  24.0167  24.0167  24.0674  24.0674
    24.1926  24.1927  24.2450  24.2450  24.2458  24.2458  24.2671  24.2671
    24.2675  24.2675  24.2748  24.2748  24.2885  24.2886  24.4779  24.4779
    24.6161  24.6161  25.0393  25.0393  25.0980  25.0980  25.1042  25.1042
    25.3259  25.3259  25.5659  25.5659  25.5667  25.5668  26.1090  26.1090
    27.1733  27.1733  27.5986

          k = 0.0556 0.2778 0.0555 ( 30238 PWs)   bands (ev):

   -49.9474 -49.8947 -49.8531 -49.8526 -49.8349 -49.8343 -49.8237 -49.8234
   -49.8101 -49.8098 -49.8024 -49.8019 -49.7974 -49.7929 -49.7928 -49.7925
   -49.7924 -49.7892 -49.7849 -49.7729 -49.7726 -49.7674 -49.7671 -49.7486
   -49.7441 -49.7436 -49.7433 -49.7427 -49.7398 -49.7391 -49.7387 -49.7385
   -20.3331 -20.3257 -20.3255 -20.3138 -20.2722 -20.2716 -20.2584 -20.1733
   -20.1587 -20.1584 -20.1375 -20.1373 -20.1372 -20.1068 -20.1049 -20.1009
   -20.0990 -20.0699 -20.0690 -20.0473 -20.0463 -20.0445 -20.0443 -20.0431
   -20.0095 -20.0065 -20.0053 -20.0037 -19.9704 -19.9682 -19.9301 -19.9286
   -19.9013 -19.9002 -19.8968 -19.8961 -19.8597 -19.8582 -19.8580 -19.8566
   -19.7562 -19.7546 -19.7393 -19.7331 -19.7310 -19.7261 -19.7218 -19.7135
   -19.7080 -19.7066 -19.7063 -19.7000 -19.7000 -19.6935 -19.6929 -19.6899
   -19.6898 -19.6724 -19.6631 -19.6629 -19.6559 -19.6249 -19.6216 -19.5831
   -19.5824 -19.5603 -19.5582 -19.5564 -19.5546 -19.5505 -19.5499 -19.5480
   -19.5410 -19.5393 -19.5358 -19.5351 -19.5194 -19.5141 -19.5062 -19.5058
   -19.5051 -19.5023 -19.5022 -19.5018 -19.5011 -19.4950 -19.4937 -19.4923
   -19.4853 -19.4695 -19.4677 -19.4674 -19.4659 -19.4189 -19.3808 -19.3780
    15.5576  16.8776  17.0130  17.0519  17.0536  17.2781  17.3299  17.3299
    17.3637  17.4449  17.5158  17.5185  17.6568  17.7320  17.7379  17.9145
    17.9203  17.9452  17.9468  18.0940  18.1999  18.2997  18.3000  18.3671
    18.4049  18.4134  18.4352  18.4443  18.5347  18.5365  18.5885  18.5951
    18.6982  18.7027  18.7525  18.7539  18.8693  18.8704  18.9497  18.9558
    19.1254  19.1270  19.3254  19.3298  19.3894  19.3924  19.3932  19.3977
    19.4058  19.4108  19.4250  19.4501  19.4554  19.5454  19.5526  19.7049
    19.7085  19.7632  19.8244  19.8286  19.8902  19.8935  19.9474  19.9553
    19.9636  19.9705  20.0294  20.0323  20.0625  20.2337  20.2888  20.2969
    20.2985  20.3012  20.3549  20.4046  20.5518  20.5968  20.6098  20.6248
    20.6256  20.6408  20.6437  20.6910  20.7118  20.7485  21.0249  21.0325
    21.0849  21.0873  21.0966  21.0987  21.3019  21.4144  21.4152  21.4497
    21.4627  21.5201  21.8857  21.9219  21.9260  22.1312  22.1363  22.1485
    22.1519  22.1867  22.1889  22.2637  22.2660  22.3821  22.3878  22.4817
    22.4879  22.6054  22.6072  22.6089  22.6196  22.6211  22.6433  22.6471
    22.6985  22.7027  22.7169  22.7681  22.7973  22.8000  22.9146  22.9848
    22.9857  22.9866  23.0527  23.0544  23.1898  23.3221  23.3913  23.3924
    23.3939  23.4764  23.4797  23.5196  23.5493  23.5536  23.5703  23.7792
    23.7967  23.9292  23.9362  24.1731  24.1977  24.2011  24.3748  24.3749
    24.4075  24.5384  24.5392  24.5442  24.5722  24.6328  24.8517  24.8521
    24.8620  24.8634  24.9119  25.2039  25.2070  25.2105  25.2110  25.3559
    25.6311  25.6386  25.8266  25.8282  26.0084  26.1351  26.1460  26.1765
    26.4775  27.0153  27.0155

          k = 0.0556 0.2778 0.1664 ( 30230 PWs)   bands (ev):

   -49.9443 -49.8923 -49.8709 -49.8509 -49.8371 -49.8329 -49.8226 -49.8170
   -49.8119 -49.8092 -49.8022 -49.8009 -49.8006 -49.7967 -49.7957 -49.7877
   -49.7861 -49.7835 -49.7781 -49.7771 -49.7734 -49.7682 -49.7617 -49.7484
   -49.7454 -49.7449 -49.7445 -49.7429 -49.7418 -49.7415 -49.7395 -49.7387
   -20.3299 -20.3263 -20.3078 -20.2915 -20.2640 -20.2608 -20.2522 -20.1803
   -20.1712 -20.1381 -20.1370 -20.1354 -20.1351 -20.1302 -20.1092 -20.1056
   -20.1054 -20.0884 -20.0872 -20.0793 -20.0760 -20.0747 -20.0714 -20.0513
   -20.0348 -19.9963 -19.9830 -19.9641 -19.9631 -19.9501 -19.9452 -19.9429
   -19.9243 -19.9158 -19.8891 -19.8782 -19.8610 -19.8249 -19.8147 -19.7868
   -19.7780 -19.7723 -19.7487 -19.7412 -19.7363 -19.7237 -19.7199 -19.7158
   -19.7145 -19.7125 -19.7063 -19.6960 -19.6872 -19.6833 -19.6809 -19.6787
   -19.6787 -19.6749 -19.6423 -19.6400 -19.6330 -19.6267 -19.6163 -19.6145
   -19.5736 -19.5734 -19.5698 -19.5665 -19.5598 -19.5574 -19.5565 -19.5532
   -19.5461 -19.5394 -19.5322 -19.5273 -19.5258 -19.5249 -19.5179 -19.5147
   -19.5129 -19.5116 -19.5073 -19.5055 -19.4970 -19.4948 -19.4906 -19.4758
   -19.4751 -19.4722 -19.4675 -19.4569 -19.4456 -19.4442 -19.3858 -19.3728
    15.6394  16.9407  17.0771  17.0982  17.1048  17.2774  17.3463  17.4270
    17.4311  17.4473  17.5050  17.5545  17.5880  17.7245  17.7533  17.9277
    17.9457  17.9632  18.0046  18.1101  18.1434  18.2335  18.2379  18.2723
    18.2989  18.3213  18.4133  18.4404  18.4590  18.4597  18.4686  18.4906
    18.6179  18.6374  18.6458  18.7521  18.7897  18.8584  18.8672  19.0297
    19.0426  19.0656  19.1017  19.2080  19.2433  19.3075  19.3173  19.3472
    19.3577  19.4123  19.4433  19.4834  19.5639  19.5697  19.6004  19.6711
    19.6923  19.7286  19.8420  19.9639  20.0042  20.0285  20.0567  20.0902
    20.1188  20.1406  20.1818  20.2014  20.2676  20.2785  20.3103  20.3154
    20.3340  20.4129  20.4522  20.4744  20.4858  20.5461  20.5742  20.5880
    20.6427  20.7001  20.7164  20.7181  20.7354  20.7473  20.9671  20.9758
    21.0151  21.0743  21.0774  21.3004  21.3092  21.3139  21.4698  21.5054
    21.5881  21.6033  21.6481  21.7689  21.8111  21.8638  21.9281  22.0283
    22.0468  22.0843  22.1311  22.1804  22.2225  22.2354  22.3334  22.4129
    22.4439  22.5248  22.5293  22.5645  22.5792  22.6031  22.7123  22.7198
    22.7238  22.7353  22.8289  22.8600  22.9208  22.9597  23.0263  23.0403
    23.0553  23.0844  23.0866  23.2691  23.3654  23.3664  23.3876  23.4099
    23.4394  23.6020  23.6072  23.6525  23.6642  23.6653  23.7025  23.7140
    23.7182  23.8000  23.9105  24.0039  24.1637  24.2777  24.3768  24.3976
    24.4190  24.4891  24.5146  24.6308  24.6452  24.6455  24.7921  24.7922
    24.8631  24.8664  24.9271  24.9725  25.0795  25.0883  25.1015  25.1103
    25.1597  25.5371  25.5824  25.9637  26.0929  26.4058  26.4962  26.5881
    26.6095  26.6812  27.5949

          k = 0.0556 0.2778 0.2773 ( 30203 PWs)   bands (ev):

   -49.9381 -49.8880 -49.8877 -49.8499 -49.8476 -49.8301 -49.8209 -49.8208
   -49.8080 -49.8080 -49.8069 -49.7998 -49.7990 -49.7987 -49.7839 -49.7834
   -49.7831 -49.7830 -49.7745 -49.7744 -49.7698 -49.7698 -49.7565 -49.7492
   -49.7482 -49.7481 -49.7480 -49.7462 -49.7453 -49.7414 -49.7411 -49.7390
   -20.3162 -20.3160 -20.2804 -20.2598 -20.2480 -20.2400 -20.2392 -20.1807
   -20.1796 -20.1771 -20.1756 -20.1398 -20.1385 -20.1176 -20.1165 -20.1120
   -20.1117 -20.1109 -20.1094 -20.1016 -20.1009 -20.0762 -20.0746 -20.0745
   -20.0601 -20.0595 -19.9798 -19.9719 -19.9456 -19.9441 -19.9247 -19.9246
   -19.9155 -19.9102 -19.8788 -19.8755 -19.8055 -19.8055 -19.8048 -19.7772
   -19.7766 -19.7731 -19.7710 -19.7415 -19.7371 -19.7168 -19.7165 -19.7052
   -19.7039 -19.7009 -19.6990 -19.6988 -19.6868 -19.6855 -19.6644 -19.6640
   -19.6486 -19.6452 -19.6450 -19.6448 -19.6098 -19.6097 -19.6073 -19.6065
   -19.5940 -19.5936 -19.5919 -19.5845 -19.5629 -19.5628 -19.5612 -19.5553
   -19.5531 -19.5523 -19.5521 -19.5504 -19.5246 -19.5241 -19.5236 -19.5226
   -19.5203 -19.5138 -19.5007 -19.4984 -19.4970 -19.4950 -19.4886 -19.4874
   -19.4825 -19.4721 -19.4705 -19.4422 -19.4419 -19.4307 -19.3970 -19.3725
    15.8004  17.0597  17.0638  17.1920  17.2024  17.2042  17.3284  17.4132
    17.5792  17.5793  17.6246  17.6261  17.7277  17.7840  17.8540  17.8569
    17.9475  17.9945  17.9983  18.0019  18.0283  18.0284  18.1104  18.1177
    18.1654  18.1657  18.2393  18.2419  18.4412  18.5235  18.5239  18.5395
    18.5411  18.5758  18.5765  18.6604  18.6631  18.7555  18.7556  18.8322
    18.8347  18.9543  19.0989  19.0998  19.1670  19.1691  19.1733  19.4092
    19.4107  19.4254  19.4264  19.4650  19.4656  19.4754  19.5333  19.8636
    19.8688  19.9734  19.9772  20.0546  20.0550  20.1217  20.1250  20.1612
    20.1679  20.1749  20.1845  20.2614  20.2845  20.3519  20.3572  20.4383
    20.4474  20.5013  20.5069  20.6547  20.6594  20.6616  20.7243  20.7400
    20.7527  20.7848  20.7896  20.8161  20.8476  20.8609  20.8625  20.8655
    21.0176  21.0223  21.1418  21.1507  21.3664  21.3804  21.5025  21.5167
    21.5607  21.5725  21.6630  21.6743  21.6866  21.7579  21.7809  21.7891
    21.8198  21.8273  21.9944  22.0159  22.1554  22.1771  22.1786  22.1847
    22.1853  22.3079  22.3783  22.5120  22.5125  22.6525  22.6738  22.6755
    22.9624  22.9639  22.9661  23.0919  23.0944  23.1171  23.1172  23.2239
    23.2251  23.2364  23.2421  23.3169  23.3221  23.4277  23.4281  23.4340
    23.4342  23.4846  23.4940  23.7493  23.7764  23.7766  23.8303  23.9212
    23.9240  23.9268  23.9476  23.9500  24.1039  24.1559  24.3298  24.3311
    24.5352  24.6561  24.6581  24.6809  24.6839  24.6844  24.6959  24.7174
    24.8564  24.8608  24.8683  24.8707  24.9032  24.9098  24.9102  24.9104
    25.0106  25.3700  25.4639  25.4711  25.9778  25.9877  27.0394  27.0400
    27.2823  27.3260  27.3439

          k = 0.0556 0.2778 0.3882 ( 30238 PWs)   bands (ev):

   -49.9291 -49.9036 -49.8809 -49.8617 -49.8428 -49.8292 -49.8261 -49.8183
   -49.8149 -49.8112 -49.8063 -49.8016 -49.7962 -49.7882 -49.7840 -49.7804
   -49.7790 -49.7760 -49.7722 -49.7721 -49.7663 -49.7630 -49.7583 -49.7529
   -49.7529 -49.7520 -49.7518 -49.7475 -49.7462 -49.7441 -49.7404 -49.7394
   -20.2952 -20.2925 -20.2447 -20.2256 -20.2246 -20.2221 -20.2205 -20.2200
   -20.2076 -20.1716 -20.1714 -20.1713 -20.1583 -20.1566 -20.1386 -20.1365
   -20.1362 -20.1248 -20.1190 -20.1166 -20.0972 -20.0938 -20.0769 -20.0714
   -20.0649 -20.0351 -20.0054 -20.0039 -19.9739 -19.9500 -19.9077 -19.8966
   -19.8864 -19.8651 -19.8562 -19.8369 -19.8366 -19.8364 -19.8126 -19.8031
   -19.7666 -19.7632 -19.7467 -19.7344 -19.7252 -19.7204 -19.7042 -19.7011
   -19.6926 -19.6864 -19.6855 -19.6737 -19.6712 -19.6704 -19.6572 -19.6490
   -19.6403 -19.6394 -19.6380 -19.6370 -19.6302 -19.6176 -19.6071 -19.6045
   -19.5999 -19.5957 -19.5822 -19.5821 -19.5819 -19.5744 -19.5737 -19.5719
   -19.5597 -19.5482 -19.5462 -19.5420 -19.5379 -19.5367 -19.5337 -19.5335
   -19.5304 -19.5163 -19.5098 -19.5073 -19.5063 -19.5029 -19.5003 -19.4880
   -19.4762 -19.4750 -19.4592 -19.4299 -19.4231 -19.4156 -19.4133 -19.3799
    16.0351  16.6835  17.2412  17.3337  17.3448  17.3825  17.4310  17.5300
    17.6949  17.7196  17.7322  17.7481  17.7576  17.7707  17.7850  17.8024
    17.8289  17.8583  17.9086  17.9265  17.9535  17.9834  18.0417  18.0474
    18.0654  18.0978  18.2424  18.2571  18.2803  18.2819  18.3237  18.3889
    18.4549  18.5524  18.6154  18.6714  18.6822  18.6864  18.7296  18.7299
    18.8241  18.9094  18.9380  19.0154  19.0545  19.1782  19.1833  19.2180
    19.2905  19.3782  19.4984  19.5128  19.5364  19.5529  19.7112  19.7711
    19.8004  19.8241  19.9113  20.0484  20.1240  20.1318  20.2215  20.2421
    20.2634  20.2819  20.2939  20.3675  20.4162  20.4318  20.4350  20.5467
    20.5530  20.6183  20.6463  20.6664  20.6686  20.7011  20.7751  20.8313
    20.8674  20.8714  20.9137  20.9148  20.9374  21.0164  21.0405  21.0422
    21.0533  21.1220  21.1587  21.1744  21.2577  21.3214  21.3661  21.4497
    21.5123  21.5327  21.5657  21.5849  21.6112  21.6342  21.6577  21.6752
    21.7820  21.7971  21.8187  21.8692  21.9915  22.0221  22.0381  22.0877
    22.1955  22.2054  22.3748  22.3983  22.5129  22.5582  22.6421  22.7216
    22.8679  22.8927  22.9048  22.9481  23.0357  23.1127  23.1764  23.1842
    23.2650  23.3108  23.3491  23.4534  23.4642  23.4800  23.5511  23.6158
    23.6623  23.6625  23.8190  23.8201  23.8219  23.8673  24.0454  24.0928
    24.1120  24.1267  24.1645  24.1712  24.1868  24.1941  24.1951  24.2350
    24.3086  24.4566  24.5250  24.5410  24.5422  24.5550  24.5720  24.5781
    24.5833  24.6547  24.8630  24.8763  24.8799  24.8949  24.9427  24.9773
    25.3079  25.4176  25.4476  25.4578  25.5035  25.8336  26.6862  26.7080
    27.4773  27.6527  27.9474

          k = 0.0556 0.2778-0.4991 ( 30234 PWs)   bands (ev):

   -49.9175 -49.9175 -49.8721 -49.8721 -49.8366 -49.8366 -49.8210 -49.8210
   -49.8151 -49.8151 -49.8042 -49.8042 -49.7925 -49.7925 -49.7780 -49.7780
   -49.7753 -49.7753 -49.7701 -49.7701 -49.7617 -49.7617 -49.7590 -49.7590
   -49.7570 -49.7570 -49.7476 -49.7476 -49.7469 -49.7469 -49.7398 -49.7398
   -20.2645 -20.2645 -20.2600 -20.2600 -20.2025 -20.2025 -20.1990 -20.1990
   -20.1943 -20.1943 -20.1740 -20.1740 -20.1664 -20.1664 -20.1588 -20.1588
   -20.1567 -20.1567 -20.1305 -20.1305 -20.0832 -20.0832 -20.0758 -20.0758
   -20.0415 -20.0415 -19.9985 -19.9985 -19.9928 -19.9928 -19.8712 -19.8712
   -19.8672 -19.8672 -19.8490 -19.8490 -19.8318 -19.8318 -19.8135 -19.8135
   -19.7986 -19.7986 -19.7029 -19.7029 -19.7001 -19.7001 -19.6990 -19.6990
   -19.6897 -19.6897 -19.6877 -19.6877 -19.6750 -19.6750 -19.6639 -19.6639
   -19.6366 -19.6366 -19.6291 -19.6291 -19.6121 -19.6121 -19.6111 -19.6111
   -19.5936 -19.5935 -19.5864 -19.5864 -19.5834 -19.5834 -19.5716 -19.5716
   -19.5580 -19.5580 -19.5420 -19.5420 -19.5417 -19.5417 -19.5406 -19.5406
   -19.5312 -19.5312 -19.5197 -19.5197 -19.5046 -19.5046 -19.4870 -19.4870
   -19.4809 -19.4809 -19.4342 -19.4342 -19.4230 -19.4230 -19.3946 -19.3946
    16.3343  16.3343  17.4637  17.4638  17.5148  17.5149  17.5213  17.5213
    17.5840  17.5840  17.6067  17.6067  17.6957  17.6957  17.8715  17.8715
    17.8863  17.8863  17.9799  17.9799  17.9997  17.9997  18.0350  18.0350
    18.0365  18.0365  18.1576  18.1576  18.1735  18.1735  18.2846  18.2846
    18.4800  18.4800  18.5837  18.5837  18.6903  18.6903  18.8189  18.8189
    18.8206  18.8206  18.9630  18.9630  19.0683  19.0683  19.0944  19.0944
    19.4618  19.4618  19.5430  19.5430  19.6312  19.6312  19.6364  19.6364
    19.6729  19.6729  19.9353  19.9353  20.1895  20.1895  20.2917  20.2918
    20.3205  20.3205  20.4054  20.4054  20.4259  20.4259  20.4700  20.4700
    20.5573  20.5573  20.7012  20.7012  20.8134  20.8134  20.9047  20.9047
    20.9151  20.9151  20.9764  20.9764  21.0244  21.0244  21.0410  21.0410
    21.2030  21.2030  21.2415  21.2415  21.2564  21.2564  21.2661  21.2661
    21.4461  21.4461  21.4471  21.4471  21.5370  21.5370  21.5466  21.5466
    21.7570  21.7571  21.9865  21.9865  22.1304  22.1304  22.1611  22.1611
    22.1962  22.1962  22.2370  22.2370  22.3384  22.3384  22.5289  22.5289
    22.7295  22.7295  23.0418  23.0418  23.0818  23.0818  23.1560  23.1560
    23.2877  23.2877  23.5418  23.5419  23.5796  23.5796  23.6973  23.6973
    23.7909  23.7909  23.8639  23.8639  23.9477  23.9478  23.9486  23.9486
    24.1993  24.1993  24.1998  24.1999  24.3026  24.3027  24.3701  24.3702
    24.3704  24.3704  24.3935  24.3935  24.4112  24.4112  24.4138  24.4138
    24.5165  24.5165  24.8840  24.8840  24.9024  24.9024  24.9426  24.9426
    25.0998  25.0998  25.6419  25.6419  26.0263  26.0263  26.1104  26.1104
    27.8408  27.8408  28.1679

          k = 0.0556 0.3889 0.0555 ( 30208 PWs)   bands (ev):

   -49.9380 -49.9112 -49.8478 -49.8473 -49.8329 -49.8325 -49.8304 -49.8298
   -49.8178 -49.8174 -49.8015 -49.7989 -49.7928 -49.7927 -49.7926 -49.7925
   -49.7878 -49.7856 -49.7853 -49.7639 -49.7636 -49.7598 -49.7595 -49.7582
   -49.7492 -49.7488 -49.7476 -49.7471 -49.7396 -49.7393 -49.7387 -49.7385
   -20.3043 -20.2937 -20.2935 -20.2784 -20.2480 -20.2476 -20.2216 -20.2207
   -20.2072 -20.2069 -20.1871 -20.1796 -20.1794 -20.1133 -20.1054 -20.1041
   -20.0917 -20.0904 -20.0848 -20.0847 -20.0593 -20.0589 -20.0197 -20.0170
   -19.9912 -19.9896 -19.9733 -19.9704 -19.9586 -19.9567 -19.9494 -19.9474
   -19.9364 -19.9351 -19.8956 -19.8936 -19.8926 -19.8910 -19.8532 -19.8523
   -19.7817 -19.7804 -19.7316 -19.7286 -19.7278 -19.7237 -19.6976 -19.6925
   -19.6851 -19.6636 -19.6634 -19.6606 -19.6604 -19.6572 -19.6570 -19.6569
   -19.6563 -19.6527 -19.6487 -19.6280 -19.6279 -19.6268 -19.6042 -19.6037
   -19.5900 -19.5897 -19.5883 -19.5882 -19.5863 -19.5831 -19.5708 -19.5704
   -19.5685 -19.5682 -19.5471 -19.5252 -19.5243 -19.5126 -19.5084 -19.5022
   -19.5020 -19.5018 -19.5014 -19.5003 -19.4996 -19.4902 -19.4901 -19.4898
   -19.4865 -19.4692 -19.4682 -19.4626 -19.4418 -19.4397 -19.3968 -19.3940
    15.8050  16.4862  17.1522  17.2303  17.2321  17.4311  17.4981  17.4981
    17.4986  17.5467  17.5571  17.6988  17.6989  17.7007  17.7022  17.8842
    17.8964  17.9021  17.9072  17.9879  17.9881  18.0557  18.0951  18.1002
    18.2376  18.2429  18.3266  18.3296  18.5311  18.5375  18.5447  18.5476
    18.6005  18.6085  18.7895  18.7899  18.8125  18.8153  19.0336  19.0362
    19.0420  19.0459  19.1352  19.1371  19.2816  19.2835  19.3227  19.3251
    19.3646  19.3712  19.4271  19.4365  19.4379  19.4421  19.6874  19.6908
    19.6987  19.7427  19.7452  19.8622  19.9656  19.9719  19.9746  19.9797
    19.9865  19.9909  20.1109  20.1627  20.1752  20.1961  20.2046  20.2047
    20.2084  20.3382  20.4003  20.4030  20.6794  20.7401  20.7496  20.7523
    20.7591  20.7697  20.7752  20.7790  20.8309  20.8505  21.0612  21.0715
    21.0820  21.1416  21.2004  21.2344  21.2360  21.2378  21.2407  21.2563
    21.7152  21.7304  22.0481  22.0502  22.0607  22.1193  22.1220  22.2467
    22.2485  22.2521  22.3031  22.3189  22.3200  22.3624  22.3642  22.3980
    22.4008  22.4481  22.4500  22.4588  22.4629  22.5250  22.5721  22.5747
    22.6129  22.6139  22.6338  22.6367  22.7229  22.7248  22.9425  22.9440
    23.0569  23.0721  23.0894  23.2024  23.2620  23.3986  23.4003  23.5290
    23.7187  23.7205  23.7229  23.8274  23.8346  23.8348  23.8736  23.8747
    24.0961  24.0967  24.0982  24.1559  24.2499  24.2525  24.2566  24.3135
    24.3178  24.3321  24.3720  24.3739  24.5460  24.5506  24.5537  24.5572
    24.6053  24.6066  24.6834  25.1371  25.1416  25.2040  25.2058  25.2105
    25.2107  25.3616  25.6076  25.6157  25.7271  26.2314  26.2319  26.2939
    26.6659  26.8307  26.8309

          k = 0.0556 0.3889 0.1664 ( 30214 PWs)   bands (ev):

   -49.9350 -49.9086 -49.8648 -49.8477 -49.8458 -49.8314 -49.8286 -49.8166
   -49.8133 -49.8101 -49.8052 -49.8030 -49.7997 -49.7972 -49.7863 -49.7845
   -49.7842 -49.7832 -49.7787 -49.7676 -49.7646 -49.7609 -49.7579 -49.7555
   -49.7505 -49.7504 -49.7491 -49.7454 -49.7427 -49.7419 -49.7393 -49.7388
   -20.3047 -20.2982 -20.2735 -20.2535 -20.2400 -20.2388 -20.2275 -20.2178
   -20.2166 -20.1849 -20.1765 -20.1721 -20.1589 -20.1332 -20.1278 -20.1148
   -20.1139 -20.1122 -20.1081 -20.0978 -20.0747 -20.0617 -20.0580 -20.0416
   -20.0162 -20.0020 -19.9969 -19.9768 -19.9759 -19.9456 -19.9219 -19.9193
   -19.9158 -19.9039 -19.8933 -19.8751 -19.8594 -19.8484 -19.8457 -19.8285
   -19.8053 -19.7743 -19.7192 -19.7168 -19.7147 -19.7126 -19.7109 -19.7074
   -19.6985 -19.6902 -19.6894 -19.6652 -19.6612 -19.6555 -19.6535 -19.6503
   -19.6459 -19.6445 -19.6366 -19.6308 -19.6102 -19.6087 -19.6084 -19.5991
   -19.5954 -19.5948 -19.5933 -19.5928 -19.5924 -19.5858 -19.5856 -19.5600
   -19.5579 -19.5531 -19.5376 -19.5350 -19.5295 -19.5292 -19.5291 -19.5230
   -19.5203 -19.5171 -19.5027 -19.5015 -19.4984 -19.4944 -19.4894 -19.4857
   -19.4778 -19.4705 -19.4577 -19.4477 -19.4430 -19.4289 -19.4021 -19.3857
    15.8828  16.5538  17.2171  17.2630  17.2842  17.4085  17.4925  17.5655
    17.5959  17.6080  17.6154  17.6379  17.7129  17.7364  17.7561  17.7778
    17.8290  17.8747  17.9373  17.9394  18.0349  18.0477  18.1041  18.1353
    18.1449  18.1609  18.2708  18.3142  18.3197  18.3286  18.4935  18.5195
    18.5865  18.5929  18.6232  18.6538  18.7551  18.9530  18.9553  18.9759
    18.9885  19.0865  19.1042  19.1483  19.1641  19.2008  19.2184  19.2317
    19.2699  19.2756  19.4180  19.4218  19.4254  19.5352  19.6952  19.6979
    19.7089  19.7710  19.9713  19.9783  20.0181  20.0441  20.0812  20.0831
    20.1041  20.1413  20.1673  20.2299  20.2307  20.2451  20.2905  20.3084
    20.4110  20.4184  20.4412  20.6326  20.6861  20.7276  20.7487  20.7741
    20.8328  20.8719  20.8750  20.8777  20.8854  20.8860  20.8890  20.9268
    21.0291  21.1064  21.1684  21.1968  21.2410  21.2557  21.3440  21.3737
    21.5854  21.6850  21.7363  21.8073  21.8153  21.8675  21.9768  22.0353
    22.0556  22.0851  22.1304  22.1401  22.1449  22.1485  22.2224  22.2895
    22.3544  22.4084  22.5064  22.5352  22.5539  22.6144  22.6426  22.6604
    22.6789  22.7789  22.8231  22.8307  22.9113  22.9546  22.9695  23.0342
    23.0859  23.1274  23.2635  23.3053  23.3541  23.3570  23.4289  23.4456
    23.6275  23.6568  23.7257  23.8189  23.9418  23.9421  23.9608  23.9713
    23.9946  24.0042  24.0181  24.1094  24.1254  24.2050  24.2057  24.3054
    24.3835  24.4817  24.4898  24.5473  24.5491  24.5558  24.5565  24.5685
    24.7050  24.7055  24.7742  25.0156  25.0800  25.0877  25.0906  25.0916
    25.0968  25.2790  25.5647  25.7889  25.8244  25.9800  26.1267  26.3265
    26.8171  27.1410  27.4211

          k = 0.0556 0.3889 0.2773 ( 30242 PWs)   bands (ev):

   -49.9290 -49.9034 -49.8811 -49.8618 -49.8427 -49.8292 -49.8261 -49.8183
   -49.8149 -49.8112 -49.8063 -49.8016 -49.7969 -49.7889 -49.7831 -49.7804
   -49.7789 -49.7761 -49.7722 -49.7715 -49.7662 -49.7631 -49.7572 -49.7528
   -49.7522 -49.7521 -49.7517 -49.7486 -49.7471 -49.7439 -49.7406 -49.7394
   -20.2951 -20.2922 -20.2445 -20.2249 -20.2243 -20.2212 -20.2197 -20.2194
   -20.2083 -20.1726 -20.1724 -20.1701 -20.1575 -20.1557 -20.1392 -20.1378
   -20.1363 -20.1237 -20.1199 -20.1173 -20.0981 -20.0930 -20.0782 -20.0707
   -20.0652 -20.0365 -20.0059 -20.0042 -19.9748 -19.9505 -19.9064 -19.8970
   -19.8864 -19.8649 -19.8592 -19.8374 -19.8363 -19.8327 -19.8131 -19.8056
   -19.7629 -19.7624 -19.7457 -19.7320 -19.7245 -19.7245 -19.7032 -19.7010
   -19.6932 -19.6876 -19.6867 -19.6774 -19.6703 -19.6680 -19.6564 -19.6493
   -19.6402 -19.6383 -19.6379 -19.6371 -19.6300 -19.6172 -19.6067 -19.6044
   -19.6000 -19.5951 -19.5820 -19.5806 -19.5803 -19.5737 -19.5729 -19.5718
   -19.5593 -19.5502 -19.5476 -19.5406 -19.5375 -19.5369 -19.5350 -19.5338
   -19.5304 -19.5147 -19.5115 -19.5063 -19.5053 -19.5028 -19.5018 -19.4897
   -19.4766 -19.4750 -19.4601 -19.4296 -19.4231 -19.4159 -19.4135 -19.3800
    16.0359  16.6865  17.2382  17.3345  17.3440  17.3854  17.4311  17.5302
    17.6965  17.7190  17.7314  17.7506  17.7580  17.7708  17.7853  17.8042
    17.8293  17.8641  17.9090  17.9263  17.9539  17.9838  18.0429  18.0458
    18.0636  18.0980  18.2436  18.2575  18.2741  18.2820  18.3261  18.3867
    18.4549  18.5537  18.6160  18.6732  18.6805  18.6827  18.7278  18.7292
    18.8238  18.9078  18.9370  19.0148  19.0544  19.1800  19.1828  19.2170
    19.2887  19.3774  19.5009  19.5046  19.5356  19.5504  19.7224  19.7713
    19.8045  19.8225  19.9092  20.0517  20.1318  20.1373  20.2214  20.2471
    20.2567  20.2782  20.2850  20.3794  20.4114  20.4255  20.4398  20.5480
    20.5502  20.6230  20.6453  20.6652  20.6673  20.6968  20.7663  20.8258
    20.8589  20.8658  20.9133  20.9219  20.9339  21.0068  21.0446  21.0451
    21.0473  21.1256  21.1434  21.1649  21.2434  21.3080  21.3607  21.4622
    21.5229  21.5237  21.5569  21.5899  21.6153  21.6390  21.6678  21.6740
    21.7814  21.7962  21.8183  21.8729  21.9978  22.0258  22.0441  22.0969
    22.2033  22.2089  22.3763  22.4007  22.5219  22.5587  22.6363  22.7250
    22.8661  22.8959  22.9053  22.9538  23.0270  23.1148  23.1789  23.1888
    23.2687  23.3002  23.3515  23.4535  23.4643  23.4804  23.5513  23.6131
    23.6626  23.6673  23.8190  23.8223  23.8241  23.8687  24.0475  24.0922
    24.1136  24.1268  24.1667  24.1732  24.1851  24.1947  24.1958  24.2404
    24.3091  24.4593  24.5300  24.5420  24.5426  24.5622  24.5741  24.5771
    24.5916  24.6594  24.8561  24.8671  24.8687  24.8869  24.9365  24.9820
    25.3009  25.4210  25.4412  25.4654  25.5024  25.8245  26.6994  26.7061
    27.4721  27.6495  27.9515

          k = 0.0556 0.3889 0.3882 ( 30237 PWs)   bands (ev):

   -49.9204 -49.8961 -49.8959 -49.8748 -49.8383 -49.8259 -49.8259 -49.8226
   -49.8168 -49.8125 -49.8125 -49.8057 -49.7819 -49.7810 -49.7758 -49.7751
   -49.7750 -49.7749 -49.7686 -49.7685 -49.7662 -49.7661 -49.7573 -49.7564
   -49.7563 -49.7562 -49.7546 -49.7537 -49.7482 -49.7426 -49.7425 -49.7402
   -20.2758 -20.2756 -20.2141 -20.2138 -20.2124 -20.2116 -20.2081 -20.2014
   -20.1960 -20.1952 -20.1786 -20.1694 -20.1691 -20.1605 -20.1594 -20.1369
   -20.1363 -20.1223 -20.1217 -20.1214 -20.1210 -20.1202 -20.1194 -20.0837
   -20.0828 -20.0814 -20.0430 -19.9982 -19.9931 -19.9408 -19.9401 -19.8702
   -19.8493 -19.8491 -19.8176 -19.8142 -19.8088 -19.7791 -19.7783 -19.7659
   -19.7631 -19.7630 -19.7626 -19.7491 -19.7451 -19.7007 -19.6987 -19.6985
   -19.6972 -19.6843 -19.6834 -19.6785 -19.6754 -19.6753 -19.6729 -19.6726
   -19.6608 -19.6602 -19.6290 -19.6283 -19.6213 -19.6208 -19.6187 -19.6089
   -19.6087 -19.5853 -19.5850 -19.5804 -19.5741 -19.5737 -19.5729 -19.5725
   -19.5558 -19.5516 -19.5511 -19.5496 -19.5491 -19.5438 -19.5349 -19.5284
   -19.5235 -19.5178 -19.5130 -19.5120 -19.5110 -19.5054 -19.4992 -19.4830
   -19.4817 -19.4780 -19.4774 -19.4302 -19.4101 -19.4070 -19.4068 -19.3813
    16.2592  16.8770  16.8791  17.4085  17.4505  17.4990  17.5267  17.5286
    17.6107  17.7649  17.7649  17.7899  17.8206  17.8218  17.8849  17.8854
    17.8967  17.8969  17.9039  17.9049  17.9336  17.9440  17.9443  18.0129
    18.0177  18.0857  18.1307  18.1993  18.2002  18.3940  18.3941  18.3943
    18.3963  18.4024  18.4036  18.4067  18.4085  18.6425  18.6433  18.6575
    18.6578  18.7102  18.7126  18.9617  18.9636  19.0878  19.2965  19.2980
    19.3016  19.3032  19.4693  19.6255  19.6278  19.6461  19.6590  19.7184
    19.7261  20.0456  20.0601  20.0603  20.2264  20.3226  20.3233  20.4407
    20.4477  20.4561  20.4562  20.4568  20.4619  20.4731  20.4936  20.4986
    20.5787  20.6250  20.7788  20.7837  20.8732  20.8766  20.8837  20.9374
    20.9434  20.9585  20.9705  20.9983  21.0563  21.0611  21.0819  21.0863
    21.2194  21.2314  21.2452  21.2468  21.2512  21.2680  21.2781  21.3257
    21.3921  21.4021  21.4355  21.4387  21.4496  21.4596  21.5048  21.5078
    21.5230  21.5306  21.6626  21.7370  21.7429  21.7681  21.7735  22.0433
    22.1976  22.1978  22.2072  22.2085  22.2920  22.2976  22.3656  22.4421
    22.7582  23.0899  23.1328  23.1348  23.1557  23.1574  23.4227  23.4280
    23.4315  23.4332  23.5326  23.5342  23.5930  23.5931  23.6614  23.7005
    23.8449  23.8467  23.9519  23.9777  23.9799  23.9952  23.9968  24.0036
    24.0052  24.0900  24.1974  24.2980  24.3326  24.3529  24.3535  24.3552
    24.3568  24.4032  24.4655  24.5188  24.5188  24.5665  24.5730  24.5791
    24.5804  24.6093  24.6120  24.6174  24.6253  24.6322  24.7989  24.8253
    24.8299  25.1585  25.3194  25.3265  26.0764  26.0803  27.3536  27.3578
    27.4170  27.4290  28.1465

          k = 0.0556 0.3889-0.4991 ( 30250 PWs)   bands (ev):

   -49.9093 -49.9093 -49.8863 -49.8863 -49.8327 -49.8327 -49.8218 -49.8218
   -49.8180 -49.8180 -49.8094 -49.8094 -49.7783 -49.7783 -49.7714 -49.7714
   -49.7702 -49.7702 -49.7685 -49.7685 -49.7643 -49.7643 -49.7620 -49.7619
   -49.7608 -49.7608 -49.7551 -49.7551 -49.7452 -49.7452 -49.7412 -49.7412
   -20.2493 -20.2493 -20.2477 -20.2477 -20.1949 -20.1949 -20.1946 -20.1946
   -20.1800 -20.1800 -20.1719 -20.1719 -20.1663 -20.1663 -20.1611 -20.1611
   -20.1434 -20.1434 -20.1324 -20.1324 -20.1221 -20.1221 -20.1098 -20.1098
   -20.0826 -20.0826 -20.0384 -20.0384 -19.9722 -19.9722 -19.9055 -19.9055
   -19.8128 -19.8128 -19.8043 -19.8043 -19.7907 -19.7907 -19.7805 -19.7805
   -19.7527 -19.7527 -19.7305 -19.7305 -19.7234 -19.7234 -19.7231 -19.7231
   -19.7152 -19.7152 -19.6802 -19.6802 -19.6675 -19.6675 -19.6581 -19.6581
   -19.6438 -19.6438 -19.6377 -19.6377 -19.6371 -19.6371 -19.6189 -19.6189
   -19.5988 -19.5988 -19.5986 -19.5986 -19.5666 -19.5666 -19.5625 -19.5625
   -19.5621 -19.5621 -19.5557 -19.5557 -19.5316 -19.5316 -19.5279 -19.5279
   -19.5244 -19.5244 -19.5181 -19.5181 -19.5010 -19.5010 -19.4963 -19.4963
   -19.4904 -19.4904 -19.4517 -19.4517 -19.4048 -19.4048 -19.3904 -19.3904
    16.5439  16.5440  17.1235  17.1235  17.6112  17.6112  17.6133  17.6133
    17.7019  17.7019  17.7333  17.7333  17.7550  17.7550  17.7670  17.7670
    17.9045  17.9045  17.9325  17.9325  18.0373  18.0373  18.1224  18.1224
    18.1303  18.1303  18.1555  18.1555  18.1604  18.1604  18.2037  18.2037
    18.3757  18.3757  18.4069  18.4069  18.5184  18.5184  18.5520  18.5520
    18.5754  18.5754  18.8617  18.8617  19.0920  19.0921  19.1074  19.1074
    19.4436  19.4436  19.4562  19.4562  19.7044  19.7044  19.7834  19.7834
    19.9038  19.9038  19.9848  19.9848  20.1803  20.1804  20.4323  20.4324
    20.4889  20.4889  20.5448  20.5448  20.6265  20.6265  20.6775  20.6775
    20.7827  20.7827  20.8038  20.8038  20.8298  20.8298  20.9951  20.9952
    21.0075  21.0075  21.0289  21.0289  21.0490  21.0490  21.0794  21.0795
    21.1350  21.1350  21.1829  21.1829  21.1938  21.1938  21.2272  21.2272
    21.3235  21.3235  21.3328  21.3328  21.4887  21.4887  21.5070  21.5070
    21.5132  21.5132  21.6721  21.6721  21.9110  21.9110  21.9231  21.9231
    21.9689  21.9689  21.9883  21.9883  22.1350  22.1350  22.3132  22.3132
    22.9599  22.9599  23.2307  23.2307  23.3352  23.3352  23.3815  23.3815
    23.4095  23.4095  23.6479  23.6479  23.7217  23.7218  23.7419  23.7419
    23.8176  23.8176  23.9014  23.9014  24.0130  24.0130  24.1549  24.1549
    24.2176  24.2177  24.3083  24.3084  24.3750  24.3750  24.3769  24.3769
    24.3931  24.3931  24.4601  24.4601  24.4627  24.4627  24.4978  24.4978
    24.5030  24.5030  24.5901  24.5901  24.6419  24.6419  24.6984  24.6984
    24.8127  24.8127  25.1776  25.1776  26.7266  26.7267  26.7305  26.7305
    28.0652  28.0652  28.1445

          k = 0.0556-0.5000 0.0555 ( 30232 PWs)   bands (ev):

   -49.9258 -49.9257 -49.8410 -49.8409 -49.8406 -49.8405 -49.8247 -49.8246
   -49.8242 -49.8241 -49.8004 -49.8003 -49.7928 -49.7927 -49.7926 -49.7925
   -49.7867 -49.7866 -49.7706 -49.7705 -49.7560 -49.7558 -49.7556 -49.7554
   -49.7533 -49.7531 -49.7528 -49.7527 -49.7395 -49.7394 -49.7387 -49.7385
   -20.2664 -20.2664 -20.2535 -20.2534 -20.2532 -20.2532 -20.2354 -20.2353
   -20.2170 -20.2168 -20.2166 -20.2165 -20.1720 -20.1718 -20.0977 -20.0976
   -20.0970 -20.0969 -20.0770 -20.0770 -20.0765 -20.0765 -19.9895 -19.9894
   -19.9871 -19.9870 -19.9670 -19.9669 -19.9655 -19.9654 -19.9346 -19.9345
   -19.9320 -19.9320 -19.9233 -19.9232 -19.9215 -19.9214 -19.8145 -19.8143
   -19.8134 -19.8133 -19.7297 -19.7296 -19.7262 -19.7261 -19.6772 -19.6770
   -19.6726 -19.6724 -19.6329 -19.6328 -19.6315 -19.6313 -19.6311 -19.6309
   -19.6252 -19.6252 -19.6244 -19.6243 -19.6230 -19.6229 -19.6216 -19.6215
   -19.6098 -19.6097 -19.6096 -19.6096 -19.5970 -19.5969 -19.5968 -19.5966
   -19.5838 -19.5838 -19.5180 -19.5179 -19.5107 -19.5107 -19.5107 -19.5106
   -19.5106 -19.5106 -19.5021 -19.5020 -19.5018 -19.5017 -19.4882 -19.4881
   -19.4771 -19.4771 -19.4768 -19.4768 -19.4175 -19.4173 -19.4149 -19.4147
    16.1199  16.1200  17.3203  17.3205  17.4516  17.4518  17.4535  17.4536
    17.6382  17.6383  17.7042  17.7043  17.7186  17.7186  17.7188  17.7188
    17.7791  17.7791  17.9401  17.9402  17.9444  17.9446  18.1072  18.1074
    18.1114  18.1115  18.3134  18.3136  18.3176  18.3177  18.6695  18.6696
    18.6730  18.6731  18.8081  18.8083  18.8144  18.8146  18.9604  18.9605
    18.9609  18.9610  19.1562  19.1563  19.1573  19.1575  19.3673  19.3673
    19.3756  19.3757  19.3907  19.3908  19.3921  19.3922  19.6953  19.6954
    19.6961  19.6961  19.9525  19.9527  19.9738  19.9739  19.9824  19.9824
    19.9825  19.9825  20.0912  20.0914  20.0973  20.0974  20.2543  20.2544
    20.4521  20.4521  20.4571  20.4572  20.5579  20.5579  20.5618  20.5619
    20.8509  20.8509  20.9225  20.9225  20.9301  20.9301  20.9734  20.9734
    21.0150  21.0152  21.0330  21.0331  21.7012  21.7012  21.7018  21.7018
    21.7076  21.7077  21.7381  21.7381  22.1019  22.1020  22.1020  22.1021
    22.2962  22.2963  22.3798  22.3799  22.3963  22.3963  22.4166  22.4167
    22.4183  22.4184  22.4939  22.4940  22.4960  22.4961  22.5088  22.5089
    22.5091  22.5092  22.5732  22.5733  22.5754  22.5755  22.8258  22.8259
    22.8259  22.8260  23.1496  23.1498  23.7601  23.7602  23.7614  23.7615
    23.7739  23.7740  23.8574  23.8574  24.0347  24.0347  24.0379  24.0379
    24.0854  24.0854  24.1197  24.1198  24.1975  24.1976  24.2014  24.2015
    24.2149  24.2150  24.2175  24.2176  24.4935  24.4936  24.6686  24.6686
    24.6698  24.6698  24.7003  24.7004  25.0900  25.0901  25.0950  25.0951
    25.2046  25.2048  25.2105  25.2107  26.0431  26.0433  26.5700  26.5700
    26.5701  26.5702  27.0607

          k = 0.0556-0.5000 0.1664 ( 30226 PWs)   bands (ev):

   -49.9230 -49.9229 -49.8571 -49.8569 -49.8393 -49.8391 -49.8232 -49.8230
   -49.8087 -49.8085 -49.8079 -49.8078 -49.7986 -49.7984 -49.7853 -49.7851
   -49.7808 -49.7807 -49.7701 -49.7700 -49.7584 -49.7582 -49.7570 -49.7569
   -49.7546 -49.7544 -49.7501 -49.7499 -49.7424 -49.7422 -49.7391 -49.7390
   -20.2700 -20.2700 -20.2614 -20.2613 -20.2316 -20.2316 -20.2104 -20.2103
   -20.2092 -20.2091 -20.2083 -20.2083 -20.1705 -20.1703 -20.1239 -20.1239
   -20.1158 -20.1157 -20.1148 -20.1148 -20.0613 -20.0613 -20.0375 -20.0375
   -20.0091 -20.0090 -20.0010 -20.0009 -19.9565 -19.9565 -19.9218 -19.9217
[...]
   -19.5831 -19.5831 -19.5830 -19.5830 -19.5830 -19.5830 -19.5829 -19.5829
   -19.5479 -19.5478 -19.5478 -19.5477 -19.5318 -19.5318 -19.5318 -19.5318
   -19.5095 -19.5095 -19.5095 -19.5095 -19.5070 -19.5069 -19.5069 -19.5069
   -19.4742 -19.4741 -19.4741 -19.4739 -19.3929 -19.3929 -19.3929 -19.3929
    16.8127  16.8129  16.8129  16.8131  17.6722  17.6722  17.6722  17.6723
    17.7517  17.7517  17.7518  17.7518  17.8024  17.8025  17.8025  17.8025
    17.9372  17.9372  17.9373  17.9373  17.9373  17.9373  17.9375  17.9375
    18.2518  18.2518  18.2519  18.2520  18.2520  18.2520  18.2521  18.2521
    18.3521  18.3522  18.3522  18.3522  18.3522  18.3522  18.3522  18.3522
    18.6195  18.6196  18.6196  18.6196  19.2586  19.2586  19.2587  19.2588
    19.2588  19.2588  19.2589  19.2589  19.8293  19.8293  19.8293  19.8294
    20.0539  20.0540  20.0540  20.0541  20.3323  20.3324  20.3324  20.3325
    20.5496  20.5496  20.5496  20.5496  20.5618  20.5618  20.5619  20.5619
    20.9190  20.9190  20.9190  20.9190  20.9190  20.9190  20.9190  20.9190
    21.0170  21.0170  21.0170  21.0171  21.1748  21.1749  21.1749  21.1749
    21.1857  21.1857  21.1857  21.1857  21.3299  21.3299  21.3299  21.3300
    21.3346  21.3346  21.3346  21.3346  21.3347  21.3347  21.3347  21.3347
    21.5897  21.5898  21.5898  21.5898  21.7250  21.7250  21.7251  21.7251
    21.7251  21.7251  21.7252  21.7252  22.2380  22.2381  22.2381  22.2382
    23.1990  23.1991  23.1991  23.1993  23.3920  23.3921  23.3921  23.3922
    23.6075  23.6075  23.6076  23.6076  23.6076  23.6076  23.6077  23.6077
    24.1236  24.1237  24.1237  24.1237  24.2464  24.2465  24.2465  24.2465
    24.2466  24.2466  24.2467  24.2467  24.2501  24.2501  24.2501  24.2502
    24.4830  24.4831  24.4831  24.4832  24.5179  24.5179  24.5179  24.5179
    24.5179  24.5179  24.5180  24.5180  24.5267  24.5267  24.5268  24.5268
    24.7792  24.7793  24.7793  24.7794  27.4325  27.4326  27.4326  27.4326
    27.4326  27.4327  27.4327

          k =-0.5000-0.5000 0.1664 ( 30228 PWs)   bands (ev):

   -49.8964 -49.8963 -49.8963 -49.8962 -49.8415 -49.8413 -49.8413 -49.8412
   -49.8012 -49.8011 -49.8010 -49.8009 -49.7660 -49.7659 -49.7658 -49.7658
   -49.7658 -49.7658 -49.7657 -49.7656 -49.7656 -49.7655 -49.7654 -49.7654
   -49.7654 -49.7654 -49.7653 -49.7652 -49.7463 -49.7461 -49.7461 -49.7460
   -20.2221 -20.2221 -20.2221 -20.2221 -20.2221 -20.2221 -20.2220 -20.2220
   -20.1597 -20.1597 -20.1596 -20.1596 -20.1596 -20.1596 -20.1595 -20.1595
   -20.1550 -20.1548 -20.1548 -20.1547 -20.1547 -20.1546 -20.1546 -20.1545
   -20.0389 -20.0389 -20.0389 -20.0388 -19.9135 -19.9135 -19.9135 -19.9135
   -19.7619 -19.7619 -19.7619 -19.7619 -19.7619 -19.7619 -19.7619 -19.7619
   -19.7565 -19.7565 -19.7563 -19.7563 -19.7563 -19.7563 -19.7562 -19.7562
   -19.7207 -19.7207 -19.7207 -19.7207 -19.6479 -19.6478 -19.6478 -19.6478
   -19.6477 -19.6477 -19.6476 -19.6476 -19.6437 -19.6437 -19.6437 -19.6437
   -19.5955 -19.5954 -19.5954 -19.5954 -19.5865 -19.5865 -19.5864 -19.5864
   -19.5864 -19.5864 -19.5863 -19.5863 -19.5537 -19.5537 -19.5537 -19.5537
   -19.4876 -19.4876 -19.4875 -19.4875 -19.4742 -19.4741 -19.4741 -19.4740
   -19.4628 -19.4626 -19.4626 -19.4625 -19.3968 -19.3968 -19.3968 -19.3968
    16.8429  16.8431  16.8431  16.8433  17.5255  17.5255  17.5256  17.5256
    17.7836  17.7837  17.7837  17.7837  17.9030  17.9030  17.9030  17.9031
    17.9031  17.9031  17.9032  17.9032  17.9034  17.9034  17.9034  17.9034
    18.2725  18.2725  18.2725  18.2725  18.2726  18.2726  18.2726  18.2726
    18.3708  18.3708  18.3709  18.3709  18.3710  18.3710  18.3711  18.3711
    18.6511  18.6511  18.6511  18.6511  19.2911  19.2911  19.2912  19.2912
    19.2913  19.2913  19.2914  19.2914  19.7514  19.7515  19.7515  19.7516
    19.8893  19.8893  19.8893  19.8894  20.4750  20.4750  20.4750  20.4750
    20.6203  20.6203  20.6203  20.6203  20.6462  20.6463  20.6463  20.6464
    20.8669  20.8669  20.8669  20.8669  20.8670  20.8670  20.8670  20.8670
    21.0068  21.0069  21.0069  21.0070  21.0592  21.0593  21.0593  21.0593
    21.1321  21.1321  21.1321  21.1321  21.3140  21.3140  21.3140  21.3140
    21.3141  21.3141  21.3141  21.3141  21.5201  21.5201  21.5202  21.5202
    21.5219  21.5219  21.5219  21.5220  21.8039  21.8039  21.8039  21.8040
    21.8040  21.8040  21.8040  21.8040  22.3569  22.3570  22.3570  22.3571
    23.0552  23.0553  23.0553  23.0554  23.2521  23.2521  23.2522  23.2522
    23.2522  23.2523  23.2523  23.2523  23.3470  23.3471  23.3471  23.3472
    23.6038  23.6038  23.6038  23.6039  23.9832  23.9833  23.9833  23.9834
    24.5260  24.5260  24.5260  24.5260  24.5261  24.5261  24.5261  24.5262
    24.5857  24.5858  24.5858  24.5858  24.5858  24.5858  24.5858  24.5858
    24.6134  24.6134  24.6134  24.6135  24.6709  24.6709  24.6710  24.6710
    25.5406  25.5407  25.5407  25.5408  27.5160  27.5160  27.5160  27.5161
    27.5161  27.5161  27.5161

          k =-0.5000-0.5000 0.2773 ( 30204 PWs)   bands (ev):

   -49.8918 -49.8917 -49.8917 -49.8915 -49.8542 -49.8541 -49.8541 -49.8539
   -49.7885 -49.7883 -49.7883 -49.7882 -49.7659 -49.7659 -49.7658 -49.7657
   -49.7657 -49.7657 -49.7656 -49.7656 -49.7656 -49.7656 -49.7655 -49.7654
   -49.7654 -49.7654 -49.7653 -49.7653 -49.7509 -49.7507 -49.7507 -49.7506
   -20.2145 -20.2145 -20.2145 -20.2145 -20.2144 -20.2144 -20.2144 -20.2144
   -20.1761 -20.1760 -20.1760 -20.1759 -20.1712 -20.1711 -20.1711 -20.1710
   -20.1682 -20.1682 -20.1681 -20.1681 -20.1681 -20.1681 -20.1680 -20.1680
   -19.9870 -19.9869 -19.9869 -19.9869 -19.8707 -19.8706 -19.8706 -19.8706
   -19.7638 -19.7638 -19.7638 -19.7638 -19.7621 -19.7621 -19.7621 -19.7621
   -19.7621 -19.7621 -19.7621 -19.7621 -19.7586 -19.7586 -19.7585 -19.7585
   -19.7585 -19.7585 -19.7584 -19.7584 -19.6484 -19.6483 -19.6483 -19.6482
   -19.6380 -19.6380 -19.6379 -19.6379 -19.6378 -19.6378 -19.6378 -19.6378
   -19.6362 -19.6362 -19.6362 -19.6361 -19.5930 -19.5930 -19.5929 -19.5929
   -19.5929 -19.5928 -19.5928 -19.5928 -19.5745 -19.5745 -19.5745 -19.5745
   -19.4666 -19.4666 -19.4666 -19.4666 -19.4505 -19.4504 -19.4504 -19.4503
   -19.4478 -19.4477 -19.4476 -19.4475 -19.4045 -19.4045 -19.4045 -19.4045
    16.9023  16.9024  16.9025  16.9026  17.3747  17.3748  17.3748  17.3749
    17.8397  17.8397  17.8397  17.8397  17.8854  17.8854  17.8854  17.8854
    17.8855  17.8855  17.8856  17.8856  17.9648  17.9648  17.9648  17.9649
    18.1578  18.1578  18.1578  18.1578  18.1579  18.1579  18.1579  18.1579
    18.5524  18.5524  18.5524  18.5524  18.5525  18.5525  18.5526  18.5526
    18.7179  18.7179  18.7179  18.7180  19.2796  19.2796  19.2797  19.2797
    19.2797  19.2797  19.2798  19.2798  19.4596  19.4596  19.4597  19.4598
    20.0021  20.0021  20.0022  20.0022  20.4759  20.4759  20.4759  20.4760
    20.7239  20.7239  20.7239  20.7239  20.8006  20.8007  20.8007  20.8007
    20.8513  20.8513  20.8514  20.8514  20.8514  20.8514  20.8514  20.8514
    20.9843  20.9843  20.9844  20.9844  20.9879  20.9879  20.9879  20.9880
    21.0579  21.0579  21.0580  21.0580  21.2660  21.2660  21.2660  21.2660
    21.2661  21.2661  21.2661  21.2661  21.3920  21.3921  21.3921  21.3921
    21.7469  21.7470  21.7470  21.7471  21.9219  21.9219  21.9219  21.9219
    21.9219  21.9219  21.9220  21.9220  22.5598  22.5599  22.5600  22.5601
    22.8230  22.8231  22.8231  22.8232  22.8672  22.8672  22.8673  22.8673
    22.8674  22.8674  22.8674  22.8674  23.2553  23.2554  23.2554  23.2554
    23.2655  23.2655  23.2656  23.2656  23.6942  23.6943  23.6943  23.6944
    24.6974  24.6974  24.6974  24.6974  24.6974  24.6974  24.6975  24.6975
    24.7310  24.7310  24.7310  24.7311  24.7574  24.7574  24.7574  24.7574
    24.7575  24.7575  24.7575  24.7575  24.8039  24.8040  24.8040  24.8041
    26.3855  26.3856  26.3856  26.3857  27.6885  27.6885  27.6886  27.6886
    27.6886  27.6886  27.6887

          k =-0.5000-0.5000 0.3882 ( 30220 PWs)   bands (ev):

   -49.8850 -49.8849 -49.8849 -49.8847 -49.8660 -49.8658 -49.8658 -49.8657
   -49.7768 -49.7766 -49.7766 -49.7765 -49.7658 -49.7658 -49.7657 -49.7657
   -49.7657 -49.7657 -49.7657 -49.7656 -49.7655 -49.7655 -49.7655 -49.7655
   -49.7655 -49.7655 -49.7654 -49.7653 -49.7576 -49.7575 -49.7575 -49.7574
   -20.2040 -20.2040 -20.2040 -20.2040 -20.2039 -20.2039 -20.2039 -20.2039
   -20.1881 -20.1880 -20.1880 -20.1879 -20.1843 -20.1842 -20.1842 -20.1841
   -20.1795 -20.1795 -20.1794 -20.1794 -20.1794 -20.1793 -20.1793 -20.1793
   -19.9311 -19.9310 -19.9310 -19.9310 -19.8186 -19.8185 -19.8185 -19.8185
   -19.8164 -19.8163 -19.8163 -19.8163 -19.7621 -19.7621 -19.7621 -19.7621
   -19.7621 -19.7621 -19.7621 -19.7620 -19.7605 -19.7605 -19.7604 -19.7604
   -19.7604 -19.7604 -19.7603 -19.7603 -19.7046 -19.7046 -19.7046 -19.7045
   -19.6260 -19.6260 -19.6259 -19.6259 -19.6258 -19.6258 -19.6258 -19.6258
   -19.6251 -19.6251 -19.6251 -19.6251 -19.6022 -19.6022 -19.6022 -19.6022
   -19.6021 -19.6021 -19.6021 -19.6021 -19.5939 -19.5939 -19.5939 -19.5939
   -19.4473 -19.4473 -19.4473 -19.4472 -19.4363 -19.4362 -19.4362 -19.4362
   -19.4361 -19.4361 -19.4361 -19.4360 -19.4157 -19.4157 -19.4157 -19.4157
    16.9888  16.9890  16.9890  16.9891  17.2301  17.2302  17.2302  17.2303
    17.9028  17.9028  17.9029  17.9029  17.9030  17.9030  17.9030  17.9030
    17.9045  17.9045  17.9045  17.9046  17.9820  17.9820  17.9821  17.9821
    18.0460  18.0461  18.0461  18.0461  18.0462  18.0462  18.0462  18.0462
    18.7654  18.7654  18.7654  18.7654  18.7655  18.7655  18.7655  18.7655
    18.8273  18.8273  18.8273  18.8273  19.1708  19.1708  19.1709  19.1709
    19.1710  19.1710  19.1711  19.1711  19.1999  19.2000  19.2000  19.2001
    20.1507  20.1507  20.1507  20.1507  20.4201  20.4201  20.4201  20.4202
    20.8689  20.8690  20.8690  20.8690  20.8894  20.8894  20.8894  20.8894
    20.9253  20.9254  20.9254  20.9254  20.9254  20.9254  20.9255  20.9255
    20.9499  20.9499  20.9499  20.9500  20.9626  20.9626  20.9626  20.9627
    20.9931  20.9931  20.9931  20.9931  21.1801  21.1801  21.1801  21.1801
    21.1802  21.1802  21.1802  21.1802  21.2250  21.2250  21.2250  21.2251
    21.9995  21.9996  21.9996  21.9996  22.0673  22.0673  22.0674  22.0674
    22.0674  22.0674  22.0675  22.0675  22.5268  22.5268  22.5268  22.5269
    22.5269  22.5269  22.5270  22.5270  22.5520  22.5521  22.5521  22.5522
    22.8139  22.8140  22.8140  22.8141  23.0957  23.0958  23.0958  23.0958
    23.1672  23.1673  23.1673  23.1674  23.3950  23.3950  23.3951  23.3951
    24.8129  24.8129  24.8130  24.8130  24.8130  24.8130  24.8130  24.8130
    24.8300  24.8301  24.8301  24.8301  24.8753  24.8753  24.8753  24.8754
    24.8780  24.8780  24.8780  24.8780  24.8781  24.8781  24.8781  24.8781
    27.2954  27.2955  27.2955  27.2956  27.9465  27.9465  27.9466  27.9466
    27.9466  27.9467  27.9467

          k =-0.5000-0.5000-0.4991 ( 30280 PWs)   bands (ev):

   -49.8763 -49.8763 -49.8762 -49.8762 -49.8762 -49.8762 -49.8760 -49.8760
   -49.7664 -49.7664 -49.7663 -49.7662 -49.7662 -49.7662 -49.7661 -49.7661
   -49.7657 -49.7657 -49.7657 -49.7657 -49.7656 -49.7656 -49.7656 -49.7656
   -49.7656 -49.7656 -49.7656 -49.7656 -49.7654 -49.7654 -49.7654 -49.7654
   -20.1919 -20.1919 -20.1919 -20.1919 -20.1919 -20.1918 -20.1918 -20.1918
   -20.1918 -20.1918 -20.1918 -20.1918 -20.1918 -20.1917 -20.1917 -20.1917
   -20.1905 -20.1905 -20.1904 -20.1904 -20.1904 -20.1904 -20.1903 -20.1903
   -19.8733 -19.8733 -19.8733 -19.8733 -19.8733 -19.8733 -19.8732 -19.8732
   -19.7622 -19.7622 -19.7622 -19.7622 -19.7622 -19.7622 -19.7621 -19.7621
   -19.7617 -19.7617 -19.7616 -19.7616 -19.7616 -19.7616 -19.7616 -19.7616
   -19.7616 -19.7616 -19.7616 -19.7616 -19.7616 -19.7615 -19.7615 -19.7615
   -19.6136 -19.6136 -19.6136 -19.6136 -19.6136 -19.6136 -19.6136 -19.6136
   -19.6135 -19.6135 -19.6135 -19.6135 -19.6135 -19.6135 -19.6135 -19.6135
   -19.6109 -19.6109 -19.6109 -19.6109 -19.6109 -19.6109 -19.6109 -19.6109
   -19.4317 -19.4317 -19.4316 -19.4316 -19.4316 -19.4316 -19.4315 -19.4315
   -19.4301 -19.4301 -19.4301 -19.4301 -19.4301 -19.4301 -19.4301 -19.4301
    17.0995  17.0995  17.0996  17.0997  17.0997  17.0997  17.0998  17.0998
    17.9577  17.9577  17.9577  17.9577  17.9577  17.9577  17.9577  17.9577
    17.9579  17.9579  17.9579  17.9579  17.9579  17.9579  17.9579  17.9579
    17.9581  17.9581  17.9581  17.9581  17.9582  17.9582  17.9582  17.9582
    18.9838  18.9838  18.9838  18.9838  18.9838  18.9838  18.9838  18.9838
    18.9839  18.9839  18.9839  18.9840  18.9840  18.9840  18.9840  18.9840
    18.9870  18.9871  18.9871  18.9871  18.9871  18.9871  18.9871  18.9872
    20.3037  20.3038  20.3038  20.3038  20.3038  20.3038  20.3038  20.3038
    20.9327  20.9327  20.9327  20.9327  20.9327  20.9327  20.9327  20.9328
    20.9542  20.9542  20.9542  20.9543  20.9543  20.9543  20.9543  20.9543
    21.0427  21.0427  21.0427  21.0427  21.0427  21.0427  21.0428  21.0428
    21.0557  21.0557  21.0557  21.0558  21.0558  21.0558  21.0558  21.0558
    21.0558  21.0558  21.0558  21.0558  21.0559  21.0559  21.0559  21.0559
    22.2605  22.2605  22.2605  22.2606  22.2606  22.2606  22.2606  22.2606
    22.2606  22.2606  22.2606  22.2606  22.2607  22.2607  22.2607  22.2607
    22.2717  22.2717  22.2717  22.2717  22.2717  22.2717  22.2718  22.2718
    23.0900  23.0901  23.0901  23.0901  23.0901  23.0901  23.0902  23.0902
    23.0973  23.0973  23.0974  23.0974  23.0974  23.0974  23.0975  23.0975
    24.8826  24.8826  24.8827  24.8827  24.8827  24.8827  24.8827  24.8827
    24.8870  24.8870  24.8870  24.8870  24.8871  24.8871  24.8871  24.8871
    24.8871  24.8871  24.8871  24.8871  24.8871  24.8871  24.8871  24.8871
    28.2518  28.2530  28.2536  28.2552  28.2570  28.2587  28.2595  28.2610
    28.2646  28.2646  28.2647

     the Fermi energy is    23.0612 ev

!    total energy              =  -13813.30082480 Ry

     total all-electron energy =   -289989.691164 Ry
     estimated scf accuracy    <       0.00000006 Ry
     smearing contrib. (-TS)   =       0.02029055 Ry
     internal energy E=F+TS    =  -13813.32111535 Ry

     The total energy is F=E-TS. E is the sum of the following terms:
     one-electron contribution =   -1000.30113070 Ry
     hartree contribution      =     917.44298523 Ry
     xc contribution           =    -927.99395935 Ry
     ewald contribution        =   -5213.02914939 Ry
     one-center paw contrib.   =   -7589.43986115 Ry

     convergence has been achieved in  13 iterations

     Forces acting on atoms (cartesian axes, Ry/au):

     atom    1 type  1   force =     0.00000000    0.00000000    0.00000000
     atom    2 type  1   force =    -0.00002723   -0.00002723    0.00000000
     atom    3 type  1   force =    -0.00005928    0.00000000   -0.00001299
     atom    4 type  1   force =     0.00000000   -0.00005928   -0.00001299
     atom    5 type  1   force =     0.00000000    0.00000000    0.00000000
     atom    6 type  1   force =     0.00001188    0.00001188   -0.00000000
     atom    7 type  1   force =    -0.00005928    0.00000000    0.00001299
     atom    8 type  1   force =     0.00000000   -0.00005928    0.00001299
     atom    9 type  1   force =     0.00000000    0.00000000    0.00000000
     atom   10 type  1   force =    -0.00002723    0.00002723    0.00000000
     atom   11 type  1   force =     0.00006114    0.00000000    0.00001372
     atom   12 type  1   force =     0.00000000    0.00005928   -0.00001299
     atom   13 type  1   force =     0.00000000    0.00000000    0.00000000
     atom   14 type  1   force =     0.00001188   -0.00001188    0.00000000
     atom   15 type  1   force =     0.00006114    0.00000000   -0.00001372
     atom   16 type  1   force =     0.00000000    0.00005928    0.00001299
     atom   17 type  1   force =     0.00000000    0.00000000    0.00000000
     atom   18 type  1   force =     0.00002723   -0.00002723    0.00000000
     atom   19 type  1   force =     0.00005928    0.00000000   -0.00001299
     atom   20 type  1   force =     0.00000000    0.00006114    0.00001372
     atom   21 type  1   force =     0.00000000    0.00000000    0.00000000
     atom   22 type  1   force =    -0.00001188    0.00001188    0.00000000
     atom   23 type  1   force =     0.00005928    0.00000000    0.00001299
     atom   24 type  1   force =     0.00000000    0.00006114   -0.00001372
     atom   25 type  1   force =     0.00000000    0.00000000    0.00000000
     atom   26 type  1   force =     0.00002723    0.00002723    0.00000000
     atom   27 type  1   force =    -0.00006114    0.00000000    0.00001372
     atom   28 type  1   force =     0.00000000   -0.00006114    0.00001372
     atom   29 type  1   force =     0.00000000    0.00000000    0.00000000
     atom   30 type  1   force =    -0.00001188   -0.00001188   -0.00000000
     atom   31 type  1   force =    -0.00006114    0.00000000   -0.00001372
     atom   32 type  1   force =     0.00000000   -0.00006114   -0.00001372

     Total force =     0.000261     Total SCF correction =     0.000662
     SCF correction compared to forces is large: reduce conv_thr to get better values


     Computing stress (Cartesian axis) and pressure

          total   stress  (Ry/bohr**3)                   (kbar)     P=       -9.82
  -0.00005608   0.00000000   0.00000000           -8.25        0.00        0.00
   0.00000000  -0.00005608   0.00000000            0.00       -8.25        0.00
   0.00000000   0.00000000  -0.00008802            0.00        0.00      -12.95


     Writing output data file /scratch/lttTbJezHUXLTxrL.save/
 
     init_run     :     25.47s CPU     26.16s WALL (       1 calls)
     electrons    :   1132.64s CPU   1149.81s WALL (       1 calls)
     forces       :     11.21s CPU     11.30s WALL (       1 calls)
     stress       :     68.11s CPU     68.63s WALL (       1 calls)

     Called by init_run:
     wfcinit      :     24.20s CPU     24.83s WALL (       1 calls)
     potinit      :      0.20s CPU      0.22s WALL (       1 calls)
     hinit0       :      0.49s CPU      0.50s WALL (       1 calls)

     Called by electrons:
     c_bands      :   1007.20s CPU   1021.63s WALL (      14 calls)
     sum_band     :    123.19s CPU    125.68s WALL (      14 calls)
     v_of_rho     :      0.19s CPU      0.21s WALL (      14 calls)
     newd         :      0.50s CPU      0.63s WALL (      14 calls)
     PAW_pot      :      1.26s CPU      1.33s WALL (      14 calls)
     mix_rho      :      0.06s CPU      0.08s WALL (      14 calls)

     Called by c_bands:
     init_us_2    :      4.31s CPU      4.40s WALL (    2325 calls)
     cegterg      :    990.69s CPU   1004.41s WALL (    1050 calls)

     Called by *egterg:
     cdiaghg      :    129.52s CPU    130.64s WALL (    3851 calls)
     h_psi        :    514.87s CPU    523.64s WALL (    4001 calls)
     s_psi        :     37.51s CPU     37.78s WALL (    4001 calls)
     g_psi        :      0.96s CPU      0.98s WALL (    2876 calls)

     Called by h_psi:
     h_psi:calbec :     71.60s CPU     72.29s WALL (    4001 calls)
     vloc_psi     :    405.44s CPU    412.91s WALL (    4001 calls)
     add_vuspsi   :     35.60s CPU     36.17s WALL (    4001 calls)

     General routines
     calbec       :    116.34s CPU    117.42s WALL (    5426 calls)
     fft          :      0.60s CPU      0.62s WALL (     206 calls)
     ffts         :      0.05s CPU      0.05s WALL (      28 calls)
     fftw         :    476.62s CPU    485.40s WALL ( 1914266 calls)
     interpolate  :      0.19s CPU      0.20s WALL (      14 calls)
 
     Parallel routines
     fft_scatt_xy :     33.15s CPU     33.67s WALL ( 1914500 calls)
     fft_scatt_yz :    387.69s CPU    395.14s WALL ( 1914500 calls)
 
     PWSCF        :  20m55.92s CPU  21m17.99s WALL

 
   This run was terminated on:  20:17:10  23Nov2021            

=------------------------------------------------------------------------------=
   JOB DONE.
=------------------------------------------------------------------------------=
