
     Program PWSCF v.6.7MaX starts on 23Nov2021 at 21:40:40 

     This program is part of the open-source Quantum ESPRESSO suite
     for quantum simulation of materials; please cite
         "P. Giannozzi et al., J. Phys.:Condens. Matter 21 395502 (2009);
         "P. Giannozzi et al., J. Phys.:Condens. Matter 29 465901 (2017);
          URL http://www.quantum-espresso.org", 
     in publications or presentations arising from this work. More details at
     http://www.quantum-espresso.org/quote

     Parallel version (MPI & OpenMP), running on      72 processor cores
     Number of MPI processes:                72
     Threads/MPI process:                     1

     MPI processes distributed on     1 nodes
     R & G space division:  proc/nbgrp/npool/nimage =      72
     Reading input from /rds/homes/b/bxp912/jobs/20211014_ru_eos/wd/ec/ec_3_009.in
Warning: card &CELL ignored
Warning: card CELL_DYNAMICS = 'BFGS', ignored
Warning: card CELL_FACTOR = 2.0, ignored
Warning: card PRESS = 0.0, ignored
Warning: card / ignored

     Current dimensions of program PWSCF are:
     Max number of different atomic species (ntypx) = 10
     Max number of k-points (npk) =  40000
     Max angular momentum in pseudopotentials (lmaxx) =  3
     file Ru.pbe-spn-kjpaw_psl.1.0.0.UPF: wavefunction(s)  4D renormalized

     Subspace diagonalization in iterative solution of the eigenvalue problem:
     one sub-group per band group will be used
     ELPA distributed-memory algorithm (size of sub-group:  8*  8 procs)

     Found symmetry operation: I + (  0.2500  0.2500  0.0000)
     This is a supercell, fractional translations are disabled
     Message from routine setup:
     using ibrav=0 with symmetry is DISCOURAGED, use correct ibrav instead
 
     Parallelization info
     --------------------
     sticks:   dense  smooth     PW     G-vecs:    dense   smooth      PW
     Min          98      65     17                 6276     3367     477
     Max          99      66     18                 6281     3371     484
     Sum        7113    4693   1281               452103   242577   34561
 


     bravais-lattice index     =            0
     lattice parameter (alat)  =      14.4007  a.u.
     unit-cell volume          =    3001.3776 (a.u.)^3
     number of atoms/cell      =           32
     number of atomic types    =            1
     number of electrons       =       512.00
     number of Kohn-Sham states=          307
     kinetic-energy cutoff     =      71.0000  Ry
     charge density cutoff     =     430.0000  Ry
     scf convergence threshold =      1.0E-06
     mixing beta               =       0.1000
     number of iterations used =           10  plain     mixing
     Exchange-correlation= SLA  PW   PBX  PBC
                           (   1   4   3   4   0   0   0)

     celldm(1)=  14.400742  celldm(2)=   0.000000  celldm(3)=   0.000000
     celldm(4)=   0.000000  celldm(5)=   0.000000  celldm(6)=   0.000000

     crystal axes: (cart. coord. in units of alat)
               a(1) = (   1.000000   0.000000   0.000000 )  
               a(2) = (   0.000000   1.000000   0.000000 )  
               a(3) = (   0.000000   0.000000   1.005000 )  

     reciprocal axes: (cart. coord. in units 2 pi/alat)
               b(1) = (  1.000000  0.000000  0.000000 )  
               b(2) = (  0.000000  1.000000  0.000000 )  
               b(3) = (  0.000000  0.000000  0.995025 )  


     PseudoPot. # 1 for Ru read from file:
     /rds/homes/b/bxp912/pp/Ru.pbe-spn-kjpaw_psl.1.0.0.UPF
     MD5 check sum: 0ae1f594dea09af7be8575c3a481d1ae
     Pseudo is Projector augmented-wave + core cor, Zval = 16.0
     Generated using "atomic" code by A. Dal Corso  v.5.1
     Shape of augmentation charge: PSQ
     Using radial grid of 1233 points,  6 beta functions with: 
                l(1) =   0
                l(2) =   0
                l(3) =   1
                l(4) =   1
                l(5) =   2
                l(6) =   2
     Q(r) pseudized with 0 coefficients 


     atomic species   valence    mass     pseudopotential
        Ru            16.00   101.07000     Ru( 1.00)

     16 Sym. Ops., with inversion, found



   Cartesian axes

     site n.     atom                  positions (alat units)
         1           Ru  tau(   1) = (   0.0000000   0.0000000   0.0000000  )
         2           Ru  tau(   2) = (   0.2500000   0.2500000   0.0000000  )
         3           Ru  tau(   3) = (   0.2500000   0.0000000   0.2512495  )
         4           Ru  tau(   4) = (   0.0000000   0.2500000   0.2512495  )
         5           Ru  tau(   5) = (   0.0000000   0.0000000   0.5025000  )
         6           Ru  tau(   6) = (   0.2499990   0.2499990   0.5025000  )
         7           Ru  tau(   7) = (   0.2500000   0.0000000   0.7537495  )
         8           Ru  tau(   8) = (   0.0000000   0.2500000   0.7537495  )
         9           Ru  tau(   9) = (   0.0000000   0.5000002   0.0000000  )
        10           Ru  tau(  10) = (   0.2500000   0.7500004   0.0000000  )
        11           Ru  tau(  11) = (   0.2499990   0.5000002   0.2512484  )
        12           Ru  tau(  12) = (   0.0000000   0.7500004   0.2512495  )
        13           Ru  tau(  13) = (   0.0000000   0.5000002   0.5025000  )
        14           Ru  tau(  14) = (   0.2499990   0.7500015   0.5025000  )
        15           Ru  tau(  15) = (   0.2499990   0.5000002   0.7537505  )
        16           Ru  tau(  16) = (   0.0000000   0.7500004   0.7537495  )
        17           Ru  tau(  17) = (   0.5000002   0.0000000   0.0000000  )
        18           Ru  tau(  18) = (   0.7500004   0.2500000   0.0000000  )
        19           Ru  tau(  19) = (   0.7500004   0.0000000   0.2512495  )
        20           Ru  tau(  20) = (   0.5000002   0.2499990   0.2512484  )
        21           Ru  tau(  21) = (   0.5000002   0.0000000   0.5025000  )
        22           Ru  tau(  22) = (   0.7500015   0.2499990   0.5025000  )
        23           Ru  tau(  23) = (   0.7500004   0.0000000   0.7537495  )
        24           Ru  tau(  24) = (   0.5000002   0.2499990   0.7537505  )
        25           Ru  tau(  25) = (   0.5000002   0.5000002   0.0000000  )
        26           Ru  tau(  26) = (   0.7500004   0.7500004   0.0000000  )
        27           Ru  tau(  27) = (   0.7500015   0.5000002   0.2512484  )
        28           Ru  tau(  28) = (   0.5000002   0.7500015   0.2512484  )
        29           Ru  tau(  29) = (   0.5000002   0.5000002   0.5025000  )
        30           Ru  tau(  30) = (   0.7500015   0.7500015   0.5025000  )
        31           Ru  tau(  31) = (   0.7500015   0.5000002   0.7537505  )
        32           Ru  tau(  32) = (   0.5000002   0.7500015   0.7537505  )

     number of k points=    75  Marzari-Vanderbilt smearing, width (Ry)=  0.0400
                       cart. coord. in units 2pi/alat
        k(    1) = (   0.0555556   0.0555556   0.0552792), wk =   0.0219479
        k(    2) = (   0.0555556   0.0555556   0.1658375), wk =   0.0219479
        k(    3) = (   0.0555556   0.0555556   0.2763958), wk =   0.0219479
        k(    4) = (   0.0555556   0.0555556   0.3869541), wk =   0.0219479
        k(    5) = (   0.0555556   0.0555556  -0.4975124), wk =   0.0109739
        k(    6) = (   0.0555556   0.1666667   0.0552792), wk =   0.0438957
        k(    7) = (   0.0555556   0.1666667   0.1658375), wk =   0.0438957
        k(    8) = (   0.0555556   0.1666667   0.2763958), wk =   0.0438957
        k(    9) = (   0.0555556   0.1666667   0.3869541), wk =   0.0438957
        k(   10) = (   0.0555556   0.1666667  -0.4975124), wk =   0.0219479
        k(   11) = (   0.0555556   0.2777778   0.0552792), wk =   0.0438957
        k(   12) = (   0.0555556   0.2777778   0.1658375), wk =   0.0438957
        k(   13) = (   0.0555556   0.2777778   0.2763958), wk =   0.0438957
        k(   14) = (   0.0555556   0.2777778   0.3869541), wk =   0.0438957
        k(   15) = (   0.0555556   0.2777778  -0.4975124), wk =   0.0219479
        k(   16) = (   0.0555556   0.3888889   0.0552792), wk =   0.0438957
        k(   17) = (   0.0555556   0.3888889   0.1658375), wk =   0.0438957
        k(   18) = (   0.0555556   0.3888889   0.2763958), wk =   0.0438957
        k(   19) = (   0.0555556   0.3888889   0.3869541), wk =   0.0438957
        k(   20) = (   0.0555556   0.3888889  -0.4975124), wk =   0.0219479
        k(   21) = (   0.0555556  -0.5000000   0.0552792), wk =   0.0219479
        k(   22) = (   0.0555556  -0.5000000   0.1658375), wk =   0.0219479
        k(   23) = (   0.0555556  -0.5000000   0.2763958), wk =   0.0219479
        k(   24) = (   0.0555556  -0.5000000   0.3869541), wk =   0.0219479
        k(   25) = (   0.0555556  -0.5000000  -0.4975124), wk =   0.0109739
        k(   26) = (   0.1666667   0.1666667   0.0552792), wk =   0.0219479
        k(   27) = (   0.1666667   0.1666667   0.1658375), wk =   0.0219479
        k(   28) = (   0.1666667   0.1666667   0.2763958), wk =   0.0219479
        k(   29) = (   0.1666667   0.1666667   0.3869541), wk =   0.0219479
        k(   30) = (   0.1666667   0.1666667  -0.4975124), wk =   0.0109739
        k(   31) = (   0.1666667   0.2777778   0.0552792), wk =   0.0438957
        k(   32) = (   0.1666667   0.2777778   0.1658375), wk =   0.0438957
        k(   33) = (   0.1666667   0.2777778   0.2763958), wk =   0.0438957
        k(   34) = (   0.1666667   0.2777778   0.3869541), wk =   0.0438957
        k(   35) = (   0.1666667   0.2777778  -0.4975124), wk =   0.0219479
        k(   36) = (   0.1666667   0.3888889   0.0552792), wk =   0.0438957
        k(   37) = (   0.1666667   0.3888889   0.1658375), wk =   0.0438957
        k(   38) = (   0.1666667   0.3888889   0.2763958), wk =   0.0438957
        k(   39) = (   0.1666667   0.3888889   0.3869541), wk =   0.0438957
        k(   40) = (   0.1666667   0.3888889  -0.4975124), wk =   0.0219479
        k(   41) = (   0.1666667  -0.5000000   0.0552792), wk =   0.0219479
        k(   42) = (   0.1666667  -0.5000000   0.1658375), wk =   0.0219479
        k(   43) = (   0.1666667  -0.5000000   0.2763958), wk =   0.0219479
        k(   44) = (   0.1666667  -0.5000000   0.3869541), wk =   0.0219479
        k(   45) = (   0.1666667  -0.5000000  -0.4975124), wk =   0.0109739
        k(   46) = (   0.2777778   0.2777778   0.0552792), wk =   0.0219479
        k(   47) = (   0.2777778   0.2777778   0.1658375), wk =   0.0219479
        k(   48) = (   0.2777778   0.2777778   0.2763958), wk =   0.0219479
        k(   49) = (   0.2777778   0.2777778   0.3869541), wk =   0.0219479
        k(   50) = (   0.2777778   0.2777778  -0.4975124), wk =   0.0109739
        k(   51) = (   0.2777778   0.3888889   0.0552792), wk =   0.0438957
        k(   52) = (   0.2777778   0.3888889   0.1658375), wk =   0.0438957
        k(   53) = (   0.2777778   0.3888889   0.2763958), wk =   0.0438957
        k(   54) = (   0.2777778   0.3888889   0.3869541), wk =   0.0438957
        k(   55) = (   0.2777778   0.3888889  -0.4975124), wk =   0.0219479
        k(   56) = (   0.2777778  -0.5000000   0.0552792), wk =   0.0219479
        k(   57) = (   0.2777778  -0.5000000   0.1658375), wk =   0.0219479
        k(   58) = (   0.2777778  -0.5000000   0.2763958), wk =   0.0219479
        k(   59) = (   0.2777778  -0.5000000   0.3869541), wk =   0.0219479
        k(   60) = (   0.2777778  -0.5000000  -0.4975124), wk =   0.0109739
        k(   61) = (   0.3888889   0.3888889   0.0552792), wk =   0.0219479
        k(   62) = (   0.3888889   0.3888889   0.1658375), wk =   0.0219479
        k(   63) = (   0.3888889   0.3888889   0.2763958), wk =   0.0219479
        k(   64) = (   0.3888889   0.3888889   0.3869541), wk =   0.0219479
        k(   65) = (   0.3888889   0.3888889  -0.4975124), wk =   0.0109739
        k(   66) = (   0.3888889  -0.5000000   0.0552792), wk =   0.0219479
        k(   67) = (   0.3888889  -0.5000000   0.1658375), wk =   0.0219479
        k(   68) = (   0.3888889  -0.5000000   0.2763958), wk =   0.0219479
        k(   69) = (   0.3888889  -0.5000000   0.3869541), wk =   0.0219479
        k(   70) = (   0.3888889  -0.5000000  -0.4975124), wk =   0.0109739
        k(   71) = (  -0.5000000  -0.5000000   0.0552792), wk =   0.0054870
        k(   72) = (  -0.5000000  -0.5000000   0.1658375), wk =   0.0054870
        k(   73) = (  -0.5000000  -0.5000000   0.2763958), wk =   0.0054870
        k(   74) = (  -0.5000000  -0.5000000   0.3869541), wk =   0.0054870
        k(   75) = (  -0.5000000  -0.5000000  -0.4975124), wk =   0.0027435

     Dense  grid:   452103 G-vectors     FFT dimensions: (  96,  96,  96)

     Smooth grid:   242577 G-vectors     FFT dimensions: (  80,  80,  80)

     Estimated max dynamical RAM per process >     186.48 MB

     Estimated total dynamical RAM >      13.11 GB

     Check: negative core charge=   -0.000002

     Initial potential from superposition of free atoms

     starting charge  511.97959, renormalised to  512.00000
     Starting wfcs are  320 randomized atomic wfcs
     Checking if some PAW data can be deallocated... 

     total cpu time spent up to now is       32.3 secs

     Self-consistent Calculation

     iteration #  1     ecut=    71.00 Ry     beta= 0.10
     Davidson diagonalization with overlap
     ethr =  1.00E-02,  avg # of iterations =  3.4

     Threshold (ethr) on eigenvalues was too large:
     Diagonalizing with lowered threshold

     Davidson diagonalization with overlap
     ethr =  8.26E-05,  avg # of iterations =  5.5

     total cpu time spent up to now is      208.9 secs

     total energy              =  -13813.41118805 Ry
     estimated scf accuracy    <       0.63667872 Ry

     iteration #  2     ecut=    71.00 Ry     beta= 0.10
     Davidson diagonalization with overlap
     ethr =  1.24E-04,  avg # of iterations =  1.0

     total cpu time spent up to now is      272.9 secs

     total energy              =  -13813.20364166 Ry
     estimated scf accuracy    <       0.39717434 Ry

     iteration #  3     ecut=    71.00 Ry     beta= 0.10
     Davidson diagonalization with overlap
     ethr =  7.76E-05,  avg # of iterations =  2.3

     total cpu time spent up to now is      363.3 secs

     total energy              =  -13813.29926668 Ry
     estimated scf accuracy    <       0.01243511 Ry

     iteration #  4     ecut=    71.00 Ry     beta= 0.10
     Davidson diagonalization with overlap
     ethr =  2.43E-06,  avg # of iterations =  3.0

     total cpu time spent up to now is      444.5 secs

     total energy              =  -13813.29919102 Ry
     estimated scf accuracy    <       0.00824239 Ry

     iteration #  5     ecut=    71.00 Ry     beta= 0.10
     Davidson diagonalization with overlap
     ethr =  1.61E-06,  avg # of iterations =  1.1

     total cpu time spent up to now is      508.0 secs

     total energy              =  -13813.30070857 Ry
     estimated scf accuracy    <       0.00553658 Ry

     iteration #  6     ecut=    71.00 Ry     beta= 0.10
     Davidson diagonalization with overlap
     ethr =  1.08E-06,  avg # of iterations =  3.7

     total cpu time spent up to now is      604.5 secs

     total energy              =  -13813.29851738 Ry
     estimated scf accuracy    <       0.01689281 Ry

     iteration #  7     ecut=    71.00 Ry     beta= 0.10
     Davidson diagonalization with overlap
     ethr =  1.08E-06,  avg # of iterations =  2.4

     total cpu time spent up to now is      693.1 secs

     total energy              =  -13813.29994289 Ry
     estimated scf accuracy    <       0.00112011 Ry

     iteration #  8     ecut=    71.00 Ry     beta= 0.10
     Davidson diagonalization with overlap
     ethr =  2.19E-07,  avg # of iterations =  2.3

     total cpu time spent up to now is      767.3 secs

     total energy              =  -13813.30000519 Ry
     estimated scf accuracy    <       0.00024280 Ry

     iteration #  9     ecut=    71.00 Ry     beta= 0.10
     Davidson diagonalization with overlap
     ethr =  4.74E-08,  avg # of iterations =  2.1

     total cpu time spent up to now is      835.2 secs

     total energy              =  -13813.29993989 Ry
     estimated scf accuracy    <       0.00015287 Ry

     iteration # 10     ecut=    71.00 Ry     beta= 0.10
     Davidson diagonalization with overlap
     ethr =  2.99E-08,  avg # of iterations =  2.5

     total cpu time spent up to now is      920.2 secs

     total energy              =  -13813.29996344 Ry
     estimated scf accuracy    <       0.00000661 Ry

     iteration # 11     ecut=    71.00 Ry     beta= 0.10
     Davidson diagonalization with overlap
     ethr =  1.29E-09,  avg # of iterations =  4.3

     total cpu time spent up to now is     1018.0 secs

     End of self-consistent calculation

          k = 0.0556 0.0556 0.0553 ( 30395 PWs)   bands (ev):

   -50.0391 -49.9423 -49.9408 -49.9408 -49.9236 -49.9218 -49.9218 -49.8873
   -49.8872 -49.8871 -49.8780 -49.8771 -49.8770 -49.8769 -49.8768 -49.8768
   -49.8768 -49.8764 -49.8763 -49.8763 -49.8683 -49.8682 -49.8682 -49.8259
   -49.8239 -49.8239 -49.8237 -49.8236 -49.8226 -49.8226 -49.8222 -49.8222
   -20.4359 -20.4359 -20.4358 -20.4318 -20.3749 -20.3749 -20.3733 -20.1819
   -20.1747 -20.1747 -20.1710 -20.1710 -20.1637 -20.1636 -20.1632 -20.1631
   -20.1513 -20.1433 -20.1433 -20.1275 -20.1275 -20.1221 -20.1221 -20.1216
   -20.1216 -20.0784 -20.0784 -20.0723 -20.0723 -20.0713 -20.0713 -19.9766
   -19.9766 -19.9753 -19.9049 -19.9049 -19.9031 -19.8969 -19.8969 -19.8957
   -19.8646 -19.8646 -19.8634 -19.8634 -19.8622 -19.8622 -19.8244 -19.8244
   -19.8227 -19.8190 -19.8190 -19.8178 -19.8178 -19.8177 -19.8177 -19.8145
   -19.8145 -19.8066 -19.8066 -19.8059 -19.8014 -19.6510 -19.6510 -19.6457
   -19.6457 -19.6440 -19.6432 -19.6187 -19.6187 -19.6145 -19.6145 -19.6126
   -19.6125 -19.6027 -19.6027 -19.5967 -19.5922 -19.5903 -19.5903 -19.5894
   -19.5894 -19.5893 -19.5893 -19.5865 -19.5839 -19.5839 -19.5839 -19.5839
   -19.5818 -19.5791 -19.5711 -19.5711 -19.5658 -19.4581 -19.4515 -19.4510
    15.2314  16.8021  16.8021  16.8064  17.0765  17.0941  17.0941  17.0942
    17.2680  17.2680  17.2731  17.4681  17.4860  17.4861  17.6425  17.6597
    17.6599  18.1855  18.1855  18.2119  18.2120  18.2130  18.2131  18.5066
    18.5239  18.5239  18.7726  18.7727  18.7737  18.7745  18.7969  18.7970
    18.8805  18.8827  18.8828  18.8830  18.8831  18.8831  18.8831  18.8843
    18.8843  19.3628  19.3629  19.3763  19.3763  19.3874  19.3874  19.5021
    19.5276  19.5277  19.5330  19.5330  19.5592  19.5592  19.5612  19.5612
    19.5991  19.6231  19.6231  19.8622  19.8623  19.8713  19.8713  19.8736
    19.8737  19.8737  19.8738  19.8783  19.8783  19.8815  19.8845  19.8845
    19.8907  19.8908  20.0453  20.0454  20.0503  20.3004  20.3280  20.3280
    20.3358  20.3838  20.3838  20.3970  20.4118  20.4362  20.4932  20.5103
    21.4271  21.4732  21.4732  21.5921  21.6422  21.6423  21.6715  21.6715
    21.6876  21.7706  21.7707  21.7725  21.7725  21.7855  21.7855  21.7860
    21.7860  21.7983  22.0744  22.0744  22.1017  22.1975  22.1976  22.2140
    22.4413  22.4413  22.4666  22.5197  22.5197  22.5311  22.5312  22.5324
    22.5324  22.5381  22.5382  22.5609  22.5795  22.5795  22.5954  22.7665
    22.7665  22.7674  22.7674  22.7876  22.7876  22.7956  22.8668  22.9389
    22.9389  22.9595  23.5897  23.5897  23.6224  23.6470  23.6471  23.6537
    23.7501  23.7501  23.7783  23.8498  24.5708  24.5708  24.5748  24.5990
    24.6299  24.6334  24.6566  24.6566  24.9206  24.9329  24.9329  24.9523
    24.9523  24.9680  25.1008  25.1008  25.1028  25.1028  25.1178  25.1247
    25.1247  25.1424  25.1424  26.5430  26.5430  26.5780  26.6644  26.7594
    26.7594  27.0715  27.0716

          k = 0.0556 0.0556 0.1658 ( 30335 PWs)   bands (ev):

   -50.0358 -49.9606 -49.9390 -49.9390 -49.9203 -49.9203 -49.9052 -49.8973
   -49.8973 -49.8868 -49.8852 -49.8852 -49.8796 -49.8768 -49.8768 -49.8764
   -49.8764 -49.8748 -49.8685 -49.8670 -49.8670 -49.8597 -49.8597 -49.8292
   -49.8257 -49.8257 -49.8251 -49.8251 -49.8226 -49.8225 -49.8222 -49.8222
   -20.4286 -20.4249 -20.4249 -20.4169 -20.3667 -20.3667 -20.3605 -20.2114
   -20.1985 -20.1985 -20.1790 -20.1790 -20.1781 -20.1762 -20.1762 -20.1746
   -20.1746 -20.1463 -20.1463 -20.1322 -20.1322 -20.1188 -20.1188 -20.1172
   -20.1172 -20.0802 -20.0802 -20.0625 -20.0625 -20.0525 -20.0307 -20.0307
   -19.9887 -19.9887 -19.9444 -19.9444 -19.9128 -19.9128 -19.9017 -19.9017
   -19.8716 -19.8343 -19.8343 -19.8281 -19.8281 -19.8246 -19.8246 -19.8162
   -19.8139 -19.8138 -19.8056 -19.8056 -19.8036 -19.8036 -19.8031 -19.8031
   -19.8006 -19.7973 -19.7961 -19.7859 -19.7859 -19.6747 -19.6733 -19.6582
   -19.6581 -19.6381 -19.6380 -19.6257 -19.6257 -19.6221 -19.6221 -19.6136
   -19.6136 -19.6093 -19.6055 -19.6055 -19.6021 -19.6021 -19.5961 -19.5921
   -19.5845 -19.5838 -19.5838 -19.5834 -19.5834 -19.5824 -19.5824 -19.5823
   -19.5816 -19.5764 -19.5663 -19.5594 -19.5594 -19.4753 -19.4565 -19.4548
    15.3167  16.8562  16.8648  16.8648  17.1157  17.1508  17.1508  17.1658
    17.1682  17.3106  17.3296  17.3296  17.5470  17.5472  17.6693  17.7240
    17.7242  18.0672  18.0672  18.2541  18.2590  18.2591  18.2698  18.2699
    18.4614  18.5629  18.5630  18.5666  18.5666  18.6172  18.6331  18.6332
    18.8188  18.8189  18.8296  18.8296  18.8502  18.8503  18.9248  18.9248
    18.9804  18.9804  19.0509  19.3431  19.3432  19.3907  19.3907  19.4383
    19.4383  19.4532  19.4532  19.5078  19.5079  19.5927  19.5928  19.6145
    19.7000  19.7001  19.7069  19.7069  19.7956  19.8170  19.8170  19.8666
    19.8666  19.8828  19.8828  19.8972  19.8973  20.1273  20.1273  20.1547
    20.1548  20.1768  20.2239  20.2294  20.2734  20.2734  20.3339  20.3650
    20.4242  20.4242  20.4299  20.4499  20.4499  20.4740  20.5476  20.5569
    21.2457  21.2457  21.3732  21.3732  21.4246  21.4915  21.5990  21.5990
    21.6278  21.7023  21.7023  21.7649  21.8808  21.8809  21.8949  21.9138
    21.9139  21.9558  21.9587  21.9587  22.0444  22.0444  22.3753  22.3753
    22.3978  22.3978  22.4044  22.4044  22.5323  22.5324  22.5451  22.5452
    22.6550  22.6550  22.6775  22.6776  22.7246  22.7876  22.7876  22.7929
    22.8524  22.8907  23.0050  23.0050  23.0184  23.0533  23.0533  23.1532
    23.1704  23.1704  23.1918  23.2390  23.2390  23.4257  23.4729  23.6541
    23.6541  23.8444  23.8445  23.9367  24.3677  24.3677  24.4832  24.4832
    24.4851  24.5355  24.5862  24.5885  24.5885  24.7854  24.8814  24.9752
    24.9752  24.9784  24.9784  25.0094  25.1369  25.1369  25.1421  25.1421
    25.3071  25.3071  25.5340  26.0296  26.0296  26.3665  26.5191  26.5503
    26.5503  27.0573  27.0573

          k = 0.0556 0.0556 0.2764 ( 30319 PWs)   bands (ev):

   -50.0295 -49.9781 -49.9355 -49.9354 -49.9173 -49.9173 -49.9070 -49.9069
   -49.8933 -49.8933 -49.8876 -49.8861 -49.8812 -49.8768 -49.8767 -49.8764
   -49.8764 -49.8733 -49.8690 -49.8574 -49.8574 -49.8517 -49.8517 -49.8356
   -49.8292 -49.8292 -49.8281 -49.8280 -49.8226 -49.8225 -49.8223 -49.8222
   -20.4105 -20.4033 -20.4033 -20.3917 -20.3507 -20.3507 -20.3351 -20.2553
   -20.2412 -20.2412 -20.2207 -20.2195 -20.2195 -20.1821 -20.1821 -20.1767
   -20.1767 -20.1470 -20.1470 -20.1251 -20.1237 -20.1236 -20.1219 -20.1219
   -20.0859 -20.0859 -20.0828 -20.0828 -20.0475 -20.0475 -20.0104 -20.0104
   -19.9847 -19.9847 -19.9818 -19.9818 -19.9405 -19.9405 -19.9381 -19.9381
   -19.8463 -19.8463 -19.8236 -19.8126 -19.8126 -19.8059 -19.8059 -19.7910
   -19.7910 -19.7900 -19.7863 -19.7863 -19.7859 -19.7783 -19.7783 -19.7761
   -19.7761 -19.7573 -19.7490 -19.7490 -19.7394 -19.7040 -19.7019 -19.6723
   -19.6723 -19.6471 -19.6471 -19.6429 -19.6428 -19.6392 -19.6392 -19.6372
   -19.6251 -19.6251 -19.6245 -19.6245 -19.6089 -19.5951 -19.5913 -19.5912
   -19.5870 -19.5837 -19.5837 -19.5832 -19.5832 -19.5817 -19.5817 -19.5740
   -19.5671 -19.5545 -19.5544 -19.5532 -19.5520 -19.5057 -19.4671 -19.4648
    15.4846  16.7923  16.9525  16.9871  16.9871  17.2117  17.2634  17.2634
    17.2972  17.3849  17.4523  17.4523  17.5802  17.6652  17.6654  17.8488
    17.8490  17.8647  17.8647  18.0225  18.1272  18.2269  18.2269  18.2942
    18.3487  18.3487  18.3811  18.3812  18.4568  18.4569  18.5230  18.5230
    18.6400  18.6401  18.6734  18.6735  18.7984  18.7985  18.8932  18.8932
    19.0526  19.0526  19.2631  19.2632  19.3134  19.3135  19.3216  19.3217
    19.3277  19.3458  19.3458  19.3918  19.3918  19.4762  19.4762  19.6412
    19.6413  19.6784  19.7419  19.7420  19.8056  19.8056  19.8875  19.8875
    19.9069  19.9070  19.9691  19.9714  19.9714  20.1298  20.1982  20.1982
    20.2373  20.2373  20.2390  20.2979  20.5099  20.5493  20.5522  20.5522
    20.5625  20.5625  20.5821  20.6436  20.6496  20.6685  20.9719  20.9719
    21.0132  21.0132  21.0320  21.0320  21.2459  21.3563  21.3563  21.3901
    21.3910  21.4616  21.7748  21.8270  21.8270  22.0301  22.0301  22.0560
    22.0561  22.0950  22.0950  22.1698  22.1698  22.2886  22.2886  22.3842
    22.3842  22.4773  22.5218  22.5219  22.5247  22.5247  22.5573  22.5573
    22.5880  22.6052  22.6052  22.6857  22.7135  22.7135  22.8282  22.8898
    22.8898  22.9379  22.9553  22.9553  23.1074  23.2489  23.3086  23.3086
    23.3335  23.3818  23.3818  23.4341  23.4534  23.4534  23.4813  23.6927
    23.6927  23.8343  23.8343  24.0940  24.0994  24.0994  24.2755  24.2755
    24.2991  24.4340  24.4340  24.4494  24.4613  24.5237  24.7460  24.7460
    24.7490  24.7490  24.8150  25.1388  25.1388  25.1416  25.1417  25.2754
    25.5260  25.5261  25.7432  25.7432  25.8472  26.0266  26.0266  26.0903
    26.3991  26.9396  26.9396

          k = 0.0556 0.0556 0.3870 ( 30299 PWs)   bands (ev):

   -50.0202 -49.9941 -49.9303 -49.9303 -49.9158 -49.9158 -49.9130 -49.9130
   -49.9008 -49.9008 -49.8853 -49.8827 -49.8767 -49.8767 -49.8765 -49.8765
   -49.8719 -49.8714 -49.8698 -49.8486 -49.8486 -49.8450 -49.8443 -49.8443
   -49.8343 -49.8342 -49.8323 -49.8323 -49.8225 -49.8225 -49.8223 -49.8223
   -20.3824 -20.3722 -20.3722 -20.3573 -20.3272 -20.3272 -20.3021 -20.2979
   -20.2881 -20.2881 -20.2686 -20.2607 -20.2607 -20.1915 -20.1811 -20.1811
   -20.1680 -20.1680 -20.1620 -20.1619 -20.1369 -20.1368 -20.0969 -20.0969
   -20.0690 -20.0690 -20.0505 -20.0505 -20.0378 -20.0378 -20.0270 -20.0270
   -20.0159 -20.0159 -19.9752 -19.9752 -19.9718 -19.9717 -19.9421 -19.9421
   -19.8718 -19.8718 -19.8108 -19.8108 -19.8072 -19.8072 -19.7746 -19.7710
   -19.7708 -19.7509 -19.7509 -19.7462 -19.7462 -19.7434 -19.7434 -19.7430
   -19.7430 -19.7310 -19.7282 -19.7149 -19.7149 -19.7133 -19.6930 -19.6930
   -19.6766 -19.6766 -19.6759 -19.6759 -19.6747 -19.6676 -19.6591 -19.6591
   -19.6567 -19.6567 -19.6359 -19.6104 -19.6104 -19.5936 -19.5895 -19.5869
   -19.5869 -19.5836 -19.5836 -19.5833 -19.5833 -19.5763 -19.5763 -19.5718
   -19.5683 -19.5562 -19.5562 -19.5486 -19.5264 -19.5246 -19.4827 -19.4802
    15.7294  16.4040  17.0888  17.1626  17.1626  17.3635  17.4269  17.4304
    17.4304  17.4789  17.4952  17.6231  17.6231  17.6350  17.6350  17.8165
    17.8255  17.8321  17.8322  17.9169  17.9169  17.9847  18.0258  18.0259
    18.1727  18.1727  18.2501  18.2502  18.4675  18.4676  18.4700  18.4701
    18.5426  18.5426  18.7186  18.7186  18.7532  18.7532  18.9631  18.9632
    18.9841  18.9841  19.0733  19.0733  19.2211  19.2211  19.2558  19.2558
    19.2908  19.2909  19.3602  19.3603  19.3756  19.3756  19.5957  19.6234
    19.6235  19.6670  19.6670  19.7739  19.9002  19.9002  19.9079  19.9079
    19.9150  19.9151  20.0121  20.0623  20.0681  20.1049  20.1049  20.1501
    20.1501  20.2353  20.3463  20.3463  20.6356  20.6945  20.6945  20.6978
    20.6979  20.7180  20.7180  20.7335  20.7837  20.7879  21.0024  21.0024
    21.0103  21.0609  21.1470  21.1524  21.1765  21.1765  21.1826  21.1958
    21.6411  21.6411  21.9373  21.9478  21.9478  22.0172  22.0172  22.1640
    22.1640  22.1699  22.2184  22.2210  22.2211  22.2694  22.2694  22.3015
    22.3015  22.3526  22.3526  22.3601  22.3601  22.3969  22.4841  22.4841
    22.5135  22.5136  22.5430  22.5430  22.6283  22.6283  22.8457  22.8457
    22.9910  22.9910  23.0075  23.0751  23.2075  23.2995  23.2995  23.4392
    23.6299  23.6299  23.6410  23.7342  23.7363  23.7363  23.7738  23.7738
    23.9937  23.9960  23.9960  24.0528  24.1452  24.1537  24.1537  24.2118
    24.2118  24.2484  24.2678  24.2855  24.4449  24.4449  24.4469  24.4469
    24.5047  24.5047  24.5906  25.0353  25.0353  25.1396  25.1396  25.1410
    25.1410  25.2149  25.5024  25.5024  25.6464  26.1492  26.1492  26.2144
    26.5815  26.7528  26.7528

          k = 0.0556 0.0556-0.4975 ( 30292 PWs)   bands (ev):

   -50.0083 -50.0083 -49.9237 -49.9237 -49.9237 -49.9236 -49.9074 -49.9074
   -49.9074 -49.9074 -49.8841 -49.8841 -49.8766 -49.8766 -49.8766 -49.8766
   -49.8708 -49.8707 -49.8571 -49.8570 -49.8408 -49.8408 -49.8408 -49.8407
   -49.8378 -49.8378 -49.8378 -49.8377 -49.8225 -49.8224 -49.8224 -49.8224
   -20.3456 -20.3456 -20.3330 -20.3330 -20.3330 -20.3330 -20.3154 -20.3153
   -20.2970 -20.2970 -20.2970 -20.2970 -20.2496 -20.2496 -20.1740 -20.1740
   -20.1740 -20.1739 -20.1541 -20.1541 -20.1540 -20.1540 -20.0676 -20.0675
   -20.0675 -20.0675 -20.0455 -20.0455 -20.0455 -20.0455 -20.0128 -20.0128
   -20.0128 -20.0128 -20.0016 -20.0016 -20.0016 -20.0016 -19.9041 -19.9041
   -19.9040 -19.9040 -19.8090 -19.8090 -19.8090 -19.8090 -19.7547 -19.7547
   -19.7514 -19.7514 -19.7201 -19.7201 -19.7194 -19.7194 -19.7194 -19.7194
   -19.7111 -19.7111 -19.7111 -19.7111 -19.7094 -19.7093 -19.7093 -19.7093
   -19.6970 -19.6970 -19.6970 -19.6970 -19.6846 -19.6846 -19.6846 -19.6846
   -19.6715 -19.6715 -19.6032 -19.6032 -19.5969 -19.5969 -19.5969 -19.5969
   -19.5918 -19.5917 -19.5835 -19.5834 -19.5834 -19.5834 -19.5699 -19.5699
   -19.5639 -19.5639 -19.5638 -19.5638 -19.5027 -19.5027 -19.5004 -19.5004
    16.0412  16.0412  17.2531  17.2532  17.3803  17.3803  17.3803  17.3803
    17.5691  17.5691  17.6397  17.6398  17.6494  17.6494  17.6494  17.6494
    17.7098  17.7098  17.8759  17.8759  17.8759  17.8759  18.0337  18.0338
    18.0338  18.0339  18.2400  18.2401  18.2401  18.2402  18.6030  18.6030
    18.6030  18.6030  18.7450  18.7451  18.7451  18.7451  18.8992  18.8993
    18.8993  18.8993  19.0962  19.0963  19.0963  19.0963  19.2984  19.2984
    19.2984  19.2985  19.3234  19.3234  19.3234  19.3234  19.6263  19.6263
    19.6264  19.6264  19.8442  19.8442  19.8891  19.8892  19.9168  19.9168
    19.9168  19.9168  20.0021  20.0022  20.0022  20.0022  20.1559  20.1559
    20.3983  20.3983  20.3983  20.3983  20.5061  20.5062  20.5062  20.5062
    20.8040  20.8040  20.8734  20.8734  20.8734  20.8734  20.9241  20.9241
    20.9659  20.9659  20.9705  20.9705  21.6200  21.6200  21.6200  21.6200
    21.6246  21.6247  21.6561  21.6561  21.9991  21.9992  21.9992  21.9992
    22.1698  22.1698  22.3027  22.3027  22.3028  22.3028  22.3171  22.3172
    22.3172  22.3172  22.4025  22.4025  22.4025  22.4025  22.4089  22.4090
    22.4090  22.4090  22.4789  22.4789  22.4789  22.4790  22.7290  22.7291
    22.7291  22.7291  23.0981  23.0981  23.6548  23.6548  23.6601  23.6601
    23.6601  23.6601  23.7607  23.7607  23.9379  23.9379  23.9380  23.9380
    24.0032  24.0032  24.0196  24.0196  24.0981  24.0981  24.0981  24.0981
    24.1129  24.1129  24.1129  24.1129  24.4054  24.4054  24.5693  24.5693
    24.5693  24.5693  24.5742  24.5742  24.9878  24.9878  24.9878  24.9878
    25.1403  25.1403  25.1403  25.1403  25.9629  25.9629  26.4897  26.4897
    26.4897  26.4897  26.9794

          k = 0.0556 0.1667 0.0553 ( 30370 PWs)   bands (ev):

   -50.0358 -49.9594 -49.9404 -49.9390 -49.9221 -49.9203 -49.9031 -49.8976
   -49.8972 -49.8869 -49.8858 -49.8853 -49.8797 -49.8770 -49.8768 -49.8764
   -49.8763 -49.8747 -49.8684 -49.8668 -49.8664 -49.8599 -49.8595 -49.8259
   -49.8259 -49.8254 -49.8253 -49.8243 -49.8240 -49.8237 -49.8234 -49.8226
   -20.4285 -20.4248 -20.4245 -20.4167 -20.3666 -20.3650 -20.3621 -20.2057
   -20.1926 -20.1920 -20.1859 -20.1836 -20.1796 -20.1771 -20.1714 -20.1699
   -20.1698 -20.1536 -20.1455 -20.1371 -20.1326 -20.1251 -20.1243 -20.1191
   -20.1168 -20.0857 -20.0803 -20.0694 -20.0634 -20.0539 -20.0239 -20.0226
   -19.9896 -19.9874 -19.9455 -19.9431 -19.9138 -19.9115 -19.9040 -19.9010
   -19.8719 -19.8353 -19.8343 -19.8235 -19.8223 -19.8217 -19.8194 -19.8173
   -19.8165 -19.8159 -19.8122 -19.8103 -19.8039 -19.8014 -19.8011 -19.8008
   -19.8006 -19.7992 -19.7977 -19.7847 -19.7837 -19.6826 -19.6763 -19.6531
   -19.6511 -19.6423 -19.6360 -19.6220 -19.6215 -19.6197 -19.6159 -19.6135
   -19.6087 -19.6082 -19.6046 -19.6038 -19.6022 -19.6004 -19.5962 -19.5896
   -19.5895 -19.5893 -19.5892 -19.5884 -19.5870 -19.5851 -19.5835 -19.5823
   -19.5804 -19.5777 -19.5715 -19.5593 -19.5546 -19.4752 -19.4570 -19.4548
    15.3175  16.8528  16.8658  16.8702  17.1159  17.1510  17.1510  17.1684
    17.1825  17.3061  17.3292  17.3349  17.5307  17.5479  17.6844  17.7083
    17.7250  18.0901  18.0932  18.2349  18.2438  18.2610  18.2666  18.2695
    18.4637  18.5463  18.5618  18.5692  18.5703  18.6205  18.6346  18.6373
    18.8080  18.8227  18.8232  18.8284  18.8485  18.8517  18.9139  18.9348
    18.9786  18.9799  19.0789  19.3531  19.3651  19.3668  19.3806  19.4167
    19.4306  19.4360  19.4509  19.4939  19.5109  19.5885  19.5898  19.6293
    19.6933  19.7005  19.7233  19.7297  19.8228  19.8296  19.8418  19.8563
    19.8631  19.8689  19.8721  19.8804  19.8858  20.1203  20.1247  20.1459
    20.1486  20.1681  20.2228  20.2679  20.2686  20.3174  20.3546  20.4042
    20.4058  20.4080  20.4122  20.4332  20.4384  20.4540  20.5014  20.5543
    21.2049  21.2349  21.3308  21.3658  21.4582  21.4687  21.5784  21.5790
    21.6091  21.7071  21.7224  21.7365  21.8828  21.8884  21.8964  21.9191
    21.9275  21.9657  21.9747  22.0085  22.0585  22.0775  22.3783  22.3989
    22.3991  22.4069  22.4121  22.4330  22.5227  22.5332  22.5373  22.5491
    22.6583  22.6749  22.6888  22.6922  22.7659  22.7778  22.7899  22.7968
    22.8294  22.8502  22.9907  22.9923  23.0072  23.0538  23.0698  23.1397
    23.1716  23.1841  23.1892  23.2328  23.2417  23.4243  23.4359  23.6527
    23.6810  23.8448  23.8667  23.9131  24.3579  24.3949  24.4843  24.4876
    24.5058  24.5303  24.5895  24.6084  24.6119  24.7986  24.8594  24.9769
    24.9777  25.0129  25.0136  25.0143  25.0941  25.0987  25.1045  25.1112
    25.2885  25.2995  25.5189  26.0296  26.0571  26.4562  26.4852  26.5498
    26.5856  27.0164  27.0170

          k = 0.0556 0.1667 0.1658 ( 30351 PWs)   bands (ev):

   -50.0326 -49.9585 -49.9573 -49.9372 -49.9189 -49.9093 -49.9039 -49.9019
   -49.8967 -49.8966 -49.8850 -49.8849 -49.8829 -49.8780 -49.8742 -49.8734
   -49.8732 -49.8731 -49.8672 -49.8670 -49.8604 -49.8603 -49.8526 -49.8290
   -49.8271 -49.8268 -49.8263 -49.8258 -49.8246 -49.8243 -49.8235 -49.8227
   -20.4215 -20.4213 -20.4103 -20.3981 -20.3585 -20.3546 -20.3529 -20.2171
   -20.2119 -20.2115 -20.2054 -20.1793 -20.1791 -20.1760 -20.1749 -20.1731
   -20.1689 -20.1682 -20.1675 -20.1636 -20.1508 -20.1443 -20.1423 -20.1420
   -20.0822 -20.0623 -20.0608 -20.0566 -20.0566 -20.0446 -20.0389 -20.0231
   -20.0151 -20.0027 -19.9859 -19.9304 -19.9081 -19.9079 -19.8712 -19.8708
   -19.8628 -19.8593 -19.8414 -19.8366 -19.8355 -19.8224 -19.8109 -19.8034
   -19.8020 -19.8016 -19.8014 -19.8001 -19.7991 -19.7975 -19.7975 -19.7954
   -19.7905 -19.7893 -19.7618 -19.7609 -19.7476 -19.6902 -19.6820 -19.6699
   -19.6676 -19.6495 -19.6439 -19.6365 -19.6223 -19.6210 -19.6206 -19.6153
   -19.6149 -19.6129 -19.6116 -19.6108 -19.6108 -19.6076 -19.5975 -19.5936
   -19.5929 -19.5911 -19.5910 -19.5889 -19.5859 -19.5829 -19.5782 -19.5774
   -19.5735 -19.5720 -19.5603 -19.5555 -19.5426 -19.4967 -19.4616 -19.4542
    15.4014  16.9157  16.9202  16.9225  17.1358  17.1882  17.2272  17.2399
    17.2400  17.2426  17.3671  17.3718  17.3945  17.5940  17.7375  17.7510
    17.7707  18.1014  18.1212  18.1272  18.1520  18.2992  18.3112  18.3160
    18.3172  18.3502  18.3504  18.4238  18.4915  18.4925  18.6162  18.6539
    18.6564  18.6729  18.6772  18.7031  18.8742  18.9378  18.9412  18.9451
    18.9505  18.9682  18.9744  19.0778  19.1045  19.3091  19.3269  19.4212
    19.4229  19.4474  19.4920  19.4986  19.5256  19.5288  19.5745  19.5854
    19.5945  19.7722  19.7767  19.7988  19.7999  19.8714  19.8926  19.9497
    19.9560  20.0034  20.0645  20.0732  20.1570  20.1744  20.1970  20.1997
    20.2310  20.2391  20.2832  20.3242  20.3395  20.3512  20.3525  20.3766
    20.4166  20.4298  20.4369  20.4716  20.5207  20.5393  20.5473  20.5975
    21.1056  21.2057  21.2125  21.2468  21.4702  21.4982  21.6296  21.6386
    21.6485  21.6711  21.6725  21.7114  21.7444  21.7488  21.7629  21.7704
    21.7896  21.9216  21.9939  22.0985  22.0999  22.1151  22.1190  22.1640
    22.2387  22.5317  22.5334  22.6434  22.6518  22.6656  22.6668  22.6777
    22.7066  22.7137  22.7153  22.7852  22.8087  22.8590  22.8673  22.8718
    22.9280  22.9388  22.9460  22.9855  22.9867  23.0878  23.1766  23.2358
    23.2404  23.2638  23.2763  23.3434  23.3553  23.3684  23.4764  23.5079
    23.6840  23.8802  24.0510  24.0660  24.0685  24.1827  24.1889  24.3663
    24.4754  24.4797  24.5476  24.6107  24.6201  24.6353  24.6508  24.8741
    24.8760  24.9725  24.9817  25.0074  25.0116  25.0158  25.0291  25.0538
    25.2487  25.5338  25.8833  25.8855  25.9721  25.9990  26.4961  26.5302
    26.9669  27.0349  27.1052

          k = 0.0556 0.1667 0.2764 ( 30326 PWs)   bands (ev):

   -50.0264 -49.9757 -49.9532 -49.9338 -49.9204 -49.9160 -49.9061 -49.8995
   -49.8954 -49.8927 -49.8866 -49.8860 -49.8844 -49.8799 -49.8796 -49.8717
   -49.8702 -49.8675 -49.8630 -49.8615 -49.8579 -49.8525 -49.8461 -49.8354
   -49.8305 -49.8303 -49.8296 -49.8269 -49.8257 -49.8246 -49.8232 -49.8227
   -20.4071 -20.4040 -20.3857 -20.3696 -20.3425 -20.3399 -20.3289 -20.2618
   -20.2535 -20.2201 -20.2199 -20.2123 -20.2115 -20.2111 -20.1926 -20.1825
   -20.1823 -20.1667 -20.1653 -20.1583 -20.1554 -20.1522 -20.1483 -20.1299
   -20.1116 -20.0776 -20.0610 -20.0436 -20.0427 -20.0299 -20.0261 -20.0236
   -20.0020 -20.0010 -19.9777 -19.9595 -19.9422 -19.9063 -19.8946 -19.8696
   -19.8643 -19.8564 -19.8404 -19.8255 -19.8232 -19.8018 -19.7999 -19.7999
   -19.7959 -19.7955 -19.7849 -19.7804 -19.7740 -19.7676 -19.7668 -19.7645
   -19.7617 -19.7593 -19.7278 -19.7250 -19.7121 -19.7116 -19.7049 -19.6976
   -19.6618 -19.6589 -19.6565 -19.6548 -19.6468 -19.6453 -19.6435 -19.6413
   -19.6304 -19.6274 -19.6148 -19.6135 -19.6129 -19.6067 -19.6064 -19.5969
   -19.5966 -19.5966 -19.5966 -19.5876 -19.5829 -19.5791 -19.5724 -19.5594
   -19.5587 -19.5573 -19.5560 -19.5420 -19.5329 -19.5304 -19.4723 -19.4598
    15.5667  16.8560  17.0171  17.0341  17.0386  17.2110  17.2798  17.3594
    17.3644  17.3807  17.4449  17.4886  17.5235  17.6485  17.6815  17.8574
    17.8811  17.8854  17.9229  18.0382  18.0721  18.1613  18.1791  18.1954
    18.2247  18.2678  18.3400  18.3683  18.3857  18.3999  18.4038  18.4276
    18.5462  18.5683  18.5771  18.6818  18.7250  18.7891  18.7895  18.9652
    18.9809  18.9899  19.0352  19.1529  19.1721  19.2279  19.2530  19.2761
    19.2848  19.3419  19.3476  19.4173  19.4882  19.4953  19.5208  19.5951
    19.6208  19.6628  19.7832  19.8815  19.9174  19.9654  19.9986  20.0236
    20.0240  20.0617  20.0827  20.1330  20.1797  20.2118  20.2256  20.2316
    20.2553  20.3330  20.3549  20.4105  20.4124  20.4819  20.5021  20.5217
    20.5779  20.6405  20.6463  20.6514  20.6661  20.6826  20.9027  20.9034
    20.9486  20.9899  21.0238  21.2268  21.2466  21.2495  21.4120  21.4514
    21.5267  21.5413  21.5448  21.6756  21.7029  21.7632  21.8310  21.9340
    21.9476  21.9894  22.0394  22.0644  22.1267  22.1472  22.2408  22.3245
    22.3504  22.4387  22.4470  22.4784  22.4936  22.5149  22.5910  22.6248
    22.6421  22.6480  22.7408  22.7594  22.8277  22.9051  22.9288  22.9475
    22.9634  22.9897  23.0046  23.1948  23.2736  23.2792  23.2931  23.3468
    23.3487  23.5081  23.5196  23.5658  23.5664  23.5692  23.5999  23.6150
    23.6313  23.7066  23.8157  23.8989  24.0662  24.1805  24.2811  24.3092
    24.3112  24.3913  24.4126  24.5263  24.5375  24.5459  24.6878  24.6903
    24.7459  24.7537  24.8238  24.8925  25.0108  25.0174  25.0270  25.0295
    25.0584  25.4514  25.4704  25.8823  25.9744  26.3139  26.4180  26.4598
    26.4952  26.5701  27.5215

          k = 0.0556 0.1667 0.3870 ( 30295 PWs)   bands (ev):

   -50.0173 -49.9915 -49.9473 -49.9306 -49.9288 -49.9147 -49.9118 -49.9000
   -49.8959 -49.8937 -49.8889 -49.8860 -49.8835 -49.8810 -49.8706 -49.8704
   -49.8682 -49.8674 -49.8630 -49.8528 -49.8493 -49.8453 -49.8446 -49.8401
   -49.8362 -49.8354 -49.8338 -49.8304 -49.8255 -49.8249 -49.8230 -49.8228
   -20.3826 -20.3766 -20.3522 -20.3325 -20.3192 -20.3185 -20.3075 -20.2986
   -20.2936 -20.2661 -20.2576 -20.2532 -20.2407 -20.2093 -20.2046 -20.1928
   -20.1907 -20.1890 -20.1854 -20.1761 -20.1530 -20.1397 -20.1379 -20.1192
   -20.0969 -20.0803 -20.0747 -20.0566 -20.0556 -20.0251 -20.0019 -19.9996
   -19.9959 -19.9812 -19.9737 -19.9618 -19.9402 -19.9354 -19.9272 -19.9105
   -19.8922 -19.8657 -19.8016 -19.8004 -19.8002 -19.7938 -19.7933 -19.7864
   -19.7839 -19.7750 -19.7693 -19.7499 -19.7422 -19.7390 -19.7389 -19.7371
   -19.7325 -19.7264 -19.7250 -19.7167 -19.6965 -19.6964 -19.6922 -19.6856
   -19.6825 -19.6815 -19.6803 -19.6793 -19.6789 -19.6738 -19.6731 -19.6455
   -19.6455 -19.6414 -19.6257 -19.6210 -19.6185 -19.6145 -19.6099 -19.6047
   -19.6017 -19.5997 -19.5889 -19.5847 -19.5805 -19.5805 -19.5749 -19.5676
   -19.5600 -19.5585 -19.5446 -19.5322 -19.5303 -19.5146 -19.4881 -19.4724
    15.8076  16.4722  17.1541  17.1964  17.2150  17.3410  17.4249  17.4944
    17.5257  17.5400  17.5534  17.5701  17.6395  17.6694  17.6788  17.7125
    17.7585  17.8013  17.8688  17.8696  17.9593  17.9757  18.0327  18.0672
    18.0743  18.0860  18.2008  18.2465  18.2549  18.2567  18.4368  18.4510
    18.5187  18.5319  18.5475  18.5881  18.6835  18.8876  18.8913  18.9060
    18.9222  19.0235  19.0340  19.0762  19.0995  19.1333  19.1513  19.1569
    19.1999  19.2184  19.3470  19.3522  19.3624  19.4691  19.6084  19.6122
    19.6212  19.6930  19.8798  19.9031  19.9371  19.9772  19.9953  19.9980
    20.0403  20.0612  20.0828  20.1551  20.1662  20.1734  20.1926  20.2411
    20.3169  20.3558  20.3763  20.5761  20.6393  20.6661  20.6906  20.7161
    20.7793  20.7948  20.8071  20.8083  20.8296  20.8331  20.8333  20.8531
    20.9376  21.0509  21.0815  21.1245  21.1891  21.2014  21.2899  21.3183
    21.5100  21.5974  21.6310  21.7015  21.7162  21.7658  21.8748  21.9524
    21.9724  22.0032  22.0152  22.0457  22.0516  22.0555  22.1283  22.1942
    22.2549  22.3189  22.4116  22.4172  22.4621  22.5207  22.5466  22.5651
    22.5750  22.6829  22.7235  22.7380  22.8291  22.8577  22.8760  22.9813
    22.9936  23.0344  23.2059  23.2107  23.2578  23.2599  23.3327  23.3562
    23.5206  23.5763  23.6324  23.7221  23.8417  23.8446  23.8690  23.8723
    23.8945  23.9104  23.9194  24.0126  24.0225  24.1093  24.1095  24.2116
    24.2792  24.3821  24.3850  24.4466  24.4467  24.4487  24.4553  24.4574
    24.6060  24.6072  24.6712  24.9131  24.9818  25.0110  25.0181  25.0190
    25.0236  25.1982  25.4521  25.7073  25.7421  25.8430  26.0187  26.2469
    26.7303  27.0517  27.3438

          k = 0.0556 0.1667-0.4975 ( 30306 PWs)   bands (ev):

   -50.0055 -50.0055 -49.9397 -49.9397 -49.9224 -49.9223 -49.9064 -49.9064
   -49.8915 -49.8915 -49.8914 -49.8914 -49.8824 -49.8823 -49.8692 -49.8692
   -49.8650 -49.8650 -49.8565 -49.8565 -49.8438 -49.8438 -49.8418 -49.8418
   -49.8391 -49.8390 -49.8348 -49.8348 -49.8252 -49.8252 -49.8229 -49.8229
   -20.3488 -20.3488 -20.3408 -20.3408 -20.3115 -20.3115 -20.2907 -20.2907
   -20.2892 -20.2891 -20.2886 -20.2886 -20.2479 -20.2479 -20.2005 -20.2005
   -20.1925 -20.1924 -20.1923 -20.1923 -20.1396 -20.1396 -20.1178 -20.1178
   -20.0876 -20.0876 -20.0797 -20.0797 -20.0353 -20.0353 -20.0017 -20.0016
   -19.9722 -19.9721 -19.9563 -19.9563 -19.9548 -19.9548 -19.9249 -19.9249
   -19.8976 -19.8976 -19.8010 -19.8010 -19.7930 -19.7929 -19.7634 -19.7634
   -19.7538 -19.7538 -19.7492 -19.7492 -19.7458 -19.7457 -19.7261 -19.7261
   -19.7152 -19.7152 -19.7106 -19.7106 -19.7064 -19.7064 -19.7051 -19.7051
   -19.7042 -19.7041 -19.6762 -19.6762 -19.6687 -19.6687 -19.6502 -19.6502
   -19.6488 -19.6488 -19.6322 -19.6322 -19.6294 -19.6294 -19.6062 -19.6061
   -19.6024 -19.6024 -19.5999 -19.5999 -19.5824 -19.5823 -19.5671 -19.5671
   -19.5635 -19.5634 -19.5345 -19.5345 -19.5083 -19.5082 -19.4910 -19.4910
    16.1145  16.1146  17.3195  17.3195  17.4024  17.4024  17.4340  17.4341
    17.5244  17.5244  17.6220  17.6220  17.6957  17.6958  17.7305  17.7305
    17.7641  17.7641  17.8037  17.8037  17.9076  17.9076  17.9409  17.9409
    17.9560  17.9560  18.1131  18.1132  18.2964  18.2964  18.3479  18.3479
    18.6280  18.6281  18.6515  18.6515  18.7064  18.7064  18.7911  18.7912
    19.0344  19.0344  19.0744  19.0744  19.1001  19.1001  19.1335  19.1335
    19.1984  19.1984  19.2718  19.2718  19.2921  19.2921  19.7376  19.7376
    19.8037  19.8037  19.8105  19.8105  19.8498  19.8499  19.9359  19.9360
    20.0760  20.0760  20.1084  20.1084  20.2619  20.2619  20.3216  20.3216
    20.4005  20.4005  20.4364  20.4365  20.5028  20.5028  20.6853  20.6853
    20.7935  20.7935  20.8753  20.8753  20.9565  20.9565  20.9688  20.9689
    20.9926  20.9926  21.0341  21.0341  21.4325  21.4325  21.4702  21.4703
    21.5089  21.5089  21.5549  21.5549  21.7035  21.7035  21.7098  21.7098
    21.9671  21.9671  22.1548  22.1548  22.1649  22.1650  22.2039  22.2040
    22.2305  22.2306  22.2949  22.2949  22.3564  22.3564  22.4673  22.4673
    22.6549  22.6549  22.6778  22.6778  22.7821  22.7821  23.0661  23.0661
    23.0825  23.0825  23.0864  23.0864  23.1545  23.1546  23.6017  23.6017
    23.6867  23.6868  23.7005  23.7005  23.9284  23.9284  23.9725  23.9725
    24.0962  24.0962  24.1455  24.1456  24.1491  24.1491  24.1691  24.1691
    24.1697  24.1697  24.1762  24.1762  24.1936  24.1936  24.3835  24.3835
    24.5183  24.5183  24.9381  24.9381  25.0129  25.0129  25.0210  25.0210
    25.2135  25.2136  25.4608  25.4608  25.4766  25.4766  26.0183  26.0183
    27.0807  27.0807  27.5045

          k = 0.0556 0.2778 0.0553 ( 30341 PWs)   bands (ev):

   -50.0293 -49.9771 -49.9368 -49.9354 -49.9190 -49.9173 -49.9075 -49.9068
   -49.8942 -49.8934 -49.8863 -49.8853 -49.8813 -49.8770 -49.8767 -49.8765
   -49.8763 -49.8732 -49.8689 -49.8572 -49.8566 -49.8519 -49.8511 -49.8324
   -49.8289 -49.8283 -49.8276 -49.8267 -49.8257 -49.8246 -49.8232 -49.8227
   -20.4102 -20.4029 -20.4025 -20.3910 -20.3502 -20.3488 -20.3367 -20.2512
   -20.2368 -20.2362 -20.2158 -20.2156 -20.2155 -20.1888 -20.1836 -20.1827
   -20.1778 -20.1512 -20.1487 -20.1305 -20.1267 -20.1264 -20.1226 -20.1225
   -20.0932 -20.0879 -20.0852 -20.0836 -20.0539 -20.0482 -20.0126 -20.0089
   -19.9840 -19.9810 -19.9774 -19.9756 -19.9430 -19.9415 -19.9391 -19.9379
   -19.8391 -19.8346 -19.8223 -19.8191 -19.8133 -19.8131 -19.8021 -19.8014
   -19.7908 -19.7902 -19.7896 -19.7830 -19.7829 -19.7774 -19.7760 -19.7731
   -19.7729 -19.7562 -19.7468 -19.7464 -19.7401 -19.7128 -19.7054 -19.6674
   -19.6656 -19.6467 -19.6425 -19.6409 -19.6378 -19.6353 -19.6337 -19.6324
   -19.6278 -19.6235 -19.6211 -19.6192 -19.6043 -19.6011 -19.5929 -19.5926
   -19.5899 -19.5893 -19.5892 -19.5891 -19.5870 -19.5815 -19.5791 -19.5781
   -19.5724 -19.5567 -19.5542 -19.5538 -19.5505 -19.5054 -19.4679 -19.4650
    15.4871  16.8064  16.9510  16.9900  16.9945  17.2123  17.2640  17.2641
    17.2978  17.3817  17.4510  17.4580  17.5919  17.6517  17.6676  17.8361
    17.8516  17.8829  17.8872  18.0307  18.1299  18.2298  18.2305  18.2974
    18.3292  18.3520  18.3583  18.3824  18.4583  18.4633  18.5146  18.5319
    18.6246  18.6368  18.6776  18.6814  18.7993  18.8022  18.8734  18.8897
    19.0532  19.0574  19.2474  19.2591  19.3126  19.3172  19.3226  19.3270
    19.3313  19.3401  19.3614  19.3698  19.3837  19.4645  19.4836  19.6253
    19.6347  19.6940  19.7487  19.7597  19.8180  19.8268  19.8627  19.8786
    19.8837  19.8971  19.9499  19.9578  19.9937  20.1659  20.2078  20.2171
    20.2213  20.2418  20.2902  20.3334  20.4712  20.5040  20.5397  20.5409
    20.5451  20.5590  20.5666  20.5914  20.6461  20.6685  20.9339  20.9543
    20.9927  20.9945  21.0192  21.0294  21.2170  21.3285  21.3309  21.3649
    21.3755  21.4376  21.8113  21.8403  21.8511  22.0488  22.0622  22.0651
    22.0741  22.1043  22.1099  22.1810  22.1871  22.2961  22.3113  22.3954
    22.4119  22.5176  22.5265  22.5299  22.5346  22.5388  22.5555  22.5654
    22.6116  22.6226  22.6387  22.6794  22.7070  22.7140  22.8261  22.8895
    22.8972  22.9024  22.9668  22.9712  23.1000  23.2286  23.2927  23.3006
    23.3046  23.3857  23.3943  23.4286  23.4577  23.4691  23.4793  23.6735
    23.7202  23.8321  23.8508  24.0752  24.1023  24.1115  24.2810  24.2815
    24.3163  24.4410  24.4413  24.4565  24.4805  24.5402  24.7487  24.7497
    24.7770  24.7787  24.8150  25.0908  25.0964  25.1059  25.1097  25.2530
    25.5264  25.5462  25.7219  25.7262  25.9266  26.0263  26.0551  26.0727
    26.3671  26.9018  26.9024

          k = 0.0556 0.2778 0.1658 ( 30318 PWs)   bands (ev):

   -50.0263 -49.9748 -49.9543 -49.9338 -49.9206 -49.9160 -49.9060 -49.9014
   -49.8955 -49.8928 -49.8861 -49.8843 -49.8843 -49.8810 -49.8795 -49.8718
   -49.8701 -49.8677 -49.8619 -49.8613 -49.8577 -49.8527 -49.8458 -49.8323
   -49.8302 -49.8299 -49.8288 -49.8284 -49.8269 -49.8259 -49.8241 -49.8228
   -20.4070 -20.4033 -20.3854 -20.3691 -20.3422 -20.3380 -20.3306 -20.2581
   -20.2489 -20.2165 -20.2162 -20.2159 -20.2156 -20.2089 -20.1877 -20.1862
   -20.1844 -20.1673 -20.1666 -20.1584 -20.1563 -20.1539 -20.1538 -20.1316
   -20.1177 -20.0759 -20.0654 -20.0444 -20.0424 -20.0302 -20.0274 -20.0247
   -20.0086 -19.9964 -19.9687 -19.9610 -19.9429 -19.9070 -19.8991 -19.8685
   -19.8619 -19.8547 -19.8288 -19.8239 -19.8186 -19.8113 -19.8025 -19.8004
   -19.7983 -19.7962 -19.7893 -19.7789 -19.7708 -19.7675 -19.7643 -19.7625
   -19.7623 -19.7591 -19.7264 -19.7243 -19.7208 -19.7110 -19.7003 -19.6971
   -19.6579 -19.6570 -19.6562 -19.6514 -19.6457 -19.6433 -19.6392 -19.6365
   -19.6329 -19.6245 -19.6189 -19.6133 -19.6115 -19.6096 -19.6023 -19.6006
   -19.5981 -19.5977 -19.5932 -19.5922 -19.5839 -19.5792 -19.5775 -19.5631
   -19.5622 -19.5576 -19.5520 -19.5431 -19.5328 -19.5304 -19.4728 -19.4600
    15.5683  16.8690  17.0145  17.0359  17.0451  17.2114  17.2802  17.3465
    17.3650  17.3810  17.4415  17.4937  17.5227  17.6589  17.6828  17.8589
    17.8703  17.9002  17.9443  18.0397  18.0799  18.1632  18.1650  18.1953
    18.2266  18.2454  18.3440  18.3710  18.3869  18.3888  18.4065  18.4279
    18.5545  18.5699  18.5722  18.6816  18.7232  18.7853  18.7949  18.9631
    18.9728  18.9910  19.0262  19.1288  19.1726  19.2391  19.2409  19.2759
    19.2879  19.3405  19.3793  19.4130  19.4884  19.4929  19.5298  19.5976
    19.6143  19.6484  19.7632  19.8918  19.9396  19.9465  19.9812  20.0099
    20.0448  20.0575  20.1165  20.1313  20.1903  20.1965  20.2382  20.2501
    20.2627  20.3328  20.3942  20.3991  20.4059  20.4681  20.4802  20.5140
    20.5507  20.6078  20.6413  20.6497  20.6588  20.6813  20.8855  20.8922
    20.9404  20.9893  21.0049  21.2118  21.2148  21.2431  21.3806  21.4101
    21.5024  21.5183  21.5764  21.6862  21.7384  21.7889  21.8425  21.9520
    21.9670  22.0078  22.0452  22.1023  22.1344  22.1516  22.2504  22.3266
    22.3595  22.4407  22.4431  22.4752  22.4960  22.5207  22.6261  22.6347
    22.6390  22.6460  22.7401  22.7814  22.8349  22.8713  22.9425  22.9563
    22.9668  22.9967  22.9978  23.1774  23.2770  23.2775  23.3003  23.3130
    23.3492  23.5040  23.5231  23.5585  23.5724  23.5761  23.6208  23.6250
    23.6266  23.7097  23.8139  23.9070  24.0685  24.1835  24.2821  24.2977
    24.3316  24.3972  24.4200  24.5433  24.5445  24.5490  24.6896  24.6908
    24.7777  24.7818  24.8388  24.8699  24.9707  24.9850  25.0015  25.0044
    25.0588  25.4339  25.4902  25.8565  26.0021  26.3044  26.3860  26.4860
    26.5168  26.5682  27.4784

          k = 0.0556 0.2778 0.2764 ( 30314 PWs)   bands (ev):

   -50.0202 -49.9710 -49.9702 -49.9332 -49.9305 -49.9133 -49.9044 -49.9043
   -49.8916 -49.8916 -49.8906 -49.8846 -49.8826 -49.8824 -49.8685 -49.8673
   -49.8672 -49.8670 -49.8589 -49.8587 -49.8543 -49.8541 -49.8408 -49.8349
   -49.8331 -49.8328 -49.8319 -49.8315 -49.8293 -49.8259 -49.8251 -49.8230
   -20.3936 -20.3932 -20.3585 -20.3379 -20.3265 -20.3186 -20.3167 -20.2605
   -20.2575 -20.2572 -20.2531 -20.2200 -20.2165 -20.1985 -20.1954 -20.1924
   -20.1910 -20.1903 -20.1883 -20.1805 -20.1785 -20.1581 -20.1537 -20.1537
   -20.1402 -20.1384 -20.0608 -20.0535 -20.0285 -20.0244 -20.0054 -20.0050
   -19.9954 -19.9924 -19.9640 -19.9553 -19.8896 -19.8887 -19.8867 -19.8604
   -19.8588 -19.8583 -19.8527 -19.8289 -19.8175 -19.7998 -19.7990 -19.7880
   -19.7862 -19.7846 -19.7821 -19.7816 -19.7727 -19.7695 -19.7490 -19.7477
   -19.7361 -19.7297 -19.7293 -19.7272 -19.6948 -19.6945 -19.6914 -19.6893
   -19.6800 -19.6789 -19.6769 -19.6710 -19.6484 -19.6483 -19.6466 -19.6417
   -19.6385 -19.6382 -19.6360 -19.6338 -19.6102 -19.6096 -19.6082 -19.6078
   -19.6058 -19.5999 -19.5882 -19.5852 -19.5814 -19.5791 -19.5756 -19.5723
   -19.5681 -19.5591 -19.5550 -19.5288 -19.5279 -19.5180 -19.4837 -19.4598
    15.7282  16.9804  16.9912  17.1288  17.1384  17.1431  17.2618  17.3465
    17.5123  17.5125  17.5606  17.5644  17.6614  17.7132  17.7821  17.7900
    17.8783  17.9175  17.9282  17.9379  17.9574  17.9575  18.0368  18.0562
    18.0946  18.0952  18.1708  18.1780  18.3741  18.4532  18.4542  18.4677
    18.4719  18.5114  18.5131  18.5920  18.5992  18.6821  18.6822  18.7582
    18.7648  18.8866  19.0283  19.0307  19.0937  19.0993  19.1056  19.3362
    19.3404  19.3528  19.3555  19.3831  19.3864  19.4108  19.4638  19.7844
    19.7984  19.8911  19.9010  19.9815  19.9833  20.0428  20.0514  20.0773
    20.0909  20.0948  20.1170  20.1813  20.2182  20.2760  20.2904  20.3686
    20.3794  20.4193  20.4339  20.5725  20.5778  20.5847  20.6509  20.6544
    20.6705  20.6975  20.7102  20.7498  20.7777  20.7873  20.7920  20.7994
    20.9402  20.9528  21.0597  21.0835  21.2736  21.3108  21.4071  21.4449
    21.4684  21.4997  21.5673  21.5975  21.5999  21.6683  21.6948  21.7162
    21.7341  21.7539  21.9073  21.9252  22.0687  22.0890  22.0925  22.1008
    22.1024  22.2206  22.2926  22.4275  22.4291  22.5545  22.5845  22.5889
    22.8715  22.8811  22.8871  23.0029  23.0095  23.0267  23.0272  23.1363
    23.1425  23.1452  23.1603  23.2162  23.2300  23.3392  23.3402  23.3435
    23.3443  23.3906  23.4156  23.6587  23.6856  23.6863  23.7358  23.8252
    23.8313  23.8325  23.8523  23.8586  24.0096  24.0603  24.2349  24.2381
    24.4428  24.5542  24.5596  24.5828  24.5842  24.5854  24.6034  24.6201
    24.7505  24.7598  24.7821  24.7862  24.8054  24.8082  24.8094  24.8246
    24.9128  25.2728  25.3601  25.3793  25.8707  25.8969  26.9382  26.9399
    27.1645  27.1697  27.1971

          k = 0.0556 0.2778 0.3870 ( 30330 PWs)   bands (ev):

   -50.0114 -49.9864 -49.9635 -49.9447 -49.9258 -49.9125 -49.9094 -49.9018
   -49.8984 -49.8949 -49.8900 -49.8854 -49.8796 -49.8718 -49.8691 -49.8645
   -49.8632 -49.8602 -49.8569 -49.8566 -49.8509 -49.8474 -49.8439 -49.8381
   -49.8377 -49.8367 -49.8361 -49.8315 -49.8301 -49.8286 -49.8245 -49.8234
   -20.3727 -20.3703 -20.3234 -20.3043 -20.3034 -20.3010 -20.2997 -20.2988
   -20.2853 -20.2511 -20.2496 -20.2490 -20.2384 -20.2371 -20.2168 -20.2148
   -20.2144 -20.2056 -20.1965 -20.1951 -20.1765 -20.1729 -20.1564 -20.1512
   -20.1446 -20.1149 -20.0863 -20.0840 -20.0540 -20.0313 -19.9910 -19.9773
   -19.9674 -19.9456 -19.9363 -19.9223 -19.9208 -19.9181 -19.8943 -19.8842
   -19.8537 -19.8454 -19.8308 -19.8204 -19.8093 -19.8010 -19.7869 -19.7838
   -19.7776 -19.7698 -19.7675 -19.7583 -19.7551 -19.7540 -19.7433 -19.7324
   -19.7247 -19.7244 -19.7236 -19.7191 -19.7154 -19.7029 -19.6925 -19.6909
   -19.6848 -19.6802 -19.6682 -19.6675 -19.6674 -19.6603 -19.6597 -19.6571
   -19.6454 -19.6312 -19.6298 -19.6285 -19.6241 -19.6225 -19.6178 -19.6173
   -19.6153 -19.6036 -19.5943 -19.5939 -19.5928 -19.5889 -19.5847 -19.5721
   -19.5631 -19.5594 -19.5447 -19.5168 -19.5104 -19.5021 -19.4997 -19.4670
    15.9613  16.6059  17.1674  17.2694  17.2818  17.3166  17.3636  17.4626
    17.6263  17.6434  17.6694  17.6804  17.6898  17.7031  17.7154  17.7377
    17.7579  17.7874  17.8390  17.8589  17.8823  17.9139  17.9755  17.9785
    18.0003  18.0275  18.1721  18.1875  18.2153  18.2169  18.2567  18.3243
    18.3835  18.4797  18.5451  18.6039  18.6129  18.6183  18.6645  18.6653
    18.7563  18.8358  18.8710  18.9449  18.9844  19.1075  19.1137  19.1491
    19.2138  19.3088  19.4234  19.4472  19.4637  19.4846  19.6270  19.6964
    19.7202  19.7482  19.8374  19.9682  20.0394  20.0583  20.1450  20.1712
    20.1917  20.2078  20.2311  20.2865  20.3429  20.3569  20.3730  20.4624
    20.4789  20.5331  20.5766  20.5850  20.6019  20.6357  20.6984  20.7627
    20.7902  20.7914  20.8303  20.8466  20.8679  20.9507  20.9573  20.9685
    20.9861  21.0474  21.0904  21.0994  21.1861  21.2503  21.2842  21.3549
    21.4183  21.4634  21.4957  21.5056  21.5214  21.5412  21.5638  21.5921
    21.6976  21.7158  21.7367  21.7763  21.9055  21.9317  21.9520  21.9911
    22.0997  22.1143  22.2902  22.3128  22.4109  22.4713  22.5540  22.6396
    22.7818  22.8010  22.8159  22.8494  22.9627  23.0208  23.0862  23.0933
    23.1724  23.2353  23.2577  23.3615  23.3745  23.3909  23.4616  23.5303
    23.5708  23.5719  23.7275  23.7276  23.7301  23.7732  23.9486  23.9994
    24.0193  24.0319  24.0671  24.0742  24.0921  24.1000  24.1010  24.1383
    24.2145  24.3595  24.4285  24.4414  24.4430  24.4569  24.4712  24.4793
    24.4807  24.5589  24.7737  24.7919  24.7927  24.8100  24.8503  24.8771
    25.2168  25.3095  25.3541  25.3561  25.3990  25.7430  26.5633  26.5968
    27.3792  27.5526  27.8251

          k = 0.0556 0.2778-0.4975 ( 30322 PWs)   bands (ev):

   -50.0000 -50.0000 -49.9550 -49.9549 -49.9198 -49.9197 -49.9044 -49.9043
   -49.8986 -49.8986 -49.8879 -49.8878 -49.8761 -49.8760 -49.8622 -49.8622
   -49.8596 -49.8596 -49.8554 -49.8554 -49.8467 -49.8467 -49.8437 -49.8437
   -49.8416 -49.8416 -49.8320 -49.8320 -49.8308 -49.8308 -49.8239 -49.8239
   -20.3426 -20.3426 -20.3384 -20.3384 -20.2821 -20.2820 -20.2783 -20.2783
   -20.2738 -20.2738 -20.2538 -20.2538 -20.2445 -20.2444 -20.2367 -20.2367
   -20.2350 -20.2350 -20.2082 -20.2082 -20.1627 -20.1627 -20.1555 -20.1554
   -20.1217 -20.1216 -20.0783 -20.0783 -20.0733 -20.0733 -19.9549 -19.9549
   -19.9482 -19.9482 -19.9304 -19.9304 -19.9124 -19.9123 -19.8949 -19.8949
   -19.8852 -19.8852 -19.7867 -19.7866 -19.7855 -19.7854 -19.7800 -19.7800
   -19.7747 -19.7747 -19.7723 -19.7723 -19.7597 -19.7597 -19.7455 -19.7454
   -19.7208 -19.7208 -19.7154 -19.7154 -19.6971 -19.6971 -19.6966 -19.6966
   -19.6793 -19.6792 -19.6706 -19.6706 -19.6682 -19.6682 -19.6577 -19.6576
   -19.6438 -19.6438 -19.6287 -19.6287 -19.6249 -19.6249 -19.6245 -19.6245
   -19.6174 -19.6174 -19.6058 -19.6058 -19.5890 -19.5890 -19.5735 -19.5735
   -19.5651 -19.5651 -19.5202 -19.5202 -19.5102 -19.5102 -19.4814 -19.4814
    16.2587  16.2587  17.3887  17.3887  17.4493  17.4493  17.4555  17.4555
    17.5156  17.5156  17.5385  17.5385  17.6273  17.6273  17.8072  17.8072
    17.8151  17.8151  17.9110  17.9110  17.9312  17.9312  17.9650  17.9650
    17.9707  17.9708  18.0916  18.0916  18.1041  18.1041  18.2137  18.2137
    18.4143  18.4143  18.5179  18.5179  18.6199  18.6199  18.7523  18.7523
    18.7534  18.7534  18.8935  18.8936  19.0005  19.0005  19.0196  19.0196
    19.3899  19.3899  19.4761  19.4761  19.5589  19.5589  19.5597  19.5597
    19.5984  19.5984  19.8498  19.8499  20.1163  20.1163  20.2098  20.2098
    20.2459  20.2459  20.3267  20.3267  20.3518  20.3518  20.4059  20.4059
    20.4946  20.4946  20.6279  20.6279  20.7438  20.7438  20.8290  20.8290
    20.8490  20.8490  20.8903  20.8903  20.9523  20.9523  20.9707  20.9707
    21.1199  21.1199  21.1686  21.1686  21.1776  21.1776  21.1935  21.1935
    21.3693  21.3693  21.3750  21.3750  21.4422  21.4422  21.4545  21.4545
    21.6630  21.6630  21.9018  21.9018  22.0380  22.0380  22.0801  22.0801
    22.1107  22.1107  22.1509  22.1509  22.2377  22.2378  22.4314  22.4314
    22.6425  22.6425  22.9493  22.9493  22.9914  22.9914  23.0825  23.0825
    23.1963  23.1963  23.4520  23.4520  23.4860  23.4860  23.6066  23.6066
    23.6980  23.6980  23.7707  23.7707  23.8558  23.8558  23.8590  23.8590
    24.1043  24.1043  24.1046  24.1046  24.2031  24.2032  24.2718  24.2719
    24.2720  24.2721  24.2992  24.2992  24.3128  24.3128  24.3166  24.3166
    24.4195  24.4195  24.7994  24.7994  24.8132  24.8133  24.8423  24.8423
    25.0096  25.0097  25.5513  25.5514  25.9106  25.9106  26.0025  26.0025
    27.7455  27.7455  28.0705

          k = 0.0556 0.3889 0.0553 ( 30313 PWs)   bands (ev):

   -50.0199 -49.9934 -49.9315 -49.9303 -49.9166 -49.9158 -49.9145 -49.9130
   -49.9019 -49.9008 -49.8854 -49.8828 -49.8769 -49.8767 -49.8765 -49.8764
   -49.8718 -49.8697 -49.8688 -49.8483 -49.8475 -49.8445 -49.8435 -49.8420
   -49.8340 -49.8328 -49.8325 -49.8311 -49.8255 -49.8249 -49.8230 -49.8227
   -20.3815 -20.3712 -20.3707 -20.3558 -20.3261 -20.3249 -20.2995 -20.2993
   -20.2851 -20.2845 -20.2649 -20.2580 -20.2573 -20.1931 -20.1869 -20.1833
   -20.1731 -20.1698 -20.1654 -20.1651 -20.1403 -20.1391 -20.1029 -20.0956
   -20.0737 -20.0696 -20.0571 -20.0495 -20.0414 -20.0363 -20.0329 -20.0276
   -20.0191 -20.0156 -19.9793 -19.9761 -19.9739 -19.9718 -19.9342 -19.9319
   -19.8637 -19.8603 -19.8181 -19.8151 -19.8104 -19.8044 -19.7854 -19.7755
   -19.7684 -19.7470 -19.7465 -19.7445 -19.7440 -19.7413 -19.7408 -19.7405
   -19.7405 -19.7392 -19.7322 -19.7118 -19.7116 -19.7108 -19.6883 -19.6869
   -19.6758 -19.6752 -19.6716 -19.6708 -19.6704 -19.6681 -19.6554 -19.6542
   -19.6530 -19.6522 -19.6316 -19.6114 -19.6092 -19.5995 -19.5952 -19.5892
   -19.5891 -19.5888 -19.5878 -19.5863 -19.5846 -19.5770 -19.5762 -19.5752
   -19.5736 -19.5557 -19.5532 -19.5487 -19.5288 -19.5262 -19.4838 -19.4810
    15.7342  16.4150  17.0898  17.1682  17.1729  17.3647  17.4315  17.4317
    17.4348  17.4801  17.4939  17.6324  17.6366  17.6413  17.6413  17.8209
    17.8226  17.8279  17.8363  17.9193  17.9198  17.9873  18.0173  18.0310
    18.1666  18.1807  18.2492  18.2572  18.4577  18.4688  18.4749  18.4766
    18.5246  18.5459  18.7215  18.7226  18.7396  18.7470  18.9630  18.9668
    18.9700  18.9772  19.0606  19.0656  19.2063  19.2113  19.2454  19.2515
    19.2868  19.3043  19.3444  19.3589  19.3692  19.3703  19.6080  19.6171
    19.6349  19.6666  19.6734  19.7935  19.8794  19.8865  19.9033  19.9071
    19.9134  19.9252  20.0431  20.0936  20.1111  20.1195  20.1223  20.1323
    20.1427  20.2691  20.3178  20.3249  20.5960  20.6491  20.6634  20.6747
    20.6815  20.6819  20.6944  20.6965  20.7313  20.7831  20.9758  20.9817
    21.0096  21.0600  21.1122  21.1407  21.1469  21.1556  21.1595  21.1831
    21.6191  21.6595  21.9683  21.9739  21.9881  22.0389  22.0462  22.1589
    22.1637  22.1656  22.2167  22.2375  22.2400  22.2794  22.2841  22.3145
    22.3220  22.3650  22.3700  22.3744  22.3854  22.4496  22.4860  22.4929
    22.5295  22.5324  22.5478  22.5554  22.6376  22.6426  22.8561  22.8603
    22.9590  22.9689  23.0151  23.1216  23.1634  23.3109  23.3151  23.4389
    23.6239  23.6279  23.6340  23.7363  23.7446  23.7451  23.7831  23.7860
    24.0045  24.0058  24.0083  24.0651  24.1543  24.1613  24.1655  24.2184
    24.2295  24.2346  24.2763  24.2825  24.4466  24.4527  24.4672  24.4702
    24.5097  24.5131  24.5859  25.0364  25.0482  25.0910  25.0942  25.1070
    25.1088  25.2778  25.5027  25.5241  25.6223  26.1249  26.1262  26.1850
    26.5591  26.7193  26.7198

          k = 0.0556 0.3889 0.1658 ( 30327 PWs)   bands (ev):

   -50.0170 -49.9909 -49.9483 -49.9311 -49.9288 -49.9146 -49.9118 -49.9000
   -49.8977 -49.8938 -49.8890 -49.8874 -49.8834 -49.8810 -49.8705 -49.8684
   -49.8681 -49.8673 -49.8629 -49.8515 -49.8491 -49.8456 -49.8417 -49.8396
   -49.8352 -49.8345 -49.8340 -49.8295 -49.8284 -49.8275 -49.8237 -49.8230
   -20.3820 -20.3753 -20.3513 -20.3313 -20.3183 -20.3161 -20.3052 -20.2953
   -20.2953 -20.2632 -20.2543 -20.2506 -20.2372 -20.2139 -20.2081 -20.1945
   -20.1930 -20.1924 -20.1879 -20.1772 -20.1543 -20.1431 -20.1362 -20.1242
   -20.0951 -20.0836 -20.0800 -20.0586 -20.0583 -20.0264 -20.0026 -19.9990
   -19.9989 -19.9882 -19.9749 -19.9563 -19.9411 -19.9327 -19.9254 -19.9094
   -19.8882 -19.8543 -19.8011 -19.7988 -19.7977 -19.7976 -19.7972 -19.7950
   -19.7809 -19.7733 -19.7726 -19.7490 -19.7488 -19.7401 -19.7373 -19.7334
   -19.7298 -19.7282 -19.7191 -19.7150 -19.6946 -19.6928 -19.6928 -19.6834
   -19.6808 -19.6802 -19.6785 -19.6772 -19.6767 -19.6691 -19.6683 -19.6441
   -19.6429 -19.6371 -19.6219 -19.6205 -19.6157 -19.6154 -19.6141 -19.6093
   -19.6066 -19.6028 -19.5901 -19.5865 -19.5855 -19.5804 -19.5751 -19.5729
   -19.5650 -19.5555 -19.5437 -19.5349 -19.5300 -19.5155 -19.4891 -19.4728
    15.8115  16.4821  17.1541  17.2006  17.2244  17.3418  17.4258  17.5011
    17.5163  17.5413  17.5519  17.5710  17.6501  17.6751  17.6961  17.7109
    17.7602  17.8041  17.8706  17.8738  17.9571  17.9787  18.0359  18.0604
    18.0764  18.0894  18.2082  18.2431  18.2493  18.2579  18.4177  18.4523
    18.5222  18.5232  18.5500  18.5903  18.6869  18.8792  18.8839  18.9032
    18.9180  19.0171  19.0370  19.0703  19.0947  19.1324  19.1436  19.1625
    19.1981  19.2000  19.3359  19.3472  19.3527  19.4590  19.6227  19.6247
    19.6445  19.6965  19.8994  19.9029  19.9391  19.9643  20.0040  20.0196
    20.0216  20.0590  20.1005  20.1476  20.1534  20.1854  20.2266  20.2375
    20.3329  20.3592  20.3673  20.5511  20.5923  20.6518  20.6720  20.6806
    20.7365  20.7934  20.7991  20.7993  20.8040  20.8044  20.8066  20.8409
    20.9579  21.0199  21.0933  21.1230  21.1473  21.1669  21.2559  21.2868
    21.4915  21.6140  21.6618  21.7323  21.7348  21.7856  21.8988  21.9482
    21.9722  22.0006  22.0531  22.0536  22.0600  22.0660  22.1440  22.2110
    22.2730  22.3241  22.4244  22.4556  22.4724  22.5300  22.5581  22.5730
    22.5962  22.6967  22.7430  22.7437  22.8105  22.8697  22.8943  22.9401
    22.9985  23.0418  23.1668  23.2185  23.2655  23.2713  23.3394  23.3571
    23.5345  23.5662  23.6378  23.7297  23.8502  23.8549  23.8653  23.8797
    23.9039  23.9105  23.9268  24.0163  24.0373  24.1097  24.1159  24.2156
    24.2964  24.3830  24.3947  24.4483  24.4513  24.4632  24.4696  24.4808
    24.6087  24.6144  24.6738  24.9150  24.9706  24.9828  24.9884  24.9946
    24.9963  25.1757  25.4732  25.6829  25.7193  25.8849  26.0173  26.2178
    26.7108  27.0345  27.3072

          k = 0.0556 0.3889 0.2764 ( 30325 PWs)   bands (ev):

   -50.0112 -49.9858 -49.9642 -49.9450 -49.9258 -49.9125 -49.9094 -49.9019
   -49.8984 -49.8949 -49.8900 -49.8853 -49.8817 -49.8735 -49.8667 -49.8647
   -49.8631 -49.8604 -49.8564 -49.8553 -49.8506 -49.8476 -49.8411 -49.8375
   -49.8369 -49.8361 -49.8359 -49.8343 -49.8325 -49.8279 -49.8250 -49.8236
   -20.3725 -20.3693 -20.3228 -20.3029 -20.3025 -20.2987 -20.2981 -20.2969
   -20.2872 -20.2523 -20.2517 -20.2479 -20.2362 -20.2345 -20.2184 -20.2176
   -20.2150 -20.2026 -20.1990 -20.1969 -20.1790 -20.1708 -20.1599 -20.1492
   -20.1453 -20.1186 -20.0877 -20.0850 -20.0566 -20.0328 -19.9876 -19.9784
   -19.9675 -19.9453 -19.9445 -19.9200 -19.9193 -19.9127 -19.8956 -19.8908
   -19.8446 -19.8426 -19.8282 -19.8137 -19.8120 -19.8074 -19.7843 -19.7833
   -19.7791 -19.7729 -19.7707 -19.7649 -19.7537 -19.7500 -19.7413 -19.7330
   -19.7243 -19.7217 -19.7215 -19.7212 -19.7148 -19.7019 -19.6912 -19.6905
   -19.6848 -19.6785 -19.6673 -19.6642 -19.6632 -19.6585 -19.6578 -19.6566
   -19.6443 -19.6364 -19.6335 -19.6247 -19.6231 -19.6230 -19.6206 -19.6186
   -19.6154 -19.5996 -19.5988 -19.5912 -19.5902 -19.5887 -19.5885 -19.5767
   -19.5637 -19.5599 -19.5470 -19.5161 -19.5102 -19.5028 -19.5003 -19.4672
    15.9636  16.6140  17.1595  17.2715  17.2797  17.3242  17.3640  17.4630
    17.6308  17.6416  17.6675  17.6870  17.6909  17.7034  17.7161  17.7422
    17.7589  17.8027  17.8401  17.8584  17.8833  17.9149  17.9742  17.9790
    17.9955  18.0280  18.1753  18.1887  18.2003  18.2155  18.2630  18.3183
    18.3833  18.4833  18.5468  18.6086  18.6086  18.6086  18.6597  18.6633
    18.7551  18.8314  18.8686  18.9434  18.9841  19.1121  19.1124  19.1465
    19.2091  19.3066  19.4253  19.4302  19.4617  19.4779  19.6568  19.6970
    19.7311  19.7440  19.8318  19.9771  20.0601  20.0726  20.1447  20.1739
    20.1847  20.1980  20.2074  20.3183  20.3302  20.3478  20.3791  20.4657
    20.4716  20.5459  20.5741  20.5870  20.5927  20.6241  20.6741  20.7481
    20.7687  20.7752  20.8457  20.8490  20.8585  20.9248  20.9691  20.9703
    20.9749  21.0496  21.0570  21.0740  21.1482  21.2146  21.2698  21.3882
    21.4381  21.4487  21.4728  21.5188  21.5323  21.5541  21.5890  21.5907
    21.6960  21.7135  21.7358  21.7861  21.9219  21.9416  21.9677  22.0157
    22.1200  22.1241  22.2942  22.3190  22.4342  22.4726  22.5385  22.6486
    22.7769  22.8094  22.8174  22.8646  22.9404  23.0262  23.0931  23.1055
    23.1821  23.2072  23.2638  23.3619  23.3748  23.3918  23.4621  23.5231
    23.5729  23.5836  23.7274  23.7334  23.7361  23.7770  23.9541  23.9981
    24.0236  24.0321  24.0729  24.0797  24.0876  24.0987  24.1051  24.1525
    24.2158  24.3666  24.4416  24.4440  24.4440  24.4761  24.4767  24.4767
    24.5028  24.5713  24.7553  24.7627  24.7672  24.7887  24.8338  24.8895
    25.1981  25.3182  25.3391  25.3742  25.3961  25.7187  26.5918  26.5984
    27.3655  27.5442  27.8359

          k = 0.0556 0.3889 0.3870 ( 30330 PWs)   bands (ev):

   -50.0027 -49.9789 -49.9785 -49.9577 -49.9215 -49.9093 -49.9093 -49.9059
   -49.9004 -49.8960 -49.8960 -49.8894 -49.8669 -49.8646 -49.8607 -49.8594
   -49.8592 -49.8588 -49.8531 -49.8529 -49.8507 -49.8505 -49.8429 -49.8411
   -49.8409 -49.8401 -49.8399 -49.8376 -49.8325 -49.8269 -49.8265 -49.8243
   -20.3536 -20.3531 -20.2927 -20.2916 -20.2914 -20.2891 -20.2871 -20.2803
   -20.2751 -20.2729 -20.2578 -20.2480 -20.2473 -20.2400 -20.2372 -20.2170
   -20.2155 -20.2024 -20.2015 -20.2004 -20.1996 -20.1991 -20.1975 -20.1647
   -20.1625 -20.1616 -20.1240 -20.0786 -20.0745 -20.0230 -20.0209 -19.9530
   -19.9311 -19.9305 -19.9036 -19.8945 -19.8900 -19.8626 -19.8604 -19.8518
   -19.8464 -19.8452 -19.8442 -19.8363 -19.8257 -19.7878 -19.7816 -19.7811
   -19.7785 -19.7673 -19.7650 -19.7641 -19.7586 -19.7582 -19.7576 -19.7568
   -19.7470 -19.7453 -19.7129 -19.7110 -19.7060 -19.7049 -19.7047 -19.6934
   -19.6929 -19.6706 -19.6699 -19.6647 -19.6599 -19.6589 -19.6567 -19.6557
   -19.6406 -19.6377 -19.6362 -19.6345 -19.6332 -19.6302 -19.6197 -19.6140
   -19.6099 -19.6043 -19.5986 -19.5982 -19.5958 -19.5926 -19.5837 -19.5699
   -19.5665 -19.5646 -19.5629 -19.5167 -19.4975 -19.4942 -19.4937 -19.4686
    16.1855  16.7999  16.8054  17.3321  17.3866  17.4313  17.4605  17.4656
    17.5429  17.6953  17.6954  17.7198  17.7541  17.7574  17.8166  17.8179
    17.8276  17.8278  17.8392  17.8418  17.8646  17.8758  17.8765  17.9418
    17.9545  18.0199  18.0612  18.1330  18.1356  18.3221  18.3246  18.3252
    18.3283  18.3318  18.3350  18.3399  18.3446  18.5686  18.5707  18.5904
    18.5912  18.6393  18.6454  18.8921  18.8971  19.0109  19.2244  19.2285
    19.2296  19.2336  19.3972  19.5488  19.5549  19.5747  19.5864  19.6381
    19.6587  19.9688  19.9876  19.9885  20.1600  20.2458  20.2473  20.3668
    20.3741  20.3779  20.3796  20.3822  20.3895  20.4098  20.4121  20.4230
    20.5103  20.5572  20.6960  20.7090  20.7911  20.7971  20.7999  20.8536
    20.8710  20.8871  20.9022  20.9105  20.9806  20.9935  20.9940  21.0057
    21.1242  21.1564  21.1655  21.1658  21.1754  21.1816  21.2021  21.2433
    21.2978  21.3245  21.3588  21.3636  21.3674  21.3706  21.4220  21.4302
    21.4310  21.4514  21.5727  21.6539  21.6694  21.6853  21.6993  21.9550
    22.1155  22.1160  22.1164  22.1195  22.1967  22.2116  22.2883  22.3478
    22.6708  23.0094  23.0421  23.0474  23.0647  23.0692  23.3332  23.3386
    23.3432  23.3472  23.4427  23.4469  23.5032  23.5034  23.5694  23.6101
    23.7532  23.7579  23.8615  23.8849  23.8908  23.9032  23.9073  23.9100
    23.9139  23.9959  24.1017  24.2053  24.2385  24.2556  24.2567  24.2572
    24.2608  24.3103  24.3720  24.4205  24.4205  24.4695  24.4789  24.4822
    24.4870  24.5163  24.5164  24.5231  24.5306  24.5416  24.7015  24.7261
    24.7384  25.0628  25.2170  25.2358  25.9639  25.9743  27.2342  27.2450
    27.2917  27.3234  28.0413

          k = 0.0556 0.3889-0.4975 ( 30308 PWs)   bands (ev):

   -49.9919 -49.9918 -49.9690 -49.9690 -49.9159 -49.9159 -49.9052 -49.9052
   -49.9014 -49.9013 -49.8930 -49.8930 -49.8619 -49.8619 -49.8558 -49.8557
   -49.8547 -49.8546 -49.8538 -49.8538 -49.8494 -49.8494 -49.8466 -49.8466
   -49.8453 -49.8453 -49.8390 -49.8389 -49.8295 -49.8294 -49.8254 -49.8253
   -20.3272 -20.3271 -20.3260 -20.3260 -20.2731 -20.2731 -20.2724 -20.2724
   -20.2593 -20.2593 -20.2514 -20.2514 -20.2461 -20.2461 -20.2389 -20.2389
   -20.2211 -20.2211 -20.2125 -20.2125 -20.2014 -20.2014 -20.1894 -20.1894
   -20.1627 -20.1627 -20.1189 -20.1189 -20.0527 -20.0527 -19.9879 -19.9879
   -19.8946 -19.8946 -19.8865 -19.8865 -19.8714 -19.8714 -19.8671 -19.8671
   -19.8348 -19.8348 -19.8171 -19.8171 -19.8075 -19.8075 -19.8040 -19.8040
   -19.7990 -19.7990 -19.7632 -19.7632 -19.7529 -19.7529 -19.7402 -19.7402
   -19.7274 -19.7274 -19.7239 -19.7239 -19.7206 -19.7205 -19.7030 -19.7030
   -19.6838 -19.6838 -19.6833 -19.6833 -19.6518 -19.6517 -19.6468 -19.6468
   -19.6457 -19.6456 -19.6415 -19.6415 -19.6171 -19.6171 -19.6143 -19.6142
   -19.6112 -19.6112 -19.6030 -19.6030 -19.5872 -19.5871 -19.5828 -19.5828
   -19.5750 -19.5750 -19.5378 -19.5377 -19.4921 -19.4921 -19.4776 -19.4776
    16.4685  16.4686  17.0484  17.0485  17.5426  17.5426  17.5482  17.5483
    17.6364  17.6364  17.6649  17.6649  17.6865  17.6865  17.6971  17.6971
    17.8355  17.8355  17.8674  17.8674  17.9728  17.9728  18.0527  18.0527
    18.0646  18.0646  18.0862  18.0862  18.0919  18.0919  18.1381  18.1382
    18.3041  18.3042  18.3412  18.3413  18.4532  18.4533  18.4815  18.4815
    18.5067  18.5067  18.7873  18.7873  19.0220  19.0220  19.0397  19.0397
    19.3693  19.3693  19.3848  19.3849  19.6348  19.6349  19.7097  19.7097
    19.8241  19.8241  19.9100  19.9100  20.1109  20.1109  20.3613  20.3613
    20.4239  20.4239  20.4817  20.4817  20.5500  20.5500  20.6003  20.6003
    20.6972  20.6972  20.7197  20.7198  20.7440  20.7440  20.9179  20.9179
    20.9388  20.9388  20.9572  20.9573  20.9729  20.9729  21.0015  21.0015
    21.0494  21.0494  21.1040  21.1040  21.1120  21.1121  21.1558  21.1558
    21.2304  21.2304  21.2434  21.2435  21.4143  21.4143  21.4168  21.4168
    21.4421  21.4421  21.5890  21.5890  21.8176  21.8176  21.8457  21.8457
    21.8867  21.8867  21.9060  21.9060  22.0442  22.0443  22.2183  22.2183
    22.8721  22.8721  23.1515  23.1515  23.2424  23.2424  23.2920  23.2921
    23.3178  23.3179  23.5591  23.5592  23.6308  23.6308  23.6509  23.6509
    23.7265  23.7265  23.8124  23.8124  23.9193  23.9193  24.0645  24.0645
    24.1234  24.1235  24.2146  24.2146  24.2794  24.2794  24.2811  24.2811
    24.2945  24.2945  24.3621  24.3621  24.3641  24.3641  24.3990  24.3990
    24.4055  24.4055  24.5039  24.5039  24.5515  24.5515  24.6051  24.6051
    24.7138  24.7138  25.0868  25.0868  26.6076  26.6076  26.6209  26.6210
    27.9403  27.9403  28.0350

          k = 0.0556-0.5000 0.0553 ( 30306 PWs)   bands (ev):

   -50.0079 -50.0078 -49.9248 -49.9247 -49.9237 -49.9236 -49.9088 -49.9087
   -49.9075 -49.9074 -49.8843 -49.8841 -49.8768 -49.8767 -49.8766 -49.8764
   -49.8707 -49.8706 -49.8543 -49.8541 -49.8406 -49.8404 -49.8396 -49.8394
   -49.8381 -49.8379 -49.8368 -49.8367 -49.8253 -49.8251 -49.8229 -49.8228
   -20.3439 -20.3439 -20.3312 -20.3311 -20.3306 -20.3305 -20.3130 -20.3129
   -20.2952 -20.2950 -20.2942 -20.2941 -20.2511 -20.2510 -20.1786 -20.1785
   -20.1768 -20.1767 -20.1578 -20.1578 -20.1566 -20.1565 -20.0726 -20.0725
   -20.0661 -20.0661 -20.0496 -20.0495 -20.0457 -20.0456 -20.0183 -20.0182
   -20.0117 -20.0117 -20.0068 -20.0067 -20.0020 -20.0019 -19.8959 -19.8958
   -19.8932 -19.8931 -19.8168 -19.8166 -19.8074 -19.8073 -19.7650 -19.7649
   -19.7558 -19.7557 -19.7166 -19.7165 -19.7152 -19.7151 -19.7142 -19.7140
   -19.7100 -19.7099 -19.7080 -19.7080 -19.7077 -19.7077 -19.7043 -19.7042
   -19.6938 -19.6937 -19.6936 -19.6935 -19.6812 -19.6811 -19.6805 -19.6804
   -19.6680 -19.6680 -19.6036 -19.6035 -19.5976 -19.5975 -19.5963 -19.5962
   -19.5961 -19.5960 -19.5892 -19.5891 -19.5885 -19.5883 -19.5752 -19.5751
   -19.5632 -19.5631 -19.5623 -19.5623 -19.5044 -19.5043 -19.5017 -19.5016
    16.0488  16.0490  17.2574  17.2575  17.3894  17.3896  17.3942  17.3944
    17.5709  17.5709  17.6409  17.6411  17.6512  17.6512  17.6515  17.6515
    17.7117  17.7117  17.8716  17.8717  17.8829  17.8830  18.0287  18.0288
    18.0398  18.0399  18.2365  18.2366  18.2476  18.2478  18.5992  18.5993
    18.6085  18.6085  18.7339  18.7341  18.7506  18.7508  18.8882  18.8883
    18.8896  18.8898  19.0823  19.0824  19.0855  19.0856  19.2864  19.2864
    19.3085  19.3085  19.3146  19.3147  19.3185  19.3186  19.6191  19.6191
    19.6210  19.6210  19.8877  19.8879  19.8886  19.8888  19.9106  19.9107
    19.9142  19.9143  20.0169  20.0170  20.0332  20.0333  20.1853  20.1854
    20.3667  20.3667  20.3801  20.3801  20.4727  20.4728  20.4832  20.4832
    20.7665  20.7665  20.8324  20.8325  20.8527  20.8528  20.8883  20.8884
    20.9160  20.9162  20.9633  20.9634  21.6165  21.6166  21.6180  21.6181
    21.6234  21.6234  21.6540  21.6541  22.0236  22.0237  22.0241  22.0242
    22.2225  22.2226  22.2800  22.2801  22.3238  22.3238  22.3344  22.3345
    22.3389  22.3390  22.4096  22.4097  22.4149  22.4150  22.4271  22.4272
    22.4278  22.4279  22.4889  22.4890  22.4947  22.4948  22.7412  22.7414
    22.7417  22.7419  23.0512  23.0514  23.6704  23.6705  23.6735  23.6736
    23.6882  23.6883  23.7670  23.7670  23.9409  23.9410  23.9493  23.9494
    23.9897  23.9897  24.0284  24.0285  24.1027  24.1028  24.1132  24.1133
    24.1216  24.1217  24.1287  24.1288  24.3955  24.3956  24.5723  24.5723
    24.5754  24.5755  24.6138  24.6139  24.9894  24.9895  25.0026  25.0027
    25.0922  25.0924  25.1079  25.1080  25.9362  25.9363  26.4612  26.4612
    26.4613  26.4613  26.9505

          k = 0.0556-0.5000 0.1658 ( 30348 PWs)   bands (ev):

   -50.0052 -50.0050 -49.9405 -49.9404 -49.9224 -49.9222 -49.9065 -49.9063
   -49.8931 -49.8929 -49.8917 -49.8915 -49.8824 -49.8822 -49.8694 -49.8693
   -49.8650 -49.8649 -49.8538 -49.8537 -49.8423 -49.8421 -49.8416 -49.8414
   -49.8393 -49.8392 -49.8342 -49.8340 -49.8281 -49.8279 -49.8234 -49.8232
   -20.3475 -20.3475 -20.3386 -20.3385 -20.3097 -20.3097 -20.2881 -20.2879
   -20.2876 -20.2874 -20.2864 -20.2864 -20.2497 -20.2495 -20.2041 -20.2041
   -20.1954 -20.1953 -20.1946 -20.1946 -20.1419 -20.1418 -20.1161 -20.1160
   -20.0916 -20.0915 -20.0825 -20.0825 -20.0397 -20.0396 -20.0030 -20.0029
   -19.9731 -19.9730 -19.9628 -19.9626 -19.9540 -19.9539 -19.9199 -19.9199
   -19.8869 -19.8868 -19.7995 -19.7993 -19.7976 -19.7975 -19.7741 -19.7739
   -19.7528 -19.7527 -19.7474 -19.7473 -19.7424 -19.7424 -19.7234 -19.7234
   -19.7144 -19.7144 -19.7093 -19.7093 -19.7036 -19.7035 -19.7011 -19.7009
   -19.7004 -19.7003 -19.6731 -19.6730 -19.6666 -19.6664 -19.6473 -19.6471
   -19.6454 -19.6454 -19.6313 -19.6313 -19.6297 -19.6297 -19.6117 -19.6116
   -19.6066 -19.6064 -19.5991 -19.5990 -19.5876 -19.5875 -19.5686 -19.5685
   -19.5654 -19.5654 -19.5340 -19.5339 -19.5101 -19.5099 -19.4918 -19.4917
    16.1213  16.1214  17.3226  17.3228  17.4094  17.4096  17.4471  17.4472
[...]
   -19.6692 -19.6691 -19.6691 -19.6690 -19.6690 -19.6690 -19.6689 -19.6689
   -19.6346 -19.6345 -19.6345 -19.6344 -19.6151 -19.6151 -19.6151 -19.6151
   -19.5943 -19.5942 -19.5942 -19.5941 -19.5932 -19.5932 -19.5932 -19.5932
   -19.5602 -19.5601 -19.5600 -19.5599 -19.4789 -19.4789 -19.4789 -19.4789
    16.7406  16.7407  16.7409  16.7410  17.6017  17.6018  17.6018  17.6018
    17.6896  17.6896  17.6897  17.6897  17.7328  17.7328  17.7328  17.7328
    17.8733  17.8734  17.8734  17.8735  17.8735  17.8736  17.8737  17.8737
    18.1826  18.1827  18.1828  18.1828  18.1828  18.1829  18.1829  18.1830
    18.2821  18.2822  18.2822  18.2822  18.2822  18.2822  18.2823  18.2823
    18.5583  18.5584  18.5584  18.5585  19.1892  19.1892  19.1893  19.1894
    19.1894  19.1894  19.1895  19.1895  19.7579  19.7580  19.7580  19.7580
    19.9731  19.9732  19.9733  19.9733  20.2501  20.2502  20.2503  20.2503
    20.4570  20.4570  20.4570  20.4570  20.4708  20.4708  20.4709  20.4709
    20.8381  20.8381  20.8382  20.8382  20.8382  20.8382  20.8382  20.8382
    20.9221  20.9222  20.9222  20.9223  21.1148  21.1149  21.1149  21.1149
    21.1192  21.1192  21.1192  21.1193  21.2592  21.2592  21.2593  21.2593
    21.2594  21.2594  21.2594  21.2594  21.2686  21.2686  21.2686  21.2687
    21.4894  21.4895  21.4895  21.4895  21.6373  21.6373  21.6374  21.6374
    21.6374  21.6374  21.6375  21.6375  22.1688  22.1689  22.1689  22.1691
    23.1131  23.1132  23.1132  23.1134  23.2919  23.2920  23.2920  23.2921
    23.5173  23.5173  23.5174  23.5174  23.5174  23.5174  23.5175  23.5175
    24.0290  24.0291  24.0291  24.0292  24.1462  24.1462  24.1463  24.1463
    24.1463  24.1463  24.1464  24.1464  24.1536  24.1537  24.1537  24.1538
    24.3838  24.3839  24.3839  24.3840  24.4286  24.4286  24.4286  24.4286
    24.4286  24.4286  24.4286  24.4287  24.4341  24.4341  24.4341  24.4342
    24.6802  24.6802  24.6803  24.6803  27.3465  27.3465  27.3465  27.3466
    27.3466  27.3466  27.3466

          k =-0.5000-0.5000 0.1658 ( 30312 PWs)   bands (ev):

   -49.9789 -49.9788 -49.9788 -49.9786 -49.9250 -49.9249 -49.9248 -49.9247
   -49.8855 -49.8854 -49.8854 -49.8852 -49.8499 -49.8499 -49.8498 -49.8498
   -49.8497 -49.8497 -49.8496 -49.8496 -49.8495 -49.8495 -49.8494 -49.8494
   -49.8494 -49.8494 -49.8492 -49.8492 -49.8316 -49.8315 -49.8315 -49.8313
   -20.3010 -20.3009 -20.3009 -20.3009 -20.3009 -20.3009 -20.3009 -20.3009
   -20.2397 -20.2397 -20.2396 -20.2396 -20.2396 -20.2396 -20.2395 -20.2395
   -20.2330 -20.2329 -20.2328 -20.2327 -20.2321 -20.2320 -20.2320 -20.2319
   -20.1180 -20.1180 -20.1179 -20.1179 -19.9948 -19.9948 -19.9948 -19.9948
   -19.8451 -19.8451 -19.8451 -19.8451 -19.8451 -19.8451 -19.8451 -19.8451
   -19.8386 -19.8386 -19.8385 -19.8385 -19.8385 -19.8385 -19.8384 -19.8384
   -19.8057 -19.8056 -19.8056 -19.8056 -19.7341 -19.7341 -19.7341 -19.7340
   -19.7340 -19.7340 -19.7339 -19.7339 -19.7248 -19.7248 -19.7248 -19.7248
   -19.6816 -19.6815 -19.6815 -19.6815 -19.6726 -19.6726 -19.6725 -19.6725
   -19.6724 -19.6724 -19.6723 -19.6723 -19.6366 -19.6366 -19.6366 -19.6366
   -19.5717 -19.5717 -19.5717 -19.5717 -19.5618 -19.5618 -19.5617 -19.5617
   -19.5491 -19.5490 -19.5490 -19.5489 -19.4827 -19.4827 -19.4827 -19.4827
    16.7708  16.7709  16.7710  16.7711  17.4544  17.4544  17.4545  17.4545
    17.7210  17.7210  17.7211  17.7211  17.8347  17.8347  17.8347  17.8347
    17.8384  17.8384  17.8385  17.8385  17.8386  17.8386  17.8387  17.8387
    18.2034  18.2034  18.2035  18.2035  18.2035  18.2035  18.2036  18.2036
    18.3017  18.3018  18.3018  18.3018  18.3019  18.3020  18.3020  18.3020
    18.5894  18.5894  18.5895  18.5895  19.2202  19.2202  19.2203  19.2204
    19.2204  19.2204  19.2205  19.2205  19.6740  19.6741  19.6742  19.6743
    19.8174  19.8174  19.8174  19.8174  20.3934  20.3934  20.3935  20.3935
    20.5290  20.5290  20.5290  20.5290  20.5509  20.5509  20.5510  20.5510
    20.7886  20.7886  20.7886  20.7886  20.7886  20.7887  20.7887  20.7887
    20.9119  20.9120  20.9120  20.9120  21.0000  21.0000  21.0001  21.0001
    21.0670  21.0670  21.0671  21.0671  21.2388  21.2388  21.2389  21.2389
    21.2389  21.2390  21.2390  21.2390  21.4205  21.4205  21.4206  21.4206
    21.4587  21.4588  21.4588  21.4589  21.7152  21.7152  21.7153  21.7153
    21.7153  21.7153  21.7154  21.7154  22.2855  22.2857  22.2857  22.2858
    22.9721  22.9722  22.9722  22.9723  23.1614  23.1614  23.1614  23.1614
    23.1615  23.1615  23.1615  23.1615  23.2475  23.2476  23.2476  23.2477
    23.5123  23.5123  23.5123  23.5124  23.8901  23.8901  23.8901  23.8902
    24.4269  24.4269  24.4270  24.4270  24.4271  24.4271  24.4271  24.4271
    24.4956  24.4956  24.4956  24.4956  24.4956  24.4957  24.4957  24.4957
    24.5184  24.5184  24.5185  24.5185  24.5695  24.5696  24.5696  24.5697
    25.4363  25.4363  25.4364  25.4364  27.4282  27.4283  27.4283  27.4283
    27.4283  27.4284  27.4284

          k =-0.5000-0.5000 0.2764 ( 30308 PWs)   bands (ev):

   -49.9744 -49.9742 -49.9742 -49.9741 -49.9375 -49.9374 -49.9373 -49.9372
   -49.8731 -49.8729 -49.8729 -49.8728 -49.8499 -49.8498 -49.8497 -49.8497
   -49.8497 -49.8497 -49.8496 -49.8495 -49.8495 -49.8495 -49.8495 -49.8494
   -49.8494 -49.8494 -49.8493 -49.8492 -49.8362 -49.8360 -49.8360 -49.8359
   -20.2935 -20.2935 -20.2934 -20.2934 -20.2934 -20.2934 -20.2934 -20.2934
   -20.2534 -20.2533 -20.2533 -20.2532 -20.2489 -20.2488 -20.2487 -20.2486
   -20.2481 -20.2481 -20.2480 -20.2480 -20.2480 -20.2479 -20.2479 -20.2479
   -20.0669 -20.0668 -20.0668 -20.0667 -19.9527 -19.9527 -19.9526 -19.9526
   -19.8478 -19.8477 -19.8477 -19.8477 -19.8452 -19.8452 -19.8452 -19.8452
   -19.8452 -19.8452 -19.8452 -19.8451 -19.8410 -19.8409 -19.8409 -19.8408
   -19.8408 -19.8408 -19.8408 -19.8407 -19.7338 -19.7337 -19.7337 -19.7336
   -19.7242 -19.7242 -19.7241 -19.7241 -19.7240 -19.7240 -19.7240 -19.7240
   -19.7174 -19.7174 -19.7174 -19.7174 -19.6791 -19.6791 -19.6790 -19.6790
   -19.6789 -19.6789 -19.6789 -19.6789 -19.6570 -19.6570 -19.6570 -19.6570
   -19.5512 -19.5512 -19.5511 -19.5511 -19.5383 -19.5382 -19.5382 -19.5381
   -19.5347 -19.5346 -19.5346 -19.5345 -19.4902 -19.4902 -19.4902 -19.4902
    16.8301  16.8302  16.8303  16.8304  17.3031  17.3032  17.3032  17.3033
    17.7761  17.7761  17.7762  17.7762  17.8203  17.8203  17.8203  17.8204
    17.8204  17.8205  17.8205  17.8205  17.8970  17.8971  17.8971  17.8971
    18.0898  18.0898  18.0898  18.0898  18.0899  18.0899  18.0899  18.0900
    18.4827  18.4827  18.4827  18.4828  18.4829  18.4829  18.4829  18.4829
    18.6553  18.6553  18.6554  18.6554  19.2071  19.2072  19.2072  19.2073
    19.2073  19.2073  19.2074  19.2074  19.3860  19.3861  19.3862  19.3862
    19.9291  19.9291  19.9291  19.9291  20.3936  20.3937  20.3937  20.3938
    20.6316  20.6316  20.6317  20.6317  20.7054  20.7055  20.7055  20.7055
    20.7760  20.7760  20.7761  20.7761  20.7761  20.7761  20.7761  20.7761
    20.8927  20.8928  20.8928  20.8928  20.9253  20.9253  20.9254  20.9254
    20.9948  20.9948  20.9949  20.9949  21.1912  21.1912  21.1913  21.1913
    21.1913  21.1914  21.1914  21.1914  21.2937  21.2937  21.2938  21.2938
    21.6814  21.6815  21.6815  21.6816  21.8323  21.8323  21.8324  21.8324
    21.8324  21.8324  21.8324  21.8324  22.4853  22.4854  22.4854  22.4855
    22.7437  22.7438  22.7439  22.7439  22.7770  22.7770  22.7771  22.7771
    22.7771  22.7771  22.7772  22.7772  23.1649  23.1649  23.1649  23.1650
    23.1672  23.1672  23.1673  23.1673  23.6047  23.6047  23.6047  23.6048
    24.6058  24.6058  24.6058  24.6058  24.6059  24.6059  24.6059  24.6059
    24.6330  24.6330  24.6330  24.6331  24.6591  24.6591  24.6591  24.6591
    24.6592  24.6592  24.6592  24.6592  24.7013  24.7013  24.7013  24.7014
    26.2754  26.2755  26.2755  26.2756  27.5975  27.5975  27.5975  27.5975
    27.5976  27.5976  27.5976

          k =-0.5000-0.5000 0.3870 ( 30292 PWs)   bands (ev):

   -49.9677 -49.9676 -49.9676 -49.9674 -49.9490 -49.9489 -49.9489 -49.9487
   -49.8615 -49.8614 -49.8614 -49.8613 -49.8498 -49.8498 -49.8497 -49.8497
   -49.8496 -49.8496 -49.8496 -49.8496 -49.8495 -49.8495 -49.8495 -49.8494
   -49.8494 -49.8494 -49.8493 -49.8493 -49.8428 -49.8427 -49.8427 -49.8425
   -20.2832 -20.2832 -20.2832 -20.2832 -20.2831 -20.2831 -20.2831 -20.2831
   -20.2651 -20.2650 -20.2650 -20.2649 -20.2616 -20.2615 -20.2615 -20.2614
   -20.2591 -20.2591 -20.2590 -20.2590 -20.2590 -20.2590 -20.2589 -20.2589
   -20.0119 -20.0118 -20.0118 -20.0118 -19.9015 -19.9014 -19.9014 -19.9014
   -19.8993 -19.8992 -19.8992 -19.8992 -19.8451 -19.8451 -19.8451 -19.8450
   -19.8450 -19.8450 -19.8450 -19.8450 -19.8430 -19.8430 -19.8430 -19.8429
   -19.8429 -19.8429 -19.8429 -19.8429 -19.7892 -19.7891 -19.7891 -19.7890
   -19.7121 -19.7121 -19.7121 -19.7121 -19.7120 -19.7119 -19.7119 -19.7119
   -19.7065 -19.7065 -19.7065 -19.7065 -19.6883 -19.6883 -19.6883 -19.6883
   -19.6882 -19.6882 -19.6881 -19.6881 -19.6759 -19.6759 -19.6759 -19.6759
   -19.5322 -19.5322 -19.5322 -19.5322 -19.5242 -19.5241 -19.5241 -19.5240
   -19.5236 -19.5235 -19.5235 -19.5234 -19.5013 -19.5013 -19.5012 -19.5012
    16.9167  16.9168  16.9169  16.9170  17.1582  17.1583  17.1583  17.1584
    17.8372  17.8372  17.8372  17.8373  17.8373  17.8374  17.8374  17.8374
    17.8398  17.8398  17.8399  17.8399  17.9152  17.9152  17.9153  17.9153
    17.9790  17.9790  17.9790  17.9790  17.9791  17.9791  17.9792  17.9792
    18.6946  18.6946  18.6947  18.6947  18.6948  18.6948  18.6948  18.6948
    18.7630  18.7631  18.7631  18.7631  19.0980  19.0981  19.0981  19.0982
    19.0982  19.0982  19.0983  19.0983  19.1301  19.1301  19.1302  19.1302
    20.0758  20.0758  20.0758  20.0758  20.3399  20.3399  20.3400  20.3400
    20.7754  20.7754  20.7755  20.7755  20.7937  20.7937  20.7937  20.7938
    20.8518  20.8518  20.8518  20.8518  20.8519  20.8519  20.8519  20.8519
    20.8671  20.8672  20.8672  20.8672  20.8906  20.8906  20.8907  20.8907
    20.9317  20.9317  20.9317  20.9318  21.1060  21.1060  21.1060  21.1061
    21.1061  21.1062  21.1062  21.1062  21.1282  21.1283  21.1283  21.1284
    21.9312  21.9312  21.9313  21.9313  21.9774  21.9774  21.9774  21.9774
    21.9774  21.9775  21.9775  21.9775  22.4368  22.4368  22.4369  22.4369
    22.4369  22.4370  22.4370  22.4370  22.4767  22.4768  22.4768  22.4769
    22.7357  22.7358  22.7358  22.7359  23.0041  23.0041  23.0041  23.0042
    23.0707  23.0708  23.0708  23.0709  23.3092  23.3092  23.3092  23.3093
    24.7196  24.7196  24.7196  24.7196  24.7196  24.7196  24.7197  24.7197
    24.7294  24.7295  24.7295  24.7295  24.7723  24.7723  24.7724  24.7724
    24.7811  24.7811  24.7811  24.7811  24.7811  24.7811  24.7812  24.7812
    27.1792  27.1793  27.1794  27.1794  27.8511  27.8512  27.8512  27.8512
    27.8513  27.8513  27.8513

          k =-0.5000-0.5000-0.4975 ( 30376 PWs)   bands (ev):

   -49.9592 -49.9592 -49.9591 -49.9591 -49.9591 -49.9590 -49.9589 -49.9589
   -49.8514 -49.8514 -49.8513 -49.8512 -49.8512 -49.8512 -49.8511 -49.8511
   -49.8498 -49.8497 -49.8497 -49.8497 -49.8496 -49.8496 -49.8496 -49.8495
   -49.8495 -49.8495 -49.8495 -49.8495 -49.8495 -49.8494 -49.8494 -49.8494
   -20.2713 -20.2713 -20.2713 -20.2713 -20.2713 -20.2712 -20.2712 -20.2712
   -20.2712 -20.2712 -20.2712 -20.2712 -20.2712 -20.2712 -20.2712 -20.2711
   -20.2676 -20.2676 -20.2676 -20.2676 -20.2675 -20.2675 -20.2674 -20.2674
   -19.9551 -19.9551 -19.9551 -19.9551 -19.9551 -19.9551 -19.9550 -19.9550
   -19.8460 -19.8459 -19.8459 -19.8459 -19.8459 -19.8459 -19.8458 -19.8458
   -19.8445 -19.8444 -19.8444 -19.8444 -19.8444 -19.8444 -19.8444 -19.8444
   -19.8444 -19.8444 -19.8444 -19.8444 -19.8443 -19.8443 -19.8443 -19.8443
   -19.6998 -19.6998 -19.6998 -19.6998 -19.6997 -19.6997 -19.6997 -19.6997
   -19.6996 -19.6996 -19.6996 -19.6996 -19.6996 -19.6996 -19.6996 -19.6996
   -19.6926 -19.6926 -19.6926 -19.6926 -19.6926 -19.6926 -19.6926 -19.6926
   -19.5195 -19.5195 -19.5194 -19.5194 -19.5194 -19.5194 -19.5193 -19.5193
   -19.5154 -19.5154 -19.5154 -19.5154 -19.5154 -19.5154 -19.5153 -19.5153
    17.0274  17.0274  17.0275  17.0275  17.0276  17.0277  17.0277  17.0277
    17.8914  17.8914  17.8914  17.8914  17.8915  17.8915  17.8915  17.8915
    17.8916  17.8916  17.8916  17.8916  17.8916  17.8916  17.8916  17.8916
    17.8923  17.8923  17.8923  17.8923  17.8923  17.8924  17.8924  17.8924
    18.9118  18.9118  18.9118  18.9118  18.9118  18.9119  18.9119  18.9119
    18.9119  18.9120  18.9120  18.9120  18.9120  18.9120  18.9121  18.9121
    18.9204  18.9204  18.9204  18.9204  18.9205  18.9205  18.9205  18.9205
    20.2263  20.2263  20.2263  20.2264  20.2264  20.2264  20.2264  20.2264
    20.8370  20.8370  20.8370  20.8370  20.8370  20.8370  20.8370  20.8371
    20.8941  20.8941  20.8941  20.8942  20.8942  20.8942  20.8942  20.8942
    20.9476  20.9476  20.9476  20.9477  20.9477  20.9477  20.9477  20.9477
    20.9823  20.9823  20.9823  20.9823  20.9824  20.9824  20.9824  20.9824
    20.9824  20.9824  20.9825  20.9825  20.9825  20.9825  20.9825  20.9825
    22.1705  22.1706  22.1706  22.1706  22.1706  22.1706  22.1706  22.1706
    22.1706  22.1706  22.1707  22.1707  22.1707  22.1707  22.1707  22.1707
    22.2000  22.2000  22.2001  22.2001  22.2001  22.2001  22.2002  22.2002
    22.9960  22.9960  22.9960  22.9960  22.9960  22.9961  22.9961  22.9961
    23.0153  23.0153  23.0154  23.0154  23.0154  23.0154  23.0155  23.0155
    24.7803  24.7803  24.7803  24.7803  24.7804  24.7804  24.7804  24.7804
    24.7919  24.7919  24.7919  24.7919  24.7919  24.7919  24.7919  24.7919
    24.7919  24.7919  24.7919  24.7919  24.7920  24.7920  24.7920  24.7920
    28.1296  28.1300  28.1304  28.1318  28.1331  28.1339  28.1348  28.1407
    28.1647  28.1648  28.1648

     the Fermi energy is    22.9735 ev

!    total energy              =  -13813.29996695 Ry

     total all-electron energy =   -289989.690306 Ry
     estimated scf accuracy    <       0.00000064 Ry
     smearing contrib. (-TS)   =       0.02009642 Ry
     internal energy E=F+TS    =  -13813.32006337 Ry

     The total energy is F=E-TS. E is the sum of the following terms:
     one-electron contribution =   -1008.18434449 Ry
     hartree contribution      =     919.78582361 Ry
     xc contribution           =    -927.86886141 Ry
     ewald contribution        =   -5207.61854749 Ry
     one-center paw contrib.   =   -7589.43413360 Ry

     convergence has been achieved in  11 iterations

     Forces acting on atoms (cartesian axes, Ry/au):

     atom    1 type  1   force =     0.00000000    0.00000000    0.00000000
     atom    2 type  1   force =    -0.00012501   -0.00012501    0.00000000
     atom    3 type  1   force =    -0.00026627    0.00000000   -0.00012987
     atom    4 type  1   force =     0.00000000   -0.00026627   -0.00012987
     atom    5 type  1   force =     0.00000000    0.00000000    0.00000000
     atom    6 type  1   force =     0.00011461    0.00011461   -0.00000000
     atom    7 type  1   force =    -0.00026627    0.00000000    0.00012987
     atom    8 type  1   force =     0.00000000   -0.00026627    0.00012987
     atom    9 type  1   force =     0.00000000    0.00000000    0.00000000
     atom   10 type  1   force =    -0.00012501    0.00012501    0.00000000
     atom   11 type  1   force =     0.00028259    0.00000000    0.00008655
     atom   12 type  1   force =     0.00000000    0.00026627   -0.00012987
     atom   13 type  1   force =     0.00000000    0.00000000    0.00000000
     atom   14 type  1   force =     0.00011461   -0.00011461   -0.00000000
     atom   15 type  1   force =     0.00028259    0.00000000   -0.00008655
     atom   16 type  1   force =     0.00000000    0.00026627    0.00012987
     atom   17 type  1   force =     0.00000000    0.00000000    0.00000000
     atom   18 type  1   force =     0.00012501   -0.00012501    0.00000000
     atom   19 type  1   force =     0.00026627    0.00000000   -0.00012987
     atom   20 type  1   force =     0.00000000    0.00028259    0.00008655
     atom   21 type  1   force =     0.00000000    0.00000000    0.00000000
     atom   22 type  1   force =    -0.00011461    0.00011461   -0.00000000
     atom   23 type  1   force =     0.00026627    0.00000000    0.00012987
     atom   24 type  1   force =     0.00000000    0.00028259   -0.00008655
     atom   25 type  1   force =     0.00000000    0.00000000    0.00000000
     atom   26 type  1   force =     0.00012501    0.00012501    0.00000000
     atom   27 type  1   force =    -0.00028259    0.00000000    0.00008655
     atom   28 type  1   force =     0.00000000   -0.00028259    0.00008655
     atom   29 type  1   force =     0.00000000    0.00000000    0.00000000
     atom   30 type  1   force =    -0.00011461   -0.00011461   -0.00000000
     atom   31 type  1   force =    -0.00028259    0.00000000   -0.00008655
     atom   32 type  1   force =     0.00000000   -0.00028259   -0.00008655

     Total force =     0.001277     Total SCF correction =     0.005196
     SCF correction compared to forces is large: reduce conv_thr to get better values


     Computing stress (Cartesian axis) and pressure

          total   stress  (Ry/bohr**3)                   (kbar)     P=      -20.38
  -0.00011021   0.00000000   0.00000000          -16.21        0.00        0.00
   0.00000000  -0.00011021   0.00000000            0.00      -16.21        0.00
   0.00000000   0.00000000  -0.00019519            0.00        0.00      -28.71


     Writing output data file /scratch/WrwgEibfpoevjNTw.save/
 
     init_run     :     28.84s CPU     29.54s WALL (       1 calls)
     electrons    :    971.34s CPU    985.92s WALL (       1 calls)
     forces       :     11.07s CPU     11.21s WALL (       1 calls)
     stress       :     67.61s CPU     68.16s WALL (       1 calls)

     Called by init_run:
     wfcinit      :     28.03s CPU     28.66s WALL (       1 calls)
     potinit      :      0.20s CPU      0.21s WALL (       1 calls)
     hinit0       :      0.13s CPU      0.14s WALL (       1 calls)

     Called by electrons:
     c_bands      :    865.52s CPU    877.92s WALL (      12 calls)
     sum_band     :    104.33s CPU    106.27s WALL (      12 calls)
     v_of_rho     :      0.16s CPU      0.18s WALL (      12 calls)
     newd         :      0.26s CPU      0.39s WALL (      12 calls)
     PAW_pot      :      1.01s CPU      1.08s WALL (      12 calls)
     mix_rho      :      0.05s CPU      0.06s WALL (      12 calls)

     Called by c_bands:
     init_us_2    :      3.80s CPU      3.89s WALL (    2025 calls)
     cegterg      :    851.53s CPU    863.40s WALL (     900 calls)

     Called by *egterg:
     cdiaghg      :    112.67s CPU    114.16s WALL (    3345 calls)
     h_psi        :    452.38s CPU    459.67s WALL (    3495 calls)
     s_psi        :     33.14s CPU     33.36s WALL (    3495 calls)
     g_psi        :      0.88s CPU      0.90s WALL (    2520 calls)

     Called by h_psi:
     h_psi:calbec :     63.22s CPU     63.79s WALL (    3495 calls)
     vloc_psi     :    355.80s CPU    361.95s WALL (    3495 calls)
     add_vuspsi   :     31.25s CPU     31.81s WALL (    3495 calls)

     General routines
     calbec       :     98.37s CPU     99.29s WALL (    4770 calls)
     fft          :      0.21s CPU      0.23s WALL (     180 calls)
     ffts         :      0.02s CPU      0.02s WALL (      24 calls)
     fftw         :    416.01s CPU    423.10s WALL ( 1657210 calls)
     interpolate  :      0.03s CPU      0.03s WALL (      12 calls)
 
     Parallel routines
     fft_scatt_xy :     28.67s CPU     29.15s WALL ( 1657414 calls)
     fft_scatt_yz :    338.13s CPU    344.04s WALL ( 1657414 calls)
 
     PWSCF        :  18m16.59s CPU  18m36.13s WALL

 
   This run was terminated on:  21:59:16  23Nov2021            

=------------------------------------------------------------------------------=
   JOB DONE.
=------------------------------------------------------------------------------=
