
     Program PWSCF v.6.7MaX starts on 25Nov2021 at  5:30:16 

     This program is part of the open-source Quantum ESPRESSO suite
     for quantum simulation of materials; please cite
         "P. Giannozzi et al., J. Phys.:Condens. Matter 21 395502 (2009);
         "P. Giannozzi et al., J. Phys.:Condens. Matter 29 465901 (2017);
          URL http://www.quantum-espresso.org", 
     in publications or presentations arising from this work. More details at
     http://www.quantum-espresso.org/quote

     Parallel version (MPI & OpenMP), running on      72 processor cores
     Number of MPI processes:                72
     Threads/MPI process:                     1

     MPI processes distributed on     1 nodes
     R & G space division:  proc/nbgrp/npool/nimage =      72
     Reading input from /rds/homes/b/bxp912/jobs/20211014_ru_eos/wd/ec/ec_4_009.in
Warning: card &CELL ignored
Warning: card CELL_DYNAMICS = 'BFGS', ignored
Warning: card CELL_FACTOR = 2.0, ignored
Warning: card PRESS = 0.0, ignored
Warning: card / ignored

     Current dimensions of program PWSCF are:
     Max number of different atomic species (ntypx) = 10
     Max number of k-points (npk) =  40000
     Max angular momentum in pseudopotentials (lmaxx) =  3
     file Ru.pbe-spn-kjpaw_psl.1.0.0.UPF: wavefunction(s)  4D renormalized

     Subspace diagonalization in iterative solution of the eigenvalue problem:
     one sub-group per band group will be used
     ELPA distributed-memory algorithm (size of sub-group:  8*  8 procs)

     Found symmetry operation: I + (  0.2500  0.2500 -0.0000)
     This is a supercell, fractional translations are disabled
     Message from routine setup:
     using ibrav=0 with symmetry is DISCOURAGED, use correct ibrav instead
 
     Parallelization info
     --------------------
     sticks:   dense  smooth     PW     G-vecs:    dense   smooth      PW
     Min          98      65     17                 6245     3352     474
     Max          99      66     18                 6249     3356     481
     Sum        7113    4693   1281               449755   241489   34409
 


     bravais-lattice index     =            0
     lattice parameter (alat)  =      14.4007  a.u.
     unit-cell volume          =    2986.4454 (a.u.)^3
     number of atoms/cell      =           32
     number of atomic types    =            1
     number of electrons       =       512.00
     number of Kohn-Sham states=          307
     kinetic-energy cutoff     =      71.0000  Ry
     charge density cutoff     =     430.0000  Ry
     scf convergence threshold =      1.0E-06
     mixing beta               =       0.1000
     number of iterations used =           10  plain     mixing
     Exchange-correlation= SLA  PW   PBX  PBC
                           (   1   4   3   4   0   0   0)

     celldm(1)=  14.400742  celldm(2)=   0.000000  celldm(3)=   0.000000
     celldm(4)=   0.000000  celldm(5)=   0.000000  celldm(6)=   0.000000

     crystal axes: (cart. coord. in units of alat)
               a(1) = (   1.000008   0.000000   0.000000 )  
               a(2) = (   0.000000   1.000008   0.005000 )  
               a(3) = (   0.000000   0.005000   1.000008 )  

     reciprocal axes: (cart. coord. in units 2 pi/alat)
               b(1) = (  0.999992  0.000000  0.000000 )  
               b(2) = (  0.000000  1.000017 -0.005000 )  
               b(3) = (  0.000000 -0.005000  1.000017 )  


     PseudoPot. # 1 for Ru read from file:
     /rds/homes/b/bxp912/pp/Ru.pbe-spn-kjpaw_psl.1.0.0.UPF
     MD5 check sum: 0ae1f594dea09af7be8575c3a481d1ae
     Pseudo is Projector augmented-wave + core cor, Zval = 16.0
     Generated using "atomic" code by A. Dal Corso  v.5.1
     Shape of augmentation charge: PSQ
     Using radial grid of 1233 points,  6 beta functions with: 
                l(1) =   0
                l(2) =   0
                l(3) =   1
                l(4) =   1
                l(5) =   2
                l(6) =   2
     Q(r) pseudized with 0 coefficients 


     atomic species   valence    mass     pseudopotential
        Ru            16.00   101.07000     Ru( 1.00)

      8 Sym. Ops., with inversion, found



   Cartesian axes

     site n.     atom                  positions (alat units)
         1           Ru  tau(   1) = (   0.0000000   0.0000000   0.0000000  )
         2           Ru  tau(   2) = (   0.2500021   0.2500021   0.0012500  )
         3           Ru  tau(   3) = (   0.2500021   0.0012500   0.2500016  )
         4           Ru  tau(   4) = (   0.0000000   0.2512521   0.2512516  )
         5           Ru  tau(   5) = (   0.0000000   0.0025000   0.5000042  )
         6           Ru  tau(   6) = (   0.2500010   0.2525011   0.5012542  )
         7           Ru  tau(   7) = (   0.2500021   0.0037500   0.7500057  )
         8           Ru  tau(   8) = (   0.0000000   0.2537521   0.7512557  )
         9           Ru  tau(   9) = (   0.0000000   0.5000044   0.0025000  )
        10           Ru  tau(  10) = (   0.2500021   0.7500067   0.0037500  )
        11           Ru  tau(  11) = (   0.2500010   0.5012544   0.2525005  )
        12           Ru  tau(  12) = (   0.0000000   0.7512567   0.2537516  )
        13           Ru  tau(  13) = (   0.0000000   0.5025044   0.5025042  )
        14           Ru  tau(  14) = (   0.2500010   0.7525077   0.5037542  )
        15           Ru  tau(  15) = (   0.2500010   0.5037544   0.7525068  )
        16           Ru  tau(  16) = (   0.0000000   0.7537567   0.7537558  )
        17           Ru  tau(  17) = (   0.5000044   0.0000000   0.0000000  )
        18           Ru  tau(  18) = (   0.7500067   0.2500021   0.0012500  )
        19           Ru  tau(  19) = (   0.7500067   0.0012500   0.2500016  )
        20           Ru  tau(  20) = (   0.5000044   0.2512510   0.2512505  )
        21           Ru  tau(  21) = (   0.5000044   0.0025000   0.5000042  )
        22           Ru  tau(  22) = (   0.7500077   0.2525011   0.5012542  )
        23           Ru  tau(  23) = (   0.7500067   0.0037500   0.7500057  )
        24           Ru  tau(  24) = (   0.5000044   0.2537511   0.7512568  )
        25           Ru  tau(  25) = (   0.5000044   0.5000044   0.0025000  )
        26           Ru  tau(  26) = (   0.7500067   0.7500067   0.0037500  )
        27           Ru  tau(  27) = (   0.7500077   0.5012544   0.2525005  )
        28           Ru  tau(  28) = (   0.5000044   0.7512577   0.2537505  )
        29           Ru  tau(  29) = (   0.5000044   0.5025044   0.5025042  )
        30           Ru  tau(  30) = (   0.7500077   0.7525077   0.5037542  )
        31           Ru  tau(  31) = (   0.7500077   0.5037544   0.7525068  )
        32           Ru  tau(  32) = (   0.5000044   0.7537578   0.7537568  )

     number of k points=   125  Marzari-Vanderbilt smearing, width (Ry)=  0.0400

     Number of k-points >= 100: set verbosity='high' to print them.

     Dense  grid:   449755 G-vectors     FFT dimensions: (  96,  96,  96)

     Smooth grid:   241489 G-vectors     FFT dimensions: (  80,  80,  80)

     Estimated max dynamical RAM per process >     283.75 MB

     Estimated total dynamical RAM >      19.95 GB

     Check: negative core charge=   -0.000002

     Initial potential from superposition of free atoms

     starting charge  511.97959, renormalised to  512.00000
     Starting wfcs are  320 randomized atomic wfcs
     Checking if some PAW data can be deallocated... 

     total cpu time spent up to now is       54.2 secs

     Self-consistent Calculation

     iteration #  1     ecut=    71.00 Ry     beta= 0.10
     Davidson diagonalization with overlap
     ethr =  1.00E-02,  avg # of iterations =  3.4

     Threshold (ethr) on eigenvalues was too large:
     Diagonalizing with lowered threshold

     Davidson diagonalization with overlap
     ethr =  8.32E-05,  avg # of iterations =  5.8

     total cpu time spent up to now is      369.0 secs

     total energy              =  -13813.41044782 Ry
     estimated scf accuracy    <       0.63824470 Ry

     iteration #  2     ecut=    71.00 Ry     beta= 0.10
     Davidson diagonalization with overlap
     ethr =  1.25E-04,  avg # of iterations =  1.0

     total cpu time spent up to now is      482.9 secs

     total energy              =  -13813.20470485 Ry
     estimated scf accuracy    <       0.39887864 Ry

     iteration #  3     ecut=    71.00 Ry     beta= 0.10
     Davidson diagonalization with overlap
     ethr =  7.79E-05,  avg # of iterations =  2.3

     total cpu time spent up to now is      633.0 secs

     total energy              =  -13813.29684393 Ry
     estimated scf accuracy    <       0.03422020 Ry

     iteration #  4     ecut=    71.00 Ry     beta= 0.10
     Davidson diagonalization with overlap
     ethr =  6.68E-06,  avg # of iterations =  2.2

     total cpu time spent up to now is      765.5 secs

     total energy              =  -13813.29763503 Ry
     estimated scf accuracy    <       0.00900077 Ry

     iteration #  5     ecut=    71.00 Ry     beta= 0.10
     Davidson diagonalization with overlap
     ethr =  1.76E-06,  avg # of iterations =  1.2

     total cpu time spent up to now is      888.7 secs

     total energy              =  -13813.29881321 Ry
     estimated scf accuracy    <       0.00565660 Ry

     iteration #  6     ecut=    71.00 Ry     beta= 0.10
     Davidson diagonalization with overlap
     c_bands:  2 eigenvalues not converged
     ethr =  1.10E-06,  avg # of iterations =  3.8

     total cpu time spent up to now is     1078.5 secs

     total energy              =  -13813.29681624 Ry
     estimated scf accuracy    <       0.01663551 Ry

     iteration #  7     ecut=    71.00 Ry     beta= 0.10
     Davidson diagonalization with overlap
     ethr =  1.10E-06,  avg # of iterations =  2.7

     total cpu time spent up to now is     1241.1 secs

     total energy              =  -13813.29832052 Ry
     estimated scf accuracy    <       0.00095604 Ry

     iteration #  8     ecut=    71.00 Ry     beta= 0.10
     Davidson diagonalization with overlap
     ethr =  1.87E-07,  avg # of iterations =  2.7

     total cpu time spent up to now is     1384.1 secs

     total energy              =  -13813.29842205 Ry
     estimated scf accuracy    <       0.00014320 Ry

     iteration #  9     ecut=    71.00 Ry     beta= 0.10
     Davidson diagonalization with overlap
     ethr =  2.80E-08,  avg # of iterations =  2.0

     total cpu time spent up to now is     1515.9 secs

     total energy              =  -13813.29841355 Ry
     estimated scf accuracy    <       0.00012080 Ry

     iteration # 10     ecut=    71.00 Ry     beta= 0.10
     Davidson diagonalization with overlap
     ethr =  2.36E-08,  avg # of iterations =  1.0

     total cpu time spent up to now is     1624.8 secs

     total energy              =  -13813.29838523 Ry
     estimated scf accuracy    <       0.00007727 Ry

     iteration # 11     ecut=    71.00 Ry     beta= 0.10
     Davidson diagonalization with overlap
     ethr =  1.51E-08,  avg # of iterations =  2.1

     total cpu time spent up to now is     1774.8 secs

     total energy              =  -13813.29838624 Ry
     estimated scf accuracy    <       0.00000892 Ry

     iteration # 12     ecut=    71.00 Ry     beta= 0.10
     Davidson diagonalization with overlap
     ethr =  1.74E-09,  avg # of iterations =  3.7

     total cpu time spent up to now is     1968.1 secs

     total energy              =  -13813.29838840 Ry
     estimated scf accuracy    <       0.00001966 Ry

     iteration # 13     ecut=    71.00 Ry     beta= 0.10
     Davidson diagonalization with overlap
     ethr =  1.74E-09,  avg # of iterations =  2.8

     total cpu time spent up to now is     2131.1 secs

     End of self-consistent calculation

     Number of k-points >= 100: set verbosity='high' to print the bands.

     the Fermi energy is    23.1145 ev

!    total energy              =  -13813.29839303 Ry

     total all-electron energy =   -289989.688732 Ry
     estimated scf accuracy    <       0.00000030 Ry
     smearing contrib. (-TS)   =       0.02035734 Ry
     internal energy E=F+TS    =  -13813.31875036 Ry

     The total energy is F=E-TS. E is the sum of the following terms:
     one-electron contribution =    -995.66092154 Ry
     hartree contribution      =     916.08908816 Ry
     xc contribution           =    -928.07203512 Ry
     ewald contribution        =   -5216.23159209 Ry
     one-center paw contrib.   =   -7589.44328978 Ry

     convergence has been achieved in  13 iterations

     Forces acting on atoms (cartesian axes, Ry/au):

     atom    1 type  1   force =     0.00000000    0.00000000    0.00000000
     atom    2 type  1   force =     0.00000718    0.00001270   -0.00000786
     atom    3 type  1   force =     0.00000718   -0.00000786    0.00001270
     atom    4 type  1   force =     0.00000000   -0.00000005   -0.00000005
     atom    5 type  1   force =     0.00000000    0.00000000    0.00000000
     atom    6 type  1   force =     0.00001104   -0.00000929    0.00000783
     atom    7 type  1   force =     0.00000718    0.00000786   -0.00001270
     atom    8 type  1   force =    -0.00000000   -0.00000219    0.00000219
     atom    9 type  1   force =     0.00000000    0.00000000    0.00000000
     atom   10 type  1   force =     0.00000718   -0.00001270    0.00000786
     atom   11 type  1   force =     0.00001104    0.00000783   -0.00000929
     atom   12 type  1   force =    -0.00000000    0.00000219   -0.00000219
     atom   13 type  1   force =     0.00000000    0.00000000    0.00000000
     atom   14 type  1   force =     0.00001104    0.00000929   -0.00000783
     atom   15 type  1   force =     0.00001104   -0.00000783    0.00000929
     atom   16 type  1   force =     0.00000000    0.00000005    0.00000005
     atom   17 type  1   force =     0.00000000    0.00000000    0.00000000
     atom   18 type  1   force =    -0.00000718    0.00001270   -0.00000786
     atom   19 type  1   force =    -0.00000718   -0.00000786    0.00001270
     atom   20 type  1   force =     0.00000000    0.00001150    0.00001150
     atom   21 type  1   force =     0.00000000    0.00000000    0.00000000
     atom   22 type  1   force =    -0.00001104   -0.00000929    0.00000783
     atom   23 type  1   force =    -0.00000718    0.00000786   -0.00001270
     atom   24 type  1   force =     0.00000000    0.00000125   -0.00000125
     atom   25 type  1   force =     0.00000000    0.00000000    0.00000000
     atom   26 type  1   force =    -0.00000718   -0.00001270    0.00000786
     atom   27 type  1   force =    -0.00001104    0.00000783   -0.00000929
     atom   28 type  1   force =     0.00000000   -0.00000125    0.00000125
     atom   29 type  1   force =     0.00000000    0.00000000    0.00000000
     atom   30 type  1   force =    -0.00001104    0.00000929   -0.00000783
     atom   31 type  1   force =    -0.00001104   -0.00000783    0.00000929
     atom   32 type  1   force =     0.00000000   -0.00001150   -0.00001150

     Total force =     0.000070     Total SCF correction =     0.000764
     SCF correction compared to forces is large: reduce conv_thr to get better values


     Computing stress (Cartesian axis) and pressure

          total   stress  (Ry/bohr**3)                   (kbar)     P=       -3.14
  -0.00002311   0.00000000   0.00000000           -3.40        0.00        0.00
   0.00000000  -0.00002050  -0.00016577            0.00       -3.01      -24.38
   0.00000000  -0.00016577  -0.00002050            0.00      -24.38       -3.01


     Writing output data file /scratch/SLcvRufsCdcUgzpg.save/
 
     init_run     :     49.72s CPU     51.02s WALL (       1 calls)
     electrons    :   2043.92s CPU   2076.93s WALL (       1 calls)
     forces       :     17.90s CPU     18.03s WALL (       1 calls)
     stress       :    113.46s CPU    114.51s WALL (       1 calls)

     Called by init_run:
     wfcinit      :     48.85s CPU     50.09s WALL (       1 calls)
     potinit      :      0.22s CPU      0.24s WALL (       1 calls)
     hinit0       :      0.23s CPU      0.24s WALL (       1 calls)

     Called by electrons:
     c_bands      :   1827.70s CPU   1856.28s WALL (      14 calls)
     sum_band     :    213.89s CPU    218.06s WALL (      14 calls)
     v_of_rho     :      0.20s CPU      0.22s WALL (      14 calls)
     newd         :      0.53s CPU      0.68s WALL (      14 calls)
     PAW_pot      :      1.39s CPU      1.46s WALL (      14 calls)
     mix_rho      :      0.07s CPU      0.08s WALL (      14 calls)

     Called by c_bands:
     init_us_2    :      7.47s CPU      7.62s WALL (    3875 calls)
     cegterg      :   1800.27s CPU   1828.00s WALL (    1750 calls)

     Called by *egterg:
     cdiaghg      :    226.74s CPU    229.86s WALL (    6250 calls)
     h_psi        :    963.32s CPU    979.82s WALL (    6500 calls)
     s_psi        :     61.33s CPU     61.79s WALL (    6500 calls)
     g_psi        :      1.56s CPU      1.59s WALL (    4625 calls)

     Called by h_psi:
     h_psi:calbec :    122.08s CPU    123.14s WALL (    6500 calls)
     vloc_psi     :    778.02s CPU    792.36s WALL (    6500 calls)
     add_vuspsi   :     58.96s CPU     60.00s WALL (    6500 calls)

     General routines
     calbec       :    203.16s CPU    204.83s WALL (    8875 calls)
     fft          :      0.85s CPU      0.87s WALL (     206 calls)
     ffts         :      0.02s CPU      0.02s WALL (      28 calls)
     fftw         :    905.79s CPU    922.74s WALL ( 3202926 calls)
     interpolate  :      0.12s CPU      0.12s WALL (      14 calls)
 
     Parallel routines
     fft_scatt_xy :     55.11s CPU     55.99s WALL ( 3203160 calls)
     fft_scatt_yz :    755.95s CPU    770.68s WALL ( 3203160 calls)
 
     PWSCF        :  37m34.16s CPU  38m15.71s WALL

 
   This run was terminated on:   6: 8:32  25Nov2021            

=------------------------------------------------------------------------------=
   JOB DONE.
=------------------------------------------------------------------------------=
