
     Program PWSCF v.6.7MaX starts on 24Nov2021 at  1:45:57 

     This program is part of the open-source Quantum ESPRESSO suite
     for quantum simulation of materials; please cite
         "P. Giannozzi et al., J. Phys.:Condens. Matter 21 395502 (2009);
         "P. Giannozzi et al., J. Phys.:Condens. Matter 29 465901 (2017);
          URL http://www.quantum-espresso.org", 
     in publications or presentations arising from this work. More details at
     http://www.quantum-espresso.org/quote

     Parallel version (MPI & OpenMP), running on      72 processor cores
     Number of MPI processes:                72
     Threads/MPI process:                     1

     MPI processes distributed on     1 nodes
     R & G space division:  proc/nbgrp/npool/nimage =      72
     Reading input from /rds/homes/b/bxp912/jobs/20211014_ru_eos/wd/ec/ec_4_008.in
Warning: card &CELL ignored
Warning: card CELL_DYNAMICS = 'BFGS', ignored
Warning: card CELL_FACTOR = 2.0, ignored
Warning: card PRESS = 0.0, ignored
Warning: card / ignored

     Current dimensions of program PWSCF are:
     Max number of different atomic species (ntypx) = 10
     Max number of k-points (npk) =  40000
     Max angular momentum in pseudopotentials (lmaxx) =  3
     file Ru.pbe-spn-kjpaw_psl.1.0.0.UPF: wavefunction(s)  4D renormalized

     Subspace diagonalization in iterative solution of the eigenvalue problem:
     one sub-group per band group will be used
     ELPA distributed-memory algorithm (size of sub-group:  8*  8 procs)

     Found symmetry operation: I + (  0.2500  0.2500  0.0000)
     This is a supercell, fractional translations are disabled
     Message from routine setup:
     using ibrav=0 with symmetry is DISCOURAGED, use correct ibrav instead
 
     Parallelization info
     --------------------
     sticks:   dense  smooth     PW     G-vecs:    dense   smooth      PW
     Min          98      65     17                 6245     3352     475
     Max          99      66     18                 6250     3355     482
     Sum        7113    4693   1281               449779   241457   34425
 


     bravais-lattice index     =            0
     lattice parameter (alat)  =      14.4007  a.u.
     unit-cell volume          =    2986.4454 (a.u.)^3
     number of atoms/cell      =           32
     number of atomic types    =            1
     number of electrons       =       512.00
     number of Kohn-Sham states=          307
     kinetic-energy cutoff     =      71.0000  Ry
     charge density cutoff     =     430.0000  Ry
     scf convergence threshold =      1.0E-06
     mixing beta               =       0.1000
     number of iterations used =           10  plain     mixing
     Exchange-correlation= SLA  PW   PBX  PBC
                           (   1   4   3   4   0   0   0)

     celldm(1)=  14.400742  celldm(2)=   0.000000  celldm(3)=   0.000000
     celldm(4)=   0.000000  celldm(5)=   0.000000  celldm(6)=   0.000000

     crystal axes: (cart. coord. in units of alat)
               a(1) = (   1.000006   0.000000   0.000000 )  
               a(2) = (   0.000000   1.000006   0.004375 )  
               a(3) = (   0.000000   0.004375   1.000006 )  

     reciprocal axes: (cart. coord. in units 2 pi/alat)
               b(1) = (  0.999994  0.000000  0.000000 )  
               b(2) = (  0.000000  1.000013 -0.004375 )  
               b(3) = (  0.000000 -0.004375  1.000013 )  


     PseudoPot. # 1 for Ru read from file:
     /rds/homes/b/bxp912/pp/Ru.pbe-spn-kjpaw_psl.1.0.0.UPF
     MD5 check sum: 0ae1f594dea09af7be8575c3a481d1ae
     Pseudo is Projector augmented-wave + core cor, Zval = 16.0
     Generated using "atomic" code by A. Dal Corso  v.5.1
     Shape of augmentation charge: PSQ
     Using radial grid of 1233 points,  6 beta functions with: 
                l(1) =   0
                l(2) =   0
                l(3) =   1
                l(4) =   1
                l(5) =   2
                l(6) =   2
     Q(r) pseudized with 0 coefficients 


     atomic species   valence    mass     pseudopotential
        Ru            16.00   101.07000     Ru( 1.00)

      8 Sym. Ops., with inversion, found



   Cartesian axes

     site n.     atom                  positions (alat units)
         1           Ru  tau(   1) = (   0.0000000   0.0000000   0.0000000  )
         2           Ru  tau(   2) = (   0.2500016   0.2500016   0.0010938  )
         3           Ru  tau(   3) = (   0.2500016   0.0010938   0.2500011  )
         4           Ru  tau(   4) = (   0.0000000   0.2510953   0.2510948  )
         5           Ru  tau(   5) = (   0.0000000   0.0021875   0.5000032  )
         6           Ru  tau(   6) = (   0.2500005   0.2521881   0.5010969  )
         7           Ru  tau(   7) = (   0.2500016   0.0032813   0.7500043  )
         8           Ru  tau(   8) = (   0.0000000   0.2532829   0.7510980  )
         9           Ru  tau(   9) = (   0.0000000   0.5000034   0.0021875  )
        10           Ru  tau(  10) = (   0.2500016   0.7500052   0.0032813  )
        11           Ru  tau(  11) = (   0.2500005   0.5010972   0.2521875  )
        12           Ru  tau(  12) = (   0.0000000   0.7510990   0.2532823  )
        13           Ru  tau(  13) = (   0.0000000   0.5021909   0.5021907  )
        14           Ru  tau(  14) = (   0.2500005   0.7521938   0.5032845  )
        15           Ru  tau(  15) = (   0.2500005   0.5032847   0.7521928  )
        16           Ru  tau(  16) = (   0.0000000   0.7532865   0.7532855  )
        17           Ru  tau(  17) = (   0.5000034   0.0000000   0.0000000  )
        18           Ru  tau(  18) = (   0.7500052   0.2500016   0.0010938  )
        19           Ru  tau(  19) = (   0.7500052   0.0010938   0.2500011  )
        20           Ru  tau(  20) = (   0.5000034   0.2510943   0.2510938  )
        21           Ru  tau(  21) = (   0.5000034   0.0021875   0.5000032  )
        22           Ru  tau(  22) = (   0.7500063   0.2521881   0.5010969  )
        23           Ru  tau(  23) = (   0.7500052   0.0032813   0.7500043  )
        24           Ru  tau(  24) = (   0.5000034   0.2532818   0.7510991  )
        25           Ru  tau(  25) = (   0.5000034   0.5000034   0.0021875  )
        26           Ru  tau(  26) = (   0.7500052   0.7500052   0.0032813  )
        27           Ru  tau(  27) = (   0.7500063   0.5010972   0.2521875  )
        28           Ru  tau(  28) = (   0.5000034   0.7511000   0.2532813  )
        29           Ru  tau(  29) = (   0.5000034   0.5021909   0.5021907  )
        30           Ru  tau(  30) = (   0.7500063   0.7521938   0.5032845  )
        31           Ru  tau(  31) = (   0.7500063   0.5032847   0.7521928  )
        32           Ru  tau(  32) = (   0.5000034   0.7532875   0.7532866  )

     number of k points=   125  Marzari-Vanderbilt smearing, width (Ry)=  0.0400

     Number of k-points >= 100: set verbosity='high' to print them.

     Dense  grid:   449779 G-vectors     FFT dimensions: (  96,  96,  96)

     Smooth grid:   241457 G-vectors     FFT dimensions: (  80,  80,  80)

     Estimated max dynamical RAM per process >     283.76 MB

     Estimated total dynamical RAM >      19.95 GB

     Check: negative core charge=   -0.000002

     Initial potential from superposition of free atoms

     starting charge  511.97959, renormalised to  512.00000
     Starting wfcs are  320 randomized atomic wfcs
     Checking if some PAW data can be deallocated... 

     total cpu time spent up to now is       47.8 secs

     Self-consistent Calculation

     iteration #  1     ecut=    71.00 Ry     beta= 0.10
     Davidson diagonalization with overlap
     ethr =  1.00E-02,  avg # of iterations =  3.4

     Threshold (ethr) on eigenvalues was too large:
     Diagonalizing with lowered threshold

     Davidson diagonalization with overlap
     ethr =  8.32E-05,  avg # of iterations =  5.8

     total cpu time spent up to now is      360.6 secs

     total energy              =  -13813.41104713 Ry
     estimated scf accuracy    <       0.63824794 Ry

     iteration #  2     ecut=    71.00 Ry     beta= 0.10
     Davidson diagonalization with overlap
     ethr =  1.25E-04,  avg # of iterations =  1.0

     total cpu time spent up to now is      471.0 secs

     total energy              =  -13813.20524199 Ry
     estimated scf accuracy    <       0.39892702 Ry

     iteration #  3     ecut=    71.00 Ry     beta= 0.10
     Davidson diagonalization with overlap
     ethr =  7.79E-05,  avg # of iterations =  2.4

     total cpu time spent up to now is      617.4 secs

     total energy              =  -13813.29742862 Ry
     estimated scf accuracy    <       0.03428258 Ry

     iteration #  4     ecut=    71.00 Ry     beta= 0.10
     Davidson diagonalization with overlap
     c_bands:  1 eigenvalues not converged
     ethr =  6.70E-06,  avg # of iterations =  2.2

     total cpu time spent up to now is      753.4 secs

     total energy              =  -13813.29821728 Ry
     estimated scf accuracy    <       0.00900124 Ry

     iteration #  5     ecut=    71.00 Ry     beta= 0.10
     Davidson diagonalization with overlap
     ethr =  1.76E-06,  avg # of iterations =  1.3

     total cpu time spent up to now is      871.4 secs

     total energy              =  -13813.29939241 Ry
     estimated scf accuracy    <       0.00565489 Ry

     iteration #  6     ecut=    71.00 Ry     beta= 0.10
     Davidson diagonalization with overlap
     ethr =  1.10E-06,  avg # of iterations =  3.8

     total cpu time spent up to now is     1055.3 secs

     total energy              =  -13813.29742127 Ry
     estimated scf accuracy    <       0.01663303 Ry

     iteration #  7     ecut=    71.00 Ry     beta= 0.10
     Davidson diagonalization with overlap
     c_bands:  2 eigenvalues not converged
     ethr =  1.10E-06,  avg # of iterations =  2.7

     total cpu time spent up to now is     1222.3 secs

     total energy              =  -13813.29890594 Ry
     estimated scf accuracy    <       0.00097452 Ry

     iteration #  8     ecut=    71.00 Ry     beta= 0.10
     Davidson diagonalization with overlap
     ethr =  1.90E-07,  avg # of iterations =  2.8

     total cpu time spent up to now is     1364.7 secs

     total energy              =  -13813.29900560 Ry
     estimated scf accuracy    <       0.00014883 Ry

     iteration #  9     ecut=    71.00 Ry     beta= 0.10
     Davidson diagonalization with overlap
     ethr =  2.91E-08,  avg # of iterations =  2.1

     total cpu time spent up to now is     1487.6 secs

     total energy              =  -13813.29899337 Ry
     estimated scf accuracy    <       0.00012024 Ry

     iteration # 10     ecut=    71.00 Ry     beta= 0.10
     Davidson diagonalization with overlap
     ethr =  2.35E-08,  avg # of iterations =  1.0

     total cpu time spent up to now is     1602.8 secs

     total energy              =  -13813.29896962 Ry
     estimated scf accuracy    <       0.00006772 Ry

     iteration # 11     ecut=    71.00 Ry     beta= 0.10
     Davidson diagonalization with overlap
     ethr =  1.32E-08,  avg # of iterations =  2.1

     total cpu time spent up to now is     1747.9 secs

     total energy              =  -13813.29897064 Ry
     estimated scf accuracy    <       0.00000794 Ry

     iteration # 12     ecut=    71.00 Ry     beta= 0.10
     Davidson diagonalization with overlap
     ethr =  1.55E-09,  avg # of iterations =  3.6

     total cpu time spent up to now is     1939.0 secs

     total energy              =  -13813.29897341 Ry
     estimated scf accuracy    <       0.00001241 Ry

     iteration # 13     ecut=    71.00 Ry     beta= 0.10
     Davidson diagonalization with overlap
     ethr =  1.55E-09,  avg # of iterations =  2.4

     total cpu time spent up to now is     2076.5 secs

     End of self-consistent calculation

     Number of k-points >= 100: set verbosity='high' to print the bands.

     the Fermi energy is    23.1144 ev

!    total energy              =  -13813.29897686 Ry

     total all-electron energy =   -289989.689316 Ry
     estimated scf accuracy    <       0.00000021 Ry
     smearing contrib. (-TS)   =       0.02037494 Ry
     internal energy E=F+TS    =  -13813.31935180 Ry

     The total energy is F=E-TS. E is the sum of the following terms:
     one-electron contribution =    -995.63374385 Ry
     hartree contribution      =     916.07248115 Ry
     xc contribution           =    -928.07068277 Ry
     ewald contribution        =   -5216.24423772 Ry
     one-center paw contrib.   =   -7589.44316860 Ry

     convergence has been achieved in  13 iterations

     Forces acting on atoms (cartesian axes, Ry/au):

     atom    1 type  1   force =     0.00000000    0.00000000    0.00000000
     atom    2 type  1   force =    -0.00000395    0.00000990   -0.00000163
     atom    3 type  1   force =    -0.00000395   -0.00000163    0.00000990
     atom    4 type  1   force =     0.00000000   -0.00000127   -0.00000127
     atom    5 type  1   force =     0.00000000    0.00000000    0.00000000
     atom    6 type  1   force =     0.00000773   -0.00000025    0.00000156
     atom    7 type  1   force =    -0.00000395    0.00000163   -0.00000990
     atom    8 type  1   force =     0.00000000   -0.00000322    0.00000322
     atom    9 type  1   force =     0.00000000    0.00000000    0.00000000
     atom   10 type  1   force =    -0.00000395   -0.00000990    0.00000163
     atom   11 type  1   force =     0.00000773    0.00000156   -0.00000025
     atom   12 type  1   force =     0.00000000    0.00000322   -0.00000322
     atom   13 type  1   force =     0.00000000    0.00000000    0.00000000
     atom   14 type  1   force =     0.00000773    0.00000025   -0.00000156
     atom   15 type  1   force =     0.00000773   -0.00000156    0.00000025
     atom   16 type  1   force =     0.00000000    0.00000127    0.00000127
     atom   17 type  1   force =     0.00000000    0.00000000    0.00000000
     atom   18 type  1   force =     0.00000395    0.00000990   -0.00000163
     atom   19 type  1   force =     0.00000395   -0.00000163    0.00000990
     atom   20 type  1   force =     0.00000000    0.00002006    0.00002006
     atom   21 type  1   force =     0.00000000    0.00000000    0.00000000
     atom   22 type  1   force =    -0.00000773   -0.00000025    0.00000156
     atom   23 type  1   force =     0.00000395    0.00000163   -0.00000990
     atom   24 type  1   force =    -0.00000000    0.00000757   -0.00000757
     atom   25 type  1   force =     0.00000000    0.00000000    0.00000000
     atom   26 type  1   force =     0.00000395   -0.00000990    0.00000163
     atom   27 type  1   force =    -0.00000773    0.00000156   -0.00000025
     atom   28 type  1   force =    -0.00000000   -0.00000757    0.00000757
     atom   29 type  1   force =     0.00000000    0.00000000    0.00000000
     atom   30 type  1   force =    -0.00000773    0.00000025   -0.00000156
     atom   31 type  1   force =    -0.00000773   -0.00000156    0.00000025
     atom   32 type  1   force =     0.00000000   -0.00002006   -0.00002006

     Total force =     0.000058     Total SCF correction =     0.000625
     SCF correction compared to forces is large: reduce conv_thr to get better values


     Computing stress (Cartesian axis) and pressure

          total   stress  (Ry/bohr**3)                   (kbar)     P=       -3.34
  -0.00002408   0.00000000   0.00000000           -3.54        0.00        0.00
   0.00000000  -0.00002207  -0.00014493            0.00       -3.25      -21.32
   0.00000000  -0.00014493  -0.00002207            0.00      -21.32       -3.25


     Writing output data file /scratch/xsfziVGXYaCbalyV.save/
 
     init_run     :     43.74s CPU     45.13s WALL (       1 calls)
     electrons    :   1993.21s CPU   2028.68s WALL (       1 calls)
     forces       :     18.70s CPU     18.96s WALL (       1 calls)
     stress       :    112.86s CPU    113.76s WALL (       1 calls)

     Called by init_run:
     wfcinit      :     42.84s CPU     44.17s WALL (       1 calls)
     potinit      :      0.23s CPU      0.25s WALL (       1 calls)
     hinit0       :      0.21s CPU      0.21s WALL (       1 calls)

     Called by electrons:
     c_bands      :   1782.69s CPU   1813.86s WALL (      14 calls)
     sum_band     :    208.15s CPU    212.16s WALL (      14 calls)
     v_of_rho     :      0.21s CPU      0.23s WALL (      14 calls)
     newd         :      0.34s CPU      0.50s WALL (      14 calls)
     PAW_pot      :      1.36s CPU      1.45s WALL (      14 calls)
     mix_rho      :      0.28s CPU      0.30s WALL (      14 calls)

     Called by c_bands:
     init_us_2    :      8.66s CPU      8.83s WALL (    3875 calls)
     cegterg      :   1754.80s CPU   1784.94s WALL (    1750 calls)

     Called by *egterg:
     cdiaghg      :    218.30s CPU    221.31s WALL (    6208 calls)
     h_psi        :    943.07s CPU    961.96s WALL (    6458 calls)
     s_psi        :     62.44s CPU     62.96s WALL (    6458 calls)
     g_psi        :      1.56s CPU      1.58s WALL (    4583 calls)

     Called by h_psi:
     h_psi:calbec :    122.34s CPU    123.31s WALL (    6458 calls)
     vloc_psi     :    756.49s CPU    773.19s WALL (    6458 calls)
     add_vuspsi   :     60.18s CPU     61.35s WALL (    6458 calls)

     General routines
     calbec       :    192.55s CPU    194.13s WALL (    8833 calls)
     fft          :      1.08s CPU      1.10s WALL (     206 calls)
     ffts         :      0.04s CPU      0.05s WALL (      28 calls)
     fftw         :    879.35s CPU    898.39s WALL ( 3182982 calls)
     interpolate  :      0.20s CPU      0.20s WALL (      14 calls)
 
     Parallel routines
     fft_scatt_xy :     55.54s CPU     56.46s WALL ( 3183216 calls)
     fft_scatt_yz :    729.69s CPU    746.31s WALL ( 3183216 calls)
 
     PWSCF        :  36m40.97s CPU  37m25.10s WALL

 
   This run was terminated on:   2:23:22  24Nov2021            

=------------------------------------------------------------------------------=
   JOB DONE.
=------------------------------------------------------------------------------=
