
     Program PWSCF v.6.7MaX starts on 23Nov2021 at 23:13:13 

     This program is part of the open-source Quantum ESPRESSO suite
     for quantum simulation of materials; please cite
         "P. Giannozzi et al., J. Phys.:Condens. Matter 21 395502 (2009);
         "P. Giannozzi et al., J. Phys.:Condens. Matter 29 465901 (2017);
          URL http://www.quantum-espresso.org", 
     in publications or presentations arising from this work. More details at
     http://www.quantum-espresso.org/quote

     Parallel version (MPI & OpenMP), running on      72 processor cores
     Number of MPI processes:                72
     Threads/MPI process:                     1

     MPI processes distributed on     1 nodes
     R & G space division:  proc/nbgrp/npool/nimage =      72
     Reading input from /rds/homes/b/bxp912/jobs/20211014_ru_eos/wd/ec/ec_4_004.in
Warning: card &CELL ignored
Warning: card CELL_DYNAMICS = 'BFGS', ignored
Warning: card CELL_FACTOR = 2.0, ignored
Warning: card PRESS = 0.0, ignored
Warning: card / ignored

     Current dimensions of program PWSCF are:
     Max number of different atomic species (ntypx) = 10
     Max number of k-points (npk) =  40000
     Max angular momentum in pseudopotentials (lmaxx) =  3
     file Ru.pbe-spn-kjpaw_psl.1.0.0.UPF: wavefunction(s)  4D renormalized

     Subspace diagonalization in iterative solution of the eigenvalue problem:
     one sub-group per band group will be used
     ELPA distributed-memory algorithm (size of sub-group:  8*  8 procs)

     Found symmetry operation: I + (  0.2500  0.2500  0.0000)
     This is a supercell, fractional translations are disabled
     Message from routine setup:
     using ibrav=0 with symmetry is DISCOURAGED, use correct ibrav instead
 
     Parallelization info
     --------------------
     sticks:   dense  smooth     PW     G-vecs:    dense   smooth      PW
     Min          98      65     17                 6246     3352     475
     Max          99      66     18                 6250     3355     482
     Sum        7113    4693   1281               449887   241413   34437
 


     bravais-lattice index     =            0
     lattice parameter (alat)  =      14.4007  a.u.
     unit-cell volume          =    2986.4454 (a.u.)^3
     number of atoms/cell      =           32
     number of atomic types    =            1
     number of electrons       =       512.00
     number of Kohn-Sham states=          307
     kinetic-energy cutoff     =      71.0000  Ry
     charge density cutoff     =     430.0000  Ry
     scf convergence threshold =      1.0E-06
     mixing beta               =       0.1000
     number of iterations used =           10  plain     mixing
     Exchange-correlation= SLA  PW   PBX  PBC
                           (   1   4   3   4   0   0   0)

     celldm(1)=  14.400742  celldm(2)=   0.000000  celldm(3)=   0.000000
     celldm(4)=   0.000000  celldm(5)=   0.000000  celldm(6)=   0.000000

     crystal axes: (cart. coord. in units of alat)
               a(1) = (   1.000001   0.000000   0.000000 )  
               a(2) = (   0.000000   1.000001   0.001875 )  
               a(3) = (   0.000000   0.001875   1.000001 )  

     reciprocal axes: (cart. coord. in units 2 pi/alat)
               b(1) = (  0.999999  0.000000  0.000000 )  
               b(2) = (  0.000000  1.000002 -0.001875 )  
               b(3) = (  0.000000 -0.001875  1.000002 )  


     PseudoPot. # 1 for Ru read from file:
     /rds/homes/b/bxp912/pp/Ru.pbe-spn-kjpaw_psl.1.0.0.UPF
     MD5 check sum: 0ae1f594dea09af7be8575c3a481d1ae
     Pseudo is Projector augmented-wave + core cor, Zval = 16.0
     Generated using "atomic" code by A. Dal Corso  v.5.1
     Shape of augmentation charge: PSQ
     Using radial grid of 1233 points,  6 beta functions with: 
                l(1) =   0
                l(2) =   0
                l(3) =   1
                l(4) =   1
                l(5) =   2
                l(6) =   2
     Q(r) pseudized with 0 coefficients 


     atomic species   valence    mass     pseudopotential
        Ru            16.00   101.07000     Ru( 1.00)

      8 Sym. Ops., with inversion, found



   Cartesian axes

     site n.     atom                  positions (alat units)
         1           Ru  tau(   1) = (   0.0000000   0.0000000   0.0000000  )
         2           Ru  tau(   2) = (   0.2500003   0.2500003   0.0004688  )
         3           Ru  tau(   3) = (   0.2500003   0.0004687   0.2499998  )
         4           Ru  tau(   4) = (   0.0000000   0.2504690   0.2504685  )
         5           Ru  tau(   5) = (   0.0000000   0.0009375   0.5000006  )
         6           Ru  tau(   6) = (   0.2499992   0.2509367   0.5004693  )
         7           Ru  tau(   7) = (   0.2500003   0.0014063   0.7500004  )
         8           Ru  tau(   8) = (   0.0000000   0.2514065   0.7504691  )
         9           Ru  tau(   9) = (   0.0000000   0.5000008   0.0009375  )
        10           Ru  tau(  10) = (   0.2500003   0.7500013   0.0014063  )
        11           Ru  tau(  11) = (   0.2499992   0.5004695   0.2509362  )
        12           Ru  tau(  12) = (   0.0000000   0.7504700   0.2514060  )
        13           Ru  tau(  13) = (   0.0000000   0.5009383   0.5009381  )
        14           Ru  tau(  14) = (   0.2499992   0.7509398   0.5014068  )
        15           Ru  tau(  15) = (   0.2499992   0.5014070   0.7509389  )
        16           Ru  tau(  16) = (   0.0000000   0.7514075   0.7514066  )
        17           Ru  tau(  17) = (   0.5000008   0.0000000   0.0000000  )
        18           Ru  tau(  18) = (   0.7500013   0.2500003   0.0004688  )
        19           Ru  tau(  19) = (   0.7500013   0.0004687   0.2499998  )
        20           Ru  tau(  20) = (   0.5000008   0.2504680   0.2504675  )
        21           Ru  tau(  21) = (   0.5000008   0.0009375   0.5000006  )
        22           Ru  tau(  22) = (   0.7500023   0.2509367   0.5004693  )
        23           Ru  tau(  23) = (   0.7500013   0.0014063   0.7500004  )
        24           Ru  tau(  24) = (   0.5000008   0.2514055   0.7504702  )
        25           Ru  tau(  25) = (   0.5000008   0.5000008   0.0009375  )
        26           Ru  tau(  26) = (   0.7500013   0.7500013   0.0014063  )
        27           Ru  tau(  27) = (   0.7500023   0.5004695   0.2509362  )
        28           Ru  tau(  28) = (   0.5000008   0.7504711   0.2514050  )
        29           Ru  tau(  29) = (   0.5000008   0.5009383   0.5009381  )
        30           Ru  tau(  30) = (   0.7500023   0.7509398   0.5014068  )
        31           Ru  tau(  31) = (   0.7500023   0.5014070   0.7509389  )
        32           Ru  tau(  32) = (   0.5000008   0.7514086   0.7514077  )

     number of k points=   125  Marzari-Vanderbilt smearing, width (Ry)=  0.0400

     Number of k-points >= 100: set verbosity='high' to print them.

     Dense  grid:   449887 G-vectors     FFT dimensions: (  96,  96,  96)

     Smooth grid:   241413 G-vectors     FFT dimensions: (  80,  80,  80)

     Estimated max dynamical RAM per process >     283.76 MB

     Estimated total dynamical RAM >      19.95 GB

     Check: negative core charge=   -0.000002

     Initial potential from superposition of free atoms

     starting charge  511.97959, renormalised to  512.00000
     Starting wfcs are  320 randomized atomic wfcs
     Checking if some PAW data can be deallocated... 

     total cpu time spent up to now is       46.5 secs

     Self-consistent Calculation

     iteration #  1     ecut=    71.00 Ry     beta= 0.10
     Davidson diagonalization with overlap
     ethr =  1.00E-02,  avg # of iterations =  3.4

     Threshold (ethr) on eigenvalues was too large:
     Diagonalizing with lowered threshold

     Davidson diagonalization with overlap
     ethr =  8.33E-05,  avg # of iterations =  5.7

     total cpu time spent up to now is      378.1 secs

     total energy              =  -13813.41263849 Ry
     estimated scf accuracy    <       0.63834784 Ry

     iteration #  2     ecut=    71.00 Ry     beta= 0.10
     Davidson diagonalization with overlap
     ethr =  1.25E-04,  avg # of iterations =  1.0

     total cpu time spent up to now is      496.4 secs

     total energy              =  -13813.20674700 Ry
     estimated scf accuracy    <       0.39902603 Ry

     iteration #  3     ecut=    71.00 Ry     beta= 0.10
     Davidson diagonalization with overlap
     ethr =  7.79E-05,  avg # of iterations =  2.2

     total cpu time spent up to now is      642.2 secs

     total energy              =  -13813.29898773 Ry
     estimated scf accuracy    <       0.03431664 Ry

     iteration #  4     ecut=    71.00 Ry     beta= 0.10
     Davidson diagonalization with overlap
     c_bands:  1 eigenvalues not converged
     ethr =  6.70E-06,  avg # of iterations =  2.6

     total cpu time spent up to now is      780.4 secs

     total energy              =  -13813.29977621 Ry
     estimated scf accuracy    <       0.00900045 Ry

     iteration #  5     ecut=    71.00 Ry     beta= 0.10
     Davidson diagonalization with overlap
     ethr =  1.76E-06,  avg # of iterations =  1.5

     total cpu time spent up to now is      888.9 secs

     total energy              =  -13813.30092912 Ry
     estimated scf accuracy    <       0.00564840 Ry

     iteration #  6     ecut=    71.00 Ry     beta= 0.10
     Davidson diagonalization with overlap
     ethr =  1.10E-06,  avg # of iterations =  3.8

     total cpu time spent up to now is     1064.5 secs

     total energy              =  -13813.29905732 Ry
     estimated scf accuracy    <       0.01649388 Ry

     iteration #  7     ecut=    71.00 Ry     beta= 0.10
     Davidson diagonalization with overlap
     ethr =  1.10E-06,  avg # of iterations =  2.7

     total cpu time spent up to now is     1226.1 secs

     total energy              =  -13813.30046371 Ry
     estimated scf accuracy    <       0.00101637 Ry

     iteration #  8     ecut=    71.00 Ry     beta= 0.10
     Davidson diagonalization with overlap
     ethr =  1.99E-07,  avg # of iterations =  2.7

     total cpu time spent up to now is     1373.6 secs

     total energy              =  -13813.30056992 Ry
     estimated scf accuracy    <       0.00014988 Ry

     iteration #  9     ecut=    71.00 Ry     beta= 0.10
     Davidson diagonalization with overlap
     ethr =  2.93E-08,  avg # of iterations =  2.1

     total cpu time spent up to now is     1500.0 secs

     total energy              =  -13813.30055614 Ry
     estimated scf accuracy    <       0.00012358 Ry

     iteration # 10     ecut=    71.00 Ry     beta= 0.10
     Davidson diagonalization with overlap
     ethr =  2.41E-08,  avg # of iterations =  1.0

     total cpu time spent up to now is     1611.6 secs

     total energy              =  -13813.30053063 Ry
     estimated scf accuracy    <       0.00006835 Ry

     iteration # 11     ecut=    71.00 Ry     beta= 0.10
     Davidson diagonalization with overlap
     ethr =  1.34E-08,  avg # of iterations =  2.2

     total cpu time spent up to now is     1762.1 secs

     total energy              =  -13813.30053412 Ry
     estimated scf accuracy    <       0.00000619 Ry

     iteration # 12     ecut=    71.00 Ry     beta= 0.10
     Davidson diagonalization with overlap
     ethr =  1.21E-09,  avg # of iterations =  3.6

     total cpu time spent up to now is     1947.6 secs

     total energy              =  -13813.30053587 Ry
     estimated scf accuracy    <       0.00001254 Ry

     iteration # 13     ecut=    71.00 Ry     beta= 0.10
     Davidson diagonalization with overlap
     ethr =  1.21E-09,  avg # of iterations =  2.7

     total cpu time spent up to now is     2116.1 secs

     End of self-consistent calculation

     Number of k-points >= 100: set verbosity='high' to print the bands.

     the Fermi energy is    23.1143 ev

!    total energy              =  -13813.30053949 Ry

     total all-electron energy =   -289989.690879 Ry
     estimated scf accuracy    <       0.00000016 Ry
     smearing contrib. (-TS)   =       0.02042195 Ry
     internal energy E=F+TS    =  -13813.32096144 Ry

     The total energy is F=E-TS. E is the sum of the following terms:
     one-electron contribution =    -995.56868535 Ry
     hartree contribution      =     916.03748044 Ry
     xc contribution           =    -928.06880388 Ry
     ewald contribution        =   -5216.27795688 Ry
     one-center paw contrib.   =   -7589.44299576 Ry

     convergence has been achieved in  13 iterations

     Forces acting on atoms (cartesian axes, Ry/au):

     atom    1 type  1   force =     0.00000000    0.00000000    0.00000000
     atom    2 type  1   force =    -0.00002908   -0.00000170    0.00001654
     atom    3 type  1   force =    -0.00002908    0.00001654   -0.00000170
     atom    4 type  1   force =     0.00000000   -0.00000461   -0.00000461
     atom    5 type  1   force =     0.00000000    0.00000000    0.00000000
     atom    6 type  1   force =     0.00000242    0.00002496   -0.00001681
     atom    7 type  1   force =    -0.00002908   -0.00001654    0.00000170
     atom    8 type  1   force =    -0.00000000   -0.00000670    0.00000670
     atom    9 type  1   force =     0.00000000    0.00000000    0.00000000
     atom   10 type  1   force =    -0.00002908    0.00000170   -0.00001654
     atom   11 type  1   force =     0.00000242   -0.00001681    0.00002496
     atom   12 type  1   force =    -0.00000000    0.00000670   -0.00000670
     atom   13 type  1   force =     0.00000000    0.00000000    0.00000000
     atom   14 type  1   force =     0.00000242   -0.00002496    0.00001681
     atom   15 type  1   force =     0.00000242    0.00001681   -0.00002496
     atom   16 type  1   force =     0.00000000    0.00000461    0.00000461
     atom   17 type  1   force =     0.00000000    0.00000000    0.00000000
     atom   18 type  1   force =     0.00002908   -0.00000170    0.00001654
     atom   19 type  1   force =     0.00002908    0.00001654   -0.00000170
     atom   20 type  1   force =     0.00000000    0.00003980    0.00003980
     atom   21 type  1   force =     0.00000000    0.00000000    0.00000000
     atom   22 type  1   force =    -0.00000242    0.00002496   -0.00001681
     atom   23 type  1   force =     0.00002908   -0.00001654    0.00000170
     atom   24 type  1   force =     0.00000000    0.00002258   -0.00002258
     atom   25 type  1   force =     0.00000000    0.00000000    0.00000000
     atom   26 type  1   force =     0.00002908    0.00000170   -0.00001654
     atom   27 type  1   force =    -0.00000242   -0.00001681    0.00002496
     atom   28 type  1   force =     0.00000000   -0.00002258    0.00002258
     atom   29 type  1   force =     0.00000000    0.00000000    0.00000000
     atom   30 type  1   force =    -0.00000242   -0.00002496    0.00001681
     atom   31 type  1   force =    -0.00000242    0.00001681   -0.00002496
     atom   32 type  1   force =     0.00000000   -0.00003980   -0.00003980

     Total force =     0.000158     Total SCF correction =     0.000326
     SCF correction compared to forces is large: reduce conv_thr to get better values


     Computing stress (Cartesian axis) and pressure

          total   stress  (Ry/bohr**3)                   (kbar)     P=       -3.63
  -0.00002493   0.00000000   0.00000000           -3.67        0.00        0.00
   0.00000000  -0.00002452  -0.00006201            0.00       -3.61       -9.12
   0.00000000  -0.00006201  -0.00002452            0.00       -9.12       -3.61


     Writing output data file /scratch/GyeWTnOvsfficwim.save/
 
     init_run     :     43.09s CPU     43.84s WALL (       1 calls)
     electrons    :   2032.31s CPU   2069.70s WALL (       1 calls)
     forces       :     18.77s CPU     18.91s WALL (       1 calls)
     stress       :    112.14s CPU    113.12s WALL (       1 calls)

     Called by init_run:
     wfcinit      :     42.20s CPU     42.90s WALL (       1 calls)
     potinit      :      0.23s CPU      0.24s WALL (       1 calls)
     hinit0       :      0.29s CPU      0.30s WALL (       1 calls)

     Called by electrons:
     c_bands      :   1813.92s CPU   1847.12s WALL (      14 calls)
     sum_band     :    215.38s CPU    219.30s WALL (      14 calls)
     v_of_rho     :      1.14s CPU      1.17s WALL (      14 calls)
     newd         :      0.54s CPU      0.67s WALL (      14 calls)
     PAW_pot      :      1.30s CPU      1.38s WALL (      14 calls)
     mix_rho      :      0.05s CPU      0.08s WALL (      14 calls)

     Called by c_bands:
     init_us_2    :      7.02s CPU      7.17s WALL (    3875 calls)
     cegterg      :   1786.05s CPU   1818.25s WALL (    1750 calls)

     Called by *egterg:
     cdiaghg      :    233.41s CPU    236.56s WALL (    6277 calls)
     h_psi        :    941.88s CPU    962.22s WALL (    6527 calls)
     s_psi        :     63.60s CPU     64.16s WALL (    6527 calls)
     g_psi        :      1.66s CPU      1.68s WALL (    4652 calls)

     Called by h_psi:
     h_psi:calbec :    124.60s CPU    126.05s WALL (    6527 calls)
     vloc_psi     :    751.92s CPU    769.54s WALL (    6527 calls)
     add_vuspsi   :     61.44s CPU     62.65s WALL (    6527 calls)

     General routines
     calbec       :    192.92s CPU    194.83s WALL (    8902 calls)
     fft          :      1.21s CPU      1.25s WALL (     206 calls)
     ffts         :      0.02s CPU      0.02s WALL (      28 calls)
     fftw         :    881.02s CPU    900.92s WALL ( 3204432 calls)
     interpolate  :      0.03s CPU      0.03s WALL (      14 calls)
 
     Parallel routines
     fft_scatt_xy :     55.80s CPU     56.77s WALL ( 3204666 calls)
     fft_scatt_yz :    730.95s CPU    748.47s WALL ( 3204666 calls)
 
     PWSCF        :  37m19.13s CPU  38m 4.09s WALL

 
   This run was terminated on:  23:51:17  23Nov2021            

=------------------------------------------------------------------------------=
   JOB DONE.
=------------------------------------------------------------------------------=
