
     Program PWSCF v.6.7MaX starts on 23Nov2021 at 23:51:47 

     This program is part of the open-source Quantum ESPRESSO suite
     for quantum simulation of materials; please cite
         "P. Giannozzi et al., J. Phys.:Condens. Matter 21 395502 (2009);
         "P. Giannozzi et al., J. Phys.:Condens. Matter 29 465901 (2017);
          URL http://www.quantum-espresso.org", 
     in publications or presentations arising from this work. More details at
     http://www.quantum-espresso.org/quote

     Parallel version (MPI & OpenMP), running on      72 processor cores
     Number of MPI processes:                72
     Threads/MPI process:                     1

     MPI processes distributed on     1 nodes
     R & G space division:  proc/nbgrp/npool/nimage =      72
     Reading input from /rds/homes/b/bxp912/jobs/20211014_ru_eos/wd/ec/ec_4_005.in
Warning: card &CELL ignored
Warning: card CELL_DYNAMICS = 'BFGS', ignored
Warning: card CELL_FACTOR = 2.0, ignored
Warning: card PRESS = 0.0, ignored
Warning: card / ignored

     Current dimensions of program PWSCF are:
     Max number of different atomic species (ntypx) = 10
     Max number of k-points (npk) =  40000
     Max angular momentum in pseudopotentials (lmaxx) =  3
     file Ru.pbe-spn-kjpaw_psl.1.0.0.UPF: wavefunction(s)  4D renormalized

     Subspace diagonalization in iterative solution of the eigenvalue problem:
     one sub-group per band group will be used
     ELPA distributed-memory algorithm (size of sub-group:  8*  8 procs)

     Found symmetry operation: I + (  0.2500  0.2500 -0.0000)
     This is a supercell, fractional translations are disabled
     Message from routine setup:
     using ibrav=0 with symmetry is DISCOURAGED, use correct ibrav instead
 
     Parallelization info
     --------------------
     sticks:   dense  smooth     PW     G-vecs:    dense   smooth      PW
     Min          98      65     17                 6246     3352     475
     Max          99      67     18                 6251     3356     482
     Sum        7113    4693   1281               449887   241473   34429
 


     bravais-lattice index     =            0
     lattice parameter (alat)  =      14.4007  a.u.
     unit-cell volume          =    2986.4454 (a.u.)^3
     number of atoms/cell      =           32
     number of atomic types    =            1
     number of electrons       =       512.00
     number of Kohn-Sham states=          307
     kinetic-energy cutoff     =      71.0000  Ry
     charge density cutoff     =     430.0000  Ry
     scf convergence threshold =      1.0E-06
     mixing beta               =       0.1000
     number of iterations used =           10  plain     mixing
     Exchange-correlation= SLA  PW   PBX  PBC
                           (   1   4   3   4   0   0   0)

     celldm(1)=  14.400742  celldm(2)=   0.000000  celldm(3)=   0.000000
     celldm(4)=   0.000000  celldm(5)=   0.000000  celldm(6)=   0.000000

     crystal axes: (cart. coord. in units of alat)
               a(1) = (   1.000002   0.000000   0.000000 )  
               a(2) = (   0.000000   1.000002   0.002500 )  
               a(3) = (   0.000000   0.002500   1.000002 )  

     reciprocal axes: (cart. coord. in units 2 pi/alat)
               b(1) = (  0.999998  0.000000  0.000000 )  
               b(2) = (  0.000000  1.000004 -0.002500 )  
               b(3) = (  0.000000 -0.002500  1.000004 )  


     PseudoPot. # 1 for Ru read from file:
     /rds/homes/b/bxp912/pp/Ru.pbe-spn-kjpaw_psl.1.0.0.UPF
     MD5 check sum: 0ae1f594dea09af7be8575c3a481d1ae
     Pseudo is Projector augmented-wave + core cor, Zval = 16.0
     Generated using "atomic" code by A. Dal Corso  v.5.1
     Shape of augmentation charge: PSQ
     Using radial grid of 1233 points,  6 beta functions with: 
                l(1) =   0
                l(2) =   0
                l(3) =   1
                l(4) =   1
                l(5) =   2
                l(6) =   2
     Q(r) pseudized with 0 coefficients 


     atomic species   valence    mass     pseudopotential
        Ru            16.00   101.07000     Ru( 1.00)

      8 Sym. Ops., with inversion, found



   Cartesian axes

     site n.     atom                  positions (alat units)
         1           Ru  tau(   1) = (   0.0000000   0.0000000   0.0000000  )
         2           Ru  tau(   2) = (   0.2500005   0.2500005   0.0006250  )
         3           Ru  tau(   3) = (   0.2500005   0.0006250   0.2500000  )
         4           Ru  tau(   4) = (   0.0000000   0.2506255   0.2506250  )
         5           Ru  tau(   5) = (   0.0000000   0.0012500   0.5000010  )
         6           Ru  tau(   6) = (   0.2499995   0.2512495   0.5006260  )
         7           Ru  tau(   7) = (   0.2500005   0.0018750   0.7500010  )
         8           Ru  tau(   8) = (   0.0000000   0.2518755   0.7506260  )
         9           Ru  tau(   9) = (   0.0000000   0.5000013   0.0012500  )
        10           Ru  tau(  10) = (   0.2500005   0.7500020   0.0018750  )
        11           Ru  tau(  11) = (   0.2499995   0.5006262   0.2512489  )
        12           Ru  tau(  12) = (   0.0000000   0.7506270   0.2518750  )
        13           Ru  tau(  13) = (   0.0000000   0.5012513   0.5012510  )
        14           Ru  tau(  14) = (   0.2499995   0.7512530   0.5018760  )
        15           Ru  tau(  15) = (   0.2499995   0.5018763   0.7512521  )
        16           Ru  tau(  16) = (   0.0000000   0.7518770   0.7518760  )
        17           Ru  tau(  17) = (   0.5000013   0.0000000   0.0000000  )
        18           Ru  tau(  18) = (   0.7500020   0.2500005   0.0006250  )
        19           Ru  tau(  19) = (   0.7500020   0.0006250   0.2500000  )
        20           Ru  tau(  20) = (   0.5000013   0.2506245   0.2506239  )
        21           Ru  tau(  21) = (   0.5000013   0.0012500   0.5000010  )
        22           Ru  tau(  22) = (   0.7500030   0.2512495   0.5006260  )
        23           Ru  tau(  23) = (   0.7500020   0.0018750   0.7500010  )
        24           Ru  tau(  24) = (   0.5000013   0.2518745   0.7506271  )
        25           Ru  tau(  25) = (   0.5000013   0.5000013   0.0012500  )
        26           Ru  tau(  26) = (   0.7500020   0.7500020   0.0018750  )
        27           Ru  tau(  27) = (   0.7500030   0.5006262   0.2512489  )
        28           Ru  tau(  28) = (   0.5000013   0.7506280   0.2518740  )
        29           Ru  tau(  29) = (   0.5000013   0.5012513   0.5012510  )
        30           Ru  tau(  30) = (   0.7500030   0.7512530   0.5018760  )
        31           Ru  tau(  31) = (   0.7500030   0.5018763   0.7512521  )
        32           Ru  tau(  32) = (   0.5000013   0.7518780   0.7518771  )

     number of k points=   125  Marzari-Vanderbilt smearing, width (Ry)=  0.0400

     Number of k-points >= 100: set verbosity='high' to print them.

     Dense  grid:   449887 G-vectors     FFT dimensions: (  96,  96,  96)

     Smooth grid:   241473 G-vectors     FFT dimensions: (  80,  80,  80)

     Estimated max dynamical RAM per process >     283.75 MB

     Estimated total dynamical RAM >      19.95 GB

     Check: negative core charge=   -0.000002

     Initial potential from superposition of free atoms

     starting charge  511.97959, renormalised to  512.00000
     Starting wfcs are  320 randomized atomic wfcs
     Checking if some PAW data can be deallocated... 

     total cpu time spent up to now is       51.8 secs

     Self-consistent Calculation

     iteration #  1     ecut=    71.00 Ry     beta= 0.10
     Davidson diagonalization with overlap
     ethr =  1.00E-02,  avg # of iterations =  3.4

     Threshold (ethr) on eigenvalues was too large:
     Diagonalizing with lowered threshold

     Davidson diagonalization with overlap
     ethr =  8.31E-05,  avg # of iterations =  5.7

     total cpu time spent up to now is      351.3 secs

     total energy              =  -13813.41235155 Ry
     estimated scf accuracy    <       0.63847160 Ry

     iteration #  2     ecut=    71.00 Ry     beta= 0.10
     Davidson diagonalization with overlap
     ethr =  1.25E-04,  avg # of iterations =  1.0

     total cpu time spent up to now is      463.4 secs

     total energy              =  -13813.20649592 Ry
     estimated scf accuracy    <       0.39903594 Ry

     iteration #  3     ecut=    71.00 Ry     beta= 0.10
     Davidson diagonalization with overlap
     ethr =  7.79E-05,  avg # of iterations =  2.3

     total cpu time spent up to now is      614.7 secs

     total energy              =  -13813.29871081 Ry
     estimated scf accuracy    <       0.03426363 Ry

     iteration #  4     ecut=    71.00 Ry     beta= 0.10
     Davidson diagonalization with overlap
     c_bands:  1 eigenvalues not converged
     ethr =  6.69E-06,  avg # of iterations =  2.4

     total cpu time spent up to now is      738.0 secs

     total energy              =  -13813.29950190 Ry
     estimated scf accuracy    <       0.00899164 Ry

     iteration #  5     ecut=    71.00 Ry     beta= 0.10
     Davidson diagonalization with overlap
     ethr =  1.76E-06,  avg # of iterations =  1.6

     total cpu time spent up to now is      847.8 secs

     total energy              =  -13813.30065642 Ry
     estimated scf accuracy    <       0.00564761 Ry

     iteration #  6     ecut=    71.00 Ry     beta= 0.10
     Davidson diagonalization with overlap
     ethr =  1.10E-06,  avg # of iterations =  4.0

     total cpu time spent up to now is     1028.8 secs

     total energy              =  -13813.29877068 Ry
     estimated scf accuracy    <       0.01645102 Ry

     iteration #  7     ecut=    71.00 Ry     beta= 0.10
     Davidson diagonalization with overlap
     ethr =  1.10E-06,  avg # of iterations =  2.6

     total cpu time spent up to now is     1191.5 secs

     total energy              =  -13813.30019221 Ry
     estimated scf accuracy    <       0.00100034 Ry

     iteration #  8     ecut=    71.00 Ry     beta= 0.10
     Davidson diagonalization with overlap
     ethr =  1.95E-07,  avg # of iterations =  2.7

     total cpu time spent up to now is     1334.2 secs

     total energy              =  -13813.30029379 Ry
     estimated scf accuracy    <       0.00015126 Ry

     iteration #  9     ecut=    71.00 Ry     beta= 0.10
     Davidson diagonalization with overlap
     ethr =  2.95E-08,  avg # of iterations =  2.1

     total cpu time spent up to now is     1457.2 secs

     total energy              =  -13813.30027791 Ry
     estimated scf accuracy    <       0.00012086 Ry

     iteration # 10     ecut=    71.00 Ry     beta= 0.10
     Davidson diagonalization with overlap
     ethr =  2.36E-08,  avg # of iterations =  1.0

     total cpu time spent up to now is     1564.9 secs

     total energy              =  -13813.30025701 Ry
     estimated scf accuracy    <       0.00006050 Ry

     iteration # 11     ecut=    71.00 Ry     beta= 0.10
     Davidson diagonalization with overlap
     ethr =  1.18E-08,  avg # of iterations =  2.2

     total cpu time spent up to now is     1707.5 secs

     total energy              =  -13813.30025924 Ry
     estimated scf accuracy    <       0.00000627 Ry

     iteration # 12     ecut=    71.00 Ry     beta= 0.10
     Davidson diagonalization with overlap
     ethr =  1.23E-09,  avg # of iterations =  3.5

     total cpu time spent up to now is     1893.7 secs

     total energy              =  -13813.30026153 Ry
     estimated scf accuracy    <       0.00000931 Ry

     iteration # 13     ecut=    71.00 Ry     beta= 0.10
     Davidson diagonalization with overlap
     ethr =  1.23E-09,  avg # of iterations =  2.4

     total cpu time spent up to now is     2043.5 secs

     End of self-consistent calculation

     Number of k-points >= 100: set verbosity='high' to print the bands.

     the Fermi energy is    23.1143 ev

!    total energy              =  -13813.30026457 Ry

     total all-electron energy =   -289989.690604 Ry
     estimated scf accuracy    <       0.00000014 Ry
     smearing contrib. (-TS)   =       0.02041370 Ry
     internal energy E=F+TS    =  -13813.32067827 Ry

     The total energy is F=E-TS. E is the sum of the following terms:
     one-electron contribution =    -995.57838050 Ry
     hartree contribution      =     916.04146422 Ry
     xc contribution           =    -928.06872851 Ry
     ewald contribution        =   -5216.27205630 Ry
     one-center paw contrib.   =   -7589.44297719 Ry

     convergence has been achieved in  13 iterations

     Forces acting on atoms (cartesian axes, Ry/au):

     atom    1 type  1   force =     0.00000000    0.00000000    0.00000000
     atom    2 type  1   force =    -0.00002575    0.00000120    0.00001307
     atom    3 type  1   force =    -0.00002575    0.00001307    0.00000120
     atom    4 type  1   force =     0.00000000   -0.00000398   -0.00000398
     atom    5 type  1   force =     0.00000000    0.00000000    0.00000000
     atom    6 type  1   force =     0.00000277    0.00002030   -0.00001342
     atom    7 type  1   force =    -0.00002575   -0.00001307   -0.00000120
     atom    8 type  1   force =     0.00000000   -0.00000573    0.00000573
     atom    9 type  1   force =     0.00000000    0.00000000    0.00000000
     atom   10 type  1   force =    -0.00002575   -0.00000120   -0.00001307
     atom   11 type  1   force =     0.00000277   -0.00001342    0.00002030
     atom   12 type  1   force =     0.00000000    0.00000573   -0.00000573
     atom   13 type  1   force =     0.00000000    0.00000000    0.00000000
     atom   14 type  1   force =     0.00000277   -0.00002030    0.00001342
     atom   15 type  1   force =     0.00000277    0.00001342   -0.00002030
     atom   16 type  1   force =     0.00000000    0.00000398    0.00000398
     atom   17 type  1   force =     0.00000000    0.00000000    0.00000000
     atom   18 type  1   force =     0.00002575    0.00000120    0.00001307
     atom   19 type  1   force =     0.00002575    0.00001307    0.00000120
     atom   20 type  1   force =     0.00000000    0.00003714    0.00003714
     atom   21 type  1   force =     0.00000000    0.00000000    0.00000000
     atom   22 type  1   force =    -0.00000277    0.00002030   -0.00001342
     atom   23 type  1   force =     0.00002575   -0.00001307   -0.00000120
     atom   24 type  1   force =    -0.00000000    0.00002069   -0.00002069
     atom   25 type  1   force =     0.00000000    0.00000000    0.00000000
     atom   26 type  1   force =     0.00002575   -0.00000120   -0.00001307
     atom   27 type  1   force =    -0.00000277   -0.00001342    0.00002030
     atom   28 type  1   force =    -0.00000000   -0.00002069    0.00002069
     atom   29 type  1   force =     0.00000000    0.00000000    0.00000000
     atom   30 type  1   force =    -0.00000277   -0.00002030    0.00001342
     atom   31 type  1   force =    -0.00000277    0.00001342   -0.00002030
     atom   32 type  1   force =     0.00000000   -0.00003714   -0.00003714

     Total force =     0.000138     Total SCF correction =     0.000332
     SCF correction compared to forces is large: reduce conv_thr to get better values


     Computing stress (Cartesian axis) and pressure

          total   stress  (Ry/bohr**3)                   (kbar)     P=       -3.64
  -0.00002523   0.00000000   0.00000000           -3.71        0.00        0.00
   0.00000000  -0.00002454  -0.00008268            0.00       -3.61      -12.16
   0.00000000  -0.00008268  -0.00002454            0.00      -12.16       -3.61


     Writing output data file /scratch/AAjWUtuchyQhfJGq.save/
 
     init_run     :     47.84s CPU     48.94s WALL (       1 calls)
     electrons    :   1957.52s CPU   1991.74s WALL (       1 calls)
     forces       :     18.99s CPU     19.23s WALL (       1 calls)
     stress       :    112.10s CPU    113.30s WALL (       1 calls)

     Called by init_run:
     wfcinit      :     46.98s CPU     47.98s WALL (       1 calls)
     potinit      :      0.22s CPU      0.24s WALL (       1 calls)
     hinit0       :      0.44s CPU      0.45s WALL (       1 calls)

     Called by electrons:
     c_bands      :   1738.52s CPU   1767.97s WALL (      14 calls)
     sum_band     :    216.97s CPU    221.50s WALL (      14 calls)
     v_of_rho     :      0.37s CPU      0.40s WALL (      14 calls)
     newd         :      0.41s CPU      0.53s WALL (      14 calls)
     PAW_pot      :      1.17s CPU      1.25s WALL (      14 calls)
     mix_rho      :      0.06s CPU      0.07s WALL (      14 calls)

     Called by c_bands:
     init_us_2    :      7.69s CPU      7.88s WALL (    3875 calls)
     cegterg      :   1710.99s CPU   1739.08s WALL (    1750 calls)

     Called by *egterg:
     cdiaghg      :    202.30s CPU    204.50s WALL (    6245 calls)
     h_psi        :    925.11s CPU    942.36s WALL (    6495 calls)
     s_psi        :     62.09s CPU     62.59s WALL (    6495 calls)
     g_psi        :      1.56s CPU      1.58s WALL (    4620 calls)

     Called by h_psi:
     h_psi:calbec :    122.13s CPU    122.96s WALL (    6495 calls)
     vloc_psi     :    739.72s CPU    755.15s WALL (    6495 calls)
     add_vuspsi   :     59.04s CPU     59.97s WALL (    6495 calls)

     General routines
     calbec       :    192.11s CPU    193.54s WALL (    8870 calls)
     fft          :      0.38s CPU      0.40s WALL (     206 calls)
     ffts         :      0.02s CPU      0.02s WALL (      28 calls)
     fftw         :    870.45s CPU    888.32s WALL ( 3184214 calls)
     interpolate  :      0.03s CPU      0.03s WALL (      14 calls)
 
     Parallel routines
     fft_scatt_xy :     54.68s CPU     55.54s WALL ( 3184448 calls)
     fft_scatt_yz :    721.41s CPU    737.10s WALL ( 3184448 calls)
 
     PWSCF        :  36m 7.20s CPU  36m49.64s WALL

 
   This run was terminated on:   0:28:36  24Nov2021            

=------------------------------------------------------------------------------=
   JOB DONE.
=------------------------------------------------------------------------------=
