
     Program PWSCF v.6.7MaX starts on 25Nov2021 at  6:44:34 

     This program is part of the open-source Quantum ESPRESSO suite
     for quantum simulation of materials; please cite
         "P. Giannozzi et al., J. Phys.:Condens. Matter 21 395502 (2009);
         "P. Giannozzi et al., J. Phys.:Condens. Matter 29 465901 (2017);
          URL http://www.quantum-espresso.org", 
     in publications or presentations arising from this work. More details at
     http://www.quantum-espresso.org/quote

     Parallel version (MPI & OpenMP), running on      72 processor cores
     Number of MPI processes:                72
     Threads/MPI process:                     1

     MPI processes distributed on     1 nodes
     R & G space division:  proc/nbgrp/npool/nimage =      72
     Reading input from /rds/homes/b/bxp912/jobs/20211014_ru_eos/wd/ec/ec_5_003.in
Warning: card &CELL ignored
Warning: card CELL_DYNAMICS = 'BFGS', ignored
Warning: card CELL_FACTOR = 2.0, ignored
Warning: card PRESS = 0.0, ignored
Warning: card / ignored

     Current dimensions of program PWSCF are:
     Max number of different atomic species (ntypx) = 10
     Max number of k-points (npk) =  40000
     Max angular momentum in pseudopotentials (lmaxx) =  3
     file Ru.pbe-spn-kjpaw_psl.1.0.0.UPF: wavefunction(s)  4D renormalized

     Subspace diagonalization in iterative solution of the eigenvalue problem:
     one sub-group per band group will be used
     ELPA distributed-memory algorithm (size of sub-group:  8*  8 procs)

     Found symmetry operation: I + (  0.2500  0.2500  0.0000)
     This is a supercell, fractional translations are disabled
     Message from routine setup:
     using ibrav=0 with symmetry is DISCOURAGED, use correct ibrav instead
 
     Parallelization info
     --------------------
     sticks:   dense  smooth     PW     G-vecs:    dense   smooth      PW
     Min          98      65     17                 6245     3351     475
     Max          99      66     18                 6250     3354     482
     Sum        7113    4693   1281               449823   241377   34461
 


     bravais-lattice index     =            0
     lattice parameter (alat)  =      14.4007  a.u.
     unit-cell volume          =    2986.4454 (a.u.)^3
     number of atoms/cell      =           32
     number of atomic types    =            1
     number of electrons       =       512.00
     number of Kohn-Sham states=          307
     kinetic-energy cutoff     =      71.0000  Ry
     charge density cutoff     =     430.0000  Ry
     scf convergence threshold =      1.0E-06
     mixing beta               =       0.1000
     number of iterations used =           10  plain     mixing
     Exchange-correlation= SLA  PW   PBX  PBC
                           (   1   4   3   4   0   0   0)

     celldm(1)=  14.400742  celldm(2)=   0.000000  celldm(3)=   0.000000
     celldm(4)=   0.000000  celldm(5)=   0.000000  celldm(6)=   0.000000

     crystal axes: (cart. coord. in units of alat)
               a(1) = (   1.000001   0.000000   0.001250 )  
               a(2) = (   0.000000   1.000001   0.000000 )  
               a(3) = (   0.001250   0.000000   1.000001 )  

     reciprocal axes: (cart. coord. in units 2 pi/alat)
               b(1) = (  1.000001  0.000000 -0.001250 )  
               b(2) = (  0.000000  0.999999  0.000000 )  
               b(3) = ( -0.001250  0.000000  1.000001 )  


     PseudoPot. # 1 for Ru read from file:
     /rds/homes/b/bxp912/pp/Ru.pbe-spn-kjpaw_psl.1.0.0.UPF
     MD5 check sum: 0ae1f594dea09af7be8575c3a481d1ae
     Pseudo is Projector augmented-wave + core cor, Zval = 16.0
     Generated using "atomic" code by A. Dal Corso  v.5.1
     Shape of augmentation charge: PSQ
     Using radial grid of 1233 points,  6 beta functions with: 
                l(1) =   0
                l(2) =   0
                l(3) =   1
                l(4) =   1
                l(5) =   2
                l(6) =   2
     Q(r) pseudized with 0 coefficients 


     atomic species   valence    mass     pseudopotential
        Ru            16.00   101.07000     Ru( 1.00)

      8 Sym. Ops., with inversion, found



   Cartesian axes

     site n.     atom                  positions (alat units)
         1           Ru  tau(   1) = (   0.0000000   0.0000000   0.0000000  )
         2           Ru  tau(   2) = (   0.2500001   0.2500001   0.0003125  )
         3           Ru  tau(   3) = (   0.2503126   0.0000000   0.2503121  )
         4           Ru  tau(   4) = (   0.0003125   0.2500001   0.2499996  )
         5           Ru  tau(   5) = (   0.0006250   0.0000000   0.5000003  )
         6           Ru  tau(   6) = (   0.2506241   0.2499991   0.5003128  )
         7           Ru  tau(   7) = (   0.2509376   0.0000000   0.7503124  )
         8           Ru  tau(   8) = (   0.0009375   0.2500001   0.7499999  )
         9           Ru  tau(   9) = (   0.0000000   0.5000005   0.0000000  )
        10           Ru  tau(  10) = (   0.2500001   0.7500008   0.0003125  )
        11           Ru  tau(  11) = (   0.2503116   0.5000005   0.2503111  )
        12           Ru  tau(  12) = (   0.0003125   0.7500008   0.2499996  )
        13           Ru  tau(  13) = (   0.0006250   0.5000005   0.5000003  )
        14           Ru  tau(  14) = (   0.2506241   0.7500019   0.5003128  )
        15           Ru  tau(  15) = (   0.2509366   0.5000005   0.7503134  )
        16           Ru  tau(  16) = (   0.0009375   0.7500008   0.7499999  )
        17           Ru  tau(  17) = (   0.5000005   0.0000000   0.0006250  )
        18           Ru  tau(  18) = (   0.7500008   0.2500001   0.0009375  )
        19           Ru  tau(  19) = (   0.7503133   0.0000000   0.2509371  )
        20           Ru  tau(  20) = (   0.5003130   0.2499991   0.2506236  )
        21           Ru  tau(  21) = (   0.5006255   0.0000000   0.5006253  )
        22           Ru  tau(  22) = (   0.7506269   0.2499991   0.5009378  )
        23           Ru  tau(  23) = (   0.7509383   0.0000000   0.7509374  )
        24           Ru  tau(  24) = (   0.5009380   0.2499991   0.7506259  )
        25           Ru  tau(  25) = (   0.5000005   0.5000005   0.0006250  )
        26           Ru  tau(  26) = (   0.7500008   0.7500008   0.0009375  )
        27           Ru  tau(  27) = (   0.7503144   0.5000005   0.2509361  )
        28           Ru  tau(  28) = (   0.5003130   0.7500019   0.2506236  )
        29           Ru  tau(  29) = (   0.5006255   0.5000005   0.5006253  )
        30           Ru  tau(  30) = (   0.7506269   0.7500019   0.5009378  )
        31           Ru  tau(  31) = (   0.7509394   0.5000005   0.7509384  )
        32           Ru  tau(  32) = (   0.5009380   0.7500019   0.7506259  )

     number of k points=   125  Marzari-Vanderbilt smearing, width (Ry)=  0.0400

     Number of k-points >= 100: set verbosity='high' to print them.

     Dense  grid:   449823 G-vectors     FFT dimensions: (  96,  96,  96)

     Smooth grid:   241377 G-vectors     FFT dimensions: (  80,  80,  80)

     Estimated max dynamical RAM per process >     283.76 MB

     Estimated total dynamical RAM >      19.95 GB

     Check: negative core charge=   -0.000002

     Initial potential from superposition of free atoms

     starting charge  511.97959, renormalised to  512.00000
     Starting wfcs are  320 randomized atomic wfcs
     Checking if some PAW data can be deallocated... 

     total cpu time spent up to now is       45.1 secs

     Self-consistent Calculation

     iteration #  1     ecut=    71.00 Ry     beta= 0.10
     Davidson diagonalization with overlap
     ethr =  1.00E-02,  avg # of iterations =  3.4

     Threshold (ethr) on eigenvalues was too large:
     Diagonalizing with lowered threshold

     Davidson diagonalization with overlap
     ethr =  8.34E-05,  avg # of iterations =  5.7

     total cpu time spent up to now is      363.4 secs

     total energy              =  -13813.41288287 Ry
     estimated scf accuracy    <       0.63886037 Ry

     iteration #  2     ecut=    71.00 Ry     beta= 0.10
     Davidson diagonalization with overlap
     ethr =  1.25E-04,  avg # of iterations =  1.0

     total cpu time spent up to now is      475.4 secs

     total energy              =  -13813.21084755 Ry
     estimated scf accuracy    <       0.39929216 Ry

     iteration #  3     ecut=    71.00 Ry     beta= 0.10
     Davidson diagonalization with overlap
     ethr =  7.80E-05,  avg # of iterations =  2.2

     total cpu time spent up to now is      621.4 secs

     total energy              =  -13813.29810326 Ry
     estimated scf accuracy    <       0.04876253 Ry

     iteration #  4     ecut=    71.00 Ry     beta= 0.10
     Davidson diagonalization with overlap
     ethr =  9.52E-06,  avg # of iterations =  2.4

     total cpu time spent up to now is      745.4 secs

     total energy              =  -13813.30010864 Ry
     estimated scf accuracy    <       0.00995953 Ry

     iteration #  5     ecut=    71.00 Ry     beta= 0.10
     Davidson diagonalization with overlap
     c_bands:  1 eigenvalues not converged
     ethr =  1.95E-06,  avg # of iterations =  1.8

     total cpu time spent up to now is      864.8 secs

     total energy              =  -13813.30051731 Ry
     estimated scf accuracy    <       0.00586184 Ry

     iteration #  6     ecut=    71.00 Ry     beta= 0.10
     Davidson diagonalization with overlap
     ethr =  1.14E-06,  avg # of iterations =  3.8

     total cpu time spent up to now is     1045.8 secs

     total energy              =  -13813.29976567 Ry
     estimated scf accuracy    <       0.01398182 Ry

     iteration #  7     ecut=    71.00 Ry     beta= 0.10
     Davidson diagonalization with overlap
     ethr =  1.14E-06,  avg # of iterations =  2.2

     total cpu time spent up to now is     1186.6 secs

     total energy              =  -13813.30064928 Ry
     estimated scf accuracy    <       0.00105208 Ry

     iteration #  8     ecut=    71.00 Ry     beta= 0.10
     Davidson diagonalization with overlap
     ethr =  2.05E-07,  avg # of iterations =  2.7

     total cpu time spent up to now is     1318.4 secs

     total energy              =  -13813.30075818 Ry
     estimated scf accuracy    <       0.00014429 Ry

     iteration #  9     ecut=    71.00 Ry     beta= 0.10
     Davidson diagonalization with overlap
     ethr =  2.82E-08,  avg # of iterations =  2.0

     total cpu time spent up to now is     1436.1 secs

     total energy              =  -13813.30074259 Ry
     estimated scf accuracy    <       0.00010580 Ry

     iteration # 10     ecut=    71.00 Ry     beta= 0.10
     Davidson diagonalization with overlap
     ethr =  2.07E-08,  avg # of iterations =  1.7

     total cpu time spent up to now is     1561.5 secs

     total energy              =  -13813.30072920 Ry
     estimated scf accuracy    <       0.00004659 Ry

     iteration # 11     ecut=    71.00 Ry     beta= 0.10
     Davidson diagonalization with overlap
     ethr =  9.10E-09,  avg # of iterations =  2.2

     total cpu time spent up to now is     1695.3 secs

     total energy              =  -13813.30073017 Ry
     estimated scf accuracy    <       0.00000699 Ry

     iteration # 12     ecut=    71.00 Ry     beta= 0.10
     Davidson diagonalization with overlap
     ethr =  1.37E-09,  avg # of iterations =  3.2

     total cpu time spent up to now is     1858.3 secs

     End of self-consistent calculation

     Number of k-points >= 100: set verbosity='high' to print the bands.

     the Fermi energy is    23.1142 ev

!    total energy              =  -13813.30073378 Ry

     total all-electron energy =   -289989.691073 Ry
     estimated scf accuracy    <       0.00000057 Ry
     smearing contrib. (-TS)   =       0.02042936 Ry
     internal energy E=F+TS    =  -13813.32116314 Ry

     The total energy is F=E-TS. E is the sum of the following terms:
     one-electron contribution =    -995.55467167 Ry
     hartree contribution      =     916.02471659 Ry
     xc contribution           =    -928.06680199 Ry
     ewald contribution        =   -5216.28217152 Ry
     one-center paw contrib.   =   -7589.44223454 Ry

     convergence has been achieved in  12 iterations

     Forces acting on atoms (cartesian axes, Ry/au):

     atom    1 type  1   force =     0.00000000    0.00000000    0.00000000
     atom    2 type  1   force =    -0.00009096    0.00002993    0.00025006
     atom    3 type  1   force =    -0.00019374   -0.00000000   -0.00019374
     atom    4 type  1   force =     0.00025006    0.00002993   -0.00009096
     atom    5 type  1   force =     0.00000000    0.00000000    0.00000000
     atom    6 type  1   force =    -0.00005445    0.00028287   -0.00024617
     atom    7 type  1   force =    -0.00018687    0.00000000    0.00018687
     atom    8 type  1   force =    -0.00025006    0.00002993    0.00009096
     atom    9 type  1   force =     0.00000000    0.00000000    0.00000000
     atom   10 type  1   force =    -0.00009096   -0.00002993    0.00025006
     atom   11 type  1   force =     0.00004131    0.00000000    0.00004131
     atom   12 type  1   force =     0.00025006   -0.00002993   -0.00009096
     atom   13 type  1   force =     0.00000000    0.00000000    0.00000000
     atom   14 type  1   force =    -0.00005445   -0.00028287   -0.00024617
     atom   15 type  1   force =     0.00006575   -0.00000000   -0.00006575
     atom   16 type  1   force =    -0.00025006   -0.00002993    0.00009096
     atom   17 type  1   force =     0.00000000    0.00000000    0.00000000
     atom   18 type  1   force =     0.00009096    0.00002993   -0.00025006
     atom   19 type  1   force =     0.00018687    0.00000000   -0.00018687
     atom   20 type  1   force =    -0.00024617    0.00028287   -0.00005445
     atom   21 type  1   force =     0.00000000    0.00000000    0.00000000
     atom   22 type  1   force =     0.00005445    0.00028287    0.00024617
     atom   23 type  1   force =     0.00019374   -0.00000000    0.00019374
     atom   24 type  1   force =     0.00024617    0.00028287    0.00005445
     atom   25 type  1   force =     0.00000000    0.00000000    0.00000000
     atom   26 type  1   force =     0.00009096   -0.00002993   -0.00025006
     atom   27 type  1   force =    -0.00006575   -0.00000000    0.00006575
     atom   28 type  1   force =    -0.00024617   -0.00028287   -0.00005445
     atom   29 type  1   force =     0.00000000    0.00000000    0.00000000
     atom   30 type  1   force =     0.00005445   -0.00028287    0.00024617
     atom   31 type  1   force =    -0.00004131    0.00000000   -0.00004131
     atom   32 type  1   force =     0.00024617   -0.00028287    0.00005445

     Total force =     0.001427     Total SCF correction =     0.005165
     SCF correction compared to forces is large: reduce conv_thr to get better values


     Computing stress (Cartesian axis) and pressure

          total   stress  (Ry/bohr**3)                   (kbar)     P=       -4.25
  -0.00002878   0.00000000  -0.00004099           -4.23        0.00       -6.03
   0.00000000  -0.00002902   0.00000000            0.00       -4.27        0.00
  -0.00004099   0.00000000  -0.00002878           -6.03        0.00       -4.23


     Writing output data file /scratch/kSLpTetKrkpfgXhG.save/
 
     init_run     :     41.75s CPU     42.46s WALL (       1 calls)
     electrons    :   1783.92s CPU   1813.32s WALL (       1 calls)
     forces       :     19.10s CPU     19.24s WALL (       1 calls)
     stress       :    109.71s CPU    110.61s WALL (       1 calls)

     Called by init_run:
     wfcinit      :     40.40s CPU     41.04s WALL (       1 calls)
     potinit      :      0.23s CPU      0.24s WALL (       1 calls)
     hinit0       :      0.62s CPU      0.63s WALL (       1 calls)

     Called by electrons:
     c_bands      :   1582.59s CPU   1607.82s WALL (      13 calls)
     sum_band     :    199.75s CPU    203.68s WALL (      13 calls)
     v_of_rho     :      0.18s CPU      0.20s WALL (      13 calls)
     newd         :      0.31s CPU      0.42s WALL (      13 calls)
     PAW_pot      :      1.07s CPU      1.14s WALL (      13 calls)
     mix_rho      :      0.08s CPU      0.10s WALL (      13 calls)

     Called by c_bands:
     init_us_2    :      6.14s CPU      6.31s WALL (    3625 calls)
     cegterg      :   1558.02s CPU   1582.11s WALL (    1625 calls)

     Called by *egterg:
     cdiaghg      :    198.82s CPU    201.75s WALL (    5802 calls)
     h_psi        :    829.63s CPU    844.19s WALL (    6052 calls)
     s_psi        :     54.58s CPU     55.08s WALL (    6052 calls)
     g_psi        :      1.38s CPU      1.39s WALL (    4302 calls)

     Called by h_psi:
     h_psi:calbec :    107.08s CPU    108.13s WALL (    6052 calls)
     vloc_psi     :    666.05s CPU    678.76s WALL (    6052 calls)
     add_vuspsi   :     53.00s CPU     53.74s WALL (    6052 calls)

     General routines
     calbec       :    213.47s CPU    215.43s WALL (    8302 calls)
     fft          :      0.38s CPU      0.40s WALL (     193 calls)
     ffts         :      0.02s CPU      0.02s WALL (      26 calls)
     fftw         :    787.64s CPU    802.46s WALL ( 2900805 calls)
     interpolate  :      0.03s CPU      0.04s WALL (      13 calls)
 
     Parallel routines
     fft_scatt_xy :     50.27s CPU     51.09s WALL ( 2901024 calls)
     fft_scatt_yz :    651.14s CPU    663.90s WALL ( 2901024 calls)
 
     PWSCF        :  33m 2.37s CPU  33m39.08s WALL

 
   This run was terminated on:   7:18:13  25Nov2021            

=------------------------------------------------------------------------------=
   JOB DONE.
=------------------------------------------------------------------------------=
