
     Program PWSCF v.6.7MaX starts on 25Nov2021 at  7:18:49 

     This program is part of the open-source Quantum ESPRESSO suite
     for quantum simulation of materials; please cite
         "P. Giannozzi et al., J. Phys.:Condens. Matter 21 395502 (2009);
         "P. Giannozzi et al., J. Phys.:Condens. Matter 29 465901 (2017);
          URL http://www.quantum-espresso.org", 
     in publications or presentations arising from this work. More details at
     http://www.quantum-espresso.org/quote

     Parallel version (MPI & OpenMP), running on      72 processor cores
     Number of MPI processes:                72
     Threads/MPI process:                     1

     MPI processes distributed on     1 nodes
     R & G space division:  proc/nbgrp/npool/nimage =      72
     Reading input from /rds/homes/b/bxp912/jobs/20211014_ru_eos/wd/ec/ec_5_004.in
Warning: card &CELL ignored
Warning: card CELL_DYNAMICS = 'BFGS', ignored
Warning: card CELL_FACTOR = 2.0, ignored
Warning: card PRESS = 0.0, ignored
Warning: card / ignored

     Current dimensions of program PWSCF are:
     Max number of different atomic species (ntypx) = 10
     Max number of k-points (npk) =  40000
     Max angular momentum in pseudopotentials (lmaxx) =  3
     file Ru.pbe-spn-kjpaw_psl.1.0.0.UPF: wavefunction(s)  4D renormalized

     Subspace diagonalization in iterative solution of the eigenvalue problem:
     one sub-group per band group will be used
     ELPA distributed-memory algorithm (size of sub-group:  8*  8 procs)

     Found symmetry operation: I + (  0.2500  0.2500  0.0000)
     This is a supercell, fractional translations are disabled
     Message from routine setup:
     using ibrav=0 with symmetry is DISCOURAGED, use correct ibrav instead
 
     Parallelization info
     --------------------
     sticks:   dense  smooth     PW     G-vecs:    dense   smooth      PW
     Min          98      65     17                 6246     3352     475
     Max          99      66     18                 6250     3355     482
     Sum        7113    4693   1281               449887   241413   34437
 


     bravais-lattice index     =            0
     lattice parameter (alat)  =      14.4007  a.u.
     unit-cell volume          =    2986.4454 (a.u.)^3
     number of atoms/cell      =           32
     number of atomic types    =            1
     number of electrons       =       512.00
     number of Kohn-Sham states=          307
     kinetic-energy cutoff     =      71.0000  Ry
     charge density cutoff     =     430.0000  Ry
     scf convergence threshold =      1.0E-06
     mixing beta               =       0.1000
     number of iterations used =           10  plain     mixing
     Exchange-correlation= SLA  PW   PBX  PBC
                           (   1   4   3   4   0   0   0)

     celldm(1)=  14.400742  celldm(2)=   0.000000  celldm(3)=   0.000000
     celldm(4)=   0.000000  celldm(5)=   0.000000  celldm(6)=   0.000000

     crystal axes: (cart. coord. in units of alat)
               a(1) = (   1.000001   0.000000   0.001875 )  
               a(2) = (   0.000000   1.000001   0.000000 )  
               a(3) = (   0.001875   0.000000   1.000001 )  

     reciprocal axes: (cart. coord. in units 2 pi/alat)
               b(1) = (  1.000002  0.000000 -0.001875 )  
               b(2) = (  0.000000  0.999999  0.000000 )  
               b(3) = ( -0.001875  0.000000  1.000002 )  


     PseudoPot. # 1 for Ru read from file:
     /rds/homes/b/bxp912/pp/Ru.pbe-spn-kjpaw_psl.1.0.0.UPF
     MD5 check sum: 0ae1f594dea09af7be8575c3a481d1ae
     Pseudo is Projector augmented-wave + core cor, Zval = 16.0
     Generated using "atomic" code by A. Dal Corso  v.5.1
     Shape of augmentation charge: PSQ
     Using radial grid of 1233 points,  6 beta functions with: 
                l(1) =   0
                l(2) =   0
                l(3) =   1
                l(4) =   1
                l(5) =   2
                l(6) =   2
     Q(r) pseudized with 0 coefficients 


     atomic species   valence    mass     pseudopotential
        Ru            16.00   101.07000     Ru( 1.00)

      8 Sym. Ops., with inversion, found



   Cartesian axes

     site n.     atom                  positions (alat units)
         1           Ru  tau(   1) = (   0.0000000   0.0000000   0.0000000  )
         2           Ru  tau(   2) = (   0.2500003   0.2500003   0.0004688  )
         3           Ru  tau(   3) = (   0.2504690   0.0000000   0.2504685  )
         4           Ru  tau(   4) = (   0.0004687   0.2500003   0.2499998  )
         5           Ru  tau(   5) = (   0.0009375   0.0000000   0.5000006  )
         6           Ru  tau(   6) = (   0.2509367   0.2499992   0.5004693  )
         7           Ru  tau(   7) = (   0.2514065   0.0000000   0.7504691  )
         8           Ru  tau(   8) = (   0.0014063   0.2500003   0.7500004  )
         9           Ru  tau(   9) = (   0.0000000   0.5000008   0.0000000  )
        10           Ru  tau(  10) = (   0.2500003   0.7500013   0.0004688  )
        11           Ru  tau(  11) = (   0.2504680   0.5000008   0.2504675  )
        12           Ru  tau(  12) = (   0.0004687   0.7500013   0.2499998  )
        13           Ru  tau(  13) = (   0.0009375   0.5000008   0.5000006  )
        14           Ru  tau(  14) = (   0.2509367   0.7500023   0.5004693  )
        15           Ru  tau(  15) = (   0.2514055   0.5000008   0.7504702  )
        16           Ru  tau(  16) = (   0.0014063   0.7500013   0.7500004  )
        17           Ru  tau(  17) = (   0.5000008   0.0000000   0.0009375  )
        18           Ru  tau(  18) = (   0.7500013   0.2500003   0.0014063  )
        19           Ru  tau(  19) = (   0.7504700   0.0000000   0.2514060  )
        20           Ru  tau(  20) = (   0.5004695   0.2499992   0.2509362  )
        21           Ru  tau(  21) = (   0.5009383   0.0000000   0.5009381  )
        22           Ru  tau(  22) = (   0.7509398   0.2499992   0.5014068  )
        23           Ru  tau(  23) = (   0.7514075   0.0000000   0.7514066  )
        24           Ru  tau(  24) = (   0.5014070   0.2499992   0.7509389  )
        25           Ru  tau(  25) = (   0.5000008   0.5000008   0.0009375  )
        26           Ru  tau(  26) = (   0.7500013   0.7500013   0.0014063  )
        27           Ru  tau(  27) = (   0.7504711   0.5000008   0.2514050  )
        28           Ru  tau(  28) = (   0.5004695   0.7500023   0.2509362  )
        29           Ru  tau(  29) = (   0.5009383   0.5000008   0.5009381  )
        30           Ru  tau(  30) = (   0.7509398   0.7500023   0.5014068  )
        31           Ru  tau(  31) = (   0.7514086   0.5000008   0.7514077  )
        32           Ru  tau(  32) = (   0.5014070   0.7500023   0.7509389  )

     number of k points=   125  Marzari-Vanderbilt smearing, width (Ry)=  0.0400

     Number of k-points >= 100: set verbosity='high' to print them.

     Dense  grid:   449887 G-vectors     FFT dimensions: (  96,  96,  96)

     Smooth grid:   241413 G-vectors     FFT dimensions: (  80,  80,  80)

     Estimated max dynamical RAM per process >     283.76 MB

     Estimated total dynamical RAM >      19.95 GB

     Check: negative core charge=   -0.000002

     Initial potential from superposition of free atoms

     starting charge  511.97959, renormalised to  512.00000
     Starting wfcs are  320 randomized atomic wfcs
     Checking if some PAW data can be deallocated... 

     total cpu time spent up to now is       48.9 secs

     Self-consistent Calculation

     iteration #  1     ecut=    71.00 Ry     beta= 0.10
     Davidson diagonalization with overlap
     ethr =  1.00E-02,  avg # of iterations =  3.4

     Threshold (ethr) on eigenvalues was too large:
     Diagonalizing with lowered threshold

     Davidson diagonalization with overlap
     ethr =  8.33E-05,  avg # of iterations =  5.8

     total cpu time spent up to now is      363.2 secs

     total energy              =  -13813.41269265 Ry
     estimated scf accuracy    <       0.63872059 Ry

     iteration #  2     ecut=    71.00 Ry     beta= 0.10
     Davidson diagonalization with overlap
     ethr =  1.25E-04,  avg # of iterations =  1.0

     total cpu time spent up to now is      485.1 secs

     total energy              =  -13813.21065241 Ry
     estimated scf accuracy    <       0.39924420 Ry

     iteration #  3     ecut=    71.00 Ry     beta= 0.10
     Davidson diagonalization with overlap
     ethr =  7.80E-05,  avg # of iterations =  2.2

     total cpu time spent up to now is      628.3 secs

     total energy              =  -13813.29791377 Ry
     estimated scf accuracy    <       0.04872148 Ry

     iteration #  4     ecut=    71.00 Ry     beta= 0.10
     Davidson diagonalization with overlap
     c_bands:  1 eigenvalues not converged
     c_bands:  1 eigenvalues not converged
     ethr =  9.52E-06,  avg # of iterations =  2.6

     total cpu time spent up to now is      760.4 secs

     total energy              =  -13813.29991405 Ry
     estimated scf accuracy    <       0.00996533 Ry

     iteration #  5     ecut=    71.00 Ry     beta= 0.10
     Davidson diagonalization with overlap
     c_bands:  1 eigenvalues not converged
     ethr =  1.95E-06,  avg # of iterations =  1.6

     total cpu time spent up to now is      876.8 secs

     total energy              =  -13813.30032375 Ry
     estimated scf accuracy    <       0.00586312 Ry

     iteration #  6     ecut=    71.00 Ry     beta= 0.10
     Davidson diagonalization with overlap
     ethr =  1.15E-06,  avg # of iterations =  3.8

     total cpu time spent up to now is     1062.8 secs

     total energy              =  -13813.29956202 Ry
     estimated scf accuracy    <       0.01400357 Ry

     iteration #  7     ecut=    71.00 Ry     beta= 0.10
     Davidson diagonalization with overlap
     ethr =  1.15E-06,  avg # of iterations =  2.2

     total cpu time spent up to now is     1210.1 secs

     total energy              =  -13813.30045595 Ry
     estimated scf accuracy    <       0.00104536 Ry

     iteration #  8     ecut=    71.00 Ry     beta= 0.10
     Davidson diagonalization with overlap
     ethr =  2.04E-07,  avg # of iterations =  2.7

     total cpu time spent up to now is     1356.7 secs

     total energy              =  -13813.30056347 Ry
     estimated scf accuracy    <       0.00014457 Ry

     iteration #  9     ecut=    71.00 Ry     beta= 0.10
     Davidson diagonalization with overlap
     ethr =  2.82E-08,  avg # of iterations =  2.0

     total cpu time spent up to now is     1489.2 secs

     total energy              =  -13813.30054815 Ry
     estimated scf accuracy    <       0.00010500 Ry

     iteration # 10     ecut=    71.00 Ry     beta= 0.10
     Davidson diagonalization with overlap
     ethr =  2.05E-08,  avg # of iterations =  1.8

     total cpu time spent up to now is     1607.7 secs

     total energy              =  -13813.30053493 Ry
     estimated scf accuracy    <       0.00004671 Ry

     iteration # 11     ecut=    71.00 Ry     beta= 0.10
     Davidson diagonalization with overlap
     ethr =  9.12E-09,  avg # of iterations =  2.2

     total cpu time spent up to now is     1742.3 secs

     total energy              =  -13813.30053580 Ry
     estimated scf accuracy    <       0.00000722 Ry

     iteration # 12     ecut=    71.00 Ry     beta= 0.10
     Davidson diagonalization with overlap
     ethr =  1.41E-09,  avg # of iterations =  3.3

     total cpu time spent up to now is     1918.9 secs

     End of self-consistent calculation

     Number of k-points >= 100: set verbosity='high' to print the bands.

     the Fermi energy is    23.1143 ev

!    total energy              =  -13813.30053932 Ry

     total all-electron energy =   -289989.690879 Ry
     estimated scf accuracy    <       0.00000055 Ry
     smearing contrib. (-TS)   =       0.02042372 Ry
     internal energy E=F+TS    =  -13813.32096304 Ry

     The total energy is F=E-TS. E is the sum of the following terms:
     one-electron contribution =    -995.55930094 Ry
     hartree contribution      =     916.02447917 Ry
     xc contribution           =    -928.06615387 Ry
     ewald contribution        =   -5216.27795688 Ry
     one-center paw contrib.   =   -7589.44203052 Ry

     convergence has been achieved in  12 iterations

     Forces acting on atoms (cartesian axes, Ry/au):

     atom    1 type  1   force =     0.00000000    0.00000000    0.00000000
     atom    2 type  1   force =    -0.00009170    0.00002809    0.00025112
     atom    3 type  1   force =    -0.00019676    0.00000000   -0.00019676
     atom    4 type  1   force =     0.00025112    0.00002809   -0.00009170
     atom    5 type  1   force =     0.00000000    0.00000000    0.00000000
     atom    6 type  1   force =    -0.00005371    0.00028584   -0.00024762
     atom    7 type  1   force =    -0.00019010    0.00000000    0.00019010
     atom    8 type  1   force =    -0.00025112    0.00002809    0.00009170
     atom    9 type  1   force =     0.00000000    0.00000000    0.00000000
     atom   10 type  1   force =    -0.00009170   -0.00002809    0.00025112
     atom   11 type  1   force =     0.00004450    0.00000000    0.00004450
     atom   12 type  1   force =     0.00025112   -0.00002809   -0.00009170
     atom   13 type  1   force =     0.00000000    0.00000000    0.00000000
     atom   14 type  1   force =    -0.00005371   -0.00028584   -0.00024762
     atom   15 type  1   force =     0.00006847    0.00000000   -0.00006847
     atom   16 type  1   force =    -0.00025112   -0.00002809    0.00009170
     atom   17 type  1   force =     0.00000000    0.00000000    0.00000000
     atom   18 type  1   force =     0.00009170    0.00002809   -0.00025112
     atom   19 type  1   force =     0.00019010    0.00000000   -0.00019010
     atom   20 type  1   force =    -0.00024762    0.00028584   -0.00005371
     atom   21 type  1   force =     0.00000000    0.00000000    0.00000000
     atom   22 type  1   force =     0.00005371    0.00028584    0.00024762
     atom   23 type  1   force =     0.00019676    0.00000000    0.00019676
     atom   24 type  1   force =     0.00024762    0.00028584    0.00005371
     atom   25 type  1   force =     0.00000000    0.00000000    0.00000000
     atom   26 type  1   force =     0.00009170   -0.00002809   -0.00025112
     atom   27 type  1   force =    -0.00006847    0.00000000    0.00006847
     atom   28 type  1   force =    -0.00024762   -0.00028584   -0.00005371
     atom   29 type  1   force =     0.00000000    0.00000000    0.00000000
     atom   30 type  1   force =     0.00005371   -0.00028584    0.00024762
     atom   31 type  1   force =    -0.00004450    0.00000000   -0.00004450
     atom   32 type  1   force =     0.00024762   -0.00028584    0.00005371

     Total force =     0.001439     Total SCF correction =     0.005264
     SCF correction compared to forces is large: reduce conv_thr to get better values


     Computing stress (Cartesian axis) and pressure

          total   stress  (Ry/bohr**3)                   (kbar)     P=       -4.42
  -0.00002987   0.00000000  -0.00006151           -4.39        0.00       -9.05
   0.00000000  -0.00003030   0.00000000            0.00       -4.46        0.00
  -0.00006151   0.00000000  -0.00002987           -9.05        0.00       -4.39


     Writing output data file /scratch/DihDVcrtrpYjFOfm.save/
 
     init_run     :     45.00s CPU     46.12s WALL (       1 calls)
     electrons    :   1836.80s CPU   1870.15s WALL (       1 calls)
     forces       :     18.58s CPU     18.76s WALL (       1 calls)
     stress       :    112.82s CPU    113.87s WALL (       1 calls)

     Called by init_run:
     wfcinit      :     44.10s CPU     45.14s WALL (       1 calls)
     potinit      :      0.23s CPU      0.25s WALL (       1 calls)
     hinit0       :      0.20s CPU      0.21s WALL (       1 calls)

     Called by electrons:
     c_bands      :   1634.41s CPU   1662.82s WALL (      13 calls)
     sum_band     :    200.80s CPU    205.50s WALL (      13 calls)
     v_of_rho     :      0.19s CPU      0.21s WALL (      13 calls)
     newd         :      0.28s CPU      0.42s WALL (      13 calls)
     PAW_pot      :      1.08s CPU      1.14s WALL (      13 calls)
     mix_rho      :      0.08s CPU      0.10s WALL (      13 calls)

     Called by c_bands:
     init_us_2    :      7.17s CPU      7.33s WALL (    3625 calls)
     cegterg      :   1609.31s CPU   1636.48s WALL (    1625 calls)

     Called by *egterg:
     cdiaghg      :    199.56s CPU    202.08s WALL (    5824 calls)
     h_psi        :    832.45s CPU    847.68s WALL (    6074 calls)
     s_psi        :     55.89s CPU     56.35s WALL (    6074 calls)
     g_psi        :      1.30s CPU      1.32s WALL (    4324 calls)

     Called by h_psi:
     h_psi:calbec :    108.40s CPU    109.23s WALL (    6074 calls)
     vloc_psi     :    666.26s CPU    679.75s WALL (    6074 calls)
     add_vuspsi   :     54.35s CPU     55.23s WALL (    6074 calls)

     General routines
     calbec       :    228.54s CPU    230.40s WALL (    8324 calls)
     fft          :      0.27s CPU      0.29s WALL (     193 calls)
     ffts         :      0.02s CPU      0.03s WALL (      26 calls)
     fftw         :    788.08s CPU    804.29s WALL ( 2895991 calls)
     interpolate  :      0.03s CPU      0.04s WALL (      13 calls)
 
     Parallel routines
     fft_scatt_xy :     49.98s CPU     50.78s WALL ( 2896210 calls)
     fft_scatt_yz :    652.13s CPU    666.30s WALL ( 2896210 calls)
 
     PWSCF        :  34m 1.93s CPU  34m43.12s WALL

 
   This run was terminated on:   7:53:32  25Nov2021            

=------------------------------------------------------------------------------=
   JOB DONE.
=------------------------------------------------------------------------------=
