
     Program PWSCF v.6.7MaX starts on 25Nov2021 at  8:29:17 

     This program is part of the open-source Quantum ESPRESSO suite
     for quantum simulation of materials; please cite
         "P. Giannozzi et al., J. Phys.:Condens. Matter 21 395502 (2009);
         "P. Giannozzi et al., J. Phys.:Condens. Matter 29 465901 (2017);
          URL http://www.quantum-espresso.org", 
     in publications or presentations arising from this work. More details at
     http://www.quantum-espresso.org/quote

     Parallel version (MPI & OpenMP), running on      72 processor cores
     Number of MPI processes:                72
     Threads/MPI process:                     1

     MPI processes distributed on     1 nodes
     R & G space division:  proc/nbgrp/npool/nimage =      72
     Reading input from /rds/homes/b/bxp912/jobs/20211014_ru_eos/wd/ec/ec_5_006.in
Warning: card &CELL ignored
Warning: card CELL_DYNAMICS = 'BFGS', ignored
Warning: card CELL_FACTOR = 2.0, ignored
Warning: card PRESS = 0.0, ignored
Warning: card / ignored

     Current dimensions of program PWSCF are:
     Max number of different atomic species (ntypx) = 10
     Max number of k-points (npk) =  40000
     Max angular momentum in pseudopotentials (lmaxx) =  3
     file Ru.pbe-spn-kjpaw_psl.1.0.0.UPF: wavefunction(s)  4D renormalized

     Subspace diagonalization in iterative solution of the eigenvalue problem:
     one sub-group per band group will be used
     ELPA distributed-memory algorithm (size of sub-group:  8*  8 procs)

     Found symmetry operation: I + (  0.2500  0.2500 -0.0000)
     This is a supercell, fractional translations are disabled
     Message from routine setup:
     using ibrav=0 with symmetry is DISCOURAGED, use correct ibrav instead
 
     Parallelization info
     --------------------
     sticks:   dense  smooth     PW     G-vecs:    dense   smooth      PW
     Min          98      65     17                 6245     3352     475
     Max          99      66     18                 6250     3355     481
     Sum        7113    4693   1281               449827   241457   34405
 


     bravais-lattice index     =            0
     lattice parameter (alat)  =      14.4007  a.u.
     unit-cell volume          =    2986.4454 (a.u.)^3
     number of atoms/cell      =           32
     number of atomic types    =            1
     number of electrons       =       512.00
     number of Kohn-Sham states=          307
     kinetic-energy cutoff     =      71.0000  Ry
     charge density cutoff     =     430.0000  Ry
     scf convergence threshold =      1.0E-06
     mixing beta               =       0.1000
     number of iterations used =           10  plain     mixing
     Exchange-correlation= SLA  PW   PBX  PBC
                           (   1   4   3   4   0   0   0)

     celldm(1)=  14.400742  celldm(2)=   0.000000  celldm(3)=   0.000000
     celldm(4)=   0.000000  celldm(5)=   0.000000  celldm(6)=   0.000000

     crystal axes: (cart. coord. in units of alat)
               a(1) = (   1.000003   0.000000   0.003125 )  
               a(2) = (   0.000000   1.000003   0.000000 )  
               a(3) = (   0.003125   0.000000   1.000003 )  

     reciprocal axes: (cart. coord. in units 2 pi/alat)
               b(1) = (  1.000007  0.000000 -0.003125 )  
               b(2) = (  0.000000  0.999997  0.000000 )  
               b(3) = ( -0.003125  0.000000  1.000007 )  


     PseudoPot. # 1 for Ru read from file:
     /rds/homes/b/bxp912/pp/Ru.pbe-spn-kjpaw_psl.1.0.0.UPF
     MD5 check sum: 0ae1f594dea09af7be8575c3a481d1ae
     Pseudo is Projector augmented-wave + core cor, Zval = 16.0
     Generated using "atomic" code by A. Dal Corso  v.5.1
     Shape of augmentation charge: PSQ
     Using radial grid of 1233 points,  6 beta functions with: 
                l(1) =   0
                l(2) =   0
                l(3) =   1
                l(4) =   1
                l(5) =   2
                l(6) =   2
     Q(r) pseudized with 0 coefficients 


     atomic species   valence    mass     pseudopotential
        Ru            16.00   101.07000     Ru( 1.00)

      8 Sym. Ops., with inversion, found



   Cartesian axes

     site n.     atom                  positions (alat units)
         1           Ru  tau(   1) = (   0.0000000   0.0000000   0.0000000  )
         2           Ru  tau(   2) = (   0.2500008   0.2500008   0.0007813  )
         3           Ru  tau(   3) = (   0.2507821   0.0000000   0.2507815  )
         4           Ru  tau(   4) = (   0.0007813   0.2500008   0.2500003  )
         5           Ru  tau(   5) = (   0.0015625   0.0000000   0.5000016  )
         6           Ru  tau(   6) = (   0.2515623   0.2499998   0.5007829  )
         7           Ru  tau(   7) = (   0.2523446   0.0000000   0.7507832  )
         8           Ru  tau(   8) = (   0.0023438   0.2500008   0.7500019  )
         9           Ru  tau(   9) = (   0.0000000   0.5000018   0.0000000  )
        10           Ru  tau(  10) = (   0.2500008   0.7500029   0.0007813  )
        11           Ru  tau(  11) = (   0.2507810   0.5000018   0.2507805  )
        12           Ru  tau(  12) = (   0.0007813   0.7500029   0.2500003  )
        13           Ru  tau(  13) = (   0.0015625   0.5000018   0.5000016  )
        14           Ru  tau(  14) = (   0.2515623   0.7500039   0.5007829  )
        15           Ru  tau(  15) = (   0.2523435   0.5000018   0.7507842  )
        16           Ru  tau(  16) = (   0.0023438   0.7500029   0.7500019  )
        17           Ru  tau(  17) = (   0.5000018   0.0000000   0.0015625  )
        18           Ru  tau(  18) = (   0.7500029   0.2500008   0.0023438  )
        19           Ru  tau(  19) = (   0.7507841   0.0000000   0.2523440  )
        20           Ru  tau(  20) = (   0.5007831   0.2499998   0.2515617  )
        21           Ru  tau(  21) = (   0.5015643   0.0000000   0.5015641  )
        22           Ru  tau(  22) = (   0.7515664   0.2499998   0.5023454  )
        23           Ru  tau(  23) = (   0.7523466   0.0000000   0.7523457  )
        24           Ru  tau(  24) = (   0.5023456   0.2499998   0.7515655  )
        25           Ru  tau(  25) = (   0.5000018   0.5000018   0.0015625  )
        26           Ru  tau(  26) = (   0.7500029   0.7500029   0.0023438  )
        27           Ru  tau(  27) = (   0.7507852   0.5000018   0.2523430  )
        28           Ru  tau(  28) = (   0.5007831   0.7500039   0.2515617  )
        29           Ru  tau(  29) = (   0.5015643   0.5000018   0.5015641  )
        30           Ru  tau(  30) = (   0.7515664   0.7500039   0.5023454  )
        31           Ru  tau(  31) = (   0.7523477   0.5000018   0.7523467  )
        32           Ru  tau(  32) = (   0.5023456   0.7500039   0.7515655  )

     number of k points=   125  Marzari-Vanderbilt smearing, width (Ry)=  0.0400

     Number of k-points >= 100: set verbosity='high' to print them.

     Dense  grid:   449827 G-vectors     FFT dimensions: (  96,  96,  96)

     Smooth grid:   241457 G-vectors     FFT dimensions: (  80,  80,  80)

     Estimated max dynamical RAM per process >     283.75 MB

     Estimated total dynamical RAM >      19.95 GB

     Check: negative core charge=   -0.000002

     Initial potential from superposition of free atoms

     starting charge  511.97959, renormalised to  512.00000
     Starting wfcs are  320 randomized atomic wfcs
     Checking if some PAW data can be deallocated... 

     total cpu time spent up to now is       51.6 secs

     Self-consistent Calculation

     iteration #  1     ecut=    71.00 Ry     beta= 0.10
     Davidson diagonalization with overlap
     ethr =  1.00E-02,  avg # of iterations =  3.3

     Threshold (ethr) on eigenvalues was too large:
     Diagonalizing with lowered threshold

     Davidson diagonalization with overlap
     ethr =  8.32E-05,  avg # of iterations =  5.8

     total cpu time spent up to now is      372.3 secs

     total energy              =  -13813.41204057 Ry
     estimated scf accuracy    <       0.63879982 Ry

     iteration #  2     ecut=    71.00 Ry     beta= 0.10
     Davidson diagonalization with overlap
     ethr =  1.25E-04,  avg # of iterations =  1.0

     total cpu time spent up to now is      488.9 secs

     total energy              =  -13813.21007614 Ry
     estimated scf accuracy    <       0.39921883 Ry

     iteration #  3     ecut=    71.00 Ry     beta= 0.10
     Davidson diagonalization with overlap
     ethr =  7.80E-05,  avg # of iterations =  2.2

     total cpu time spent up to now is      634.7 secs

     total energy              =  -13813.29728362 Ry
     estimated scf accuracy    <       0.04866786 Ry

     iteration #  4     ecut=    71.00 Ry     beta= 0.10
     Davidson diagonalization with overlap
     ethr =  9.51E-06,  avg # of iterations =  1.9

     total cpu time spent up to now is      756.4 secs

     total energy              =  -13813.29928798 Ry
     estimated scf accuracy    <       0.00996304 Ry

     iteration #  5     ecut=    71.00 Ry     beta= 0.10
     Davidson diagonalization with overlap
     c_bands:  1 eigenvalues not converged
     ethr =  1.95E-06,  avg # of iterations =  1.9

     total cpu time spent up to now is      874.5 secs

     total energy              =  -13813.29969025 Ry
     estimated scf accuracy    <       0.00586728 Ry

     iteration #  6     ecut=    71.00 Ry     beta= 0.10
     Davidson diagonalization with overlap
     ethr =  1.15E-06,  avg # of iterations =  3.6

     total cpu time spent up to now is     1058.8 secs

     total energy              =  -13813.29895223 Ry
     estimated scf accuracy    <       0.01392487 Ry

     iteration #  7     ecut=    71.00 Ry     beta= 0.10
     Davidson diagonalization with overlap
     ethr =  1.15E-06,  avg # of iterations =  2.3

     total cpu time spent up to now is     1214.4 secs

     total energy              =  -13813.29982687 Ry
     estimated scf accuracy    <       0.00105430 Ry

     iteration #  8     ecut=    71.00 Ry     beta= 0.10
     Davidson diagonalization with overlap
     ethr =  2.06E-07,  avg # of iterations =  2.7

     total cpu time spent up to now is     1356.2 secs

     total energy              =  -13813.29993414 Ry
     estimated scf accuracy    <       0.00014554 Ry

     iteration #  9     ecut=    71.00 Ry     beta= 0.10
     Davidson diagonalization with overlap
     ethr =  2.84E-08,  avg # of iterations =  2.1

     total cpu time spent up to now is     1482.9 secs

     total energy              =  -13813.29991762 Ry
     estimated scf accuracy    <       0.00010400 Ry

     iteration # 10     ecut=    71.00 Ry     beta= 0.10
     Davidson diagonalization with overlap
     ethr =  2.03E-08,  avg # of iterations =  1.9

     total cpu time spent up to now is     1606.8 secs

     total energy              =  -13813.29990753 Ry
     estimated scf accuracy    <       0.00004226 Ry

     iteration # 11     ecut=    71.00 Ry     beta= 0.10
     Davidson diagonalization with overlap
     ethr =  8.25E-09,  avg # of iterations =  2.2

     total cpu time spent up to now is     1741.1 secs

     total energy              =  -13813.29990769 Ry
     estimated scf accuracy    <       0.00000768 Ry

     iteration # 12     ecut=    71.00 Ry     beta= 0.10
     Davidson diagonalization with overlap
     ethr =  1.50E-09,  avg # of iterations =  3.3

     total cpu time spent up to now is     1894.4 secs

     End of self-consistent calculation

     Number of k-points >= 100: set verbosity='high' to print the bands.

     the Fermi energy is    23.1145 ev

!    total energy              =  -13813.29991087 Ry

     total all-electron energy =   -289989.690250 Ry
     estimated scf accuracy    <       0.00000063 Ry
     smearing contrib. (-TS)   =       0.02040541 Ry
     internal energy E=F+TS    =  -13813.32031628 Ry

     The total energy is F=E-TS. E is the sum of the following terms:
     one-electron contribution =    -995.57867956 Ry
     hartree contribution      =     916.02957172 Ry
     xc contribution           =    -928.06517723 Ry
     ewald contribution        =   -5216.26446966 Ry
     one-center paw contrib.   =   -7589.44156155 Ry

     convergence has been achieved in  12 iterations

     Forces acting on atoms (cartesian axes, Ry/au):

     atom    1 type  1   force =     0.00000000    0.00000000    0.00000000
     atom    2 type  1   force =    -0.00009562    0.00003209    0.00024207
     atom    3 type  1   force =    -0.00019598    0.00000000   -0.00019598
     atom    4 type  1   force =     0.00024207    0.00003209   -0.00009562
     atom    5 type  1   force =     0.00000000    0.00000000    0.00000000
     atom    6 type  1   force =    -0.00005427    0.00028778   -0.00023783
     atom    7 type  1   force =    -0.00019016    0.00000000    0.00019016
     atom    8 type  1   force =    -0.00024207    0.00003209    0.00009562
     atom    9 type  1   force =     0.00000000    0.00000000    0.00000000
     atom   10 type  1   force =    -0.00009562   -0.00003209    0.00024207
     atom   11 type  1   force =     0.00004118   -0.00000000    0.00004118
     atom   12 type  1   force =     0.00024207   -0.00003209   -0.00009562
     atom   13 type  1   force =     0.00000000    0.00000000    0.00000000
     atom   14 type  1   force =    -0.00005427   -0.00028778   -0.00023783
     atom   15 type  1   force =     0.00006419    0.00000000   -0.00006419
     atom   16 type  1   force =    -0.00024207   -0.00003209    0.00009562
     atom   17 type  1   force =     0.00000000    0.00000000    0.00000000
     atom   18 type  1   force =     0.00009562    0.00003209   -0.00024207
     atom   19 type  1   force =     0.00019016    0.00000000   -0.00019016
     atom   20 type  1   force =    -0.00023783    0.00028778   -0.00005427
     atom   21 type  1   force =     0.00000000    0.00000000    0.00000000
     atom   22 type  1   force =     0.00005427    0.00028778    0.00023783
     atom   23 type  1   force =     0.00019598    0.00000000    0.00019598
     atom   24 type  1   force =     0.00023783    0.00028778    0.00005427
     atom   25 type  1   force =     0.00000000    0.00000000    0.00000000
     atom   26 type  1   force =     0.00009562   -0.00003209   -0.00024207
     atom   27 type  1   force =    -0.00006419    0.00000000    0.00006419
     atom   28 type  1   force =    -0.00023783   -0.00028778   -0.00005427
     atom   29 type  1   force =     0.00000000    0.00000000    0.00000000
     atom   30 type  1   force =     0.00005427   -0.00028778    0.00023783
     atom   31 type  1   force =    -0.00004118   -0.00000000   -0.00004118
     atom   32 type  1   force =     0.00023783   -0.00028778    0.00005427

     Total force =     0.001418     Total SCF correction =     0.005313
     SCF correction compared to forces is large: reduce conv_thr to get better values


     Computing stress (Cartesian axis) and pressure

          total   stress  (Ry/bohr**3)                   (kbar)     P=       -4.74
  -0.00003185   0.00000000  -0.00010271           -4.69        0.00      -15.11
   0.00000000  -0.00003292   0.00000000            0.00       -4.84        0.00
  -0.00010271   0.00000000  -0.00003185          -15.11        0.00       -4.69


     Writing output data file /scratch/ntFabIiauHosvNra.save/
 
     init_run     :     47.59s CPU     49.01s WALL (       1 calls)
     electrons    :   1811.39s CPU   1842.80s WALL (       1 calls)
     forces       :     18.35s CPU     18.49s WALL (       1 calls)
     stress       :    113.02s CPU    114.08s WALL (       1 calls)

     Called by init_run:
     wfcinit      :     46.64s CPU     48.00s WALL (       1 calls)
     potinit      :      0.23s CPU      0.25s WALL (       1 calls)
     hinit0       :      0.37s CPU      0.38s WALL (       1 calls)

     Called by electrons:
     c_bands      :   1605.57s CPU   1632.02s WALL (      13 calls)
     sum_band     :    204.05s CPU    208.75s WALL (      13 calls)
     v_of_rho     :      0.18s CPU      0.21s WALL (      13 calls)
     newd         :      0.30s CPU      0.43s WALL (      13 calls)
     PAW_pot      :      1.17s CPU      1.24s WALL (      13 calls)
     mix_rho      :      0.05s CPU      0.07s WALL (      13 calls)

     Called by c_bands:
     init_us_2    :      6.70s CPU      6.87s WALL (    3625 calls)
     cegterg      :   1580.58s CPU   1605.81s WALL (    1625 calls)

     Called by *egterg:
     cdiaghg      :    194.67s CPU    197.46s WALL (    5799 calls)
     h_psi        :    857.14s CPU    873.23s WALL (    6049 calls)
     s_psi        :     55.98s CPU     56.44s WALL (    6049 calls)
     g_psi        :      1.36s CPU      1.38s WALL (    4299 calls)

     Called by h_psi:
     h_psi:calbec :    107.28s CPU    108.30s WALL (    6049 calls)
     vloc_psi     :    691.91s CPU    706.05s WALL (    6049 calls)
     add_vuspsi   :     54.48s CPU     55.37s WALL (    6049 calls)

     General routines
     calbec       :    172.35s CPU    174.04s WALL (    8299 calls)
     fft          :      0.27s CPU      0.29s WALL (     193 calls)
     ffts         :      0.02s CPU      0.02s WALL (      26 calls)
     fftw         :    816.71s CPU    833.52s WALL ( 2870071 calls)
     interpolate  :      0.07s CPU      0.08s WALL (      13 calls)
 
     Parallel routines
     fft_scatt_xy :     49.91s CPU     50.72s WALL ( 2870290 calls)
     fft_scatt_yz :    681.28s CPU    696.06s WALL ( 2870290 calls)
 
     PWSCF        :  33m44.22s CPU  34m23.87s WALL

 
   This run was terminated on:   9: 3:41  25Nov2021            

=------------------------------------------------------------------------------=
   JOB DONE.
=------------------------------------------------------------------------------=
