
     Program PWSCF v.6.7MaX starts on 25Nov2021 at 12: 4:19 

     This program is part of the open-source Quantum ESPRESSO suite
     for quantum simulation of materials; please cite
         "P. Giannozzi et al., J. Phys.:Condens. Matter 21 395502 (2009);
         "P. Giannozzi et al., J. Phys.:Condens. Matter 29 465901 (2017);
          URL http://www.quantum-espresso.org", 
     in publications or presentations arising from this work. More details at
     http://www.quantum-espresso.org/quote

     Parallel version (MPI & OpenMP), running on      72 processor cores
     Number of MPI processes:                72
     Threads/MPI process:                     1

     MPI processes distributed on     1 nodes
     R & G space division:  proc/nbgrp/npool/nimage =      72
     Reading input from /rds/homes/b/bxp912/jobs/20211014_ru_eos/wd/ec/ec_6_004.in
Warning: card &CELL ignored
Warning: card CELL_DYNAMICS = 'BFGS', ignored
Warning: card CELL_FACTOR = 2.0, ignored
Warning: card PRESS = 0.0, ignored
Warning: card / ignored

     Current dimensions of program PWSCF are:
     Max number of different atomic species (ntypx) = 10
     Max number of k-points (npk) =  40000
     Max angular momentum in pseudopotentials (lmaxx) =  3
     file Ru.pbe-spn-kjpaw_psl.1.0.0.UPF: wavefunction(s)  4D renormalized

     Subspace diagonalization in iterative solution of the eigenvalue problem:
     one sub-group per band group will be used
     ELPA distributed-memory algorithm (size of sub-group:  8*  8 procs)

     Found symmetry operation: I + (  0.2500  0.2500  0.0000)
     This is a supercell, fractional translations are disabled
     Message from routine setup:
     using ibrav=0 with symmetry is DISCOURAGED, use correct ibrav instead
 
     Parallelization info
     --------------------
     sticks:   dense  smooth     PW     G-vecs:    dense   smooth      PW
     Min          98      65     17                 6246     3351     475
     Max          99      66     18                 6251     3356     482
     Sum        7109    4689   1281               449887   241413   34437
 


     bravais-lattice index     =            0
     lattice parameter (alat)  =      14.4007  a.u.
     unit-cell volume          =    2986.4454 (a.u.)^3
     number of atoms/cell      =           32
     number of atomic types    =            1
     number of electrons       =       512.00
     number of Kohn-Sham states=          307
     kinetic-energy cutoff     =      71.0000  Ry
     charge density cutoff     =     430.0000  Ry
     scf convergence threshold =      1.0E-06
     mixing beta               =       0.1000
     number of iterations used =           10  plain     mixing
     Exchange-correlation= SLA  PW   PBX  PBC
                           (   1   4   3   4   0   0   0)

     celldm(1)=  14.400742  celldm(2)=   0.000000  celldm(3)=   0.000000
     celldm(4)=   0.000000  celldm(5)=   0.000000  celldm(6)=   0.000000

     crystal axes: (cart. coord. in units of alat)
               a(1) = (   1.000001   0.001875   0.000000 )  
               a(2) = (   0.001875   1.000001   0.000000 )  
               a(3) = (   0.000000   0.000000   1.000001 )  

     reciprocal axes: (cart. coord. in units 2 pi/alat)
               b(1) = (  1.000002 -0.001875  0.000000 )  
               b(2) = ( -0.001875  1.000002  0.000000 )  
               b(3) = (  0.000000  0.000000  0.999999 )  


     PseudoPot. # 1 for Ru read from file:
     /rds/homes/b/bxp912/pp/Ru.pbe-spn-kjpaw_psl.1.0.0.UPF
     MD5 check sum: 0ae1f594dea09af7be8575c3a481d1ae
     Pseudo is Projector augmented-wave + core cor, Zval = 16.0
     Generated using "atomic" code by A. Dal Corso  v.5.1
     Shape of augmentation charge: PSQ
     Using radial grid of 1233 points,  6 beta functions with: 
                l(1) =   0
                l(2) =   0
                l(3) =   1
                l(4) =   1
                l(5) =   2
                l(6) =   2
     Q(r) pseudized with 0 coefficients 


     atomic species   valence    mass     pseudopotential
        Ru            16.00   101.07000     Ru( 1.00)

      8 Sym. Ops., with inversion, found



   Cartesian axes

     site n.     atom                  positions (alat units)
         1           Ru  tau(   1) = (   0.0000000   0.0000000   0.0000000  )
         2           Ru  tau(   2) = (   0.2504690   0.2504690   0.0000000  )
         3           Ru  tau(   3) = (   0.2500003   0.0004688   0.2499998  )
         4           Ru  tau(   4) = (   0.0004688   0.2500003   0.2499998  )
         5           Ru  tau(   5) = (   0.0000000   0.0000000   0.5000006  )
         6           Ru  tau(   6) = (   0.2504680   0.2504680   0.5000006  )
         7           Ru  tau(   7) = (   0.2500003   0.0004688   0.7500004  )
         8           Ru  tau(   8) = (   0.0004688   0.2500003   0.7500004  )
         9           Ru  tau(   9) = (   0.0009375   0.5000008   0.0000000  )
        10           Ru  tau(  10) = (   0.2514065   0.7504700   0.0000000  )
        11           Ru  tau(  11) = (   0.2509367   0.5004695   0.2499987  )
        12           Ru  tau(  12) = (   0.0014063   0.7500013   0.2499998  )
        13           Ru  tau(  13) = (   0.0009375   0.5000008   0.5000006  )
        14           Ru  tau(  14) = (   0.2514055   0.7504711   0.5000006  )
        15           Ru  tau(  15) = (   0.2509367   0.5004695   0.7500014  )
        16           Ru  tau(  16) = (   0.0014063   0.7500013   0.7500004  )
        17           Ru  tau(  17) = (   0.5000008   0.0009375   0.0000000  )
        18           Ru  tau(  18) = (   0.7504700   0.2514065   0.0000000  )
        19           Ru  tau(  19) = (   0.7500013   0.0014063   0.2499998  )
        20           Ru  tau(  20) = (   0.5004695   0.2509367   0.2499987  )
        21           Ru  tau(  21) = (   0.5000008   0.0009375   0.5000006  )
        22           Ru  tau(  22) = (   0.7504711   0.2514055   0.5000006  )
        23           Ru  tau(  23) = (   0.7500013   0.0014063   0.7500004  )
        24           Ru  tau(  24) = (   0.5004695   0.2509367   0.7500014  )
        25           Ru  tau(  25) = (   0.5009383   0.5009383   0.0000000  )
        26           Ru  tau(  26) = (   0.7514076   0.7514076   0.0000000  )
        27           Ru  tau(  27) = (   0.7509399   0.5014071   0.2499987  )
        28           Ru  tau(  28) = (   0.5014071   0.7509399   0.2499987  )
        29           Ru  tau(  29) = (   0.5009383   0.5009383   0.5000006  )
        30           Ru  tau(  30) = (   0.7514086   0.7514086   0.5000006  )
        31           Ru  tau(  31) = (   0.7509399   0.5014071   0.7500014  )
        32           Ru  tau(  32) = (   0.5014071   0.7509399   0.7500014  )

     number of k points=   125  Marzari-Vanderbilt smearing, width (Ry)=  0.0400

     Number of k-points >= 100: set verbosity='high' to print them.

     Dense  grid:   449887 G-vectors     FFT dimensions: (  96,  96,  96)

     Smooth grid:   241413 G-vectors     FFT dimensions: (  80,  80,  80)

     Estimated max dynamical RAM per process >     283.75 MB

     Estimated total dynamical RAM >      19.95 GB

     Check: negative core charge=   -0.000002

     Initial potential from superposition of free atoms

     starting charge  511.97959, renormalised to  512.00000
     Starting wfcs are  320 randomized atomic wfcs
     Checking if some PAW data can be deallocated... 

     total cpu time spent up to now is       47.5 secs

     Self-consistent Calculation

     iteration #  1     ecut=    71.00 Ry     beta= 0.10
     Davidson diagonalization with overlap
     ethr =  1.00E-02,  avg # of iterations =  3.3

     Threshold (ethr) on eigenvalues was too large:
     Diagonalizing with lowered threshold

     Davidson diagonalization with overlap
     ethr =  8.32E-05,  avg # of iterations =  5.7

     total cpu time spent up to now is      362.7 secs

     total energy              =  -13813.41266958 Ry
     estimated scf accuracy    <       0.63834239 Ry

     iteration #  2     ecut=    71.00 Ry     beta= 0.10
     Davidson diagonalization with overlap
     ethr =  1.25E-04,  avg # of iterations =  1.0

     total cpu time spent up to now is      477.7 secs

     total energy              =  -13813.20414918 Ry
     estimated scf accuracy    <       0.39883918 Ry

     iteration #  3     ecut=    71.00 Ry     beta= 0.10
     Davidson diagonalization with overlap
     ethr =  7.79E-05,  avg # of iterations =  2.3

     total cpu time spent up to now is      628.0 secs

     total energy              =  -13813.29985181 Ry
     estimated scf accuracy    <       0.01230867 Ry

     iteration #  4     ecut=    71.00 Ry     beta= 0.10
     Davidson diagonalization with overlap
     c_bands:  1 eigenvalues not converged
     ethr =  2.40E-06,  avg # of iterations =  3.1

     total cpu time spent up to now is      767.5 secs

     total energy              =  -13813.29983198 Ry
     estimated scf accuracy    <       0.00818454 Ry

     iteration #  5     ecut=    71.00 Ry     beta= 0.10
     Davidson diagonalization with overlap
     ethr =  1.60E-06,  avg # of iterations =  1.2

     total cpu time spent up to now is      880.4 secs

     total energy              =  -13813.30122809 Ry
     estimated scf accuracy    <       0.00558750 Ry

     iteration #  6     ecut=    71.00 Ry     beta= 0.10
     Davidson diagonalization with overlap
     ethr =  1.09E-06,  avg # of iterations =  3.6

     total cpu time spent up to now is     1061.6 secs

     total energy              =  -13813.29896793 Ry
     estimated scf accuracy    <       0.01687874 Ry

     iteration #  7     ecut=    71.00 Ry     beta= 0.10
     Davidson diagonalization with overlap
     ethr =  1.09E-06,  avg # of iterations =  2.6

     total cpu time spent up to now is     1216.7 secs

     total energy              =  -13813.30049430 Ry
     estimated scf accuracy    <       0.00097856 Ry

     iteration #  8     ecut=    71.00 Ry     beta= 0.10
     Davidson diagonalization with overlap
     ethr =  1.91E-07,  avg # of iterations =  2.6

     total cpu time spent up to now is     1354.9 secs

     total energy              =  -13813.30059179 Ry
     estimated scf accuracy    <       0.00018272 Ry

     iteration #  9     ecut=    71.00 Ry     beta= 0.10
     Davidson diagonalization with overlap
     ethr =  3.57E-08,  avg # of iterations =  1.5

     total cpu time spent up to now is     1465.7 secs

     total energy              =  -13813.30053151 Ry
     estimated scf accuracy    <       0.00017728 Ry

     iteration # 10     ecut=    71.00 Ry     beta= 0.10
     Davidson diagonalization with overlap
     ethr =  3.46E-08,  avg # of iterations =  2.0

     total cpu time spent up to now is     1597.2 secs

     total energy              =  -13813.30053473 Ry
     estimated scf accuracy    <       0.00003430 Ry

     iteration # 11     ecut=    71.00 Ry     beta= 0.10
     Davidson diagonalization with overlap
     ethr =  6.70E-09,  avg # of iterations =  2.8

     total cpu time spent up to now is     1747.3 secs

     total energy              =  -13813.30053543 Ry
     estimated scf accuracy    <       0.00000475 Ry

     iteration # 12     ecut=    71.00 Ry     beta= 0.10
     Davidson diagonalization with overlap
     ethr =  9.29E-10,  avg # of iterations =  3.8

     total cpu time spent up to now is     1925.5 secs

     total energy              =  -13813.30053778 Ry
     estimated scf accuracy    <       0.00000286 Ry

     iteration # 13     ecut=    71.00 Ry     beta= 0.10
     Davidson diagonalization with overlap
     ethr =  5.58E-10,  avg # of iterations =  2.0

     total cpu time spent up to now is     2059.6 secs

     End of self-consistent calculation

     Number of k-points >= 100: set verbosity='high' to print the bands.

     the Fermi energy is    23.1142 ev

!    total energy              =  -13813.30053941 Ry

     total all-electron energy =   -289989.690879 Ry
     estimated scf accuracy    <       0.00000028 Ry
     smearing contrib. (-TS)   =       0.02042136 Ry
     internal energy E=F+TS    =  -13813.32096078 Ry

     The total energy is F=E-TS. E is the sum of the following terms:
     one-electron contribution =    -995.57117520 Ry
     hartree contribution      =     916.04082574 Ry
     xc contribution           =    -928.06945713 Ry
     ewald contribution        =   -5216.27795688 Ry
     one-center paw contrib.   =   -7589.44319731 Ry

     convergence has been achieved in  13 iterations

     Forces acting on atoms (cartesian axes, Ry/au):

     atom    1 type  1   force =     0.00000000    0.00000000    0.00000000
     atom    2 type  1   force =    -0.00003144   -0.00003144    0.00000000
     atom    3 type  1   force =    -0.00004499    0.00001693   -0.00000213
     atom    4 type  1   force =     0.00001693   -0.00004499   -0.00000213
     atom    5 type  1   force =     0.00000000    0.00000000    0.00000000
     atom    6 type  1   force =     0.00001961    0.00001961    0.00000000
     atom    7 type  1   force =    -0.00004499    0.00001693    0.00000213
     atom    8 type  1   force =     0.00001693   -0.00004499    0.00000213
     atom    9 type  1   force =     0.00000000    0.00000000    0.00000000
     atom   10 type  1   force =    -0.00001568    0.00001568    0.00000000
     atom   11 type  1   force =     0.00005473   -0.00003028    0.00002127
     atom   12 type  1   force =    -0.00001693    0.00004499   -0.00000213
     atom   13 type  1   force =     0.00000000    0.00000000    0.00000000
     atom   14 type  1   force =     0.00000664   -0.00000664    0.00000000
     atom   15 type  1   force =     0.00005473   -0.00003028   -0.00002127
     atom   16 type  1   force =    -0.00001693    0.00004499    0.00000213
     atom   17 type  1   force =     0.00000000    0.00000000    0.00000000
     atom   18 type  1   force =     0.00001568   -0.00001568    0.00000000
     atom   19 type  1   force =     0.00004499   -0.00001693   -0.00000213
     atom   20 type  1   force =    -0.00003028    0.00005473    0.00002127
     atom   21 type  1   force =     0.00000000    0.00000000    0.00000000
     atom   22 type  1   force =    -0.00000664    0.00000664    0.00000000
     atom   23 type  1   force =     0.00004499   -0.00001693    0.00000213
     atom   24 type  1   force =    -0.00003028    0.00005473   -0.00002127
     atom   25 type  1   force =     0.00000000    0.00000000    0.00000000
     atom   26 type  1   force =     0.00003144    0.00003144    0.00000000
     atom   27 type  1   force =    -0.00005473    0.00003028    0.00002127
     atom   28 type  1   force =     0.00003028   -0.00005473    0.00002127
     atom   29 type  1   force =     0.00000000    0.00000000    0.00000000
     atom   30 type  1   force =    -0.00001961   -0.00001961    0.00000000
     atom   31 type  1   force =    -0.00005473    0.00003028   -0.00002127
     atom   32 type  1   force =     0.00003028   -0.00005473   -0.00002127

     Total force =     0.000245     Total SCF correction =     0.000564
     SCF correction compared to forces is large: reduce conv_thr to get better values


     Computing stress (Cartesian axis) and pressure

          total   stress  (Ry/bohr**3)                   (kbar)     P=       -3.45
  -0.00002339  -0.00006186   0.00000000           -3.44       -9.10        0.00
  -0.00006186  -0.00002339   0.00000000           -9.10       -3.44        0.00
   0.00000000   0.00000000  -0.00002366            0.00        0.00       -3.48


     Writing output data file /scratch/eQrRzooyKvNYENmM.save/
 
     init_run     :     43.80s CPU     44.95s WALL (       1 calls)
     electrons    :   1975.41s CPU   2012.09s WALL (       1 calls)
     forces       :     18.04s CPU     18.20s WALL (       1 calls)
     stress       :    112.29s CPU    113.33s WALL (       1 calls)

     Called by init_run:
     wfcinit      :     42.65s CPU     43.72s WALL (       1 calls)
     potinit      :      0.18s CPU      0.20s WALL (       1 calls)
     hinit0       :      0.40s CPU      0.41s WALL (       1 calls)

     Called by electrons:
     c_bands      :   1760.80s CPU   1792.18s WALL (      14 calls)
     sum_band     :    211.97s CPU    217.03s WALL (      14 calls)
     v_of_rho     :      0.68s CPU      0.71s WALL (      14 calls)
     newd         :      0.38s CPU      0.51s WALL (      14 calls)
     PAW_pot      :      1.43s CPU      1.49s WALL (      14 calls)
     mix_rho      :      0.07s CPU      0.08s WALL (      14 calls)

     Called by c_bands:
     init_us_2    :      6.79s CPU      6.99s WALL (    3875 calls)
     cegterg      :   1734.07s CPU   1764.06s WALL (    1750 calls)

     Called by *egterg:
     cdiaghg      :    218.64s CPU    221.49s WALL (    6331 calls)
     h_psi        :    922.97s CPU    939.83s WALL (    6581 calls)
     s_psi        :     61.23s CPU     61.70s WALL (    6581 calls)
     g_psi        :      1.50s CPU      1.52s WALL (    4706 calls)

     Called by h_psi:
     h_psi:calbec :    118.69s CPU    119.91s WALL (    6581 calls)
     vloc_psi     :    741.19s CPU    755.72s WALL (    6581 calls)
     add_vuspsi   :     59.20s CPU     60.27s WALL (    6581 calls)

     General routines
     calbec       :    185.03s CPU    186.98s WALL (    8956 calls)
     fft          :      0.68s CPU      0.70s WALL (     206 calls)
     ffts         :      0.04s CPU      0.04s WALL (      28 calls)
     fftw         :    868.59s CPU    885.92s WALL ( 3194610 calls)
     interpolate  :      0.10s CPU      0.10s WALL (      14 calls)
 
     Parallel routines
     fft_scatt_xy :     55.11s CPU     55.98s WALL ( 3194844 calls)
     fft_scatt_yz :    718.90s CPU    733.99s WALL ( 3194844 calls)
 
     PWSCF        :  36m21.34s CPU  37m 6.01s WALL

 
   This run was terminated on:  12:41:25  25Nov2021            

=------------------------------------------------------------------------------=
   JOB DONE.
=------------------------------------------------------------------------------=
