
     Program PWSCF v.6.7MaX starts on 25Nov2021 at 15:10:46 

     This program is part of the open-source Quantum ESPRESSO suite
     for quantum simulation of materials; please cite
         "P. Giannozzi et al., J. Phys.:Condens. Matter 21 395502 (2009);
         "P. Giannozzi et al., J. Phys.:Condens. Matter 29 465901 (2017);
          URL http://www.quantum-espresso.org", 
     in publications or presentations arising from this work. More details at
     http://www.quantum-espresso.org/quote

     Parallel version (MPI & OpenMP), running on      72 processor cores
     Number of MPI processes:                72
     Threads/MPI process:                     1

     MPI processes distributed on     1 nodes
     R & G space division:  proc/nbgrp/npool/nimage =      72
     Reading input from /rds/homes/b/bxp912/jobs/20211014_ru_eos/wd/ec/ec_6_009.in
Warning: card &CELL ignored
Warning: card CELL_DYNAMICS = 'BFGS', ignored
Warning: card CELL_FACTOR = 2.0, ignored
Warning: card PRESS = 0.0, ignored
Warning: card / ignored

     Current dimensions of program PWSCF are:
     Max number of different atomic species (ntypx) = 10
     Max number of k-points (npk) =  40000
     Max angular momentum in pseudopotentials (lmaxx) =  3
     file Ru.pbe-spn-kjpaw_psl.1.0.0.UPF: wavefunction(s)  4D renormalized

     Subspace diagonalization in iterative solution of the eigenvalue problem:
     one sub-group per band group will be used
     ELPA distributed-memory algorithm (size of sub-group:  8*  8 procs)

     Found symmetry operation: I + (  0.2500  0.2500  0.0000)
     This is a supercell, fractional translations are disabled
     Message from routine setup:
     using ibrav=0 with symmetry is DISCOURAGED, use correct ibrav instead
 
     Parallelization info
     --------------------
     sticks:   dense  smooth     PW     G-vecs:    dense   smooth      PW
     Min          98      65     17                 6244     3351     475
     Max          99      66     18                 6251     3357     482
     Sum        7093    4681   1281               449755   241489   34409
 


     bravais-lattice index     =            0
     lattice parameter (alat)  =      14.4007  a.u.
     unit-cell volume          =    2986.4454 (a.u.)^3
     number of atoms/cell      =           32
     number of atomic types    =            1
     number of electrons       =       512.00
     number of Kohn-Sham states=          307
     kinetic-energy cutoff     =      71.0000  Ry
     charge density cutoff     =     430.0000  Ry
     scf convergence threshold =      1.0E-06
     mixing beta               =       0.1000
     number of iterations used =           10  plain     mixing
     Exchange-correlation= SLA  PW   PBX  PBC
                           (   1   4   3   4   0   0   0)

     celldm(1)=  14.400742  celldm(2)=   0.000000  celldm(3)=   0.000000
     celldm(4)=   0.000000  celldm(5)=   0.000000  celldm(6)=   0.000000

     crystal axes: (cart. coord. in units of alat)
               a(1) = (   1.000008   0.005000   0.000000 )  
               a(2) = (   0.005000   1.000008   0.000000 )  
               a(3) = (   0.000000   0.000000   1.000008 )  

     reciprocal axes: (cart. coord. in units 2 pi/alat)
               b(1) = (  1.000017 -0.005000  0.000000 )  
               b(2) = ( -0.005000  1.000017  0.000000 )  
               b(3) = (  0.000000  0.000000  0.999992 )  


     PseudoPot. # 1 for Ru read from file:
     /rds/homes/b/bxp912/pp/Ru.pbe-spn-kjpaw_psl.1.0.0.UPF
     MD5 check sum: 0ae1f594dea09af7be8575c3a481d1ae
     Pseudo is Projector augmented-wave + core cor, Zval = 16.0
     Generated using "atomic" code by A. Dal Corso  v.5.1
     Shape of augmentation charge: PSQ
     Using radial grid of 1233 points,  6 beta functions with: 
                l(1) =   0
                l(2) =   0
                l(3) =   1
                l(4) =   1
                l(5) =   2
                l(6) =   2
     Q(r) pseudized with 0 coefficients 


     atomic species   valence    mass     pseudopotential
        Ru            16.00   101.07000     Ru( 1.00)

      8 Sym. Ops., with inversion, found



   Cartesian axes

     site n.     atom                  positions (alat units)
         1           Ru  tau(   1) = (   0.0000000   0.0000000   0.0000000  )
         2           Ru  tau(   2) = (   0.2512521   0.2512521   0.0000000  )
         3           Ru  tau(   3) = (   0.2500021   0.0012500   0.2500016  )
         4           Ru  tau(   4) = (   0.0012500   0.2500021   0.2500016  )
         5           Ru  tau(   5) = (   0.0000000   0.0000000   0.5000042  )
         6           Ru  tau(   6) = (   0.2512510   0.2512510   0.5000042  )
         7           Ru  tau(   7) = (   0.2500021   0.0012500   0.7500057  )
         8           Ru  tau(   8) = (   0.0012500   0.2500021   0.7500057  )
         9           Ru  tau(   9) = (   0.0025000   0.5000044   0.0000000  )
        10           Ru  tau(  10) = (   0.2537521   0.7512567   0.0000000  )
        11           Ru  tau(  11) = (   0.2525011   0.5012544   0.2500005  )
        12           Ru  tau(  12) = (   0.0037500   0.7500067   0.2500016  )
        13           Ru  tau(  13) = (   0.0025000   0.5000044   0.5000042  )
        14           Ru  tau(  14) = (   0.2537511   0.7512577   0.5000042  )
        15           Ru  tau(  15) = (   0.2525011   0.5012544   0.7500068  )
        16           Ru  tau(  16) = (   0.0037500   0.7500067   0.7500057  )
        17           Ru  tau(  17) = (   0.5000044   0.0025000   0.0000000  )
        18           Ru  tau(  18) = (   0.7512567   0.2537521   0.0000000  )
        19           Ru  tau(  19) = (   0.7500067   0.0037500   0.2500016  )
        20           Ru  tau(  20) = (   0.5012544   0.2525011   0.2500005  )
        21           Ru  tau(  21) = (   0.5000044   0.0025000   0.5000042  )
        22           Ru  tau(  22) = (   0.7512577   0.2537511   0.5000042  )
        23           Ru  tau(  23) = (   0.7500067   0.0037500   0.7500057  )
        24           Ru  tau(  24) = (   0.5012544   0.2525011   0.7500068  )
        25           Ru  tau(  25) = (   0.5025044   0.5025044   0.0000000  )
        26           Ru  tau(  26) = (   0.7537567   0.7537567   0.0000000  )
        27           Ru  tau(  27) = (   0.7525077   0.5037544   0.2500005  )
        28           Ru  tau(  28) = (   0.5037544   0.7525077   0.2500005  )
        29           Ru  tau(  29) = (   0.5025044   0.5025044   0.5000042  )
        30           Ru  tau(  30) = (   0.7537578   0.7537578   0.5000042  )
        31           Ru  tau(  31) = (   0.7525077   0.5037544   0.7500068  )
        32           Ru  tau(  32) = (   0.5037544   0.7525077   0.7500068  )

     number of k points=   125  Marzari-Vanderbilt smearing, width (Ry)=  0.0400

     Number of k-points >= 100: set verbosity='high' to print them.

     Dense  grid:   449755 G-vectors     FFT dimensions: (  96,  96,  96)

     Smooth grid:   241489 G-vectors     FFT dimensions: (  80,  80,  80)

     Estimated max dynamical RAM per process >     283.76 MB

     Estimated total dynamical RAM >      19.95 GB

     Check: negative core charge=   -0.000002

     Initial potential from superposition of free atoms

     starting charge  511.97959, renormalised to  512.00000
     Starting wfcs are  320 randomized atomic wfcs
     Checking if some PAW data can be deallocated... 

     total cpu time spent up to now is       44.7 secs

     Self-consistent Calculation

     iteration #  1     ecut=    71.00 Ry     beta= 0.10
     Davidson diagonalization with overlap
     ethr =  1.00E-02,  avg # of iterations =  3.4

     Threshold (ethr) on eigenvalues was too large:
     Diagonalizing with lowered threshold

     Davidson diagonalization with overlap
     ethr =  8.32E-05,  avg # of iterations =  5.9

     total cpu time spent up to now is      340.8 secs

     total energy              =  -13813.41049164 Ry
     estimated scf accuracy    <       0.63806075 Ry

     iteration #  2     ecut=    71.00 Ry     beta= 0.10
     Davidson diagonalization with overlap
     ethr =  1.25E-04,  avg # of iterations =  1.0

     total cpu time spent up to now is      441.8 secs

     total energy              =  -13813.20206841 Ry
     estimated scf accuracy    <       0.39867128 Ry

     iteration #  3     ecut=    71.00 Ry     beta= 0.10
     Davidson diagonalization with overlap
     ethr =  7.79E-05,  avg # of iterations =  2.4

     total cpu time spent up to now is      587.4 secs

     total energy              =  -13813.29770944 Ry
     estimated scf accuracy    <       0.01227429 Ry

     iteration #  4     ecut=    71.00 Ry     beta= 0.10
     Davidson diagonalization with overlap
     c_bands:  1 eigenvalues not converged
     ethr =  2.40E-06,  avg # of iterations =  2.7

     total cpu time spent up to now is      710.5 secs

     total energy              =  -13813.29769102 Ry
     estimated scf accuracy    <       0.00819424 Ry

     iteration #  5     ecut=    71.00 Ry     beta= 0.10
     Davidson diagonalization with overlap
     ethr =  1.60E-06,  avg # of iterations =  1.0

     total cpu time spent up to now is      806.2 secs

     total energy              =  -13813.29911515 Ry
     estimated scf accuracy    <       0.00559544 Ry

     iteration #  6     ecut=    71.00 Ry     beta= 0.10
     Davidson diagonalization with overlap
     ethr =  1.09E-06,  avg # of iterations =  3.7

     total cpu time spent up to now is      971.6 secs

     total energy              =  -13813.29674362 Ry
     estimated scf accuracy    <       0.01705522 Ry

     iteration #  7     ecut=    71.00 Ry     beta= 0.10
     Davidson diagonalization with overlap
     ethr =  1.09E-06,  avg # of iterations =  2.6

     total cpu time spent up to now is     1115.3 secs

     total energy              =  -13813.29835104 Ry
     estimated scf accuracy    <       0.00094207 Ry

     iteration #  8     ecut=    71.00 Ry     beta= 0.10
     Davidson diagonalization with overlap
     ethr =  1.84E-07,  avg # of iterations =  2.6

     total cpu time spent up to now is     1238.9 secs

     total energy              =  -13813.29844464 Ry
     estimated scf accuracy    <       0.00018094 Ry

     iteration #  9     ecut=    71.00 Ry     beta= 0.10
     Davidson diagonalization with overlap
     ethr =  3.53E-08,  avg # of iterations =  1.5

     total cpu time spent up to now is     1342.1 secs

     total energy              =  -13813.29839246 Ry
     estimated scf accuracy    <       0.00017581 Ry

     iteration # 10     ecut=    71.00 Ry     beta= 0.10
     Davidson diagonalization with overlap
     ethr =  3.43E-08,  avg # of iterations =  2.0

     total cpu time spent up to now is     1455.1 secs

     total energy              =  -13813.29838975 Ry
     estimated scf accuracy    <       0.00004543 Ry

     iteration # 11     ecut=    71.00 Ry     beta= 0.10
     Davidson diagonalization with overlap
     ethr =  8.87E-09,  avg # of iterations =  2.4

     total cpu time spent up to now is     1575.4 secs

     total energy              =  -13813.29838765 Ry
     estimated scf accuracy    <       0.00000879 Ry

     iteration # 12     ecut=    71.00 Ry     beta= 0.10
     Davidson diagonalization with overlap
     ethr =  1.72E-09,  avg # of iterations =  3.7

     total cpu time spent up to now is     1737.2 secs

     total energy              =  -13813.29839155 Ry
     estimated scf accuracy    <       0.00000243 Ry

     iteration # 13     ecut=    71.00 Ry     beta= 0.10
     Davidson diagonalization with overlap
     ethr =  4.75E-10,  avg # of iterations =  2.0

     total cpu time spent up to now is     1851.7 secs

     End of self-consistent calculation

     Number of k-points >= 100: set verbosity='high' to print the bands.

     the Fermi energy is    23.1144 ev

!    total energy              =  -13813.29839296 Ry

     total all-electron energy =   -289989.688732 Ry
     estimated scf accuracy    <       0.00000040 Ry
     smearing contrib. (-TS)   =       0.02035686 Ry
     internal energy E=F+TS    =  -13813.31874982 Ry

     The total energy is F=E-TS. E is the sum of the following terms:
     one-electron contribution =    -995.66259316 Ry
     hartree contribution      =     916.09110265 Ry
     xc contribution           =    -928.07238870 Ry
     ewald contribution        =   -5216.23159209 Ry
     one-center paw contrib.   =   -7589.44327851 Ry

     convergence has been achieved in  13 iterations

     Forces acting on atoms (cartesian axes, Ry/au):

     atom    1 type  1   force =     0.00000000    0.00000000    0.00000000
     atom    2 type  1   force =    -0.00001796   -0.00001796    0.00000000
     atom    3 type  1   force =    -0.00001911   -0.00000587    0.00000237
     atom    4 type  1   force =    -0.00000587   -0.00001911    0.00000237
     atom    5 type  1   force =     0.00000000    0.00000000    0.00000000
     atom    6 type  1   force =     0.00000905    0.00000905    0.00000000
     atom    7 type  1   force =    -0.00001911   -0.00000587   -0.00000237
     atom    8 type  1   force =    -0.00000587   -0.00001911   -0.00000237
     atom    9 type  1   force =     0.00000000    0.00000000    0.00000000
     atom   10 type  1   force =    -0.00000773    0.00000773    0.00000000
     atom   11 type  1   force =     0.00002505   -0.00000251    0.00001214
     atom   12 type  1   force =     0.00000587    0.00001911    0.00000237
     atom   13 type  1   force =     0.00000000    0.00000000    0.00000000
     atom   14 type  1   force =     0.00000107   -0.00000107    0.00000000
     atom   15 type  1   force =     0.00002505   -0.00000251   -0.00001214
     atom   16 type  1   force =     0.00000587    0.00001911   -0.00000237
     atom   17 type  1   force =     0.00000000    0.00000000    0.00000000
     atom   18 type  1   force =     0.00000773   -0.00000773    0.00000000
     atom   19 type  1   force =     0.00001911    0.00000587    0.00000237
     atom   20 type  1   force =    -0.00000251    0.00002505    0.00001214
     atom   21 type  1   force =     0.00000000    0.00000000    0.00000000
     atom   22 type  1   force =    -0.00000107    0.00000107    0.00000000
     atom   23 type  1   force =     0.00001911    0.00000587   -0.00000237
     atom   24 type  1   force =    -0.00000251    0.00002505   -0.00001214
     atom   25 type  1   force =     0.00000000    0.00000000    0.00000000
     atom   26 type  1   force =     0.00001796    0.00001796    0.00000000
     atom   27 type  1   force =    -0.00002505    0.00000251    0.00001214
     atom   28 type  1   force =     0.00000251   -0.00002505    0.00001214
     atom   29 type  1   force =     0.00000000    0.00000000    0.00000000
     atom   30 type  1   force =    -0.00000905   -0.00000905    0.00000000
     atom   31 type  1   force =    -0.00002505    0.00000251   -0.00001214
     atom   32 type  1   force =     0.00000251   -0.00002505   -0.00001214

     Total force =     0.000107     Total SCF correction =     0.000623
     SCF correction compared to forces is large: reduce conv_thr to get better values


     Computing stress (Cartesian axis) and pressure

          total   stress  (Ry/bohr**3)                   (kbar)     P=       -3.11
  -0.00002030  -0.00016573   0.00000000           -2.99      -24.38        0.00
  -0.00016573  -0.00002030   0.00000000          -24.38       -2.99        0.00
   0.00000000   0.00000000  -0.00002283            0.00        0.00       -3.36


     Writing output data file /scratch/zpblKpHNtGaSRXCI.save/
 
     init_run     :     41.10s CPU     41.97s WALL (       1 calls)
     electrons    :   1779.41s CPU   1807.02s WALL (       1 calls)
     forces       :     18.27s CPU     18.41s WALL (       1 calls)
     stress       :    111.64s CPU    112.71s WALL (       1 calls)

     Called by init_run:
     wfcinit      :     40.45s CPU     41.23s WALL (       1 calls)
     potinit      :      0.21s CPU      0.22s WALL (       1 calls)
     hinit0       :      0.13s CPU      0.14s WALL (       1 calls)

     Called by electrons:
     c_bands      :   1592.21s CPU   1615.76s WALL (      14 calls)
     sum_band     :    185.59s CPU    189.39s WALL (      14 calls)
     v_of_rho     :      0.19s CPU      0.21s WALL (      14 calls)
     newd         :      0.29s CPU      0.45s WALL (      14 calls)
     PAW_pot      :      1.17s CPU      1.24s WALL (      14 calls)
     mix_rho      :      0.06s CPU      0.07s WALL (      14 calls)

     Called by c_bands:
     init_us_2    :      7.55s CPU      7.71s WALL (    3875 calls)
     cegterg      :   1565.33s CPU   1587.68s WALL (    1750 calls)

     Called by *egterg:
     cdiaghg      :    195.91s CPU    198.18s WALL (    6233 calls)
     h_psi        :    848.43s CPU    864.00s WALL (    6483 calls)
     s_psi        :     60.35s CPU     60.81s WALL (    6483 calls)
     g_psi        :      1.52s CPU      1.55s WALL (    4608 calls)

     Called by h_psi:
     h_psi:calbec :    115.63s CPU    116.56s WALL (    6483 calls)
     vloc_psi     :    670.08s CPU    683.69s WALL (    6483 calls)
     add_vuspsi   :     58.74s CPU     59.73s WALL (    6483 calls)

     General routines
     calbec       :    181.01s CPU    182.55s WALL (    8858 calls)
     fft          :      0.33s CPU      0.35s WALL (     206 calls)
     ffts         :      0.02s CPU      0.03s WALL (      28 calls)
     fftw         :    773.48s CPU    788.95s WALL ( 3144464 calls)
     interpolate  :      0.03s CPU      0.04s WALL (      14 calls)
 
     Parallel routines
     fft_scatt_xy :     54.29s CPU     55.15s WALL ( 3144698 calls)
     fft_scatt_yz :    626.32s CPU    639.55s WALL ( 3144698 calls)
 
     PWSCF        :  32m58.30s CPU  33m33.40s WALL

 
   This run was terminated on:  15:44:19  25Nov2021            

=------------------------------------------------------------------------------=
   JOB DONE.
=------------------------------------------------------------------------------=
