
     Program PWSCF v.6.7MaX starts on 25Nov2021 at 11:26:35 

     This program is part of the open-source Quantum ESPRESSO suite
     for quantum simulation of materials; please cite
         "P. Giannozzi et al., J. Phys.:Condens. Matter 21 395502 (2009);
         "P. Giannozzi et al., J. Phys.:Condens. Matter 29 465901 (2017);
          URL http://www.quantum-espresso.org", 
     in publications or presentations arising from this work. More details at
     http://www.quantum-espresso.org/quote

     Parallel version (MPI & OpenMP), running on      72 processor cores
     Number of MPI processes:                72
     Threads/MPI process:                     1

     MPI processes distributed on     1 nodes
     R & G space division:  proc/nbgrp/npool/nimage =      72
     Reading input from /rds/homes/b/bxp912/jobs/20211014_ru_eos/wd/ec/ec_6_003.in
Warning: card &CELL ignored
Warning: card CELL_DYNAMICS = 'BFGS', ignored
Warning: card CELL_FACTOR = 2.0, ignored
Warning: card PRESS = 0.0, ignored
Warning: card / ignored

     Current dimensions of program PWSCF are:
     Max number of different atomic species (ntypx) = 10
     Max number of k-points (npk) =  40000
     Max angular momentum in pseudopotentials (lmaxx) =  3
     file Ru.pbe-spn-kjpaw_psl.1.0.0.UPF: wavefunction(s)  4D renormalized

     Subspace diagonalization in iterative solution of the eigenvalue problem:
     one sub-group per band group will be used
     ELPA distributed-memory algorithm (size of sub-group:  8*  8 procs)

     Found symmetry operation: I + (  0.2500  0.2500  0.0000)
     This is a supercell, fractional translations are disabled
     Message from routine setup:
     using ibrav=0 with symmetry is DISCOURAGED, use correct ibrav instead
 
     Parallelization info
     --------------------
     sticks:   dense  smooth     PW     G-vecs:    dense   smooth      PW
     Min          98      65     17                 6246     3351     475
     Max          99      66     18                 6249     3355     482
     Sum        7109    4689   1281               449823   241377   34461
 


     bravais-lattice index     =            0
     lattice parameter (alat)  =      14.4007  a.u.
     unit-cell volume          =    2986.4454 (a.u.)^3
     number of atoms/cell      =           32
     number of atomic types    =            1
     number of electrons       =       512.00
     number of Kohn-Sham states=          307
     kinetic-energy cutoff     =      71.0000  Ry
     charge density cutoff     =     430.0000  Ry
     scf convergence threshold =      1.0E-06
     mixing beta               =       0.1000
     number of iterations used =           10  plain     mixing
     Exchange-correlation= SLA  PW   PBX  PBC
                           (   1   4   3   4   0   0   0)

     celldm(1)=  14.400742  celldm(2)=   0.000000  celldm(3)=   0.000000
     celldm(4)=   0.000000  celldm(5)=   0.000000  celldm(6)=   0.000000

     crystal axes: (cart. coord. in units of alat)
               a(1) = (   1.000001   0.001250   0.000000 )  
               a(2) = (   0.001250   1.000001   0.000000 )  
               a(3) = (   0.000000   0.000000   1.000001 )  

     reciprocal axes: (cart. coord. in units 2 pi/alat)
               b(1) = (  1.000001 -0.001250  0.000000 )  
               b(2) = ( -0.001250  1.000001  0.000000 )  
               b(3) = (  0.000000  0.000000  0.999999 )  


     PseudoPot. # 1 for Ru read from file:
     /rds/homes/b/bxp912/pp/Ru.pbe-spn-kjpaw_psl.1.0.0.UPF
     MD5 check sum: 0ae1f594dea09af7be8575c3a481d1ae
     Pseudo is Projector augmented-wave + core cor, Zval = 16.0
     Generated using "atomic" code by A. Dal Corso  v.5.1
     Shape of augmentation charge: PSQ
     Using radial grid of 1233 points,  6 beta functions with: 
                l(1) =   0
                l(2) =   0
                l(3) =   1
                l(4) =   1
                l(5) =   2
                l(6) =   2
     Q(r) pseudized with 0 coefficients 


     atomic species   valence    mass     pseudopotential
        Ru            16.00   101.07000     Ru( 1.00)

      8 Sym. Ops., with inversion, found



   Cartesian axes

     site n.     atom                  positions (alat units)
         1           Ru  tau(   1) = (   0.0000000   0.0000000   0.0000000  )
         2           Ru  tau(   2) = (   0.2503126   0.2503126   0.0000000  )
         3           Ru  tau(   3) = (   0.2500001   0.0003125   0.2499996  )
         4           Ru  tau(   4) = (   0.0003125   0.2500001   0.2499996  )
         5           Ru  tau(   5) = (   0.0000000   0.0000000   0.5000003  )
         6           Ru  tau(   6) = (   0.2503116   0.2503116   0.5000003  )
         7           Ru  tau(   7) = (   0.2500001   0.0003125   0.7499999  )
         8           Ru  tau(   8) = (   0.0003125   0.2500001   0.7499999  )
         9           Ru  tau(   9) = (   0.0006250   0.5000005   0.0000000  )
        10           Ru  tau(  10) = (   0.2509376   0.7503133   0.0000000  )
        11           Ru  tau(  11) = (   0.2506241   0.5003130   0.2499986  )
        12           Ru  tau(  12) = (   0.0009375   0.7500008   0.2499996  )
        13           Ru  tau(  13) = (   0.0006250   0.5000005   0.5000003  )
        14           Ru  tau(  14) = (   0.2509366   0.7503144   0.5000003  )
        15           Ru  tau(  15) = (   0.2506241   0.5003130   0.7500009  )
        16           Ru  tau(  16) = (   0.0009375   0.7500008   0.7499999  )
        17           Ru  tau(  17) = (   0.5000005   0.0006250   0.0000000  )
        18           Ru  tau(  18) = (   0.7503133   0.2509376   0.0000000  )
        19           Ru  tau(  19) = (   0.7500008   0.0009375   0.2499996  )
        20           Ru  tau(  20) = (   0.5003130   0.2506241   0.2499986  )
        21           Ru  tau(  21) = (   0.5000005   0.0006250   0.5000003  )
        22           Ru  tau(  22) = (   0.7503144   0.2509366   0.5000003  )
        23           Ru  tau(  23) = (   0.7500008   0.0009375   0.7499999  )
        24           Ru  tau(  24) = (   0.5003130   0.2506241   0.7500009  )
        25           Ru  tau(  25) = (   0.5006255   0.5006255   0.0000000  )
        26           Ru  tau(  26) = (   0.7509383   0.7509383   0.0000000  )
        27           Ru  tau(  27) = (   0.7506269   0.5009380   0.2499986  )
        28           Ru  tau(  28) = (   0.5009380   0.7506269   0.2499986  )
        29           Ru  tau(  29) = (   0.5006255   0.5006255   0.5000003  )
        30           Ru  tau(  30) = (   0.7509394   0.7509394   0.5000003  )
        31           Ru  tau(  31) = (   0.7506269   0.5009380   0.7500009  )
        32           Ru  tau(  32) = (   0.5009380   0.7506269   0.7500009  )

     number of k points=   125  Marzari-Vanderbilt smearing, width (Ry)=  0.0400

     Number of k-points >= 100: set verbosity='high' to print them.

     Dense  grid:   449823 G-vectors     FFT dimensions: (  96,  96,  96)

     Smooth grid:   241377 G-vectors     FFT dimensions: (  80,  80,  80)

     Estimated max dynamical RAM per process >     283.75 MB

     Estimated total dynamical RAM >      19.95 GB

     Check: negative core charge=   -0.000002

     Initial potential from superposition of free atoms

     starting charge  511.97959, renormalised to  512.00000
     Starting wfcs are  320 randomized atomic wfcs
     Checking if some PAW data can be deallocated... 

     total cpu time spent up to now is       52.3 secs

     Self-consistent Calculation

     iteration #  1     ecut=    71.00 Ry     beta= 0.10
     Davidson diagonalization with overlap
     ethr =  1.00E-02,  avg # of iterations =  3.4

     Threshold (ethr) on eigenvalues was too large:
     Diagonalizing with lowered threshold

     Davidson diagonalization with overlap
     ethr =  8.32E-05,  avg # of iterations =  5.6

     total cpu time spent up to now is      364.0 secs

     total energy              =  -13813.41286188 Ry
     estimated scf accuracy    <       0.63848557 Ry

     iteration #  2     ecut=    71.00 Ry     beta= 0.10
     Davidson diagonalization with overlap
     ethr =  1.25E-04,  avg # of iterations =  1.0

     total cpu time spent up to now is      477.3 secs

     total energy              =  -13813.20434843 Ry
     estimated scf accuracy    <       0.39887865 Ry

     iteration #  3     ecut=    71.00 Ry     beta= 0.10
     Davidson diagonalization with overlap
     ethr =  7.79E-05,  avg # of iterations =  2.4

     total cpu time spent up to now is      634.2 secs

     total energy              =  -13813.30004249 Ry
     estimated scf accuracy    <       0.01230026 Ry

     iteration #  4     ecut=    71.00 Ry     beta= 0.10
     Davidson diagonalization with overlap
     c_bands:  1 eigenvalues not converged
     ethr =  2.40E-06,  avg # of iterations =  3.0

     total cpu time spent up to now is      766.2 secs

     total energy              =  -13813.30002633 Ry
     estimated scf accuracy    <       0.00817547 Ry

     iteration #  5     ecut=    71.00 Ry     beta= 0.10
     Davidson diagonalization with overlap
     ethr =  1.60E-06,  avg # of iterations =  1.1

     total cpu time spent up to now is      873.3 secs

     total energy              =  -13813.30140869 Ry
     estimated scf accuracy    <       0.00558613 Ry

     iteration #  6     ecut=    71.00 Ry     beta= 0.10
     Davidson diagonalization with overlap
     ethr =  1.09E-06,  avg # of iterations =  3.7

     total cpu time spent up to now is     1053.3 secs

     total energy              =  -13813.29918889 Ry
     estimated scf accuracy    <       0.01676291 Ry

     iteration #  7     ecut=    71.00 Ry     beta= 0.10
     Davidson diagonalization with overlap
     ethr =  1.09E-06,  avg # of iterations =  2.5

     total cpu time spent up to now is     1210.8 secs

     total energy              =  -13813.30068749 Ry
     estimated scf accuracy    <       0.00098437 Ry

     iteration #  8     ecut=    71.00 Ry     beta= 0.10
     Davidson diagonalization with overlap
     ethr =  1.92E-07,  avg # of iterations =  2.5

     total cpu time spent up to now is     1348.4 secs

     total energy              =  -13813.30078526 Ry
     estimated scf accuracy    <       0.00018176 Ry

     iteration #  9     ecut=    71.00 Ry     beta= 0.10
     Davidson diagonalization with overlap
     ethr =  3.55E-08,  avg # of iterations =  1.6

     total cpu time spent up to now is     1466.4 secs

     total energy              =  -13813.30072046 Ry
     estimated scf accuracy    <       0.00017442 Ry

     iteration # 10     ecut=    71.00 Ry     beta= 0.10
     Davidson diagonalization with overlap
     ethr =  3.41E-08,  avg # of iterations =  2.0

     total cpu time spent up to now is     1605.2 secs

     total energy              =  -13813.30073000 Ry
     estimated scf accuracy    <       0.00002512 Ry

     iteration # 11     ecut=    71.00 Ry     beta= 0.10
     Davidson diagonalization with overlap
     ethr =  4.91E-09,  avg # of iterations =  3.2

     total cpu time spent up to now is     1748.5 secs

     total energy              =  -13813.30073007 Ry
     estimated scf accuracy    <       0.00000408 Ry

     iteration # 12     ecut=    71.00 Ry     beta= 0.10
     Davidson diagonalization with overlap
     ethr =  7.96E-10,  avg # of iterations =  3.8

     total cpu time spent up to now is     1934.3 secs

     total energy              =  -13813.30073205 Ry
     estimated scf accuracy    <       0.00000368 Ry

     iteration # 13     ecut=    71.00 Ry     beta= 0.10
     Davidson diagonalization with overlap
     ethr =  7.19E-10,  avg # of iterations =  2.0

     total cpu time spent up to now is     2066.7 secs

     End of self-consistent calculation

     Number of k-points >= 100: set verbosity='high' to print the bands.

     the Fermi energy is    23.1142 ev

!    total energy              =  -13813.30073388 Ry

     total all-electron energy =   -289989.691073 Ry
     estimated scf accuracy    <       0.00000024 Ry
     smearing contrib. (-TS)   =       0.02042734 Ry
     internal energy E=F+TS    =  -13813.32116123 Ry

     The total energy is F=E-TS. E is the sum of the following terms:
     one-electron contribution =    -995.56198043 Ry
     hartree contribution      =     916.03514096 Ry
     xc contribution           =    -928.06898705 Ry
     ewald contribution        =   -5216.28217152 Ry
     one-center paw contrib.   =   -7589.44316319 Ry

     convergence has been achieved in  13 iterations

     Forces acting on atoms (cartesian axes, Ry/au):

     atom    1 type  1   force =     0.00000000    0.00000000    0.00000000
     atom    2 type  1   force =    -0.00003305   -0.00003305    0.00000000
     atom    3 type  1   force =    -0.00004777    0.00002031   -0.00000297
     atom    4 type  1   force =     0.00002031   -0.00004777   -0.00000297
     atom    5 type  1   force =     0.00000000    0.00000000    0.00000000
     atom    6 type  1   force =     0.00001849    0.00001849   -0.00000000
     atom    7 type  1   force =    -0.00004777    0.00002031    0.00000297
     atom    8 type  1   force =     0.00002031   -0.00004777    0.00000297
     atom    9 type  1   force =     0.00000000    0.00000000    0.00000000
     atom   10 type  1   force =    -0.00001701    0.00001701    0.00000000
     atom   11 type  1   force =     0.00005536   -0.00003348    0.00002094
     atom   12 type  1   force =    -0.00002031    0.00004777   -0.00000297
     atom   13 type  1   force =     0.00000000    0.00000000    0.00000000
     atom   14 type  1   force =     0.00000583   -0.00000583    0.00000000
     atom   15 type  1   force =     0.00005536   -0.00003348   -0.00002094
     atom   16 type  1   force =    -0.00002031    0.00004777    0.00000297
     atom   17 type  1   force =     0.00000000    0.00000000    0.00000000
     atom   18 type  1   force =     0.00001701   -0.00001701    0.00000000
     atom   19 type  1   force =     0.00004777   -0.00002031   -0.00000297
     atom   20 type  1   force =    -0.00003348    0.00005536    0.00002094
     atom   21 type  1   force =     0.00000000    0.00000000    0.00000000
     atom   22 type  1   force =    -0.00000583    0.00000583    0.00000000
     atom   23 type  1   force =     0.00004777   -0.00002031    0.00000297
     atom   24 type  1   force =    -0.00003348    0.00005536   -0.00002094
     atom   25 type  1   force =     0.00000000    0.00000000    0.00000000
     atom   26 type  1   force =     0.00003305    0.00003305    0.00000000
     atom   27 type  1   force =    -0.00005536    0.00003348    0.00002094
     atom   28 type  1   force =     0.00003348   -0.00005536    0.00002094
     atom   29 type  1   force =     0.00000000    0.00000000    0.00000000
     atom   30 type  1   force =    -0.00001849   -0.00001849   -0.00000000
     atom   31 type  1   force =    -0.00005536    0.00003348   -0.00002094
     atom   32 type  1   force =     0.00003348   -0.00005536   -0.00002094

     Total force =     0.000256     Total SCF correction =     0.000596
     SCF correction compared to forces is large: reduce conv_thr to get better values


     Computing stress (Cartesian axis) and pressure

          total   stress  (Ry/bohr**3)                   (kbar)     P=       -3.52
  -0.00002390  -0.00004123   0.00000000           -3.52       -6.07        0.00
  -0.00004123  -0.00002390   0.00000000           -6.07       -3.52        0.00
   0.00000000   0.00000000  -0.00002398            0.00        0.00       -3.53


     Writing output data file /scratch/pdhEXiVFpJkjGMSq.save/
 
     init_run     :     48.79s CPU     49.75s WALL (       1 calls)
     electrons    :   1981.25s CPU   2014.42s WALL (       1 calls)
     forces       :     18.46s CPU     18.61s WALL (       1 calls)
     stress       :    110.39s CPU    111.30s WALL (       1 calls)

     Called by init_run:
     wfcinit      :     48.09s CPU     48.98s WALL (       1 calls)
     potinit      :      0.19s CPU      0.20s WALL (       1 calls)
     hinit0       :      0.13s CPU      0.14s WALL (       1 calls)

     Called by electrons:
     c_bands      :   1767.98s CPU   1796.37s WALL (      14 calls)
     sum_band     :    211.23s CPU    215.73s WALL (      14 calls)
     v_of_rho     :      0.21s CPU      0.22s WALL (      14 calls)
     newd         :      0.35s CPU      0.49s WALL (      14 calls)
     PAW_pot      :      1.24s CPU      1.33s WALL (      14 calls)
     mix_rho      :      0.09s CPU      0.10s WALL (      14 calls)

     Called by c_bands:
     init_us_2    :      7.31s CPU      7.46s WALL (    3875 calls)
     cegterg      :   1741.07s CPU   1768.43s WALL (    1750 calls)

     Called by *egterg:
     cdiaghg      :    219.42s CPU    222.76s WALL (    6363 calls)
     h_psi        :    927.96s CPU    943.93s WALL (    6613 calls)
     s_psi        :     60.67s CPU     61.18s WALL (    6613 calls)
     g_psi        :      1.44s CPU      1.46s WALL (    4738 calls)

     Called by h_psi:
     h_psi:calbec :    117.95s CPU    119.00s WALL (    6613 calls)
     vloc_psi     :    747.40s CPU    761.20s WALL (    6613 calls)
     add_vuspsi   :     58.48s CPU     59.56s WALL (    6613 calls)

     General routines
     calbec       :    186.42s CPU    187.90s WALL (    8988 calls)
     fft          :      0.49s CPU      0.51s WALL (     206 calls)
     ffts         :      0.07s CPU      0.07s WALL (      28 calls)
     fftw         :    871.99s CPU    888.63s WALL ( 3207852 calls)
     interpolate  :      0.19s CPU      0.20s WALL (      14 calls)
 
     Parallel routines
     fft_scatt_xy :     55.68s CPU     56.56s WALL ( 3208086 calls)
     fft_scatt_yz :    721.12s CPU    735.55s WALL ( 3208086 calls)
 
     PWSCF        :  36m28.04s CPU  37m 9.10s WALL

 
   This run was terminated on:  12: 3:44  25Nov2021            

=------------------------------------------------------------------------------=
   JOB DONE.
=------------------------------------------------------------------------------=
