
     Program PWSCF v.6.7MaX starts on 25Nov2021 at 13:58:24 

     This program is part of the open-source Quantum ESPRESSO suite
     for quantum simulation of materials; please cite
         "P. Giannozzi et al., J. Phys.:Condens. Matter 21 395502 (2009);
         "P. Giannozzi et al., J. Phys.:Condens. Matter 29 465901 (2017);
          URL http://www.quantum-espresso.org", 
     in publications or presentations arising from this work. More details at
     http://www.quantum-espresso.org/quote

     Parallel version (MPI & OpenMP), running on      72 processor cores
     Number of MPI processes:                72
     Threads/MPI process:                     1

     MPI processes distributed on     1 nodes
     R & G space division:  proc/nbgrp/npool/nimage =      72
     Reading input from /rds/homes/b/bxp912/jobs/20211014_ru_eos/wd/ec/ec_6_007.in
Warning: card &CELL ignored
Warning: card CELL_DYNAMICS = 'BFGS', ignored
Warning: card CELL_FACTOR = 2.0, ignored
Warning: card PRESS = 0.0, ignored
Warning: card / ignored

     Current dimensions of program PWSCF are:
     Max number of different atomic species (ntypx) = 10
     Max number of k-points (npk) =  40000
     Max angular momentum in pseudopotentials (lmaxx) =  3
     file Ru.pbe-spn-kjpaw_psl.1.0.0.UPF: wavefunction(s)  4D renormalized

     Subspace diagonalization in iterative solution of the eigenvalue problem:
     one sub-group per band group will be used
     ELPA distributed-memory algorithm (size of sub-group:  8*  8 procs)

     Found symmetry operation: I + (  0.2500  0.2500  0.0000)
     This is a supercell, fractional translations are disabled
     Message from routine setup:
     using ibrav=0 with symmetry is DISCOURAGED, use correct ibrav instead
 
     Parallelization info
     --------------------
     sticks:   dense  smooth     PW     G-vecs:    dense   smooth      PW
     Min          98      65     17                 6244     3351     475
     Max          99      66     18                 6251     3357     480
     Sum        7089    4689   1277               449771   241497   34405
 


     bravais-lattice index     =            0
     lattice parameter (alat)  =      14.4007  a.u.
     unit-cell volume          =    2986.4454 (a.u.)^3
     number of atoms/cell      =           32
     number of atomic types    =            1
     number of electrons       =       512.00
     number of Kohn-Sham states=          307
     kinetic-energy cutoff     =      71.0000  Ry
     charge density cutoff     =     430.0000  Ry
     scf convergence threshold =      1.0E-06
     mixing beta               =       0.1000
     number of iterations used =           10  plain     mixing
     Exchange-correlation= SLA  PW   PBX  PBC
                           (   1   4   3   4   0   0   0)

     celldm(1)=  14.400742  celldm(2)=   0.000000  celldm(3)=   0.000000
     celldm(4)=   0.000000  celldm(5)=   0.000000  celldm(6)=   0.000000

     crystal axes: (cart. coord. in units of alat)
               a(1) = (   1.000005   0.003750   0.000000 )  
               a(2) = (   0.003750   1.000005   0.000000 )  
               a(3) = (   0.000000   0.000000   1.000005 )  

     reciprocal axes: (cart. coord. in units 2 pi/alat)
               b(1) = (  1.000009 -0.003750  0.000000 )  
               b(2) = ( -0.003750  1.000009  0.000000 )  
               b(3) = (  0.000000  0.000000  0.999995 )  


     PseudoPot. # 1 for Ru read from file:
     /rds/homes/b/bxp912/pp/Ru.pbe-spn-kjpaw_psl.1.0.0.UPF
     MD5 check sum: 0ae1f594dea09af7be8575c3a481d1ae
     Pseudo is Projector augmented-wave + core cor, Zval = 16.0
     Generated using "atomic" code by A. Dal Corso  v.5.1
     Shape of augmentation charge: PSQ
     Using radial grid of 1233 points,  6 beta functions with: 
                l(1) =   0
                l(2) =   0
                l(3) =   1
                l(4) =   1
                l(5) =   2
                l(6) =   2
     Q(r) pseudized with 0 coefficients 


     atomic species   valence    mass     pseudopotential
        Ru            16.00   101.07000     Ru( 1.00)

      8 Sym. Ops., with inversion, found



   Cartesian axes

     site n.     atom                  positions (alat units)
         1           Ru  tau(   1) = (   0.0000000   0.0000000   0.0000000  )
         2           Ru  tau(   2) = (   0.2509387   0.2509387   0.0000000  )
         3           Ru  tau(   3) = (   0.2500012   0.0009375   0.2500006  )
         4           Ru  tau(   4) = (   0.0009375   0.2500012   0.2500006  )
         5           Ru  tau(   5) = (   0.0000000   0.0000000   0.5000023  )
         6           Ru  tau(   6) = (   0.2509376   0.2509376   0.5000023  )
         7           Ru  tau(   7) = (   0.2500012   0.0009375   0.7500030  )
         8           Ru  tau(   8) = (   0.0009375   0.2500012   0.7500030  )
         9           Ru  tau(   9) = (   0.0018750   0.5000026   0.0000000  )
        10           Ru  tau(  10) = (   0.2528137   0.7509414   0.0000000  )
        11           Ru  tau(  11) = (   0.2518751   0.5009401   0.2499996  )
        12           Ru  tau(  12) = (   0.0028125   0.7500039   0.2500006  )
        13           Ru  tau(  13) = (   0.0018750   0.5000026   0.5000023  )
        14           Ru  tau(  14) = (   0.2528126   0.7509425   0.5000023  )
        15           Ru  tau(  15) = (   0.2518751   0.5009401   0.7500040  )
        16           Ru  tau(  16) = (   0.0028125   0.7500039   0.7500030  )
        17           Ru  tau(  17) = (   0.5000026   0.0018750   0.0000000  )
        18           Ru  tau(  18) = (   0.7509414   0.2528137   0.0000000  )
        19           Ru  tau(  19) = (   0.7500039   0.0028125   0.2500006  )
        20           Ru  tau(  20) = (   0.5009401   0.2518751   0.2499996  )
        21           Ru  tau(  21) = (   0.5000026   0.0018750   0.5000023  )
        22           Ru  tau(  22) = (   0.7509425   0.2528126   0.5000023  )
        23           Ru  tau(  23) = (   0.7500039   0.0028125   0.7500030  )
        24           Ru  tau(  24) = (   0.5009401   0.2518751   0.7500040  )
        25           Ru  tau(  25) = (   0.5018776   0.5018776   0.0000000  )
        26           Ru  tau(  26) = (   0.7528165   0.7528165   0.0000000  )
        27           Ru  tau(  27) = (   0.7518800   0.5028151   0.2499996  )
        28           Ru  tau(  28) = (   0.5028151   0.7518800   0.2499996  )
        29           Ru  tau(  29) = (   0.5018776   0.5018776   0.5000023  )
        30           Ru  tau(  30) = (   0.7528175   0.7528175   0.5000023  )
        31           Ru  tau(  31) = (   0.7518800   0.5028151   0.7500040  )
        32           Ru  tau(  32) = (   0.5028151   0.7518800   0.7500040  )

     number of k points=   125  Marzari-Vanderbilt smearing, width (Ry)=  0.0400

     Number of k-points >= 100: set verbosity='high' to print them.

     Dense  grid:   449771 G-vectors     FFT dimensions: (  96,  96,  96)

     Smooth grid:   241497 G-vectors     FFT dimensions: (  80,  80,  80)

     Estimated max dynamical RAM per process >     283.76 MB

     Estimated total dynamical RAM >      19.95 GB

     Check: negative core charge=   -0.000002

     Initial potential from superposition of free atoms

     starting charge  511.97959, renormalised to  512.00000
     Starting wfcs are  320 randomized atomic wfcs
     Checking if some PAW data can be deallocated... 

     total cpu time spent up to now is       46.6 secs

     Self-consistent Calculation

     iteration #  1     ecut=    71.00 Ry     beta= 0.10
     Davidson diagonalization with overlap
     ethr =  1.00E-02,  avg # of iterations =  3.4

     Threshold (ethr) on eigenvalues was too large:
     Diagonalizing with lowered threshold

     Davidson diagonalization with overlap
     ethr =  8.34E-05,  avg # of iterations =  5.9

     total cpu time spent up to now is      362.2 secs

     total energy              =  -13813.41158926 Ry
     estimated scf accuracy    <       0.63820750 Ry

     iteration #  2     ecut=    71.00 Ry     beta= 0.10
     Davidson diagonalization with overlap
     ethr =  1.25E-04,  avg # of iterations =  1.0

     total cpu time spent up to now is      468.0 secs

     total energy              =  -13813.20308126 Ry
     estimated scf accuracy    <       0.39879106 Ry

     iteration #  3     ecut=    71.00 Ry     beta= 0.10
     Davidson diagonalization with overlap
     ethr =  7.79E-05,  avg # of iterations =  2.3

     total cpu time spent up to now is      615.9 secs

     total energy              =  -13813.29880068 Ry
     estimated scf accuracy    <       0.01230821 Ry

     iteration #  4     ecut=    71.00 Ry     beta= 0.10
     Davidson diagonalization with overlap
     c_bands:  1 eigenvalues not converged
     ethr =  2.40E-06,  avg # of iterations =  2.6

     total cpu time spent up to now is      755.3 secs

     total energy              =  -13813.29877771 Ry
     estimated scf accuracy    <       0.00819210 Ry

     iteration #  5     ecut=    71.00 Ry     beta= 0.10
     Davidson diagonalization with overlap
     ethr =  1.60E-06,  avg # of iterations =  1.0

     total cpu time spent up to now is      869.2 secs

     total energy              =  -13813.30019677 Ry
     estimated scf accuracy    <       0.00559088 Ry

     iteration #  6     ecut=    71.00 Ry     beta= 0.10
     Davidson diagonalization with overlap
     ethr =  1.09E-06,  avg # of iterations =  3.8

     total cpu time spent up to now is     1045.1 secs

     total energy              =  -13813.29785573 Ry
     estimated scf accuracy    <       0.01703402 Ry

     iteration #  7     ecut=    71.00 Ry     beta= 0.10
     Davidson diagonalization with overlap
     ethr =  1.09E-06,  avg # of iterations =  2.6

     total cpu time spent up to now is     1208.1 secs

     total energy              =  -13813.29944028 Ry
     estimated scf accuracy    <       0.00095488 Ry

     iteration #  8     ecut=    71.00 Ry     beta= 0.10
     Davidson diagonalization with overlap
     ethr =  1.87E-07,  avg # of iterations =  2.6

     total cpu time spent up to now is     1335.1 secs

     total energy              =  -13813.29953569 Ry
     estimated scf accuracy    <       0.00018152 Ry

     iteration #  9     ecut=    71.00 Ry     beta= 0.10
     Davidson diagonalization with overlap
     ethr =  3.55E-08,  avg # of iterations =  1.5

     total cpu time spent up to now is     1453.7 secs

     total energy              =  -13813.29947149 Ry
     estimated scf accuracy    <       0.00017717 Ry

     iteration # 10     ecut=    71.00 Ry     beta= 0.10
     Davidson diagonalization with overlap
     ethr =  3.46E-08,  avg # of iterations =  2.0

     total cpu time spent up to now is     1588.5 secs

     total energy              =  -13813.29948065 Ry
     estimated scf accuracy    <       0.00002712 Ry

     iteration # 11     ecut=    71.00 Ry     beta= 0.10
     Davidson diagonalization with overlap
     ethr =  5.30E-09,  avg # of iterations =  2.7

     total cpu time spent up to now is     1718.7 secs

     total energy              =  -13813.29947838 Ry
     estimated scf accuracy    <       0.00000653 Ry

     iteration # 12     ecut=    71.00 Ry     beta= 0.10
     Davidson diagonalization with overlap
     ethr =  1.28E-09,  avg # of iterations =  4.1

     total cpu time spent up to now is     1901.5 secs

     total energy              =  -13813.29948142 Ry
     estimated scf accuracy    <       0.00000404 Ry

     iteration # 13     ecut=    71.00 Ry     beta= 0.10
     Davidson diagonalization with overlap
     ethr =  7.89E-10,  avg # of iterations =  2.0

     total cpu time spent up to now is     2028.6 secs

     End of self-consistent calculation

     Number of k-points >= 100: set verbosity='high' to print the bands.

     the Fermi energy is    23.1143 ev

!    total energy              =  -13813.29948328 Ry

     total all-electron energy =   -289989.689822 Ry
     estimated scf accuracy    <       0.00000025 Ry
     smearing contrib. (-TS)   =       0.02038987 Ry
     internal energy E=F+TS    =  -13813.31987315 Ry

     The total energy is F=E-TS. E is the sum of the following terms:
     one-electron contribution =    -995.61367272 Ry
     hartree contribution      =     916.06246655 Ry
     xc contribution           =    -928.07032359 Ry
     ewald contribution        =   -5216.25519686 Ry
     one-center paw contrib.   =   -7589.44314653 Ry

     convergence has been achieved in  13 iterations

     Forces acting on atoms (cartesian axes, Ry/au):

     atom    1 type  1   force =     0.00000000    0.00000000    0.00000000
     atom    2 type  1   force =    -0.00002095   -0.00002095   -0.00000000
     atom    3 type  1   force =    -0.00002131   -0.00000419    0.00000478
     atom    4 type  1   force =    -0.00000419   -0.00002131    0.00000478
     atom    5 type  1   force =     0.00000000    0.00000000    0.00000000
     atom    6 type  1   force =     0.00000746    0.00000746    0.00000000
     atom    7 type  1   force =    -0.00002131   -0.00000419   -0.00000478
     atom    8 type  1   force =    -0.00000419   -0.00002131   -0.00000478
     atom    9 type  1   force =     0.00000000    0.00000000    0.00000000
     atom   10 type  1   force =    -0.00000971    0.00000971    0.00000000
     atom   11 type  1   force =     0.00002450   -0.00000553    0.00001363
     atom   12 type  1   force =     0.00000419    0.00002131    0.00000478
     atom   13 type  1   force =     0.00000000    0.00000000    0.00000000
     atom   14 type  1   force =    -0.00000097    0.00000097    0.00000000
     atom   15 type  1   force =     0.00002450   -0.00000553   -0.00001363
     atom   16 type  1   force =     0.00000419    0.00002131   -0.00000478
     atom   17 type  1   force =     0.00000000    0.00000000    0.00000000
     atom   18 type  1   force =     0.00000971   -0.00000971    0.00000000
     atom   19 type  1   force =     0.00002131    0.00000419    0.00000478
     atom   20 type  1   force =    -0.00000553    0.00002450    0.00001363
     atom   21 type  1   force =     0.00000000    0.00000000    0.00000000
     atom   22 type  1   force =     0.00000097   -0.00000097    0.00000000
     atom   23 type  1   force =     0.00002131    0.00000419   -0.00000478
     atom   24 type  1   force =    -0.00000553    0.00002450   -0.00001363
     atom   25 type  1   force =     0.00000000    0.00000000    0.00000000
     atom   26 type  1   force =     0.00002095    0.00002095   -0.00000000
     atom   27 type  1   force =    -0.00002450    0.00000553    0.00001363
     atom   28 type  1   force =     0.00000553   -0.00002450    0.00001363
     atom   29 type  1   force =     0.00000000    0.00000000    0.00000000
     atom   30 type  1   force =    -0.00000746   -0.00000746    0.00000000
     atom   31 type  1   force =    -0.00002450    0.00000553   -0.00001363
     atom   32 type  1   force =     0.00000553   -0.00002450   -0.00001363

     Total force =     0.000113     Total SCF correction =     0.000475
     SCF correction compared to forces is large: reduce conv_thr to get better values


     Computing stress (Cartesian axis) and pressure

          total   stress  (Ry/bohr**3)                   (kbar)     P=       -3.40
  -0.00002262  -0.00012407   0.00000000           -3.33      -18.25        0.00
  -0.00012407  -0.00002262   0.00000000          -18.25       -3.33        0.00
   0.00000000   0.00000000  -0.00002400            0.00        0.00       -3.53


     Writing output data file /scratch/ioLOjsfXTBvugNEd.save/
 
     init_run     :     42.57s CPU     43.85s WALL (       1 calls)
     electrons    :   1948.08s CPU   1982.01s WALL (       1 calls)
     forces       :     18.35s CPU     18.50s WALL (       1 calls)
     stress       :    110.08s CPU    111.12s WALL (       1 calls)

     Called by init_run:
     wfcinit      :     41.96s CPU     43.18s WALL (       1 calls)
     potinit      :      0.20s CPU      0.21s WALL (       1 calls)
     hinit0       :      0.12s CPU      0.13s WALL (       1 calls)

     Called by electrons:
     c_bands      :   1740.61s CPU   1770.40s WALL (      14 calls)
     sum_band     :    204.75s CPU    208.60s WALL (      14 calls)
     v_of_rho     :      0.20s CPU      0.22s WALL (      14 calls)
     newd         :      0.70s CPU      0.83s WALL (      14 calls)
     PAW_pot      :      1.36s CPU      1.44s WALL (      14 calls)
     mix_rho      :      0.06s CPU      0.07s WALL (      14 calls)

     Called by c_bands:
     init_us_2    :      7.47s CPU      7.63s WALL (    3875 calls)
     cegterg      :   1713.32s CPU   1742.02s WALL (    1750 calls)

     Called by *egterg:
     cdiaghg      :    217.18s CPU    221.48s WALL (    6317 calls)
     h_psi        :    917.37s CPU    934.69s WALL (    6567 calls)
     s_psi        :     60.98s CPU     61.50s WALL (    6567 calls)
     g_psi        :      1.60s CPU      1.63s WALL (    4692 calls)

     Called by h_psi:
     h_psi:calbec :    120.34s CPU    121.50s WALL (    6567 calls)
     vloc_psi     :    733.69s CPU    748.77s WALL (    6567 calls)
     add_vuspsi   :     59.26s CPU     60.28s WALL (    6567 calls)

     General routines
     calbec       :    190.11s CPU    191.91s WALL (    8942 calls)
     fft          :      0.77s CPU      0.80s WALL (     206 calls)
     ffts         :      0.03s CPU      0.03s WALL (      28 calls)
     fftw         :    852.95s CPU    870.08s WALL ( 3188970 calls)
     interpolate  :      0.35s CPU      0.36s WALL (      14 calls)
 
     Parallel routines
     fft_scatt_xy :     55.90s CPU     56.83s WALL ( 3189204 calls)
     fft_scatt_yz :    702.67s CPU    717.50s WALL ( 3189204 calls)
 
     PWSCF        :  35m48.36s CPU  36m30.24s WALL

 
   This run was terminated on:  14:34:54  25Nov2021            

=------------------------------------------------------------------------------=
   JOB DONE.
=------------------------------------------------------------------------------=
