
     Program PWSCF v.6.7MaX starts on 25Nov2021 at 17:54:27 

     This program is part of the open-source Quantum ESPRESSO suite
     for quantum simulation of materials; please cite
         "P. Giannozzi et al., J. Phys.:Condens. Matter 21 395502 (2009);
         "P. Giannozzi et al., J. Phys.:Condens. Matter 29 465901 (2017);
          URL http://www.quantum-espresso.org", 
     in publications or presentations arising from this work. More details at
     http://www.quantum-espresso.org/quote

     Parallel version (MPI & OpenMP), running on      72 processor cores
     Number of MPI processes:                72
     Threads/MPI process:                     1

     MPI processes distributed on     1 nodes
     R & G space division:  proc/nbgrp/npool/nimage =      72
     Reading input from /rds/homes/b/bxp912/jobs/20211014_ru_eos/wd/ec/ec_7_006.in
Warning: card &CELL ignored
Warning: card CELL_DYNAMICS = 'BFGS', ignored
Warning: card CELL_FACTOR = 2.0, ignored
Warning: card PRESS = 0.0, ignored
Warning: card / ignored

     Current dimensions of program PWSCF are:
     Max number of different atomic species (ntypx) = 10
     Max number of k-points (npk) =  40000
     Max angular momentum in pseudopotentials (lmaxx) =  3
     file Ru.pbe-spn-kjpaw_psl.1.0.0.UPF: wavefunction(s)  4D renormalized

     Subspace diagonalization in iterative solution of the eigenvalue problem:
     one sub-group per band group will be used
     ELPA distributed-memory algorithm (size of sub-group:  8*  8 procs)

     Found symmetry operation: I + (  0.2500  0.2500  0.0000)
     This is a supercell, fractional translations are disabled
     Message from routine setup:
     using ibrav=0 with symmetry is DISCOURAGED, use correct ibrav instead
 
     Parallelization info
     --------------------
     sticks:   dense  smooth     PW     G-vecs:    dense   smooth      PW
     Min          98      65     17                 6244     3351     475
     Max          99      66     18                 6249     3356     482
     Sum        7105    4689   1285               449747   241465   34425
 


     bravais-lattice index     =            0
     lattice parameter (alat)  =      14.4007  a.u.
     unit-cell volume          =    2986.4454 (a.u.)^3
     number of atoms/cell      =           32
     number of atomic types    =            1
     number of electrons       =       512.00
     number of Kohn-Sham states=          307
     kinetic-energy cutoff     =      71.0000  Ry
     charge density cutoff     =     430.0000  Ry
     scf convergence threshold =      1.0E-06
     mixing beta               =       0.1000
     number of iterations used =           10  plain     mixing
     Exchange-correlation= SLA  PW   PBX  PBC
                           (   1   4   3   4   0   0   0)

     celldm(1)=  14.400742  celldm(2)=   0.000000  celldm(3)=   0.000000
     celldm(4)=   0.000000  celldm(5)=   0.000000  celldm(6)=   0.000000

     crystal axes: (cart. coord. in units of alat)
               a(1) = (   1.003128   0.000000   0.000000 )  
               a(2) = (   0.000000   0.996878   0.000000 )  
               a(3) = (   0.000000   0.000000   1.000003 )  

     reciprocal axes: (cart. coord. in units 2 pi/alat)
               b(1) = (  0.996881  0.000000  0.000000 )  
               b(2) = (  0.000000  1.003132  0.000000 )  
               b(3) = (  0.000000  0.000000  0.999997 )  


     PseudoPot. # 1 for Ru read from file:
     /rds/homes/b/bxp912/pp/Ru.pbe-spn-kjpaw_psl.1.0.0.UPF
     MD5 check sum: 0ae1f594dea09af7be8575c3a481d1ae
     Pseudo is Projector augmented-wave + core cor, Zval = 16.0
     Generated using "atomic" code by A. Dal Corso  v.5.1
     Shape of augmentation charge: PSQ
     Using radial grid of 1233 points,  6 beta functions with: 
                l(1) =   0
                l(2) =   0
                l(3) =   1
                l(4) =   1
                l(5) =   2
                l(6) =   2
     Q(r) pseudized with 0 coefficients 


     atomic species   valence    mass     pseudopotential
        Ru            16.00   101.07000     Ru( 1.00)

      8 Sym. Ops., with inversion, found



   Cartesian axes

     site n.     atom                  positions (alat units)
         1           Ru  tau(   1) = (   0.0000000   0.0000000   0.0000000  )
         2           Ru  tau(   2) = (   0.2507821   0.2492196   0.0000000  )
         3           Ru  tau(   3) = (   0.2507821   0.0000000   0.2500003  )
         4           Ru  tau(   4) = (   0.0000000   0.2492196   0.2500003  )
         5           Ru  tau(   5) = (   0.0000000   0.0000000   0.5000016  )
         6           Ru  tau(   6) = (   0.2507810   0.2492185   0.5000016  )
         7           Ru  tau(   7) = (   0.2507821   0.0000000   0.7500019  )
         8           Ru  tau(   8) = (   0.0000000   0.2492196   0.7500019  )
         9           Ru  tau(   9) = (   0.0000000   0.4984393   0.0000000  )
        10           Ru  tau(  10) = (   0.2507821   0.7476591   0.0000000  )
        11           Ru  tau(  11) = (   0.2507810   0.4984393   0.2499992  )
        12           Ru  tau(  12) = (   0.0000000   0.7476591   0.2500003  )
        13           Ru  tau(  13) = (   0.0000000   0.4984393   0.5000016  )
        14           Ru  tau(  14) = (   0.2507810   0.7476601   0.5000016  )
        15           Ru  tau(  15) = (   0.2507810   0.4984393   0.7500030  )
        16           Ru  tau(  16) = (   0.0000000   0.7476591   0.7500019  )
        17           Ru  tau(  17) = (   0.5015643   0.0000000   0.0000000  )
        18           Ru  tau(  18) = (   0.7523466   0.2492196   0.0000000  )
        19           Ru  tau(  19) = (   0.7523466   0.0000000   0.2500003  )
        20           Ru  tau(  20) = (   0.5015643   0.2492185   0.2499992  )
        21           Ru  tau(  21) = (   0.5015643   0.0000000   0.5000016  )
        22           Ru  tau(  22) = (   0.7523477   0.2492185   0.5000016  )
        23           Ru  tau(  23) = (   0.7523466   0.0000000   0.7500019  )
        24           Ru  tau(  24) = (   0.5015643   0.2492185   0.7500030  )
        25           Ru  tau(  25) = (   0.5015643   0.4984393   0.0000000  )
        26           Ru  tau(  26) = (   0.7523466   0.7476591   0.0000000  )
        27           Ru  tau(  27) = (   0.7523477   0.4984393   0.2499992  )
        28           Ru  tau(  28) = (   0.5015643   0.7476601   0.2499992  )
        29           Ru  tau(  29) = (   0.5015643   0.4984393   0.5000016  )
        30           Ru  tau(  30) = (   0.7523477   0.7476601   0.5000016  )
        31           Ru  tau(  31) = (   0.7523477   0.4984393   0.7500030  )
        32           Ru  tau(  32) = (   0.5015643   0.7476601   0.7500030  )

     number of k points=   125  Marzari-Vanderbilt smearing, width (Ry)=  0.0400

     Number of k-points >= 100: set verbosity='high' to print them.

     Dense  grid:   449747 G-vectors     FFT dimensions: (  96,  96,  96)

     Smooth grid:   241465 G-vectors     FFT dimensions: (  80,  80,  80)

     Estimated max dynamical RAM per process >     283.75 MB

     Estimated total dynamical RAM >      19.95 GB

     Check: negative core charge=   -0.000002

     Initial potential from superposition of free atoms

     starting charge  511.97959, renormalised to  512.00000
     Starting wfcs are  320 randomized atomic wfcs
     Checking if some PAW data can be deallocated... 

     total cpu time spent up to now is       43.7 secs

     Self-consistent Calculation

     iteration #  1     ecut=    71.00 Ry     beta= 0.10
     Davidson diagonalization with overlap
     ethr =  1.00E-02,  avg # of iterations =  3.4

     Threshold (ethr) on eigenvalues was too large:
     Diagonalizing with lowered threshold

     Davidson diagonalization with overlap
     ethr =  8.34E-05,  avg # of iterations =  5.6

     total cpu time spent up to now is      331.6 secs

     total energy              =  -13813.41251066 Ry
     estimated scf accuracy    <       0.63857594 Ry

     iteration #  2     ecut=    71.00 Ry     beta= 0.10
     Davidson diagonalization with overlap
     ethr =  1.25E-04,  avg # of iterations =  1.0

     total cpu time spent up to now is      436.2 secs

     total energy              =  -13813.20856986 Ry
     estimated scf accuracy    <       0.39921684 Ry

     iteration #  3     ecut=    71.00 Ry     beta= 0.10
     Davidson diagonalization with overlap
     ethr =  7.80E-05,  avg # of iterations =  2.2

     total cpu time spent up to now is      569.0 secs

     total energy              =  -13813.29807573 Ry
     estimated scf accuracy    <       0.05251511 Ry

     iteration #  4     ecut=    71.00 Ry     beta= 0.10
     Davidson diagonalization with overlap
     ethr =  1.03E-05,  avg # of iterations =  2.1

     total cpu time spent up to now is      678.2 secs

     total energy              =  -13813.29958797 Ry
     estimated scf accuracy    <       0.00884464 Ry

     iteration #  5     ecut=    71.00 Ry     beta= 0.10
     Davidson diagonalization with overlap
     ethr =  1.73E-06,  avg # of iterations =  2.3

     total cpu time spent up to now is      784.0 secs

     total energy              =  -13813.30043645 Ry
     estimated scf accuracy    <       0.00562176 Ry

     iteration #  6     ecut=    71.00 Ry     beta= 0.10
     Davidson diagonalization with overlap
     ethr =  1.10E-06,  avg # of iterations =  3.5

     total cpu time spent up to now is     1061.1 secs

     total energy              =  -13813.30033612 Ry
     estimated scf accuracy    <       0.01332302 Ry

     iteration #  7     ecut=    71.00 Ry     beta= 0.10
     Davidson diagonalization with overlap
     ethr =  1.10E-06,  avg # of iterations =  2.1

     total cpu time spent up to now is     1190.3 secs

     total energy              =  -13813.30026382 Ry
     estimated scf accuracy    <       0.00256242 Ry

     iteration #  8     ecut=    71.00 Ry     beta= 0.10
     Davidson diagonalization with overlap
     ethr =  5.00E-07,  avg # of iterations =  2.2

     total cpu time spent up to now is     1310.0 secs

     total energy              =  -13813.30039691 Ry
     estimated scf accuracy    <       0.00032281 Ry

     iteration #  9     ecut=    71.00 Ry     beta= 0.10
     Davidson diagonalization with overlap
     ethr =  6.30E-08,  avg # of iterations =  2.4

     total cpu time spent up to now is     1424.5 secs

     total energy              =  -13813.30036321 Ry
     estimated scf accuracy    <       0.00010158 Ry

     iteration # 10     ecut=    71.00 Ry     beta= 0.10
     Davidson diagonalization with overlap
     ethr =  1.98E-08,  avg # of iterations =  3.3

     total cpu time spent up to now is     1573.7 secs

     total energy              =  -13813.30039034 Ry
     estimated scf accuracy    <       0.00000366 Ry

     iteration # 11     ecut=    71.00 Ry     beta= 0.10
     Davidson diagonalization with overlap
     ethr =  7.15E-10,  avg # of iterations =  2.9

     total cpu time spent up to now is     1699.2 secs

     total energy              =  -13813.30039131 Ry
     estimated scf accuracy    <       0.00000119 Ry

     iteration # 12     ecut=    71.00 Ry     beta= 0.10
     Davidson diagonalization with overlap
     ethr =  2.32E-10,  avg # of iterations =  2.0

     total cpu time spent up to now is     1809.7 secs

     End of self-consistent calculation

     Number of k-points >= 100: set verbosity='high' to print the bands.

     the Fermi energy is    23.1145 ev

!    total energy              =  -13813.30039277 Ry

     total all-electron energy =   -289989.690732 Ry
     estimated scf accuracy    <       0.00000079 Ry
     smearing contrib. (-TS)   =       0.02051435 Ry
     internal energy E=F+TS    =  -13813.32090711 Ry

     The total energy is F=E-TS. E is the sum of the following terms:
     one-electron contribution =    -995.54266618 Ry
     hartree contribution      =     916.01081817 Ry
     xc contribution           =    -928.06433393 Ry
     ewald contribution        =   -5216.28319181 Ry
     one-center paw contrib.   =   -7589.44153336 Ry

     convergence has been achieved in  12 iterations

     Forces acting on atoms (cartesian axes, Ry/au):

     atom    1 type  1   force =     0.00000000    0.00000000    0.00000000
     atom    2 type  1   force =    -0.00018399    0.00005898   -0.00000000
     atom    3 type  1   force =    -0.00036254    0.00000000   -0.00030080
     atom    4 type  1   force =     0.00000000    0.00002760   -0.00014906
     atom    5 type  1   force =     0.00000000    0.00000000    0.00000000
     atom    6 type  1   force =    -0.00015981    0.00040555   -0.00000000
     atom    7 type  1   force =    -0.00036254    0.00000000    0.00030080
     atom    8 type  1   force =     0.00000000    0.00002760    0.00014906
     atom    9 type  1   force =     0.00000000    0.00000000    0.00000000
     atom   10 type  1   force =    -0.00018399   -0.00005898    0.00000000
     atom   11 type  1   force =     0.00003579    0.00000000    0.00002963
     atom   12 type  1   force =     0.00000000   -0.00002760   -0.00014906
     atom   13 type  1   force =     0.00000000    0.00000000    0.00000000
     atom   14 type  1   force =    -0.00015981   -0.00040555    0.00000000
     atom   15 type  1   force =     0.00003579    0.00000000   -0.00002963
     atom   16 type  1   force =     0.00000000   -0.00002760    0.00014906
     atom   17 type  1   force =     0.00000000    0.00000000    0.00000000
     atom   18 type  1   force =     0.00018399    0.00005898    0.00000000
     atom   19 type  1   force =     0.00036254    0.00000000   -0.00030080
     atom   20 type  1   force =     0.00000000    0.00044327   -0.00012722
     atom   21 type  1   force =     0.00000000    0.00000000    0.00000000
     atom   22 type  1   force =     0.00015981    0.00040555    0.00000000
     atom   23 type  1   force =     0.00036254    0.00000000    0.00030080
     atom   24 type  1   force =     0.00000000    0.00044327    0.00012722
     atom   25 type  1   force =     0.00000000    0.00000000    0.00000000
     atom   26 type  1   force =     0.00018399   -0.00005898   -0.00000000
     atom   27 type  1   force =    -0.00003579    0.00000000    0.00002963
     atom   28 type  1   force =     0.00000000   -0.00044327   -0.00012722
     atom   29 type  1   force =     0.00000000    0.00000000    0.00000000
     atom   30 type  1   force =     0.00015981   -0.00040555   -0.00000000
     atom   31 type  1   force =    -0.00003579    0.00000000   -0.00002963
     atom   32 type  1   force =     0.00000000   -0.00044327    0.00012722

     Total force =     0.001658     Total SCF correction =     0.006794
     SCF correction compared to forces is large: reduce conv_thr to get better values


     Computing stress (Cartesian axis) and pressure

          total   stress  (Ry/bohr**3)                   (kbar)     P=       -4.87
  -0.00008696   0.00000000   0.00000000          -12.79        0.00        0.00
   0.00000000   0.00002067   0.00000000            0.00        3.04        0.00
   0.00000000   0.00000000  -0.00003302            0.00        0.00       -4.86


     Writing output data file /scratch/ThVanSYGYwlwrruk.save/
 
     init_run     :     40.25s CPU     40.99s WALL (       1 calls)
     electrons    :   1627.83s CPU   1766.11s WALL (       1 calls)
     forces       :     18.02s CPU     18.17s WALL (       1 calls)
     stress       :    111.81s CPU    113.24s WALL (       1 calls)

     Called by init_run:
     wfcinit      :     39.46s CPU     40.14s WALL (       1 calls)
     potinit      :      0.19s CPU      0.21s WALL (       1 calls)
     hinit0       :      0.21s CPU      0.21s WALL (       1 calls)

     Called by electrons:
     c_bands      :   1444.20s CPU   1578.82s WALL (      13 calls)
     sum_band     :    182.13s CPU    185.51s WALL (      13 calls)
     v_of_rho     :      0.19s CPU      0.20s WALL (      13 calls)
     newd         :      0.29s CPU      0.42s WALL (      13 calls)
     PAW_pot      :      1.06s CPU      1.14s WALL (      13 calls)
     mix_rho      :      0.05s CPU      0.07s WALL (      13 calls)

     Called by c_bands:
     init_us_2    :      6.77s CPU      6.93s WALL (    3625 calls)
     cegterg      :   1419.71s CPU   1439.37s WALL (    1625 calls)

     Called by *egterg:
     cdiaghg      :    172.42s CPU    174.54s WALL (    5869 calls)
     h_psi        :    777.95s CPU    790.51s WALL (    6119 calls)
     s_psi        :     54.68s CPU     55.09s WALL (    6119 calls)
     g_psi        :      1.22s CPU      1.25s WALL (    4369 calls)

     Called by h_psi:
     h_psi:calbec :    104.60s CPU    105.38s WALL (    6119 calls)
     vloc_psi     :    616.65s CPU    627.54s WALL (    6119 calls)
     add_vuspsi   :     53.24s CPU     54.09s WALL (    6119 calls)

     General routines
     calbec       :    169.86s CPU    171.07s WALL (    8369 calls)
     fft          :      0.22s CPU      0.24s WALL (     193 calls)
     ffts         :      0.02s CPU      0.02s WALL (      26 calls)
     fftw         :    721.83s CPU    734.30s WALL ( 2887897 calls)
     interpolate  :      0.03s CPU      0.04s WALL (      13 calls)
 
     Parallel routines
     fft_scatt_xy :     50.39s CPU     51.23s WALL ( 2888116 calls)
     fft_scatt_yz :    585.19s CPU    595.59s WALL ( 2888116 calls)
 
     PWSCF        :  30m25.60s CPU  32m52.10s WALL

 
   This run was terminated on:  18:27:19  25Nov2021            

=------------------------------------------------------------------------------=
   JOB DONE.
=------------------------------------------------------------------------------=
