
     Program PWSCF v.6.7MaX starts on 25Nov2021 at 19:32:28 

     This program is part of the open-source Quantum ESPRESSO suite
     for quantum simulation of materials; please cite
         "P. Giannozzi et al., J. Phys.:Condens. Matter 21 395502 (2009);
         "P. Giannozzi et al., J. Phys.:Condens. Matter 29 465901 (2017);
          URL http://www.quantum-espresso.org", 
     in publications or presentations arising from this work. More details at
     http://www.quantum-espresso.org/quote

     Parallel version (MPI & OpenMP), running on      72 processor cores
     Number of MPI processes:                72
     Threads/MPI process:                     1

     MPI processes distributed on     1 nodes
     R & G space division:  proc/nbgrp/npool/nimage =      72
     Reading input from /rds/homes/b/bxp912/jobs/20211014_ru_eos/wd/ec/ec_7_009.in
Warning: card &CELL ignored
Warning: card CELL_DYNAMICS = 'BFGS', ignored
Warning: card CELL_FACTOR = 2.0, ignored
Warning: card PRESS = 0.0, ignored
Warning: card / ignored

     Current dimensions of program PWSCF are:
     Max number of different atomic species (ntypx) = 10
     Max number of k-points (npk) =  40000
     Max angular momentum in pseudopotentials (lmaxx) =  3
     file Ru.pbe-spn-kjpaw_psl.1.0.0.UPF: wavefunction(s)  4D renormalized

     Subspace diagonalization in iterative solution of the eigenvalue problem:
     one sub-group per band group will be used
     ELPA distributed-memory algorithm (size of sub-group:  8*  8 procs)

     Found symmetry operation: I + (  0.2500  0.2500  0.0000)
     This is a supercell, fractional translations are disabled
     Message from routine setup:
     using ibrav=0 with symmetry is DISCOURAGED, use correct ibrav instead
 
     Parallelization info
     --------------------
     sticks:   dense  smooth     PW     G-vecs:    dense   smooth      PW
     Min          98      65     17                 6244     3351     475
     Max          99      66     18                 6249     3355     482
     Sum        7097    4685   1281               449711   241457   34445
 


     bravais-lattice index     =            0
     lattice parameter (alat)  =      14.4007  a.u.
     unit-cell volume          =    2986.4454 (a.u.)^3
     number of atoms/cell      =           32
     number of atomic types    =            1
     number of electrons       =       512.00
     number of Kohn-Sham states=          307
     kinetic-energy cutoff     =      71.0000  Ry
     charge density cutoff     =     430.0000  Ry
     scf convergence threshold =      1.0E-06
     mixing beta               =       0.1000
     number of iterations used =           10  plain     mixing
     Exchange-correlation= SLA  PW   PBX  PBC
                           (   1   4   3   4   0   0   0)

     celldm(1)=  14.400742  celldm(2)=   0.000000  celldm(3)=   0.000000
     celldm(4)=   0.000000  celldm(5)=   0.000000  celldm(6)=   0.000000

     crystal axes: (cart. coord. in units of alat)
               a(1) = (   1.005008   0.000000   0.000000 )  
               a(2) = (   0.000000   0.995008   0.000000 )  
               a(3) = (   0.000000   0.000000   1.000008 )  

     reciprocal axes: (cart. coord. in units 2 pi/alat)
               b(1) = (  0.995017  0.000000  0.000000 )  
               b(2) = (  0.000000  1.005017  0.000000 )  
               b(3) = (  0.000000  0.000000  0.999992 )  


     PseudoPot. # 1 for Ru read from file:
     /rds/homes/b/bxp912/pp/Ru.pbe-spn-kjpaw_psl.1.0.0.UPF
     MD5 check sum: 0ae1f594dea09af7be8575c3a481d1ae
     Pseudo is Projector augmented-wave + core cor, Zval = 16.0
     Generated using "atomic" code by A. Dal Corso  v.5.1
     Shape of augmentation charge: PSQ
     Using radial grid of 1233 points,  6 beta functions with: 
                l(1) =   0
                l(2) =   0
                l(3) =   1
                l(4) =   1
                l(5) =   2
                l(6) =   2
     Q(r) pseudized with 0 coefficients 


     atomic species   valence    mass     pseudopotential
        Ru            16.00   101.07000     Ru( 1.00)

      8 Sym. Ops., with inversion, found



   Cartesian axes

     site n.     atom                  positions (alat units)
         1           Ru  tau(   1) = (   0.0000000   0.0000000   0.0000000  )
         2           Ru  tau(   2) = (   0.2512521   0.2487521   0.0000000  )
         3           Ru  tau(   3) = (   0.2512521   0.0000000   0.2500016  )
         4           Ru  tau(   4) = (   0.0000000   0.2487521   0.2500016  )
         5           Ru  tau(   5) = (   0.0000000   0.0000000   0.5000042  )
         6           Ru  tau(   6) = (   0.2512510   0.2487510   0.5000042  )
         7           Ru  tau(   7) = (   0.2512521   0.0000000   0.7500057  )
         8           Ru  tau(   8) = (   0.0000000   0.2487521   0.7500057  )
         9           Ru  tau(   9) = (   0.0000000   0.4975044   0.0000000  )
        10           Ru  tau(  10) = (   0.2512521   0.7462566   0.0000000  )
        11           Ru  tau(  11) = (   0.2512510   0.4975044   0.2500005  )
        12           Ru  tau(  12) = (   0.0000000   0.7462566   0.2500016  )
        13           Ru  tau(  13) = (   0.0000000   0.4975044   0.5000042  )
        14           Ru  tau(  14) = (   0.2512510   0.7462577   0.5000042  )
        15           Ru  tau(  15) = (   0.2512510   0.4975044   0.7500068  )
        16           Ru  tau(  16) = (   0.0000000   0.7462566   0.7500057  )
        17           Ru  tau(  17) = (   0.5025044   0.0000000   0.0000000  )
        18           Ru  tau(  18) = (   0.7537567   0.2487521   0.0000000  )
        19           Ru  tau(  19) = (   0.7537567   0.0000000   0.2500016  )
        20           Ru  tau(  20) = (   0.5025044   0.2487510   0.2500005  )
        21           Ru  tau(  21) = (   0.5025044   0.0000000   0.5000042  )
        22           Ru  tau(  22) = (   0.7537578   0.2487510   0.5000042  )
        23           Ru  tau(  23) = (   0.7537567   0.0000000   0.7500057  )
        24           Ru  tau(  24) = (   0.5025044   0.2487510   0.7500068  )
        25           Ru  tau(  25) = (   0.5025044   0.4975044   0.0000000  )
        26           Ru  tau(  26) = (   0.7537567   0.7462566   0.0000000  )
        27           Ru  tau(  27) = (   0.7537578   0.4975044   0.2500005  )
        28           Ru  tau(  28) = (   0.5025044   0.7462577   0.2500005  )
        29           Ru  tau(  29) = (   0.5025044   0.4975044   0.5000042  )
        30           Ru  tau(  30) = (   0.7537578   0.7462577   0.5000042  )
        31           Ru  tau(  31) = (   0.7537578   0.4975044   0.7500068  )
        32           Ru  tau(  32) = (   0.5025044   0.7462577   0.7500068  )

     number of k points=   125  Marzari-Vanderbilt smearing, width (Ry)=  0.0400

     Number of k-points >= 100: set verbosity='high' to print them.

     Dense  grid:   449711 G-vectors     FFT dimensions: (  96,  96,  96)

     Smooth grid:   241457 G-vectors     FFT dimensions: (  80,  80,  80)

     Estimated max dynamical RAM per process >     283.74 MB

     Estimated total dynamical RAM >      19.95 GB

     Check: negative core charge=   -0.000002

     Initial potential from superposition of free atoms

     starting charge  511.97959, renormalised to  512.00000
     Starting wfcs are  320 randomized atomic wfcs
     Checking if some PAW data can be deallocated... 

     total cpu time spent up to now is       44.8 secs

     Self-consistent Calculation

     iteration #  1     ecut=    71.00 Ry     beta= 0.10
     Davidson diagonalization with overlap
     ethr =  1.00E-02,  avg # of iterations =  3.4

     Threshold (ethr) on eigenvalues was too large:
     Diagonalizing with lowered threshold

     Davidson diagonalization with overlap
     ethr =  8.29E-05,  avg # of iterations =  5.6

     total cpu time spent up to now is      331.8 secs

     total energy              =  -13813.41170338 Ry
     estimated scf accuracy    <       0.63857043 Ry

     iteration #  2     ecut=    71.00 Ry     beta= 0.10
     Davidson diagonalization with overlap
     ethr =  1.25E-04,  avg # of iterations =  1.0

     total cpu time spent up to now is      433.7 secs

     total energy              =  -13813.20790122 Ry
     estimated scf accuracy    <       0.39911366 Ry

     iteration #  3     ecut=    71.00 Ry     beta= 0.10
     Davidson diagonalization with overlap
     ethr =  7.80E-05,  avg # of iterations =  2.2

     total cpu time spent up to now is      563.1 secs

     total energy              =  -13813.29728703 Ry
     estimated scf accuracy    <       0.05241791 Ry

     iteration #  4     ecut=    71.00 Ry     beta= 0.10
     Davidson diagonalization with overlap
     ethr =  1.02E-05,  avg # of iterations =  2.0

     total cpu time spent up to now is      679.3 secs

     total energy              =  -13813.29881264 Ry
     estimated scf accuracy    <       0.00883967 Ry

     iteration #  5     ecut=    71.00 Ry     beta= 0.10
     Davidson diagonalization with overlap
     ethr =  1.73E-06,  avg # of iterations =  2.0

     total cpu time spent up to now is      788.9 secs

     total energy              =  -13813.29954283 Ry
     estimated scf accuracy    <       0.00563139 Ry

     iteration #  6     ecut=    71.00 Ry     beta= 0.10
     Davidson diagonalization with overlap
     ethr =  1.10E-06,  avg # of iterations =  3.4

     total cpu time spent up to now is      947.1 secs

     total energy              =  -13813.30035694 Ry
     estimated scf accuracy    <       0.01284580 Ry

     iteration #  7     ecut=    71.00 Ry     beta= 0.10
     Davidson diagonalization with overlap
     ethr =  1.10E-06,  avg # of iterations =  2.2

     total cpu time spent up to now is     1064.2 secs

     total energy              =  -13813.29928873 Ry
     estimated scf accuracy    <       0.00396211 Ry

     iteration #  8     ecut=    71.00 Ry     beta= 0.10
     Davidson diagonalization with overlap
     ethr =  7.74E-07,  avg # of iterations =  2.2

     total cpu time spent up to now is     1189.1 secs

     total energy              =  -13813.29962153 Ry
     estimated scf accuracy    <       0.00032331 Ry

     iteration #  9     ecut=    71.00 Ry     beta= 0.10
     Davidson diagonalization with overlap
     ethr =  6.31E-08,  avg # of iterations =  2.5

     total cpu time spent up to now is     1302.6 secs

     total energy              =  -13813.29959612 Ry
     estimated scf accuracy    <       0.00011274 Ry

     iteration # 10     ecut=    71.00 Ry     beta= 0.10
     Davidson diagonalization with overlap
     ethr =  2.20E-08,  avg # of iterations =  2.9

     total cpu time spent up to now is     1429.5 secs

     total energy              =  -13813.29960978 Ry
     estimated scf accuracy    <       0.00001088 Ry

     iteration # 11     ecut=    71.00 Ry     beta= 0.10
     Davidson diagonalization with overlap
     ethr =  2.13E-09,  avg # of iterations =  3.8

     total cpu time spent up to now is     1569.5 secs

     total energy              =  -13813.29961126 Ry
     estimated scf accuracy    <       0.00000327 Ry

     iteration # 12     ecut=    71.00 Ry     beta= 0.10
     Davidson diagonalization with overlap
     ethr =  6.39E-10,  avg # of iterations =  1.9

     total cpu time spent up to now is     1681.0 secs

     total energy              =  -13813.29961164 Ry
     estimated scf accuracy    <       0.00000107 Ry

     iteration # 13     ecut=    71.00 Ry     beta= 0.10
     Davidson diagonalization with overlap
     ethr =  2.09E-10,  avg # of iterations =  1.6

     total cpu time spent up to now is     1780.8 secs

     End of self-consistent calculation

     Number of k-points >= 100: set verbosity='high' to print the bands.

     the Fermi energy is    23.1147 ev

!    total energy              =  -13813.29961282 Ry

     total all-electron energy =   -289989.689952 Ry
     estimated scf accuracy    <       0.00000042 Ry
     smearing contrib. (-TS)   =       0.02063690 Ry
     internal energy E=F+TS    =  -13813.32024972 Ry

     The total energy is F=E-TS. E is the sum of the following terms:
     one-electron contribution =    -995.54649691 Ry
     hartree contribution      =     916.01109620 Ry
     xc contribution           =    -928.06397795 Ry
     ewald contribution        =   -5216.27952217 Ry
     one-center paw contrib.   =   -7589.44134889 Ry

     convergence has been achieved in  13 iterations

     Forces acting on atoms (cartesian axes, Ry/au):

     atom    1 type  1   force =     0.00000000    0.00000000    0.00000000
     atom    2 type  1   force =    -0.00011778    0.00005942    0.00000000
     atom    3 type  1   force =    -0.00021338    0.00000000   -0.00012129
     atom    4 type  1   force =     0.00000000    0.00005075   -0.00003315
     atom    5 type  1   force =     0.00000000    0.00000000    0.00000000
     atom    6 type  1   force =    -0.00010678    0.00024752    0.00000000
     atom    7 type  1   force =    -0.00021338    0.00000000    0.00012129
     atom    8 type  1   force =     0.00000000    0.00005075    0.00003315
     atom    9 type  1   force =     0.00000000    0.00000000    0.00000000
     atom   10 type  1   force =    -0.00011778   -0.00005942   -0.00000000
     atom   11 type  1   force =    -0.00001144    0.00000000    0.00005282
     atom   12 type  1   force =     0.00000000   -0.00005075   -0.00003315
     atom   13 type  1   force =     0.00000000    0.00000000    0.00000000
     atom   14 type  1   force =    -0.00010678   -0.00024752    0.00000000
     atom   15 type  1   force =    -0.00001144    0.00000000   -0.00005282
     atom   16 type  1   force =     0.00000000   -0.00005075    0.00003315
     atom   17 type  1   force =     0.00000000    0.00000000    0.00000000
     atom   18 type  1   force =     0.00011778    0.00005942   -0.00000000
     atom   19 type  1   force =     0.00021338    0.00000000   -0.00012129
     atom   20 type  1   force =     0.00000000    0.00026868   -0.00002570
     atom   21 type  1   force =     0.00000000    0.00000000    0.00000000
     atom   22 type  1   force =     0.00010678    0.00024752    0.00000000
     atom   23 type  1   force =     0.00021338    0.00000000    0.00012129
     atom   24 type  1   force =     0.00000000    0.00026868    0.00002570
     atom   25 type  1   force =     0.00000000    0.00000000    0.00000000
     atom   26 type  1   force =     0.00011778   -0.00005942    0.00000000
     atom   27 type  1   force =     0.00001144    0.00000000    0.00005282
     atom   28 type  1   force =     0.00000000   -0.00026868   -0.00002570
     atom   29 type  1   force =     0.00000000    0.00000000    0.00000000
     atom   30 type  1   force =     0.00010678   -0.00024752    0.00000000
     atom   31 type  1   force =     0.00001144    0.00000000   -0.00005282
     atom   32 type  1   force =     0.00000000   -0.00026868    0.00002570

     Total force =     0.000959     Total SCF correction =     0.002863
     SCF correction compared to forces is large: reduce conv_thr to get better values


     Computing stress (Cartesian axis) and pressure

          total   stress  (Ry/bohr**3)                   (kbar)     P=       -5.00
  -0.00011999   0.00000000   0.00000000          -17.65        0.00        0.00
   0.00000000   0.00005200   0.00000000            0.00        7.65        0.00
   0.00000000   0.00000000  -0.00003407            0.00        0.00       -5.01


     Writing output data file /scratch/BgifHiLrJYqHdYWm.save/
 
     init_run     :     41.02s CPU     41.81s WALL (       1 calls)
     electrons    :   1709.07s CPU   1735.98s WALL (       1 calls)
     forces       :     17.92s CPU     18.06s WALL (       1 calls)
     stress       :    111.44s CPU    112.24s WALL (       1 calls)

     Called by init_run:
     wfcinit      :     40.22s CPU     40.95s WALL (       1 calls)
     potinit      :      0.19s CPU      0.20s WALL (       1 calls)
     hinit0       :      0.14s CPU      0.15s WALL (       1 calls)

     Called by electrons:
     c_bands      :   1510.91s CPU   1533.50s WALL (      14 calls)
     sum_band     :    196.50s CPU    200.58s WALL (      14 calls)
     v_of_rho     :      0.19s CPU      0.21s WALL (      14 calls)
     newd         :      0.33s CPU      0.45s WALL (      14 calls)
     PAW_pot      :      1.16s CPU      1.22s WALL (      14 calls)
     mix_rho      :      0.06s CPU      0.08s WALL (      14 calls)

     Called by c_bands:
     init_us_2    :      7.01s CPU      7.18s WALL (    3875 calls)
     cegterg      :   1484.16s CPU   1505.32s WALL (    1750 calls)

     Called by *egterg:
     cdiaghg      :    196.17s CPU    198.29s WALL (    6213 calls)
     h_psi        :    798.48s CPU    812.63s WALL (    6463 calls)
     s_psi        :     59.00s CPU     59.46s WALL (    6463 calls)
     g_psi        :      1.45s CPU      1.47s WALL (    4588 calls)

     Called by h_psi:
     h_psi:calbec :    110.47s CPU    111.58s WALL (    6463 calls)
     vloc_psi     :    627.10s CPU    639.26s WALL (    6463 calls)
     add_vuspsi   :     57.23s CPU     58.07s WALL (    6463 calls)

     General routines
     calbec       :    176.59s CPU    178.21s WALL (    8838 calls)
     fft          :      0.23s CPU      0.25s WALL (     206 calls)
     ffts         :      0.03s CPU      0.03s WALL (      28 calls)
     fftw         :    741.60s CPU    755.70s WALL ( 3060784 calls)
     interpolate  :      0.03s CPU      0.04s WALL (      14 calls)
 
     Parallel routines
     fft_scatt_xy :     53.14s CPU     53.99s WALL ( 3061018 calls)
     fft_scatt_yz :    597.74s CPU    609.63s WALL ( 3061018 calls)
 
     PWSCF        :  31m49.40s CPU  32m23.51s WALL

 
   This run was terminated on:  20: 4:52  25Nov2021            

=------------------------------------------------------------------------------=
   JOB DONE.
=------------------------------------------------------------------------------=
