
     Program PWSCF v.6.7MaX starts on 25Nov2021 at 18:27:57 

     This program is part of the open-source Quantum ESPRESSO suite
     for quantum simulation of materials; please cite
         "P. Giannozzi et al., J. Phys.:Condens. Matter 21 395502 (2009);
         "P. Giannozzi et al., J. Phys.:Condens. Matter 29 465901 (2017);
          URL http://www.quantum-espresso.org", 
     in publications or presentations arising from this work. More details at
     http://www.quantum-espresso.org/quote

     Parallel version (MPI & OpenMP), running on      72 processor cores
     Number of MPI processes:                72
     Threads/MPI process:                     1

     MPI processes distributed on     1 nodes
     R & G space division:  proc/nbgrp/npool/nimage =      72
     Reading input from /rds/homes/b/bxp912/jobs/20211014_ru_eos/wd/ec/ec_7_007.in
Warning: card &CELL ignored
Warning: card CELL_DYNAMICS = 'BFGS', ignored
Warning: card CELL_FACTOR = 2.0, ignored
Warning: card PRESS = 0.0, ignored
Warning: card / ignored

     Current dimensions of program PWSCF are:
     Max number of different atomic species (ntypx) = 10
     Max number of k-points (npk) =  40000
     Max angular momentum in pseudopotentials (lmaxx) =  3
     file Ru.pbe-spn-kjpaw_psl.1.0.0.UPF: wavefunction(s)  4D renormalized

     Subspace diagonalization in iterative solution of the eigenvalue problem:
     one sub-group per band group will be used
     ELPA distributed-memory algorithm (size of sub-group:  8*  8 procs)

     Found symmetry operation: I + (  0.2500  0.2500  0.0000)
     This is a supercell, fractional translations are disabled
     Message from routine setup:
     using ibrav=0 with symmetry is DISCOURAGED, use correct ibrav instead
 
     Parallelization info
     --------------------
     sticks:   dense  smooth     PW     G-vecs:    dense   smooth      PW
     Min          98      65     17                 6244     3351     475
     Max          99      66     18                 6249     3356     482
     Sum        7101    4689   1285               449727   241477   34461
 


     bravais-lattice index     =            0
     lattice parameter (alat)  =      14.4007  a.u.
     unit-cell volume          =    2986.4454 (a.u.)^3
     number of atoms/cell      =           32
     number of atomic types    =            1
     number of electrons       =       512.00
     number of Kohn-Sham states=          307
     kinetic-energy cutoff     =      71.0000  Ry
     charge density cutoff     =     430.0000  Ry
     scf convergence threshold =      1.0E-06
     mixing beta               =       0.1000
     number of iterations used =           10  plain     mixing
     Exchange-correlation= SLA  PW   PBX  PBC
                           (   1   4   3   4   0   0   0)

     celldm(1)=  14.400742  celldm(2)=   0.000000  celldm(3)=   0.000000
     celldm(4)=   0.000000  celldm(5)=   0.000000  celldm(6)=   0.000000

     crystal axes: (cart. coord. in units of alat)
               a(1) = (   1.003755   0.000000   0.000000 )  
               a(2) = (   0.000000   0.996255   0.000000 )  
               a(3) = (   0.000000   0.000000   1.000005 )  

     reciprocal axes: (cart. coord. in units 2 pi/alat)
               b(1) = (  0.996259  0.000000  0.000000 )  
               b(2) = (  0.000000  1.003759  0.000000 )  
               b(3) = (  0.000000  0.000000  0.999995 )  


     PseudoPot. # 1 for Ru read from file:
     /rds/homes/b/bxp912/pp/Ru.pbe-spn-kjpaw_psl.1.0.0.UPF
     MD5 check sum: 0ae1f594dea09af7be8575c3a481d1ae
     Pseudo is Projector augmented-wave + core cor, Zval = 16.0
     Generated using "atomic" code by A. Dal Corso  v.5.1
     Shape of augmentation charge: PSQ
     Using radial grid of 1233 points,  6 beta functions with: 
                l(1) =   0
                l(2) =   0
                l(3) =   1
                l(4) =   1
                l(5) =   2
                l(6) =   2
     Q(r) pseudized with 0 coefficients 


     atomic species   valence    mass     pseudopotential
        Ru            16.00   101.07000     Ru( 1.00)

      8 Sym. Ops., with inversion, found



   Cartesian axes

     site n.     atom                  positions (alat units)
         1           Ru  tau(   1) = (   0.0000000   0.0000000   0.0000000  )
         2           Ru  tau(   2) = (   0.2509387   0.2490637   0.0000000  )
         3           Ru  tau(   3) = (   0.2509387   0.0000000   0.2500006  )
         4           Ru  tau(   4) = (   0.0000000   0.2490637   0.2500006  )
         5           Ru  tau(   5) = (   0.0000000   0.0000000   0.5000023  )
         6           Ru  tau(   6) = (   0.2509376   0.2490626   0.5000023  )
         7           Ru  tau(   7) = (   0.2509387   0.0000000   0.7500030  )
         8           Ru  tau(   8) = (   0.0000000   0.2490637   0.7500030  )
         9           Ru  tau(   9) = (   0.0000000   0.4981275   0.0000000  )
        10           Ru  tau(  10) = (   0.2509387   0.7471914   0.0000000  )
        11           Ru  tau(  11) = (   0.2509376   0.4981275   0.2499996  )
        12           Ru  tau(  12) = (   0.0000000   0.7471914   0.2500006  )
        13           Ru  tau(  13) = (   0.0000000   0.4981275   0.5000023  )
        14           Ru  tau(  14) = (   0.2509376   0.7471925   0.5000023  )
        15           Ru  tau(  15) = (   0.2509376   0.4981275   0.7500040  )
        16           Ru  tau(  16) = (   0.0000000   0.7471914   0.7500030  )
        17           Ru  tau(  17) = (   0.5018776   0.0000000   0.0000000  )
        18           Ru  tau(  18) = (   0.7528165   0.2490637   0.0000000  )
        19           Ru  tau(  19) = (   0.7528165   0.0000000   0.2500006  )
        20           Ru  tau(  20) = (   0.5018776   0.2490626   0.2499996  )
        21           Ru  tau(  21) = (   0.5018776   0.0000000   0.5000023  )
        22           Ru  tau(  22) = (   0.7528175   0.2490626   0.5000023  )
        23           Ru  tau(  23) = (   0.7528165   0.0000000   0.7500030  )
        24           Ru  tau(  24) = (   0.5018776   0.2490626   0.7500040  )
        25           Ru  tau(  25) = (   0.5018776   0.4981275   0.0000000  )
        26           Ru  tau(  26) = (   0.7528165   0.7471914   0.0000000  )
        27           Ru  tau(  27) = (   0.7528175   0.4981275   0.2499996  )
        28           Ru  tau(  28) = (   0.5018776   0.7471925   0.2499996  )
        29           Ru  tau(  29) = (   0.5018776   0.4981275   0.5000023  )
        30           Ru  tau(  30) = (   0.7528175   0.7471925   0.5000023  )
        31           Ru  tau(  31) = (   0.7528175   0.4981275   0.7500040  )
        32           Ru  tau(  32) = (   0.5018776   0.7471925   0.7500040  )

     number of k points=   125  Marzari-Vanderbilt smearing, width (Ry)=  0.0400

     Number of k-points >= 100: set verbosity='high' to print them.

     Dense  grid:   449727 G-vectors     FFT dimensions: (  96,  96,  96)

     Smooth grid:   241477 G-vectors     FFT dimensions: (  80,  80,  80)

     Estimated max dynamical RAM per process >     283.74 MB

     Estimated total dynamical RAM >      19.95 GB

     Check: negative core charge=   -0.000002

     Initial potential from superposition of free atoms

     starting charge  511.97959, renormalised to  512.00000
     Starting wfcs are  320 randomized atomic wfcs
     Checking if some PAW data can be deallocated... 

     total cpu time spent up to now is       42.7 secs

     Self-consistent Calculation

     iteration #  1     ecut=    71.00 Ry     beta= 0.10
     Davidson diagonalization with overlap
     ethr =  1.00E-02,  avg # of iterations =  3.3

     Threshold (ethr) on eigenvalues was too large:
     Diagonalizing with lowered threshold

     Davidson diagonalization with overlap
     ethr =  8.30E-05,  avg # of iterations =  5.5

     total cpu time spent up to now is      328.7 secs

     total energy              =  -13813.41228485 Ry
     estimated scf accuracy    <       0.63859897 Ry

     iteration #  2     ecut=    71.00 Ry     beta= 0.10
     Davidson diagonalization with overlap
     ethr =  1.25E-04,  avg # of iterations =  1.0

     total cpu time spent up to now is      430.7 secs

     total energy              =  -13813.20842087 Ry
     estimated scf accuracy    <       0.39915498 Ry

     iteration #  3     ecut=    71.00 Ry     beta= 0.10
     Davidson diagonalization with overlap
     ethr =  7.80E-05,  avg # of iterations =  2.2

     total cpu time spent up to now is      561.9 secs

     total energy              =  -13813.29785157 Ry
     estimated scf accuracy    <       0.05239546 Ry

     iteration #  4     ecut=    71.00 Ry     beta= 0.10
     Davidson diagonalization with overlap
     ethr =  1.02E-05,  avg # of iterations =  2.3

     total cpu time spent up to now is      678.2 secs

     total energy              =  -13813.29936792 Ry
     estimated scf accuracy    <       0.00883518 Ry

     iteration #  5     ecut=    71.00 Ry     beta= 0.10
     Davidson diagonalization with overlap
     ethr =  1.73E-06,  avg # of iterations =  2.1

     total cpu time spent up to now is      790.5 secs

     total energy              =  -13813.30017824 Ry
     estimated scf accuracy    <       0.00562338 Ry

     iteration #  6     ecut=    71.00 Ry     beta= 0.10
     Davidson diagonalization with overlap
     ethr =  1.10E-06,  avg # of iterations =  3.6

     total cpu time spent up to now is      951.8 secs

     total energy              =  -13813.30041596 Ry
     estimated scf accuracy    <       0.01314095 Ry

     iteration #  7     ecut=    71.00 Ry     beta= 0.10
     Davidson diagonalization with overlap
     ethr =  1.10E-06,  avg # of iterations =  2.1

     total cpu time spent up to now is     1081.3 secs

     total energy              =  -13813.29997796 Ry
     estimated scf accuracy    <       0.00306989 Ry

     iteration #  8     ecut=    71.00 Ry     beta= 0.10
     Davidson diagonalization with overlap
     ethr =  6.00E-07,  avg # of iterations =  2.1

     total cpu time spent up to now is     1206.0 secs

     total energy              =  -13813.30017614 Ry
     estimated scf accuracy    <       0.00032603 Ry

     iteration #  9     ecut=    71.00 Ry     beta= 0.10
     Davidson diagonalization with overlap
     ethr =  6.37E-08,  avg # of iterations =  2.4

     total cpu time spent up to now is     1322.2 secs

     total energy              =  -13813.30014730 Ry
     estimated scf accuracy    <       0.00010541 Ry

     iteration # 10     ecut=    71.00 Ry     beta= 0.10
     Davidson diagonalization with overlap
     ethr =  2.06E-08,  avg # of iterations =  3.1

     total cpu time spent up to now is     1457.7 secs

     total energy              =  -13813.30016837 Ry
     estimated scf accuracy    <       0.00000468 Ry

     iteration # 11     ecut=    71.00 Ry     beta= 0.10
     Davidson diagonalization with overlap
     ethr =  9.13E-10,  avg # of iterations =  3.8

     total cpu time spent up to now is     1595.3 secs

     total energy              =  -13813.30016961 Ry
     estimated scf accuracy    <       0.00000162 Ry

     iteration # 12     ecut=    71.00 Ry     beta= 0.10
     Davidson diagonalization with overlap
     ethr =  3.16E-10,  avg # of iterations =  1.3

     total cpu time spent up to now is     1695.4 secs

     End of self-consistent calculation

     Number of k-points >= 100: set verbosity='high' to print the bands.

     the Fermi energy is    23.1146 ev

!    total energy              =  -13813.30017095 Ry

     total all-electron energy =   -289989.690510 Ry
     estimated scf accuracy    <       0.00000089 Ry
     smearing contrib. (-TS)   =       0.02054966 Ry
     internal energy E=F+TS    =  -13813.32072061 Ry

     The total energy is F=E-TS. E is the sum of the following terms:
     one-electron contribution =    -995.54128174 Ry
     hartree contribution      =     916.00757782 Ry
     xc contribution           =    -928.06357533 Ry
     ewald contribution        =   -5216.28215697 Ry
     one-center paw contrib.   =   -7589.44128438 Ry

     convergence has been achieved in  12 iterations

     Forces acting on atoms (cartesian axes, Ry/au):

     atom    1 type  1   force =     0.00000000    0.00000000    0.00000000
     atom    2 type  1   force =    -0.00017666    0.00006339   -0.00000000
     atom    3 type  1   force =    -0.00035075    0.00000000   -0.00028020
     atom    4 type  1   force =     0.00000000    0.00003227   -0.00012483
     atom    5 type  1   force =     0.00000000    0.00000000    0.00000000
     atom    6 type  1   force =    -0.00015188    0.00040248    0.00000000
     atom    7 type  1   force =    -0.00035075    0.00000000    0.00028020
     atom    8 type  1   force =     0.00000000    0.00003227    0.00012483
     atom    9 type  1   force =     0.00000000    0.00000000    0.00000000
     atom   10 type  1   force =    -0.00017666   -0.00006339    0.00000000
     atom   11 type  1   force =     0.00004132    0.00000000    0.00005020
     atom   12 type  1   force =     0.00000000   -0.00003227   -0.00012483
     atom   13 type  1   force =     0.00000000    0.00000000    0.00000000
     atom   14 type  1   force =    -0.00015188   -0.00040248    0.00000000
     atom   15 type  1   force =     0.00004132    0.00000000   -0.00005020
     atom   16 type  1   force =     0.00000000   -0.00003227    0.00012483
     atom   17 type  1   force =     0.00000000    0.00000000    0.00000000
     atom   18 type  1   force =     0.00017666    0.00006339    0.00000000
     atom   19 type  1   force =     0.00035075    0.00000000   -0.00028020
     atom   20 type  1   force =     0.00000000    0.00043993   -0.00010899
     atom   21 type  1   force =     0.00000000    0.00000000    0.00000000
     atom   22 type  1   force =     0.00015188    0.00040248    0.00000000
     atom   23 type  1   force =     0.00035075    0.00000000    0.00028020
     atom   24 type  1   force =     0.00000000    0.00043993    0.00010899
     atom   25 type  1   force =     0.00000000    0.00000000    0.00000000
     atom   26 type  1   force =     0.00017666   -0.00006339   -0.00000000
     atom   27 type  1   force =    -0.00004132    0.00000000    0.00005020
     atom   28 type  1   force =     0.00000000   -0.00043993   -0.00010899
     atom   29 type  1   force =     0.00000000    0.00000000    0.00000000
     atom   30 type  1   force =     0.00015188   -0.00040248    0.00000000
     atom   31 type  1   force =    -0.00004132    0.00000000   -0.00005020
     atom   32 type  1   force =     0.00000000   -0.00043993    0.00010899

     Total force =     0.001610     Total SCF correction =     0.006712
     SCF correction compared to forces is large: reduce conv_thr to get better values


     Computing stress (Cartesian axis) and pressure

          total   stress  (Ry/bohr**3)                   (kbar)     P=       -5.08
  -0.00009916   0.00000000   0.00000000          -14.59        0.00        0.00
   0.00000000   0.00003001   0.00000000            0.00        4.42        0.00
   0.00000000   0.00000000  -0.00003449            0.00        0.00       -5.07


     Writing output data file /scratch/XLajXMcSlxcNoAuK.save/
 
     init_run     :     38.91s CPU     39.73s WALL (       1 calls)
     electrons    :   1627.69s CPU   1652.71s WALL (       1 calls)
     forces       :     18.44s CPU     18.61s WALL (       1 calls)
     stress       :    111.49s CPU    112.41s WALL (       1 calls)

     Called by init_run:
     wfcinit      :     38.21s CPU     38.95s WALL (       1 calls)
     potinit      :      0.19s CPU      0.21s WALL (       1 calls)
     hinit0       :      0.20s CPU      0.21s WALL (       1 calls)

     Called by electrons:
     c_bands      :   1447.60s CPU   1468.80s WALL (      13 calls)
     sum_band     :    178.36s CPU    181.94s WALL (      13 calls)
     v_of_rho     :      0.18s CPU      0.20s WALL (      13 calls)
     newd         :      0.29s CPU      0.43s WALL (      13 calls)
     PAW_pot      :      1.18s CPU      1.25s WALL (      13 calls)
     mix_rho      :      0.06s CPU      0.07s WALL (      13 calls)

     Called by c_bands:
     init_us_2    :      6.34s CPU      6.51s WALL (    3625 calls)
     cegterg      :   1423.08s CPU   1443.11s WALL (    1625 calls)

     Called by *egterg:
     cdiaghg      :    173.70s CPU    176.02s WALL (    5866 calls)
     h_psi        :    779.08s CPU    791.61s WALL (    6116 calls)
     s_psi        :     54.36s CPU     54.74s WALL (    6116 calls)
     g_psi        :      1.42s CPU      1.44s WALL (    4366 calls)

     Called by h_psi:
     h_psi:calbec :    105.91s CPU    106.66s WALL (    6116 calls)
     vloc_psi     :    616.85s CPU    627.68s WALL (    6116 calls)
     add_vuspsi   :     52.53s CPU     53.43s WALL (    6116 calls)

     General routines
     calbec       :    165.44s CPU    166.60s WALL (    8366 calls)
     fft          :      0.23s CPU      0.24s WALL (     193 calls)
     ffts         :      0.02s CPU      0.02s WALL (      26 calls)
     fftw         :    719.20s CPU    731.76s WALL ( 2892533 calls)
     interpolate  :      0.03s CPU      0.04s WALL (      13 calls)
 
     Parallel routines
     fft_scatt_xy :     49.91s CPU     50.71s WALL ( 2892752 calls)
     fft_scatt_yz :    583.57s CPU    594.11s WALL ( 2892752 calls)
 
     PWSCF        :  30m24.65s CPU  30m57.46s WALL

 
   This run was terminated on:  18:58:55  25Nov2021            

=------------------------------------------------------------------------------=
   JOB DONE.
=------------------------------------------------------------------------------=
