
     Program PWSCF v.6.7MaX starts on 25Nov2021 at 18:59:30 

     This program is part of the open-source Quantum ESPRESSO suite
     for quantum simulation of materials; please cite
         "P. Giannozzi et al., J. Phys.:Condens. Matter 21 395502 (2009);
         "P. Giannozzi et al., J. Phys.:Condens. Matter 29 465901 (2017);
          URL http://www.quantum-espresso.org", 
     in publications or presentations arising from this work. More details at
     http://www.quantum-espresso.org/quote

     Parallel version (MPI & OpenMP), running on      72 processor cores
     Number of MPI processes:                72
     Threads/MPI process:                     1

     MPI processes distributed on     1 nodes
     R & G space division:  proc/nbgrp/npool/nimage =      72
     Reading input from /rds/homes/b/bxp912/jobs/20211014_ru_eos/wd/ec/ec_7_008.in
Warning: card &CELL ignored
Warning: card CELL_DYNAMICS = 'BFGS', ignored
Warning: card CELL_FACTOR = 2.0, ignored
Warning: card PRESS = 0.0, ignored
Warning: card / ignored

     Current dimensions of program PWSCF are:
     Max number of different atomic species (ntypx) = 10
     Max number of k-points (npk) =  40000
     Max angular momentum in pseudopotentials (lmaxx) =  3
     file Ru.pbe-spn-kjpaw_psl.1.0.0.UPF: wavefunction(s)  4D renormalized

     Subspace diagonalization in iterative solution of the eigenvalue problem:
     one sub-group per band group will be used
     ELPA distributed-memory algorithm (size of sub-group:  8*  8 procs)

     Found symmetry operation: I + (  0.2500  0.2500  0.0000)
     This is a supercell, fractional translations are disabled
     Message from routine setup:
     using ibrav=0 with symmetry is DISCOURAGED, use correct ibrav instead
 
     Parallelization info
     --------------------
     sticks:   dense  smooth     PW     G-vecs:    dense   smooth      PW
     Min          98      65     17                 6242     3351     475
     Max          99      66     18                 6249     3356     482
     Sum        7097    4685   1281               449707   241461   34449
 


     bravais-lattice index     =            0
     lattice parameter (alat)  =      14.4007  a.u.
     unit-cell volume          =    2986.4454 (a.u.)^3
     number of atoms/cell      =           32
     number of atomic types    =            1
     number of electrons       =       512.00
     number of Kohn-Sham states=          307
     kinetic-energy cutoff     =      71.0000  Ry
     charge density cutoff     =     430.0000  Ry
     scf convergence threshold =      1.0E-06
     mixing beta               =       0.1000
     number of iterations used =           10  plain     mixing
     Exchange-correlation= SLA  PW   PBX  PBC
                           (   1   4   3   4   0   0   0)

     celldm(1)=  14.400742  celldm(2)=   0.000000  celldm(3)=   0.000000
     celldm(4)=   0.000000  celldm(5)=   0.000000  celldm(6)=   0.000000

     crystal axes: (cart. coord. in units of alat)
               a(1) = (   1.004381   0.000000   0.000000 )  
               a(2) = (   0.000000   0.995631   0.000000 )  
               a(3) = (   0.000000   0.000000   1.000006 )  

     reciprocal axes: (cart. coord. in units 2 pi/alat)
               b(1) = (  0.995638  0.000000  0.000000 )  
               b(2) = (  0.000000  1.004388  0.000000 )  
               b(3) = (  0.000000  0.000000  0.999994 )  


     PseudoPot. # 1 for Ru read from file:
     /rds/homes/b/bxp912/pp/Ru.pbe-spn-kjpaw_psl.1.0.0.UPF
     MD5 check sum: 0ae1f594dea09af7be8575c3a481d1ae
     Pseudo is Projector augmented-wave + core cor, Zval = 16.0
     Generated using "atomic" code by A. Dal Corso  v.5.1
     Shape of augmentation charge: PSQ
     Using radial grid of 1233 points,  6 beta functions with: 
                l(1) =   0
                l(2) =   0
                l(3) =   1
                l(4) =   1
                l(5) =   2
                l(6) =   2
     Q(r) pseudized with 0 coefficients 


     atomic species   valence    mass     pseudopotential
        Ru            16.00   101.07000     Ru( 1.00)

      8 Sym. Ops., with inversion, found



   Cartesian axes

     site n.     atom                  positions (alat units)
         1           Ru  tau(   1) = (   0.0000000   0.0000000   0.0000000  )
         2           Ru  tau(   2) = (   0.2510954   0.2489078   0.0000000  )
         3           Ru  tau(   3) = (   0.2510954   0.0000000   0.2500011  )
         4           Ru  tau(   4) = (   0.0000000   0.2489078   0.2500011  )
         5           Ru  tau(   5) = (   0.0000000   0.0000000   0.5000032  )
         6           Ru  tau(   6) = (   0.2510943   0.2489068   0.5000032  )
         7           Ru  tau(   7) = (   0.2510954   0.0000000   0.7500043  )
         8           Ru  tau(   8) = (   0.0000000   0.2489078   0.7500043  )
         9           Ru  tau(   9) = (   0.0000000   0.4978159   0.0000000  )
        10           Ru  tau(  10) = (   0.2510954   0.7467239   0.0000000  )
        11           Ru  tau(  11) = (   0.2510943   0.4978159   0.2500000  )
        12           Ru  tau(  12) = (   0.0000000   0.7467239   0.2500011  )
        13           Ru  tau(  13) = (   0.0000000   0.4978159   0.5000032  )
        14           Ru  tau(  14) = (   0.2510943   0.7467250   0.5000032  )
        15           Ru  tau(  15) = (   0.2510943   0.4978159   0.7500053  )
        16           Ru  tau(  16) = (   0.0000000   0.7467239   0.7500043  )
        17           Ru  tau(  17) = (   0.5021909   0.0000000   0.0000000  )
        18           Ru  tau(  18) = (   0.7532865   0.2489078   0.0000000  )
        19           Ru  tau(  19) = (   0.7532865   0.0000000   0.2500011  )
        20           Ru  tau(  20) = (   0.5021909   0.2489068   0.2500000  )
        21           Ru  tau(  21) = (   0.5021909   0.0000000   0.5000032  )
        22           Ru  tau(  22) = (   0.7532875   0.2489068   0.5000032  )
        23           Ru  tau(  23) = (   0.7532865   0.0000000   0.7500043  )
        24           Ru  tau(  24) = (   0.5021909   0.2489068   0.7500053  )
        25           Ru  tau(  25) = (   0.5021909   0.4978159   0.0000000  )
        26           Ru  tau(  26) = (   0.7532865   0.7467239   0.0000000  )
        27           Ru  tau(  27) = (   0.7532875   0.4978159   0.2500000  )
        28           Ru  tau(  28) = (   0.5021909   0.7467250   0.2500000  )
        29           Ru  tau(  29) = (   0.5021909   0.4978159   0.5000032  )
        30           Ru  tau(  30) = (   0.7532875   0.7467250   0.5000032  )
        31           Ru  tau(  31) = (   0.7532875   0.4978159   0.7500053  )
        32           Ru  tau(  32) = (   0.5021909   0.7467250   0.7500053  )

     number of k points=   125  Marzari-Vanderbilt smearing, width (Ry)=  0.0400

     Number of k-points >= 100: set verbosity='high' to print them.

     Dense  grid:   449707 G-vectors     FFT dimensions: (  96,  96,  96)

     Smooth grid:   241461 G-vectors     FFT dimensions: (  80,  80,  80)

     Estimated max dynamical RAM per process >     283.73 MB

     Estimated total dynamical RAM >      19.95 GB

     Check: negative core charge=   -0.000002

     Initial potential from superposition of free atoms

     starting charge  511.97959, renormalised to  512.00000
     Starting wfcs are  320 randomized atomic wfcs
     Checking if some PAW data can be deallocated... 

     total cpu time spent up to now is       46.0 secs

     Self-consistent Calculation

     iteration #  1     ecut=    71.00 Ry     beta= 0.10
     Davidson diagonalization with overlap
     ethr =  1.00E-02,  avg # of iterations =  3.3

     Threshold (ethr) on eigenvalues was too large:
     Diagonalizing with lowered threshold

     Davidson diagonalization with overlap
     ethr =  8.27E-05,  avg # of iterations =  5.6

     total cpu time spent up to now is      331.5 secs

     total energy              =  -13813.41202032 Ry
     estimated scf accuracy    <       0.63868113 Ry

     iteration #  2     ecut=    71.00 Ry     beta= 0.10
     Davidson diagonalization with overlap
     ethr =  1.25E-04,  avg # of iterations =  1.0

     total cpu time spent up to now is      432.3 secs

     total energy              =  -13813.20821084 Ry
     estimated scf accuracy    <       0.39913304 Ry

     iteration #  3     ecut=    71.00 Ry     beta= 0.10
     Davidson diagonalization with overlap
     ethr =  7.80E-05,  avg # of iterations =  2.2

     total cpu time spent up to now is      565.5 secs

     total energy              =  -13813.29758830 Ry
     estimated scf accuracy    <       0.05226540 Ry

     iteration #  4     ecut=    71.00 Ry     beta= 0.10
     Davidson diagonalization with overlap
     ethr =  1.02E-05,  avg # of iterations =  2.1

     total cpu time spent up to now is      683.5 secs

     total energy              =  -13813.29911319 Ry
     estimated scf accuracy    <       0.00883131 Ry

     iteration #  5     ecut=    71.00 Ry     beta= 0.10
     Davidson diagonalization with overlap
     ethr =  1.72E-06,  avg # of iterations =  1.9

     total cpu time spent up to now is      795.0 secs

     total energy              =  -13813.29988190 Ry
     estimated scf accuracy    <       0.00562804 Ry

     iteration #  6     ecut=    71.00 Ry     beta= 0.10
     Davidson diagonalization with overlap
     ethr =  1.10E-06,  avg # of iterations =  3.5

     total cpu time spent up to now is      951.0 secs

     total energy              =  -13813.30042140 Ry
     estimated scf accuracy    <       0.01300120 Ry

     iteration #  7     ecut=    71.00 Ry     beta= 0.10
     Davidson diagonalization with overlap
     ethr =  1.10E-06,  avg # of iterations =  2.1

     total cpu time spent up to now is     1068.9 secs

     total energy              =  -13813.29965607 Ry
     estimated scf accuracy    <       0.00353433 Ry

     iteration #  8     ecut=    71.00 Ry     beta= 0.10
     Davidson diagonalization with overlap
     ethr =  6.90E-07,  avg # of iterations =  2.3

     total cpu time spent up to now is     1192.7 secs

     total energy              =  -13813.29991918 Ry
     estimated scf accuracy    <       0.00032911 Ry

     iteration #  9     ecut=    71.00 Ry     beta= 0.10
     Davidson diagonalization with overlap
     ethr =  6.43E-08,  avg # of iterations =  2.4

     total cpu time spent up to now is     1304.7 secs

     total energy              =  -13813.29989485 Ry
     estimated scf accuracy    <       0.00011018 Ry

     iteration # 10     ecut=    71.00 Ry     beta= 0.10
     Davidson diagonalization with overlap
     ethr =  2.15E-08,  avg # of iterations =  2.9

     total cpu time spent up to now is     1431.8 secs

     total energy              =  -13813.29990904 Ry
     estimated scf accuracy    <       0.00000945 Ry

     iteration # 11     ecut=    71.00 Ry     beta= 0.10
     Davidson diagonalization with overlap
     ethr =  1.85E-09,  avg # of iterations =  3.9

     total cpu time spent up to now is     1569.3 secs

     total energy              =  -13813.29991044 Ry
     estimated scf accuracy    <       0.00000277 Ry

     iteration # 12     ecut=    71.00 Ry     beta= 0.10
     Davidson diagonalization with overlap
     ethr =  5.40E-10,  avg # of iterations =  1.9

     total cpu time spent up to now is     1676.4 secs

     total energy              =  -13813.29991075 Ry
     estimated scf accuracy    <       0.00000104 Ry

     iteration # 13     ecut=    71.00 Ry     beta= 0.10
     Davidson diagonalization with overlap
     ethr =  2.03E-10,  avg # of iterations =  1.8

     total cpu time spent up to now is     1778.6 secs

     End of self-consistent calculation

     Number of k-points >= 100: set verbosity='high' to print the bands.

     the Fermi energy is    23.1146 ev

!    total energy              =  -13813.29991201 Ry

     total all-electron energy =   -289989.690251 Ry
     estimated scf accuracy    <       0.00000035 Ry
     smearing contrib. (-TS)   =       0.02058940 Ry
     internal energy E=F+TS    =  -13813.32050141 Ry

     The total energy is F=E-TS. E is the sum of the following terms:
     one-electron contribution =    -995.54494779 Ry
     hartree contribution      =     916.01102908 Ry
     xc contribution           =    -928.06415383 Ry
     ewald contribution        =   -5216.28093379 Ry
     one-center paw contrib.   =   -7589.44149508 Ry

     convergence has been achieved in  13 iterations

     Forces acting on atoms (cartesian axes, Ry/au):

     atom    1 type  1   force =     0.00000000    0.00000000    0.00000000
     atom    2 type  1   force =    -0.00012363    0.00005943    0.00000000
     atom    3 type  1   force =    -0.00021938    0.00000000   -0.00011453
     atom    4 type  1   force =     0.00000000    0.00005090   -0.00002822
     atom    5 type  1   force =     0.00000000    0.00000000    0.00000000
     atom    6 type  1   force =    -0.00011821    0.00024565   -0.00000000
     atom    7 type  1   force =    -0.00021938    0.00000000    0.00011453
     atom    8 type  1   force =     0.00000000    0.00005090    0.00002822
     atom    9 type  1   force =     0.00000000    0.00000000    0.00000000
     atom   10 type  1   force =    -0.00012363   -0.00005943   -0.00000000
     atom   11 type  1   force =    -0.00001886    0.00000000    0.00005698
     atom   12 type  1   force =     0.00000000   -0.00005090   -0.00002822
     atom   13 type  1   force =     0.00000000    0.00000000    0.00000000
     atom   14 type  1   force =    -0.00011821   -0.00024565    0.00000000
     atom   15 type  1   force =    -0.00001886    0.00000000   -0.00005698
     atom   16 type  1   force =     0.00000000   -0.00005090    0.00002822
     atom   17 type  1   force =     0.00000000    0.00000000    0.00000000
     atom   18 type  1   force =     0.00012363    0.00005943   -0.00000000
     atom   19 type  1   force =     0.00021938    0.00000000   -0.00011453
     atom   20 type  1   force =     0.00000000    0.00026999   -0.00002742
     atom   21 type  1   force =     0.00000000    0.00000000    0.00000000
     atom   22 type  1   force =     0.00011821    0.00024565    0.00000000
     atom   23 type  1   force =     0.00021938    0.00000000    0.00011453
     atom   24 type  1   force =     0.00000000    0.00026999    0.00002742
     atom   25 type  1   force =     0.00000000    0.00000000    0.00000000
     atom   26 type  1   force =     0.00012363   -0.00005943    0.00000000
     atom   27 type  1   force =     0.00001886    0.00000000    0.00005698
     atom   28 type  1   force =     0.00000000   -0.00026999   -0.00002742
     atom   29 type  1   force =     0.00000000    0.00000000    0.00000000
     atom   30 type  1   force =     0.00011821   -0.00024565   -0.00000000
     atom   31 type  1   force =     0.00001886    0.00000000   -0.00005698
     atom   32 type  1   force =     0.00000000   -0.00026999    0.00002742

     Total force =     0.000970     Total SCF correction =     0.002946
     SCF correction compared to forces is large: reduce conv_thr to get better values


     Computing stress (Cartesian axis) and pressure

          total   stress  (Ry/bohr**3)                   (kbar)     P=       -4.90
  -0.00010859   0.00000000   0.00000000          -15.97        0.00        0.00
   0.00000000   0.00004192   0.00000000            0.00        6.17        0.00
   0.00000000   0.00000000  -0.00003334            0.00        0.00       -4.90


     Writing output data file /scratch/uLypVBcCyirDCmoN.save/
 
     init_run     :     42.44s CPU     43.15s WALL (       1 calls)
     electrons    :   1709.95s CPU   1732.77s WALL (       1 calls)
     forces       :     18.05s CPU     18.22s WALL (       1 calls)
     stress       :    111.59s CPU    112.43s WALL (       1 calls)

     Called by init_run:
     wfcinit      :     41.69s CPU     42.34s WALL (       1 calls)
     potinit      :      0.19s CPU      0.21s WALL (       1 calls)
     hinit0       :      0.13s CPU      0.14s WALL (       1 calls)

     Called by electrons:
     c_bands      :   1517.49s CPU   1536.41s WALL (      14 calls)
     sum_band     :    190.77s CPU    194.41s WALL (      14 calls)
     v_of_rho     :      0.19s CPU      0.22s WALL (      14 calls)
     newd         :      0.31s CPU      0.45s WALL (      14 calls)
     PAW_pot      :      1.16s CPU      1.23s WALL (      14 calls)
     mix_rho      :      0.06s CPU      0.07s WALL (      14 calls)

     Called by c_bands:
     init_us_2    :      7.26s CPU      7.42s WALL (    3875 calls)
     cegterg      :   1490.90s CPU   1508.46s WALL (    1750 calls)

     Called by *egterg:
     cdiaghg      :    181.73s CPU    182.87s WALL (    6245 calls)
     h_psi        :    819.19s CPU    831.87s WALL (    6495 calls)
     s_psi        :     59.48s CPU     59.89s WALL (    6495 calls)
     g_psi        :      1.46s CPU      1.48s WALL (    4620 calls)

     Called by h_psi:
     h_psi:calbec :    112.30s CPU    113.02s WALL (    6495 calls)
     vloc_psi     :    645.24s CPU    656.30s WALL (    6495 calls)
     add_vuspsi   :     57.86s CPU     58.72s WALL (    6495 calls)

     General routines
     calbec       :    175.63s CPU    176.83s WALL (    8870 calls)
     fft          :      0.20s CPU      0.23s WALL (     206 calls)
     ffts         :      0.02s CPU      0.02s WALL (      28 calls)
     fftw         :    754.35s CPU    767.03s WALL ( 3080928 calls)
     interpolate  :      0.03s CPU      0.04s WALL (      14 calls)
 
     Parallel routines
     fft_scatt_xy :     53.28s CPU     54.14s WALL ( 3081162 calls)
     fft_scatt_yz :    609.34s CPU    619.97s WALL ( 3081162 calls)
 
     PWSCF        :  31m50.28s CPU  32m20.42s WALL

 
   This run was terminated on:  19:31:51  25Nov2021            

=------------------------------------------------------------------------------=
   JOB DONE.
=------------------------------------------------------------------------------=
