
     Program PWSCF v.6.7MaX starts on 25Nov2021 at 22:12:40 

     This program is part of the open-source Quantum ESPRESSO suite
     for quantum simulation of materials; please cite
         "P. Giannozzi et al., J. Phys.:Condens. Matter 21 395502 (2009);
         "P. Giannozzi et al., J. Phys.:Condens. Matter 29 465901 (2017);
          URL http://www.quantum-espresso.org", 
     in publications or presentations arising from this work. More details at
     http://www.quantum-espresso.org/quote

     Parallel version (MPI & OpenMP), running on      72 processor cores
     Number of MPI processes:                72
     Threads/MPI process:                     1

     MPI processes distributed on     1 nodes
     R & G space division:  proc/nbgrp/npool/nimage =      72
     Reading input from /rds/homes/b/bxp912/jobs/20211014_ru_eos/wd/ec/ec_8_006.in
Warning: card &CELL ignored
Warning: card CELL_DYNAMICS = 'BFGS', ignored
Warning: card CELL_FACTOR = 2.0, ignored
Warning: card PRESS = 0.0, ignored
Warning: card / ignored

     Current dimensions of program PWSCF are:
     Max number of different atomic species (ntypx) = 10
     Max number of k-points (npk) =  40000
     Max angular momentum in pseudopotentials (lmaxx) =  3
     file Ru.pbe-spn-kjpaw_psl.1.0.0.UPF: wavefunction(s)  4D renormalized

     Subspace diagonalization in iterative solution of the eigenvalue problem:
     one sub-group per band group will be used
     ELPA distributed-memory algorithm (size of sub-group:  8*  8 procs)

     Found symmetry operation: I + (  0.2500  0.2500  0.0000)
     This is a supercell, fractional translations are disabled
     Message from routine setup:
     using ibrav=0 with symmetry is DISCOURAGED, use correct ibrav instead
 
     Parallelization info
     --------------------
     sticks:   dense  smooth     PW     G-vecs:    dense   smooth      PW
     Min          98      65     17                 6242     3351     475
     Max          99      66     18                 6249     3356     480
     Sum        7125    4705   1285               449747   241465   34425
 


     bravais-lattice index     =            0
     lattice parameter (alat)  =      14.4007  a.u.
     unit-cell volume          =    2986.4454 (a.u.)^3
     number of atoms/cell      =           32
     number of atomic types    =            1
     number of electrons       =       512.00
     number of Kohn-Sham states=          307
     kinetic-energy cutoff     =      71.0000  Ry
     charge density cutoff     =     430.0000  Ry
     scf convergence threshold =      1.0E-06
     mixing beta               =       0.1000
     number of iterations used =           10  plain     mixing
     Exchange-correlation= SLA  PW   PBX  PBC
                           (   1   4   3   4   0   0   0)

     celldm(1)=  14.400742  celldm(2)=   0.000000  celldm(3)=   0.000000
     celldm(4)=   0.000000  celldm(5)=   0.000000  celldm(6)=   0.000000

     crystal axes: (cart. coord. in units of alat)
               a(1) = (   1.003128   0.000000   0.000000 )  
               a(2) = (   0.000000   1.000003   0.000000 )  
               a(3) = (   0.000000   0.000000   0.996878 )  

     reciprocal axes: (cart. coord. in units 2 pi/alat)
               b(1) = (  0.996881  0.000000  0.000000 )  
               b(2) = (  0.000000  0.999997  0.000000 )  
               b(3) = (  0.000000  0.000000  1.003132 )  


     PseudoPot. # 1 for Ru read from file:
     /rds/homes/b/bxp912/pp/Ru.pbe-spn-kjpaw_psl.1.0.0.UPF
     MD5 check sum: 0ae1f594dea09af7be8575c3a481d1ae
     Pseudo is Projector augmented-wave + core cor, Zval = 16.0
     Generated using "atomic" code by A. Dal Corso  v.5.1
     Shape of augmentation charge: PSQ
     Using radial grid of 1233 points,  6 beta functions with: 
                l(1) =   0
                l(2) =   0
                l(3) =   1
                l(4) =   1
                l(5) =   2
                l(6) =   2
     Q(r) pseudized with 0 coefficients 


     atomic species   valence    mass     pseudopotential
        Ru            16.00   101.07000     Ru( 1.00)

      8 Sym. Ops., with inversion, found



   Cartesian axes

     site n.     atom                  positions (alat units)
         1           Ru  tau(   1) = (   0.0000000   0.0000000   0.0000000  )
         2           Ru  tau(   2) = (   0.2507821   0.2500008   0.0000000  )
         3           Ru  tau(   3) = (   0.2507821   0.0000000   0.2492190  )
         4           Ru  tau(   4) = (   0.0000000   0.2500008   0.2492190  )
         5           Ru  tau(   5) = (   0.0000000   0.0000000   0.4984391  )
         6           Ru  tau(   6) = (   0.2507810   0.2499998   0.4984391  )
         7           Ru  tau(   7) = (   0.2507821   0.0000000   0.7476582  )
         8           Ru  tau(   8) = (   0.0000000   0.2500008   0.7476582  )
         9           Ru  tau(   9) = (   0.0000000   0.5000018   0.0000000  )
        10           Ru  tau(  10) = (   0.2507821   0.7500029   0.0000000  )
        11           Ru  tau(  11) = (   0.2507810   0.5000018   0.2492180  )
        12           Ru  tau(  12) = (   0.0000000   0.7500029   0.2492190  )
        13           Ru  tau(  13) = (   0.0000000   0.5000018   0.4984391  )
        14           Ru  tau(  14) = (   0.2507810   0.7500039   0.4984391  )
        15           Ru  tau(  15) = (   0.2507810   0.5000018   0.7476592  )
        16           Ru  tau(  16) = (   0.0000000   0.7500029   0.7476582  )
        17           Ru  tau(  17) = (   0.5015643   0.0000000   0.0000000  )
        18           Ru  tau(  18) = (   0.7523466   0.2500008   0.0000000  )
        19           Ru  tau(  19) = (   0.7523466   0.0000000   0.2492190  )
        20           Ru  tau(  20) = (   0.5015643   0.2499998   0.2492180  )
        21           Ru  tau(  21) = (   0.5015643   0.0000000   0.4984391  )
        22           Ru  tau(  22) = (   0.7523477   0.2499998   0.4984391  )
        23           Ru  tau(  23) = (   0.7523466   0.0000000   0.7476582  )
        24           Ru  tau(  24) = (   0.5015643   0.2499998   0.7476592  )
        25           Ru  tau(  25) = (   0.5015643   0.5000018   0.0000000  )
        26           Ru  tau(  26) = (   0.7523466   0.7500029   0.0000000  )
        27           Ru  tau(  27) = (   0.7523477   0.5000018   0.2492180  )
        28           Ru  tau(  28) = (   0.5015643   0.7500039   0.2492180  )
        29           Ru  tau(  29) = (   0.5015643   0.5000018   0.4984391  )
        30           Ru  tau(  30) = (   0.7523477   0.7500039   0.4984391  )
        31           Ru  tau(  31) = (   0.7523477   0.5000018   0.7476592  )
        32           Ru  tau(  32) = (   0.5015643   0.7500039   0.7476592  )

     number of k points=   125  Marzari-Vanderbilt smearing, width (Ry)=  0.0400

     Number of k-points >= 100: set verbosity='high' to print them.

     Dense  grid:   449747 G-vectors     FFT dimensions: (  96,  96,  96)

     Smooth grid:   241465 G-vectors     FFT dimensions: (  80,  80,  80)

     Estimated max dynamical RAM per process >     283.74 MB

     Estimated total dynamical RAM >      19.95 GB

     Check: negative core charge=   -0.000002

     Initial potential from superposition of free atoms

     starting charge  511.97959, renormalised to  512.00000
     Starting wfcs are  320 randomized atomic wfcs
     Checking if some PAW data can be deallocated... 

     total cpu time spent up to now is       44.6 secs

     Self-consistent Calculation

     iteration #  1     ecut=    71.00 Ry     beta= 0.10
     Davidson diagonalization with overlap
     ethr =  1.00E-02,  avg # of iterations =  3.4

     Threshold (ethr) on eigenvalues was too large:
     Diagonalizing with lowered threshold

     Davidson diagonalization with overlap
     ethr =  8.34E-05,  avg # of iterations =  5.5

     total cpu time spent up to now is      323.5 secs

     total energy              =  -13813.41251203 Ry
     estimated scf accuracy    <       0.63852521 Ry

     iteration #  2     ecut=    71.00 Ry     beta= 0.10
     Davidson diagonalization with overlap
     ethr =  1.25E-04,  avg # of iterations =  1.1

     total cpu time spent up to now is      431.4 secs

     total energy              =  -13813.20859416 Ry
     estimated scf accuracy    <       0.39921255 Ry

     iteration #  3     ecut=    71.00 Ry     beta= 0.10
     Davidson diagonalization with overlap
     ethr =  7.80E-05,  avg # of iterations =  2.4

     total cpu time spent up to now is      559.1 secs

     total energy              =  -13813.29805346 Ry
     estimated scf accuracy    <       0.05329839 Ry

     iteration #  4     ecut=    71.00 Ry     beta= 0.10
     Davidson diagonalization with overlap
     ethr =  1.04E-05,  avg # of iterations =  2.2

     total cpu time spent up to now is      670.8 secs

     total energy              =  -13813.29958578 Ry
     estimated scf accuracy    <       0.00885533 Ry

     iteration #  5     ecut=    71.00 Ry     beta= 0.10
     Davidson diagonalization with overlap
     ethr =  1.73E-06,  avg # of iterations =  2.3

     total cpu time spent up to now is      783.5 secs

     total energy              =  -13813.30048676 Ry
     estimated scf accuracy    <       0.00562135 Ry

     iteration #  6     ecut=    71.00 Ry     beta= 0.10
     Davidson diagonalization with overlap
     ethr =  1.10E-06,  avg # of iterations =  3.7

     total cpu time spent up to now is      940.0 secs

     total energy              =  -13813.29974931 Ry
     estimated scf accuracy    <       0.01352235 Ry

     iteration #  7     ecut=    71.00 Ry     beta= 0.10
     Davidson diagonalization with overlap
     ethr =  1.10E-06,  avg # of iterations =  2.1

     total cpu time spent up to now is     1064.2 secs

     total energy              =  -13813.30036489 Ry
     estimated scf accuracy    <       0.00159159 Ry

     iteration #  8     ecut=    71.00 Ry     beta= 0.10
     Davidson diagonalization with overlap
     ethr =  3.11E-07,  avg # of iterations =  2.0

     total cpu time spent up to now is     1180.5 secs

     total energy              =  -13813.30039616 Ry
     estimated scf accuracy    <       0.00030799 Ry

     iteration #  9     ecut=    71.00 Ry     beta= 0.10
     Davidson diagonalization with overlap
     ethr =  6.02E-08,  avg # of iterations =  2.4

     total cpu time spent up to now is     1294.4 secs

     total energy              =  -13813.30036956 Ry
     estimated scf accuracy    <       0.00009423 Ry

     iteration # 10     ecut=    71.00 Ry     beta= 0.10
     Davidson diagonalization with overlap
     ethr =  1.84E-08,  avg # of iterations =  3.1

     total cpu time spent up to now is     1435.0 secs

     total energy              =  -13813.30039004 Ry
     estimated scf accuracy    <       0.00000403 Ry

     iteration # 11     ecut=    71.00 Ry     beta= 0.10
     Davidson diagonalization with overlap
     ethr =  7.86E-10,  avg # of iterations =  3.9

     total cpu time spent up to now is     1571.5 secs

     total energy              =  -13813.30039135 Ry
     estimated scf accuracy    <       0.00000180 Ry

     iteration # 12     ecut=    71.00 Ry     beta= 0.10
     Davidson diagonalization with overlap
     ethr =  3.51E-10,  avg # of iterations =  1.0

     total cpu time spent up to now is     1670.1 secs

     End of self-consistent calculation

     Number of k-points >= 100: set verbosity='high' to print the bands.

     the Fermi energy is    23.1147 ev

!    total energy              =  -13813.30039268 Ry

     total all-electron energy =   -289989.690732 Ry
     estimated scf accuracy    <       0.00000094 Ry
     smearing contrib. (-TS)   =       0.02051444 Ry
     internal energy E=F+TS    =  -13813.32090712 Ry

     The total energy is F=E-TS. E is the sum of the following terms:
     one-electron contribution =    -995.53533691 Ry
     hartree contribution      =     916.00157772 Ry
     xc contribution           =    -928.06265260 Ry
     ewald contribution        =   -5216.28319181 Ry
     one-center paw contrib.   =   -7589.44130352 Ry

     convergence has been achieved in  12 iterations

     Forces acting on atoms (cartesian axes, Ry/au):

     atom    1 type  1   force =     0.00000000    0.00000000    0.00000000
     atom    2 type  1   force =    -0.00021374    0.00008667   -0.00000000
     atom    3 type  1   force =    -0.00040844    0.00000000   -0.00020995
     atom    4 type  1   force =     0.00000000    0.00005026   -0.00004524
     atom    5 type  1   force =     0.00000000    0.00000000    0.00000000
     atom    6 type  1   force =    -0.00018679    0.00045442    0.00000000
     atom    7 type  1   force =    -0.00040844    0.00000000    0.00020995
     atom    8 type  1   force =     0.00000000    0.00005026    0.00004524
     atom    9 type  1   force =     0.00000000    0.00000000    0.00000000
     atom   10 type  1   force =    -0.00021374   -0.00008667    0.00000000
     atom   11 type  1   force =     0.00002531    0.00000000    0.00014733
     atom   12 type  1   force =     0.00000000   -0.00005026   -0.00004524
     atom   13 type  1   force =     0.00000000    0.00000000    0.00000000
     atom   14 type  1   force =    -0.00018679   -0.00045442   -0.00000000
     atom   15 type  1   force =     0.00002531    0.00000000   -0.00014733
     atom   16 type  1   force =     0.00000000   -0.00005026    0.00004524
     atom   17 type  1   force =     0.00000000    0.00000000    0.00000000
     atom   18 type  1   force =     0.00021374    0.00008667    0.00000000
     atom   19 type  1   force =     0.00040844    0.00000000   -0.00020995
     atom   20 type  1   force =     0.00000000    0.00049861   -0.00002388
     atom   21 type  1   force =     0.00000000    0.00000000    0.00000000
     atom   22 type  1   force =     0.00018679    0.00045442   -0.00000000
     atom   23 type  1   force =     0.00040844    0.00000000    0.00020995
     atom   24 type  1   force =     0.00000000    0.00049861    0.00002388
     atom   25 type  1   force =     0.00000000    0.00000000    0.00000000
     atom   26 type  1   force =     0.00021374   -0.00008667   -0.00000000
     atom   27 type  1   force =    -0.00002531    0.00000000    0.00014733
     atom   28 type  1   force =     0.00000000   -0.00049861   -0.00002388
     atom   29 type  1   force =     0.00000000    0.00000000    0.00000000
     atom   30 type  1   force =     0.00018679   -0.00045442    0.00000000
     atom   31 type  1   force =    -0.00002531    0.00000000   -0.00014733
     atom   32 type  1   force =     0.00000000   -0.00049861    0.00002388

     Total force =     0.001768     Total SCF correction =     0.006911
     SCF correction compared to forces is large: reduce conv_thr to get better values


     Computing stress (Cartesian axis) and pressure

          total   stress  (Ry/bohr**3)                   (kbar)     P=       -5.15
  -0.00008887   0.00000000   0.00000000          -13.07        0.00        0.00
   0.00000000  -0.00003510   0.00000000            0.00       -5.16        0.00
   0.00000000   0.00000000   0.00001892            0.00        0.00        2.78


     Writing output data file /scratch/jRCpMMpfAoeBwlFl.save/
 
     init_run     :     41.20s CPU     41.92s WALL (       1 calls)
     electrons    :   1601.87s CPU   1625.58s WALL (       1 calls)
     forces       :     18.58s CPU     18.74s WALL (       1 calls)
     stress       :    110.32s CPU    111.31s WALL (       1 calls)

     Called by init_run:
     wfcinit      :     40.44s CPU     41.08s WALL (       1 calls)
     potinit      :      0.20s CPU      0.21s WALL (       1 calls)
     hinit0       :      0.26s CPU      0.27s WALL (       1 calls)

     Called by electrons:
     c_bands      :   1416.51s CPU   1435.82s WALL (      13 calls)
     sum_band     :    183.70s CPU    187.82s WALL (      13 calls)
     v_of_rho     :      0.18s CPU      0.21s WALL (      13 calls)
     newd         :      0.28s CPU      0.42s WALL (      13 calls)
     PAW_pot      :      1.15s CPU      1.22s WALL (      13 calls)
     mix_rho      :      0.10s CPU      0.12s WALL (      13 calls)

     Called by c_bands:
     init_us_2    :      7.45s CPU      7.62s WALL (    3625 calls)
     cegterg      :   1391.61s CPU   1409.73s WALL (    1625 calls)

     Called by *egterg:
     cdiaghg      :    172.85s CPU    174.05s WALL (    5895 calls)
     h_psi        :    766.43s CPU    778.92s WALL (    6145 calls)
     s_psi        :     55.61s CPU     56.01s WALL (    6145 calls)
     g_psi        :      1.35s CPU      1.37s WALL (    4395 calls)

     Called by h_psi:
     h_psi:calbec :    105.82s CPU    106.53s WALL (    6145 calls)
     vloc_psi     :    603.07s CPU    613.99s WALL (    6145 calls)
     add_vuspsi   :     54.06s CPU     54.90s WALL (    6145 calls)

     General routines
     calbec       :    168.86s CPU    170.20s WALL (    8395 calls)
     fft          :      0.20s CPU      0.23s WALL (     193 calls)
     ffts         :      0.04s CPU      0.04s WALL (      26 calls)
     fftw         :    709.25s CPU    722.17s WALL ( 2890049 calls)
     interpolate  :      0.03s CPU      0.04s WALL (      13 calls)
 
     Parallel routines
     fft_scatt_xy :     50.15s CPU     51.01s WALL ( 2890268 calls)
     fft_scatt_yz :    572.85s CPU    583.65s WALL ( 2890268 calls)
 
     PWSCF        :  30m 2.15s CPU  30m33.07s WALL

 
   This run was terminated on:  22:43:13  25Nov2021            

=------------------------------------------------------------------------------=
   JOB DONE.
=------------------------------------------------------------------------------=
