
     Program PWSCF v.6.7MaX starts on 26Nov2021 at  2: 1:56 

     This program is part of the open-source Quantum ESPRESSO suite
     for quantum simulation of materials; please cite
         "P. Giannozzi et al., J. Phys.:Condens. Matter 21 395502 (2009);
         "P. Giannozzi et al., J. Phys.:Condens. Matter 29 465901 (2017);
          URL http://www.quantum-espresso.org", 
     in publications or presentations arising from this work. More details at
     http://www.quantum-espresso.org/quote

     Parallel version (MPI & OpenMP), running on      72 processor cores
     Number of MPI processes:                72
     Threads/MPI process:                     1

     MPI processes distributed on     1 nodes
     R & G space division:  proc/nbgrp/npool/nimage =      72
     Reading input from /rds/homes/b/bxp912/jobs/20211014_ru_eos/wd/ec/ec_9_005.in
Warning: card &CELL ignored
Warning: card CELL_DYNAMICS = 'BFGS', ignored
Warning: card CELL_FACTOR = 2.0, ignored
Warning: card PRESS = 0.0, ignored
Warning: card / ignored

     Current dimensions of program PWSCF are:
     Max number of different atomic species (ntypx) = 10
     Max number of k-points (npk) =  40000
     Max angular momentum in pseudopotentials (lmaxx) =  3
     file Ru.pbe-spn-kjpaw_psl.1.0.0.UPF: wavefunction(s)  4D renormalized

     Subspace diagonalization in iterative solution of the eigenvalue problem:
     one sub-group per band group will be used
     ELPA distributed-memory algorithm (size of sub-group:  8*  8 procs)

     Found symmetry operation: I + (  0.2500  0.2500  0.0000)
     This is a supercell, fractional translations are disabled
     Message from routine setup:
     using ibrav=0 with symmetry is DISCOURAGED, use correct ibrav instead
 
     Parallelization info
     --------------------
     sticks:   dense  smooth     PW     G-vecs:    dense   smooth      PW
     Min          98      65     17                 6242     3351     475
     Max          99      66     18                 6249     3356     482
     Sum        7125    4705   1285               449767   241433   34441
 


     bravais-lattice index     =            0
     lattice parameter (alat)  =      14.4007  a.u.
     unit-cell volume          =    2986.4454 (a.u.)^3
     number of atoms/cell      =           32
     number of atomic types    =            1
     number of electrons       =       512.00
     number of Kohn-Sham states=          307
     kinetic-energy cutoff     =      71.0000  Ry
     charge density cutoff     =     430.0000  Ry
     scf convergence threshold =      1.0E-06
     mixing beta               =       0.1000
     number of iterations used =           10  plain     mixing
     Exchange-correlation= SLA  PW   PBX  PBC
                           (   1   4   3   4   0   0   0)

     celldm(1)=  14.400742  celldm(2)=   0.000000  celldm(3)=   0.000000
     celldm(4)=   0.000000  celldm(5)=   0.000000  celldm(6)=   0.000000

     crystal axes: (cart. coord. in units of alat)
               a(1) = (   1.000002   0.000000   0.000000 )  
               a(2) = (   0.000000   1.002502   0.000000 )  
               a(3) = (   0.000000   0.000000   0.997502 )  

     reciprocal axes: (cart. coord. in units 2 pi/alat)
               b(1) = (  0.999998  0.000000  0.000000 )  
               b(2) = (  0.000000  0.997504  0.000000 )  
               b(3) = (  0.000000  0.000000  1.002504 )  


     PseudoPot. # 1 for Ru read from file:
     /rds/homes/b/bxp912/pp/Ru.pbe-spn-kjpaw_psl.1.0.0.UPF
     MD5 check sum: 0ae1f594dea09af7be8575c3a481d1ae
     Pseudo is Projector augmented-wave + core cor, Zval = 16.0
     Generated using "atomic" code by A. Dal Corso  v.5.1
     Shape of augmentation charge: PSQ
     Using radial grid of 1233 points,  6 beta functions with: 
                l(1) =   0
                l(2) =   0
                l(3) =   1
                l(4) =   1
                l(5) =   2
                l(6) =   2
     Q(r) pseudized with 0 coefficients 


     atomic species   valence    mass     pseudopotential
        Ru            16.00   101.07000     Ru( 1.00)

      8 Sym. Ops., with inversion, found



   Cartesian axes

     site n.     atom                  positions (alat units)
         1           Ru  tau(   1) = (   0.0000000   0.0000000   0.0000000  )
         2           Ru  tau(   2) = (   0.2500005   0.2506255   0.0000000  )
         3           Ru  tau(   3) = (   0.2500005   0.0000000   0.2493750  )
         4           Ru  tau(   4) = (   0.0000000   0.2506255   0.2493750  )
         5           Ru  tau(   5) = (   0.0000000   0.0000000   0.4987510  )
         6           Ru  tau(   6) = (   0.2499995   0.2506245   0.4987510  )
         7           Ru  tau(   7) = (   0.2500005   0.0000000   0.7481260  )
         8           Ru  tau(   8) = (   0.0000000   0.2506255   0.7481260  )
         9           Ru  tau(   9) = (   0.0000000   0.5012513   0.0000000  )
        10           Ru  tau(  10) = (   0.2500005   0.7518770   0.0000000  )
        11           Ru  tau(  11) = (   0.2499995   0.5012513   0.2493739  )
        12           Ru  tau(  12) = (   0.0000000   0.7518770   0.2493750  )
        13           Ru  tau(  13) = (   0.0000000   0.5012513   0.4987510  )
        14           Ru  tau(  14) = (   0.2499995   0.7518780   0.4987510  )
        15           Ru  tau(  15) = (   0.2499995   0.5012513   0.7481271  )
        16           Ru  tau(  16) = (   0.0000000   0.7518770   0.7481260  )
        17           Ru  tau(  17) = (   0.5000013   0.0000000   0.0000000  )
        18           Ru  tau(  18) = (   0.7500020   0.2506255   0.0000000  )
        19           Ru  tau(  19) = (   0.7500020   0.0000000   0.2493750  )
        20           Ru  tau(  20) = (   0.5000013   0.2506245   0.2493739  )
        21           Ru  tau(  21) = (   0.5000013   0.0000000   0.4987510  )
        22           Ru  tau(  22) = (   0.7500030   0.2506245   0.4987510  )
        23           Ru  tau(  23) = (   0.7500020   0.0000000   0.7481260  )
        24           Ru  tau(  24) = (   0.5000013   0.2506245   0.7481271  )
        25           Ru  tau(  25) = (   0.5000013   0.5012513   0.0000000  )
        26           Ru  tau(  26) = (   0.7500020   0.7518770   0.0000000  )
        27           Ru  tau(  27) = (   0.7500030   0.5012513   0.2493739  )
        28           Ru  tau(  28) = (   0.5000013   0.7518780   0.2493739  )
        29           Ru  tau(  29) = (   0.5000013   0.5012513   0.4987510  )
        30           Ru  tau(  30) = (   0.7500030   0.7518780   0.4987510  )
        31           Ru  tau(  31) = (   0.7500030   0.5012513   0.7481271  )
        32           Ru  tau(  32) = (   0.5000013   0.7518780   0.7481271  )

     number of k points=   125  Marzari-Vanderbilt smearing, width (Ry)=  0.0400

     Number of k-points >= 100: set verbosity='high' to print them.

     Dense  grid:   449767 G-vectors     FFT dimensions: (  96,  96,  96)

     Smooth grid:   241433 G-vectors     FFT dimensions: (  80,  80,  80)

     Estimated max dynamical RAM per process >     283.75 MB

     Estimated total dynamical RAM >      19.95 GB

     Check: negative core charge=   -0.000002

     Initial potential from superposition of free atoms

     starting charge  511.97959, renormalised to  512.00000
     Starting wfcs are  320 randomized atomic wfcs
     Checking if some PAW data can be deallocated... 

     total cpu time spent up to now is       42.2 secs

     Self-consistent Calculation

     iteration #  1     ecut=    71.00 Ry     beta= 0.10
     Davidson diagonalization with overlap
     ethr =  1.00E-02,  avg # of iterations =  3.3

     Threshold (ethr) on eigenvalues was too large:
     Diagonalizing with lowered threshold

     Davidson diagonalization with overlap
     ethr =  8.32E-05,  avg # of iterations =  5.5

     total cpu time spent up to now is      328.8 secs

     total energy              =  -13813.41269101 Ry
     estimated scf accuracy    <       0.63856656 Ry

     iteration #  2     ecut=    71.00 Ry     beta= 0.10
     Davidson diagonalization with overlap
     ethr =  1.25E-04,  avg # of iterations =  1.1

     total cpu time spent up to now is      432.8 secs

     total energy              =  -13813.20879593 Ry
     estimated scf accuracy    <       0.39922430 Ry

     iteration #  3     ecut=    71.00 Ry     beta= 0.10
     Davidson diagonalization with overlap
     ethr =  7.80E-05,  avg # of iterations =  2.2

     total cpu time spent up to now is      566.5 secs

     total energy              =  -13813.29821648 Ry
     estimated scf accuracy    <       0.05357816 Ry

     iteration #  4     ecut=    71.00 Ry     beta= 0.10
     Davidson diagonalization with overlap
     ethr =  1.05E-05,  avg # of iterations =  2.5

     total cpu time spent up to now is      677.5 secs

     total energy              =  -13813.29975943 Ry
     estimated scf accuracy    <       0.00885123 Ry

     iteration #  5     ecut=    71.00 Ry     beta= 0.10
     Davidson diagonalization with overlap
     ethr =  1.73E-06,  avg # of iterations =  2.3

     total cpu time spent up to now is      782.9 secs

     total energy              =  -13813.30065137 Ry
     estimated scf accuracy    <       0.00561784 Ry

     iteration #  6     ecut=    71.00 Ry     beta= 0.10
     Davidson diagonalization with overlap
     ethr =  1.10E-06,  avg # of iterations =  3.6

     total cpu time spent up to now is      942.6 secs

     total energy              =  -13813.29989429 Ry
     estimated scf accuracy    <       0.01334867 Ry

     iteration #  7     ecut=    71.00 Ry     beta= 0.10
     Davidson diagonalization with overlap
     ethr =  1.10E-06,  avg # of iterations =  2.2

     total cpu time spent up to now is     1071.3 secs

     total energy              =  -13813.30054942 Ry
     estimated scf accuracy    <       0.00149535 Ry

     iteration #  8     ecut=    71.00 Ry     beta= 0.10
     Davidson diagonalization with overlap
     ethr =  2.92E-07,  avg # of iterations =  2.0

     total cpu time spent up to now is     1182.6 secs

     total energy              =  -13813.30057275 Ry
     estimated scf accuracy    <       0.00030446 Ry

     iteration #  9     ecut=    71.00 Ry     beta= 0.10
     Davidson diagonalization with overlap
     ethr =  5.95E-08,  avg # of iterations =  2.5

     total cpu time spent up to now is     1297.2 secs

     total energy              =  -13813.30054787 Ry
     estimated scf accuracy    <       0.00009323 Ry

     iteration # 10     ecut=    71.00 Ry     beta= 0.10
     Davidson diagonalization with overlap
     ethr =  1.82E-08,  avg # of iterations =  3.0

     total cpu time spent up to now is     1431.9 secs

     total energy              =  -13813.30056674 Ry
     estimated scf accuracy    <       0.00000430 Ry

     iteration # 11     ecut=    71.00 Ry     beta= 0.10
     Davidson diagonalization with overlap
     ethr =  8.41E-10,  avg # of iterations =  3.8

     total cpu time spent up to now is     1563.1 secs

     total energy              =  -13813.30056795 Ry
     estimated scf accuracy    <       0.00000173 Ry

     iteration # 12     ecut=    71.00 Ry     beta= 0.10
     Davidson diagonalization with overlap
     ethr =  3.38E-10,  avg # of iterations =  1.1

     total cpu time spent up to now is     1662.0 secs

     End of self-consistent calculation

     Number of k-points >= 100: set verbosity='high' to print the bands.

     the Fermi energy is    23.1147 ev

!    total energy              =  -13813.30056916 Ry

     total all-electron energy =   -289989.690908 Ry
     estimated scf accuracy    <       0.00000100 Ry
     smearing contrib. (-TS)   =       0.02048598 Ry
     internal energy E=F+TS    =  -13813.32105514 Ry

     The total energy is F=E-TS. E is the sum of the following terms:
     one-electron contribution =    -995.53163025 Ry
     hartree contribution      =     915.99785663 Ry
     xc contribution           =    -928.06204425 Ry
     ewald contribution        =   -5216.28403839 Ry
     one-center paw contrib.   =   -7589.44119888 Ry

     convergence has been achieved in  12 iterations

     Forces acting on atoms (cartesian axes, Ry/au):

     atom    1 type  1   force =     0.00000000    0.00000000    0.00000000
     atom    2 type  1   force =    -0.00025568    0.00005248    0.00000000
     atom    3 type  1   force =    -0.00043879    0.00000000   -0.00016710
     atom    4 type  1   force =     0.00000000    0.00002218   -0.00000314
     atom    5 type  1   force =     0.00000000    0.00000000    0.00000000
     atom    6 type  1   force =    -0.00023367    0.00039910    0.00000000
     atom    7 type  1   force =    -0.00043879    0.00000000    0.00016710
     atom    8 type  1   force =     0.00000000    0.00002218    0.00000314
     atom    9 type  1   force =     0.00000000    0.00000000    0.00000000
     atom   10 type  1   force =    -0.00025568   -0.00005248   -0.00000000
     atom   11 type  1   force =    -0.00003594    0.00000000    0.00017234
     atom   12 type  1   force =     0.00000000   -0.00002218   -0.00000314
     atom   13 type  1   force =     0.00000000    0.00000000    0.00000000
     atom   14 type  1   force =    -0.00023367   -0.00039910   -0.00000000
     atom   15 type  1   force =    -0.00003594    0.00000000   -0.00017234
     atom   16 type  1   force =     0.00000000   -0.00002218    0.00000314
     atom   17 type  1   force =     0.00000000    0.00000000    0.00000000
     atom   18 type  1   force =     0.00025568    0.00005248   -0.00000000
     atom   19 type  1   force =     0.00043879    0.00000000   -0.00016710
     atom   20 type  1   force =     0.00000000    0.00044482    0.00000788
     atom   21 type  1   force =     0.00000000    0.00000000    0.00000000
     atom   22 type  1   force =     0.00023367    0.00039910   -0.00000000
     atom   23 type  1   force =     0.00043879    0.00000000    0.00016710
     atom   24 type  1   force =     0.00000000    0.00044482   -0.00000788
     atom   25 type  1   force =     0.00000000    0.00000000    0.00000000
     atom   26 type  1   force =     0.00025568   -0.00005248    0.00000000
     atom   27 type  1   force =     0.00003594    0.00000000    0.00017234
     atom   28 type  1   force =     0.00000000   -0.00044482    0.00000788
     atom   29 type  1   force =     0.00000000    0.00000000    0.00000000
     atom   30 type  1   force =     0.00023367   -0.00039910    0.00000000
     atom   31 type  1   force =     0.00003594    0.00000000   -0.00017234
     atom   32 type  1   force =     0.00000000   -0.00044482   -0.00000788

     Total force =     0.001711     Total SCF correction =     0.006868
     SCF correction compared to forces is large: reduce conv_thr to get better values


     Computing stress (Cartesian axis) and pressure

          total   stress  (Ry/bohr**3)                   (kbar)     P=       -5.27
  -0.00003593   0.00000000   0.00000000           -5.29        0.00        0.00
   0.00000000  -0.00007892   0.00000000            0.00      -11.61        0.00
   0.00000000   0.00000000   0.00000731            0.00        0.00        1.07


     Writing output data file /scratch/JawqNyvFjQpiXGxO.save/
 
     init_run     :     38.71s CPU     39.44s WALL (       1 calls)
     electrons    :   1595.55s CPU   1619.79s WALL (       1 calls)
     forces       :     18.34s CPU     18.49s WALL (       1 calls)
     stress       :    110.63s CPU    111.54s WALL (       1 calls)

     Called by init_run:
     wfcinit      :     37.33s CPU     37.98s WALL (       1 calls)
     potinit      :      0.46s CPU      0.51s WALL (       1 calls)
     hinit0       :      0.56s CPU      0.57s WALL (       1 calls)

     Called by electrons:
     c_bands      :   1421.87s CPU   1442.25s WALL (      13 calls)
     sum_band     :    171.69s CPU    175.30s WALL (      13 calls)
     v_of_rho     :      0.31s CPU      0.38s WALL (      13 calls)
     newd         :      0.36s CPU      0.47s WALL (      13 calls)
     PAW_pot      :      1.18s CPU      1.26s WALL (      13 calls)
     mix_rho      :      0.35s CPU      0.36s WALL (      13 calls)

     Called by c_bands:
     init_us_2    :      6.90s CPU      7.06s WALL (    3625 calls)
     cegterg      :   1397.17s CPU   1416.41s WALL (    1625 calls)

     Called by *egterg:
     cdiaghg      :    171.45s CPU    173.72s WALL (    5893 calls)
     h_psi        :    764.95s CPU    777.51s WALL (    6143 calls)
     s_psi        :     54.95s CPU     55.34s WALL (    6143 calls)
     g_psi        :      1.40s CPU      1.42s WALL (    4393 calls)

     Called by h_psi:
     h_psi:calbec :    105.44s CPU    106.53s WALL (    6143 calls)
     vloc_psi     :    602.53s CPU    613.07s WALL (    6143 calls)
     add_vuspsi   :     53.46s CPU     54.35s WALL (    6143 calls)

     General routines
     calbec       :    166.44s CPU    167.95s WALL (    8393 calls)
     fft          :      0.58s CPU      0.63s WALL (     193 calls)
     ffts         :      0.03s CPU      0.03s WALL (      26 calls)
     fftw         :    697.27s CPU    709.51s WALL ( 2886841 calls)
     interpolate  :      0.05s CPU      0.06s WALL (      13 calls)
 
     Parallel routines
     fft_scatt_xy :     49.97s CPU     50.74s WALL ( 2887060 calls)
     fft_scatt_yz :    561.96s CPU    572.28s WALL ( 2887060 calls)
 
     PWSCF        :  29m51.03s CPU  30m22.67s WALL

 
   This run was terminated on:   2:32:19  26Nov2021            

=------------------------------------------------------------------------------=
   JOB DONE.
=------------------------------------------------------------------------------=
