
     Program PWSCF v.6.7MaX starts on 26Nov2021 at  3: 4:14 

     This program is part of the open-source Quantum ESPRESSO suite
     for quantum simulation of materials; please cite
         "P. Giannozzi et al., J. Phys.:Condens. Matter 21 395502 (2009);
         "P. Giannozzi et al., J. Phys.:Condens. Matter 29 465901 (2017);
          URL http://www.quantum-espresso.org", 
     in publications or presentations arising from this work. More details at
     http://www.quantum-espresso.org/quote

     Parallel version (MPI & OpenMP), running on      72 processor cores
     Number of MPI processes:                72
     Threads/MPI process:                     1

     MPI processes distributed on     1 nodes
     R & G space division:  proc/nbgrp/npool/nimage =      72
     Reading input from /rds/homes/b/bxp912/jobs/20211014_ru_eos/wd/ec/ec_9_007.in
Warning: card &CELL ignored
Warning: card CELL_DYNAMICS = 'BFGS', ignored
Warning: card CELL_FACTOR = 2.0, ignored
Warning: card PRESS = 0.0, ignored
Warning: card / ignored

     Current dimensions of program PWSCF are:
     Max number of different atomic species (ntypx) = 10
     Max number of k-points (npk) =  40000
     Max angular momentum in pseudopotentials (lmaxx) =  3
     file Ru.pbe-spn-kjpaw_psl.1.0.0.UPF: wavefunction(s)  4D renormalized

     Subspace diagonalization in iterative solution of the eigenvalue problem:
     one sub-group per band group will be used
     ELPA distributed-memory algorithm (size of sub-group:  8*  8 procs)

     Found symmetry operation: I + (  0.2500  0.2500  0.0000)
     This is a supercell, fractional translations are disabled
     Message from routine setup:
     using ibrav=0 with symmetry is DISCOURAGED, use correct ibrav instead
 
     Parallelization info
     --------------------
     sticks:   dense  smooth     PW     G-vecs:    dense   smooth      PW
     Min          99      65     17                 6245     3351     475
     Max         101      66     18                 6247     3358     482
     Sum        7133    4705   1285               449727   241477   34461
 


     bravais-lattice index     =            0
     lattice parameter (alat)  =      14.4007  a.u.
     unit-cell volume          =    2986.4454 (a.u.)^3
     number of atoms/cell      =           32
     number of atomic types    =            1
     number of electrons       =       512.00
     number of Kohn-Sham states=          307
     kinetic-energy cutoff     =      71.0000  Ry
     charge density cutoff     =     430.0000  Ry
     scf convergence threshold =      1.0E-06
     mixing beta               =       0.1000
     number of iterations used =           10  plain     mixing
     Exchange-correlation= SLA  PW   PBX  PBC
                           (   1   4   3   4   0   0   0)

     celldm(1)=  14.400742  celldm(2)=   0.000000  celldm(3)=   0.000000
     celldm(4)=   0.000000  celldm(5)=   0.000000  celldm(6)=   0.000000

     crystal axes: (cart. coord. in units of alat)
               a(1) = (   1.000005   0.000000   0.000000 )  
               a(2) = (   0.000000   1.003755   0.000000 )  
               a(3) = (   0.000000   0.000000   0.996255 )  

     reciprocal axes: (cart. coord. in units 2 pi/alat)
               b(1) = (  0.999995  0.000000  0.000000 )  
               b(2) = (  0.000000  0.996259  0.000000 )  
               b(3) = (  0.000000  0.000000  1.003759 )  


     PseudoPot. # 1 for Ru read from file:
     /rds/homes/b/bxp912/pp/Ru.pbe-spn-kjpaw_psl.1.0.0.UPF
     MD5 check sum: 0ae1f594dea09af7be8575c3a481d1ae
     Pseudo is Projector augmented-wave + core cor, Zval = 16.0
     Generated using "atomic" code by A. Dal Corso  v.5.1
     Shape of augmentation charge: PSQ
     Using radial grid of 1233 points,  6 beta functions with: 
                l(1) =   0
                l(2) =   0
                l(3) =   1
                l(4) =   1
                l(5) =   2
                l(6) =   2
     Q(r) pseudized with 0 coefficients 


     atomic species   valence    mass     pseudopotential
        Ru            16.00   101.07000     Ru( 1.00)

      8 Sym. Ops., with inversion, found



   Cartesian axes

     site n.     atom                  positions (alat units)
         1           Ru  tau(   1) = (   0.0000000   0.0000000   0.0000000  )
         2           Ru  tau(   2) = (   0.2500012   0.2509387   0.0000000  )
         3           Ru  tau(   3) = (   0.2500012   0.0000000   0.2490631  )
         4           Ru  tau(   4) = (   0.0000000   0.2509387   0.2490631  )
         5           Ru  tau(   5) = (   0.0000000   0.0000000   0.4981273  )
         6           Ru  tau(   6) = (   0.2500001   0.2509376   0.4981273  )
         7           Ru  tau(   7) = (   0.2500012   0.0000000   0.7471905  )
         8           Ru  tau(   8) = (   0.0000000   0.2509387   0.7471905  )
         9           Ru  tau(   9) = (   0.0000000   0.5018776   0.0000000  )
        10           Ru  tau(  10) = (   0.2500012   0.7528165   0.0000000  )
        11           Ru  tau(  11) = (   0.2500001   0.5018776   0.2490621  )
        12           Ru  tau(  12) = (   0.0000000   0.7528165   0.2490631  )
        13           Ru  tau(  13) = (   0.0000000   0.5018776   0.4981273  )
        14           Ru  tau(  14) = (   0.2500001   0.7528175   0.4981273  )
        15           Ru  tau(  15) = (   0.2500001   0.5018776   0.7471915  )
        16           Ru  tau(  16) = (   0.0000000   0.7528165   0.7471905  )
        17           Ru  tau(  17) = (   0.5000026   0.0000000   0.0000000  )
        18           Ru  tau(  18) = (   0.7500039   0.2509387   0.0000000  )
        19           Ru  tau(  19) = (   0.7500039   0.0000000   0.2490631  )
        20           Ru  tau(  20) = (   0.5000026   0.2509376   0.2490621  )
        21           Ru  tau(  21) = (   0.5000026   0.0000000   0.4981273  )
        22           Ru  tau(  22) = (   0.7500050   0.2509376   0.4981273  )
        23           Ru  tau(  23) = (   0.7500039   0.0000000   0.7471905  )
        24           Ru  tau(  24) = (   0.5000026   0.2509376   0.7471915  )
        25           Ru  tau(  25) = (   0.5000026   0.5018776   0.0000000  )
        26           Ru  tau(  26) = (   0.7500039   0.7528165   0.0000000  )
        27           Ru  tau(  27) = (   0.7500050   0.5018776   0.2490621  )
        28           Ru  tau(  28) = (   0.5000026   0.7528175   0.2490621  )
        29           Ru  tau(  29) = (   0.5000026   0.5018776   0.4981273  )
        30           Ru  tau(  30) = (   0.7500050   0.7528175   0.4981273  )
        31           Ru  tau(  31) = (   0.7500050   0.5018776   0.7471915  )
        32           Ru  tau(  32) = (   0.5000026   0.7528175   0.7471915  )

     number of k points=   125  Marzari-Vanderbilt smearing, width (Ry)=  0.0400

     Number of k-points >= 100: set verbosity='high' to print them.

     Dense  grid:   449727 G-vectors     FFT dimensions: (  96,  96,  96)

     Smooth grid:   241477 G-vectors     FFT dimensions: (  80,  80,  80)

     Estimated max dynamical RAM per process >     283.73 MB

     Estimated total dynamical RAM >      19.95 GB

     Check: negative core charge=   -0.000002

     Initial potential from superposition of free atoms

     starting charge  511.97959, renormalised to  512.00000
     Starting wfcs are  320 randomized atomic wfcs
     Checking if some PAW data can be deallocated... 

     total cpu time spent up to now is       44.5 secs

     Self-consistent Calculation

     iteration #  1     ecut=    71.00 Ry     beta= 0.10
     Davidson diagonalization with overlap
     ethr =  1.00E-02,  avg # of iterations =  3.4

     Threshold (ethr) on eigenvalues was too large:
     Diagonalizing with lowered threshold

     Davidson diagonalization with overlap
     ethr =  8.30E-05,  avg # of iterations =  5.6

     total cpu time spent up to now is      385.1 secs

     total energy              =  -13813.41229075 Ry
     estimated scf accuracy    <       0.63848653 Ry

     iteration #  2     ecut=    71.00 Ry     beta= 0.10
     Davidson diagonalization with overlap
     ethr =  1.25E-04,  avg # of iterations =  1.0

     total cpu time spent up to now is      511.2 secs

     total energy              =  -13813.20844479 Ry
     estimated scf accuracy    <       0.39914896 Ry

     iteration #  3     ecut=    71.00 Ry     beta= 0.10
     Davidson diagonalization with overlap
     ethr =  7.80E-05,  avg # of iterations =  2.2

     total cpu time spent up to now is      701.8 secs

     total energy              =  -13813.29781465 Ry
     estimated scf accuracy    <       0.05368420 Ry

     iteration #  4     ecut=    71.00 Ry     beta= 0.10
     Davidson diagonalization with overlap
     ethr =  1.05E-05,  avg # of iterations =  2.2

     total cpu time spent up to now is      812.4 secs

     total energy              =  -13813.29936321 Ry
     estimated scf accuracy    <       0.00885342 Ry

     iteration #  5     ecut=    71.00 Ry     beta= 0.10
     Davidson diagonalization with overlap
     ethr =  1.73E-06,  avg # of iterations =  2.2

     total cpu time spent up to now is      929.9 secs

     total energy              =  -13813.30021836 Ry
     estimated scf accuracy    <       0.00562213 Ry

     iteration #  6     ecut=    71.00 Ry     beta= 0.10
     Davidson diagonalization with overlap
     ethr =  1.10E-06,  avg # of iterations =  3.6

     total cpu time spent up to now is     1204.7 secs

     total energy              =  -13813.29978755 Ry
     estimated scf accuracy    <       0.01317577 Ry

     iteration #  7     ecut=    71.00 Ry     beta= 0.10
     Davidson diagonalization with overlap
     ethr =  1.10E-06,  avg # of iterations =  2.2

     total cpu time spent up to now is     1370.1 secs

     total energy              =  -13813.30011182 Ry
     estimated scf accuracy    <       0.00195641 Ry

     iteration #  8     ecut=    71.00 Ry     beta= 0.10
     Davidson diagonalization with overlap
     ethr =  3.82E-07,  avg # of iterations =  2.0

     total cpu time spent up to now is     1490.8 secs

     total energy              =  -13813.30017373 Ry
     estimated scf accuracy    <       0.00031762 Ry

     iteration #  9     ecut=    71.00 Ry     beta= 0.10
     Davidson diagonalization with overlap
     ethr =  6.20E-08,  avg # of iterations =  2.4

     total cpu time spent up to now is     1609.3 secs

     total energy              =  -13813.30014580 Ry
     estimated scf accuracy    <       0.00009579 Ry

     iteration # 10     ecut=    71.00 Ry     beta= 0.10
     Davidson diagonalization with overlap
     ethr =  1.87E-08,  avg # of iterations =  3.0

     total cpu time spent up to now is     1758.6 secs

     total energy              =  -13813.30016820 Ry
     estimated scf accuracy    <       0.00000414 Ry

     iteration # 11     ecut=    71.00 Ry     beta= 0.10
     Davidson diagonalization with overlap
     ethr =  8.09E-10,  avg # of iterations =  3.6

     total cpu time spent up to now is     1890.0 secs

     total energy              =  -13813.30016948 Ry
     estimated scf accuracy    <       0.00000183 Ry

     iteration # 12     ecut=    71.00 Ry     beta= 0.10
     Davidson diagonalization with overlap
     ethr =  3.57E-10,  avg # of iterations =  2.0

     total cpu time spent up to now is     1997.1 secs

     End of self-consistent calculation

     Number of k-points >= 100: set verbosity='high' to print the bands.

     the Fermi energy is    23.1147 ev

!    total energy              =  -13813.30017096 Ry

     total all-electron energy =   -289989.690510 Ry
     estimated scf accuracy    <       0.00000087 Ry
     smearing contrib. (-TS)   =       0.02054917 Ry
     internal energy E=F+TS    =  -13813.32072013 Ry

     The total energy is F=E-TS. E is the sum of the following terms:
     one-electron contribution =    -995.54003080 Ry
     hartree contribution      =     916.00630368 Ry
     xc contribution           =    -928.06342460 Ry
     ewald contribution        =   -5216.28215697 Ry
     one-center paw contrib.   =   -7589.44141145 Ry

     convergence has been achieved in  12 iterations

     Forces acting on atoms (cartesian axes, Ry/au):

     atom    1 type  1   force =     0.00000000    0.00000000    0.00000000
     atom    2 type  1   force =    -0.00023887    0.00005775    0.00000000
     atom    3 type  1   force =    -0.00043165    0.00000000   -0.00022004
     atom    4 type  1   force =     0.00000000    0.00002280   -0.00005499
     atom    5 type  1   force =     0.00000000    0.00000000    0.00000000
     atom    6 type  1   force =    -0.00021726    0.00041768   -0.00000000
     atom    7 type  1   force =    -0.00043165    0.00000000    0.00022004
     atom    8 type  1   force =     0.00000000    0.00002280    0.00005499
     atom    9 type  1   force =     0.00000000    0.00000000    0.00000000
     atom   10 type  1   force =    -0.00023887   -0.00005775   -0.00000000
     atom   11 type  1   force =    -0.00000793    0.00000000    0.00012992
     atom   12 type  1   force =     0.00000000   -0.00002280   -0.00005499
     atom   13 type  1   force =     0.00000000    0.00000000    0.00000000
     atom   14 type  1   force =    -0.00021726   -0.00041768    0.00000000
     atom   15 type  1   force =    -0.00000793    0.00000000   -0.00012992
     atom   16 type  1   force =     0.00000000   -0.00002280    0.00005499
     atom   17 type  1   force =     0.00000000    0.00000000    0.00000000
     atom   18 type  1   force =     0.00023887    0.00005775   -0.00000000
     atom   19 type  1   force =     0.00043165    0.00000000   -0.00022004
     atom   20 type  1   force =     0.00000000    0.00046441   -0.00004172
     atom   21 type  1   force =     0.00000000    0.00000000    0.00000000
     atom   22 type  1   force =     0.00021726    0.00041768    0.00000000
     atom   23 type  1   force =     0.00043165    0.00000000    0.00022004
     atom   24 type  1   force =     0.00000000    0.00046441    0.00004172
     atom   25 type  1   force =     0.00000000    0.00000000    0.00000000
     atom   26 type  1   force =     0.00023887   -0.00005775    0.00000000
     atom   27 type  1   force =     0.00000793    0.00000000    0.00012992
     atom   28 type  1   force =     0.00000000   -0.00046441   -0.00004172
     atom   29 type  1   force =     0.00000000    0.00000000    0.00000000
     atom   30 type  1   force =     0.00021726   -0.00041768   -0.00000000
     atom   31 type  1   force =     0.00000793    0.00000000   -0.00012992
     atom   32 type  1   force =     0.00000000   -0.00046441    0.00004172

     Total force =     0.001737     Total SCF correction =     0.006850
     SCF correction compared to forces is large: reduce conv_thr to get better values


     Computing stress (Cartesian axis) and pressure

          total   stress  (Ry/bohr**3)                   (kbar)     P=       -5.02
  -0.00003423   0.00000000   0.00000000           -5.04        0.00        0.00
   0.00000000  -0.00009872   0.00000000            0.00      -14.52        0.00
   0.00000000   0.00000000   0.00003061            0.00        0.00        4.50


     Writing output data file /scratch/hmjvtFoGQwWptspT.save/
 
     init_run     :     40.79s CPU     41.56s WALL (       1 calls)
     electrons    :   1645.10s CPU   1952.65s WALL (       1 calls)
     forces       :     18.27s CPU     18.58s WALL (       1 calls)
     stress       :    111.78s CPU    112.58s WALL (       1 calls)

     Called by init_run:
     wfcinit      :     40.04s CPU     40.73s WALL (       1 calls)
     potinit      :      0.19s CPU      0.21s WALL (       1 calls)
     hinit0       :      0.24s CPU      0.25s WALL (       1 calls)

     Called by electrons:
     c_bands      :   1462.00s CPU   1762.34s WALL (      13 calls)
     sum_band     :    181.40s CPU    184.79s WALL (      13 calls)
     v_of_rho     :      0.20s CPU      0.21s WALL (      13 calls)
     newd         :      0.28s CPU      0.42s WALL (      13 calls)
     PAW_pot      :      1.07s CPU      1.15s WALL (      13 calls)
     mix_rho      :      0.19s CPU      0.21s WALL (      13 calls)

     Called by c_bands:
     init_us_2    :      6.90s CPU      7.13s WALL (    3625 calls)
     cegterg      :   1436.07s CPU   1458.92s WALL (    1625 calls)

     Called by *egterg:
     cdiaghg      :    185.61s CPU    188.21s WALL (    5914 calls)
     h_psi        :    776.65s CPU    790.24s WALL (    6164 calls)
     s_psi        :     55.16s CPU     55.63s WALL (    6164 calls)
     g_psi        :      1.37s CPU      1.39s WALL (    4414 calls)

     Called by h_psi:
     h_psi:calbec :    104.12s CPU    105.06s WALL (    6164 calls)
     vloc_psi     :    615.47s CPU    627.03s WALL (    6164 calls)
     add_vuspsi   :     53.65s CPU     54.68s WALL (    6164 calls)

     General routines
     calbec       :    173.53s CPU    175.03s WALL (    8414 calls)
     fft          :      0.37s CPU      0.39s WALL (     193 calls)
     ffts         :      0.02s CPU      0.02s WALL (      26 calls)
     fftw         :    719.42s CPU    732.60s WALL ( 2892689 calls)
     interpolate  :      0.02s CPU      0.04s WALL (      13 calls)
 
     Parallel routines
     fft_scatt_xy :     50.66s CPU     51.56s WALL ( 2892908 calls)
     fft_scatt_yz :    582.55s CPU    593.44s WALL ( 2892908 calls)
 
     PWSCF        :  30m44.80s CPU  35m59.80s WALL

 
   This run was terminated on:   3:40:13  26Nov2021            

=------------------------------------------------------------------------------=
   JOB DONE.
=------------------------------------------------------------------------------=
