
     Program PWSCF v.6.7MaX starts on 26Nov2021 at  0:59: 1 

     This program is part of the open-source Quantum ESPRESSO suite
     for quantum simulation of materials; please cite
         "P. Giannozzi et al., J. Phys.:Condens. Matter 21 395502 (2009);
         "P. Giannozzi et al., J. Phys.:Condens. Matter 29 465901 (2017);
          URL http://www.quantum-espresso.org", 
     in publications or presentations arising from this work. More details at
     http://www.quantum-espresso.org/quote

     Parallel version (MPI & OpenMP), running on      72 processor cores
     Number of MPI processes:                72
     Threads/MPI process:                     1

     MPI processes distributed on     1 nodes
     R & G space division:  proc/nbgrp/npool/nimage =      72
     Reading input from /rds/homes/b/bxp912/jobs/20211014_ru_eos/wd/ec/ec_9_003.in
Warning: card &CELL ignored
Warning: card CELL_DYNAMICS = 'BFGS', ignored
Warning: card CELL_FACTOR = 2.0, ignored
Warning: card PRESS = 0.0, ignored
Warning: card / ignored

     Current dimensions of program PWSCF are:
     Max number of different atomic species (ntypx) = 10
     Max number of k-points (npk) =  40000
     Max angular momentum in pseudopotentials (lmaxx) =  3
     file Ru.pbe-spn-kjpaw_psl.1.0.0.UPF: wavefunction(s)  4D renormalized

     Subspace diagonalization in iterative solution of the eigenvalue problem:
     one sub-group per band group will be used
     ELPA distributed-memory algorithm (size of sub-group:  8*  8 procs)

     Found symmetry operation: I + (  0.2500  0.2500  0.0000)
     This is a supercell, fractional translations are disabled
     Message from routine setup:
     using ibrav=0 with symmetry is DISCOURAGED, use correct ibrav instead
 
     Parallelization info
     --------------------
     sticks:   dense  smooth     PW     G-vecs:    dense   smooth      PW
     Min          98      65     17                 6244     3351     475
     Max          99      66     18                 6249     3355     482
     Sum        7121    4705   1281               449727   241417   34465
 


     bravais-lattice index     =            0
     lattice parameter (alat)  =      14.4007  a.u.
     unit-cell volume          =    2986.4454 (a.u.)^3
     number of atoms/cell      =           32
     number of atomic types    =            1
     number of electrons       =       512.00
     number of Kohn-Sham states=          307
     kinetic-energy cutoff     =      71.0000  Ry
     charge density cutoff     =     430.0000  Ry
     scf convergence threshold =      1.0E-06
     mixing beta               =       0.1000
     number of iterations used =           10  plain     mixing
     Exchange-correlation= SLA  PW   PBX  PBC
                           (   1   4   3   4   0   0   0)

     celldm(1)=  14.400742  celldm(2)=   0.000000  celldm(3)=   0.000000
     celldm(4)=   0.000000  celldm(5)=   0.000000  celldm(6)=   0.000000

     crystal axes: (cart. coord. in units of alat)
               a(1) = (   1.000001   0.000000   0.000000 )  
               a(2) = (   0.000000   1.001251   0.000000 )  
               a(3) = (   0.000000   0.000000   0.998751 )  

     reciprocal axes: (cart. coord. in units 2 pi/alat)
               b(1) = (  0.999999  0.000000  0.000000 )  
               b(2) = (  0.000000  0.998751  0.000000 )  
               b(3) = (  0.000000  0.000000  1.001251 )  


     PseudoPot. # 1 for Ru read from file:
     /rds/homes/b/bxp912/pp/Ru.pbe-spn-kjpaw_psl.1.0.0.UPF
     MD5 check sum: 0ae1f594dea09af7be8575c3a481d1ae
     Pseudo is Projector augmented-wave + core cor, Zval = 16.0
     Generated using "atomic" code by A. Dal Corso  v.5.1
     Shape of augmentation charge: PSQ
     Using radial grid of 1233 points,  6 beta functions with: 
                l(1) =   0
                l(2) =   0
                l(3) =   1
                l(4) =   1
                l(5) =   2
                l(6) =   2
     Q(r) pseudized with 0 coefficients 


     atomic species   valence    mass     pseudopotential
        Ru            16.00   101.07000     Ru( 1.00)

      8 Sym. Ops., with inversion, found



   Cartesian axes

     site n.     atom                  positions (alat units)
         1           Ru  tau(   1) = (   0.0000000   0.0000000   0.0000000  )
         2           Ru  tau(   2) = (   0.2500001   0.2503126   0.0000000  )
         3           Ru  tau(   3) = (   0.2500001   0.0000000   0.2496871  )
         4           Ru  tau(   4) = (   0.0000000   0.2503126   0.2496871  )
         5           Ru  tau(   5) = (   0.0000000   0.0000000   0.4993753  )
         6           Ru  tau(   6) = (   0.2499991   0.2503116   0.4993753  )
         7           Ru  tau(   7) = (   0.2500001   0.0000000   0.7490624  )
         8           Ru  tau(   8) = (   0.0000000   0.2503126   0.7490624  )
         9           Ru  tau(   9) = (   0.0000000   0.5006255   0.0000000  )
        10           Ru  tau(  10) = (   0.2500001   0.7509383   0.0000000  )
        11           Ru  tau(  11) = (   0.2499991   0.5006255   0.2496861  )
        12           Ru  tau(  12) = (   0.0000000   0.7509383   0.2496871  )
        13           Ru  tau(  13) = (   0.0000000   0.5006255   0.4993753  )
        14           Ru  tau(  14) = (   0.2499991   0.7509394   0.4993753  )
        15           Ru  tau(  15) = (   0.2499991   0.5006255   0.7490634  )
        16           Ru  tau(  16) = (   0.0000000   0.7509383   0.7490624  )
        17           Ru  tau(  17) = (   0.5000005   0.0000000   0.0000000  )
        18           Ru  tau(  18) = (   0.7500008   0.2503126   0.0000000  )
        19           Ru  tau(  19) = (   0.7500008   0.0000000   0.2496871  )
        20           Ru  tau(  20) = (   0.5000005   0.2503116   0.2496861  )
        21           Ru  tau(  21) = (   0.5000005   0.0000000   0.4993753  )
        22           Ru  tau(  22) = (   0.7500019   0.2503116   0.4993753  )
        23           Ru  tau(  23) = (   0.7500008   0.0000000   0.7490624  )
        24           Ru  tau(  24) = (   0.5000005   0.2503116   0.7490634  )
        25           Ru  tau(  25) = (   0.5000005   0.5006255   0.0000000  )
        26           Ru  tau(  26) = (   0.7500008   0.7509383   0.0000000  )
        27           Ru  tau(  27) = (   0.7500019   0.5006255   0.2496861  )
        28           Ru  tau(  28) = (   0.5000005   0.7509394   0.2496861  )
        29           Ru  tau(  29) = (   0.5000005   0.5006255   0.4993753  )
        30           Ru  tau(  30) = (   0.7500019   0.7509394   0.4993753  )
        31           Ru  tau(  31) = (   0.7500019   0.5006255   0.7490634  )
        32           Ru  tau(  32) = (   0.5000005   0.7509394   0.7490634  )

     number of k points=   125  Marzari-Vanderbilt smearing, width (Ry)=  0.0400

     Number of k-points >= 100: set verbosity='high' to print them.

     Dense  grid:   449727 G-vectors     FFT dimensions: (  96,  96,  96)

     Smooth grid:   241417 G-vectors     FFT dimensions: (  80,  80,  80)

     Estimated max dynamical RAM per process >     283.74 MB

     Estimated total dynamical RAM >      19.95 GB

     Check: negative core charge=   -0.000002

     Initial potential from superposition of free atoms

     starting charge  511.97959, renormalised to  512.00000
     Starting wfcs are  320 randomized atomic wfcs
     Checking if some PAW data can be deallocated... 

     total cpu time spent up to now is       46.8 secs

     Self-consistent Calculation

     iteration #  1     ecut=    71.00 Ry     beta= 0.10
     Davidson diagonalization with overlap
     ethr =  1.00E-02,  avg # of iterations =  3.3

     Threshold (ethr) on eigenvalues was too large:
     Diagonalizing with lowered threshold

     Davidson diagonalization with overlap
     ethr =  8.35E-05,  avg # of iterations =  5.3

     total cpu time spent up to now is      328.7 secs

     total energy              =  -13813.41293942 Ry
     estimated scf accuracy    <       0.63856252 Ry

     iteration #  2     ecut=    71.00 Ry     beta= 0.10
     Davidson diagonalization with overlap
     ethr =  1.25E-04,  avg # of iterations =  1.0

     total cpu time spent up to now is      431.1 secs

     total energy              =  -13813.20895909 Ry
     estimated scf accuracy    <       0.39925520 Ry

     iteration #  3     ecut=    71.00 Ry     beta= 0.10
     Davidson diagonalization with overlap
     ethr =  7.80E-05,  avg # of iterations =  2.2

     total cpu time spent up to now is      561.9 secs

     total energy              =  -13813.29847891 Ry
     estimated scf accuracy    <       0.05303259 Ry

     iteration #  4     ecut=    71.00 Ry     beta= 0.10
     Davidson diagonalization with overlap
     c_bands:  1 eigenvalues not converged
     ethr =  1.04E-05,  avg # of iterations =  2.6

     total cpu time spent up to now is      674.6 secs

     total energy              =  -13813.29999768 Ry
     estimated scf accuracy    <       0.00885073 Ry

     iteration #  5     ecut=    71.00 Ry     beta= 0.10
     Davidson diagonalization with overlap
     c_bands:  1 eigenvalues not converged
     ethr =  1.73E-06,  avg # of iterations =  2.3

     total cpu time spent up to now is      781.6 secs

     total energy              =  -13813.30090912 Ry
     estimated scf accuracy    <       0.00561566 Ry

     iteration #  6     ecut=    71.00 Ry     beta= 0.10
     Davidson diagonalization with overlap
     ethr =  1.10E-06,  avg # of iterations =  3.5

     total cpu time spent up to now is      943.5 secs

     total energy              =  -13813.29991500 Ry
     estimated scf accuracy    <       0.01345864 Ry

     iteration #  7     ecut=    71.00 Ry     beta= 0.10
     Davidson diagonalization with overlap
     ethr =  1.10E-06,  avg # of iterations =  2.1

     total cpu time spent up to now is     1070.7 secs

     total energy              =  -13813.30079427 Ry
     estimated scf accuracy    <       0.00116081 Ry

     iteration #  8     ecut=    71.00 Ry     beta= 0.10
     Davidson diagonalization with overlap
     ethr =  2.27E-07,  avg # of iterations =  2.2

     total cpu time spent up to now is     1190.9 secs

     total energy              =  -13813.30081631 Ry
     estimated scf accuracy    <       0.00026403 Ry

     iteration #  9     ecut=    71.00 Ry     beta= 0.10
     Davidson diagonalization with overlap
     ethr =  5.16E-08,  avg # of iterations =  2.3

     total cpu time spent up to now is     1302.6 secs

     total energy              =  -13813.30078695 Ry
     estimated scf accuracy    <       0.00009530 Ry

     iteration # 10     ecut=    71.00 Ry     beta= 0.10
     Davidson diagonalization with overlap
     ethr =  1.86E-08,  avg # of iterations =  3.1

     total cpu time spent up to now is     1438.1 secs

     total energy              =  -13813.30080515 Ry
     estimated scf accuracy    <       0.00000409 Ry

     iteration # 11     ecut=    71.00 Ry     beta= 0.10
     Davidson diagonalization with overlap
     ethr =  7.99E-10,  avg # of iterations =  3.8

     total cpu time spent up to now is     1577.7 secs

     total energy              =  -13813.30080595 Ry
     estimated scf accuracy    <       0.00000157 Ry

     iteration # 12     ecut=    71.00 Ry     beta= 0.10
     Davidson diagonalization with overlap
     ethr =  3.06E-10,  avg # of iterations =  2.1

     total cpu time spent up to now is     1698.4 secs

     End of self-consistent calculation

     Number of k-points >= 100: set verbosity='high' to print the bands.

     the Fermi energy is    23.1144 ev

!    total energy              =  -13813.30080739 Ry

     total all-electron energy =   -289989.691147 Ry
     estimated scf accuracy    <       0.00000074 Ry
     smearing contrib. (-TS)   =       0.02044771 Ry
     internal energy E=F+TS    =  -13813.32125510 Ry

     The total energy is F=E-TS. E is the sum of the following terms:
     one-electron contribution =    -995.53985434 Ry
     hartree contribution      =     916.00984886 Ry
     xc contribution           =    -928.06441355 Ry
     ewald contribution        =   -5216.28516702 Ry
     one-center paw contrib.   =   -7589.44166905 Ry

     convergence has been achieved in  12 iterations

     Forces acting on atoms (cartesian axes, Ry/au):

     atom    1 type  1   force =     0.00000000    0.00000000    0.00000000
     atom    2 type  1   force =    -0.00024428    0.00003945    0.00000000
     atom    3 type  1   force =    -0.00035696    0.00000000    0.00000575
     atom    4 type  1   force =     0.00000000    0.00002152    0.00010584
     atom    5 type  1   force =     0.00000000    0.00000000    0.00000000
     atom    6 type  1   force =    -0.00022741    0.00026399    0.00000000
     atom    7 type  1   force =    -0.00035696    0.00000000   -0.00000575
     atom    8 type  1   force =     0.00000000    0.00002152   -0.00010584
     atom    9 type  1   force =     0.00000000    0.00000000    0.00000000
     atom   10 type  1   force =    -0.00024428   -0.00003945    0.00000000
     atom   11 type  1   force =    -0.00010094    0.00000000    0.00022173
     atom   12 type  1   force =     0.00000000   -0.00002152    0.00010584
     atom   13 type  1   force =     0.00000000    0.00000000    0.00000000
     atom   14 type  1   force =    -0.00022741   -0.00026399    0.00000000
     atom   15 type  1   force =    -0.00010094    0.00000000   -0.00022173
     atom   16 type  1   force =     0.00000000   -0.00002152   -0.00010584
     atom   17 type  1   force =     0.00000000    0.00000000    0.00000000
     atom   18 type  1   force =     0.00024428    0.00003945    0.00000000
     atom   19 type  1   force =     0.00035696    0.00000000    0.00000575
     atom   20 type  1   force =     0.00000000    0.00028967    0.00011841
     atom   21 type  1   force =     0.00000000    0.00000000    0.00000000
     atom   22 type  1   force =     0.00022741    0.00026399    0.00000000
     atom   23 type  1   force =     0.00035696    0.00000000   -0.00000575
     atom   24 type  1   force =     0.00000000    0.00028967   -0.00011841
     atom   25 type  1   force =     0.00000000    0.00000000    0.00000000
     atom   26 type  1   force =     0.00024428   -0.00003945    0.00000000
     atom   27 type  1   force =     0.00010094    0.00000000    0.00022173
     atom   28 type  1   force =     0.00000000   -0.00028967    0.00011841
     atom   29 type  1   force =     0.00000000    0.00000000    0.00000000
     atom   30 type  1   force =     0.00022741   -0.00026399    0.00000000
     atom   31 type  1   force =     0.00010094    0.00000000   -0.00022173
     atom   32 type  1   force =     0.00000000   -0.00028967   -0.00011841

     Total force =     0.001384     Total SCF correction =     0.006159
     SCF correction compared to forces is large: reduce conv_thr to get better values


     Computing stress (Cartesian axis) and pressure

          total   stress  (Ry/bohr**3)                   (kbar)     P=       -4.78
  -0.00003257   0.00000000   0.00000000           -4.79        0.00        0.00
   0.00000000  -0.00005405   0.00000000            0.00       -7.95        0.00
   0.00000000   0.00000000  -0.00001093            0.00        0.00       -1.61


     Writing output data file /scratch/OthsXpguxbxbqFRb.save/
 
     init_run     :     43.22s CPU     43.99s WALL (       1 calls)
     electrons    :   1627.44s CPU   1651.58s WALL (       1 calls)
     forces       :     18.73s CPU     18.87s WALL (       1 calls)
     stress       :    112.66s CPU    113.55s WALL (       1 calls)

     Called by init_run:
     wfcinit      :     42.40s CPU     43.11s WALL (       1 calls)
     potinit      :      0.19s CPU      0.21s WALL (       1 calls)
     hinit0       :      0.15s CPU      0.16s WALL (       1 calls)

     Called by electrons:
     c_bands      :   1444.96s CPU   1464.95s WALL (      13 calls)
     sum_band     :    180.98s CPU    184.87s WALL (      13 calls)
     v_of_rho     :      0.18s CPU      0.21s WALL (      13 calls)
     newd         :      0.29s CPU      0.42s WALL (      13 calls)
     PAW_pot      :      1.07s CPU      1.14s WALL (      13 calls)
     mix_rho      :      0.05s CPU      0.07s WALL (      13 calls)

     Called by c_bands:
     init_us_2    :      6.79s CPU      6.93s WALL (    3625 calls)
     cegterg      :   1420.53s CPU   1439.37s WALL (    1625 calls)

     Called by *egterg:
     cdiaghg      :    182.56s CPU    184.09s WALL (    5994 calls)
     h_psi        :    756.20s CPU    768.47s WALL (    6244 calls)
     s_psi        :     55.38s CPU     55.77s WALL (    6244 calls)
     g_psi        :      1.56s CPU      1.58s WALL (    4494 calls)

     Called by h_psi:
     h_psi:calbec :    103.66s CPU    104.48s WALL (    6244 calls)
     vloc_psi     :    595.03s CPU    605.54s WALL (    6244 calls)
     add_vuspsi   :     53.81s CPU     54.72s WALL (    6244 calls)

     General routines
     calbec       :    167.42s CPU    168.86s WALL (    8494 calls)
     fft          :      0.27s CPU      0.30s WALL (     193 calls)
     ffts         :      0.02s CPU      0.02s WALL (      26 calls)
     fftw         :    699.14s CPU    711.67s WALL ( 2903933 calls)
     interpolate  :      0.02s CPU      0.03s WALL (      13 calls)
 
     Parallel routines
     fft_scatt_xy :     50.65s CPU     51.47s WALL ( 2904152 calls)
     fft_scatt_yz :    561.98s CPU    572.45s WALL ( 2904152 calls)
 
     PWSCF        :  30m31.34s CPU  31m 2.78s WALL

 
   This run was terminated on:   1:30: 4  26Nov2021            

=------------------------------------------------------------------------------=
   JOB DONE.
=------------------------------------------------------------------------------=
