
     Program PWSCF v.6.7MaX starts on 26Nov2021 at  1:30:38 

     This program is part of the open-source Quantum ESPRESSO suite
     for quantum simulation of materials; please cite
         "P. Giannozzi et al., J. Phys.:Condens. Matter 21 395502 (2009);
         "P. Giannozzi et al., J. Phys.:Condens. Matter 29 465901 (2017);
          URL http://www.quantum-espresso.org", 
     in publications or presentations arising from this work. More details at
     http://www.quantum-espresso.org/quote

     Parallel version (MPI & OpenMP), running on      72 processor cores
     Number of MPI processes:                72
     Threads/MPI process:                     1

     MPI processes distributed on     1 nodes
     R & G space division:  proc/nbgrp/npool/nimage =      72
     Reading input from /rds/homes/b/bxp912/jobs/20211014_ru_eos/wd/ec/ec_9_004.in
Warning: card &CELL ignored
Warning: card CELL_DYNAMICS = 'BFGS', ignored
Warning: card CELL_FACTOR = 2.0, ignored
Warning: card PRESS = 0.0, ignored
Warning: card / ignored

     Current dimensions of program PWSCF are:
     Max number of different atomic species (ntypx) = 10
     Max number of k-points (npk) =  40000
     Max angular momentum in pseudopotentials (lmaxx) =  3
     file Ru.pbe-spn-kjpaw_psl.1.0.0.UPF: wavefunction(s)  4D renormalized

     Subspace diagonalization in iterative solution of the eigenvalue problem:
     one sub-group per band group will be used
     ELPA distributed-memory algorithm (size of sub-group:  8*  8 procs)

     Found symmetry operation: I + (  0.2500  0.2500  0.0000)
     This is a supercell, fractional translations are disabled
     Message from routine setup:
     using ibrav=0 with symmetry is DISCOURAGED, use correct ibrav instead
 
     Parallelization info
     --------------------
     sticks:   dense  smooth     PW     G-vecs:    dense   smooth      PW
     Min          98      65     17                 6244     3351     475
     Max          99      66     18                 6249     3356     482
     Sum        7125    4705   1281               449783   241441   34441
 


     bravais-lattice index     =            0
     lattice parameter (alat)  =      14.4007  a.u.
     unit-cell volume          =    2986.4454 (a.u.)^3
     number of atoms/cell      =           32
     number of atomic types    =            1
     number of electrons       =       512.00
     number of Kohn-Sham states=          307
     kinetic-energy cutoff     =      71.0000  Ry
     charge density cutoff     =     430.0000  Ry
     scf convergence threshold =      1.0E-06
     mixing beta               =       0.1000
     number of iterations used =           10  plain     mixing
     Exchange-correlation= SLA  PW   PBX  PBC
                           (   1   4   3   4   0   0   0)

     celldm(1)=  14.400742  celldm(2)=   0.000000  celldm(3)=   0.000000
     celldm(4)=   0.000000  celldm(5)=   0.000000  celldm(6)=   0.000000

     crystal axes: (cart. coord. in units of alat)
               a(1) = (   1.000001   0.000000   0.000000 )  
               a(2) = (   0.000000   1.001876   0.000000 )  
               a(3) = (   0.000000   0.000000   0.998126 )  

     reciprocal axes: (cart. coord. in units 2 pi/alat)
               b(1) = (  0.999999  0.000000  0.000000 )  
               b(2) = (  0.000000  0.998127  0.000000 )  
               b(3) = (  0.000000  0.000000  1.001877 )  


     PseudoPot. # 1 for Ru read from file:
     /rds/homes/b/bxp912/pp/Ru.pbe-spn-kjpaw_psl.1.0.0.UPF
     MD5 check sum: 0ae1f594dea09af7be8575c3a481d1ae
     Pseudo is Projector augmented-wave + core cor, Zval = 16.0
     Generated using "atomic" code by A. Dal Corso  v.5.1
     Shape of augmentation charge: PSQ
     Using radial grid of 1233 points,  6 beta functions with: 
                l(1) =   0
                l(2) =   0
                l(3) =   1
                l(4) =   1
                l(5) =   2
                l(6) =   2
     Q(r) pseudized with 0 coefficients 


     atomic species   valence    mass     pseudopotential
        Ru            16.00   101.07000     Ru( 1.00)

      8 Sym. Ops., with inversion, found



   Cartesian axes

     site n.     atom                  positions (alat units)
         1           Ru  tau(   1) = (   0.0000000   0.0000000   0.0000000  )
         2           Ru  tau(   2) = (   0.2500003   0.2504690   0.0000000  )
         3           Ru  tau(   3) = (   0.2500003   0.0000000   0.2495310  )
         4           Ru  tau(   4) = (   0.0000000   0.2504690   0.2495310  )
         5           Ru  tau(   5) = (   0.0000000   0.0000000   0.4990631  )
         6           Ru  tau(   6) = (   0.2499992   0.2504680   0.4990631  )
         7           Ru  tau(   7) = (   0.2500003   0.0000000   0.7485941  )
         8           Ru  tau(   8) = (   0.0000000   0.2504690   0.7485941  )
         9           Ru  tau(   9) = (   0.0000000   0.5009383   0.0000000  )
        10           Ru  tau(  10) = (   0.2500003   0.7514076   0.0000000  )
        11           Ru  tau(  11) = (   0.2499992   0.5009383   0.2495300  )
        12           Ru  tau(  12) = (   0.0000000   0.7514076   0.2495310  )
        13           Ru  tau(  13) = (   0.0000000   0.5009383   0.4990631  )
        14           Ru  tau(  14) = (   0.2499992   0.7514086   0.4990631  )
        15           Ru  tau(  15) = (   0.2499992   0.5009383   0.7485952  )
        16           Ru  tau(  16) = (   0.0000000   0.7514076   0.7485941  )
        17           Ru  tau(  17) = (   0.5000008   0.0000000   0.0000000  )
        18           Ru  tau(  18) = (   0.7500013   0.2504690   0.0000000  )
        19           Ru  tau(  19) = (   0.7500013   0.0000000   0.2495310  )
        20           Ru  tau(  20) = (   0.5000008   0.2504680   0.2495300  )
        21           Ru  tau(  21) = (   0.5000008   0.0000000   0.4990631  )
        22           Ru  tau(  22) = (   0.7500023   0.2504680   0.4990631  )
        23           Ru  tau(  23) = (   0.7500013   0.0000000   0.7485941  )
        24           Ru  tau(  24) = (   0.5000008   0.2504680   0.7485952  )
        25           Ru  tau(  25) = (   0.5000008   0.5009383   0.0000000  )
        26           Ru  tau(  26) = (   0.7500013   0.7514076   0.0000000  )
        27           Ru  tau(  27) = (   0.7500023   0.5009383   0.2495300  )
        28           Ru  tau(  28) = (   0.5000008   0.7514086   0.2495300  )
        29           Ru  tau(  29) = (   0.5000008   0.5009383   0.4990631  )
        30           Ru  tau(  30) = (   0.7500023   0.7514086   0.4990631  )
        31           Ru  tau(  31) = (   0.7500023   0.5009383   0.7485952  )
        32           Ru  tau(  32) = (   0.5000008   0.7514086   0.7485952  )

     number of k points=   125  Marzari-Vanderbilt smearing, width (Ry)=  0.0400

     Number of k-points >= 100: set verbosity='high' to print them.

     Dense  grid:   449783 G-vectors     FFT dimensions: (  96,  96,  96)

     Smooth grid:   241441 G-vectors     FFT dimensions: (  80,  80,  80)

     Estimated max dynamical RAM per process >     283.75 MB

     Estimated total dynamical RAM >      19.95 GB

     Check: negative core charge=   -0.000002

     Initial potential from superposition of free atoms

     starting charge  511.97959, renormalised to  512.00000
     Starting wfcs are  320 randomized atomic wfcs
     Checking if some PAW data can be deallocated... 

     total cpu time spent up to now is       46.3 secs

     Self-consistent Calculation

     iteration #  1     ecut=    71.00 Ry     beta= 0.10
     Davidson diagonalization with overlap
     ethr =  1.00E-02,  avg # of iterations =  3.3

     Threshold (ethr) on eigenvalues was too large:
     Diagonalizing with lowered threshold

     Davidson diagonalization with overlap
     ethr =  8.32E-05,  avg # of iterations =  5.4

     total cpu time spent up to now is      333.8 secs

     total energy              =  -13813.41283076 Ry
     estimated scf accuracy    <       0.63871230 Ry

     iteration #  2     ecut=    71.00 Ry     beta= 0.10
     Davidson diagonalization with overlap
     ethr =  1.25E-04,  avg # of iterations =  1.1

     total cpu time spent up to now is      438.0 secs

     total energy              =  -13813.20893867 Ry
     estimated scf accuracy    <       0.39924166 Ry

     iteration #  3     ecut=    71.00 Ry     beta= 0.10
     Davidson diagonalization with overlap
     ethr =  7.80E-05,  avg # of iterations =  2.3

     total cpu time spent up to now is      566.8 secs

     total energy              =  -13813.29836748 Ry
     estimated scf accuracy    <       0.05317134 Ry

     iteration #  4     ecut=    71.00 Ry     beta= 0.10
     Davidson diagonalization with overlap
     ethr =  1.04E-05,  avg # of iterations =  2.7

     total cpu time spent up to now is      683.2 secs

     total energy              =  -13813.29990220 Ry
     estimated scf accuracy    <       0.00884124 Ry

     iteration #  5     ecut=    71.00 Ry     beta= 0.10
     Davidson diagonalization with overlap
     ethr =  1.73E-06,  avg # of iterations =  2.2

     total cpu time spent up to now is      794.0 secs

     total energy              =  -13813.30079670 Ry
     estimated scf accuracy    <       0.00561682 Ry

     iteration #  6     ecut=    71.00 Ry     beta= 0.10
     Davidson diagonalization with overlap
     ethr =  1.10E-06,  avg # of iterations =  3.6

     total cpu time spent up to now is      948.5 secs

     total energy              =  -13813.29991313 Ry
     estimated scf accuracy    <       0.01333469 Ry

     iteration #  7     ecut=    71.00 Ry     beta= 0.10
     Davidson diagonalization with overlap
     ethr =  1.10E-06,  avg # of iterations =  2.3

     total cpu time spent up to now is     1075.0 secs

     total energy              =  -13813.30070005 Ry
     estimated scf accuracy    <       0.00129040 Ry

     iteration #  8     ecut=    71.00 Ry     beta= 0.10
     Davidson diagonalization with overlap
     ethr =  2.52E-07,  avg # of iterations =  2.2

     total cpu time spent up to now is     1187.5 secs

     total energy              =  -13813.30071546 Ry
     estimated scf accuracy    <       0.00028812 Ry

     iteration #  9     ecut=    71.00 Ry     beta= 0.10
     Davidson diagonalization with overlap
     ethr =  5.63E-08,  avg # of iterations =  2.4

     total cpu time spent up to now is     1297.3 secs

     total energy              =  -13813.30069003 Ry
     estimated scf accuracy    <       0.00009347 Ry

     iteration # 10     ecut=    71.00 Ry     beta= 0.10
     Davidson diagonalization with overlap
     ethr =  1.83E-08,  avg # of iterations =  3.0

     total cpu time spent up to now is     1428.4 secs

     total energy              =  -13813.30070753 Ry
     estimated scf accuracy    <       0.00000482 Ry

     iteration # 11     ecut=    71.00 Ry     beta= 0.10
     Davidson diagonalization with overlap
     ethr =  9.42E-10,  avg # of iterations =  3.8

     total cpu time spent up to now is     1570.7 secs

     total energy              =  -13813.30070858 Ry
     estimated scf accuracy    <       0.00000172 Ry

     iteration # 12     ecut=    71.00 Ry     beta= 0.10
     Davidson diagonalization with overlap
     ethr =  3.35E-10,  avg # of iterations =  1.9

     total cpu time spent up to now is     1679.7 secs

     End of self-consistent calculation

     Number of k-points >= 100: set verbosity='high' to print the bands.

     the Fermi energy is    23.1146 ev

!    total energy              =  -13813.30070979 Ry

     total all-electron energy =   -289989.691049 Ry
     estimated scf accuracy    <       0.00000098 Ry
     smearing contrib. (-TS)   =       0.02046385 Ry
     internal energy E=F+TS    =  -13813.32117363 Ry

     The total energy is F=E-TS. E is the sum of the following terms:
     one-electron contribution =    -995.53152558 Ry
     hartree contribution      =     915.99849196 Ry
     xc contribution           =    -928.06222150 Ry
     ewald contribution        =   -5216.28469678 Ry
     one-center paw contrib.   =   -7589.44122174 Ry

     convergence has been achieved in  12 iterations

     Forces acting on atoms (cartesian axes, Ry/au):

     atom    1 type  1   force =     0.00000000    0.00000000    0.00000000
     atom    2 type  1   force =    -0.00026563    0.00004239   -0.00000000
     atom    3 type  1   force =    -0.00043210    0.00000000   -0.00009932
     atom    4 type  1   force =     0.00000000    0.00001503    0.00004828
     atom    5 type  1   force =     0.00000000    0.00000000    0.00000000
     atom    6 type  1   force =    -0.00024592    0.00035506    0.00000000
     atom    7 type  1   force =    -0.00043210    0.00000000    0.00009932
     atom    8 type  1   force =     0.00000000    0.00001503   -0.00004828
     atom    9 type  1   force =     0.00000000    0.00000000    0.00000000
     atom   10 type  1   force =    -0.00026563   -0.00004239    0.00000000
     atom   11 type  1   force =    -0.00006905    0.00000000    0.00020649
     atom   12 type  1   force =     0.00000000   -0.00001503    0.00004828
     atom   13 type  1   force =     0.00000000    0.00000000    0.00000000
     atom   14 type  1   force =    -0.00024592   -0.00035506    0.00000000
     atom   15 type  1   force =    -0.00006905    0.00000000   -0.00020649
     atom   16 type  1   force =     0.00000000   -0.00001503   -0.00004828
     atom   17 type  1   force =     0.00000000    0.00000000    0.00000000
     atom   18 type  1   force =     0.00026563    0.00004239    0.00000000
     atom   19 type  1   force =     0.00043210    0.00000000   -0.00009932
     atom   20 type  1   force =     0.00000000    0.00039635    0.00005993
     atom   21 type  1   force =     0.00000000    0.00000000    0.00000000
     atom   22 type  1   force =     0.00024592    0.00035506    0.00000000
     atom   23 type  1   force =     0.00043210    0.00000000    0.00009932
     atom   24 type  1   force =     0.00000000    0.00039635   -0.00005993
     atom   25 type  1   force =     0.00000000    0.00000000    0.00000000
     atom   26 type  1   force =     0.00026563   -0.00004239   -0.00000000
     atom   27 type  1   force =     0.00006905    0.00000000    0.00020649
     atom   28 type  1   force =     0.00000000   -0.00039635    0.00005993
     atom   29 type  1   force =     0.00000000    0.00000000    0.00000000
     atom   30 type  1   force =     0.00024592   -0.00035506    0.00000000
     atom   31 type  1   force =     0.00006905    0.00000000   -0.00020649
     atom   32 type  1   force =     0.00000000   -0.00039635   -0.00005993

     Total force =     0.001632     Total SCF correction =     0.006829
     SCF correction compared to forces is large: reduce conv_thr to get better values


     Computing stress (Cartesian axis) and pressure

          total   stress  (Ry/bohr**3)                   (kbar)     P=       -5.24
  -0.00003571   0.00000000   0.00000000           -5.25        0.00        0.00
   0.00000000  -0.00006795   0.00000000            0.00      -10.00        0.00
   0.00000000   0.00000000  -0.00000329            0.00        0.00       -0.48


     Writing output data file /scratch/yFwyYrpNWMFCVfhv.save/
 
     init_run     :     42.66s CPU     43.40s WALL (       1 calls)
     electrons    :   1608.74s CPU   1633.47s WALL (       1 calls)
     forces       :     18.13s CPU     18.30s WALL (       1 calls)
     stress       :    112.01s CPU    112.89s WALL (       1 calls)

     Called by init_run:
     wfcinit      :     41.75s CPU     42.43s WALL (       1 calls)
     potinit      :      0.38s CPU      0.39s WALL (       1 calls)
     hinit0       :      0.13s CPU      0.13s WALL (       1 calls)

     Called by electrons:
     c_bands      :   1431.46s CPU   1452.42s WALL (      13 calls)
     sum_band     :    175.46s CPU    178.97s WALL (      13 calls)
     v_of_rho     :      0.41s CPU      0.43s WALL (      13 calls)
     newd         :      0.36s CPU      0.51s WALL (      13 calls)
     PAW_pot      :      1.21s CPU      1.27s WALL (      13 calls)
     mix_rho      :      0.05s CPU      0.07s WALL (      13 calls)

     Called by c_bands:
     init_us_2    :      6.53s CPU      6.70s WALL (    3625 calls)
     cegterg      :   1406.68s CPU   1426.35s WALL (    1625 calls)

     Called by *egterg:
     cdiaghg      :    178.05s CPU    179.55s WALL (    6027 calls)
     h_psi        :    761.35s CPU    773.69s WALL (    6277 calls)
     s_psi        :     55.74s CPU     56.16s WALL (    6277 calls)
     g_psi        :      1.39s CPU      1.44s WALL (    4527 calls)

     Called by h_psi:
     h_psi:calbec :    104.33s CPU    105.27s WALL (    6277 calls)
     vloc_psi     :    598.68s CPU    609.23s WALL (    6277 calls)
     add_vuspsi   :     54.50s CPU     55.31s WALL (    6277 calls)

     General routines
     calbec       :    198.05s CPU    199.67s WALL (    8527 calls)
     fft          :      0.41s CPU      0.43s WALL (     193 calls)
     ffts         :      0.02s CPU      0.02s WALL (      26 calls)
     fftw         :    698.42s CPU    710.61s WALL ( 2883747 calls)
     interpolate  :      0.08s CPU      0.09s WALL (      13 calls)
 
     Parallel routines
     fft_scatt_xy :     50.13s CPU     50.92s WALL ( 2883966 calls)
     fft_scatt_yz :    563.13s CPU    573.21s WALL ( 2883966 calls)
 
     PWSCF        :  30m10.09s CPU  30m42.19s WALL

 
   This run was terminated on:   2: 1:21  26Nov2021            

=------------------------------------------------------------------------------=
   JOB DONE.
=------------------------------------------------------------------------------=
