
     Program PWSCF v.6.7MaX starts on 27Nov2021 at  3:58:19 

     This program is part of the open-source Quantum ESPRESSO suite
     for quantum simulation of materials; please cite
         "P. Giannozzi et al., J. Phys.:Condens. Matter 21 395502 (2009);
         "P. Giannozzi et al., J. Phys.:Condens. Matter 29 465901 (2017);
          URL http://www.quantum-espresso.org", 
     in publications or presentations arising from this work. More details at
     http://www.quantum-espresso.org/quote

     Parallel version (MPI & OpenMP), running on      72 processor cores
     Number of MPI processes:                72
     Threads/MPI process:                     1

     MPI processes distributed on     1 nodes
     R & G space division:  proc/nbgrp/npool/nimage =      72
     Reading input from fcc_18.in
Warning: card &CELL ignored
Warning: card CELL_DYNAMICS = 'BFGS', ignored
Warning: card CELL_FACTOR = 2.0, ignored
Warning: card PRESS = 0.0, ignored
Warning: card / ignored

     Current dimensions of program PWSCF are:
     Max number of different atomic species (ntypx) = 10
     Max number of k-points (npk) =  40000
     Max angular momentum in pseudopotentials (lmaxx) =  3
     file Pd.pbe-spn-kjpaw_psl.1.0.0.UPF: wavefunction(s)  4S 5S 4D renormalized

     Subspace diagonalization in iterative solution of the eigenvalue problem:
     one sub-group per band group will be used
     ELPA distributed-memory algorithm (size of sub-group:  8*  8 procs)

     Found symmetry operation: I + (  0.2500  0.2500  0.0000)
     This is a supercell, fractional translations are disabled
     Message from routine setup:
     using ibrav=0 with symmetry is DISCOURAGED, use correct ibrav instead
 
     Parallelization info
     --------------------
     sticks:   dense  smooth     PW     G-vecs:    dense   smooth      PW
     Min         343     227     59                40727    21857    2933
     Max         344     228     60                40738    21862    2940
     Sum       24761   16365   4281              2932825  1573781  211441
 


     bravais-lattice index     =            0
     lattice parameter (alat)  =      14.4000  a.u.
     unit-cell volume          =   19476.5367 (a.u.)^3
     number of atoms/cell      =           32
     number of atomic types    =            1
     number of electrons       =       576.00
     number of Kohn-Sham states=          346
     kinetic-energy cutoff     =      71.0000  Ry
     charge density cutoff     =     430.0000  Ry
     scf convergence threshold =      1.0E-06
     mixing beta               =       0.1000
     number of iterations used =           10  TF        mixing
     Exchange-correlation= SLA  PW   PBX  PBC
                           (   1   4   3   4   0   0   0)

     celldm(1)=  14.400000  celldm(2)=   0.000000  celldm(3)=   0.000000
     celldm(4)=   0.000000  celldm(5)=   0.000000  celldm(6)=   0.000000

     crystal axes: (cart. coord. in units of alat)
               a(1) = (   1.868421   0.000000   0.000000 )  
               a(2) = (   0.000000   1.868421   0.000000 )  
               a(3) = (   0.000000   0.000000   1.868421 )  

     reciprocal axes: (cart. coord. in units 2 pi/alat)
               b(1) = (  0.535211  0.000000  0.000000 )  
               b(2) = (  0.000000  0.535211  0.000000 )  
               b(3) = (  0.000000  0.000000  0.535211 )  


     PseudoPot. # 1 for Pd read from file:
     /rds/homes/b/bxp912/pp/Pd.pbe-spn-kjpaw_psl.1.0.0.UPF
     MD5 check sum: 790f2ebce206edfd9790dcb9844eca51
     Pseudo is Projector augmented-wave + core cor, Zval = 18.0
     Generated using &quot;atomic&quot; code by A. Dal Corso  v.6.3
     Shape of augmentation charge: PSQ
     Using radial grid of 1235 points,  6 beta functions with: 
                l(1) =   0
                l(2) =   0
                l(3) =   1
                l(4) =   1
                l(5) =   2
                l(6) =   2
     Q(r) pseudized with 0 coefficients 


     atomic species   valence    mass     pseudopotential
        Pd            18.00   106.42000     Pd( 1.00)

     48 Sym. Ops., with inversion, found



   Cartesian axes

     site n.     atom                  positions (alat units)
         1           Pd  tau(   1) = (   0.0000000   0.0000000   0.0000000  )
         2           Pd  tau(   2) = (   0.4671053   0.4671053   0.0000000  )
         3           Pd  tau(   3) = (   0.4671053   0.0000000   0.4671053  )
         4           Pd  tau(   4) = (   0.0000000   0.4671053   0.4671053  )
         5           Pd  tau(   5) = (   0.0000000   0.0000000   0.9342105  )
         6           Pd  tau(   6) = (   0.4671053   0.4671053   0.9342105  )
         7           Pd  tau(   7) = (   0.4671053   0.0000000   1.4013158  )
         8           Pd  tau(   8) = (   0.0000000   0.4671053   1.4013158  )
         9           Pd  tau(   9) = (   0.0000000   0.9342105   0.0000000  )
        10           Pd  tau(  10) = (   0.4671053   1.4013158   0.0000000  )
        11           Pd  tau(  11) = (   0.4671053   0.9342105   0.4671053  )
        12           Pd  tau(  12) = (   0.0000000   1.4013158   0.4671053  )
        13           Pd  tau(  13) = (   0.0000000   0.9342105   0.9342105  )
        14           Pd  tau(  14) = (   0.4671053   1.4013158   0.9342105  )
        15           Pd  tau(  15) = (   0.4671053   0.9342105   1.4013158  )
        16           Pd  tau(  16) = (   0.0000000   1.4013158   1.4013158  )
        17           Pd  tau(  17) = (   0.9342105   0.0000000   0.0000000  )
        18           Pd  tau(  18) = (   1.4013158   0.4671053   0.0000000  )
        19           Pd  tau(  19) = (   1.4013158   0.0000000   0.4671053  )
        20           Pd  tau(  20) = (   0.9342105   0.4671053   0.4671053  )
        21           Pd  tau(  21) = (   0.9342105   0.0000000   0.9342105  )
        22           Pd  tau(  22) = (   1.4013158   0.4671053   0.9342105  )
        23           Pd  tau(  23) = (   1.4013158   0.0000000   1.4013158  )
        24           Pd  tau(  24) = (   0.9342105   0.4671053   1.4013158  )
        25           Pd  tau(  25) = (   0.9342105   0.9342105   0.0000000  )
        26           Pd  tau(  26) = (   1.4013158   1.4013158   0.0000000  )
        27           Pd  tau(  27) = (   1.4013158   0.9342105   0.4671053  )
        28           Pd  tau(  28) = (   0.9342105   1.4013158   0.4671053  )
        29           Pd  tau(  29) = (   0.9342105   0.9342105   0.9342105  )
        30           Pd  tau(  30) = (   1.4013158   1.4013158   0.9342105  )
        31           Pd  tau(  31) = (   1.4013158   0.9342105   1.4013158  )
        32           Pd  tau(  32) = (   0.9342105   1.4013158   1.4013158  )

     number of k points=    35  Marzari-Vanderbilt smearing, width (Ry)=  0.0400
                       cart. coord. in units 2pi/alat
        k(    1) = (   0.0297340   0.0297340   0.0297340), wk =   0.0219479
        k(    2) = (   0.0297340   0.0297340   0.0892019), wk =   0.0658436
        k(    3) = (   0.0297340   0.0297340   0.1486698), wk =   0.0658436
        k(    4) = (   0.0297340   0.0297340   0.2081377), wk =   0.0658436
        k(    5) = (   0.0297340   0.0297340  -0.2676056), wk =   0.0329218
        k(    6) = (   0.0297340   0.0892019   0.0892019), wk =   0.0658436
        k(    7) = (   0.0297340   0.0892019   0.1486698), wk =   0.1316872
        k(    8) = (   0.0297340   0.0892019   0.2081377), wk =   0.1316872
        k(    9) = (   0.0297340   0.0892019  -0.2676056), wk =   0.0658436
        k(   10) = (   0.0297340   0.1486698   0.1486698), wk =   0.0658436
        k(   11) = (   0.0297340   0.1486698   0.2081377), wk =   0.1316872
        k(   12) = (   0.0297340   0.1486698  -0.2676056), wk =   0.0658436
        k(   13) = (   0.0297340   0.2081377   0.2081377), wk =   0.0658436
        k(   14) = (   0.0297340   0.2081377  -0.2676056), wk =   0.0658436
        k(   15) = (   0.0297340  -0.2676056  -0.2676056), wk =   0.0164609
        k(   16) = (   0.0892019   0.0892019   0.0892019), wk =   0.0219479
        k(   17) = (   0.0892019   0.0892019   0.1486698), wk =   0.0658436
        k(   18) = (   0.0892019   0.0892019   0.2081377), wk =   0.0658436
        k(   19) = (   0.0892019   0.0892019  -0.2676056), wk =   0.0329218
        k(   20) = (   0.0892019   0.1486698   0.1486698), wk =   0.0658436
        k(   21) = (   0.0892019   0.1486698   0.2081377), wk =   0.1316872
        k(   22) = (   0.0892019   0.1486698  -0.2676056), wk =   0.0658436
        k(   23) = (   0.0892019   0.2081377   0.2081377), wk =   0.0658436
        k(   24) = (   0.0892019   0.2081377  -0.2676056), wk =   0.0658436
        k(   25) = (   0.0892019  -0.2676056  -0.2676056), wk =   0.0164609
        k(   26) = (   0.1486698   0.1486698   0.1486698), wk =   0.0219479
        k(   27) = (   0.1486698   0.1486698   0.2081377), wk =   0.0658436
        k(   28) = (   0.1486698   0.1486698  -0.2676056), wk =   0.0329218
        k(   29) = (   0.1486698   0.2081377   0.2081377), wk =   0.0658436
        k(   30) = (   0.1486698   0.2081377  -0.2676056), wk =   0.0658436
        k(   31) = (   0.1486698  -0.2676056  -0.2676056), wk =   0.0164609
        k(   32) = (   0.2081377   0.2081377   0.2081377), wk =   0.0219479
        k(   33) = (   0.2081377   0.2081377  -0.2676056), wk =   0.0329218
        k(   34) = (   0.2081377  -0.2676056  -0.2676056), wk =   0.0164609
        k(   35) = (  -0.2676056  -0.2676056  -0.2676056), wk =   0.0027435

     Dense  grid:  2932825 G-vectors     FFT dimensions: ( 180, 180, 180)

     Smooth grid:  1573781 G-vectors     FFT dimensions: ( 150, 150, 150)

     Estimated max dynamical RAM per process >     745.37 MB

     Estimated total dynamical RAM >      52.41 GB

     Initial potential from superposition of free atoms

     starting charge  575.98776, renormalised to  576.00000
     Starting wfcs are  320 randomized atomic wfcs +   26 random wfcs
     Checking if some PAW data can be deallocated... 

     total cpu time spent up to now is       82.2 secs

     Self-consistent Calculation

     iteration #  1     ecut=    71.00 Ry     beta= 0.10
     Davidson diagonalization with overlap
     ethr =  1.00E-02,  avg # of iterations =  6.0

     total cpu time spent up to now is      301.8 secs

     total energy              =  -16381.44494937 Ry
     estimated scf accuracy    <      24.90336832 Ry

     iteration #  2     ecut=    71.00 Ry     beta= 0.10
     Davidson diagonalization with overlap
     ethr =  4.32E-03,  avg # of iterations =  1.0

     total cpu time spent up to now is      450.7 secs

     total energy              =  -16373.27734482 Ry
     estimated scf accuracy    <      18.62163443 Ry

     iteration #  3     ecut=    71.00 Ry     beta= 0.10
     Davidson diagonalization with overlap
     ethr =  3.23E-03,  avg # of iterations =  2.0

     total cpu time spent up to now is      662.5 secs

     total energy              =  -16376.26526199 Ry
     estimated scf accuracy    <       3.47431168 Ry

     iteration #  4     ecut=    71.00 Ry     beta= 0.10
     Davidson diagonalization with overlap
     ethr =  6.03E-04,  avg # of iterations =  6.7

     total cpu time spent up to now is      877.9 secs

     total energy              =  -16376.22865673 Ry
     estimated scf accuracy    <       2.25194465 Ry

     iteration #  5     ecut=    71.00 Ry     beta= 0.10
     Davidson diagonalization with overlap
     ethr =  3.91E-04,  avg # of iterations =  2.8

     total cpu time spent up to now is     1041.2 secs

     total energy              =  -16376.08139092 Ry
     estimated scf accuracy    <       1.15424164 Ry

     iteration #  6     ecut=    71.00 Ry     beta= 0.10
     Davidson diagonalization with overlap
     c_bands:  3 eigenvalues not converged
     c_bands:  1 eigenvalues not converged
     ethr =  2.00E-04,  avg # of iterations =  4.5

     total cpu time spent up to now is     1208.4 secs

     total energy              =  -16376.23986273 Ry
     estimated scf accuracy    <       6.10011351 Ry

     iteration #  7     ecut=    71.00 Ry     beta= 0.10
     Davidson diagonalization with overlap
     ethr =  2.00E-04,  avg # of iterations =  2.4

     total cpu time spent up to now is     1444.1 secs

     total energy              =  -16376.65968921 Ry
     estimated scf accuracy    <      23.92667869 Ry

     iteration #  8     ecut=    71.00 Ry     beta= 0.10
     Davidson diagonalization with overlap
     ethr =  2.00E-04,  avg # of iterations =  1.6

     total cpu time spent up to now is     1597.0 secs

     total energy              =  -16376.66880594 Ry
     estimated scf accuracy    <      14.40995341 Ry

     iteration #  9     ecut=    71.00 Ry     beta= 0.10
     Davidson diagonalization with overlap
     ethr =  2.00E-04,  avg # of iterations =  1.9

     total cpu time spent up to now is     1751.7 secs

     total energy              =  -16376.74809981 Ry
     estimated scf accuracy    <      14.90451922 Ry

     iteration # 10     ecut=    71.00 Ry     beta= 0.10
     Davidson diagonalization with overlap
     ethr =  2.00E-04,  avg # of iterations =  1.7

     total cpu time spent up to now is     1904.4 secs

     total energy              =  -16377.65346608 Ry
     estimated scf accuracy    <      41.50549198 Ry

     iteration # 11     ecut=    71.00 Ry     beta= 0.10
     Davidson diagonalization with overlap
     ethr =  2.00E-04,  avg # of iterations =  1.7

     total cpu time spent up to now is     2064.1 secs

     total energy              =  -16377.78007362 Ry
     estimated scf accuracy    <      64.23849655 Ry

     iteration # 12     ecut=    71.00 Ry     beta= 0.10
     Davidson diagonalization with overlap
     ethr =  2.00E-04,  avg # of iterations =  1.0

     total cpu time spent up to now is     2207.6 secs

     total energy              =  -16374.75421187 Ry
     estimated scf accuracy    <      64.79470533 Ry

     iteration # 13     ecut=    71.00 Ry     beta= 0.10
     Davidson diagonalization with overlap
     ethr =  2.00E-04,  avg # of iterations =  2.8

     total cpu time spent up to now is     2417.3 secs

     total energy              =  -16376.81140469 Ry
     estimated scf accuracy    <      56.28558405 Ry

     iteration # 14     ecut=    71.00 Ry     beta= 0.10
     Davidson diagonalization with overlap
     ethr =  2.00E-04,  avg # of iterations =  2.0

     total cpu time spent up to now is     2599.3 secs

     total energy              =  -16377.94360532 Ry
     estimated scf accuracy    <      52.73740666 Ry

     iteration # 15     ecut=    71.00 Ry     beta= 0.10
     Davidson diagonalization with overlap
     ethr =  2.00E-04,  avg # of iterations =  5.2

     total cpu time spent up to now is     2814.2 secs

     total energy              =  -16374.46672597 Ry
     estimated scf accuracy    <      60.09237141 Ry

     iteration # 16     ecut=    71.00 Ry     beta= 0.10
     Davidson diagonalization with overlap
     ethr =  2.00E-04,  avg # of iterations =  5.2

     total cpu time spent up to now is     3059.6 secs

     total energy              =  -16376.62566418 Ry
     estimated scf accuracy    <      52.52863591 Ry

     iteration # 17     ecut=    71.00 Ry     beta= 0.10
     Davidson diagonalization with overlap
     ethr =  2.00E-04,  avg # of iterations =  1.0

     total cpu time spent up to now is     3212.5 secs

     total energy              =  -16375.74068799 Ry
     estimated scf accuracy    <      50.72245092 Ry

     iteration # 18     ecut=    71.00 Ry     beta= 0.10
     Davidson diagonalization with overlap
     ethr =  2.00E-04,  avg # of iterations =  2.0

     total cpu time spent up to now is     3388.0 secs

     total energy              =  -16375.92482024 Ry
     estimated scf accuracy    <      13.93317076 Ry

     iteration # 19     ecut=    71.00 Ry     beta= 0.10
     Davidson diagonalization with overlap
     ethr =  2.00E-04,  avg # of iterations =  1.0

     total cpu time spent up to now is     3536.5 secs

     total energy              =  -16374.81065783 Ry
     estimated scf accuracy    <      23.22738858 Ry

     iteration # 20     ecut=    71.00 Ry     beta= 0.10
     Davidson diagonalization with overlap
     ethr =  2.00E-04,  avg # of iterations =  2.9

     total cpu time spent up to now is     3724.1 secs

     total energy              =  -16376.01399579 Ry
     estimated scf accuracy    <      26.55430548 Ry

     iteration # 21     ecut=    71.00 Ry     beta= 0.10
     Davidson diagonalization with overlap
     ethr =  2.00E-04,  avg # of iterations =  2.0

     total cpu time spent up to now is     3897.0 secs

     total energy              =  -16375.90332755 Ry
     estimated scf accuracy    <      19.94931052 Ry

     iteration # 22     ecut=    71.00 Ry     beta= 0.10
     Davidson diagonalization with overlap
     ethr =  2.00E-04,  avg # of iterations =  2.0

     total cpu time spent up to now is     4074.6 secs

     total energy              =  -16375.72035975 Ry
     estimated scf accuracy    <      17.24580540 Ry

     iteration # 23     ecut=    71.00 Ry     beta= 0.10
     Davidson diagonalization with overlap
     ethr =  2.00E-04,  avg # of iterations =  2.0

     total cpu time spent up to now is     4250.0 secs

     total energy              =  -16377.96417222 Ry
     estimated scf accuracy    <      44.33727671 Ry

     iteration # 24     ecut=    71.00 Ry     beta= 0.10
     Davidson diagonalization with overlap
     ethr =  2.00E-04,  avg # of iterations =  2.0

     total cpu time spent up to now is     4432.4 secs

     total energy              =  -16379.34222826 Ry
     estimated scf accuracy    <      51.89363078 Ry

     iteration # 25     ecut=    71.00 Ry     beta= 0.10
     Davidson diagonalization with overlap
     ethr =  2.00E-04,  avg # of iterations = 11.1

     total cpu time spent up to now is     4639.1 secs

     total energy              =  -16379.27149004 Ry
     estimated scf accuracy    <      53.60438427 Ry

     iteration # 26     ecut=    71.00 Ry     beta= 0.10
     Davidson diagonalization with overlap
     ethr =  2.00E-04,  avg # of iterations =  1.1

     total cpu time spent up to now is     4785.1 secs

     total energy              =  -16379.16248434 Ry
     estimated scf accuracy    <      53.99527571 Ry

     iteration # 27     ecut=    71.00 Ry     beta= 0.10
     Davidson diagonalization with overlap
     ethr =  2.00E-04,  avg # of iterations =  1.0

     total cpu time spent up to now is     4928.2 secs

     total energy              =  -16379.21971217 Ry
     estimated scf accuracy    <      53.67414968 Ry

     iteration # 28     ecut=    71.00 Ry     beta= 0.10
     Davidson diagonalization with overlap
     ethr =  2.00E-04,  avg # of iterations =  1.0

     total cpu time spent up to now is     5070.2 secs

     total energy              =  -16379.18016682 Ry
     estimated scf accuracy    <      53.76732933 Ry

     iteration # 29     ecut=    71.00 Ry     beta= 0.10
     Davidson diagonalization with overlap
     ethr =  2.00E-04,  avg # of iterations =  1.0

     total cpu time spent up to now is     5209.8 secs

     total energy              =  -16379.37165404 Ry
     estimated scf accuracy    <      53.67673474 Ry

     iteration # 30     ecut=    71.00 Ry     beta= 0.10
     Davidson diagonalization with overlap
     ethr =  2.00E-04,  avg # of iterations =  1.0

     total cpu time spent up to now is     5348.5 secs

     total energy              =  -16378.42772613 Ry
     estimated scf accuracy    <      53.89918039 Ry

     iteration # 31     ecut=    71.00 Ry     beta= 0.10
     Davidson diagonalization with overlap
     ethr =  2.00E-04,  avg # of iterations =  4.9

     total cpu time spent up to now is     5529.0 secs

     total energy              =  -16379.21881477 Ry
     estimated scf accuracy    <      52.73980279 Ry

     iteration # 32     ecut=    71.00 Ry     beta= 0.10
     Davidson diagonalization with overlap
     ethr =  2.00E-04,  avg # of iterations =  2.0

     total cpu time spent up to now is     5696.2 secs

     total energy              =  -16376.81826203 Ry
     estimated scf accuracy    <      53.61889130 Ry

     iteration # 33     ecut=    71.00 Ry     beta= 0.10
     Davidson diagonalization with overlap
     ethr =  2.00E-04,  avg # of iterations =  4.4

     total cpu time spent up to now is     5874.7 secs

     total energy              =  -16370.66537497 Ry
     estimated scf accuracy    <      50.46688141 Ry

     iteration # 34     ecut=    71.00 Ry     beta= 0.10
     Davidson diagonalization with overlap
     ethr =  2.00E-04,  avg # of iterations =  6.1

     total cpu time spent up to now is     6060.4 secs

     total energy              =  -16374.48612327 Ry
     estimated scf accuracy    <      20.86007219 Ry

     iteration # 35     ecut=    71.00 Ry     beta= 0.10
     Davidson diagonalization with overlap
     ethr =  2.00E-04,  avg # of iterations =  6.1

     total cpu time spent up to now is     6249.5 secs

     total energy              =  -16369.87533914 Ry
     estimated scf accuracy    <      53.01107503 Ry

     iteration # 36     ecut=    71.00 Ry     beta= 0.10
     Davidson diagonalization with overlap
     ethr =  2.00E-04,  avg # of iterations =  6.9

     total cpu time spent up to now is     6452.2 secs

     total energy              =  -16376.01089316 Ry
     estimated scf accuracy    <       4.02271303 Ry

     iteration # 37     ecut=    71.00 Ry     beta= 0.10
     Davidson diagonalization with overlap
     ethr =  2.00E-04,  avg # of iterations =  3.6

     total cpu time spent up to now is     6629.6 secs

     total energy              =  -16376.04374927 Ry
     estimated scf accuracy    <       1.80059709 Ry

     iteration # 38     ecut=    71.00 Ry     beta= 0.10
     Davidson diagonalization with overlap
     ethr =  2.00E-04,  avg # of iterations =  1.3

     total cpu time spent up to now is     6772.0 secs

     total energy              =  -16376.08796187 Ry
     estimated scf accuracy    <       1.37384392 Ry

     iteration # 39     ecut=    71.00 Ry     beta= 0.10
     Davidson diagonalization with overlap
     ethr =  2.00E-04,  avg # of iterations =  1.0

     total cpu time spent up to now is     6906.6 secs

     total energy              =  -16376.02551622 Ry
     estimated scf accuracy    <       1.59210458 Ry

     iteration # 40     ecut=    71.00 Ry     beta= 0.10
     Davidson diagonalization with overlap
     ethr =  2.00E-04,  avg # of iterations =  1.0

     total cpu time spent up to now is     7042.1 secs

     total energy              =  -16376.01897384 Ry
     estimated scf accuracy    <       1.21146409 Ry

     iteration # 41     ecut=    71.00 Ry     beta= 0.10
     Davidson diagonalization with overlap
     ethr =  2.00E-04,  avg # of iterations =  1.0

     total cpu time spent up to now is     7176.3 secs

     total energy              =  -16375.94737142 Ry
     estimated scf accuracy    <       1.15608810 Ry

     iteration # 42     ecut=    71.00 Ry     beta= 0.10
     Davidson diagonalization with overlap
     ethr =  2.00E-04,  avg # of iterations =  1.2

     total cpu time spent up to now is     7316.0 secs

     total energy              =  -16375.84788184 Ry
     estimated scf accuracy    <       0.84933635 Ry

     iteration # 43     ecut=    71.00 Ry     beta= 0.10
     Davidson diagonalization with overlap
     ethr =  1.47E-04,  avg # of iterations =  2.3

     total cpu time spent up to now is     7478.0 secs

     total energy              =  -16375.92378135 Ry
     estimated scf accuracy    <       1.06676783 Ry

     iteration # 44     ecut=    71.00 Ry     beta= 0.10
     Davidson diagonalization with overlap
     ethr =  1.47E-04,  avg # of iterations =  2.0

     total cpu time spent up to now is     7634.6 secs

     total energy              =  -16375.83017626 Ry
     estimated scf accuracy    <       1.00542724 Ry

     iteration # 45     ecut=    71.00 Ry     beta= 0.10
     Davidson diagonalization with overlap
     ethr =  1.47E-04,  avg # of iterations =  2.0

     total cpu time spent up to now is     7793.6 secs

     total energy              =  -16375.82294084 Ry
     estimated scf accuracy    <       0.55285081 Ry

     iteration # 46     ecut=    71.00 Ry     beta= 0.10
     Davidson diagonalization with overlap
     ethr =  9.60E-05,  avg # of iterations =  1.0

     total cpu time spent up to now is     7928.5 secs

     total energy              =  -16375.80866836 Ry
     estimated scf accuracy    <       0.58467197 Ry

     iteration # 47     ecut=    71.00 Ry     beta= 0.10
     Davidson diagonalization with overlap
     ethr =  9.60E-05,  avg # of iterations =  1.3

     total cpu time spent up to now is     8067.7 secs

     total energy              =  -16375.89372355 Ry
     estimated scf accuracy    <       6.50961412 Ry

     iteration # 48     ecut=    71.00 Ry     beta= 0.10
     Davidson diagonalization with overlap
     ethr =  9.60E-05,  avg # of iterations =  1.0

     total cpu time spent up to now is     8204.1 secs

     total energy              =  -16375.63030401 Ry
     estimated scf accuracy    <      14.29589208 Ry

     iteration # 49     ecut=    71.00 Ry     beta= 0.10
     Davidson diagonalization with overlap
     ethr =  9.60E-05,  avg # of iterations =  2.0

     total cpu time spent up to now is     8361.0 secs

     total energy              =  -16375.82549646 Ry
     estimated scf accuracy    <       0.79578695 Ry

     iteration # 50     ecut=    71.00 Ry     beta= 0.10
     Davidson diagonalization with overlap
     ethr =  9.60E-05,  avg # of iterations =  1.0

     total cpu time spent up to now is     8498.5 secs

     total energy              =  -16375.74694537 Ry
     estimated scf accuracy    <       0.60533787 Ry

     iteration # 51     ecut=    71.00 Ry     beta= 0.10
     Davidson diagonalization with overlap
     ethr =  9.60E-05,  avg # of iterations =  2.0

     total cpu time spent up to now is     8651.9 secs

     total energy              =  -16376.26781827 Ry
     estimated scf accuracy    <      49.04163411 Ry

     iteration # 52     ecut=    71.00 Ry     beta= 0.10
     Davidson diagonalization with overlap
     ethr =  9.60E-05,  avg # of iterations =  1.0

     total cpu time spent up to now is     8783.4 secs

     total energy              =  -16375.68468394 Ry
     estimated scf accuracy    <      46.00015706 Ry

     iteration # 53     ecut=    71.00 Ry     beta= 0.10
     Davidson diagonalization with overlap
     ethr =  9.60E-05,  avg # of iterations =  2.0

     total cpu time spent up to now is     8937.6 secs

     total energy              =  -16375.97692512 Ry
     estimated scf accuracy    <       3.46260343 Ry

     iteration # 54     ecut=    71.00 Ry     beta= 0.10
     Davidson diagonalization with overlap
     ethr =  9.60E-05,  avg # of iterations =  2.0

     total cpu time spent up to now is     9090.6 secs

     total energy              =  -16376.17976158 Ry
     estimated scf accuracy    <      42.87129398 Ry

     iteration # 55     ecut=    71.00 Ry     beta= 0.10
     Davidson diagonalization with overlap
     ethr =  9.60E-05,  avg # of iterations =  1.0

     total cpu time spent up to now is     9221.0 secs

     total energy              =  -16375.26018095 Ry
     estimated scf accuracy    <      42.88022849 Ry

     iteration # 56     ecut=    71.00 Ry     beta= 0.10
     Davidson diagonalization with overlap
     ethr =  9.60E-05,  avg # of iterations =  2.0

     total cpu time spent up to now is     9371.6 secs

     total energy              =  -16375.83739949 Ry
     estimated scf accuracy    <       0.79657357 Ry

     iteration # 57     ecut=    71.00 Ry     beta= 0.10
     Davidson diagonalization with overlap
     ethr =  9.60E-05,  avg # of iterations =  1.0

     total cpu time spent up to now is     9501.3 secs

     total energy              =  -16375.84177765 Ry
     estimated scf accuracy    <       0.88171796 Ry

     iteration # 58     ecut=    71.00 Ry     beta= 0.10
     Davidson diagonalization with overlap
     ethr =  9.60E-05,  avg # of iterations =  1.0

     total cpu time spent up to now is     9632.5 secs

     total energy              =  -16375.84873675 Ry
     estimated scf accuracy    <       0.72695438 Ry

     iteration # 59     ecut=    71.00 Ry     beta= 0.10
     Davidson diagonalization with overlap
     ethr =  9.60E-05,  avg # of iterations =  1.0

     total cpu time spent up to now is     9766.7 secs

     total energy              =  -16375.84015225 Ry
     estimated scf accuracy    <       0.65450989 Ry

     iteration # 60     ecut=    71.00 Ry     beta= 0.10
     Davidson diagonalization with overlap
     ethr =  9.60E-05,  avg # of iterations =  1.0

     total cpu time spent up to now is     9898.3 secs

     total energy              =  -16375.83508899 Ry
     estimated scf accuracy    <       0.91358910 Ry

     iteration # 61     ecut=    71.00 Ry     beta= 0.10
     Davidson diagonalization with overlap
     ethr =  9.60E-05,  avg # of iterations =  1.0

     total cpu time spent up to now is    10028.0 secs

     total energy              =  -16375.83613693 Ry
     estimated scf accuracy    <       0.94088307 Ry

     iteration # 62     ecut=    71.00 Ry     beta= 0.10
     Davidson diagonalization with overlap
     ethr =  9.60E-05,  avg # of iterations =  1.0

     total cpu time spent up to now is    10159.2 secs

     total energy              =  -16375.83218367 Ry
     estimated scf accuracy    <       0.95729408 Ry

     iteration # 63     ecut=    71.00 Ry     beta= 0.10
     Davidson diagonalization with overlap
     ethr =  9.60E-05,  avg # of iterations =  1.0

     total cpu time spent up to now is    10291.2 secs

     total energy              =  -16375.82961942 Ry
     estimated scf accuracy    <       0.84492280 Ry

     iteration # 64     ecut=    71.00 Ry     beta= 0.10
     Davidson diagonalization with overlap
     ethr =  9.60E-05,  avg # of iterations =  1.0

     total cpu time spent up to now is    10420.8 secs

     total energy              =  -16375.81155548 Ry
     estimated scf accuracy    <       0.77213025 Ry

     iteration # 65     ecut=    71.00 Ry     beta= 0.10
     Davidson diagonalization with overlap
     ethr =  9.60E-05,  avg # of iterations =  1.0

     total cpu time spent up to now is    10550.7 secs

     total energy              =  -16375.81054350 Ry
     estimated scf accuracy    <       0.21738522 Ry

     iteration # 66     ecut=    71.00 Ry     beta= 0.10
     Davidson diagonalization with overlap
     ethr =  3.77E-05,  avg # of iterations =  1.0

     total cpu time spent up to now is    10679.1 secs

     total energy              =  -16375.81504867 Ry
     estimated scf accuracy    <       0.31033825 Ry

     iteration # 67     ecut=    71.00 Ry     beta= 0.10
     Davidson diagonalization with overlap
     ethr =  3.77E-05,  avg # of iterations =  1.0

     total cpu time spent up to now is    10808.6 secs

     total energy              =  -16375.81311066 Ry
     estimated scf accuracy    <       0.10006972 Ry

     iteration # 68     ecut=    71.00 Ry     beta= 0.10
     Davidson diagonalization with overlap
     ethr =  1.74E-05,  avg # of iterations =  1.5

     total cpu time spent up to now is    10943.0 secs

     total energy              =  -16375.81293792 Ry
     estimated scf accuracy    <       0.06860505 Ry

     iteration # 69     ecut=    71.00 Ry     beta= 0.10
     Davidson diagonalization with overlap
     ethr =  1.19E-05,  avg # of iterations =  2.2

     total cpu time spent up to now is    11082.1 secs

     total energy              =  -16375.81488642 Ry
     estimated scf accuracy    <       0.22359381 Ry

     iteration # 70     ecut=    71.00 Ry     beta= 0.10
     Davidson diagonalization with overlap
     ethr =  1.19E-05,  avg # of iterations =  1.0

     total cpu time spent up to now is    11216.0 secs

     total energy              =  -16375.81540016 Ry
     estimated scf accuracy    <       0.01953781 Ry

     iteration # 71     ecut=    71.00 Ry     beta= 0.10
     Davidson diagonalization with overlap
     c_bands:  1 eigenvalues not converged
     c_bands:  1 eigenvalues not converged
     c_bands:  3 eigenvalues not converged
     ethr =  3.39E-06,  avg # of iterations =  8.8

     total cpu time spent up to now is    11382.9 secs

     total energy              =  -16375.81583053 Ry
     estimated scf accuracy    <       0.00140484 Ry

     iteration # 72     ecut=    71.00 Ry     beta= 0.10
     Davidson diagonalization with overlap
     c_bands:  1 eigenvalues not converged
     c_bands:  1 eigenvalues not converged
     c_bands:  2 eigenvalues not converged
     c_bands:  1 eigenvalues not converged
     ethr =  2.44E-07,  avg # of iterations =  5.9

     total cpu time spent up to now is    11553.6 secs

     total energy              =  -16375.81592436 Ry
     estimated scf accuracy    <       0.08551811 Ry

     iteration # 73     ecut=    71.00 Ry     beta= 0.10
     Davidson diagonalization with overlap
     ethr =  2.44E-07,  avg # of iterations =  2.6

     total cpu time spent up to now is    11703.0 secs

     total energy              =  -16375.81613224 Ry
     estimated scf accuracy    <       0.03610433 Ry

     iteration # 74     ecut=    71.00 Ry     beta= 0.10
     Davidson diagonalization with overlap
     ethr =  2.44E-07,  avg # of iterations =  1.0

     total cpu time spent up to now is    11830.7 secs

     total energy              =  -16375.81526520 Ry
     estimated scf accuracy    <       0.04441068 Ry

     iteration # 75     ecut=    71.00 Ry     beta= 0.10
     Davidson diagonalization with overlap
     ethr =  2.44E-07,  avg # of iterations =  1.0

     total cpu time spent up to now is    11959.5 secs

     total energy              =  -16375.81571387 Ry
     estimated scf accuracy    <       0.00009400 Ry

     iteration # 76     ecut=    71.00 Ry     beta= 0.10
     Davidson diagonalization with overlap
     ethr =  1.63E-08,  avg # of iterations =  2.0

     total cpu time spent up to now is    12112.1 secs

     total energy              =  -16375.81570970 Ry
     estimated scf accuracy    <       0.00168236 Ry

     iteration # 77     ecut=    71.00 Ry     beta= 0.10
     Davidson diagonalization with overlap
     ethr =  1.63E-08,  avg # of iterations =  2.0

     total cpu time spent up to now is    12262.0 secs

     total energy              =  -16375.81573905 Ry
     estimated scf accuracy    <       0.00017791 Ry

     iteration # 78     ecut=    71.00 Ry     beta= 0.10
     Davidson diagonalization with overlap
     ethr =  1.63E-08,  avg # of iterations =  1.0

     total cpu time spent up to now is    12391.6 secs

     total energy              =  -16375.81575272 Ry
     estimated scf accuracy    <       0.00009371 Ry

     iteration # 79     ecut=    71.00 Ry     beta= 0.10
     Davidson diagonalization with overlap
     ethr =  1.63E-08,  avg # of iterations =  2.0

     total cpu time spent up to now is    12541.1 secs

     total energy              =  -16375.81569724 Ry
     estimated scf accuracy    <       0.00612241 Ry

     iteration # 80     ecut=    71.00 Ry     beta= 0.10
     Davidson diagonalization with overlap
     ethr =  1.63E-08,  avg # of iterations =  2.7

     total cpu time spent up to now is    12696.1 secs

     total energy              =  -16375.81577119 Ry
     estimated scf accuracy    <       0.00009008 Ry

     iteration # 81     ecut=    71.00 Ry     beta= 0.10
     Davidson diagonalization with overlap
     ethr =  1.56E-08,  avg # of iterations =  1.0

     total cpu time spent up to now is    12821.8 secs

     total energy              =  -16375.81576859 Ry
     estimated scf accuracy    <       0.00001929 Ry

     iteration # 82     ecut=    71.00 Ry     beta= 0.10
     Davidson diagonalization with overlap
     ethr =  3.35E-09,  avg # of iterations =  2.0

     total cpu time spent up to now is    12975.6 secs

     total energy              =  -16375.81577580 Ry
     estimated scf accuracy    <       0.00009884 Ry

     iteration # 83     ecut=    71.00 Ry     beta= 0.10
     Davidson diagonalization with overlap
     ethr =  3.35E-09,  avg # of iterations =  2.0

     total cpu time spent up to now is    13125.4 secs

     total energy              =  -16375.81577840 Ry
     estimated scf accuracy    <       0.00001321 Ry

     iteration # 84     ecut=    71.00 Ry     beta= 0.10
     Davidson diagonalization with overlap
     ethr =  2.29E-09,  avg # of iterations =  2.0

     total cpu time spent up to now is    13275.3 secs

     total energy              =  -16375.81577913 Ry
     estimated scf accuracy    <       0.00002020 Ry

     iteration # 85     ecut=    71.00 Ry     beta= 0.10
     Davidson diagonalization with overlap
     ethr =  2.29E-09,  avg # of iterations =  2.0

     total cpu time spent up to now is    13428.4 secs

     total energy              =  -16375.81578592 Ry
     estimated scf accuracy    <       0.00000833 Ry

     iteration # 86     ecut=    71.00 Ry     beta= 0.10
     Davidson diagonalization with overlap
     ethr =  1.45E-09,  avg # of iterations =  3.7

     total cpu time spent up to now is    13599.0 secs

     total energy              =  -16375.81578676 Ry
     estimated scf accuracy    <       0.00001415 Ry

     iteration # 87     ecut=    71.00 Ry     beta= 0.10
     Davidson diagonalization with overlap
     ethr =  1.45E-09,  avg # of iterations =  1.0

     total cpu time spent up to now is    13726.6 secs

     total energy              =  -16375.81578506 Ry
     estimated scf accuracy    <       0.00001077 Ry

     iteration # 88     ecut=    71.00 Ry     beta= 0.10
     Davidson diagonalization with overlap
     ethr =  1.45E-09,  avg # of iterations =  2.0

     total cpu time spent up to now is    13880.5 secs

     total energy              =  -16375.81578624 Ry
     estimated scf accuracy    <       0.00000582 Ry

     iteration # 89     ecut=    71.00 Ry     beta= 0.10
     Davidson diagonalization with overlap
     ethr =  1.01E-09,  avg # of iterations =  2.0

     total cpu time spent up to now is    14034.8 secs

     total energy              =  -16375.81578733 Ry
     estimated scf accuracy    <       0.00000328 Ry

     iteration # 90     ecut=    71.00 Ry     beta= 0.10
     Davidson diagonalization with overlap
     ethr =  5.70E-10,  avg # of iterations =  3.0

     total cpu time spent up to now is    14193.3 secs

     total energy              =  -16375.81578747 Ry
     estimated scf accuracy    <       0.00000242 Ry

     iteration # 91     ecut=    71.00 Ry     beta= 0.10
     Davidson diagonalization with overlap
     ethr =  4.20E-10,  avg # of iterations =  2.0

     total cpu time spent up to now is    14343.4 secs

     total energy              =  -16375.81578784 Ry
     estimated scf accuracy    <       0.00000132 Ry

     iteration # 92     ecut=    71.00 Ry     beta= 0.10
     Davidson diagonalization with overlap
     ethr =  2.30E-10,  avg # of iterations =  2.0

     total cpu time spent up to now is    14498.2 secs

     End of self-consistent calculation

          k = 0.0297 0.0297 0.0297 (196634 PWs)   bands (ev):

   -82.3777 -82.3774 -82.3774 -82.3774 -82.3774 -82.3774 -82.3774 -82.3774
   -82.3774 -82.3774 -82.3774 -82.3774 -82.3774 -82.3774 -82.3774 -82.3774
   -82.3774 -82.3774 -82.3774 -82.3774 -82.3774 -82.3774 -82.3774 -82.3774
   -82.3774 -82.3774 -82.3774 -82.3774 -82.3773 -82.3773 -82.3773 -82.3772
   -48.2112 -48.2112 -48.2112 -48.2111 -48.2111 -48.2111 -48.2111 -48.2111
   -48.2111 -48.2111 -48.2110 -48.2110 -48.2110 -48.2110 -48.2110 -48.2110
   -48.2110 -48.2110 -48.2110 -48.2110 -48.2110 -48.2110 -48.2110 -48.2110
   -48.2110 -48.2110 -48.2110 -48.2110 -48.2110 -48.2110 -48.2110 -48.2110
   -48.2110 -48.2110 -48.2110 -48.2110 -48.2110 -48.2110 -48.2110 -48.2110
   -48.2110 -48.2110 -48.2110 -48.2110 -48.2110 -48.2110 -48.2110 -48.2110
   -48.2110 -48.2110 -48.2110 -48.2110 -48.2110 -48.2110 -48.2110 -48.2110
   -48.2110 -48.2110 -48.2110 -48.2110 -48.2110 -48.2110 -48.2110 -48.2110
   -48.2110 -48.2110 -48.2110 -48.2110 -48.2110 -48.2109 -48.2109 -48.2109
   -48.2109 -48.2109 -48.2109 -48.2109 -48.2109 -48.2109 -48.2109 -48.2109
   -48.2109 -48.2109 -48.2109 -48.2109 -48.2109 -48.2109 -48.2109 -48.2109
   -48.2109 -48.2109 -48.2109 -48.2109 -48.2109 -48.2108 -48.2108 -48.2108
    -1.0815  -0.9841  -0.9841  -0.9841  -0.9826  -0.9818  -0.9818  -0.9818
    -0.9762  -0.9762  -0.9762  -0.9471  -0.9471  -0.9471  -0.9401  -0.9401
    -0.9401  -0.9247  -0.9247  -0.9247  -0.9241  -0.9241  -0.9241  -0.9241
    -0.9241  -0.9241  -0.9198  -0.9198  -0.9198  -0.9198  -0.9198  -0.9198
    -0.9189  -0.9189  -0.9189  -0.9173  -0.9173  -0.9173  -0.9088  -0.9088
    -0.9088  -0.9036  -0.9036  -0.9036  -0.9034  -0.9028  -0.9028  -0.9025
    -0.9025  -0.9025  -0.9025  -0.9025  -0.9025  -0.9021  -0.9021  -0.9021
    -0.9016  -0.9016  -0.9012  -0.9012  -0.9012  -0.9012  -0.9012  -0.9012
    -0.9010  -0.9010  -0.9010  -0.8953  -0.8953  -0.8953  -0.8854  -0.8854
    -0.8854  -0.8854  -0.8854  -0.8854  -0.8619  -0.8618  -0.8618  -0.8618
    -0.8618  -0.8618  -0.8608  -0.8608  -0.8608  -0.8567  -0.8567  -0.8567
    -0.8517  -0.8517  -0.8517  -0.8514  -0.8514  -0.8514  -0.8478  -0.8478
    -0.8478  -0.8443  -0.8443  -0.8426  -0.8426  -0.8426  -0.8426  -0.8425
    -0.8425  -0.8423  -0.8423  -0.8423  -0.8420  -0.8420  -0.8420  -0.8410
    -0.8410  -0.8410  -0.8410  -0.8410  -0.8410  -0.8354  -0.8354  -0.8354
    -0.8354  -0.8354  -0.8354  -0.8337  -0.8337  -0.8337  -0.8337  -0.8337
    -0.8337  -0.8320  -0.8320  -0.8320  -0.8223  -0.8223  -0.8223  -0.8179
    -0.8179  -0.8179  -0.7977  -0.7977  -0.7977  -0.7950  -0.7950  -0.7950
    -0.7944  -0.7944  -0.7937  -0.7937  -0.7937  -0.7818  -0.7818  -0.7818
    -0.7813  -0.7813  -0.7813  -0.7813  -0.7813  -0.7813  -0.7812  -0.7812
    -0.7812  -0.4322  -0.4322  -0.4321  -0.2777  -0.2777  -0.2777   0.1613
     0.1613   0.1613   0.2932   0.2932   0.2932   0.2932   0.2933   0.2933
     0.4173   0.4173   0.4173   0.5458   0.5798   0.5798   0.5798   1.1295
     1.1295   1.1295   1.1771   1.1771   1.1771   1.1771   1.1771   1.1771
     2.1967   2.1967   2.1967   2.2317   2.6684   2.6684   2.6684   3.4031
     3.4031   3.4031   3.4031   3.4031   3.4031   3.4058   3.4058   3.4060
     3.5221   3.5224   3.5224   3.5224   3.5225   3.5228   3.5798   3.5798
     3.5799   3.5800

          k = 0.0297 0.0297 0.0892 (196719 PWs)   bands (ev):

   -82.3777 -82.3774 -82.3774 -82.3774 -82.3774 -82.3774 -82.3774 -82.3774
   -82.3774 -82.3774 -82.3774 -82.3774 -82.3774 -82.3774 -82.3774 -82.3774
   -82.3774 -82.3774 -82.3774 -82.3774 -82.3774 -82.3774 -82.3774 -82.3774
   -82.3774 -82.3774 -82.3774 -82.3774 -82.3773 -82.3773 -82.3773 -82.3772
   -48.2112 -48.2112 -48.2112 -48.2111 -48.2111 -48.2111 -48.2111 -48.2111
   -48.2111 -48.2111 -48.2111 -48.2110 -48.2110 -48.2110 -48.2110 -48.2110
   -48.2110 -48.2110 -48.2110 -48.2110 -48.2110 -48.2110 -48.2110 -48.2110
   -48.2110 -48.2110 -48.2110 -48.2110 -48.2110 -48.2110 -48.2110 -48.2110
   -48.2110 -48.2110 -48.2110 -48.2110 -48.2110 -48.2110 -48.2110 -48.2110
   -48.2110 -48.2110 -48.2110 -48.2110 -48.2110 -48.2110 -48.2110 -48.2110
   -48.2110 -48.2110 -48.2110 -48.2110 -48.2110 -48.2110 -48.2110 -48.2110
   -48.2110 -48.2110 -48.2110 -48.2110 -48.2110 -48.2110 -48.2110 -48.2110
   -48.2110 -48.2110 -48.2110 -48.2110 -48.2110 -48.2110 -48.2110 -48.2110
   -48.2110 -48.2110 -48.2109 -48.2109 -48.2109 -48.2109 -48.2109 -48.2109
   -48.2109 -48.2109 -48.2109 -48.2109 -48.2109 -48.2109 -48.2109 -48.2109
   -48.2109 -48.2109 -48.2109 -48.2109 -48.2109 -48.2108 -48.2108 -48.2108
    -1.0641  -0.9828  -0.9817  -0.9817  -0.9805  -0.9790  -0.9790  -0.9783
    -0.9742  -0.9736  -0.9736  -0.9541  -0.9456  -0.9456  -0.9387  -0.9387
    -0.9331  -0.9292  -0.9290  -0.9290  -0.9280  -0.9280  -0.9277  -0.9252
    -0.9252  -0.9247  -0.9247  -0.9245  -0.9234  -0.9234  -0.9211  -0.9211
    -0.9183  -0.9183  -0.9164  -0.9164  -0.9143  -0.9143  -0.9143  -0.9143
    -0.9073  -0.9073  -0.9065  -0.9065  -0.9063  -0.9063  -0.9044  -0.9031
    -0.9031  -0.9031  -0.9028  -0.9025  -0.9025  -0.9024  -0.9024  -0.9013
    -0.9012  -0.9011  -0.9006  -0.9005  -0.9005  -0.9001  -0.9001  -0.8997
    -0.8993  -0.8993  -0.8993  -0.8989  -0.8911  -0.8911  -0.8855  -0.8855
    -0.8850  -0.8850  -0.8691  -0.8691  -0.8677  -0.8677  -0.8673  -0.8666
    -0.8666  -0.8653  -0.8653  -0.8644  -0.8644  -0.8623  -0.8621  -0.8614
    -0.8595  -0.8595  -0.8577  -0.8577  -0.8517  -0.8517  -0.8476  -0.8476
    -0.8475  -0.8475  -0.8473  -0.8473  -0.8455  -0.8436  -0.8416  -0.8413
    -0.8413  -0.8412  -0.8412  -0.8404  -0.8404  -0.8397  -0.8397  -0.8378
    -0.8378  -0.8363  -0.8355  -0.8339  -0.8339  -0.8333  -0.8333  -0.8325
    -0.8325  -0.8307  -0.8303  -0.8303  -0.8303  -0.8282  -0.8282  -0.8276
    -0.8276  -0.8265  -0.8265  -0.8258  -0.8258  -0.8209  -0.8209  -0.8161
    -0.8161  -0.8136  -0.7993  -0.7993  -0.7985  -0.7978  -0.7978  -0.7975
    -0.7967  -0.7956  -0.7946  -0.7943  -0.7943  -0.7855  -0.7855  -0.7839
    -0.7836  -0.7836  -0.7836  -0.7836  -0.7832  -0.7813  -0.7813  -0.7813
    -0.7813  -0.5703  -0.4135  -0.4135  -0.2598  -0.2598  -0.1083   0.0389
     0.0389   0.1765   0.1769   0.1769   0.3070   0.3070   0.4291   0.4322
     0.4322   0.4937   0.5460   0.5460   0.5573   0.5574   0.5910   1.0301
     1.1322   1.1322   1.1406   1.1406   1.1496   1.1497   1.1741   1.1741
     2.2185   2.2531   2.2531   2.3188   2.6903   2.6903   2.7899   3.2307
     3.2506   3.2506   3.3137   3.3138   3.3420   3.3421   3.3515   3.3515
     3.3837   3.3837   3.4110   3.4112   3.4865   3.5329   3.5330   3.6204
     3.6205   3.6602

          k = 0.0297 0.0297 0.1487 (196723 PWs)   bands (ev):

   -82.3777 -82.3774 -82.3774 -82.3774 -82.3774 -82.3774 -82.3774 -82.3774
   -82.3774 -82.3774 -82.3774 -82.3774 -82.3774 -82.3774 -82.3774 -82.3774
   -82.3774 -82.3774 -82.3774 -82.3774 -82.3774 -82.3774 -82.3774 -82.3774
   -82.3774 -82.3774 -82.3774 -82.3774 -82.3773 -82.3773 -82.3773 -82.3772
   -48.2112 -48.2112 -48.2112 -48.2111 -48.2111 -48.2111 -48.2111 -48.2111
   -48.2111 -48.2111 -48.2111 -48.2111 -48.2111 -48.2110 -48.2110 -48.2110
   -48.2110 -48.2110 -48.2110 -48.2110 -48.2110 -48.2110 -48.2110 -48.2110
   -48.2110 -48.2110 -48.2110 -48.2110 -48.2110 -48.2110 -48.2110 -48.2110
   -48.2110 -48.2110 -48.2110 -48.2110 -48.2110 -48.2110 -48.2110 -48.2110
   -48.2110 -48.2110 -48.2110 -48.2110 -48.2110 -48.2110 -48.2110 -48.2110
   -48.2110 -48.2110 -48.2110 -48.2110 -48.2110 -48.2110 -48.2110 -48.2110
   -48.2110 -48.2110 -48.2110 -48.2110 -48.2110 -48.2110 -48.2110 -48.2110
   -48.2110 -48.2110 -48.2110 -48.2110 -48.2110 -48.2110 -48.2110 -48.2110
   -48.2110 -48.2110 -48.2109 -48.2109 -48.2109 -48.2109 -48.2109 -48.2109
   -48.2109 -48.2109 -48.2109 -48.2109 -48.2109 -48.2109 -48.2109 -48.2109
   -48.2109 -48.2109 -48.2109 -48.2109 -48.2109 -48.2108 -48.2108 -48.2108
    -1.0299  -0.9804  -0.9770  -0.9770  -0.9756  -0.9736  -0.9736  -0.9723
    -0.9704  -0.9685  -0.9685  -0.9608  -0.9424  -0.9424  -0.9394  -0.9382
    -0.9382  -0.9359  -0.9359  -0.9354  -0.9344  -0.9339  -0.9339  -0.9317
    -0.9317  -0.9299  -0.9299  -0.9269  -0.9269  -0.9265  -0.9223  -0.9223
    -0.9214  -0.9214  -0.9176  -0.9176  -0.9159  -0.9159  -0.9117  -0.9117
    -0.9068  -0.9044  -0.9044  -0.9042  -0.9042  -0.9039  -0.9039  -0.9037
    -0.9031  -0.9029  -0.9029  -0.9025  -0.9024  -0.9024  -0.9015  -0.9015
    -0.9012  -0.9002  -0.9002  -0.8980  -0.8978  -0.8977  -0.8968  -0.8968
    -0.8962  -0.8962  -0.8953  -0.8932  -0.8887  -0.8887  -0.8854  -0.8854
    -0.8843  -0.8843  -0.8770  -0.8770  -0.8750  -0.8724  -0.8724  -0.8719
    -0.8719  -0.8716  -0.8709  -0.8707  -0.8707  -0.8697  -0.8671  -0.8671
    -0.8666  -0.8666  -0.8577  -0.8577  -0.8520  -0.8520  -0.8507  -0.8507
    -0.8502  -0.8502  -0.8473  -0.8432  -0.8432  -0.8421  -0.8421  -0.8421
    -0.8415  -0.8415  -0.8365  -0.8365  -0.8344  -0.8344  -0.8330  -0.8330
    -0.8327  -0.8327  -0.8325  -0.8324  -0.8324  -0.8304  -0.8276  -0.8274
    -0.8267  -0.8267  -0.8247  -0.8247  -0.8209  -0.8201  -0.8201  -0.8201
    -0.8201  -0.8199  -0.8195  -0.8191  -0.8191  -0.8182  -0.8182  -0.8148
    -0.8148  -0.8092  -0.8025  -0.8025  -0.8023  -0.8023  -0.8016  -0.8005
    -0.8001  -0.7986  -0.7970  -0.7965  -0.7965  -0.7928  -0.7928  -0.7880
    -0.7880  -0.7880  -0.7879  -0.7879  -0.7870  -0.7813  -0.7813  -0.7813
    -0.7813  -0.6902  -0.3770  -0.3770  -0.2244  -0.2244  -0.0720  -0.0720
     0.0706   0.0706   0.0745   0.2062   0.3338   0.3338   0.4310   0.4518
     0.5178   0.5178   0.5748   0.5748   0.5802   0.6756   0.6756   0.8665
     1.0703   1.0704   1.0955   1.0955   1.1373   1.1374   1.1684   1.1684
     2.2960   2.3603   2.3603   2.4501   2.7339   2.7339   2.9971   3.0080
     3.1112   3.1112   3.1278   3.1278   3.2494   3.2495   3.2610   3.2796
     3.2796   3.3201   3.3201   3.3245   3.3246   3.5372   3.5373   3.6749
     3.6749   3.8161

          k = 0.0297 0.0297 0.2081 (196698 PWs)   bands (ev):

   -82.3777 -82.3774 -82.3774 -82.3774 -82.3774 -82.3774 -82.3774 -82.3774
   -82.3774 -82.3774 -82.3774 -82.3774 -82.3774 -82.3774 -82.3774 -82.3774
   -82.3774 -82.3774 -82.3774 -82.3774 -82.3774 -82.3774 -82.3774 -82.3774
   -82.3774 -82.3774 -82.3774 -82.3774 -82.3773 -82.3773 -82.3773 -82.3772
   -48.2112 -48.2112 -48.2112 -48.2111 -48.2111 -48.2111 -48.2111 -48.2111
   -48.2111 -48.2111 -48.2111 -48.2110 -48.2110 -48.2110 -48.2110 -48.2110
   -48.2110 -48.2110 -48.2110 -48.2110 -48.2110 -48.2110 -48.2110 -48.2110
   -48.2110 -48.2110 -48.2110 -48.2110 -48.2110 -48.2110 -48.2110 -48.2110
   -48.2110 -48.2110 -48.2110 -48.2110 -48.2110 -48.2110 -48.2110 -48.2110
   -48.2110 -48.2110 -48.2110 -48.2110 -48.2110 -48.2110 -48.2110 -48.2110
   -48.2110 -48.2110 -48.2110 -48.2110 -48.2110 -48.2110 -48.2110 -48.2110
   -48.2110 -48.2110 -48.2110 -48.2110 -48.2110 -48.2110 -48.2110 -48.2110
   -48.2110 -48.2110 -48.2110 -48.2110 -48.2110 -48.2110 -48.2110 -48.2110
   -48.2110 -48.2110 -48.2109 -48.2109 -48.2109 -48.2109 -48.2109 -48.2109
   -48.2109 -48.2109 -48.2109 -48.2109 -48.2109 -48.2109 -48.2109 -48.2109
   -48.2109 -48.2109 -48.2109 -48.2109 -48.2109 -48.2108 -48.2108 -48.2108
    -0.9806  -0.9769  -0.9700  -0.9700  -0.9682  -0.9669  -0.9658  -0.9658
    -0.9647  -0.9641  -0.9613  -0.9612  -0.9499  -0.9499  -0.9489  -0.9472
    -0.9450  -0.9450  -0.9439  -0.9426  -0.9426  -0.9378  -0.9378  -0.9319
    -0.9319  -0.9305  -0.9305  -0.9286  -0.9286  -0.9250  -0.9250  -0.9213
    -0.9213  -0.9212  -0.9212  -0.9211  -0.9211  -0.9204  -0.9103  -0.9053
    -0.9053  -0.9048  -0.9045  -0.9044  -0.9044  -0.9035  -0.9035  -0.9022
    -0.9022  -0.9021  -0.9014  -0.9009  -0.9009  -0.8974  -0.8974  -0.8967
    -0.8967  -0.8953  -0.8950  -0.8950  -0.8940  -0.8931  -0.8926  -0.8926
    -0.8924  -0.8916  -0.8916  -0.8904  -0.8881  -0.8881  -0.8843  -0.8843
    -0.8834  -0.8834  -0.8828  -0.8828  -0.8822  -0.8794  -0.8791  -0.8791
    -0.8789  -0.8784  -0.8784  -0.8777  -0.8777  -0.8774  -0.8774  -0.8773
    -0.8738  -0.8737  -0.8689  -0.8689  -0.8524  -0.8524  -0.8522  -0.8522
    -0.8483  -0.8424  -0.8424  -0.8419  -0.8419  -0.8400  -0.8396  -0.8396
    -0.8353  -0.8353  -0.8341  -0.8340  -0.8340  -0.8334  -0.8334  -0.8324
    -0.8324  -0.8274  -0.8274  -0.8242  -0.8242  -0.8232  -0.8215  -0.8215
    -0.8209  -0.8209  -0.8194  -0.8185  -0.8181  -0.8181  -0.8153  -0.8153
    -0.8125  -0.8125  -0.8124  -0.8124  -0.8102  -0.8102  -0.8101  -0.8100
    -0.8100  -0.8083  -0.8083  -0.8077  -0.8077  -0.8073  -0.8056  -0.8044
    -0.8035  -0.8028  -0.8028  -0.8026  -0.8009  -0.8004  -0.8004  -0.7942
    -0.7942  -0.7941  -0.7941  -0.7938  -0.7924  -0.7868  -0.7813  -0.7813
    -0.7813  -0.7813  -0.3235  -0.3235  -0.1726  -0.1726  -0.1701  -0.1700
    -0.0239  -0.0239   0.2493   0.2684   0.3655   0.3718   0.3719   0.4689
     0.4689   0.4829   0.5535   0.6730   0.7163   0.7163   0.8010   0.8010
     0.9714   0.9714   1.0166   1.0166   1.1444   1.1444   1.1609   1.1609
     2.4228   2.5100   2.5100   2.6174   2.7887   2.7987   2.7987   2.9026
     2.9026   2.9884   2.9884   3.0308   3.2164   3.2165   3.2421   3.2422
     3.2545   3.2546   3.2546   3.2656   3.2657   3.5878   3.5878   3.7431
     3.7432   3.7640

          k = 0.0297 0.0297-0.2676 (196722 PWs)   bands (ev):

   -82.3777 -82.3774 -82.3774 -82.3774 -82.3774 -82.3774 -82.3774 -82.3774
   -82.3774 -82.3774 -82.3774 -82.3774 -82.3774 -82.3774 -82.3774 -82.3774
   -82.3774 -82.3774 -82.3774 -82.3774 -82.3774 -82.3774 -82.3774 -82.3774
   -82.3774 -82.3774 -82.3774 -82.3774 -82.3773 -82.3773 -82.3773 -82.3772
   -48.2112 -48.2112 -48.2112 -48.2111 -48.2111 -48.2111 -48.2111 -48.2111
   -48.2111 -48.2111 -48.2111 -48.2111 -48.2111 -48.2110 -48.2110 -48.2110
   -48.2110 -48.2110 -48.2110 -48.2110 -48.2110 -48.2110 -48.2110 -48.2110
   -48.2110 -48.2110 -48.2110 -48.2110 -48.2110 -48.2110 -48.2110 -48.2110
   -48.2110 -48.2110 -48.2110 -48.2110 -48.2110 -48.2110 -48.2110 -48.2110
   -48.2110 -48.2110 -48.2110 -48.2110 -48.2110 -48.2110 -48.2110 -48.2110
   -48.2110 -48.2110 -48.2110 -48.2110 -48.2110 -48.2110 -48.2110 -48.2110
   -48.2110 -48.2110 -48.2110 -48.2110 -48.2110 -48.2110 -48.2110 -48.2110
   -48.2110 -48.2110 -48.2110 -48.2110 -48.2110 -48.2110 -48.2110 -48.2110
   -48.2110 -48.2109 -48.2109 -48.2109 -48.2109 -48.2109 -48.2109 -48.2109
   -48.2109 -48.2109 -48.2109 -48.2109 -48.2109 -48.2109 -48.2109 -48.2109
   -48.2109 -48.2109 -48.2109 -48.2109 -48.2109 -48.2108 -48.2108 -48.2108
    -0.9723  -0.9723  -0.9608  -0.9608  -0.9608  -0.9608  -0.9585  -0.9585
    -0.9575  -0.9575  -0.9560  -0.9560  -0.9560  -0.9560  -0.9543  -0.9543
    -0.9524  -0.9524  -0.9524  -0.9524  -0.9319  -0.9319  -0.9319  -0.9319
    -0.9299  -0.9299  -0.9299  -0.9299  -0.9268  -0.9268  -0.9268  -0.9268
    -0.9255  -0.9255  -0.9209  -0.9209  -0.9209  -0.9209  -0.9146  -0.9146
    -0.9050  -0.9050  -0.9040  -0.9040  -0.9040  -0.9040  -0.9017  -0.9017
    -0.9017  -0.9017  -0.9017  -0.9017  -0.8984  -0.8984  -0.8984  -0.8984
    -0.8899  -0.8899  -0.8899  -0.8899  -0.8892  -0.8892  -0.8892  -0.8892
    -0.8887  -0.8887  -0.8869  -0.8869  -0.8858  -0.8858  -0.8858  -0.8858
    -0.8854  -0.8854  -0.8850  -0.8850  -0.8850  -0.8850  -0.8843  -0.8843
    -0.8818  -0.8817  -0.8817  -0.8817  -0.8795  -0.8795  -0.8795  -0.8795
    -0.8795  -0.8795  -0.8795  -0.8795  -0.8525  -0.8525  -0.8525  -0.8525
    -0.8422  -0.8422  -0.8422  -0.8422  -0.8393  -0.8393  -0.8373  -0.8373
    -0.8370  -0.8370  -0.8370  -0.8370  -0.8327  -0.8327  -0.8327  -0.8327
    -0.8234  -0.8234  -0.8234  -0.8234  -0.8183  -0.8183  -0.8183  -0.8183
    -0.8176  -0.8176  -0.8176  -0.8176  -0.8157  -0.8157  -0.8157  -0.8157
    -0.8146  -0.8146  -0.8120  -0.8120  -0.8113  -0.8113  -0.8113  -0.8113
    -0.8102  -0.8102  -0.8065  -0.8064  -0.8062  -0.8062  -0.8058  -0.8058
    -0.8058  -0.8058  -0.8017  -0.8017  -0.8017  -0.8017  -0.8017  -0.8017
    -0.8017  -0.8017  -0.8013  -0.8013  -0.7986  -0.7986  -0.7813  -0.7813
    -0.7813  -0.7813  -0.2542  -0.2542  -0.2542  -0.2542  -0.1054  -0.1054
    -0.1054  -0.1054   0.3034   0.3035   0.4182   0.4183   0.4183   0.4183
     0.4699   0.4700   0.5186   0.5186   0.8509   0.8509   0.8509   0.8509
     0.9166   0.9167   0.9167   0.9167   1.1525   1.1525   1.1525   1.1526
     2.5901   2.5902   2.6934   2.6935   2.6935   2.6936   2.8132   2.8133
     2.8838   2.8838   2.8839   2.8839   3.2178   3.2179   3.2179   3.2180
     3.2373   3.2373   3.2374   3.2375   3.5399   3.5400   3.6651   3.6651
     3.6652   3.6654

          k = 0.0297 0.0892 0.0892 (196746 PWs)   bands (ev):

   -82.3777 -82.3774 -82.3774 -82.3774 -82.3774 -82.3774 -82.3774 -82.3774
   -82.3774 -82.3774 -82.3774 -82.3774 -82.3774 -82.3774 -82.3774 -82.3774
   -82.3774 -82.3774 -82.3774 -82.3774 -82.3774 -82.3774 -82.3774 -82.3774
   -82.3774 -82.3774 -82.3774 -82.3774 -82.3773 -82.3773 -82.3773 -82.3772
   -48.2112 -48.2112 -48.2112 -48.2111 -48.2111 -48.2111 -48.2111 -48.2111
   -48.2111 -48.2111 -48.2110 -48.2110 -48.2110 -48.2110 -48.2110 -48.2110
   -48.2110 -48.2110 -48.2110 -48.2110 -48.2110 -48.2110 -48.2110 -48.2110
   -48.2110 -48.2110 -48.2110 -48.2110 -48.2110 -48.2110 -48.2110 -48.2110
   -48.2110 -48.2110 -48.2110 -48.2110 -48.2110 -48.2110 -48.2110 -48.2110
   -48.2110 -48.2110 -48.2110 -48.2110 -48.2110 -48.2110 -48.2110 -48.2110
   -48.2110 -48.2110 -48.2110 -48.2110 -48.2110 -48.2110 -48.2110 -48.2110
   -48.2110 -48.2110 -48.2110 -48.2110 -48.2110 -48.2110 -48.2110 -48.2110
   -48.2110 -48.2110 -48.2110 -48.2110 -48.2110 -48.2110 -48.2110 -48.2110
   -48.2110 -48.2110 -48.2110 -48.2110 -48.2109 -48.2109 -48.2109 -48.2109
   -48.2109 -48.2109 -48.2109 -48.2109 -48.2109 -48.2109 -48.2109 -48.2109
   -48.2109 -48.2109 -48.2109 -48.2109 -48.2109 -48.2108 -48.2108 -48.2108
    -1.0472  -0.9805  -0.9805  -0.9803  -0.9792  -0.9771  -0.9750  -0.9750
    -0.9716  -0.9716  -0.9702  -0.9524  -0.9524  -0.9448  -0.9382  -0.9335
    -0.9327  -0.9327  -0.9319  -0.9319  -0.9299  -0.9299  -0.9276  -0.9276
    -0.9268  -0.9268  -0.9243  -0.9243  -0.9243  -0.9243  -0.9243  -0.9243
    -0.9230  -0.9230  -0.9178  -0.9178  -0.9141  -0.9137  -0.9137  -0.9135
    -0.9126  -0.9126  -0.9090  -0.9090  -0.9060  -0.9053  -0.9053  -0.9043
    -0.9040  -0.9040  -0.9038  -0.9038  -0.9033  -0.9030  -0.9030  -0.9025
    -0.9024  -0.9024  -0.9010  -0.9007  -0.8996  -0.8993  -0.8979  -0.8971
    -0.8971  -0.8968  -0.8968  -0.8966  -0.8966  -0.8836  -0.8834  -0.8834
    -0.8746  -0.8746  -0.8699  -0.8699  -0.8693  -0.8693  -0.8688  -0.8688
    -0.8678  -0.8678  -0.8675  -0.8675  -0.8646  -0.8646  -0.8633  -0.8618
    -0.8618  -0.8598  -0.8598  -0.8593  -0.8582  -0.8563  -0.8520  -0.8506
    -0.8483  -0.8473  -0.8457  -0.8455  -0.8455  -0.8437  -0.8436  -0.8436
    -0.8433  -0.8433  -0.8423  -0.8423  -0.8404  -0.8377  -0.8377  -0.8346
    -0.8346  -0.8339  -0.8339  -0.8310  -0.8310  -0.8309  -0.8309  -0.8306
    -0.8306  -0.8292  -0.8292  -0.8263  -0.8263  -0.8256  -0.8256  -0.8244
    -0.8244  -0.8219  -0.8209  -0.8209  -0.8208  -0.8208  -0.8189  -0.8136
    -0.8112  -0.8112  -0.8017  -0.8011  -0.8011  -0.8008  -0.8005  -0.8005
    -0.7997  -0.7959  -0.7941  -0.7941  -0.7939  -0.7878  -0.7872  -0.7872
    -0.7855  -0.7855  -0.7836  -0.7836  -0.7835  -0.7835  -0.7833  -0.7833
    -0.7828  -0.5511  -0.5511  -0.3951  -0.2420  -0.0912  -0.0912  -0.0880
     0.0550   0.0550   0.1920   0.1920   0.3239   0.3239   0.4184   0.4439
     0.4439   0.5059   0.5550   0.5550   0.6022   0.6023   0.6619   1.0353
     1.0353   1.1172   1.1172   1.1276   1.1277   1.1343   1.1544   1.1544
     2.2400   2.2400   2.3393   2.4300   2.7121   2.8075   2.8075   3.1356
     3.1357   3.2373   3.2373   3.2403   3.2403   3.2425   3.2584   3.2584
     3.2629   3.2629   3.4946   3.4948   3.5307   3.5308   3.6308   3.6318
     3.6427   3.6430

          k = 0.0297 0.0892 0.1487 (196766 PWs)   bands (ev):

   -82.3777 -82.3774 -82.3774 -82.3774 -82.3774 -82.3774 -82.3774 -82.3774
   -82.3774 -82.3774 -82.3774 -82.3774 -82.3774 -82.3774 -82.3774 -82.3774
   -82.3774 -82.3774 -82.3774 -82.3774 -82.3774 -82.3774 -82.3774 -82.3774
   -82.3774 -82.3774 -82.3774 -82.3774 -82.3773 -82.3773 -82.3773 -82.3772
   -48.2112 -48.2112 -48.2112 -48.2111 -48.2111 -48.2111 -48.2111 -48.2111
   -48.2111 -48.2111 -48.2111 -48.2111 -48.2111 -48.2110 -48.2110 -48.2110
   -48.2110 -48.2110 -48.2110 -48.2110 -48.2110 -48.2110 -48.2110 -48.2110
   -48.2110 -48.2110 -48.2110 -48.2110 -48.2110 -48.2110 -48.2110 -48.2110
   -48.2110 -48.2110 -48.2110 -48.2110 -48.2110 -48.2110 -48.2110 -48.2110
   -48.2110 -48.2110 -48.2110 -48.2110 -48.2110 -48.2110 -48.2110 -48.2110
   -48.2110 -48.2110 -48.2110 -48.2110 -48.2110 -48.2110 -48.2110 -48.2110
   -48.2110 -48.2110 -48.2110 -48.2110 -48.2110 -48.2110 -48.2110 -48.2110
   -48.2110 -48.2110 -48.2110 -48.2110 -48.2110 -48.2110 -48.2110 -48.2110
   -48.2110 -48.2110 -48.2110 -48.2110 -48.2110 -48.2109 -48.2109 -48.2109
   -48.2109 -48.2109 -48.2109 -48.2109 -48.2109 -48.2109 -48.2109 -48.2109
   -48.2109 -48.2109 -48.2109 -48.2109 -48.2109 -48.2108 -48.2108 -48.2108
    -1.0140  -0.9781  -0.9769  -0.9758  -0.9752  -0.9725  -0.9693  -0.9687
    -0.9677  -0.9665  -0.9640  -0.9589  -0.9489  -0.9433  -0.9429  -0.9372
    -0.9370  -0.9370  -0.9369  -0.9363  -0.9362  -0.9345  -0.9342  -0.9317
    -0.9309  -0.9305  -0.9295  -0.9258  -0.9256  -0.9255  -0.9255  -0.9251
    -0.9239  -0.9231  -0.9226  -0.9221  -0.9201  -0.9169  -0.9152  -0.9131
    -0.9113  -0.9084  -0.9068  -0.9060  -0.9059  -0.9053  -0.9051  -0.9051
    -0.9049  -0.9043  -0.9042  -0.9042  -0.9026  -0.9026  -0.9025  -0.9017
    -0.9013  -0.9010  -0.9006  -0.8981  -0.8979  -0.8974  -0.8961  -0.8953
    -0.8950  -0.8926  -0.8924  -0.8923  -0.8912  -0.8814  -0.8809  -0.8798
    -0.8790  -0.8788  -0.8762  -0.8759  -0.8757  -0.8736  -0.8735  -0.8727
    -0.8716  -0.8712  -0.8680  -0.8675  -0.8674  -0.8665  -0.8659  -0.8657
    -0.8657  -0.8621  -0.8603  -0.8578  -0.8575  -0.8569  -0.8537  -0.8505
    -0.8502  -0.8482  -0.8480  -0.8473  -0.8466  -0.8466  -0.8457  -0.8423
    -0.8411  -0.8391  -0.8383  -0.8382  -0.8377  -0.8356  -0.8351  -0.8340
    -0.8329  -0.8322  -0.8309  -0.8301  -0.8296  -0.8283  -0.8276  -0.8260
    -0.8255  -0.8254  -0.8229  -0.8224  -0.8215  -0.8203  -0.8196  -0.8186
    -0.8172  -0.8161  -0.8161  -0.8143  -0.8141  -0.8139  -0.8136  -0.8116
    -0.8097  -0.8072  -0.8066  -0.8063  -0.8060  -0.8048  -0.8046  -0.8039
    -0.8030  -0.7978  -0.7954  -0.7950  -0.7950  -0.7945  -0.7933  -0.7904
    -0.7893  -0.7892  -0.7881  -0.7878  -0.7869  -0.7837  -0.7835  -0.7834
    -0.7833  -0.6708  -0.5137  -0.3589  -0.2069  -0.2022  -0.0574  -0.0553
     0.0865   0.0867   0.0906   0.2215   0.2239   0.3391   0.4440   0.4662
     0.4769   0.5715   0.5834   0.5920   0.6246   0.6804   0.7755   0.8748
     1.0405   1.0452   1.0537   1.0701   1.1116   1.1149   1.1382   1.1553
     2.2833   2.3167   2.4694   2.5788   2.7555   2.8424   2.9171   3.0077
     3.0211   3.0701   3.1288   3.1351   3.1560   3.1608   3.1613   3.2012
     3.2286   3.2726   3.2759   3.4174   3.4222   3.5156   3.6570   3.6683
     3.7304   3.7312

          k = 0.0297 0.0892 0.2081 (196739 PWs)   bands (ev):

   -82.3777 -82.3774 -82.3774 -82.3774 -82.3774 -82.3774 -82.3774 -82.3774
   -82.3774 -82.3774 -82.3774 -82.3774 -82.3774 -82.3774 -82.3774 -82.3774
   -82.3774 -82.3774 -82.3774 -82.3774 -82.3774 -82.3774 -82.3774 -82.3774
   -82.3774 -82.3774 -82.3774 -82.3774 -82.3773 -82.3773 -82.3773 -82.3772
   -48.2112 -48.2112 -48.2112 -48.2111 -48.2111 -48.2111 -48.2111 -48.2111
   -48.2111 -48.2111 -48.2111 -48.2110 -48.2110 -48.2110 -48.2110 -48.2110
   -48.2110 -48.2110 -48.2110 -48.2110 -48.2110 -48.2110 -48.2110 -48.2110
   -48.2110 -48.2110 -48.2110 -48.2110 -48.2110 -48.2110 -48.2110 -48.2110
   -48.2110 -48.2110 -48.2110 -48.2110 -48.2110 -48.2110 -48.2110 -48.2110
   -48.2110 -48.2110 -48.2110 -48.2110 -48.2110 -48.2110 -48.2110 -48.2110
   -48.2110 -48.2110 -48.2110 -48.2110 -48.2110 -48.2110 -48.2110 -48.2110
   -48.2110 -48.2110 -48.2110 -48.2110 -48.2110 -48.2110 -48.2110 -48.2110
   -48.2110 -48.2110 -48.2110 -48.2110 -48.2110 -48.2110 -48.2110 -48.2110
   -48.2110 -48.2110 -48.2110 -48.2109 -48.2109 -48.2109 -48.2109 -48.2109
   -48.2109 -48.2109 -48.2109 -48.2109 -48.2109 -48.2109 -48.2109 -48.2109
   -48.2109 -48.2109 -48.2109 -48.2109 -48.2109 -48.2108 -48.2108 -48.2108
    -0.9746  -0.9713  -0.9689  -0.9685  -0.9677  -0.9655  -0.9649  -0.9621
    -0.9615  -0.9606  -0.9594  -0.9557  -0.9540  -0.9488  -0.9484  -0.9464
    -0.9457  -0.9438  -0.9420  -0.9417  -0.9410  -0.9399  -0.9392  -0.9386
    -0.9351  -0.9348  -0.9307  -0.9305  -0.9291  -0.9284  -0.9277  -0.9262
    -0.9216  -0.9214  -0.9209  -0.9199  -0.9182  -0.9156  -0.9156  -0.9142
    -0.9132  -0.9091  -0.9081  -0.9080  -0.9074  -0.9062  -0.9060  -0.9058
    -0.9036  -0.9028  -0.9023  -0.9019  -0.9005  -0.9002  -0.9002  -0.8998
    -0.8970  -0.8968  -0.8968  -0.8965  -0.8962  -0.8940  -0.8932  -0.8919
    -0.8908  -0.8885  -0.8874  -0.8869  -0.8868  -0.8839  -0.8831  -0.8812
    -0.8811  -0.8804  -0.8797  -0.8790  -0.8784  -0.8776  -0.8774  -0.8772
    -0.8764  -0.8753  -0.8752  -0.8740  -0.8731  -0.8710  -0.8701  -0.8698
    -0.8684  -0.8683  -0.8647  -0.8624  -0.8607  -0.8600  -0.8578  -0.8551
    -0.8484  -0.8481  -0.8477  -0.8437  -0.8410  -0.8397  -0.8385  -0.8379
    -0.8371  -0.8347  -0.8343  -0.8342  -0.8340  -0.8339  -0.8323  -0.8313
    -0.8310  -0.8302  -0.8286  -0.8269  -0.8269  -0.8268  -0.8263  -0.8217
    -0.8198  -0.8192  -0.8170  -0.8164  -0.8156  -0.8155  -0.8142  -0.8141
    -0.8135  -0.8124  -0.8124  -0.8112  -0.8109  -0.8107  -0.8102  -0.8099
    -0.8090  -0.8088  -0.8086  -0.8080  -0.8073  -0.8070  -0.8070  -0.8070
    -0.8042  -0.8015  -0.8015  -0.8007  -0.7983  -0.7979  -0.7975  -0.7954
    -0.7944  -0.7943  -0.7942  -0.7939  -0.7917  -0.7837  -0.7836  -0.7834
    -0.7833  -0.7688  -0.4591  -0.3058  -0.3026  -0.1554  -0.1530  -0.0078
    -0.0075   0.1330   0.1341   0.2621   0.2642   0.2833   0.3793   0.4968
     0.5660   0.5924   0.6261   0.6317   0.6840   0.7205   0.8001   0.8822
     0.9221   0.9625   0.9998   1.0553   1.0591   1.0938   1.1433   1.1529
     2.3807   2.4422   2.6352   2.7079   2.7582   2.8044   2.8199   2.8940
     3.0080   3.0378   3.0420   3.0448   3.0843   3.1021   3.1023   3.1846
     3.1927   3.2392   3.2562   3.2580   3.3364   3.4805   3.6168   3.8019
     3.8167   3.8244

          k = 0.0297 0.0892-0.2676 (196806 PWs)   bands (ev):

   -82.3777 -82.3774 -82.3774 -82.3774 -82.3774 -82.3774 -82.3774 -82.3774
   -82.3774 -82.3774 -82.3774 -82.3774 -82.3774 -82.3774 -82.3774 -82.3774
   -82.3774 -82.3774 -82.3774 -82.3774 -82.3774 -82.3774 -82.3774 -82.3774
   -82.3774 -82.3774 -82.3774 -82.3774 -82.3773 -82.3773 -82.3773 -82.3772
   -48.2112 -48.2112 -48.2112 -48.2111 -48.2111 -48.2111 -48.2111 -48.2111
   -48.2111 -48.2111 -48.2111 -48.2111 -48.2111 -48.2110 -48.2110 -48.2110
   -48.2110 -48.2110 -48.2110 -48.2110 -48.2110 -48.2110 -48.2110 -48.2110
   -48.2110 -48.2110 -48.2110 -48.2110 -48.2110 -48.2110 -48.2110 -48.2110
   -48.2110 -48.2110 -48.2110 -48.2110 -48.2110 -48.2110 -48.2110 -48.2110
   -48.2110 -48.2110 -48.2110 -48.2110 -48.2110 -48.2110 -48.2110 -48.2110
   -48.2110 -48.2110 -48.2110 -48.2110 -48.2110 -48.2110 -48.2110 -48.2110
   -48.2110 -48.2110 -48.2110 -48.2110 -48.2110 -48.2110 -48.2110 -48.2110
   -48.2110 -48.2110 -48.2110 -48.2110 -48.2110 -48.2110 -48.2110 -48.2110
   -48.2110 -48.2110 -48.2110 -48.2110 -48.2110 -48.2110 -48.2109 -48.2109
   -48.2109 -48.2109 -48.2109 -48.2109 -48.2109 -48.2109 -48.2109 -48.2109
   -48.2109 -48.2109 -48.2109 -48.2109 -48.2109 -48.2108 -48.2108 -48.2108
    -0.9702  -0.9702  -0.9636  -0.9636  -0.9598  -0.9598  -0.9594  -0.9594
    -0.9565  -0.9565  -0.9549  -0.9549  -0.9520  -0.9520  -0.9513  -0.9513
    -0.9506  -0.9506  -0.9459  -0.9459  -0.9397  -0.9397  -0.9371  -0.9371
    -0.9356  -0.9356  -0.9318  -0.9318  -0.9295  -0.9295  -0.9231  -0.9231
    -0.9222  -0.9222  -0.9202  -0.9202  -0.9178  -0.9178  -0.9142  -0.9142
    -0.9117  -0.9117  -0.9092  -0.9092  -0.9083  -0.9083  -0.9070  -0.9070
    -0.9067  -0.9067  -0.9032  -0.9031  -0.9002  -0.9002  -0.8985  -0.8985
    -0.8963  -0.8963  -0.8934  -0.8933  -0.8904  -0.8904  -0.8891  -0.8891
    -0.8882  -0.8882  -0.8871  -0.8871  -0.8853  -0.8853  -0.8810  -0.8810
    -0.8804  -0.8804  -0.8803  -0.8803  -0.8798  -0.8798  -0.8794  -0.8794
    -0.8781  -0.8781  -0.8771  -0.8771  -0.8740  -0.8740  -0.8719  -0.8719
    -0.8700  -0.8700  -0.8692  -0.8692  -0.8622  -0.8622  -0.8573  -0.8573
    -0.8485  -0.8485  -0.8401  -0.8401  -0.8393  -0.8393  -0.8371  -0.8371
    -0.8362  -0.8362  -0.8318  -0.8318  -0.8298  -0.8298  -0.8297  -0.8297
    -0.8259  -0.8259  -0.8238  -0.8238  -0.8223  -0.8223  -0.8215  -0.8215
    -0.8200  -0.8200  -0.8191  -0.8191  -0.8186  -0.8186  -0.8185  -0.8185
    -0.8126  -0.8126  -0.8126  -0.8126  -0.8126  -0.8125  -0.8125  -0.8125
    -0.8082  -0.8082  -0.8070  -0.8070  -0.8026  -0.8026  -0.8025  -0.8025
    -0.8023  -0.8023  -0.8016  -0.8016  -0.8015  -0.8014  -0.8014  -0.8014
    -0.8006  -0.8006  -0.8004  -0.8004  -0.7967  -0.7967  -0.7837  -0.7837
    -0.7834  -0.7834  -0.3885  -0.3885  -0.2369  -0.2368  -0.0885  -0.0885
     0.0564   0.0565   0.1923   0.1923   0.3178   0.3178   0.4831   0.4831
     0.5318   0.5319   0.6128   0.6129   0.7826   0.7827   0.8492   0.8492
     0.9084   0.9085   0.9768   0.9769   1.0758   1.0758   1.1485   1.1486
     2.5254   2.5255   2.6078   2.6079   2.8293   2.8294   2.9044   2.9044
     2.9610   2.9610   2.9621   2.9622   3.0421   3.0422   3.0830   3.0831
     3.2161   3.2163   3.2749   3.2750   3.5278   3.5278   3.5302   3.5302
     3.8856   3.8856

          k = 0.0297 0.1487 0.1487 (196742 PWs)   bands (ev):

   -82.3777 -82.3774 -82.3774 -82.3774 -82.3774 -82.3774 -82.3774 -82.3774
   -82.3774 -82.3774 -82.3774 -82.3774 -82.3774 -82.3774 -82.3774 -82.3774
   -82.3774 -82.3774 -82.3774 -82.3774 -82.3774 -82.3774 -82.3774 -82.3774
   -82.3774 -82.3774 -82.3774 -82.3774 -82.3773 -82.3773 -82.3773 -82.3772
   -48.2112 -48.2112 -48.2112 -48.2111 -48.2111 -48.2111 -48.2111 -48.2111
   -48.2111 -48.2111 -48.2111 -48.2110 -48.2110 -48.2110 -48.2110 -48.2110
   -48.2110 -48.2110 -48.2110 -48.2110 -48.2110 -48.2110 -48.2110 -48.2110
   -48.2110 -48.2110 -48.2110 -48.2110 -48.2110 -48.2110 -48.2110 -48.2110
   -48.2110 -48.2110 -48.2110 -48.2110 -48.2110 -48.2110 -48.2110 -48.2110
   -48.2110 -48.2110 -48.2110 -48.2110 -48.2110 -48.2110 -48.2110 -48.2110
   -48.2110 -48.2110 -48.2110 -48.2110 -48.2110 -48.2110 -48.2110 -48.2110
   -48.2110 -48.2110 -48.2110 -48.2110 -48.2110 -48.2110 -48.2110 -48.2110
   -48.2110 -48.2110 -48.2110 -48.2110 -48.2110 -48.2110 -48.2110 -48.2110
   -48.2110 -48.2110 -48.2109 -48.2109 -48.2109 -48.2109 -48.2109 -48.2109
   -48.2109 -48.2109 -48.2109 -48.2109 -48.2109 -48.2109 -48.2109 -48.2109
   -48.2109 -48.2109 -48.2109 -48.2109 -48.2109 -48.2108 -48.2108 -48.2108
    -0.9840  -0.9750  -0.9735  -0.9735  -0.9721  -0.9691  -0.9630  -0.9630
    -0.9627  -0.9627  -0.9567  -0.9551  -0.9551  -0.9467  -0.9467  -0.9432
    -0.9428  -0.9382  -0.9372  -0.9372  -0.9359  -0.9359  -0.9348  -0.9348
    -0.9337  -0.9337  -0.9321  -0.9321  -0.9285  -0.9285  -0.9281  -0.9281
    -0.9238  -0.9238  -0.9236  -0.9236  -0.9231  -0.9231  -0.9153  -0.9151
    -0.9151  -0.9101  -0.9101  -0.9076  -0.9076  -0.9074  -0.9074  -0.9068
    -0.9068  -0.9058  -0.9034  -0.9034  -0.9033  -0.9030  -0.9023  -0.9018
    -0.9018  -0.9002  -0.8994  -0.8994  -0.8967  -0.8952  -0.8929  -0.8924
    -0.8899  -0.8899  -0.8894  -0.8877  -0.8877  -0.8816  -0.8816  -0.8789
    -0.8789  -0.8771  -0.8762  -0.8762  -0.8745  -0.8745  -0.8732  -0.8732
    -0.8715  -0.8715  -0.8686  -0.8673  -0.8652  -0.8639  -0.8634  -0.8634
    -0.8603  -0.8603  -0.8593  -0.8593  -0.8587  -0.8581  -0.8563  -0.8513
    -0.8513  -0.8483  -0.8460  -0.8460  -0.8443  -0.8443  -0.8441  -0.8441
    -0.8428  -0.8425  -0.8425  -0.8419  -0.8407  -0.8389  -0.8389  -0.8366
    -0.8366  -0.8307  -0.8307  -0.8273  -0.8273  -0.8248  -0.8248  -0.8206
    -0.8206  -0.8206  -0.8206  -0.8180  -0.8180  -0.8162  -0.8162  -0.8142
    -0.8138  -0.8124  -0.8123  -0.8123  -0.8119  -0.8119  -0.8107  -0.8091
    -0.8091  -0.8087  -0.8087  -0.8084  -0.8079  -0.8079  -0.8067  -0.8050
    -0.8050  -0.7992  -0.7983  -0.7950  -0.7950  -0.7949  -0.7946  -0.7946
    -0.7916  -0.7916  -0.7881  -0.7881  -0.7877  -0.7877  -0.7871  -0.7871
    -0.7858  -0.6331  -0.6331  -0.3233  -0.3187  -0.1722  -0.0224  -0.0224
     0.1178   0.1179   0.1224   0.1224   0.2483   0.3662   0.3851   0.3851
     0.5991   0.5991   0.6473   0.6473   0.6881   0.6881   0.8704   0.8910
     0.8910   1.0078   1.0078   1.0190   1.0190   1.1283   1.1283   1.1395
     2.3256   2.3256   2.6156   2.7396   2.7984   2.8595   2.8596   2.9447
     2.9448   3.0283   3.0284   3.0312   3.0312   3.1612   3.1612   3.1803
     3.1803   3.1828   3.4386   3.4387   3.5372   3.5379   3.5941   3.5968
     3.6005   3.6018

          k = 0.0297 0.1487 0.2081 (196793 PWs)   bands (ev):

   -82.3777 -82.3774 -82.3774 -82.3774 -82.3774 -82.3774 -82.3774 -82.3774
   -82.3774 -82.3774 -82.3774 -82.3774 -82.3774 -82.3774 -82.3774 -82.3774
   -82.3774 -82.3774 -82.3774 -82.3774 -82.3774 -82.3774 -82.3774 -82.3774
   -82.3774 -82.3774 -82.3774 -82.3774 -82.3773 -82.3773 -82.3773 -82.3772
   -48.2112 -48.2112 -48.2112 -48.2111 -48.2111 -48.2111 -48.2111 -48.2111
   -48.2111 -48.2111 -48.2111 -48.2110 -48.2110 -48.2110 -48.2110 -48.2110
   -48.2110 -48.2110 -48.2110 -48.2110 -48.2110 -48.2110 -48.2110 -48.2110
   -48.2110 -48.2110 -48.2110 -48.2110 -48.2110 -48.2110 -48.2110 -48.2110
   -48.2110 -48.2110 -48.2110 -48.2110 -48.2110 -48.2110 -48.2110 -48.2110
   -48.2110 -48.2110 -48.2110 -48.2110 -48.2110 -48.2110 -48.2110 -48.2110
   -48.2110 -48.2110 -48.2110 -48.2110 -48.2110 -48.2110 -48.2110 -48.2110
   -48.2110 -48.2110 -48.2110 -48.2110 -48.2110 -48.2110 -48.2110 -48.2110
   -48.2110 -48.2110 -48.2110 -48.2110 -48.2110 -48.2110 -48.2110 -48.2110
   -48.2110 -48.2110 -48.2110 -48.2110 -48.2110 -48.2110 -48.2109 -48.2109
   -48.2109 -48.2109 -48.2109 -48.2109 -48.2109 -48.2109 -48.2109 -48.2109
   -48.2109 -48.2109 -48.2109 -48.2109 -48.2109 -48.2108 -48.2108 -48.2108
    -0.9710  -0.9702  -0.9667  -0.9665  -0.9634  -0.9608  -0.9571  -0.9565
    -0.9556  -0.9556  -0.9553  -0.9495  -0.9485  -0.9485  -0.9476  -0.9469
    -0.9466  -0.9466  -0.9463  -0.9425  -0.9416  -0.9392  -0.9388  -0.9384
    -0.9381  -0.9377  -0.9373  -0.9333  -0.9322  -0.9318  -0.9262  -0.9262
    -0.9260  -0.9256  -0.9244  -0.9241  -0.9211  -0.9210  -0.9188  -0.9164
    -0.9138  -0.9136  -0.9129  -0.9109  -0.9106  -0.9085  -0.9083  -0.9080
    -0.9077  -0.9074  -0.9054  -0.9050  -0.9020  -0.9016  -0.9014  -0.8996
    -0.8989  -0.8986  -0.8975  -0.8974  -0.8960  -0.8935  -0.8929  -0.8919
    -0.8896  -0.8884  -0.8853  -0.8821  -0.8816  -0.8815  -0.8800  -0.8780
    -0.8778  -0.8776  -0.8756  -0.8755  -0.8751  -0.8737  -0.8730  -0.8728
    -0.8715  -0.8702  -0.8693  -0.8677  -0.8676  -0.8670  -0.8667  -0.8658
    -0.8645  -0.8622  -0.8617  -0.8597  -0.8569  -0.8565  -0.8529  -0.8528
    -0.8518  -0.8511  -0.8487  -0.8487  -0.8446  -0.8438  -0.8406  -0.8405
    -0.8393  -0.8390  -0.8381  -0.8366  -0.8360  -0.8358  -0.8356  -0.8353
    -0.8346  -0.8330  -0.8301  -0.8301  -0.8227  -0.8217  -0.8214  -0.8211
    -0.8202  -0.8198  -0.8192  -0.8190  -0.8186  -0.8181  -0.8150  -0.8147
    -0.8132  -0.8126  -0.8120  -0.8111  -0.8111  -0.8107  -0.8091  -0.8087
    -0.8077  -0.8071  -0.8068  -0.8057  -0.8052  -0.8036  -0.8036  -0.8030
    -0.8027  -0.8006  -0.8005  -0.7998  -0.7974  -0.7966  -0.7965  -0.7961
    -0.7949  -0.7948  -0.7940  -0.7937  -0.7920  -0.7880  -0.7875  -0.7872
    -0.7872  -0.7328  -0.5783  -0.4206  -0.2708  -0.1213  -0.1192   0.0250
     0.0261   0.1635   0.1637   0.1691   0.2906   0.3019   0.3125   0.5507
     0.6189   0.6498   0.6809   0.6948   0.7056   0.7270   0.7960   0.8712
     0.9140   0.9426   0.9560   0.9645   0.9743   1.0863   1.1362   1.1404
     2.3895   2.4209   2.6657   2.7408   2.7920   2.8400   2.8619   2.9033
     2.9269   2.9273   2.9438   3.0460   3.0577   3.1353   3.1923   3.1981
     3.2110   3.2442   3.2584   3.3609   3.4229   3.4812   3.4970   3.6224
     3.6637   3.7300

          k = 0.0297 0.1487-0.2676 (196868 PWs)   bands (ev):

   -82.3777 -82.3774 -82.3774 -82.3774 -82.3774 -82.3774 -82.3774 -82.3774
   -82.3774 -82.3774 -82.3774 -82.3774 -82.3774 -82.3774 -82.3774 -82.3774
   -82.3774 -82.3774 -82.3774 -82.3774 -82.3774 -82.3774 -82.3774 -82.3774
   -82.3774 -82.3774 -82.3774 -82.3774 -82.3773 -82.3773 -82.3773 -82.3772
   -48.2112 -48.2112 -48.2112 -48.2111 -48.2111 -48.2111 -48.2111 -48.2111
   -48.2111 -48.2111 -48.2111 -48.2111 -48.2111 -48.2110 -48.2110 -48.2110
   -48.2110 -48.2110 -48.2110 -48.2110 -48.2110 -48.2110 -48.2110 -48.2110
   -48.2110 -48.2110 -48.2110 -48.2110 -48.2110 -48.2110 -48.2110 -48.2110
   -48.2110 -48.2110 -48.2110 -48.2110 -48.2110 -48.2110 -48.2110 -48.2110
   -48.2110 -48.2110 -48.2110 -48.2110 -48.2110 -48.2110 -48.2110 -48.2110
   -48.2110 -48.2110 -48.2110 -48.2110 -48.2110 -48.2110 -48.2110 -48.2110
   -48.2110 -48.2110 -48.2110 -48.2110 -48.2110 -48.2110 -48.2110 -48.2110
   -48.2110 -48.2110 -48.2110 -48.2110 -48.2110 -48.2110 -48.2110 -48.2110
   -48.2110 -48.2110 -48.2110 -48.2110 -48.2110 -48.2110 -48.2110 -48.2109
   -48.2109 -48.2109 -48.2109 -48.2109 -48.2109 -48.2109 -48.2109 -48.2109
   -48.2109 -48.2109 -48.2109 -48.2109 -48.2109 -48.2108 -48.2108 -48.2108
    -0.9659  -0.9659  -0.9648  -0.9648  -0.9585  -0.9585  -0.9578  -0.9577
    -0.9556  -0.9556  -0.9500  -0.9500  -0.9485  -0.9485  -0.9471  -0.9471
    -0.9470  -0.9470  -0.9468  -0.9468  -0.9422  -0.9422  -0.9409  -0.9409
    -0.9387  -0.9387  -0.9371  -0.9371  -0.9293  -0.9292  -0.9292  -0.9292
    -0.9205  -0.9205  -0.9194  -0.9194  -0.9189  -0.9189  -0.9185  -0.9185
    -0.9179  -0.9179  -0.9174  -0.9174  -0.9100  -0.9100  -0.9090  -0.9090
    -0.9080  -0.9080  -0.9068  -0.9068  -0.9017  -0.9017  -0.8991  -0.8990
    -0.8981  -0.8981  -0.8953  -0.8953  -0.8949  -0.8949  -0.8916  -0.8916
    -0.8875  -0.8875  -0.8872  -0.8872  -0.8834  -0.8833  -0.8747  -0.8747
    -0.8747  -0.8747  -0.8745  -0.8745  -0.8726  -0.8726  -0.8723  -0.8723
    -0.8720  -0.8720  -0.8694  -0.8694  -0.8680  -0.8680  -0.8647  -0.8647
    -0.8637  -0.8636  -0.8608  -0.8608  -0.8603  -0.8603  -0.8554  -0.8554
    -0.8554  -0.8554  -0.8455  -0.8455  -0.8423  -0.8423  -0.8419  -0.8419
    -0.8366  -0.8366  -0.8338  -0.8337  -0.8307  -0.8307  -0.8305  -0.8305
    -0.8282  -0.8282  -0.8271  -0.8271  -0.8266  -0.8266  -0.8221  -0.8221
    -0.8217  -0.8217  -0.8209  -0.8209  -0.8187  -0.8187  -0.8153  -0.8153
    -0.8128  -0.8128  -0.8082  -0.8082  -0.8069  -0.8069  -0.8061  -0.8061
    -0.8054  -0.8054  -0.8047  -0.8047  -0.8030  -0.8030  -0.8010  -0.8010
    -0.8007  -0.8007  -0.8000  -0.8000  -0.7995  -0.7995  -0.7990  -0.7990
    -0.7987  -0.7987  -0.7986  -0.7986  -0.7965  -0.7965  -0.7878  -0.7878
    -0.7874  -0.7874  -0.5073  -0.5073  -0.2024  -0.2024  -0.0551  -0.0551
     0.0887   0.0887   0.2219   0.2219   0.2293   0.2294   0.5090   0.5091
     0.6379   0.6380   0.6947   0.6947   0.7153   0.7153   0.8436   0.8437
     0.8895   0.8896   0.9423   0.9424   1.0286   1.0287   1.1398   1.1398
     2.5053   2.5054   2.5624   2.5625   2.8622   2.8623   2.9016   2.9017
     2.9450   2.9450   2.9925   2.9926   3.0939   3.0940   3.1357   3.1358
     3.2109   3.2110   3.3251   3.3252   3.4432   3.4432   3.5097   3.5097
     3.7934   3.7936

          k = 0.0297 0.2081 0.2081 (196830 PWs)   bands (ev):

   -82.3777 -82.3774 -82.3774 -82.3774 -82.3774 -82.3774 -82.3774 -82.3774
   -82.3774 -82.3774 -82.3774 -82.3774 -82.3774 -82.3774 -82.3774 -82.3774
   -82.3774 -82.3774 -82.3774 -82.3774 -82.3774 -82.3774 -82.3774 -82.3774
   -82.3774 -82.3774 -82.3774 -82.3774 -82.3773 -82.3773 -82.3773 -82.3772
   -48.2112 -48.2112 -48.2112 -48.2111 -48.2111 -48.2111 -48.2111 -48.2111
   -48.2111 -48.2111 -48.2111 -48.2110 -48.2110 -48.2110 -48.2110 -48.2110
   -48.2110 -48.2110 -48.2110 -48.2110 -48.2110 -48.2110 -48.2110 -48.2110
   -48.2110 -48.2110 -48.2110 -48.2110 -48.2110 -48.2110 -48.2110 -48.2110
   -48.2110 -48.2110 -48.2110 -48.2110 -48.2110 -48.2110 -48.2110 -48.2110
   -48.2110 -48.2110 -48.2110 -48.2110 -48.2110 -48.2110 -48.2110 -48.2110
[...]
     0.3694   0.3694   0.3694   0.3695   0.6262   0.6262   0.6262   0.6263
     0.6263   0.6263   0.6263   0.6263   0.7611   0.7611   0.7611   0.7611
     0.7612   0.7612   0.7612   0.7612   0.9617   0.9617   0.9617   0.9618
     2.7370   2.7370   2.7370   2.7371   2.7371   2.7372   2.7373   2.7373
     2.9711   2.9711   2.9711   2.9712   3.1291   3.1291   3.1292   3.1293
     3.2612   3.2612   3.2613   3.2613   3.2613   3.2614   3.2614   3.2614
     3.9308   3.9312

          k = 0.2081 0.2081 0.2081 (196758 PWs)   bands (ev):

   -82.3777 -82.3774 -82.3774 -82.3774 -82.3774 -82.3774 -82.3774 -82.3774
   -82.3774 -82.3774 -82.3774 -82.3774 -82.3774 -82.3774 -82.3774 -82.3774
   -82.3774 -82.3774 -82.3774 -82.3774 -82.3774 -82.3774 -82.3774 -82.3774
   -82.3774 -82.3774 -82.3774 -82.3774 -82.3773 -82.3773 -82.3773 -82.3772
   -48.2112 -48.2112 -48.2112 -48.2111 -48.2111 -48.2111 -48.2111 -48.2111
   -48.2111 -48.2111 -48.2111 -48.2110 -48.2110 -48.2110 -48.2110 -48.2110
   -48.2110 -48.2110 -48.2110 -48.2110 -48.2110 -48.2110 -48.2110 -48.2110
   -48.2110 -48.2110 -48.2110 -48.2110 -48.2110 -48.2110 -48.2110 -48.2110
   -48.2110 -48.2110 -48.2110 -48.2110 -48.2110 -48.2110 -48.2110 -48.2110
   -48.2110 -48.2110 -48.2110 -48.2110 -48.2110 -48.2110 -48.2110 -48.2110
   -48.2110 -48.2110 -48.2110 -48.2110 -48.2110 -48.2110 -48.2110 -48.2110
   -48.2110 -48.2110 -48.2110 -48.2110 -48.2110 -48.2110 -48.2110 -48.2110
   -48.2110 -48.2110 -48.2110 -48.2110 -48.2110 -48.2110 -48.2110 -48.2110
   -48.2109 -48.2109 -48.2109 -48.2109 -48.2109 -48.2109 -48.2109 -48.2109
   -48.2109 -48.2109 -48.2109 -48.2109 -48.2109 -48.2109 -48.2109 -48.2109
   -48.2109 -48.2109 -48.2109 -48.2109 -48.2109 -48.2108 -48.2108 -48.2108
    -0.9626  -0.9626  -0.9626  -0.9618  -0.9553  -0.9553  -0.9553  -0.9526
    -0.9526  -0.9526  -0.9526  -0.9526  -0.9526  -0.9510  -0.9510  -0.9510
    -0.9503  -0.9503  -0.9503  -0.9496  -0.9496  -0.9496  -0.9482  -0.9482
    -0.9482  -0.9482  -0.9482  -0.9482  -0.9440  -0.9433  -0.9433  -0.9433
    -0.9289  -0.9289  -0.9289  -0.9165  -0.9165  -0.9165  -0.9109  -0.9109
    -0.9109  -0.9109  -0.9109  -0.9109  -0.9051  -0.9051  -0.9051  -0.9051
    -0.9051  -0.9051  -0.9026  -0.9026  -0.9026  -0.8991  -0.8991  -0.8991
    -0.8925  -0.8925  -0.8909  -0.8909  -0.8909  -0.8900  -0.8900  -0.8900
    -0.8899  -0.8899  -0.8880  -0.8880  -0.8880  -0.8859  -0.8859  -0.8859
    -0.8666  -0.8666  -0.8666  -0.8615  -0.8615  -0.8615  -0.8615  -0.8615
    -0.8615  -0.8514  -0.8514  -0.8514  -0.8507  -0.8507  -0.8507  -0.8507
    -0.8507  -0.8507  -0.8493  -0.8493  -0.8493  -0.8473  -0.8473  -0.8473
    -0.8441  -0.8440  -0.8440  -0.8425  -0.8425  -0.8425  -0.8425  -0.8425
    -0.8425  -0.8421  -0.8421  -0.8421  -0.8411  -0.8411  -0.8407  -0.8407
    -0.8407  -0.8368  -0.8368  -0.8368  -0.8324  -0.8324  -0.8324  -0.8324
    -0.8324  -0.8324  -0.8292  -0.8292  -0.8292  -0.8288  -0.8288  -0.8288
    -0.8268  -0.8268  -0.8268  -0.8260  -0.8260  -0.8260  -0.8208  -0.8208
    -0.7948  -0.7948  -0.7948  -0.7930  -0.7930  -0.7930  -0.7930  -0.7930
    -0.7930  -0.7917  -0.7917  -0.7917  -0.7917  -0.7917  -0.7917  -0.7917
    -0.7917  -0.7917  -0.7916  -0.7916  -0.7916  -0.7889  -0.7889  -0.7889
    -0.7337  -0.5762  -0.5762  -0.5762  -0.4191  -0.4191  -0.4191  -0.2646
     0.4357   0.4357   0.4358   0.5437   0.5437   0.5437   0.5437   0.5438
     0.5438   0.6252   0.6252   0.6252   0.7875   0.7875   0.7875   0.8465
     0.8465   0.8465   0.8465   0.8465   0.8465   0.8567   0.8567   0.8568
     2.7227   2.7227   2.7227   2.7585   2.7585   2.7586   2.9775   2.9776
     2.9776   2.9776   2.9777   2.9777   3.0584   3.0585   3.0585   3.0586
     3.0587   3.0587   3.1399   3.1399   3.1399   3.3685   3.3685   3.3685
     3.6846   4.1448

          k = 0.2081 0.2081-0.2676 (196812 PWs)   bands (ev):

   -82.3777 -82.3774 -82.3774 -82.3774 -82.3774 -82.3774 -82.3774 -82.3774
   -82.3774 -82.3774 -82.3774 -82.3774 -82.3774 -82.3774 -82.3774 -82.3774
   -82.3774 -82.3774 -82.3774 -82.3774 -82.3774 -82.3774 -82.3774 -82.3774
   -82.3774 -82.3774 -82.3774 -82.3774 -82.3773 -82.3773 -82.3773 -82.3772
   -48.2112 -48.2112 -48.2112 -48.2111 -48.2111 -48.2111 -48.2111 -48.2111
   -48.2111 -48.2111 -48.2111 -48.2111 -48.2111 -48.2111 -48.2110 -48.2110
   -48.2110 -48.2110 -48.2110 -48.2110 -48.2110 -48.2110 -48.2110 -48.2110
   -48.2110 -48.2110 -48.2110 -48.2110 -48.2110 -48.2110 -48.2110 -48.2110
   -48.2110 -48.2110 -48.2110 -48.2110 -48.2110 -48.2110 -48.2110 -48.2110
   -48.2110 -48.2110 -48.2110 -48.2110 -48.2110 -48.2110 -48.2110 -48.2110
   -48.2110 -48.2110 -48.2110 -48.2110 -48.2110 -48.2110 -48.2110 -48.2110
   -48.2110 -48.2110 -48.2110 -48.2110 -48.2110 -48.2110 -48.2110 -48.2110
   -48.2110 -48.2110 -48.2110 -48.2110 -48.2110 -48.2110 -48.2110 -48.2110
   -48.2109 -48.2109 -48.2109 -48.2109 -48.2109 -48.2109 -48.2109 -48.2109
   -48.2109 -48.2109 -48.2109 -48.2109 -48.2109 -48.2109 -48.2109 -48.2109
   -48.2109 -48.2109 -48.2109 -48.2109 -48.2109 -48.2108 -48.2108 -48.2108
    -0.9591  -0.9591  -0.9586  -0.9586  -0.9586  -0.9586  -0.9571  -0.9571
    -0.9526  -0.9526  -0.9526  -0.9526  -0.9523  -0.9523  -0.9523  -0.9523
    -0.9503  -0.9503  -0.9503  -0.9503  -0.9503  -0.9503  -0.9503  -0.9503
    -0.9502  -0.9502  -0.9476  -0.9476  -0.9476  -0.9476  -0.9442  -0.9442
    -0.9232  -0.9232  -0.9195  -0.9195  -0.9195  -0.9195  -0.9094  -0.9094
    -0.9094  -0.9094  -0.9081  -0.9081  -0.9081  -0.9081  -0.9038  -0.9038
    -0.9038  -0.9038  -0.9027  -0.9027  -0.9027  -0.9027  -0.9011  -0.9011
    -0.8912  -0.8912  -0.8909  -0.8909  -0.8902  -0.8902  -0.8902  -0.8902
    -0.8898  -0.8898  -0.8883  -0.8883  -0.8874  -0.8874  -0.8874  -0.8874
    -0.8618  -0.8618  -0.8618  -0.8618  -0.8591  -0.8591  -0.8563  -0.8563
    -0.8563  -0.8563  -0.8534  -0.8534  -0.8534  -0.8534  -0.8499  -0.8499
    -0.8499  -0.8499  -0.8459  -0.8459  -0.8459  -0.8459  -0.8451  -0.8451
    -0.8442  -0.8442  -0.8422  -0.8422  -0.8422  -0.8422  -0.8417  -0.8417
    -0.8417  -0.8417  -0.8416  -0.8416  -0.8416  -0.8416  -0.8393  -0.8393
    -0.8393  -0.8393  -0.8374  -0.8374  -0.8374  -0.8374  -0.8364  -0.8364
    -0.8352  -0.8352  -0.8329  -0.8329  -0.8295  -0.8295  -0.8295  -0.8295
    -0.8286  -0.8286  -0.8281  -0.8281  -0.8281  -0.8280  -0.8225  -0.8225
    -0.7929  -0.7929  -0.7929  -0.7929  -0.7926  -0.7926  -0.7919  -0.7919
    -0.7919  -0.7919  -0.7917  -0.7917  -0.7917  -0.7917  -0.7916  -0.7916
    -0.7916  -0.7916  -0.7900  -0.7900  -0.7900  -0.7900  -0.7897  -0.7897
    -0.6636  -0.6636  -0.5060  -0.5060  -0.5060  -0.5060  -0.3499  -0.3499
     0.4856   0.4856   0.4857   0.4857   0.5830   0.5830   0.5830   0.5831
     0.6144   0.6144   0.7009   0.7010   0.7010   0.7010   0.7504   0.7504
     0.8162   0.8163   0.8163   0.8163   0.8549   0.8549   0.8550   0.8550
     2.7162   2.7163   2.8589   2.8590   2.8590   2.8590   2.8812   2.8812
     2.8812   2.8813   3.0010   3.0010   3.0010   3.0012   3.0618   3.0618
     3.0619   3.0619   3.2115   3.2116   3.2116   3.2116   3.2482   3.2483
     3.9086   3.9087

          k = 0.2081-0.2676-0.2676 (196700 PWs)   bands (ev):

   -82.3777 -82.3774 -82.3774 -82.3774 -82.3774 -82.3774 -82.3774 -82.3774
   -82.3774 -82.3774 -82.3774 -82.3774 -82.3774 -82.3774 -82.3774 -82.3774
   -82.3774 -82.3774 -82.3774 -82.3774 -82.3774 -82.3774 -82.3774 -82.3774
   -82.3774 -82.3774 -82.3774 -82.3774 -82.3773 -82.3773 -82.3773 -82.3772
   -48.2112 -48.2112 -48.2112 -48.2111 -48.2111 -48.2111 -48.2111 -48.2110
   -48.2110 -48.2110 -48.2110 -48.2110 -48.2110 -48.2110 -48.2110 -48.2110
   -48.2110 -48.2110 -48.2110 -48.2110 -48.2110 -48.2110 -48.2110 -48.2110
   -48.2110 -48.2110 -48.2110 -48.2110 -48.2110 -48.2110 -48.2110 -48.2110
   -48.2110 -48.2110 -48.2110 -48.2110 -48.2110 -48.2110 -48.2110 -48.2110
   -48.2110 -48.2110 -48.2110 -48.2110 -48.2110 -48.2110 -48.2110 -48.2110
   -48.2110 -48.2110 -48.2110 -48.2110 -48.2110 -48.2110 -48.2110 -48.2110
   -48.2110 -48.2110 -48.2110 -48.2110 -48.2110 -48.2110 -48.2110 -48.2110
   -48.2110 -48.2110 -48.2110 -48.2109 -48.2109 -48.2109 -48.2109 -48.2109
   -48.2109 -48.2109 -48.2109 -48.2109 -48.2109 -48.2109 -48.2109 -48.2109
   -48.2109 -48.2109 -48.2109 -48.2109 -48.2109 -48.2109 -48.2109 -48.2109
   -48.2109 -48.2109 -48.2109 -48.2109 -48.2109 -48.2108 -48.2108 -48.2108
    -0.9565  -0.9565  -0.9565  -0.9565  -0.9557  -0.9557  -0.9557  -0.9557
    -0.9556  -0.9556  -0.9556  -0.9556  -0.9536  -0.9536  -0.9536  -0.9536
    -0.9522  -0.9522  -0.9522  -0.9522  -0.9510  -0.9510  -0.9510  -0.9510
    -0.9510  -0.9510  -0.9510  -0.9510  -0.9469  -0.9469  -0.9469  -0.9469
    -0.9148  -0.9148  -0.9148  -0.9148  -0.9148  -0.9148  -0.9148  -0.9148
    -0.9108  -0.9108  -0.9108  -0.9108  -0.9044  -0.9044  -0.9044  -0.9044
    -0.9032  -0.9032  -0.9032  -0.9032  -0.9032  -0.9032  -0.9032  -0.9032
    -0.8907  -0.8907  -0.8907  -0.8907  -0.8893  -0.8893  -0.8893  -0.8893
    -0.8893  -0.8893  -0.8893  -0.8893  -0.8888  -0.8888  -0.8888  -0.8888
    -0.8556  -0.8556  -0.8556  -0.8556  -0.8553  -0.8553  -0.8553  -0.8553
    -0.8553  -0.8553  -0.8553  -0.8553  -0.8477  -0.8477  -0.8477  -0.8477
    -0.8463  -0.8463  -0.8463  -0.8463  -0.8463  -0.8463  -0.8463  -0.8463
    -0.8448  -0.8448  -0.8448  -0.8448  -0.8448  -0.8448  -0.8448  -0.8448
    -0.8404  -0.8404  -0.8404  -0.8404  -0.8400  -0.8400  -0.8400  -0.8400
    -0.8398  -0.8398  -0.8398  -0.8398  -0.8356  -0.8356  -0.8356  -0.8356
    -0.8356  -0.8356  -0.8356  -0.8356  -0.8340  -0.8340  -0.8340  -0.8340
    -0.8338  -0.8338  -0.8338  -0.8338  -0.8252  -0.8252  -0.8252  -0.8252
    -0.7916  -0.7916  -0.7916  -0.7916  -0.7916  -0.7916  -0.7916  -0.7916
    -0.7911  -0.7911  -0.7911  -0.7911  -0.7909  -0.7909  -0.7909  -0.7909
    -0.7903  -0.7903  -0.7903  -0.7903  -0.7903  -0.7903  -0.7903  -0.7903
    -0.5934  -0.5934  -0.5934  -0.5934  -0.4362  -0.4362  -0.4362  -0.4362
     0.5313   0.5313   0.5313   0.5314   0.6551   0.6551   0.6551   0.6551
     0.6552   0.6552   0.6552   0.6552   0.7265   0.7266   0.7266   0.7266
     0.7266   0.7266   0.7266   0.7267   0.8366   0.8367   0.8367   0.8367
     2.8488   2.8488   2.8488   2.8488   2.8488   2.8489   2.8490   2.8491
     2.9578   2.9578   2.9578   2.9579   3.0406   3.0406   3.0407   3.0408
     3.1249   3.1249   3.1249   3.1249   3.1249   3.1250   3.1250   3.1251
     4.1347   4.1349

          k =-0.2676-0.2676-0.2676 (196392 PWs)   bands (ev):

   -82.3777 -82.3774 -82.3774 -82.3774 -82.3774 -82.3774 -82.3774 -82.3774
   -82.3774 -82.3774 -82.3774 -82.3774 -82.3774 -82.3774 -82.3774 -82.3774
   -82.3774 -82.3774 -82.3774 -82.3774 -82.3774 -82.3774 -82.3774 -82.3774
   -82.3774 -82.3774 -82.3774 -82.3774 -82.3773 -82.3773 -82.3773 -82.3772
   -48.2112 -48.2112 -48.2112 -48.2110 -48.2110 -48.2110 -48.2110 -48.2110
   -48.2110 -48.2110 -48.2110 -48.2110 -48.2110 -48.2110 -48.2110 -48.2110
   -48.2110 -48.2110 -48.2110 -48.2110 -48.2110 -48.2110 -48.2110 -48.2110
   -48.2110 -48.2110 -48.2110 -48.2110 -48.2110 -48.2110 -48.2110 -48.2110
   -48.2110 -48.2110 -48.2110 -48.2110 -48.2110 -48.2110 -48.2110 -48.2110
   -48.2110 -48.2110 -48.2110 -48.2110 -48.2110 -48.2110 -48.2110 -48.2110
   -48.2110 -48.2110 -48.2110 -48.2109 -48.2109 -48.2109 -48.2109 -48.2109
   -48.2109 -48.2109 -48.2109 -48.2109 -48.2109 -48.2109 -48.2109 -48.2109
   -48.2109 -48.2109 -48.2109 -48.2109 -48.2109 -48.2109 -48.2109 -48.2109
   -48.2109 -48.2109 -48.2109 -48.2109 -48.2109 -48.2109 -48.2109 -48.2109
   -48.2109 -48.2109 -48.2109 -48.2109 -48.2109 -48.2109 -48.2109 -48.2109
   -48.2109 -48.2109 -48.2109 -48.2109 -48.2109 -48.2108 -48.2108 -48.2108
    -0.9543  -0.9543  -0.9543  -0.9543  -0.9543  -0.9543  -0.9543  -0.9543
    -0.9543  -0.9543  -0.9543  -0.9543  -0.9543  -0.9543  -0.9543  -0.9543
    -0.9543  -0.9543  -0.9542  -0.9542  -0.9542  -0.9542  -0.9542  -0.9542
    -0.9515  -0.9515  -0.9515  -0.9515  -0.9515  -0.9515  -0.9515  -0.9515
    -0.9077  -0.9077  -0.9077  -0.9077  -0.9077  -0.9077  -0.9077  -0.9077
    -0.9077  -0.9077  -0.9077  -0.9077  -0.9077  -0.9077  -0.9077  -0.9077
    -0.9077  -0.9077  -0.9077  -0.9077  -0.9077  -0.9077  -0.9077  -0.9077
    -0.8896  -0.8896  -0.8896  -0.8896  -0.8896  -0.8896  -0.8896  -0.8896
    -0.8896  -0.8896  -0.8896  -0.8896  -0.8896  -0.8896  -0.8896  -0.8896
    -0.8480  -0.8480  -0.8479  -0.8479  -0.8479  -0.8479  -0.8479  -0.8479
    -0.8479  -0.8479  -0.8479  -0.8479  -0.8479  -0.8479  -0.8479  -0.8479
    -0.8479  -0.8479  -0.8479  -0.8479  -0.8479  -0.8479  -0.8479  -0.8479
    -0.8441  -0.8441  -0.8441  -0.8441  -0.8441  -0.8441  -0.8441  -0.8441
    -0.8441  -0.8441  -0.8441  -0.8441  -0.8441  -0.8441  -0.8441  -0.8441
    -0.8441  -0.8441  -0.8441  -0.8441  -0.8441  -0.8440  -0.8440  -0.8440
    -0.8326  -0.8326  -0.8326  -0.8326  -0.8326  -0.8326  -0.8326  -0.8326
    -0.8326  -0.8326  -0.8326  -0.8326  -0.8326  -0.8326  -0.8325  -0.8325
    -0.7904  -0.7904  -0.7904  -0.7904  -0.7904  -0.7904  -0.7904  -0.7904
    -0.7904  -0.7904  -0.7904  -0.7904  -0.7904  -0.7904  -0.7904  -0.7904
    -0.7904  -0.7904  -0.7904  -0.7904  -0.7904  -0.7904  -0.7904  -0.7904
    -0.5233  -0.5233  -0.5233  -0.5233  -0.5233  -0.5233  -0.5233  -0.5232
     0.6896   0.6897   0.6897   0.6897   0.6897   0.6897   0.6897   0.6898
     0.6898   0.6898   0.6898   0.6898   0.6898   0.6898   0.6898   0.6898
     0.6898   0.6898   0.6898   0.6898   0.6898   0.6898   0.6898   0.6899
     2.9820   2.9820   2.9820   2.9821   2.9821   2.9821   2.9821   2.9821
     2.9821   2.9821   2.9821   2.9821   2.9822   2.9822   2.9822   2.9822
     2.9822   2.9822   2.9822   2.9822   2.9823   2.9823   2.9826   2.9826
     4.3635   4.3635

     the Fermi energy is    -0.3961 ev

!    total energy              =  -16375.81578820 Ry

     total all-electron energy =   -322936.669495 Ry
     estimated scf accuracy    <       0.00000079 Ry
     smearing contrib. (-TS)   =       0.72433076 Ry
     internal energy E=F+TS    =  -16376.54011896 Ry

     The total energy is F=E-TS. E is the sum of the following terms:
     one-electron contribution =   -7468.42240160 Ry
     hartree contribution      =    3777.06616118 Ry
     xc contribution           =    -985.06904163 Ry
     ewald contribution        =   -3533.57257318 Ry
     one-center paw contrib.   =   -8166.54226374 Ry

     convergence has been achieved in  92 iterations

     Forces acting on atoms (cartesian axes, Ry/au):

     atom    1 type  1   force =     0.00000000    0.00000000    0.00000000
     atom    2 type  1   force =    -0.00003224   -0.00003224    0.00000000
     atom    3 type  1   force =    -0.00003224   -0.00000000   -0.00003224
     atom    4 type  1   force =     0.00000000   -0.00003224   -0.00003224
     atom    5 type  1   force =     0.00000000    0.00000000    0.00000000
     atom    6 type  1   force =    -0.00001550   -0.00001550   -0.00000000
     atom    7 type  1   force =    -0.00003224    0.00000000    0.00003224
     atom    8 type  1   force =    -0.00000000   -0.00003224    0.00003224
     atom    9 type  1   force =     0.00000000    0.00000000    0.00000000
     atom   10 type  1   force =    -0.00003224    0.00003224    0.00000000
     atom   11 type  1   force =    -0.00001550    0.00000000   -0.00001550
     atom   12 type  1   force =    -0.00000000    0.00003224   -0.00003224
     atom   13 type  1   force =     0.00000000    0.00000000    0.00000000
     atom   14 type  1   force =    -0.00001550    0.00001550    0.00000000
     atom   15 type  1   force =    -0.00001550   -0.00000000    0.00001550
     atom   16 type  1   force =     0.00000000    0.00003224    0.00003224
     atom   17 type  1   force =     0.00000000    0.00000000    0.00000000
     atom   18 type  1   force =     0.00003224   -0.00003224    0.00000000
     atom   19 type  1   force =     0.00003224    0.00000000   -0.00003224
     atom   20 type  1   force =    -0.00000000   -0.00001550   -0.00001550
     atom   21 type  1   force =     0.00000000    0.00000000    0.00000000
     atom   22 type  1   force =     0.00001550   -0.00001550   -0.00000000
     atom   23 type  1   force =     0.00003224   -0.00000000    0.00003224
     atom   24 type  1   force =     0.00000000   -0.00001550    0.00001550
     atom   25 type  1   force =     0.00000000    0.00000000    0.00000000
     atom   26 type  1   force =     0.00003224    0.00003224    0.00000000
     atom   27 type  1   force =     0.00001550    0.00000000   -0.00001550
     atom   28 type  1   force =     0.00000000    0.00001550   -0.00001550
     atom   29 type  1   force =     0.00000000    0.00000000    0.00000000
     atom   30 type  1   force =     0.00001550    0.00001550    0.00000000
     atom   31 type  1   force =     0.00001550   -0.00000000    0.00001550
     atom   32 type  1   force =     0.00000000    0.00001550    0.00001550

     Total force =     0.000175     Total SCF correction =     0.001395
     SCF correction compared to forces is large: reduce conv_thr to get better values


     Computing stress (Cartesian axis) and pressure

          total   stress  (Ry/bohr**3)                   (kbar)     P=      -13.82
  -0.00009392   0.00000000   0.00000000          -13.82        0.00        0.00
   0.00000000  -0.00009392   0.00000000            0.00      -13.82        0.00
   0.00000000   0.00000000  -0.00009392            0.00        0.00      -13.82


     Writing output data file /scratch/ZgVdbQwBQtBVjgCL.save/
 
     init_run     :     59.37s CPU     60.74s WALL (       1 calls)
     electrons    :  14193.60s CPU  14416.23s WALL (       1 calls)
     forces       :     18.95s CPU     19.39s WALL (       1 calls)
     stress       :    292.95s CPU    294.78s WALL (       1 calls)

     Called by init_run:
     wfcinit      :     57.21s CPU     58.38s WALL (       1 calls)
     potinit      :      0.26s CPU      0.29s WALL (       1 calls)
     hinit0       :      0.16s CPU      0.17s WALL (       1 calls)

     Called by electrons:
     c_bands      :  12359.28s CPU  12509.33s WALL (      92 calls)
     sum_band     :   1791.38s CPU   1839.99s WALL (      92 calls)
     v_of_rho     :     10.81s CPU     11.64s WALL (      93 calls)
     newd         :     15.24s CPU     37.36s WALL (      93 calls)
     PAW_pot      :      9.28s CPU      9.77s WALL (      93 calls)
     mix_rho      :      3.93s CPU      4.37s WALL (      92 calls)

     Called by c_bands:
     init_us_2    :     86.09s CPU     86.92s WALL (    6545 calls)
     cegterg      :  12048.15s CPU  12194.53s WALL (    3220 calls)

     Called by *egterg:
     cdiaghg      :    355.72s CPU    358.62s WALL (   10608 calls)
     h_psi        :   6232.33s CPU   6311.28s WALL (   10643 calls)
     s_psi        :    578.15s CPU    582.11s WALL (   10643 calls)
     g_psi        :     45.45s CPU     45.81s WALL (    7388 calls)

     Called by h_psi:
     h_psi:calbec :    752.85s CPU    758.36s WALL (   10643 calls)
     vloc_psi     :   4816.49s CPU   4880.58s WALL (   10643 calls)
     add_vuspsi   :    580.27s CPU    584.29s WALL (   10643 calls)

     General routines
     calbec       :   1125.53s CPU   1133.61s WALL (   14038 calls)
     fft          :     11.09s CPU     11.29s WALL (    1232 calls)
     ffts         :      1.53s CPU      1.56s WALL (     185 calls)
     fftw         :   5543.66s CPU   5616.52s WALL ( 5720612 calls)
     interpolate  :      2.36s CPU      2.43s WALL (      93 calls)
 
     Parallel routines
     fft_scatt_xy :    675.79s CPU    683.32s WALL ( 5722029 calls)
     fft_scatt_yz :   3254.17s CPU   3304.39s WALL ( 5722029 calls)
 
     PWSCF        :      4h 3m CPU      4h 7m WALL

 
   This run was terminated on:   8: 5:59  27Nov2021            

=------------------------------------------------------------------------------=
   JOB DONE.
=------------------------------------------------------------------------------=
