
     Program PWSCF v.6.7MaX starts on 26Nov2021 at 19:34:24 

     This program is part of the open-source Quantum ESPRESSO suite
     for quantum simulation of materials; please cite
         "P. Giannozzi et al., J. Phys.:Condens. Matter 21 395502 (2009);
         "P. Giannozzi et al., J. Phys.:Condens. Matter 29 465901 (2017);
          URL http://www.quantum-espresso.org", 
     in publications or presentations arising from this work. More details at
     http://www.quantum-espresso.org/quote

     Parallel version (MPI & OpenMP), running on      72 processor cores
     Number of MPI processes:                72
     Threads/MPI process:                     1

     MPI processes distributed on     1 nodes
     R & G space division:  proc/nbgrp/npool/nimage =      72
     Reading input from fcc_5.in
Warning: card &CELL ignored
Warning: card CELL_DYNAMICS = 'BFGS', ignored
Warning: card CELL_FACTOR = 2.0, ignored
Warning: card PRESS = 0.0, ignored
Warning: card / ignored

     Current dimensions of program PWSCF are:
     Max number of different atomic species (ntypx) = 10
     Max number of k-points (npk) =  40000
     Max angular momentum in pseudopotentials (lmaxx) =  3
     file Pd.pbe-spn-kjpaw_psl.1.0.0.UPF: wavefunction(s)  4S 5S 4D renormalized

     Subspace diagonalization in iterative solution of the eigenvalue problem:
     one sub-group per band group will be used
     ELPA distributed-memory algorithm (size of sub-group:  8*  8 procs)

     Found symmetry operation: I + (  0.2500  0.2500  0.0000)
     This is a supercell, fractional translations are disabled
     Message from routine setup:
     using ibrav=0 with symmetry is DISCOURAGED, use correct ibrav instead
 
     Parallelization info
     --------------------
     sticks:   dense  smooth     PW     G-vecs:    dense   smooth      PW
     Min         101      67     18                 6495     3491     494
     Max         102      68     19                 6500     3494     499
     Sum        7289    4825   1313               467761   251439   35729
 


     bravais-lattice index     =            0
     lattice parameter (alat)  =      14.4000  a.u.
     unit-cell volume          =    3105.4095 (a.u.)^3
     number of atoms/cell      =           32
     number of atomic types    =            1
     number of electrons       =       576.00
     number of Kohn-Sham states=          346
     kinetic-energy cutoff     =      71.0000  Ry
     charge density cutoff     =     430.0000  Ry
     scf convergence threshold =      1.0E-06
     mixing beta               =       0.1000
     number of iterations used =           10  TF        mixing
     Exchange-correlation= SLA  PW   PBX  PBC
                           (   1   4   3   4   0   0   0)

     celldm(1)=  14.400000  celldm(2)=   0.000000  celldm(3)=   0.000000
     celldm(4)=   0.000000  celldm(5)=   0.000000  celldm(6)=   0.000000

     crystal axes: (cart. coord. in units of alat)
               a(1) = (   1.013158   0.000000   0.000000 )  
               a(2) = (   0.000000   1.013158   0.000000 )  
               a(3) = (   0.000000   0.000000   1.013158 )  

     reciprocal axes: (cart. coord. in units 2 pi/alat)
               b(1) = (  0.987013  0.000000  0.000000 )  
               b(2) = (  0.000000  0.987013  0.000000 )  
               b(3) = (  0.000000  0.000000  0.987013 )  


     PseudoPot. # 1 for Pd read from file:
     /rds/homes/b/bxp912/pp/Pd.pbe-spn-kjpaw_psl.1.0.0.UPF
     MD5 check sum: 790f2ebce206edfd9790dcb9844eca51
     Pseudo is Projector augmented-wave + core cor, Zval = 18.0
     Generated using &quot;atomic&quot; code by A. Dal Corso  v.6.3
     Shape of augmentation charge: PSQ
     Using radial grid of 1235 points,  6 beta functions with: 
                l(1) =   0
                l(2) =   0
                l(3) =   1
                l(4) =   1
                l(5) =   2
                l(6) =   2
     Q(r) pseudized with 0 coefficients 


     atomic species   valence    mass     pseudopotential
        Pd            18.00   106.42000     Pd( 1.00)

     48 Sym. Ops., with inversion, found



   Cartesian axes

     site n.     atom                  positions (alat units)
         1           Pd  tau(   1) = (   0.0000000   0.0000000   0.0000000  )
         2           Pd  tau(   2) = (   0.2532895   0.2532895   0.0000000  )
         3           Pd  tau(   3) = (   0.2532895   0.0000000   0.2532895  )
         4           Pd  tau(   4) = (   0.0000000   0.2532895   0.2532895  )
         5           Pd  tau(   5) = (   0.0000000   0.0000000   0.5065789  )
         6           Pd  tau(   6) = (   0.2532895   0.2532895   0.5065789  )
         7           Pd  tau(   7) = (   0.2532895   0.0000000   0.7598684  )
         8           Pd  tau(   8) = (   0.0000000   0.2532895   0.7598684  )
         9           Pd  tau(   9) = (   0.0000000   0.5065789   0.0000000  )
        10           Pd  tau(  10) = (   0.2532895   0.7598684   0.0000000  )
        11           Pd  tau(  11) = (   0.2532895   0.5065789   0.2532895  )
        12           Pd  tau(  12) = (   0.0000000   0.7598684   0.2532895  )
        13           Pd  tau(  13) = (   0.0000000   0.5065789   0.5065789  )
        14           Pd  tau(  14) = (   0.2532895   0.7598684   0.5065789  )
        15           Pd  tau(  15) = (   0.2532895   0.5065789   0.7598684  )
        16           Pd  tau(  16) = (   0.0000000   0.7598684   0.7598684  )
        17           Pd  tau(  17) = (   0.5065789   0.0000000   0.0000000  )
        18           Pd  tau(  18) = (   0.7598684   0.2532895   0.0000000  )
        19           Pd  tau(  19) = (   0.7598684   0.0000000   0.2532895  )
        20           Pd  tau(  20) = (   0.5065789   0.2532895   0.2532895  )
        21           Pd  tau(  21) = (   0.5065789   0.0000000   0.5065789  )
        22           Pd  tau(  22) = (   0.7598684   0.2532895   0.5065789  )
        23           Pd  tau(  23) = (   0.7598684   0.0000000   0.7598684  )
        24           Pd  tau(  24) = (   0.5065789   0.2532895   0.7598684  )
        25           Pd  tau(  25) = (   0.5065789   0.5065789   0.0000000  )
        26           Pd  tau(  26) = (   0.7598684   0.7598684   0.0000000  )
        27           Pd  tau(  27) = (   0.7598684   0.5065789   0.2532895  )
        28           Pd  tau(  28) = (   0.5065789   0.7598684   0.2532895  )
        29           Pd  tau(  29) = (   0.5065789   0.5065789   0.5065789  )
        30           Pd  tau(  30) = (   0.7598684   0.7598684   0.5065789  )
        31           Pd  tau(  31) = (   0.7598684   0.5065789   0.7598684  )
        32           Pd  tau(  32) = (   0.5065789   0.7598684   0.7598684  )

     number of k points=    35  Marzari-Vanderbilt smearing, width (Ry)=  0.0400
                       cart. coord. in units 2pi/alat
        k(    1) = (   0.0548341   0.0548341   0.0548341), wk =   0.0219479
        k(    2) = (   0.0548341   0.0548341   0.1645022), wk =   0.0658436
        k(    3) = (   0.0548341   0.0548341   0.2741703), wk =   0.0658436
        k(    4) = (   0.0548341   0.0548341   0.3838384), wk =   0.0658436
        k(    5) = (   0.0548341   0.0548341  -0.4935065), wk =   0.0329218
        k(    6) = (   0.0548341   0.1645022   0.1645022), wk =   0.0658436
        k(    7) = (   0.0548341   0.1645022   0.2741703), wk =   0.1316872
        k(    8) = (   0.0548341   0.1645022   0.3838384), wk =   0.1316872
        k(    9) = (   0.0548341   0.1645022  -0.4935065), wk =   0.0658436
        k(   10) = (   0.0548341   0.2741703   0.2741703), wk =   0.0658436
        k(   11) = (   0.0548341   0.2741703   0.3838384), wk =   0.1316872
        k(   12) = (   0.0548341   0.2741703  -0.4935065), wk =   0.0658436
        k(   13) = (   0.0548341   0.3838384   0.3838384), wk =   0.0658436
        k(   14) = (   0.0548341   0.3838384  -0.4935065), wk =   0.0658436
        k(   15) = (   0.0548341  -0.4935065  -0.4935065), wk =   0.0164609
        k(   16) = (   0.1645022   0.1645022   0.1645022), wk =   0.0219479
        k(   17) = (   0.1645022   0.1645022   0.2741703), wk =   0.0658436
        k(   18) = (   0.1645022   0.1645022   0.3838384), wk =   0.0658436
        k(   19) = (   0.1645022   0.1645022  -0.4935065), wk =   0.0329218
        k(   20) = (   0.1645022   0.2741703   0.2741703), wk =   0.0658436
        k(   21) = (   0.1645022   0.2741703   0.3838384), wk =   0.1316872
        k(   22) = (   0.1645022   0.2741703  -0.4935065), wk =   0.0658436
        k(   23) = (   0.1645022   0.3838384   0.3838384), wk =   0.0658436
        k(   24) = (   0.1645022   0.3838384  -0.4935065), wk =   0.0658436
        k(   25) = (   0.1645022  -0.4935065  -0.4935065), wk =   0.0164609
        k(   26) = (   0.2741703   0.2741703   0.2741703), wk =   0.0219479
        k(   27) = (   0.2741703   0.2741703   0.3838384), wk =   0.0658436
        k(   28) = (   0.2741703   0.2741703  -0.4935065), wk =   0.0329218
        k(   29) = (   0.2741703   0.3838384   0.3838384), wk =   0.0658436
        k(   30) = (   0.2741703   0.3838384  -0.4935065), wk =   0.0658436
        k(   31) = (   0.2741703  -0.4935065  -0.4935065), wk =   0.0164609
        k(   32) = (   0.3838384   0.3838384   0.3838384), wk =   0.0219479
        k(   33) = (   0.3838384   0.3838384  -0.4935065), wk =   0.0329218
        k(   34) = (   0.3838384  -0.4935065  -0.4935065), wk =   0.0164609
        k(   35) = (  -0.4935065  -0.4935065  -0.4935065), wk =   0.0027435

     Dense  grid:   467761 G-vectors     FFT dimensions: ( 100, 100, 100)

     Smooth grid:   251439 G-vectors     FFT dimensions: (  80,  80,  80)

     Estimated max dynamical RAM per process >     120.55 MB

     Estimated total dynamical RAM >       8.48 GB

     Check: negative core charge=   -0.000002

     Initial potential from superposition of free atoms

     starting charge  575.98776, renormalised to  576.00000
     Starting wfcs are  320 randomized atomic wfcs +   26 random wfcs
     Checking if some PAW data can be deallocated... 

     total cpu time spent up to now is       16.4 secs

     Self-consistent Calculation

     iteration #  1     ecut=    71.00 Ry     beta= 0.10
     Davidson diagonalization with overlap
     ethr =  1.00E-02,  avg # of iterations =  3.0

     Threshold (ethr) on eigenvalues was too large:
     Diagonalizing with lowered threshold

     Davidson diagonalization with overlap
     ethr =  6.36E-05,  avg # of iterations =  4.2

     total cpu time spent up to now is      123.4 secs

     total energy              =  -16384.94964026 Ry
     estimated scf accuracy    <       0.33504155 Ry

     iteration #  2     ecut=    71.00 Ry     beta= 0.10
     Davidson diagonalization with overlap
     ethr =  5.82E-05,  avg # of iterations =  1.1

     total cpu time spent up to now is      167.8 secs

     total energy              =  -16384.84807957 Ry
     estimated scf accuracy    <       0.24836199 Ry

     iteration #  3     ecut=    71.00 Ry     beta= 0.10
     Davidson diagonalization with overlap
     ethr =  4.31E-05,  avg # of iterations =  2.5

     total cpu time spent up to now is      211.8 secs

     total energy              =  -16384.88502622 Ry
     estimated scf accuracy    <       0.01504430 Ry

     iteration #  4     ecut=    71.00 Ry     beta= 0.10
     Davidson diagonalization with overlap
     ethr =  2.61E-06,  avg # of iterations =  5.3

     total cpu time spent up to now is      258.7 secs

     total energy              =  -16384.88465925 Ry
     estimated scf accuracy    <       0.00546326 Ry

     iteration #  5     ecut=    71.00 Ry     beta= 0.10
     Davidson diagonalization with overlap
     ethr =  9.48E-07,  avg # of iterations =  1.2

     total cpu time spent up to now is      293.2 secs

     total energy              =  -16384.88384413 Ry
     estimated scf accuracy    <       0.00351770 Ry

     iteration #  6     ecut=    71.00 Ry     beta= 0.10
     Davidson diagonalization with overlap
     ethr =  6.11E-07,  avg # of iterations =  1.0

     total cpu time spent up to now is      331.4 secs

     total energy              =  -16384.88409158 Ry
     estimated scf accuracy    <       0.00060380 Ry

     iteration #  7     ecut=    71.00 Ry     beta= 0.10
     Davidson diagonalization with overlap
     ethr =  1.05E-07,  avg # of iterations =  2.1

     total cpu time spent up to now is      369.7 secs

     total energy              =  -16384.88416512 Ry
     estimated scf accuracy    <       0.00032545 Ry

     iteration #  8     ecut=    71.00 Ry     beta= 0.10
     Davidson diagonalization with overlap
     ethr =  5.65E-08,  avg # of iterations =  1.0

     total cpu time spent up to now is      402.4 secs

     total energy              =  -16384.88417146 Ry
     estimated scf accuracy    <       0.00006594 Ry

     iteration #  9     ecut=    71.00 Ry     beta= 0.10
     Davidson diagonalization with overlap
     ethr =  1.14E-08,  avg # of iterations =  2.0

     total cpu time spent up to now is      436.0 secs

     total energy              =  -16384.88417730 Ry
     estimated scf accuracy    <       0.00002105 Ry

     iteration # 10     ecut=    71.00 Ry     beta= 0.10
     Davidson diagonalization with overlap
     ethr =  3.65E-09,  avg # of iterations =  1.7

     total cpu time spent up to now is      469.9 secs

     total energy              =  -16384.88418302 Ry
     estimated scf accuracy    <       0.00000818 Ry

     iteration # 11     ecut=    71.00 Ry     beta= 0.10
     Davidson diagonalization with overlap
     ethr =  1.42E-09,  avg # of iterations =  1.8

     total cpu time spent up to now is      502.4 secs

     total energy              =  -16384.88418609 Ry
     estimated scf accuracy    <       0.00000322 Ry

     iteration # 12     ecut=    71.00 Ry     beta= 0.10
     Davidson diagonalization with overlap
     ethr =  5.59E-10,  avg # of iterations =  2.0

     total cpu time spent up to now is      537.6 secs

     End of self-consistent calculation

          k = 0.0548 0.0548 0.0548 ( 31379 PWs)   bands (ev):

   -63.6643 -63.6275 -63.6275 -63.6275 -63.6204 -63.6204 -63.6204 -63.6074
   -63.6074 -63.6074 -63.6040 -63.6035 -63.6035 -63.6035 -63.6035 -63.6035
   -63.6035 -63.6034 -63.6034 -63.6034 -63.6003 -63.6003 -63.6003 -63.5836
   -63.5836 -63.5836 -63.5835 -63.5835 -63.5835 -63.5835 -63.5835 -63.5835
   -29.5865 -29.5865 -29.5864 -29.5846 -29.5612 -29.5612 -29.5612 -29.4681
   -29.4681 -29.4681 -29.4629 -29.4629 -29.4629 -29.4629 -29.4629 -29.4629
   -29.4536 -29.4536 -29.4536 -29.4466 -29.4466 -29.4466 -29.4465 -29.4465
   -29.4465 -29.4239 -29.4239 -29.4239 -29.4239 -29.4239 -29.4239 -29.3755
   -29.3755 -29.3755 -29.3455 -29.3455 -29.3455 -29.3387 -29.3387 -29.3387
   -29.3268 -29.3268 -29.3268 -29.3268 -29.3268 -29.3267 -29.3086 -29.3086
   -29.3086 -29.3069 -29.3069 -29.3069 -29.3069 -29.3069 -29.3069 -29.3065
   -29.3065 -29.3065 -29.3045 -29.3045 -29.3045 -29.2289 -29.2289 -29.2289
   -29.2286 -29.2286 -29.2286 -29.2139 -29.2139 -29.2139 -29.2138 -29.2138
   -29.2138 -29.2089 -29.2089 -29.2089 -29.2034 -29.2033 -29.2033 -29.2028
   -29.2028 -29.2028 -29.2027 -29.2027 -29.2027 -29.2020 -29.2020 -29.2020
   -29.2007 -29.2007 -29.1943 -29.1943 -29.1943 -29.1401 -29.1370 -29.1370
    13.2698  14.9843  14.9843  14.9844  15.0897  15.1040  15.1040  15.1040
    15.2822  15.2822  15.2822  15.3609  15.3609  15.3609  15.5467  15.5467
    15.5467  16.0694  16.0694  16.0694  16.0695  16.0695  16.0695  16.2416
    16.2416  16.2416  16.4386  16.4386  16.4386  16.4433  16.4433  16.4433
    16.5154  16.5154  16.5154  16.5200  16.5200  16.5200  16.5200  16.5200
    16.5200  16.8711  16.8711  16.8711  16.8711  16.8711  16.8711  16.9868
    16.9868  16.9868  17.0096  17.0096  17.0096  17.0097  17.0097  17.0097
    17.0693  17.0693  17.0693  17.2551  17.2551  17.2551  17.2551  17.2551
    17.2551  17.3624  17.3624  17.3624  17.3647  17.3647  17.3647  17.3647
    17.3647  17.3647  17.4803  17.4803  17.4803  17.5581  17.5581  17.5581
    17.5812  17.5812  17.5926  17.5926  17.5926  17.6162  17.6375  17.6375
    18.4962  18.4962  18.4962  18.5601  18.5601  18.5601  18.6387  18.6387
    18.6387  18.6387  18.6387  18.6387  18.6453  18.6453  18.6453  18.6981
    18.6981  18.6981  18.8153  18.8153  18.8153  18.9422  18.9422  18.9422
    19.0800  19.0800  19.0800  19.1420  19.1420  19.1420  19.2155  19.2155
    19.2155  19.2155  19.2155  19.2155  19.2389  19.2389  19.2389  19.3003
    19.3003  19.3030  19.3030  19.3030  19.3030  19.3030  19.3030  19.4220
    19.4220  19.4220  19.8482  19.8482  19.8482  19.9590  19.9590  19.9590
    20.3593  20.3593  20.3593  20.5131  20.5131  20.5131  20.5420  20.5420
    20.5642  20.5642  20.5642  20.8135  20.8135  20.8135  20.8756  20.8756
    20.8756  20.8757  20.8757  20.8757  20.8789  20.8789  20.8789  21.4026
    21.7417  21.7417  21.7417  22.4425  22.4425  22.4425  22.9748  22.9748
    22.9748  22.9748  22.9748  22.9748  23.5244  23.5244  23.5244  23.9736
    23.9736  23.9736  28.1297  28.1297  28.1297  28.2862  29.1564  29.1564
    29.1564  29.1564  29.1564  29.1564  29.8709  29.8709  29.8709  29.8709
    29.8709  29.8709  31.4060  31.4060  31.4060  31.4060  31.4060  31.4060
    31.6700  31.6700  31.6700  32.5251  32.5304  32.5304  32.5304  32.5304
    32.5304  32.5305

          k = 0.0548 0.0548 0.1645 ( 31392 PWs)   bands (ev):

   -63.6631 -63.6345 -63.6268 -63.6268 -63.6199 -63.6199 -63.6135 -63.6112
   -63.6112 -63.6072 -63.6067 -63.6067 -63.6046 -63.6035 -63.6035 -63.6034
   -63.6034 -63.6028 -63.6004 -63.5997 -63.5997 -63.5971 -63.5971 -63.5848
   -63.5842 -63.5842 -63.5841 -63.5840 -63.5836 -63.5836 -63.5835 -63.5835
   -29.5831 -29.5813 -29.5813 -29.5775 -29.5574 -29.5574 -29.5553 -29.4821
   -29.4759 -29.4759 -29.4705 -29.4705 -29.4691 -29.4691 -29.4682 -29.4682
   -29.4663 -29.4549 -29.4549 -29.4509 -29.4509 -29.4450 -29.4450 -29.4415
   -29.4415 -29.4275 -29.4275 -29.4198 -29.4198 -29.4114 -29.4021 -29.4021
   -29.3812 -29.3812 -29.3638 -29.3638 -29.3462 -29.3462 -29.3446 -29.3446
   -29.3308 -29.3138 -29.3138 -29.3111 -29.3111 -29.3083 -29.3083 -29.3067
   -29.3067 -29.3041 -29.3041 -29.3040 -29.3022 -29.3020 -29.3004 -29.3004
   -29.2998 -29.2998 -29.2968 -29.2909 -29.2909 -29.2436 -29.2431 -29.2320
   -29.2320 -29.2251 -29.2251 -29.2179 -29.2179 -29.2171 -29.2171 -29.2140
   -29.2140 -29.2112 -29.2097 -29.2097 -29.2087 -29.2082 -29.2082 -29.2033
   -29.2033 -29.2028 -29.2027 -29.2025 -29.2025 -29.1995 -29.1995 -29.1994
   -29.1994 -29.1991 -29.1945 -29.1887 -29.1887 -29.1477 -29.1396 -29.1386
    13.3466  15.0220  15.0340  15.0340  15.0623  15.1202  15.1485  15.1485
    15.1625  15.3120  15.3280  15.3280  15.4147  15.4147  15.6007  15.6016
    15.6016  15.9774  15.9774  16.0492  16.1068  16.1068  16.1142  16.1142
    16.1853  16.2671  16.2671  16.2702  16.2702  16.3056  16.3342  16.3342
    16.4673  16.4673  16.4818  16.4818  16.4952  16.4952  16.5273  16.5273
    16.5910  16.5910  16.6485  16.8571  16.8571  16.8743  16.8743  16.9253
    16.9253  16.9341  16.9341  16.9940  16.9940  17.0885  17.0885  17.1013
    17.1534  17.1534  17.2088  17.2089  17.2089  17.2222  17.2222  17.2601
    17.2601  17.3056  17.3056  17.3291  17.3291  17.5131  17.5266  17.5266
    17.5333  17.5333  17.5533  17.5533  17.5762  17.5813  17.6007  17.6061
    17.6145  17.6316  17.6316  17.6401  17.6696  17.6723  17.6741  17.6741
    18.2897  18.2897  18.4084  18.4173  18.4376  18.4376  18.4947  18.4947
    18.5138  18.5688  18.5872  18.5872  18.7189  18.7281  18.7281  18.7422
    18.7422  18.7838  18.7838  18.7998  18.7998  19.0298  19.0298  19.0418
    19.0593  19.0593  19.1278  19.1278  19.2116  19.2116  19.2217  19.2217
    19.2288  19.2288  19.2555  19.3137  19.3179  19.3208  19.3209  19.3566
    19.4480  19.4480  19.4638  19.4639  19.5037  19.5037  19.5635  19.5831
    19.5831  19.6055  19.7411  19.8973  19.8973  20.0047  20.0369  20.0369
    20.0615  20.0615  20.0708  20.2994  20.4443  20.4443  20.4683  20.4873
    20.5339  20.5341  20.5341  20.5539  20.5539  20.7363  20.7968  20.7968
    20.7977  20.7977  20.8110  20.8750  20.8750  20.8755  20.8756  21.4374
    21.9487  21.9487  21.9550  21.9550  22.1878  22.4091  22.4622  22.4622
    22.9471  22.9471  23.5001  23.5638  23.5638  23.6104  24.1234  24.1234
    24.2945  24.2945  28.1255  28.2851  28.2851  28.4132  28.4132  28.4371
    28.4371  28.5807  29.0451  29.0451  29.3005  29.3005  30.0036  30.0036
    30.5302  30.5302  31.4575  31.4575  31.5510  31.6515  31.6515  31.7129
    31.7129  31.7831  31.7831  31.9913  31.9913  32.1033  32.1033  32.1215
    32.6108  32.6112

          k = 0.0548 0.0548 0.2742 ( 31424 PWs)   bands (ev):

   -63.6607 -63.6411 -63.6255 -63.6255 -63.6188 -63.6188 -63.6148 -63.6148
   -63.6097 -63.6097 -63.6070 -63.6068 -63.6052 -63.6035 -63.6035 -63.6034
   -63.6034 -63.6022 -63.6006 -63.5961 -63.5961 -63.5941 -63.5941 -63.5872
   -63.5855 -63.5855 -63.5852 -63.5851 -63.5836 -63.5836 -63.5835 -63.5835
   -29.5748 -29.5713 -29.5713 -29.5657 -29.5500 -29.5500 -29.5434 -29.5028
   -29.4959 -29.4959 -29.4890 -29.4890 -29.4862 -29.4722 -29.4722 -29.4697
   -29.4697 -29.4574 -29.4574 -29.4461 -29.4461 -29.4454 -29.4443 -29.4443
   -29.4286 -29.4286 -29.4267 -29.4267 -29.4128 -29.4128 -29.3913 -29.3913
   -29.3813 -29.3813 -29.3812 -29.3812 -29.3617 -29.3617 -29.3591 -29.3591
   -29.3190 -29.3190 -29.3086 -29.3064 -29.3064 -29.3042 -29.3042 -29.2989
   -29.2971 -29.2936 -29.2936 -29.2907 -29.2907 -29.2891 -29.2891 -29.2879
   -29.2879 -29.2782 -29.2738 -29.2738 -29.2671 -29.2576 -29.2567 -29.2384
   -29.2384 -29.2294 -29.2294 -29.2275 -29.2275 -29.2239 -29.2233 -29.2233
   -29.2190 -29.2190 -29.2183 -29.2182 -29.2110 -29.2083 -29.2047 -29.2030
   -29.2030 -29.2028 -29.2027 -29.2026 -29.2026 -29.1991 -29.1990 -29.1983
   -29.1949 -29.1864 -29.1864 -29.1857 -29.1849 -29.1613 -29.1446 -29.1434
    13.4983  14.7050  15.0948  15.1306  15.1306  15.1953  15.2371  15.2371
    15.2643  15.3710  15.4193  15.4193  15.5187  15.5187  15.5517  15.7079
    15.7079  15.8194  15.8194  15.8709  15.9183  15.9976  15.9976  16.0502
    16.1770  16.1770  16.1956  16.1956  16.2017  16.2017  16.2230  16.2230
    16.3270  16.3270  16.3794  16.3794  16.4694  16.4694  16.5142  16.5142
    16.6523  16.6523  16.8010  16.8010  16.8371  16.8371  16.8509  16.8546
    16.8546  16.8770  16.8770  16.8988  16.8988  17.0233  17.0233  17.1053
    17.1053  17.1512  17.1668  17.1668  17.2341  17.2341  17.2678  17.2678
    17.2738  17.2738  17.3406  17.3522  17.3522  17.4499  17.4904  17.4904
    17.4924  17.5496  17.5496  17.5604  17.6668  17.7045  17.7045  17.7223
    17.7394  17.7417  17.8938  17.8938  17.9116  17.9658  18.0666  18.0666
    18.1267  18.1267  18.1488  18.1488  18.2225  18.3128  18.3147  18.3147
    18.3335  18.3453  18.6637  18.6825  18.6825  18.7919  18.7919  18.8608
    18.8608  18.8768  18.8768  18.9398  18.9398  18.9785  18.9785  19.0485
    19.0485  19.1692  19.1978  19.1978  19.2042  19.2042  19.2245  19.2245
    19.2330  19.2330  19.3526  19.4415  19.5040  19.5040  19.5193  19.5193
    19.5380  19.6021  19.6365  19.6407  19.6526  19.6526  19.6801  19.6801
    19.7325  19.7325  19.7620  19.7795  19.7795  19.8245  20.0525  20.0525
    20.0906  20.1096  20.1096  20.1812  20.2795  20.2795  20.3401  20.3401
    20.3470  20.4319  20.4391  20.4391  20.4530  20.5877  20.6501  20.6501
    20.6514  20.6514  20.6861  20.8745  20.8745  20.8753  20.8753  21.5021
    21.5021  21.6627  21.9765  21.9765  22.2141  22.2141  22.3403  22.6006
    22.8882  22.8883  22.9933  23.4447  24.2203  24.2203  24.7836  24.7836
    24.8235  24.8235  27.5331  27.5331  27.6581  27.6581  28.1059  28.1059
    28.2901  28.5951  28.5951  29.0029  29.5636  29.5636  30.2579  30.2579
    30.6453  31.0695  31.0695  31.2012  31.2012  31.4454  31.4454  31.5995
    31.5995  31.6146  31.6146  31.7710  31.8732  31.8732  32.0266  32.0266
    32.0359  32.0359

          k = 0.0548 0.0548 0.3838 ( 31384 PWs)   bands (ev):

   -63.6571 -63.6472 -63.6236 -63.6236 -63.6181 -63.6181 -63.6171 -63.6171
   -63.6126 -63.6125 -63.6067 -63.6058 -63.6035 -63.6035 -63.6034 -63.6034
   -63.6017 -63.6009 -63.6007 -63.5928 -63.5928 -63.5913 -63.5913 -63.5908
   -63.5874 -63.5874 -63.5868 -63.5868 -63.5836 -63.5835 -63.5835 -63.5835
   -29.5617 -29.5568 -29.5568 -29.5497 -29.5389 -29.5389 -29.5259 -29.5245
   -29.5177 -29.5177 -29.5085 -29.5081 -29.5081 -29.4761 -29.4721 -29.4721
   -29.4660 -29.4660 -29.4640 -29.4639 -29.4524 -29.4524 -29.4317 -29.4317
   -29.4221 -29.4221 -29.4101 -29.4101 -29.4041 -29.4041 -29.4033 -29.4033
   -29.3972 -29.3972 -29.3774 -29.3774 -29.3752 -29.3752 -29.3618 -29.3618
   -29.3303 -29.3303 -29.3059 -29.3059 -29.3046 -29.3046 -29.2914 -29.2898
   -29.2844 -29.2747 -29.2747 -29.2744 -29.2744 -29.2732 -29.2732 -29.2717
   -29.2717 -29.2705 -29.2693 -29.2582 -29.2580 -29.2580 -29.2479 -29.2479
   -29.2429 -29.2429 -29.2427 -29.2427 -29.2409 -29.2344 -29.2327 -29.2327
   -29.2324 -29.2324 -29.2231 -29.2121 -29.2121 -29.2076 -29.2059 -29.2027
   -29.2026 -29.2026 -29.2026 -29.2013 -29.2013 -29.1972 -29.1961 -29.1961
   -29.1955 -29.1869 -29.1869 -29.1807 -29.1729 -29.1720 -29.1520 -29.1508
    13.7206  14.3410  15.1970  15.2689  15.2689  15.3145  15.3686  15.3686
    15.4074  15.4455  15.4583  15.5557  15.5557  15.6303  15.6304  15.6649
    15.6649  15.6790  15.7107  15.7524  15.7524  15.8060  15.8576  15.8576
    15.9590  15.9590  16.0248  16.0248  16.2211  16.2211  16.2689  16.2689
    16.3277  16.3277  16.4110  16.4110  16.4299  16.4299  16.5816  16.5816
    16.6350  16.6350  16.6552  16.6552  16.7601  16.7601  16.8083  16.8083
    16.8263  16.8263  16.8695  16.8695  16.9180  16.9180  17.0438  17.0744
    17.0744  17.1094  17.1094  17.2174  17.2747  17.2747  17.2751  17.2751
    17.3009  17.3009  17.3716  17.3745  17.4133  17.4334  17.4335  17.4664
    17.4664  17.5223  17.6054  17.6054  17.7621  17.8105  17.8105  17.8373
    17.8435  17.8449  17.8697  17.8697  17.8809  17.8809  18.0450  18.0932
    18.0932  18.1426  18.1484  18.1501  18.3354  18.3406  18.3406  18.3558
    18.6076  18.6076  18.7560  18.7560  18.7633  18.7848  18.7848  18.9672
    18.9672  19.0039  19.0039  19.0158  19.0158  19.0358  19.0358  19.0487
    19.0708  19.0708  19.1644  19.1644  19.1842  19.2080  19.2080  19.2091
    19.2091  19.2138  19.2138  19.2471  19.2471  19.3120  19.4036  19.4621
    19.4621  19.5495  19.6185  19.6185  19.7273  19.7273  19.7689  19.8042
    19.9032  19.9032  19.9077  19.9690  19.9766  19.9766  20.0003  20.0003
    20.1667  20.1667  20.1842  20.2895  20.2949  20.2949  20.3265  20.3300
    20.3305  20.3305  20.3772  20.4532  20.4532  20.4544  20.4544  20.5338
    20.6470  20.6470  20.7268  20.8745  20.8746  20.8750  20.8750  21.0781
    21.0781  21.5115  21.5115  21.8911  22.2329  22.2479  22.4564  22.4564
    22.7918  22.7919  22.9358  23.3446  24.9506  24.9506  25.4652  25.4652
    25.5131  25.5131  26.6217  26.6217  26.9051  26.9051  27.1834  27.1834
    28.6351  29.0554  29.0554  29.5439  29.8371  29.9364  29.9364  30.3774
    30.3774  30.6140  30.6140  30.9038  30.9038  30.9417  31.3575  31.3575
    31.5301  31.5301  31.5590  31.5590  31.9399  31.9399  32.0113  32.0113
    32.2248  32.2248

          k = 0.0548 0.0548-0.4935 ( 31404 PWs)   bands (ev):

   -63.6526 -63.6526 -63.6211 -63.6211 -63.6211 -63.6211 -63.6151 -63.6151
   -63.6150 -63.6150 -63.6063 -63.6063 -63.6035 -63.6035 -63.6034 -63.6034
   -63.6013 -63.6012 -63.5953 -63.5953 -63.5899 -63.5899 -63.5898 -63.5898
   -63.5888 -63.5888 -63.5888 -63.5888 -63.5836 -63.5835 -63.5835 -63.5835
   -29.5447 -29.5447 -29.5386 -29.5386 -29.5386 -29.5386 -29.5303 -29.5303
   -29.5249 -29.5249 -29.5249 -29.5249 -29.5032 -29.5032 -29.4691 -29.4691
   -29.4691 -29.4691 -29.4599 -29.4599 -29.4599 -29.4599 -29.4180 -29.4180
   -29.4180 -29.4180 -29.4111 -29.4111 -29.4111 -29.4111 -29.3927 -29.3927
   -29.3927 -29.3927 -29.3915 -29.3915 -29.3915 -29.3915 -29.3447 -29.3447
   -29.3447 -29.3447 -29.3053 -29.3052 -29.3052 -29.3052 -29.2819 -29.2818
   -29.2805 -29.2805 -29.2614 -29.2614 -29.2600 -29.2600 -29.2600 -29.2600
   -29.2587 -29.2587 -29.2587 -29.2587 -29.2579 -29.2579 -29.2579 -29.2578
   -29.2510 -29.2510 -29.2510 -29.2510 -29.2441 -29.2441 -29.2441 -29.2441
   -29.2393 -29.2393 -29.2068 -29.2068 -29.2059 -29.2059 -29.2059 -29.2059
   -29.2054 -29.2054 -29.2027 -29.2026 -29.2026 -29.2026 -29.1963 -29.1963
   -29.1903 -29.1903 -29.1903 -29.1903 -29.1616 -29.1615 -29.1604 -29.1604
    14.0058  14.0058  15.3191  15.3191  15.4400  15.4400  15.4400  15.4400
    15.4764  15.4764  15.5413  15.5413  15.5413  15.5413  15.5723  15.5723
    15.5893  15.5893  15.7361  15.7361  15.7361  15.7361  15.8401  15.8401
    15.8401  15.8401  16.0365  16.0365  16.0365  16.0365  16.3615  16.3615
    16.3616  16.3616  16.4830  16.4830  16.4831  16.4831  16.5212  16.5212
    16.5212  16.5212  16.6656  16.6656  16.6656  16.6656  16.8394  16.8394
    16.8394  16.8394  16.8467  16.8467  16.8467  16.8467  17.0755  17.0755
    17.0755  17.0755  17.2197  17.2198  17.2776  17.2776  17.2776  17.2776
    17.2942  17.2943  17.3682  17.3683  17.3683  17.3683  17.4720  17.4720
    17.6491  17.6491  17.6491  17.6491  17.7130  17.7130  17.7130  17.7130
    17.8894  17.8894  17.9458  17.9458  17.9458  17.9458  17.9796  17.9796
    17.9810  17.9810  17.9817  17.9817  18.7606  18.7607  18.7607  18.7607
    18.7654  18.7654  18.7774  18.7774  18.7774  18.7774  18.8093  18.8093
    18.9063  18.9063  19.0154  19.0154  19.0154  19.0154  19.1015  19.1015
    19.1015  19.1015  19.1092  19.1092  19.1092  19.1092  19.1207  19.1207
    19.1207  19.1207  19.1610  19.1610  19.1610  19.1610  19.3528  19.3528
    19.3528  19.3528  19.4698  19.4698  19.9568  19.9569  19.9569  19.9569
    19.9883  19.9883  20.1125  20.1125  20.1125  20.1125  20.1145  20.1145
    20.1505  20.1505  20.1618  20.1618  20.2221  20.2221  20.2222  20.2222
    20.2310  20.2310  20.2310  20.2310  20.4007  20.4007  20.6836  20.6836
    20.6836  20.6836  20.8747  20.8747  20.8748  20.8748  21.0661  21.0661
    21.0661  21.0661  21.4685  21.4685  22.0836  22.0836  22.6499  22.6499
    22.6499  22.6499  23.1811  23.1811  25.7540  25.7540  25.7540  25.7540
    26.1683  26.1683  26.1683  26.1683  26.3145  26.3145  26.3145  26.3145
    29.1572  29.1572  29.6551  29.6551  29.6552  29.6552  30.1943  30.1943
    30.3918  30.3918  30.3919  30.3919  31.0471  31.0471  31.0472  31.0472
    31.4810  31.4810  31.4810  31.4810  32.1799  32.1799  32.1799  32.1799
    32.3840  32.3840

          k = 0.0548 0.1645 0.1645 ( 31415 PWs)   bands (ev):

   -63.6619 -63.6337 -63.6337 -63.6262 -63.6193 -63.6155 -63.6130 -63.6130
   -63.6109 -63.6109 -63.6066 -63.6066 -63.6059 -63.6040 -63.6023 -63.6023
   -63.6022 -63.6022 -63.5998 -63.5998 -63.5973 -63.5973 -63.5945 -63.5848
   -63.5848 -63.5847 -63.5847 -63.5843 -63.5843 -63.5840 -63.5840 -63.5836
   -29.5799 -29.5799 -29.5745 -29.5687 -29.5536 -29.5518 -29.5518 -29.4853
   -29.4853 -29.4824 -29.4824 -29.4704 -29.4704 -29.4691 -29.4669 -29.4669
   -29.4653 -29.4653 -29.4653 -29.4652 -29.4552 -29.4552 -29.4535 -29.4535
   -29.4251 -29.4168 -29.4168 -29.4152 -29.4152 -29.4087 -29.4087 -29.3986
   -29.3986 -29.3873 -29.3824 -29.3540 -29.3475 -29.3475 -29.3308 -29.3308
   -29.3257 -29.3256 -29.3181 -29.3112 -29.3112 -29.3084 -29.3084 -29.3015
   -29.3015 -29.3010 -29.3010 -29.3008 -29.2992 -29.2992 -29.2970 -29.2970
   -29.2945 -29.2945 -29.2802 -29.2802 -29.2735 -29.2468 -29.2468 -29.2401
   -29.2401 -29.2288 -29.2272 -29.2246 -29.2175 -29.2175 -29.2175 -29.2175
   -29.2137 -29.2137 -29.2130 -29.2127 -29.2127 -29.2121 -29.2073 -29.2060
   -29.2060 -29.2046 -29.2024 -29.2024 -29.2007 -29.1997 -29.1997 -29.1996
   -29.1946 -29.1946 -29.1892 -29.1892 -29.1809 -29.1573 -29.1419 -29.1384
    13.4225  15.0719  15.0719  15.0785  15.1169  15.1169  15.1350  15.1776
    15.2191  15.2191  15.3573  15.3573  15.3771  15.4563  15.6410  15.6562
    15.6562  16.0013  16.0013  16.0233  16.0233  16.0820  16.0820  16.0976
    16.0976  16.1508  16.1509  16.1620  16.2113  16.2113  16.3121  16.3360
    16.3360  16.3489  16.3490  16.3914  16.5025  16.5398  16.5398  16.5470
    16.5470  16.5951  16.5951  16.6676  16.6676  16.8306  16.8306  16.9246
    16.9246  16.9302  17.0244  17.0244  17.0403  17.0403  17.1026  17.1026
    17.1226  17.1930  17.1930  17.2058  17.2058  17.2612  17.2612  17.3657
    17.4110  17.4110  17.4640  17.4640  17.4736  17.4736  17.5238  17.5545
    17.5816  17.5816  17.5905  17.5930  17.5930  17.6150  17.6151  17.6331
    17.6604  17.6676  17.6676  17.6678  17.6854  17.6931  17.6931  17.7038
    18.1811  18.2446  18.2446  18.3005  18.4137  18.4137  18.5303  18.5534
    18.5534  18.5585  18.5585  18.6159  18.6159  18.6411  18.6411  18.7065
    18.7084  18.7085  18.7954  18.8786  18.8883  18.8883  18.9058  18.9058
    18.9369  19.2069  19.2069  19.2307  19.2307  19.2428  19.3067  19.3072
    19.3072  19.3262  19.3314  19.3314  19.3355  19.3355  19.4286  19.4286
    19.4604  19.4604  19.6558  19.6558  19.7009  19.7037  19.7131  19.7131
    19.7344  19.7344  19.7715  19.7715  19.8180  19.8180  19.8389  19.9146
    20.0488  20.1375  20.2155  20.2155  20.3563  20.3658  20.3658  20.3886
    20.4955  20.5231  20.5232  20.5480  20.5481  20.5605  20.7328  20.7328
    20.7960  20.7960  20.7987  20.7987  20.8096  20.8096  20.8347  21.1594
    21.4994  21.8592  21.9191  21.9191  22.4337  22.4337  22.5067  22.5067
    23.0329  23.0329  23.5459  23.5459  23.9306  23.9306  24.1056  24.1056
    24.5801  24.7245  27.7886  27.7886  28.1204  28.1204  28.5240  28.5240
    28.5577  28.5577  28.5838  28.9874  29.1922  29.1922  29.6273  29.6273
    30.6624  30.6624  31.0193  31.0193  31.4162  31.5673  31.5673  31.6268
    31.6840  31.6840  31.8959  31.8959  32.1066  32.1066  32.4044  32.4044
    32.6746  32.6807

          k = 0.0548 0.1645 0.2742 ( 31414 PWs)   bands (ev):

   -63.6595 -63.6402 -63.6321 -63.6249 -63.6197 -63.6182 -63.6145 -63.6121
   -63.6105 -63.6095 -63.6070 -63.6065 -63.6064 -63.6048 -63.6046 -63.6016
   -63.6011 -63.6000 -63.5981 -63.5977 -63.5963 -63.5944 -63.5921 -63.5872
   -63.5860 -63.5858 -63.5858 -63.5848 -63.5847 -63.5844 -63.5839 -63.5836
   -29.5734 -29.5718 -29.5630 -29.5555 -29.5462 -29.5449 -29.5406 -29.5061
   -29.5020 -29.4892 -29.4860 -29.4858 -29.4853 -29.4852 -29.4735 -29.4731
   -29.4724 -29.4656 -29.4650 -29.4623 -29.4600 -29.4591 -29.4553 -29.4476
   -29.4382 -29.4225 -29.4184 -29.4108 -29.4066 -29.4047 -29.4001 -29.3983
   -29.3921 -29.3894 -29.3780 -29.3675 -29.3634 -29.3472 -29.3422 -29.3279
   -29.3265 -29.3235 -29.3162 -29.3095 -29.3074 -29.3031 -29.3014 -29.3013
   -29.2986 -29.2984 -29.2964 -29.2905 -29.2868 -29.2846 -29.2839 -29.2811
   -29.2793 -29.2775 -29.2644 -29.2636 -29.2609 -29.2571 -29.2546 -29.2534
   -29.2350 -29.2340 -29.2338 -29.2320 -29.2288 -29.2286 -29.2278 -29.2268
   -29.2214 -29.2183 -29.2166 -29.2140 -29.2139 -29.2132 -29.2089 -29.2084
   -29.2082 -29.2055 -29.2055 -29.2040 -29.2002 -29.1996 -29.1974 -29.1901
   -29.1884 -29.1877 -29.1871 -29.1803 -29.1763 -29.1725 -29.1470 -29.1411
    13.5721  14.7628  15.1451  15.1658  15.1690  15.1932  15.2229  15.2495
    15.3174  15.3303  15.4154  15.4477  15.4745  15.5349  15.6064  15.7146
    15.7639  15.8308  15.8466  15.8636  15.9071  15.9471  15.9684  15.9981
    16.0443  16.0865  16.1089  16.1135  16.1329  16.1475  16.2189  16.2370
    16.2410  16.2698  16.3009  16.3640  16.3969  16.4349  16.4713  16.5640
    16.5732  16.5913  16.6418  16.7039  16.7554  16.7704  16.7784  16.8650
    16.8698  16.8785  16.9062  16.9158  16.9810  17.0421  17.0449  17.0926
    17.1122  17.1235  17.2057  17.2681  17.3082  17.3178  17.3642  17.3792
    17.3970  17.4049  17.4155  17.4461  17.4834  17.4985  17.5094  17.5420
    17.5635  17.5885  17.6528  17.6856  17.7094  17.7254  17.7359  17.7447
    17.7677  17.7816  17.7880  17.7960  17.8150  17.9247  18.0157  18.0487
    18.0742  18.0846  18.1082  18.2089  18.2281  18.3394  18.3484  18.3618
    18.4379  18.4565  18.4705  18.5538  18.5557  18.6371  18.6482  18.7563
    18.7752  18.7993  18.8025  18.8640  18.9076  19.0012  19.0523  19.0599
    19.0777  19.1702  19.1728  19.1894  19.2271  19.2763  19.3183  19.3350
    19.3509  19.3810  19.3843  19.4540  19.4596  19.4684  19.4703  19.4736
    19.4812  19.5240  19.6082  19.6564  19.6737  19.7109  19.7112  19.8070
    19.8155  19.8565  19.8609  19.8642  19.8721  19.8924  19.8978  19.9844
    19.9896  20.0272  20.1215  20.2147  20.2445  20.2761  20.3592  20.3769
    20.4532  20.5000  20.5018  20.5065  20.5601  20.5984  20.6132  20.6141
    20.6503  20.6538  20.6928  20.7956  20.7998  20.8067  20.8118  21.0846
    21.2324  21.4660  21.8468  21.9138  21.9491  22.3760  22.5208  22.8272
    23.0281  23.3186  23.5040  23.6774  24.0580  24.2160  24.4491  24.7750
    25.0681  25.3797  26.9377  27.1130  27.6004  27.8138  28.1106  28.1174
    28.2870  28.6384  28.8709  28.8799  29.0101  29.4154  29.4935  30.1187
    30.1655  30.5078  30.6589  30.8295  30.9084  31.0547  31.2380  31.5672
    31.6926  31.7794  31.7880  32.0497  32.0748  32.2512  32.3686  32.3735
    32.5995  32.7150

          k = 0.0548 0.1645 0.3838 ( 31357 PWs)   bands (ev):

   -63.6560 -63.6462 -63.6299 -63.6236 -63.6230 -63.6177 -63.6167 -63.6122
   -63.6108 -63.6099 -63.6081 -63.6071 -63.6060 -63.6051 -63.6011 -63.6005
   -63.6003 -63.6000 -63.5983 -63.5943 -63.5931 -63.5917 -63.5907 -63.5898
   -63.5880 -63.5878 -63.5873 -63.5861 -63.5847 -63.5845 -63.5838 -63.5837
   -29.5621 -29.5591 -29.5475 -29.5383 -29.5353 -29.5349 -29.5274 -29.5240
   -29.5230 -29.5075 -29.5066 -29.5046 -29.4955 -29.4848 -29.4825 -29.4768
   -29.4765 -29.4764 -29.4744 -29.4700 -29.4589 -29.4539 -29.4508 -29.4417
   -29.4315 -29.4268 -29.4209 -29.4155 -29.4120 -29.4021 -29.3918 -29.3866
   -29.3844 -29.3828 -29.3781 -29.3712 -29.3630 -29.3588 -29.3575 -29.3454
   -29.3401 -29.3274 -29.3016 -29.3015 -29.2978 -29.2978 -29.2976 -29.2954
   -29.2905 -29.2889 -29.2864 -29.2766 -29.2740 -29.2727 -29.2715 -29.2704
   -29.2677 -29.2663 -29.2631 -29.2600 -29.2507 -29.2499 -29.2459 -29.2456
   -29.2452 -29.2446 -29.2440 -29.2424 -29.2419 -29.2417 -29.2414 -29.2286
   -29.2265 -29.2259 -29.2173 -29.2172 -29.2152 -29.2152 -29.2140 -29.2123
   -29.2114 -29.2099 -29.2028 -29.2022 -29.2009 -29.1981 -29.1951 -29.1928
   -29.1913 -29.1880 -29.1811 -29.1755 -29.1748 -29.1672 -29.1544 -29.1471
    13.7914  14.4034  15.2481  15.2923  15.2948  15.3081  15.3638  15.3735
    15.4559  15.4796  15.4989  15.5014  15.5826  15.6175  15.6240  15.6377
    15.6412  15.6725  15.7147  15.7498  15.7620  15.8130  15.8443  15.8768
    15.8849  15.9167  15.9811  16.0212  16.0343  16.0986  16.2248  16.2444
    16.2463  16.2946  16.3033  16.3615  16.3839  16.5251  16.5260  16.5530
    16.5787  16.5984  16.6670  16.6793  16.6961  16.7048  16.7050  16.7221
    16.7532  16.7987  16.8634  16.9031  16.9094  16.9765  17.0526  17.0894
    17.1074  17.1597  17.2851  17.2856  17.3192  17.3529  17.3642  17.3696
    17.3750  17.3772  17.4263  17.4613  17.4773  17.4884  17.4950  17.5246
    17.5721  17.6075  17.6266  17.7682  17.7686  17.8339  17.8448  17.8481
    17.8557  17.8615  17.9013  17.9139  17.9343  18.0082  18.0121  18.0186
    18.1091  18.1173  18.1456  18.2151  18.2429  18.2727  18.3139  18.3374
    18.5144  18.5272  18.5533  18.5728  18.5741  18.6083  18.7106  18.8121
    18.8148  18.8330  18.8980  18.9506  19.0051  19.0077  19.0169  19.0324
    19.0437  19.0577  19.1122  19.1466  19.1922  19.2048  19.2155  19.2225
    19.2903  19.3001  19.3468  19.3900  19.4045  19.4645  19.4966  19.5024
    19.5372  19.5425  19.5532  19.6953  19.7137  19.7213  19.7491  19.7539
    19.8787  19.9210  19.9686  19.9985  20.0438  20.0684  20.0721  20.0763
    20.0835  20.0889  20.1147  20.1822  20.1857  20.2943  20.2946  20.3251
    20.3532  20.4036  20.4053  20.4549  20.4553  20.4555  20.4605  20.5562
    20.6194  20.7055  20.7960  20.8010  20.8020  20.8042  21.0425  21.0537
    21.1379  21.4151  21.4858  21.7373  22.0211  22.0386  22.2885  22.5891
    23.0971  23.4260  23.4583  23.9563  24.3996  24.9626  25.0678  25.5156
    25.6770  26.0511  26.0990  26.4234  26.6699  27.0745  27.2049  27.7437
    28.3112  28.6361  29.1764  29.2393  29.3376  29.5547  29.7340  29.8473
    30.0212  30.0920  30.2543  30.5706  30.6719  30.9572  31.2499  31.4301
    31.5394  31.6711  31.7406  31.8694  32.0180  32.1198  32.1318  32.1502
    32.2649  32.5252

          k = 0.0548 0.1645-0.4935 ( 31366 PWs)   bands (ev):

   -63.6516 -63.6515 -63.6270 -63.6270 -63.6206 -63.6206 -63.6147 -63.6146
   -63.6091 -63.6091 -63.6091 -63.6091 -63.6056 -63.6056 -63.6007 -63.6007
   -63.5991 -63.5991 -63.5951 -63.5951 -63.5909 -63.5909 -63.5902 -63.5902
   -63.5893 -63.5893 -63.5878 -63.5878 -63.5846 -63.5846 -63.5837 -63.5837
   -29.5465 -29.5465 -29.5425 -29.5425 -29.5286 -29.5286 -29.5220 -29.5220
   -29.5214 -29.5214 -29.5179 -29.5179 -29.5025 -29.5025 -29.4810 -29.4810
   -29.4776 -29.4776 -29.4772 -29.4772 -29.4532 -29.4532 -29.4413 -29.4413
   -29.4270 -29.4269 -29.4263 -29.4263 -29.4026 -29.4026 -29.3911 -29.3911
   -29.3779 -29.3778 -29.3712 -29.3711 -29.3659 -29.3659 -29.3546 -29.3546
   -29.3418 -29.3417 -29.3015 -29.3015 -29.2974 -29.2974 -29.2856 -29.2856
   -29.2793 -29.2792 -29.2756 -29.2756 -29.2731 -29.2731 -29.2642 -29.2642
   -29.2607 -29.2607 -29.2584 -29.2583 -29.2567 -29.2566 -29.2560 -29.2560
   -29.2534 -29.2533 -29.2416 -29.2416 -29.2371 -29.2371 -29.2289 -29.2289
   -29.2285 -29.2284 -29.2225 -29.2224 -29.2175 -29.2175 -29.2135 -29.2135
   -29.2113 -29.2112 -29.2073 -29.2073 -29.2017 -29.2017 -29.1931 -29.1930
   -29.1918 -29.1918 -29.1766 -29.1766 -29.1640 -29.1640 -29.1560 -29.1560
    14.0726  14.0726  15.3712  15.3712  15.4390  15.4390  15.4526  15.4526
    15.4804  15.4804  15.5194  15.5194  15.5581  15.5581  15.6135  15.6136
    15.6326  15.6326  15.6637  15.6637  15.7610  15.7610  15.7624  15.7624
    15.8018  15.8018  15.9238  15.9238  16.1009  16.1009  16.1588  16.1588
    16.3698  16.3698  16.3804  16.3804  16.4088  16.4088  16.5172  16.5172
    16.6183  16.6183  16.6412  16.6412  16.6978  16.6978  16.7225  16.7225
    16.7760  16.7760  16.8093  16.8093  16.8177  16.8177  17.1917  17.1917
    17.2233  17.2233  17.2294  17.2294  17.2375  17.2376  17.3134  17.3134
    17.4150  17.4150  17.4342  17.4342  17.5407  17.5407  17.5850  17.5850
    17.6477  17.6477  17.6984  17.6984  17.7071  17.7071  17.8324  17.8324
    17.8834  17.8835  17.9561  17.9561  17.9780  17.9781  17.9817  17.9817
    18.0439  18.0439  18.0663  18.0663  18.5609  18.5609  18.5711  18.5711
    18.6090  18.6090  18.6229  18.6229  18.6510  18.6510  18.6992  18.6992
    18.7675  18.7676  18.9277  18.9278  18.9324  18.9324  19.0034  19.0034
    19.0201  19.0201  19.0556  19.0557  19.0679  19.0679  19.1411  19.1411
    19.2664  19.2664  19.3052  19.3052  19.3842  19.3843  19.4637  19.4637
    19.5957  19.5957  19.6503  19.6503  19.7254  19.7254  19.9151  19.9152
    19.9605  19.9605  19.9778  19.9778  20.1263  20.1263  20.1529  20.1529
    20.2215  20.2215  20.2510  20.2510  20.2549  20.2549  20.2624  20.2624
    20.2712  20.2712  20.2743  20.2743  20.3644  20.3644  20.4268  20.4268
    20.6480  20.6480  20.7976  20.7977  20.8024  20.8024  21.0412  21.0412
    21.5313  21.5313  21.5915  21.5916  21.8384  21.8384  22.1728  22.1729
    23.2956  23.2956  23.7664  23.7664  25.1955  25.1955  25.7353  25.7353
    25.7838  25.7838  26.3282  26.3282  26.3557  26.3557  26.8876  26.8876
    28.7221  28.7221  29.1632  29.1632  29.5709  29.5709  29.7157  29.7157
    30.1254  30.1254  30.2078  30.2078  30.7767  30.7767  31.1234  31.1234
    31.6625  31.6625  31.8567  31.8567  31.9089  31.9089  31.9873  31.9873
    32.5880  32.5880

          k = 0.0548 0.2742 0.2742 ( 31366 PWs)   bands (ev):

   -63.6572 -63.6385 -63.6385 -63.6245 -63.6237 -63.6172 -63.6138 -63.6138
   -63.6091 -63.6091 -63.6087 -63.6058 -63.6058 -63.6057 -63.6001 -63.6000
   -63.6000 -63.5999 -63.5967 -63.5967 -63.5950 -63.5950 -63.5902 -63.5871
   -63.5870 -63.5870 -63.5869 -63.5861 -63.5861 -63.5846 -63.5845 -63.5837
   -29.5672 -29.5672 -29.5505 -29.5410 -29.5389 -29.5350 -29.5350 -29.5061
   -29.5061 -29.5042 -29.5042 -29.4891 -29.4891 -29.4794 -29.4794 -29.4765
   -29.4765 -29.4732 -29.4732 -29.4706 -29.4706 -29.4588 -29.4571 -29.4571
   -29.4517 -29.4517 -29.4169 -29.4104 -29.4017 -29.4017 -29.3930 -29.3930
   -29.3848 -29.3821 -29.3717 -29.3717 -29.3399 -29.3383 -29.3383 -29.3256
   -29.3256 -29.3234 -29.3234 -29.3108 -29.3107 -29.2958 -29.2958 -29.2946
   -29.2946 -29.2937 -29.2919 -29.2919 -29.2863 -29.2863 -29.2762 -29.2762
   -29.2678 -29.2678 -29.2658 -29.2658 -29.2504 -29.2503 -29.2499 -29.2499
   -29.2438 -29.2438 -29.2412 -29.2405 -29.2301 -29.2301 -29.2281 -29.2271
   -29.2271 -29.2254 -29.2254 -29.2245 -29.2135 -29.2135 -29.2121 -29.2112
   -29.2094 -29.2080 -29.2018 -29.2006 -29.2006 -29.1998 -29.1942 -29.1942
   -29.1897 -29.1885 -29.1885 -29.1735 -29.1735 -29.1694 -29.1521 -29.1413
    13.7178  14.8759  14.8759  15.2316  15.2370  15.2433  15.2433  15.3016
    15.4342  15.4342  15.5040  15.5040  15.5658  15.5811  15.7127  15.7127
    15.7225  15.7311  15.7802  15.7802  15.8561  15.8561  15.8964  15.8964
    15.9498  15.9498  15.9799  15.9799  16.1605  16.1768  16.1768  16.1859
    16.1859  16.2768  16.2768  16.2999  16.2999  16.3596  16.3596  16.4501
    16.4501  16.5301  16.6569  16.6569  16.6679  16.6679  16.6892  16.8899
    16.8899  16.9142  16.9142  16.9256  16.9256  16.9415  16.9497  17.2199
    17.2199  17.2898  17.2898  17.3861  17.3861  17.3909  17.3909  17.4409
    17.4473  17.4473  17.4750  17.4750  17.4886  17.5923  17.6226  17.6227
    17.6231  17.7265  17.7265  17.7436  17.7798  17.8029  17.8202  17.8392
    17.8392  17.8397  17.8919  17.8919  17.9109  17.9109  17.9211  17.9617
    18.0689  18.0689  18.0956  18.0956  18.2755  18.2755  18.3380  18.3380
    18.4226  18.4226  18.4820  18.5268  18.5789  18.5789  18.6125  18.6125
    18.6330  18.6330  18.7080  18.7153  18.8689  18.8689  19.0080  19.0874
    19.0874  19.1187  19.1187  19.1381  19.1391  19.2481  19.2481  19.3376
    19.3486  19.4337  19.4337  19.4966  19.4966  19.5450  19.5450  19.5928
    19.5928  19.7136  19.7136  19.7186  19.7186  19.7281  19.7308  19.7366
    19.7366  19.7892  19.7892  19.9675  20.0170  20.0425  20.0426  20.0450
    20.0450  20.0537  20.0537  20.1654  20.1714  20.1871  20.3417  20.3417
    20.4272  20.5122  20.5122  20.5303  20.5451  20.5451  20.6530  20.6530
    20.6569  20.6569  20.6826  20.6826  20.7127  20.7438  21.0002  21.0576
    21.0576  21.3944  21.3944  21.7366  21.8961  21.8961  23.1451  23.1451
    23.4401  23.4401  23.8281  23.8281  24.1965  24.1965  24.7376  24.7376
    25.5027  26.0220  26.3206  26.3206  27.6018  27.6018  28.1065  28.1065
    28.1110  28.1110  28.6441  28.6441  29.2325  29.2325  29.5228  29.6233
    29.6233  30.0592  30.1467  30.1467  30.2077  31.3922  31.4936  31.4936
    31.7327  31.7327  32.0539  32.1401  32.4093  32.4093  32.5464  32.5465
    32.8579  32.8579

          k = 0.0548 0.2742 0.3838 ( 31353 PWs)   bands (ev):

   -63.6538 -63.6443 -63.6360 -63.6288 -63.6219 -63.6169 -63.6158 -63.6129
   -63.6116 -63.6103 -63.6085 -63.6068 -63.6047 -63.6018 -63.5999 -63.5989
   -63.5984 -63.5973 -63.5959 -63.5957 -63.5937 -63.5925 -63.5904 -63.5887
   -63.5886 -63.5884 -63.5884 -63.5869 -63.5864 -63.5856 -63.5843 -63.5839
   -29.5578 -29.5565 -29.5343 -29.5281 -29.5268 -29.5264 -29.5239 -29.5228
   -29.5202 -29.5035 -29.5027 -29.5026 -29.4979 -29.4942 -29.4884 -29.4879
   -29.4872 -29.4792 -29.4792 -29.4781 -29.4706 -29.4672 -29.4583 -29.4569
   -29.4550 -29.4390 -29.4277 -29.4257 -29.4146 -29.4002 -29.3849 -29.3802
   -29.3756 -29.3627 -29.3618 -29.3535 -29.3528 -29.3527 -29.3420 -29.3383
   -29.3219 -29.3156 -29.3118 -29.3061 -29.3028 -29.3023 -29.2951 -29.2933
   -29.2899 -29.2876 -29.2865 -29.2811 -29.2789 -29.2778 -29.2733 -29.2655
   -29.2649 -29.2646 -29.2643 -29.2632 -29.2599 -29.2534 -29.2496 -29.2490
   -29.2470 -29.2449 -29.2393 -29.2390 -29.2373 -29.2341 -29.2341 -29.2336
   -29.2265 -29.2248 -29.2235 -29.2202 -29.2181 -29.2177 -29.2176 -29.2174
   -29.2114 -29.2084 -29.2066 -29.2040 -29.2026 -29.2022 -29.2019 -29.1966
   -29.1906 -29.1901 -29.1811 -29.1681 -29.1656 -29.1614 -29.1597 -29.1448
    13.9309  14.5258  15.0385  15.3105  15.3449  15.3478  15.3839  15.3931
    15.4751  15.5743  15.5845  15.5872  15.5873  15.6028  15.6086  15.6361
    15.6622  15.6919  15.7180  15.7327  15.7540  15.7595  15.8280  15.8459
    15.8639  15.8986  15.9538  15.9661  16.0249  16.0480  16.0727  16.0901
    16.1336  16.2475  16.2541  16.2947  16.3303  16.3563  16.3595  16.4087
    16.4327  16.4856  16.5131  16.5590  16.5987  16.7166  16.7504  16.7725
    16.8010  16.8569  16.9194  16.9538  16.9752  17.0002  17.0653  17.1770
    17.1910  17.1990  17.2945  17.3510  17.3631  17.4141  17.4693  17.4715
    17.5102  17.5133  17.5225  17.5567  17.5906  17.6101  17.6393  17.7369
    17.7389  17.7817  17.8053  17.8055  17.8229  17.8489  17.8622  17.8951
    17.8969  17.8974  17.9110  18.0043  18.0049  18.0263  18.0316  18.0462
    18.0636  18.1435  18.1447  18.1478  18.2333  18.2519  18.3268  18.3454
    18.3519  18.3919  18.4194  18.4270  18.4427  18.4828  18.5033  18.6159
    18.7314  18.7381  18.7453  18.7668  18.7688  18.7798  18.8629  18.8832
    18.8975  18.9496  19.0139  19.0318  19.0527  19.1352  19.3083  19.3592
    19.3641  19.3888  19.3991  19.4068  19.5427  19.5443  19.5670  19.5805
    19.5862  19.6309  19.7478  19.7688  19.7703  19.7776  19.8427  19.8585
    19.8645  19.9395  19.9744  20.0086  20.0162  20.0799  20.1130  20.1867
    20.2039  20.2043  20.2169  20.2169  20.2246  20.2274  20.2597  20.2841
    20.3812  20.4452  20.4517  20.4530  20.4595  20.4606  20.4647  20.4741
    20.5288  20.5809  20.6598  20.6608  20.6729  20.6989  20.9731  21.0281
    21.2897  21.4394  21.5714  21.6552  21.6955  21.8230  22.6175  23.0973
    23.7788  23.8514  23.9834  24.1389  24.4209  24.6282  24.9674  25.4674
    25.4855  25.6876  26.0638  26.7074  26.7216  27.0953  27.3929  28.1197
    28.2798  28.3088  28.4948  28.5775  28.8833  28.8873  29.1671  29.3565
    29.6035  29.6711  29.7938  30.1259  30.6965  30.9445  31.5782  31.7229
    31.7834  31.8186  31.8310  31.9743  32.0036  32.1722  32.6825  32.7322
    32.8667  32.9150

          k = 0.0548 0.2742-0.4935 ( 31378 PWs)   bands (ev):

   -63.6495 -63.6495 -63.6327 -63.6327 -63.6196 -63.6196 -63.6139 -63.6139
   -63.6117 -63.6117 -63.6077 -63.6077 -63.6034 -63.6034 -63.5981 -63.5980
   -63.5970 -63.5970 -63.5948 -63.5948 -63.5919 -63.5918 -63.5910 -63.5910
   -63.5903 -63.5902 -63.5869 -63.5868 -63.5867 -63.5866 -63.5841 -63.5840
   -29.5439 -29.5439 -29.5418 -29.5418 -29.5162 -29.5161 -29.5151 -29.5151
   -29.5144 -29.5144 -29.5018 -29.5018 -29.5012 -29.5011 -29.4972 -29.4972
   -29.4962 -29.4962 -29.4849 -29.4849 -29.4623 -29.4623 -29.4606 -29.4606
   -29.4422 -29.4422 -29.4252 -29.4252 -29.4196 -29.4196 -29.3687 -29.3687
   -29.3666 -29.3666 -29.3585 -29.3585 -29.3515 -29.3515 -29.3384 -29.3384
   -29.3360 -29.3360 -29.2943 -29.2943 -29.2929 -29.2929 -29.2907 -29.2907
   -29.2876 -29.2876 -29.2863 -29.2863 -29.2798 -29.2798 -29.2772 -29.2772
   -29.2636 -29.2636 -29.2606 -29.2606 -29.2528 -29.2528 -29.2523 -29.2523
   -29.2426 -29.2426 -29.2393 -29.2393 -29.2364 -29.2364 -29.2333 -29.2333
   -29.2265 -29.2264 -29.2219 -29.2219 -29.2210 -29.2210 -29.2198 -29.2198
   -29.2135 -29.2135 -29.2099 -29.2099 -29.2042 -29.2042 -29.1948 -29.1948
   -29.1934 -29.1934 -29.1695 -29.1695 -29.1653 -29.1653 -29.1517 -29.1517
    14.2043  14.2043  15.2422  15.2422  15.4295  15.4295  15.4728  15.4728
    15.4881  15.4881  15.5236  15.5236  15.5585  15.5585  15.6602  15.6602
    15.6960  15.6960  15.7485  15.7485  15.7641  15.7641  15.7988  15.7988
    15.8105  15.8105  15.9205  15.9205  15.9616  15.9616  16.0478  16.0478
    16.2200  16.2200  16.2403  16.2403  16.3303  16.3303  16.4042  16.4042
    16.4055  16.4055  16.5888  16.5888  16.6379  16.6379  16.6466  16.6467
    16.9440  16.9440  16.9447  16.9447  17.0660  17.0660  17.0682  17.0682
    17.0916  17.0916  17.2221  17.2221  17.4433  17.4434  17.5474  17.5474
    17.5545  17.5545  17.5803  17.5803  17.6299  17.6299  17.6474  17.6474
    17.6952  17.6952  17.8618  17.8618  17.9096  17.9096  17.9230  17.9230
    17.9420  17.9420  17.9827  17.9828  17.9882  17.9883  17.9994  17.9994
    18.1679  18.1679  18.1932  18.1932  18.3538  18.3538  18.3705  18.3705
    18.3803  18.3803  18.4378  18.4378  18.4554  18.4554  18.4709  18.4709
    18.5441  18.5441  18.8219  18.8220  18.8229  18.8229  18.8811  18.8811
    18.9127  18.9127  18.9424  18.9424  18.9455  18.9455  19.2578  19.2578
    19.2604  19.2604  19.4750  19.4751  19.4976  19.4976  19.5140  19.5140
    19.6875  19.6875  19.8278  19.8278  19.8334  19.8334  19.9641  19.9641
    19.9905  19.9905  20.0390  20.0390  20.0928  20.0928  20.0933  20.0933
    20.2276  20.2276  20.2556  20.2556  20.2866  20.2866  20.3378  20.3378
    20.3399  20.3399  20.3572  20.3572  20.3627  20.3627  20.3786  20.3786
    20.5794  20.5794  20.6659  20.6659  20.6735  20.6735  21.0011  21.0011
    21.1591  21.1591  21.7446  21.7446  22.0927  22.0927  22.3516  22.3516
    24.0101  24.0101  24.3885  24.3885  24.6320  24.6320  25.0491  25.0491
    25.8102  25.8102  26.2902  26.2902  26.7043  26.7043  27.4848  27.4848
    28.3717  28.3717  28.7297  28.7297  28.7700  28.7700  29.0413  29.0413
    29.2434  29.2434  30.3714  30.3714  30.8136  30.8136  31.4024  31.4024
    31.7458  31.7458  31.8598  31.8598  32.2343  32.2343  32.4343  32.4343
    33.1131  33.1133

          k = 0.0548 0.3838 0.3838 ( 31391 PWs)   bands (ev):

   -63.6506 -63.6415 -63.6415 -63.6337 -63.6203 -63.6157 -63.6157 -63.6145
   -63.6124 -63.6108 -63.6108 -63.6083 -63.5992 -63.5992 -63.5970 -63.5970
   -63.5969 -63.5969 -63.5945 -63.5945 -63.5936 -63.5936 -63.5901 -63.5901
   -63.5900 -63.5900 -63.5892 -63.5892 -63.5871 -63.5850 -63.5850 -63.5842
   -29.5491 -29.5491 -29.5215 -29.5215 -29.5206 -29.5206 -29.5176 -29.5176
   -29.5146 -29.5146 -29.5040 -29.5019 -29.5019 -29.4983 -29.4983 -29.4882
   -29.4882 -29.4805 -29.4804 -29.4795 -29.4795 -29.4782 -29.4782 -29.4629
   -29.4605 -29.4605 -29.4427 -29.4249 -29.4195 -29.3995 -29.3995 -29.3685
   -29.3585 -29.3585 -29.3442 -29.3442 -29.3363 -29.3265 -29.3265 -29.3205
   -29.3205 -29.3195 -29.3194 -29.3138 -29.3138 -29.2914 -29.2914 -29.2866
   -29.2866 -29.2859 -29.2859 -29.2834 -29.2815 -29.2815 -29.2790 -29.2790
   -29.2751 -29.2751 -29.2604 -29.2604 -29.2571 -29.2570 -29.2561 -29.2511
   -29.2511 -29.2393 -29.2393 -29.2357 -29.2357 -29.2355 -29.2355 -29.2337
   -29.2258 -29.2248 -29.2248 -29.2238 -29.2238 -29.2209 -29.2173 -29.2123
   -29.2122 -29.2088 -29.2066 -29.2066 -29.2065 -29.2037 -29.2011 -29.1933
   -29.1933 -29.1893 -29.1893 -29.1675 -29.1596 -29.1577 -29.1576 -29.1456
    14.1350  14.7034  14.7034  15.1909  15.3618  15.4318  15.4565  15.4907
    15.4907  15.5683  15.5683  15.5811  15.6840  15.6840  15.7121  15.7121
    15.7153  15.7153  15.7172  15.7206  15.7206  15.7511  15.7511  15.8691
    15.8691  15.8902  15.9036  15.9457  15.9457  16.0743  16.0743  16.0787
    16.0787  16.0907  16.0907  16.1403  16.1403  16.2831  16.2831  16.2973
    16.2973  16.3357  16.3357  16.5750  16.5750  16.6377  16.8322  16.8322
    16.8366  16.8366  16.9534  17.0214  17.0592  17.0592  17.0719  17.0719
    17.0935  17.2970  17.4060  17.4060  17.4669  17.6003  17.6103  17.6103
    17.6551  17.6551  17.6647  17.6647  17.6665  17.6665  17.7076  17.7076
    17.7345  17.7460  17.9036  17.9176  17.9277  17.9277  17.9423  17.9670
    17.9897  17.9977  17.9977  18.0222  18.0254  18.0254  18.1484  18.1484
    18.1604  18.1604  18.1654  18.1655  18.1794  18.1794  18.2883  18.2883
    18.2969  18.3150  18.3873  18.3895  18.3895  18.4649  18.5018  18.5078
    18.5078  18.5151  18.5151  18.5429  18.5429  18.5697  18.5698  18.7457
    18.8641  18.8641  18.8810  18.8810  19.0041  19.0657  19.0657  19.0985
    19.2727  19.4374  19.5352  19.5352  19.5828  19.5828  19.6861  19.6861
    19.7594  19.7594  19.8173  19.8173  19.8779  19.8779  19.8806  19.9971
    19.9971  20.0992  20.1164  20.1291  20.1291  20.1300  20.1334  20.1334
    20.1390  20.1390  20.2126  20.2909  20.3227  20.3227  20.3277  20.3277
    20.3408  20.4364  20.4364  20.4660  20.4660  20.4684  20.4684  20.4743
    20.4991  20.4991  20.4996  20.4996  20.6070  20.6550  20.7725  20.8761
    20.8761  21.3871  21.3871  21.4589  22.1983  22.1983  23.3015  23.3016
    23.6710  23.6710  24.4431  24.4431  24.8714  24.8714  24.9222  24.9222
    25.3438  25.3438  26.5550  26.5550  26.5773  27.3917  27.8261  27.8261
    28.1208  28.1208  28.3341  28.3341  28.5089  28.5090  28.9163  28.9163
    28.9476  28.9476  28.9748  30.2625  30.7662  31.3570  31.7397  31.7397
    31.7459  31.8563  32.2436  32.2436  32.3659  32.3659  32.8430  32.8430
    33.2458  33.2459

          k = 0.0548 0.3838-0.4935 ( 31334 PWs)   bands (ev):

   -63.6465 -63.6465 -63.6380 -63.6379 -63.6182 -63.6182 -63.6142 -63.6142
   -63.6128 -63.6128 -63.6096 -63.6096 -63.5982 -63.5982 -63.5956 -63.5956
   -63.5951 -63.5951 -63.5942 -63.5942 -63.5928 -63.5927 -63.5921 -63.5920
   -63.5917 -63.5916 -63.5897 -63.5897 -63.5860 -63.5860 -63.5846 -63.5845
   -29.5372 -29.5372 -29.5365 -29.5365 -29.5131 -29.5131 -29.5130 -29.5130
   -29.5074 -29.5073 -29.5041 -29.5041 -29.4987 -29.4987 -29.4986 -29.4986
   -29.4909 -29.4908 -29.4828 -29.4828 -29.4803 -29.4803 -29.4760 -29.4760
   -29.4607 -29.4606 -29.4402 -29.4402 -29.4134 -29.4134 -29.3839 -29.3839
   -29.3421 -29.3421 -29.3381 -29.3381 -29.3333 -29.3333 -29.3277 -29.3277
   -29.3109 -29.3109 -29.3047 -29.3046 -29.3035 -29.3035 -29.3014 -29.3014
   -29.2979 -29.2979 -29.2840 -29.2840 -29.2783 -29.2783 -29.2742 -29.2742
   -29.2672 -29.2672 -29.2647 -29.2647 -29.2590 -29.2590 -29.2557 -29.2557
   -29.2470 -29.2470 -29.2467 -29.2467 -29.2309 -29.2309 -29.2308 -29.2308
   -29.2307 -29.2307 -29.2261 -29.2261 -29.2151 -29.2151 -29.2137 -29.2137
   -29.2118 -29.2118 -29.2100 -29.2099 -29.1998 -29.1997 -29.1991 -29.1990
   -29.1973 -29.1973 -29.1774 -29.1774 -29.1569 -29.1569 -29.1500 -29.1500
    14.3963  14.3963  14.9287  14.9287  15.4482  15.4482  15.5537  15.5537
    15.5546  15.5546  15.5666  15.5666  15.6184  15.6184  15.6685  15.6686
    15.6920  15.6920  15.7919  15.7919  15.8192  15.8193  15.8842  15.8842
    15.8861  15.8861  15.8901  15.8901  15.9343  15.9343  16.0054  16.0054
    16.0785  16.0785  16.1032  16.1032  16.1802  16.1802  16.2000  16.2000
    16.2132  16.2132  16.4567  16.4567  16.6853  16.6853  16.6928  16.6928
    16.9350  16.9351  16.9426  16.9426  17.0603  17.0603  17.2014  17.2014
    17.2099  17.2099  17.3691  17.3691  17.4536  17.4537  17.6074  17.6074
    17.6631  17.6631  17.6798  17.6798  17.7946  17.7946  17.8319  17.8319
    17.9265  17.9265  17.9837  17.9837  17.9905  17.9905  17.9935  17.9935
    17.9983  17.9983  18.0203  18.0203  18.0917  18.0917  18.1101  18.1101
    18.1400  18.1400  18.2038  18.2038  18.2121  18.2121  18.2227  18.2227
    18.2284  18.2284  18.2573  18.2573  18.3548  18.3548  18.3589  18.3589
    18.3864  18.3864  18.5951  18.5951  18.7122  18.7122  18.7276  18.7276
    18.7630  18.7630  18.7932  18.7933  18.8101  18.8101  18.9245  18.9245
    19.4124  19.4124  19.5412  19.5412  19.7010  19.7010  19.7163  19.7164
    19.7302  19.7303  19.8628  19.8628  19.9662  19.9662  20.0046  20.0046
    20.0183  20.0183  20.0479  20.0479  20.1639  20.1639  20.2413  20.2413
    20.2459  20.2459  20.3138  20.3138  20.3437  20.3437  20.3623  20.3623
    20.3954  20.3954  20.3986  20.3986  20.4151  20.4151  20.4197  20.4197
    20.4804  20.4804  20.4879  20.4879  20.5412  20.5412  20.7729  20.7730
    20.9821  20.9821  21.3687  21.3687  22.7495  22.7495  22.9109  22.9110
    24.0611  24.0612  24.2688  24.2688  24.7634  24.7635  24.9970  24.9970
    25.7516  25.7516  26.0433  26.0433  27.1759  27.1759  28.0810  28.0810
    28.1572  28.1572  28.2665  28.2665  28.3812  28.3812  28.4263  28.4263
    28.5518  28.5518  29.5845  29.5845  31.4733  31.4733  31.7282  31.7282
    31.7818  31.7818  32.0734  32.0734  32.7831  32.7831  32.8770  32.8770
    32.9552  32.9552

          k = 0.0548-0.4935-0.4935 ( 31324 PWs)   bands (ev):

   -63.6426 -63.6426 -63.6426 -63.6425 -63.6164 -63.6164 -63.6164 -63.6163
   -63.6114 -63.6113 -63.6113 -63.6113 -63.5936 -63.5936 -63.5936 -63.5936
   -63.5936 -63.5935 -63.5935 -63.5935 -63.5935 -63.5935 -63.5935 -63.5935
   -63.5934 -63.5934 -63.5934 -63.5934 -63.5852 -63.5852 -63.5852 -63.5852
   -29.5268 -29.5268 -29.5268 -29.5268 -29.5268 -29.5268 -29.5268 -29.5268
   -29.4954 -29.4954 -29.4954 -29.4954 -29.4954 -29.4954 -29.4953 -29.4953
   -29.4911 -29.4911 -29.4911 -29.4910 -29.4800 -29.4800 -29.4800 -29.4800
   -29.4618 -29.4618 -29.4618 -29.4618 -29.3990 -29.3990 -29.3990 -29.3990
   -29.3188 -29.3188 -29.3188 -29.3188 -29.3188 -29.3188 -29.3188 -29.3188
   -29.3171 -29.3171 -29.3171 -29.3171 -29.3171 -29.3171 -29.3171 -29.3171
   -29.2841 -29.2841 -29.2841 -29.2841 -29.2709 -29.2709 -29.2709 -29.2709
   -29.2709 -29.2709 -29.2709 -29.2709 -29.2705 -29.2705 -29.2705 -29.2705
   -29.2395 -29.2395 -29.2395 -29.2395 -29.2395 -29.2395 -29.2395 -29.2395
   -29.2221 -29.2221 -29.2221 -29.2220 -29.2166 -29.2166 -29.2166 -29.2166
   -29.2062 -29.2062 -29.2062 -29.2062 -29.2034 -29.2034 -29.2034 -29.2034
   -29.1876 -29.1876 -29.1876 -29.1876 -29.1517 -29.1517 -29.1517 -29.1517
    14.6414  14.6414  14.6414  14.6414  15.4945  15.4945  15.4945  15.4945
    15.6099  15.6099  15.6099  15.6099  15.6557  15.6557  15.6557  15.6557
    15.7996  15.7996  15.7996  15.7996  15.7996  15.7996  15.7996  15.7997
    15.9821  15.9821  15.9821  15.9821  15.9821  15.9821  15.9821  15.9821
    16.0404  16.0404  16.0404  16.0404  16.0404  16.0404  16.0404  16.0404
    16.2626  16.2626  16.2626  16.2626  16.8038  16.8038  16.8038  16.8038
    16.8039  16.8039  16.8039  16.8039  17.1484  17.1484  17.1484  17.1484
    17.4051  17.4051  17.4051  17.4051  17.6141  17.6141  17.6141  17.6141
    17.7519  17.7519  17.7519  17.7519  17.7659  17.7659  17.7659  17.7659
    18.0051  18.0051  18.0051  18.0051  18.0305  18.0305  18.0305  18.0305
    18.0305  18.0305  18.0305  18.0305  18.0935  18.0935  18.0935  18.0935
    18.0999  18.0999  18.0999  18.0999  18.2159  18.2159  18.2159  18.2159
    18.3450  18.3450  18.3450  18.3451  18.3451  18.3451  18.3451  18.3451
    18.5200  18.5200  18.5200  18.5200  18.5360  18.5360  18.5360  18.5360
    18.5360  18.5360  18.5360  18.5361  18.8642  18.8642  18.8642  18.8642
    19.5721  19.5721  19.5721  19.5721  19.6749  19.6749  19.6749  19.6749
    19.8838  19.8838  19.8838  19.8838  19.8838  19.8838  19.8838  19.8838
    20.2401  20.2402  20.2402  20.2402  20.2671  20.2671  20.2671  20.2671
    20.2671  20.2671  20.2672  20.2672  20.3936  20.3936  20.3936  20.3936
    20.4275  20.4275  20.4275  20.4275  20.4275  20.4275  20.4275  20.4275
    20.4281  20.4281  20.4281  20.4281  20.4713  20.4713  20.4713  20.4713
    21.0868  21.0868  21.0868  21.0868  23.4852  23.4852  23.4852  23.4852
    23.4852  23.4852  23.4852  23.4852  25.4888  25.4888  25.4888  25.4888
    25.4888  25.4888  25.4888  25.4888  27.7310  27.7310  27.7310  27.7310
    28.1804  28.1804  28.1804  28.1804  28.1804  28.1804  28.1804  28.1804
    28.8457  28.8457  28.8457  28.8457  31.7408  31.7408  31.7408  31.7408
    32.1878  32.1878  32.1878  32.1878  32.7909  32.7909  32.7909  32.7910
    33.3340  33.3340

          k = 0.1645 0.1645 0.1645 ( 31478 PWs)   bands (ev):

   -63.6607 -63.6329 -63.6329 -63.6329 -63.6152 -63.6152 -63.6152 -63.6126
   -63.6126 -63.6126 -63.6077 -63.6023 -63.6023 -63.6023 -63.6023 -63.6023
   -63.6023 -63.6022 -63.6022 -63.6022 -63.5948 -63.5948 -63.5948 -63.5848
   -63.5848 -63.5848 -63.5847 -63.5847 -63.5847 -63.5847 -63.5847 -63.5847
   -29.5751 -29.5751 -29.5751 -29.5582 -29.5484 -29.5484 -29.5484 -29.4858
   -29.4858 -29.4858 -29.4770 -29.4770 -29.4770 -29.4770 -29.4770 -29.4770
   -29.4702 -29.4702 -29.4702 -29.4701 -29.4701 -29.4701 -29.4372 -29.4372
   -29.4372 -29.4197 -29.4197 -29.4197 -29.4017 -29.4017 -29.4017 -29.4017
   -29.4017 -29.4017 -29.3637 -29.3636 -29.3636 -29.3205 -29.3205 -29.3205
   -29.3153 -29.3152 -29.3152 -29.3140 -29.3140 -29.3140 -29.3140 -29.3140
   -29.3140 -29.2984 -29.2984 -29.2984 -29.2945 -29.2945 -29.2945 -29.2945
   -29.2945 -29.2944 -29.2638 -29.2638 -29.2638 -29.2456 -29.2456 -29.2456
   -29.2412 -29.2412 -29.2412 -29.2240 -29.2240 -29.2240 -29.2201 -29.2200
   -29.2200 -29.2126 -29.2126 -29.2126 -29.2126 -29.2126 -29.2126 -29.2085
   -29.2085 -29.2085 -29.1991 -29.1991 -29.1991 -29.1970 -29.1970 -29.1960
   -29.1960 -29.1960 -29.1816 -29.1816 -29.1816 -29.1674 -29.1408 -29.1408
    13.4971  15.1162  15.1162  15.1162  15.1336  15.1626  15.1627  15.1627
    15.2599  15.2599  15.2599  15.4064  15.4064  15.4064  15.6941  15.6941
    15.6941  15.9689  15.9689  15.9689  16.0444  16.0444  16.0444  16.0444
    16.0444  16.0444  16.1293  16.1293  16.1293  16.2939  16.2939  16.2939
    16.3079  16.3079  16.3079  16.3079  16.3079  16.3079  16.5532  16.5532
    16.5532  16.5532  16.5532  16.5532  16.6960  16.6960  16.6960  17.0083
    17.0083  17.0083  17.1055  17.1055  17.1055  17.1055  17.1055  17.1055
    17.1859  17.1859  17.1859  17.2795  17.2795  17.2795  17.2795  17.2795
    17.2795  17.4368  17.4368  17.4368  17.5372  17.6213  17.6213  17.6213
    17.6213  17.6213  17.6213  17.6325  17.6325  17.6325  17.6343  17.6343
    17.6944  17.6944  17.6944  17.7154  17.7154  17.7375  17.7375  17.7375
    18.1611  18.1611  18.1611  18.3448  18.3448  18.3448  18.4920  18.4920
    18.4920  18.5436  18.5436  18.5436  18.6755  18.6755  18.6755  18.7275
    18.7275  18.7275  18.7275  18.7275  18.7275  19.0420  19.0420  19.0420
    19.0925  19.0925  19.0925  19.1775  19.1775  19.1775  19.2646  19.2646
    19.3099  19.3099  19.3099  19.3099  19.3099  19.3099  19.5276  19.5276
    19.5276  19.6529  19.6529  19.6529  19.6529  19.6529  19.6529  19.7844
    19.7844  19.7844  19.8190  19.8190  19.8190  20.1703  20.1703  20.1703
    20.1834  20.1834  20.1834  20.2694  20.2694  20.2694  20.3348  20.3348
    20.3348  20.3825  20.3825  20.5177  20.5747  20.5747  20.5747  20.7343
    20.7343  20.7343  20.7343  20.7343  20.7343  20.8015  20.8015  20.8015
    21.4603  21.4603  21.4603  22.5620  22.5620  22.5620  23.0170  23.0170
    23.0170  23.0171  23.0171  23.0171  24.2105  24.2105  24.2105  24.7088
    24.7088  24.7088  27.9049  27.9049  27.9049  27.9049  27.9049  27.9049
    28.2807  28.2807  28.2807  29.4749  29.7448  29.7448  29.7448  29.7448
    29.7448  29.7448  30.4871  30.4871  30.4871  32.0799  32.0799  32.0799
    32.1367  32.1367  32.1367  32.1367  32.1367  32.1367  32.3620  32.3620
    32.3620  32.3620

          k = 0.1645 0.1645 0.2742 ( 31403 PWs)   bands (ev):

   -63.6583 -63.6394 -63.6314 -63.6314 -63.6193 -63.6193 -63.6146 -63.6117
   -63.6117 -63.6094 -63.6061 -63.6047 -63.6047 -63.6023 -63.6023 -63.6022
   -63.6022 -63.6005 -63.5982 -63.5982 -63.5955 -63.5925 -63.5925 -63.5871
   -63.5862 -63.5862 -63.5856 -63.5856 -63.5848 -63.5848 -63.5847 -63.5847
   -29.5705 -29.5655 -29.5655 -29.5435 -29.5416 -29.5416 -29.5379 -29.5074
   -29.4952 -29.4952 -29.4875 -29.4875 -29.4839 -29.4838 -29.4833 -29.4833
   -29.4767 -29.4766 -29.4705 -29.4705 -29.4692 -29.4692 -29.4569 -29.4504
   -29.4278 -29.4278 -29.4184 -29.4184 -29.4047 -29.4047 -29.3904 -29.3904
   -29.3839 -29.3839 -29.3782 -29.3782 -29.3372 -29.3363 -29.3363 -29.3307
   -29.3307 -29.3246 -29.3246 -29.3093 -29.2979 -29.2979 -29.2962 -29.2962
   -29.2958 -29.2958 -29.2943 -29.2943 -29.2937 -29.2879 -29.2854 -29.2854
   -29.2833 -29.2833 -29.2616 -29.2544 -29.2502 -29.2502 -29.2487 -29.2483
   -29.2483 -29.2372 -29.2368 -29.2367 -29.2329 -29.2329 -29.2273 -29.2273
   -29.2273 -29.2272 -29.2227 -29.2141 -29.2141 -29.2125 -29.2125 -29.2121
   -29.2105 -29.2105 -29.2034 -29.2034 -29.1994 -29.1933 -29.1899 -29.1899
   -29.1856 -29.1835 -29.1829 -29.1808 -29.1772 -29.1772 -29.1458 -29.1426
    13.6444  14.8145  15.1742  15.1889  15.2030  15.2030  15.2504  15.2504
    15.3409  15.3409  15.3794  15.4644  15.5035  15.5035  15.6439  15.7465
    15.7654  15.7654  15.8263  15.8263  15.8703  15.8704  15.9575  16.0460
    16.0460  16.0804  16.0804  16.1197  16.1274  16.1274  16.2167  16.2167
    16.2249  16.2249  16.2463  16.2463  16.2883  16.2883  16.3795  16.3795
    16.5648  16.5648  16.5865  16.5865  16.7517  16.7517  16.8867  16.9174
    16.9174  16.9495  16.9495  16.9909  17.0258  17.0258  17.1284  17.1284
    17.1506  17.1506  17.2600  17.2601  17.2607  17.2607  17.3355  17.3906
    17.3906  17.4661  17.4765  17.5412  17.5412  17.6310  17.6310  17.6312
    17.6312  17.6385  17.6385  17.6551  17.6717  17.7385  17.7385  17.7655
    17.7752  17.8195  17.8195  17.8278  17.8405  17.9326  18.0357  18.0357
    18.0385  18.0385  18.1566  18.1568  18.2729  18.2729  18.2978  18.3495
    18.3495  18.4503  18.4503  18.4998  18.5212  18.5212  18.7929  18.7929
    18.8287  18.8287  18.8718  18.8801  18.9062  18.9062  19.0408  19.0408
    19.0933  19.0933  19.1748  19.1748  19.1845  19.2085  19.2085  19.2095
    19.2566  19.2566  19.3028  19.3028  19.3076  19.3360  19.4212  19.4865
    19.4866  19.6618  19.7027  19.7027  19.8262  19.8565  19.8565  19.8780
    19.8780  19.8881  19.8881  19.8888  19.8888  19.9614  19.9614  19.9900
    20.1015  20.1117  20.1117  20.2271  20.2284  20.2352  20.2352  20.3148
    20.5379  20.5569  20.5569  20.6016  20.6016  20.6172  20.6172  20.6196
    20.6196  20.6879  20.7298  20.7376  20.7376  20.7396  20.7840  20.7840
    21.0453  21.0453  21.3821  22.5088  22.5088  22.6549  22.6549  22.9837
    22.9838  23.2319  23.5927  23.6788  23.6788  24.6566  24.6835  24.6835
    25.3675  25.3675  27.0272  27.0272  27.2459  27.2459  28.0692  28.0692
    28.1095  28.5989  28.5989  28.8578  28.8578  29.6084  29.9698  29.9698
    29.9699  29.9699  30.0384  30.2856  30.2856  31.2310  31.2310  31.6163
    31.6163  31.9973  31.9973  32.3172  32.3172  32.5370  32.5370  32.7354
    32.7356  32.7673

          k = 0.1645 0.1645 0.3838 ( 31368 PWs)   bands (ev):

   -63.6549 -63.6453 -63.6292 -63.6292 -63.6231 -63.6231 -63.6136 -63.6110
   -63.6104 -63.6104 -63.6069 -63.6069 -63.6023 -63.6023 -63.6022 -63.6022
   -63.6002 -63.5989 -63.5964 -63.5945 -63.5945 -63.5906 -63.5903 -63.5903
   -63.5884 -63.5884 -63.5868 -63.5868 -63.5848 -63.5847 -63.5847 -63.5847
   -29.5608 -29.5520 -29.5519 -29.5318 -29.5318 -29.5284 -29.5246 -29.5223
   -29.5154 -29.5154 -29.5041 -29.5041 -29.4863 -29.4863 -29.4824 -29.4824
   -29.4803 -29.4803 -29.4797 -29.4779 -29.4723 -29.4723 -29.4596 -29.4596
   -29.4380 -29.4380 -29.4046 -29.4046 -29.3980 -29.3980 -29.3907 -29.3907
   -29.3771 -29.3771 -29.3664 -29.3664 -29.3556 -29.3556 -29.3469 -29.3469
   -29.3364 -29.3364 -29.3095 -29.3006 -29.2950 -29.2950 -29.2943 -29.2943
   -29.2865 -29.2830 -29.2830 -29.2764 -29.2757 -29.2757 -29.2731 -29.2731
   -29.2702 -29.2702 -29.2667 -29.2587 -29.2587 -29.2583 -29.2571 -29.2439
   -29.2439 -29.2429 -29.2429 -29.2399 -29.2398 -29.2342 -29.2342 -29.2325
   -29.2301 -29.2301 -29.2208 -29.2179 -29.2179 -29.2155 -29.2123 -29.2123
   -29.2115 -29.2115 -29.2113 -29.2113 -29.2066 -29.2043 -29.1901 -29.1847
   -29.1830 -29.1830 -29.1761 -29.1761 -29.1731 -29.1673 -29.1530 -29.1478
    13.8600  14.4614  15.2572  15.2908  15.3291  15.3291  15.3724  15.3724
    15.4615  15.4615  15.5327  15.5377  15.5465  15.5506  15.6461  15.6461
    15.6730  15.6730  15.6750  15.6750  15.8005  15.8159  15.8159  15.8628
    15.8628  15.9155  16.0457  16.0457  16.0997  16.0997  16.1219  16.1219
    16.2025  16.2025  16.2411  16.2411  16.3693  16.3693  16.4076  16.4076
    16.5825  16.5825  16.6485  16.6486  16.7349  16.7349  16.7841  16.7841
    16.8323  16.8323  16.8503  16.8503  17.0371  17.0371  17.0398  17.0677
    17.2056  17.2056  17.2279  17.2915  17.2915  17.3323  17.3323  17.3711
    17.4462  17.4462  17.4564  17.4564  17.5904  17.6401  17.6401  17.6423
    17.6423  17.6547  17.7445  17.7684  17.7684  17.8560  17.8642  17.9163
    17.9163  17.9322  17.9322  17.9728  17.9728  17.9738  17.9790  17.9790
    17.9899  18.0893  18.1270  18.1857  18.2464  18.3122  18.3556  18.3556
    18.3771  18.3771  18.4232  18.4232  18.4882  18.4882  18.8434  18.8434
    18.8685  18.8882  18.9161  18.9161  18.9301  18.9301  19.0385  19.0385
    19.0664  19.0664  19.0731  19.0731  19.0758  19.1735  19.1735  19.2022
    19.2023  19.2258  19.2269  19.2675  19.2675  19.3707  19.4340  19.4340
    19.5501  19.5817  19.6591  19.6974  19.6974  19.7934  19.7934  19.8626
    20.0166  20.0166  20.0363  20.0438  20.0438  20.0742  20.0904  20.0904
    20.0928  20.0928  20.1164  20.1165  20.1249  20.1249  20.1671  20.4395
    20.4530  20.4655  20.4655  20.4661  20.4661  20.4682  20.4682  20.6554
    20.6671  20.6671  20.7433  20.7434  20.7662  20.7662  20.9146  21.0577
    21.0577  21.2647  21.3797  22.0142  22.0142  22.7595  22.7595  22.8590
    22.9303  22.9303  23.8161  24.4214  24.4214  24.5245  25.2662  25.2662
    26.0897  26.0897  26.1171  26.1171  26.5738  26.5738  27.6842  27.6842
    28.1204  28.6590  28.6590  28.8791  29.0679  29.0679  29.4746  29.4746
    30.2872  30.2872  30.4031  30.4031  30.6743  30.8104  30.8104  31.1265
    31.1265  31.7546  31.7546  32.1485  32.2969  32.2969  32.4373  32.4373
    32.6727  32.6727

          k = 0.1645 0.1645-0.4935 ( 31336 PWs)   bands (ev):

   -63.6505 -63.6505 -63.6265 -63.6264 -63.6264 -63.6264 -63.6125 -63.6124
   -63.6088 -63.6088 -63.6088 -63.6088 -63.6023 -63.6023 -63.6022 -63.6022
   -63.5975 -63.5975 -63.5950 -63.5949 -63.5912 -63.5912 -63.5911 -63.5911
   -63.5884 -63.5884 -63.5884 -63.5884 -63.5848 -63.5847 -63.5847 -63.5847
   -29.5464 -29.5464 -29.5350 -29.5350 -29.5350 -29.5350 -29.5191 -29.5191
   -29.5191 -29.5191 -29.5030 -29.5030 -29.5022 -29.5022 -29.4858 -29.4858
   -29.4858 -29.4858 -29.4759 -29.4759 -29.4759 -29.4759 -29.4489 -29.4489
   -29.4489 -29.4489 -29.3997 -29.3997 -29.3997 -29.3997 -29.3768 -29.3768
   -29.3768 -29.3768 -29.3625 -29.3625 -29.3625 -29.3625 -29.3504 -29.3504
   -29.3504 -29.3504 -29.2944 -29.2944 -29.2944 -29.2944 -29.2896 -29.2895
   -29.2826 -29.2826 -29.2775 -29.2775 -29.2698 -29.2698 -29.2697 -29.2697
   -29.2586 -29.2586 -29.2586 -29.2586 -29.2566 -29.2565 -29.2565 -29.2565
   -29.2564 -29.2564 -29.2564 -29.2564 -29.2290 -29.2290 -29.2235 -29.2235
   -29.2235 -29.2235 -29.2217 -29.2217 -29.2217 -29.2217 -29.2183 -29.2183
   -29.2179 -29.2179 -29.2121 -29.2121 -29.2121 -29.2121 -29.1871 -29.1871
   -29.1782 -29.1782 -29.1782 -29.1782 -29.1622 -29.1622 -29.1562 -29.1562
    14.1365  14.1365  15.3819  15.3819  15.4122  15.4122  15.4892  15.4892
    15.4892  15.4893  15.5177  15.5177  15.5177  15.5177  15.6204  15.6204
    15.6204  15.6204  15.6635  15.6635  15.7143  15.7143  15.8292  15.8292
    15.8292  15.8292  15.9774  15.9774  15.9774  15.9774  16.1624  16.1624
    16.1624  16.1624  16.3566  16.3567  16.3567  16.3567  16.5589  16.5589
    16.5589  16.5589  16.6225  16.6225  16.6225  16.6225  16.7408  16.7408
    16.7408  16.7408  16.9315  16.9315  16.9316  16.9316  17.1250  17.1250
    17.2319  17.2319  17.2684  17.2684  17.2684  17.2684  17.3571  17.3571
    17.3571  17.3571  17.6351  17.6351  17.6442  17.6442  17.6442  17.6442
    17.7010  17.7010  17.7010  17.7010  17.8249  17.8249  17.8249  17.8249
    17.8514  17.8514  17.9728  17.9728  17.9819  17.9819  18.0545  18.0545
    18.0545  18.0545  18.1333  18.1333  18.4008  18.4008  18.4008  18.4008
    18.4833  18.4833  18.4833  18.4833  18.5663  18.5663  18.6735  18.6735
    18.9575  18.9575  18.9585  18.9585  18.9585  18.9585  18.9839  18.9839
    18.9839  18.9839  19.0621  19.0621  19.0621  19.0621  19.1469  19.1469
    19.1469  19.1469  19.1899  19.1899  19.1899  19.1899  19.4522  19.4523
    19.5656  19.5656  19.8182  19.8182  19.8807  19.8807  19.9051  19.9051
    19.9051  19.9051  19.9081  19.9081  19.9081  19.9081  20.2871  20.2871
    20.2871  20.2871  20.2968  20.2969  20.2969  20.2969  20.3158  20.3159
    20.3159  20.3159  20.3263  20.3263  20.3275  20.3275  20.3275  20.3275
    20.5541  20.5541  20.7525  20.7526  20.7526  20.7526  21.1082  21.1083
    21.5302  21.5302  21.5302  21.5302  22.1017  22.1017  22.8548  22.8549
    22.8549  22.8549  24.2554  24.2554  25.2391  25.2391  25.2391  25.2391
    25.9066  25.9066  25.9066  25.9067  26.8742  26.8742  26.8742  26.8742
    28.3699  28.3699  29.0197  29.0197  29.0197  29.0197  29.6752  29.6752
    29.6752  29.6752  30.6786  30.6786  30.6786  30.6786  31.3168  31.3168
    31.3168  31.3168  31.3794  31.3794  32.3193  32.3193  32.3193  32.3194
    32.8384  32.8384

          k = 0.1645 0.2742 0.2742 ( 31379 PWs)   bands (ev):

   -63.6561 -63.6377 -63.6377 -63.6300 -63.6240 -63.6185 -63.6185 -63.6117
   -63.6109 -63.6055 -63.6055 -63.6045 -63.6045 -63.6028 -63.6001 -63.6000
   -63.6000 -63.5999 -63.5984 -63.5984 -63.5933 -63.5933 -63.5907 -63.5871
   -63.5870 -63.5870 -63.5869 -63.5864 -63.5864 -63.5854 -63.5854 -63.5848
   -29.5629 -29.5629 -29.5551 -29.5350 -29.5324 -29.5324 -29.5270 -29.5059
   -29.5059 -29.5003 -29.5003 -29.4898 -29.4898 -29.4859 -29.4859 -29.4846
   -29.4845 -29.4822 -29.4822 -29.4814 -29.4798 -29.4798 -29.4552 -29.4552
   -29.4379 -29.4379 -29.4371 -29.3966 -29.3921 -29.3920 -29.3904 -29.3867
   -29.3867 -29.3739 -29.3739 -29.3527 -29.3502 -29.3502 -29.3358 -29.3180
   -29.3179 -29.3147 -29.3147 -29.3129 -29.3129 -29.3053 -29.3053 -29.2914
   -29.2913 -29.2913 -29.2864 -29.2864 -29.2833 -29.2833 -29.2827 -29.2827
   -29.2765 -29.2765 -29.2665 -29.2665 -29.2510 -29.2510 -29.2474 -29.2455
   -29.2455 -29.2394 -29.2376 -29.2349 -29.2349 -29.2332 -29.2311 -29.2311
   -29.2299 -29.2299 -29.2289 -29.2263 -29.2263 -29.2162 -29.2162 -29.2146
   -29.2146 -29.2142 -29.2009 -29.1980 -29.1956 -29.1923 -29.1921 -29.1895
   -29.1895 -29.1789 -29.1789 -29.1754 -29.1754 -29.1704 -29.1495 -29.1436
    13.7869  14.9147  14.9147  15.1939  15.2724  15.2747  15.2747  15.3024
    15.4007  15.4643  15.4643  15.5614  15.5614  15.6110  15.6319  15.6477
    15.6477  15.7158  15.7158  15.7791  15.8875  15.8875  15.9449  15.9449
    15.9887  15.9887  16.0581  16.0581  16.1276  16.1276  16.1341  16.1377
    16.1377  16.1451  16.1452  16.2426  16.2426  16.3268  16.3268  16.3655
    16.3774  16.3774  16.5807  16.5807  16.8316  16.8316  16.8464  16.9041
    16.9137  16.9137  16.9274  16.9274  16.9672  16.9672  17.1199  17.1730
    17.1730  17.2708  17.2708  17.3182  17.3182  17.3664  17.4408  17.4445
    17.4445  17.4765  17.4765  17.5782  17.5782  17.5972  17.5972  17.6731
    17.7190  17.7301  17.7836  17.7836  17.7989  17.8203  17.8469  17.8828
    17.8828  17.8955  17.9152  17.9153  17.9347  17.9347  17.9644  18.0153
    18.0153  18.0703  18.0703  18.1205  18.1665  18.1665  18.2728  18.2728
    18.2874  18.3570  18.5518  18.5518  18.5942  18.5942  18.6198  18.6198
    18.6909  18.6909  18.8952  18.9188  18.9190  18.9381  18.9415  18.9415
    18.9869  18.9869  19.0247  19.0247  19.1694  19.2099  19.2099  19.2946
    19.2946  19.3002  19.3302  19.3302  19.3710  19.4122  19.4122  19.4797
    19.4797  19.4953  19.6454  19.7054  19.7054  19.7089  19.7089  19.8602
    19.9322  19.9322  19.9684  19.9684  20.0655  20.0828  20.0828  20.0868
    20.1136  20.1136  20.1389  20.1389  20.2823  20.3069  20.3069  20.3174
    20.3756  20.5556  20.5556  20.5565  20.5565  20.5869  20.6271  20.6271
    20.6304  20.6304  20.6736  20.7330  20.7330  20.7393  20.7471  20.9672
    20.9672  21.1409  21.1409  22.4873  22.4873  22.5310  23.1541  23.1541
    23.4105  23.4105  23.6772  23.6772  24.0483  24.0483  25.0975  25.3071
[...]
    22.5916  22.5916  22.5916  22.5916  23.7745  23.7745  23.7745  23.7745
    23.7745  23.7745  23.7745  23.7745  25.0381  25.0381  25.0381  25.0381
    25.0381  25.0381  25.0381  25.0381  26.2486  26.2486  26.2486  26.2486
    28.8206  28.8206  28.8206  28.8206  28.8206  28.8206  28.8206  28.8206
    29.2445  29.2445  29.2445  29.2445  31.0297  31.0297  31.0297  31.0297
    31.5525  31.5525  31.5525  31.5525  31.5525  31.5525  31.5525  31.5525
    33.3301  33.3301

          k = 0.3838 0.3838 0.3838 ( 31354 PWs)   bands (ev):

   -63.6447 -63.6365 -63.6365 -63.6365 -63.6295 -63.6295 -63.6295 -63.6238
   -63.5983 -63.5983 -63.5982 -63.5970 -63.5970 -63.5970 -63.5970 -63.5970
   -63.5970 -63.5970 -63.5969 -63.5969 -63.5912 -63.5912 -63.5912 -63.5901
   -63.5901 -63.5901 -63.5900 -63.5900 -63.5900 -63.5900 -63.5900 -63.5900
   -29.5306 -29.5306 -29.5305 -29.5146 -29.5146 -29.5146 -29.5107 -29.5107
   -29.5107 -29.5075 -29.5075 -29.5075 -29.5075 -29.5075 -29.5075 -29.5063
   -29.5063 -29.5063 -29.5063 -29.5063 -29.5063 -29.4936 -29.4936 -29.4936
   -29.4415 -29.3911 -29.3911 -29.3911 -29.3475 -29.3475 -29.3475 -29.3475
   -29.3475 -29.3475 -29.3434 -29.3434 -29.3434 -29.3401 -29.3401 -29.3401
   -29.3336 -29.3336 -29.3336 -29.2999 -29.2999 -29.2999 -29.2999 -29.2999
   -29.2999 -29.2922 -29.2922 -29.2922 -29.2874 -29.2865 -29.2864 -29.2864
   -29.2713 -29.2713 -29.2713 -29.2628 -29.2628 -29.2628 -29.2628 -29.2628
   -29.2628 -29.2544 -29.2544 -29.2544 -29.2477 -29.2477 -29.2477 -29.2450
   -29.2450 -29.2450 -29.2450 -29.2450 -29.2450 -29.2357 -29.2357 -29.2357
   -29.1879 -29.1879 -29.1879 -29.1801 -29.1801 -29.1750 -29.1750 -29.1750
   -29.1681 -29.1681 -29.1681 -29.1660 -29.1660 -29.1660 -29.1579 -29.1579
    14.4665  14.9021  14.9021  14.9021  15.1534  15.1534  15.1534  15.1778
    15.5878  15.5878  15.5878  15.7332  15.7332  15.7332  15.7612  15.7612
    15.7612  15.8164  15.8164  15.8164  15.8164  15.8164  15.8164  15.8558
    15.8558  15.8558  15.8558  15.8558  15.8558  15.8878  15.8878  15.8878
    16.0836  16.0836  16.0836  16.3845  16.3845  16.3845  16.4553  16.4553
    16.4553  16.4553  16.4553  16.4553  16.7425  16.7425  16.7425  16.7553
    16.7553  16.7553  16.7553  16.7553  16.7553  16.9835  16.9835  16.9835
    17.3380  17.3380  17.3380  17.3778  17.5894  17.5894  17.5894  17.8432
    17.8432  17.8670  17.8670  17.8670  17.8671  17.8671  17.8671  17.9322
    17.9322  17.9389  17.9389  17.9389  17.9654  17.9654  17.9654  17.9664
    17.9664  17.9664  18.0131  18.0131  18.0131  18.0398  18.0398  18.0398
    18.1143  18.1143  18.1143  18.1191  18.1191  18.1191  18.1191  18.1191
    18.1191  18.2319  18.2319  18.2319  18.2756  18.4192  18.4192  18.4192
    18.6952  18.6952  18.6952  18.8016  18.8016  18.8016  18.8034  18.8034
    18.8034  18.8034  18.8034  18.8034  19.0275  19.0275  19.0275  19.1778
    19.1778  19.1778  19.1778  19.1778  19.1778  19.2428  19.2428  19.2428
    19.2741  19.2741  19.3149  19.3149  19.3149  19.4405  19.4405  19.4405
    19.5973  19.5973  19.5973  19.7666  19.7666  19.9071  19.9071  19.9071
    20.5062  20.5062  20.5062  20.5493  20.5493  20.5493  20.5493  20.5493
    20.5493  20.5886  20.5886  20.5886  20.5886  20.5886  20.5886  20.6229
    20.6229  20.6229  20.6314  20.6314  20.6314  20.6949  20.6949  20.6949
    22.7956  22.7956  22.7956  23.5901  23.5901  23.5901  23.5902  23.5902
    23.5902  23.9799  23.9799  23.9799  24.5034  24.5034  24.5034  25.4094
    25.4094  25.4094  25.4094  25.4094  25.4094  25.8691  25.8691  25.8691
    28.4359  28.4359  28.4359  29.1898  29.1898  29.1898  29.6697  29.6697
    29.6697  29.6697  29.6697  29.6697  30.5672  30.5672  30.5672  30.5672
    30.5672  30.5672  31.0128  31.0128  31.0128  31.9761  31.9761  31.9761
    33.2841  34.1995

          k = 0.3838 0.3838-0.4935 ( 31390 PWs)   bands (ev):

   -63.6410 -63.6409 -63.6333 -63.6333 -63.6333 -63.6333 -63.6269 -63.6269
   -63.5977 -63.5977 -63.5977 -63.5977 -63.5970 -63.5970 -63.5969 -63.5969
   -63.5939 -63.5938 -63.5938 -63.5938 -63.5932 -63.5932 -63.5932 -63.5932
   -63.5906 -63.5906 -63.5906 -63.5906 -63.5901 -63.5900 -63.5900 -63.5900
   -29.5251 -29.5251 -29.5196 -29.5196 -29.5196 -29.5196 -29.5105 -29.5105
   -29.5105 -29.5105 -29.5088 -29.5088 -29.5088 -29.5088 -29.5086 -29.5085
   -29.5085 -29.5085 -29.5038 -29.5038 -29.5007 -29.5007 -29.5007 -29.5007
   -29.4165 -29.4165 -29.3654 -29.3654 -29.3654 -29.3654 -29.3463 -29.3463
   -29.3463 -29.3463 -29.3411 -29.3410 -29.3410 -29.3410 -29.3237 -29.3237
   -29.3237 -29.3237 -29.3145 -29.3145 -29.3139 -29.3138 -29.3131 -29.3131
   -29.2952 -29.2952 -29.2952 -29.2952 -29.2923 -29.2923 -29.2923 -29.2923
   -29.2666 -29.2666 -29.2666 -29.2666 -29.2636 -29.2636 -29.2548 -29.2548
   -29.2548 -29.2548 -29.2548 -29.2548 -29.2548 -29.2547 -29.2499 -29.2499
   -29.2499 -29.2499 -29.2423 -29.2423 -29.2408 -29.2408 -29.2408 -29.2408
   -29.1821 -29.1821 -29.1795 -29.1795 -29.1795 -29.1795 -29.1736 -29.1736
   -29.1664 -29.1664 -29.1664 -29.1664 -29.1658 -29.1657 -29.1600 -29.1600
    14.6697  14.6697  15.0202  15.0202  15.0202  15.0202  15.1565  15.1565
    15.6646  15.6646  15.6852  15.6852  15.6852  15.6852  15.7825  15.7825
    15.7825  15.7825  15.7995  15.7995  15.7995  15.7995  15.8385  15.8385
    15.8408  15.8408  15.8408  15.8408  15.8480  15.8480  15.8480  15.8480
    16.2177  16.2177  16.2700  16.2700  16.2700  16.2700  16.5795  16.5795
    16.5795  16.5795  16.5857  16.5857  16.5857  16.5857  16.6091  16.6091
    16.6091  16.6091  16.8452  16.8452  16.8880  16.8880  16.8880  16.8880
    17.3757  17.3757  17.4771  17.4771  17.4771  17.4771  17.8465  17.8465
    17.8895  17.8895  17.9448  17.9448  17.9448  17.9448  17.9538  17.9538
    17.9620  17.9620  17.9780  17.9780  17.9780  17.9780  17.9805  17.9805
    17.9813  17.9813  17.9813  17.9813  17.9886  17.9886  17.9886  17.9886
    18.0401  18.0401  18.0401  18.0401  18.0675  18.0675  18.0843  18.0843
    18.0843  18.0843  18.4142  18.4142  18.4142  18.4142  18.4700  18.4700
    18.5860  18.5860  18.5860  18.5860  18.6054  18.6054  18.8964  18.8964
    18.8964  18.8964  18.9697  18.9697  18.9697  18.9697  18.9944  18.9944
    18.9944  18.9944  19.2224  19.2225  19.2354  19.2354  19.2977  19.2977
    19.2977  19.2977  19.2988  19.2988  19.2988  19.2988  19.4274  19.4274
    19.5422  19.5422  19.6972  19.6972  19.6972  19.6972  19.8145  19.8145
    20.5639  20.5639  20.5639  20.5639  20.5836  20.5836  20.5881  20.5881
    20.5881  20.5881  20.6166  20.6166  20.6166  20.6166  20.6190  20.6190
    20.6190  20.6190  20.6538  20.6538  20.6538  20.6538  20.6808  20.6808
    23.1709  23.1710  23.1710  23.1710  23.6360  23.6360  23.7739  23.7739
    23.7739  23.7739  24.4794  24.4794  24.4794  24.4794  24.9194  24.9194
    24.9444  24.9444  24.9444  24.9444  25.6695  25.6695  25.6695  25.6695
    28.7679  28.7679  28.9650  28.9650  28.9650  28.9650  29.8259  29.8259
    29.8259  29.8259  30.0863  30.0863  30.0863  30.0863  30.3085  30.3085
    30.3085  30.3085  31.2416  31.2416  31.2416  31.2416  31.4617  31.4617
    33.9855  34.2949

          k = 0.3838-0.4935-0.4935 ( 31340 PWs)   bands (ev):

   -63.6375 -63.6375 -63.6375 -63.6374 -63.6304 -63.6304 -63.6304 -63.6304
   -63.5974 -63.5974 -63.5974 -63.5973 -63.5936 -63.5936 -63.5936 -63.5936
   -63.5935 -63.5935 -63.5935 -63.5935 -63.5935 -63.5935 -63.5935 -63.5935
   -63.5935 -63.5935 -63.5935 -63.5934 -63.5903 -63.5903 -63.5903 -63.5903
   -29.5173 -29.5172 -29.5172 -29.5172 -29.5172 -29.5172 -29.5172 -29.5172
   -29.5104 -29.5104 -29.5104 -29.5104 -29.5094 -29.5093 -29.5093 -29.5093
   -29.5064 -29.5064 -29.5064 -29.5064 -29.5063 -29.5063 -29.5063 -29.5063
   -29.3909 -29.3909 -29.3909 -29.3909 -29.3444 -29.3444 -29.3444 -29.3444
   -29.3389 -29.3389 -29.3389 -29.3389 -29.3190 -29.3190 -29.3190 -29.3190
   -29.3190 -29.3189 -29.3189 -29.3189 -29.3187 -29.3187 -29.3187 -29.3187
   -29.3187 -29.3186 -29.3186 -29.3186 -29.2929 -29.2929 -29.2929 -29.2929
   -29.2601 -29.2601 -29.2601 -29.2601 -29.2590 -29.2590 -29.2590 -29.2590
   -29.2590 -29.2590 -29.2590 -29.2590 -29.2484 -29.2484 -29.2484 -29.2484
   -29.2484 -29.2484 -29.2484 -29.2484 -29.2456 -29.2456 -29.2455 -29.2455
   -29.1771 -29.1771 -29.1770 -29.1770 -29.1712 -29.1712 -29.1712 -29.1712
   -29.1709 -29.1709 -29.1709 -29.1709 -29.1623 -29.1623 -29.1623 -29.1623
    14.8343  14.8343  14.8343  14.8343  15.0811  15.0811  15.0811  15.0811
    15.7413  15.7413  15.7413  15.7413  15.7413  15.7414  15.7414  15.7414
    15.7479  15.7479  15.7479  15.7479  15.7809  15.7809  15.7809  15.7809
    15.8341  15.8341  15.8341  15.8341  15.8341  15.8341  15.8341  15.8341
    16.4066  16.4066  16.4066  16.4066  16.4066  16.4066  16.4066  16.4066
    16.4463  16.4463  16.4463  16.4463  16.7301  16.7301  16.7301  16.7301
    16.7301  16.7301  16.7301  16.7301  16.7530  16.7530  16.7530  16.7530
    17.4436  17.4436  17.4437  17.4437  17.7109  17.7109  17.7109  17.7109
    17.9151  17.9151  17.9151  17.9151  17.9285  17.9285  17.9285  17.9285
    17.9538  17.9538  17.9538  17.9538  17.9570  17.9570  17.9570  17.9570
    18.0010  18.0010  18.0010  18.0010  18.0237  18.0238  18.0238  18.0238
    18.0238  18.0238  18.0238  18.0238  18.2288  18.2288  18.2288  18.2288
    18.2288  18.2288  18.2288  18.2288  18.2619  18.2619  18.2619  18.2619
    18.7102  18.7103  18.7103  18.7103  18.7753  18.7753  18.7753  18.7753
    18.7753  18.7753  18.7753  18.7753  19.0987  19.0987  19.0987  19.0987
    19.0987  19.0987  19.0987  19.0987  19.1105  19.1105  19.1105  19.1105
    19.2657  19.2657  19.2657  19.2657  19.4796  19.4796  19.4796  19.4797
    19.5148  19.5148  19.5148  19.5148  19.6656  19.6656  19.6656  19.6656
    20.6110  20.6110  20.6110  20.6110  20.6110  20.6110  20.6110  20.6110
    20.6245  20.6245  20.6245  20.6245  20.6505  20.6505  20.6505  20.6505
    20.6540  20.6540  20.6540  20.6540  20.6541  20.6541  20.6541  20.6541
    23.4504  23.4504  23.4504  23.4504  24.0416  24.0416  24.0416  24.0416
    24.0416  24.0416  24.0416  24.0416  24.7044  24.7044  24.7044  24.7045
    24.7045  24.7045  24.7045  24.7045  25.3050  25.3050  25.3050  25.3050
    29.3620  29.3620  29.3620  29.3620  29.3620  29.3620  29.3620  29.3620
    29.5859  29.5859  29.5859  29.5859  30.4946  30.4946  30.4946  30.4946
    30.7423  30.7423  30.7423  30.7423  30.7423  30.7423  30.7423  30.7423
    34.4023  34.4023

          k =-0.4935-0.4935-0.4935 ( 31408 PWs)   bands (ev):

   -63.6343 -63.6343 -63.6343 -63.6343 -63.6342 -63.6342 -63.6342 -63.6342
   -63.5936 -63.5936 -63.5936 -63.5936 -63.5936 -63.5936 -63.5936 -63.5935
   -63.5935 -63.5935 -63.5935 -63.5935 -63.5935 -63.5935 -63.5935 -63.5935
   -63.5935 -63.5935 -63.5935 -63.5935 -63.5935 -63.5935 -63.5935 -63.5935
   -29.5120 -29.5120 -29.5120 -29.5119 -29.5119 -29.5119 -29.5119 -29.5119
   -29.5119 -29.5119 -29.5119 -29.5119 -29.5119 -29.5119 -29.5119 -29.5119
   -29.5119 -29.5119 -29.5119 -29.5119 -29.5119 -29.5119 -29.5119 -29.5119
   -29.3645 -29.3645 -29.3645 -29.3645 -29.3645 -29.3645 -29.3645 -29.3645
   -29.3190 -29.3190 -29.3190 -29.3190 -29.3190 -29.3190 -29.3190 -29.3190
   -29.3190 -29.3190 -29.3190 -29.3190 -29.3190 -29.3190 -29.3190 -29.3190
   -29.3189 -29.3189 -29.3189 -29.3189 -29.3189 -29.3189 -29.3189 -29.3189
   -29.2536 -29.2536 -29.2536 -29.2536 -29.2536 -29.2536 -29.2536 -29.2536
   -29.2536 -29.2536 -29.2536 -29.2536 -29.2536 -29.2536 -29.2536 -29.2536
   -29.2536 -29.2536 -29.2536 -29.2536 -29.2535 -29.2535 -29.2535 -29.2535
   -29.1691 -29.1691 -29.1691 -29.1691 -29.1691 -29.1691 -29.1691 -29.1691
   -29.1691 -29.1691 -29.1691 -29.1691 -29.1691 -29.1690 -29.1690 -29.1690
    14.9498  14.9498  14.9498  14.9498  14.9498  14.9498  14.9498  14.9498
    15.7753  15.7753  15.7753  15.7753  15.7753  15.7753  15.7753  15.7753
    15.7753  15.7753  15.7753  15.7753  15.7753  15.7753  15.7753  15.7753
    15.7753  15.7753  15.7753  15.7753  15.7753  15.7753  15.7753  15.7753
    16.5808  16.5808  16.5808  16.5808  16.5808  16.5808  16.5808  16.5808
    16.5808  16.5808  16.5808  16.5808  16.5808  16.5808  16.5808  16.5808
    16.5808  16.5808  16.5808  16.5808  16.5808  16.5808  16.5808  16.5808
    17.5970  17.5970  17.5970  17.5970  17.5970  17.5970  17.5970  17.5970
    17.9300  17.9300  17.9300  17.9300  17.9300  17.9300  17.9300  17.9300
    17.9300  17.9300  17.9300  17.9300  17.9300  17.9300  17.9300  17.9300
    18.1295  18.1295  18.1295  18.1295  18.1295  18.1295  18.1295  18.1295
    18.1295  18.1295  18.1295  18.1295  18.1295  18.1295  18.1295  18.1295
    18.1295  18.1295  18.1295  18.1295  18.1295  18.1295  18.1295  18.1295
    18.9082  18.9082  18.9082  18.9082  18.9082  18.9082  18.9082  18.9082
    18.9082  18.9082  18.9082  18.9082  18.9082  18.9082  18.9082  18.9082
    18.9082  18.9082  18.9082  18.9082  18.9082  18.9082  18.9082  18.9083
    19.4616  19.4616  19.4616  19.4616  19.4616  19.4616  19.4616  19.4616
    19.4616  19.4616  19.4616  19.4616  19.4616  19.4616  19.4617  19.4617
    20.6567  20.6567  20.6567  20.6567  20.6567  20.6567  20.6567  20.6567
    20.6567  20.6567  20.6567  20.6567  20.6567  20.6567  20.6567  20.6567
    20.6567  20.6567  20.6567  20.6567  20.6567  20.6567  20.6567  20.6567
    24.3612  24.3612  24.3612  24.3612  24.3612  24.3612  24.3612  24.3612
    24.3612  24.3612  24.3612  24.3612  24.3612  24.3612  24.3612  24.3612
    24.3612  24.3612  24.3612  24.3612  24.3612  24.3612  24.3612  24.3612
    30.0079  30.0079  30.0079  30.0079  30.0079  30.0079  30.0079  30.0079
    30.0079  30.0079  30.0079  30.0079  30.0079  30.0079  30.0079  30.0079
    30.0079  30.0079  30.0079  30.0079  30.0079  30.0079  30.0079  30.0079
    35.3306  35.4898

     the Fermi energy is    20.6645 ev

!    total energy              =  -16384.88419468 Ry

     total all-electron energy =   -322945.737902 Ry
     estimated scf accuracy    <       0.00000033 Ry
     smearing contrib. (-TS)   =       0.01771211 Ry
     internal energy E=F+TS    =  -16384.90190680 Ry

     The total energy is F=E-TS. E is the sum of the following terms:
     one-electron contribution =   -2313.99475938 Ry
     hartree contribution      =    1600.83509633 Ry
     xc contribution           =    -987.79659288 Ry
     ewald contribution        =   -6516.45851155 Ry
     one-center paw contrib.   =   -8167.48713930 Ry

     convergence has been achieved in  12 iterations

     Forces acting on atoms (cartesian axes, Ry/au):

     atom    1 type  1   force =     0.00000000    0.00000000    0.00000000
     atom    2 type  1   force =    -0.00001681   -0.00001681    0.00000000
     atom    3 type  1   force =    -0.00001681   -0.00000000   -0.00001681
     atom    4 type  1   force =     0.00000000   -0.00001681   -0.00001681
     atom    5 type  1   force =     0.00000000    0.00000000    0.00000000
     atom    6 type  1   force =    -0.00001735   -0.00001735   -0.00000000
     atom    7 type  1   force =    -0.00001681   -0.00000000    0.00001681
     atom    8 type  1   force =     0.00000000   -0.00001681    0.00001681
     atom    9 type  1   force =     0.00000000    0.00000000    0.00000000
     atom   10 type  1   force =    -0.00001681    0.00001681    0.00000000
     atom   11 type  1   force =    -0.00001735    0.00000000   -0.00001735
     atom   12 type  1   force =    -0.00000000    0.00001681   -0.00001681
     atom   13 type  1   force =     0.00000000    0.00000000    0.00000000
     atom   14 type  1   force =    -0.00001735    0.00001735    0.00000000
     atom   15 type  1   force =    -0.00001735    0.00000000    0.00001735
     atom   16 type  1   force =     0.00000000    0.00001681    0.00001681
     atom   17 type  1   force =     0.00000000    0.00000000    0.00000000
     atom   18 type  1   force =     0.00001681   -0.00001681    0.00000000
     atom   19 type  1   force =     0.00001681    0.00000000   -0.00001681
     atom   20 type  1   force =     0.00000000   -0.00001735   -0.00001735
     atom   21 type  1   force =     0.00000000    0.00000000    0.00000000
     atom   22 type  1   force =     0.00001735   -0.00001735   -0.00000000
     atom   23 type  1   force =     0.00001681   -0.00000000    0.00001681
     atom   24 type  1   force =     0.00000000   -0.00001735    0.00001735
     atom   25 type  1   force =     0.00000000    0.00000000    0.00000000
     atom   26 type  1   force =     0.00001681    0.00001681    0.00000000
     atom   27 type  1   force =     0.00001735    0.00000000   -0.00001735
     atom   28 type  1   force =     0.00000000    0.00001735   -0.00001735
     atom   29 type  1   force =     0.00000000    0.00000000    0.00000000
     atom   30 type  1   force =     0.00001735    0.00001735   -0.00000000
     atom   31 type  1   force =     0.00001735   -0.00000000    0.00001735
     atom   32 type  1   force =     0.00000000    0.00001735    0.00001735

     Total force =     0.000118     Total SCF correction =     0.001048
     SCF correction compared to forces is large: reduce conv_thr to get better values


     Computing stress (Cartesian axis) and pressure

          total   stress  (Ry/bohr**3)                   (kbar)     P=      108.11
   0.00073489   0.00000000   0.00000000          108.11        0.00        0.00
   0.00000000   0.00073489   0.00000000            0.00      108.11        0.00
   0.00000000   0.00000000   0.00073489            0.00        0.00      108.11


     Writing output data file /scratch/EnCmiHlSiDlxnuCa.save/
 
     init_run     :     13.60s CPU     13.92s WALL (       1 calls)
     electrons    :    513.48s CPU    521.18s WALL (       1 calls)
     forces       :      5.73s CPU      5.79s WALL (       1 calls)
     stress       :     37.86s CPU     38.19s WALL (       1 calls)

     Called by init_run:
     wfcinit      :     13.05s CPU     13.29s WALL (       1 calls)
     potinit      :      0.14s CPU      0.15s WALL (       1 calls)
     hinit0       :      0.06s CPU      0.06s WALL (       1 calls)

     Called by electrons:
     c_bands      :    453.90s CPU    460.44s WALL (      13 calls)
     sum_band     :     57.72s CPU     58.63s WALL (      13 calls)
     v_of_rho     :      0.19s CPU      0.21s WALL (      13 calls)
     newd         :      0.30s CPU      0.42s WALL (      13 calls)
     PAW_pot      :      1.13s CPU      1.22s WALL (      13 calls)
     mix_rho      :      0.05s CPU      0.07s WALL (      13 calls)

     Called by c_bands:
     init_us_2    :      1.89s CPU      1.92s WALL (    1015 calls)
     cegterg      :    446.28s CPU    452.67s WALL (     455 calls)

     Called by *egterg:
     cdiaghg      :     55.36s CPU     55.88s WALL (    1431 calls)
     h_psi        :    239.48s CPU    243.85s WALL (    1501 calls)
     s_psi        :     16.18s CPU     16.29s WALL (    1501 calls)
     g_psi        :      0.40s CPU      0.40s WALL (    1011 calls)

     Called by h_psi:
     h_psi:calbec :     31.30s CPU     31.52s WALL (    1501 calls)
     vloc_psi     :    191.21s CPU    195.18s WALL (    1501 calls)
     add_vuspsi   :     15.89s CPU     16.05s WALL (    1501 calls)

     General routines
     calbec       :     51.25s CPU     51.61s WALL (    2131 calls)
     fft          :      0.32s CPU      0.34s WALL (     193 calls)
     ffts         :      0.03s CPU      0.03s WALL (      26 calls)
     fftw         :    224.04s CPU    228.47s WALL (  845978 calls)
     interpolate  :      0.13s CPU      0.14s WALL (      13 calls)
 
     Parallel routines
     fft_scatt_xy :     14.97s CPU     15.22s WALL (  846197 calls)
     fft_scatt_yz :    183.88s CPU    187.72s WALL (  846197 calls)
 
     PWSCF        :   9m41.04s CPU   9m51.50s WALL

 
   This run was terminated on:  19:44:16  26Nov2021            

=------------------------------------------------------------------------------=
   JOB DONE.
=------------------------------------------------------------------------------=
