
     Program PWSCF v.6.7MaX starts on 26Nov2021 at 23: 6:18 

     This program is part of the open-source Quantum ESPRESSO suite
     for quantum simulation of materials; please cite
         "P. Giannozzi et al., J. Phys.:Condens. Matter 21 395502 (2009);
         "P. Giannozzi et al., J. Phys.:Condens. Matter 29 465901 (2017);
          URL http://www.quantum-espresso.org", 
     in publications or presentations arising from this work. More details at
     http://www.quantum-espresso.org/quote

     Parallel version (MPI & OpenMP), running on      72 processor cores
     Number of MPI processes:                72
     Threads/MPI process:                     1

     MPI processes distributed on     1 nodes
     R & G space division:  proc/nbgrp/npool/nimage =      72
     Reading input from fcc_14.in
Warning: card &CELL ignored
Warning: card CELL_DYNAMICS = 'BFGS', ignored
Warning: card CELL_FACTOR = 2.0, ignored
Warning: card PRESS = 0.0, ignored
Warning: card / ignored

     Current dimensions of program PWSCF are:
     Max number of different atomic species (ntypx) = 10
     Max number of k-points (npk) =  40000
     Max angular momentum in pseudopotentials (lmaxx) =  3
     file Pd.pbe-spn-kjpaw_psl.1.0.0.UPF: wavefunction(s)  4S 5S 4D renormalized

     Subspace diagonalization in iterative solution of the eigenvalue problem:
     one sub-group per band group will be used
     ELPA distributed-memory algorithm (size of sub-group:  8*  8 procs)

     Found symmetry operation: I + (  0.2500  0.2500  0.0000)
     This is a supercell, fractional translations are disabled
     Message from routine setup:
     using ibrav=0 with symmetry is DISCOURAGED, use correct ibrav instead
 
     Parallelization info
     --------------------
     sticks:   dense  smooth     PW     G-vecs:    dense   smooth      PW
     Min         253     167     44                25825    13853    1878
     Max         254     168     45                25832    13862    1883
     Sum       18285   12057   3181              1859813   997643  135403
 


     bravais-lattice index     =            0
     lattice parameter (alat)  =      14.4000  a.u.
     unit-cell volume          =   12351.6845 (a.u.)^3
     number of atoms/cell      =           32
     number of atomic types    =            1
     number of electrons       =       576.00
     number of Kohn-Sham states=          346
     kinetic-energy cutoff     =      71.0000  Ry
     charge density cutoff     =     430.0000  Ry
     scf convergence threshold =      1.0E-06
     mixing beta               =       0.1000
     number of iterations used =           10  TF        mixing
     Exchange-correlation= SLA  PW   PBX  PBC
                           (   1   4   3   4   0   0   0)

     celldm(1)=  14.400000  celldm(2)=   0.000000  celldm(3)=   0.000000
     celldm(4)=   0.000000  celldm(5)=   0.000000  celldm(6)=   0.000000

     crystal axes: (cart. coord. in units of alat)
               a(1) = (   1.605263   0.000000   0.000000 )  
               a(2) = (   0.000000   1.605263   0.000000 )  
               a(3) = (   0.000000   0.000000   1.605263 )  

     reciprocal axes: (cart. coord. in units 2 pi/alat)
               b(1) = (  0.622951  0.000000  0.000000 )  
               b(2) = (  0.000000  0.622951  0.000000 )  
               b(3) = (  0.000000  0.000000  0.622951 )  


     PseudoPot. # 1 for Pd read from file:
     /rds/homes/b/bxp912/pp/Pd.pbe-spn-kjpaw_psl.1.0.0.UPF
     MD5 check sum: 790f2ebce206edfd9790dcb9844eca51
     Pseudo is Projector augmented-wave + core cor, Zval = 18.0
     Generated using &quot;atomic&quot; code by A. Dal Corso  v.6.3
     Shape of augmentation charge: PSQ
     Using radial grid of 1235 points,  6 beta functions with: 
                l(1) =   0
                l(2) =   0
                l(3) =   1
                l(4) =   1
                l(5) =   2
                l(6) =   2
     Q(r) pseudized with 0 coefficients 


     atomic species   valence    mass     pseudopotential
        Pd            18.00   106.42000     Pd( 1.00)

     48 Sym. Ops., with inversion, found



   Cartesian axes

     site n.     atom                  positions (alat units)
         1           Pd  tau(   1) = (   0.0000000   0.0000000   0.0000000  )
         2           Pd  tau(   2) = (   0.4013158   0.4013158   0.0000000  )
         3           Pd  tau(   3) = (   0.4013158   0.0000000   0.4013158  )
         4           Pd  tau(   4) = (   0.0000000   0.4013158   0.4013158  )
         5           Pd  tau(   5) = (   0.0000000   0.0000000   0.8026316  )
         6           Pd  tau(   6) = (   0.4013158   0.4013158   0.8026316  )
         7           Pd  tau(   7) = (   0.4013158   0.0000000   1.2039474  )
         8           Pd  tau(   8) = (   0.0000000   0.4013158   1.2039474  )
         9           Pd  tau(   9) = (   0.0000000   0.8026316   0.0000000  )
        10           Pd  tau(  10) = (   0.4013158   1.2039474   0.0000000  )
        11           Pd  tau(  11) = (   0.4013158   0.8026316   0.4013158  )
        12           Pd  tau(  12) = (   0.0000000   1.2039474   0.4013158  )
        13           Pd  tau(  13) = (   0.0000000   0.8026316   0.8026316  )
        14           Pd  tau(  14) = (   0.4013158   1.2039474   0.8026316  )
        15           Pd  tau(  15) = (   0.4013158   0.8026316   1.2039474  )
        16           Pd  tau(  16) = (   0.0000000   1.2039474   1.2039474  )
        17           Pd  tau(  17) = (   0.8026316   0.0000000   0.0000000  )
        18           Pd  tau(  18) = (   1.2039474   0.4013158   0.0000000  )
        19           Pd  tau(  19) = (   1.2039474   0.0000000   0.4013158  )
        20           Pd  tau(  20) = (   0.8026316   0.4013158   0.4013158  )
        21           Pd  tau(  21) = (   0.8026316   0.0000000   0.8026316  )
        22           Pd  tau(  22) = (   1.2039474   0.4013158   0.8026316  )
        23           Pd  tau(  23) = (   1.2039474   0.0000000   1.2039474  )
        24           Pd  tau(  24) = (   0.8026316   0.4013158   1.2039474  )
        25           Pd  tau(  25) = (   0.8026316   0.8026316   0.0000000  )
        26           Pd  tau(  26) = (   1.2039474   1.2039474   0.0000000  )
        27           Pd  tau(  27) = (   1.2039474   0.8026316   0.4013158  )
        28           Pd  tau(  28) = (   0.8026316   1.2039474   0.4013158  )
        29           Pd  tau(  29) = (   0.8026316   0.8026316   0.8026316  )
        30           Pd  tau(  30) = (   1.2039474   1.2039474   0.8026316  )
        31           Pd  tau(  31) = (   1.2039474   0.8026316   1.2039474  )
        32           Pd  tau(  32) = (   0.8026316   1.2039474   1.2039474  )

     number of k points=    35  Marzari-Vanderbilt smearing, width (Ry)=  0.0400
                       cart. coord. in units 2pi/alat
        k(    1) = (   0.0346084   0.0346084   0.0346084), wk =   0.0219479
        k(    2) = (   0.0346084   0.0346084   0.1038251), wk =   0.0658436
        k(    3) = (   0.0346084   0.0346084   0.1730419), wk =   0.0658436
        k(    4) = (   0.0346084   0.0346084   0.2422587), wk =   0.0658436
        k(    5) = (   0.0346084   0.0346084  -0.3114754), wk =   0.0329218
        k(    6) = (   0.0346084   0.1038251   0.1038251), wk =   0.0658436
        k(    7) = (   0.0346084   0.1038251   0.1730419), wk =   0.1316872
        k(    8) = (   0.0346084   0.1038251   0.2422587), wk =   0.1316872
        k(    9) = (   0.0346084   0.1038251  -0.3114754), wk =   0.0658436
        k(   10) = (   0.0346084   0.1730419   0.1730419), wk =   0.0658436
        k(   11) = (   0.0346084   0.1730419   0.2422587), wk =   0.1316872
        k(   12) = (   0.0346084   0.1730419  -0.3114754), wk =   0.0658436
        k(   13) = (   0.0346084   0.2422587   0.2422587), wk =   0.0658436
        k(   14) = (   0.0346084   0.2422587  -0.3114754), wk =   0.0658436
        k(   15) = (   0.0346084  -0.3114754  -0.3114754), wk =   0.0164609
        k(   16) = (   0.1038251   0.1038251   0.1038251), wk =   0.0219479
        k(   17) = (   0.1038251   0.1038251   0.1730419), wk =   0.0658436
        k(   18) = (   0.1038251   0.1038251   0.2422587), wk =   0.0658436
        k(   19) = (   0.1038251   0.1038251  -0.3114754), wk =   0.0329218
        k(   20) = (   0.1038251   0.1730419   0.1730419), wk =   0.0658436
        k(   21) = (   0.1038251   0.1730419   0.2422587), wk =   0.1316872
        k(   22) = (   0.1038251   0.1730419  -0.3114754), wk =   0.0658436
        k(   23) = (   0.1038251   0.2422587   0.2422587), wk =   0.0658436
        k(   24) = (   0.1038251   0.2422587  -0.3114754), wk =   0.0658436
        k(   25) = (   0.1038251  -0.3114754  -0.3114754), wk =   0.0164609
        k(   26) = (   0.1730419   0.1730419   0.1730419), wk =   0.0219479
        k(   27) = (   0.1730419   0.1730419   0.2422587), wk =   0.0658436
        k(   28) = (   0.1730419   0.1730419  -0.3114754), wk =   0.0329218
        k(   29) = (   0.1730419   0.2422587   0.2422587), wk =   0.0658436
        k(   30) = (   0.1730419   0.2422587  -0.3114754), wk =   0.0658436
        k(   31) = (   0.1730419  -0.3114754  -0.3114754), wk =   0.0164609
        k(   32) = (   0.2422587   0.2422587   0.2422587), wk =   0.0219479
        k(   33) = (   0.2422587   0.2422587  -0.3114754), wk =   0.0329218
        k(   34) = (   0.2422587  -0.3114754  -0.3114754), wk =   0.0164609
        k(   35) = (  -0.3114754  -0.3114754  -0.3114754), wk =   0.0027435

     Dense  grid:  1859813 G-vectors     FFT dimensions: ( 160, 160, 160)

     Smooth grid:   997643 G-vectors     FFT dimensions: ( 125, 125, 125)

     Estimated max dynamical RAM per process >     474.46 MB

     Estimated total dynamical RAM >      33.36 GB

     Initial potential from superposition of free atoms

     starting charge  575.98776, renormalised to  576.00000
     Starting wfcs are  320 randomized atomic wfcs +   26 random wfcs
     Checking if some PAW data can be deallocated... 

     total cpu time spent up to now is       43.1 secs

     Self-consistent Calculation

     iteration #  1     ecut=    71.00 Ry     beta= 0.10
     Davidson diagonalization with overlap
     ethr =  1.00E-02,  avg # of iterations =  4.7

     total cpu time spent up to now is      161.0 secs

     total energy              =  -16381.23346590 Ry
     estimated scf accuracy    <      23.32175459 Ry

     iteration #  2     ecut=    71.00 Ry     beta= 0.10
     Davidson diagonalization with overlap
     ethr =  4.05E-03,  avg # of iterations =  1.0

     total cpu time spent up to now is      248.6 secs

     total energy              =  -16373.61904688 Ry
     estimated scf accuracy    <      17.29618758 Ry

     iteration #  3     ecut=    71.00 Ry     beta= 0.10
     Davidson diagonalization with overlap
     ethr =  3.00E-03,  avg # of iterations =  2.1

     total cpu time spent up to now is      361.1 secs

     total energy              =  -16377.12768625 Ry
     estimated scf accuracy    <       3.84978714 Ry

     iteration #  4     ecut=    71.00 Ry     beta= 0.10
     Davidson diagonalization with overlap
     ethr =  6.68E-04,  avg # of iterations =  2.5

     total cpu time spent up to now is      452.4 secs

     total energy              =  -16377.15511158 Ry
     estimated scf accuracy    <       1.05092069 Ry

     iteration #  5     ecut=    71.00 Ry     beta= 0.10
     Davidson diagonalization with overlap
     ethr =  1.82E-04,  avg # of iterations =  4.6

     total cpu time spent up to now is      546.2 secs

     total energy              =  -16377.16977828 Ry
     estimated scf accuracy    <       0.62361811 Ry

     iteration #  6     ecut=    71.00 Ry     beta= 0.10
     Davidson diagonalization with overlap
     ethr =  1.08E-04,  avg # of iterations =  3.0

     total cpu time spent up to now is      673.2 secs

     total energy              =  -16377.58755031 Ry
     estimated scf accuracy    <       6.87663746 Ry

     iteration #  7     ecut=    71.00 Ry     beta= 0.10
     Davidson diagonalization with overlap
     ethr =  1.08E-04,  avg # of iterations =  1.2

     total cpu time spent up to now is      757.2 secs

     total energy              =  -16377.35429496 Ry
     estimated scf accuracy    <       3.98080235 Ry

     iteration #  8     ecut=    71.00 Ry     beta= 0.10
     Davidson diagonalization with overlap
     ethr =  1.08E-04,  avg # of iterations =  1.3

     total cpu time spent up to now is      836.5 secs

     total energy              =  -16377.38273215 Ry
     estimated scf accuracy    <       2.55749506 Ry

     iteration #  9     ecut=    71.00 Ry     beta= 0.10
     Davidson diagonalization with overlap
     ethr =  1.08E-04,  avg # of iterations =  1.0

     total cpu time spent up to now is      913.5 secs

     total energy              =  -16377.30489512 Ry
     estimated scf accuracy    <       2.55054178 Ry

     iteration # 10     ecut=    71.00 Ry     beta= 0.10
     Davidson diagonalization with overlap
     ethr =  1.08E-04,  avg # of iterations =  1.0

     total cpu time spent up to now is      991.3 secs

     total energy              =  -16377.16840741 Ry
     estimated scf accuracy    <       2.39276042 Ry

     iteration # 11     ecut=    71.00 Ry     beta= 0.10
     Davidson diagonalization with overlap
     ethr =  1.08E-04,  avg # of iterations =  1.0

     total cpu time spent up to now is     1067.9 secs

     total energy              =  -16376.96060850 Ry
     estimated scf accuracy    <       1.37426025 Ry

     iteration # 12     ecut=    71.00 Ry     beta= 0.10
     Davidson diagonalization with overlap
     ethr =  1.08E-04,  avg # of iterations =  1.3

     total cpu time spent up to now is     1151.4 secs

     total energy              =  -16377.04779173 Ry
     estimated scf accuracy    <       0.51798601 Ry

     iteration # 13     ecut=    71.00 Ry     beta= 0.10
     Davidson diagonalization with overlap
     ethr =  8.99E-05,  avg # of iterations =  1.4

     total cpu time spent up to now is     1232.2 secs

     total energy              =  -16376.89385748 Ry
     estimated scf accuracy    <       0.61805106 Ry

     iteration # 14     ecut=    71.00 Ry     beta= 0.10
     Davidson diagonalization with overlap
     ethr =  8.99E-05,  avg # of iterations =  2.1

     total cpu time spent up to now is     1320.2 secs

     total energy              =  -16376.95363441 Ry
     estimated scf accuracy    <       0.09883079 Ry

     iteration # 15     ecut=    71.00 Ry     beta= 0.10
     Davidson diagonalization with overlap
     c_bands:  1 eigenvalues not converged
     ethr =  1.72E-05,  avg # of iterations =  2.7

     total cpu time spent up to now is     1403.1 secs

     total energy              =  -16376.95439793 Ry
     estimated scf accuracy    <       0.00523764 Ry

     iteration # 16     ecut=    71.00 Ry     beta= 0.10
     Davidson diagonalization with overlap
     c_bands:  1 eigenvalues not converged
     c_bands:  1 eigenvalues not converged
     c_bands:  3 eigenvalues not converged
     ethr =  9.09E-07,  avg # of iterations =  5.9

     total cpu time spent up to now is     1530.3 secs

     total energy              =  -16376.95611642 Ry
     estimated scf accuracy    <       0.02349619 Ry

     iteration # 17     ecut=    71.00 Ry     beta= 0.10
     Davidson diagonalization with overlap
     c_bands:  1 eigenvalues not converged
     ethr =  9.09E-07,  avg # of iterations =  2.9

     total cpu time spent up to now is     1626.7 secs

     total energy              =  -16376.95498509 Ry
     estimated scf accuracy    <       0.03502865 Ry

     iteration # 18     ecut=    71.00 Ry     beta= 0.10
     Davidson diagonalization with overlap
     ethr =  9.09E-07,  avg # of iterations =  1.0

     total cpu time spent up to now is     1702.6 secs

     total energy              =  -16376.95539644 Ry
     estimated scf accuracy    <       0.00088318 Ry

     iteration # 19     ecut=    71.00 Ry     beta= 0.10
     Davidson diagonalization with overlap
     ethr =  1.53E-07,  avg # of iterations =  1.0

     total cpu time spent up to now is     1781.6 secs

     total energy              =  -16376.95545009 Ry
     estimated scf accuracy    <       0.00042150 Ry

     iteration # 20     ecut=    71.00 Ry     beta= 0.10
     Davidson diagonalization with overlap
     ethr =  7.32E-08,  avg # of iterations =  2.0

     total cpu time spent up to now is     1876.2 secs

     total energy              =  -16376.95546815 Ry
     estimated scf accuracy    <       0.00051059 Ry

     iteration # 21     ecut=    71.00 Ry     beta= 0.10
     Davidson diagonalization with overlap
     ethr =  7.32E-08,  avg # of iterations =  1.0

     total cpu time spent up to now is     1958.6 secs

     total energy              =  -16376.95548398 Ry
     estimated scf accuracy    <       0.00006512 Ry

     iteration # 22     ecut=    71.00 Ry     beta= 0.10
     Davidson diagonalization with overlap
     ethr =  1.13E-08,  avg # of iterations =  1.0

     total cpu time spent up to now is     2035.3 secs

     total energy              =  -16376.95549408 Ry
     estimated scf accuracy    <       0.00001440 Ry

     iteration # 23     ecut=    71.00 Ry     beta= 0.10
     Davidson diagonalization with overlap
     ethr =  2.50E-09,  avg # of iterations =  2.0

     total cpu time spent up to now is     2126.7 secs

     total energy              =  -16376.95549991 Ry
     estimated scf accuracy    <       0.00001552 Ry

     iteration # 24     ecut=    71.00 Ry     beta= 0.10
     Davidson diagonalization with overlap
     ethr =  2.50E-09,  avg # of iterations =  3.0

     total cpu time spent up to now is     2252.0 secs

     total energy              =  -16376.95550250 Ry
     estimated scf accuracy    <       0.00009647 Ry

     iteration # 25     ecut=    71.00 Ry     beta= 0.10
     Davidson diagonalization with overlap
     ethr =  2.50E-09,  avg # of iterations =  2.2

     total cpu time spent up to now is     2366.7 secs

     total energy              =  -16376.95550816 Ry
     estimated scf accuracy    <       0.00000834 Ry

     iteration # 26     ecut=    71.00 Ry     beta= 0.10
     Davidson diagonalization with overlap
     ethr =  1.45E-09,  avg # of iterations =  2.0

     total cpu time spent up to now is     2459.2 secs

     total energy              =  -16376.95551236 Ry
     estimated scf accuracy    <       0.00000626 Ry

     iteration # 27     ecut=    71.00 Ry     beta= 0.10
     Davidson diagonalization with overlap
     ethr =  1.09E-09,  avg # of iterations =  2.0

     total cpu time spent up to now is     2567.2 secs

     total energy              =  -16376.95551395 Ry
     estimated scf accuracy    <       0.00000461 Ry

     iteration # 28     ecut=    71.00 Ry     beta= 0.10
     Davidson diagonalization with overlap
     ethr =  8.00E-10,  avg # of iterations =  2.0

     total cpu time spent up to now is     2657.9 secs

     End of self-consistent calculation

          k = 0.0346 0.0346 0.0346 (124646 PWs)   bands (ev):

   -80.7374 -80.7373 -80.7373 -80.7373 -80.7373 -80.7373 -80.7373 -80.7373
   -80.7373 -80.7373 -80.7373 -80.7373 -80.7373 -80.7373 -80.7373 -80.7373
   -80.7373 -80.7373 -80.7373 -80.7373 -80.7373 -80.7373 -80.7373 -80.7373
   -80.7373 -80.7373 -80.7372 -80.7372 -80.7372 -80.7372 -80.7372 -80.7368
   -46.5413 -46.5413 -46.5413 -46.5413 -46.5412 -46.5412 -46.5412 -46.5411
   -46.5411 -46.5411 -46.5411 -46.5411 -46.5410 -46.5410 -46.5410 -46.5410
   -46.5410 -46.5410 -46.5410 -46.5410 -46.5410 -46.5410 -46.5410 -46.5410
   -46.5409 -46.5409 -46.5409 -46.5409 -46.5409 -46.5409 -46.5409 -46.5409
   -46.5409 -46.5408 -46.5408 -46.5408 -46.5408 -46.5408 -46.5408 -46.5408
   -46.5408 -46.5408 -46.5408 -46.5408 -46.5408 -46.5408 -46.5407 -46.5407
   -46.5407 -46.5407 -46.5407 -46.5407 -46.5407 -46.5407 -46.5407 -46.5406
   -46.5406 -46.5406 -46.5406 -46.5406 -46.5406 -46.5406 -46.5405 -46.5405
   -46.5405 -46.5405 -46.5405 -46.5405 -46.5405 -46.5405 -46.5405 -46.5405
   -46.5405 -46.5404 -46.5404 -46.5404 -46.5404 -46.5404 -46.5404 -46.5403
   -46.5403 -46.5403 -46.5403 -46.5403 -46.5403 -46.5403 -46.5403 -46.5403
   -46.5403 -46.5402 -46.5402 -46.5402 -46.5402 -46.5400 -46.5400 -46.5400
     0.1046   0.6334   0.6356   0.6356   0.6356   0.6624   0.6624   0.6624
     0.6655   0.6655   0.6655   0.7546   0.7546   0.7546   0.7588   0.7588
     0.7588   0.7648   0.7648   0.7648   0.7777   0.7777   0.7777   0.7927
     0.7927   0.7927   0.7927   0.7927   0.7927   0.8016   0.8016   0.8016
     0.8111   0.8111   0.8111   0.8111   0.8111   0.8111   0.8129   0.8129
     0.8129   0.8510   0.8510   0.8510   0.8510   0.8510   0.8510   0.8529
     0.8529   0.8529   0.8567   0.8567   0.8567   0.8567   0.8567   0.8567
     0.8683   0.8683   0.8683   0.8728   0.8739   0.8739   0.8739   0.8744
     0.8744   0.8754   0.8754   0.8767   0.8767   0.8767   0.8925   0.8925
     0.8925   0.8925   0.8926   0.8926   0.9520   0.9520   0.9520   0.9520
     0.9520   0.9520   0.9635   0.9635   0.9636   0.9720   0.9720   0.9720
     0.9722   0.9722   0.9722   0.9815   0.9815   0.9816   0.9904   0.9904
     0.9904   0.9919   0.9919   0.9919   0.9919   0.9919   0.9919   0.9942
     0.9942   0.9942   1.0167   1.0167   1.0167   1.0185   1.0185   1.0189
     1.0189   1.0189   1.0189   1.0189   1.0190   1.0340   1.0340   1.0340
     1.0340   1.0340   1.0340   1.0360   1.0360   1.0360   1.0360   1.0360
     1.0360   1.0437   1.0437   1.0437   1.0702   1.0702   1.0702   1.0803
     1.0803   1.0803   1.1286   1.1286   1.1286   1.1328   1.1328   1.1328
     1.1351   1.1351   1.1368   1.1368   1.1368   1.1638   1.1638   1.1638
     1.1654   1.1654   1.1654   1.1654   1.1654   1.1654   1.1656   1.1656
     1.1656   1.2038   1.2038   1.2038   1.4057   1.4057   1.4057   2.1396
     2.1396   2.1396   2.3569   2.3569   2.3569   2.3569   2.3569   2.3569
     2.5708   2.5708   2.5708   2.9935   3.1087   3.1087   3.1087   4.0032
     4.0032   4.0032   4.0486   4.0486   4.0486   4.1189   4.1949   4.1949
     4.1949   4.1949   4.1949   4.1949   4.7634   4.7634   4.7634   5.8538
     5.8538   5.8538   5.8538   5.8538   5.8538   6.1166   6.1167   6.1167
     6.1167   6.1167   6.1167   6.2545   6.2545   6.2546   6.4568   6.4569
     6.4570   6.4574

          k = 0.0346 0.0346 0.1038 (124740 PWs)   bands (ev):

   -80.7374 -80.7373 -80.7373 -80.7373 -80.7373 -80.7373 -80.7373 -80.7373
   -80.7373 -80.7373 -80.7373 -80.7373 -80.7373 -80.7373 -80.7373 -80.7373
   -80.7373 -80.7373 -80.7373 -80.7373 -80.7373 -80.7373 -80.7373 -80.7373
   -80.7373 -80.7373 -80.7373 -80.7373 -80.7372 -80.7372 -80.7372 -80.7368
   -46.5413 -46.5413 -46.5413 -46.5413 -46.5413 -46.5412 -46.5412 -46.5411
   -46.5411 -46.5411 -46.5411 -46.5411 -46.5411 -46.5411 -46.5411 -46.5410
   -46.5410 -46.5410 -46.5410 -46.5410 -46.5410 -46.5410 -46.5410 -46.5410
   -46.5410 -46.5410 -46.5409 -46.5409 -46.5409 -46.5409 -46.5409 -46.5409
   -46.5409 -46.5409 -46.5408 -46.5408 -46.5408 -46.5408 -46.5408 -46.5408
   -46.5408 -46.5408 -46.5407 -46.5407 -46.5407 -46.5407 -46.5407 -46.5407
   -46.5407 -46.5407 -46.5407 -46.5407 -46.5407 -46.5407 -46.5407 -46.5406
   -46.5406 -46.5406 -46.5406 -46.5406 -46.5406 -46.5406 -46.5406 -46.5405
   -46.5405 -46.5405 -46.5405 -46.5405 -46.5405 -46.5404 -46.5404 -46.5404
   -46.5404 -46.5404 -46.5404 -46.5404 -46.5404 -46.5404 -46.5404 -46.5404
   -46.5403 -46.5403 -46.5403 -46.5403 -46.5403 -46.5403 -46.5403 -46.5403
   -46.5403 -46.5402 -46.5402 -46.5402 -46.5402 -46.5401 -46.5400 -46.5400
     0.1302   0.6379   0.6422   0.6422   0.6443   0.6666   0.6673   0.6674
     0.6687   0.6722   0.6722   0.7025   0.7413   0.7553   0.7607   0.7607
     0.7622   0.7622   0.7748   0.7748   0.7812   0.7812   0.7829   0.7829
     0.7854   0.7871   0.7894   0.7894   0.7928   0.7928   0.7950   0.7950
     0.7956   0.7958   0.7958   0.8112   0.8112   0.8131   0.8131   0.8154
     0.8154   0.8205   0.8205   0.8466   0.8466   0.8483   0.8483   0.8512
     0.8512   0.8533   0.8534   0.8580   0.8580   0.8585   0.8585   0.8613
     0.8623   0.8699   0.8716   0.8728   0.8728   0.8760   0.8772   0.8772
     0.8779   0.8779   0.8781   0.8807   0.8807   0.8816   0.8907   0.8907
     0.8933   0.8933   0.9280   0.9280   0.9322   0.9322   0.9360   0.9360
     0.9469   0.9469   0.9488   0.9488   0.9570   0.9574   0.9574   0.9658
     0.9684   0.9699   0.9699   0.9703   0.9845   0.9888   0.9888   0.9916
     0.9916   0.9925   0.9930   0.9930   0.9949   0.9949   0.9961   0.9961
     1.0074   1.0074   1.0084   1.0084   1.0113   1.0113   1.0154   1.0179
     1.0179   1.0202   1.0313   1.0313   1.0349   1.0356   1.0356   1.0369
     1.0369   1.0431   1.0439   1.0445   1.0445   1.0498   1.0498   1.0527
     1.0527   1.0565   1.0582   1.0582   1.0603   1.0691   1.0717   1.0717
     1.0835   1.0835   1.0905   1.1244   1.1244   1.1247   1.1247   1.1248
     1.1266   1.1295   1.1315   1.1346   1.1351   1.1351   1.1532   1.1532
     1.1585   1.1597   1.1597   1.1597   1.1598   1.1607   1.1653   1.1653
     1.1653   1.1654   1.2392   1.2392   1.4400   1.4400   1.6520   1.9442
     1.9442   2.1624   2.1624   2.1652   2.3830   2.3830   2.5943   2.5943
     2.5968   2.8018   2.8018   2.8347   3.0112   3.0112   3.1239   3.6944
     4.0389   4.0578   4.0578   4.0890   4.0890   4.1218   4.1218   4.1521
     4.1521   4.1859   4.1859   4.3293   4.7956   4.7956   5.1572   5.6303
     5.6303   5.8026   5.8026   5.8195   5.8195   5.9091   6.0781   6.0781
     6.0804   6.0804   6.1214   6.1214   6.1892   6.1892   6.2659   6.2659
     6.3444   6.3706

          k = 0.0346 0.0346 0.1730 (124768 PWs)   bands (ev):

   -80.7374 -80.7373 -80.7373 -80.7373 -80.7373 -80.7373 -80.7373 -80.7373
   -80.7373 -80.7373 -80.7373 -80.7373 -80.7373 -80.7373 -80.7373 -80.7373
   -80.7373 -80.7373 -80.7373 -80.7373 -80.7373 -80.7373 -80.7373 -80.7373
   -80.7373 -80.7373 -80.7373 -80.7373 -80.7373 -80.7372 -80.7372 -80.7368
   -46.5413 -46.5413 -46.5413 -46.5413 -46.5412 -46.5412 -46.5412 -46.5411
   -46.5411 -46.5411 -46.5411 -46.5411 -46.5411 -46.5411 -46.5411 -46.5411
   -46.5411 -46.5411 -46.5410 -46.5410 -46.5410 -46.5410 -46.5410 -46.5410
   -46.5410 -46.5410 -46.5409 -46.5409 -46.5409 -46.5409 -46.5409 -46.5409
   -46.5409 -46.5409 -46.5409 -46.5409 -46.5408 -46.5408 -46.5408 -46.5408
   -46.5407 -46.5407 -46.5407 -46.5407 -46.5407 -46.5407 -46.5407 -46.5407
   -46.5407 -46.5407 -46.5407 -46.5407 -46.5406 -46.5406 -46.5406 -46.5406
   -46.5406 -46.5406 -46.5406 -46.5406 -46.5406 -46.5406 -46.5406 -46.5405
   -46.5405 -46.5405 -46.5405 -46.5405 -46.5405 -46.5405 -46.5404 -46.5404
   -46.5404 -46.5404 -46.5404 -46.5404 -46.5404 -46.5404 -46.5404 -46.5404
   -46.5404 -46.5403 -46.5403 -46.5403 -46.5403 -46.5403 -46.5403 -46.5403
   -46.5403 -46.5403 -46.5403 -46.5402 -46.5402 -46.5402 -46.5401 -46.5401
     0.1813   0.5976   0.6491   0.6552   0.6552   0.6591   0.6741   0.6760
     0.6776   0.6776   0.6849   0.6849   0.7244   0.7392   0.7519   0.7589
     0.7589   0.7611   0.7611   0.7619   0.7665   0.7665   0.7737   0.7737
     0.7795   0.7795   0.7914   0.7914   0.7916   0.7916   0.7926   0.7926
     0.7953   0.7953   0.8014   0.8014   0.8127   0.8127   0.8127   0.8143
     0.8143   0.8160   0.8160   0.8472   0.8472   0.8513   0.8513   0.8533
     0.8533   0.8568   0.8568   0.8585   0.8586   0.8593   0.8607   0.8607
     0.8636   0.8666   0.8686   0.8710   0.8710   0.8756   0.8821   0.8821
     0.8839   0.8854   0.8855   0.8881   0.8881   0.8884   0.8884   0.8901
     0.8946   0.8946   0.9010   0.9010   0.9144   0.9144   0.9233   0.9233
     0.9275   0.9275   0.9389   0.9424   0.9424   0.9453   0.9453   0.9457
     0.9481   0.9508   0.9656   0.9657   0.9803   0.9803   0.9923   0.9923
     0.9931   0.9931   1.0087   1.0087   1.0090   1.0096   1.0134   1.0137
     1.0137   1.0143   1.0143   1.0172   1.0172   1.0194   1.0194   1.0213
     1.0213   1.0230   1.0235   1.0344   1.0344   1.0379   1.0379   1.0402
     1.0402   1.0509   1.0545   1.0588   1.0588   1.0679   1.0685   1.0685
     1.0688   1.0691   1.0692   1.0733   1.0733   1.0736   1.0760   1.0760
     1.0829   1.0829   1.1007   1.1115   1.1115   1.1115   1.1159   1.1159
     1.1201   1.1216   1.1226   1.1285   1.1291   1.1291   1.1327   1.1327
     1.1483   1.1488   1.1488   1.1489   1.1490   1.1513   1.1653   1.1653
     1.1653   1.1653   1.3025   1.3025   1.5039   1.5039   1.7715   1.7715
     1.9314   1.9884   1.9884   2.2165   2.4351   2.4351   2.6483   2.6727
     2.8490   2.8490   2.8747   2.8747   3.0461   3.0462   3.0463   3.3060
     3.8991   3.8991   3.9797   3.9797   4.0746   4.0747   4.1693   4.1693
     4.2188   4.3910   4.3911   4.5945   4.8600   4.8600   5.4235   5.4235
     5.5231   5.6240   5.7379   5.7379   5.7627   5.7627   5.7781   5.7781
     5.9369   5.9369   5.9625   6.0986   6.0987   6.1024   6.1024   6.2808
     6.2808   6.6034

          k = 0.0346 0.0346 0.2423 (124745 PWs)   bands (ev):

   -80.7374 -80.7373 -80.7373 -80.7373 -80.7373 -80.7373 -80.7373 -80.7373
   -80.7373 -80.7373 -80.7373 -80.7373 -80.7373 -80.7373 -80.7373 -80.7373
   -80.7373 -80.7373 -80.7373 -80.7373 -80.7373 -80.7373 -80.7373 -80.7373
   -80.7373 -80.7373 -80.7373 -80.7373 -80.7373 -80.7372 -80.7372 -80.7368
   -46.5413 -46.5413 -46.5413 -46.5412 -46.5412 -46.5412 -46.5412 -46.5412
   -46.5412 -46.5411 -46.5411 -46.5411 -46.5411 -46.5411 -46.5411 -46.5411
   -46.5410 -46.5410 -46.5410 -46.5410 -46.5410 -46.5410 -46.5410 -46.5409
   -46.5409 -46.5409 -46.5409 -46.5409 -46.5409 -46.5409 -46.5409 -46.5409
   -46.5409 -46.5409 -46.5409 -46.5409 -46.5408 -46.5408 -46.5408 -46.5408
   -46.5408 -46.5408 -46.5407 -46.5407 -46.5407 -46.5407 -46.5407 -46.5407
   -46.5406 -46.5406 -46.5406 -46.5406 -46.5406 -46.5406 -46.5406 -46.5406
   -46.5406 -46.5406 -46.5406 -46.5406 -46.5405 -46.5405 -46.5405 -46.5405
   -46.5405 -46.5405 -46.5405 -46.5405 -46.5405 -46.5405 -46.5405 -46.5404
   -46.5404 -46.5404 -46.5404 -46.5404 -46.5404 -46.5404 -46.5404 -46.5404
   -46.5403 -46.5403 -46.5403 -46.5403 -46.5403 -46.5403 -46.5403 -46.5403
   -46.5403 -46.5403 -46.5403 -46.5402 -46.5402 -46.5402 -46.5401 -46.5401
     0.2569   0.4726   0.6667   0.6742   0.6742   0.6795   0.6834   0.6882
     0.6931   0.6931   0.7028   0.7028   0.7088   0.7193   0.7211   0.7275
     0.7275   0.7329   0.7368   0.7368   0.7505   0.7505   0.7759   0.7759
     0.7851   0.7851   0.7903   0.7903   0.7918   0.7918   0.8022   0.8022
     0.8068   0.8068   0.8079   0.8079   0.8140   0.8140   0.8142   0.8142
     0.8158   0.8158   0.8286   0.8491   0.8491   0.8512   0.8512   0.8542
     0.8542   0.8544   0.8598   0.8632   0.8632   0.8652   0.8652   0.8653
     0.8668   0.8668   0.8687   0.8687   0.8701   0.8745   0.8811   0.8811
     0.8823   0.8823   0.8879   0.8879   0.8935   0.8965   0.8966   0.8968
     0.8968   0.8988   0.8988   0.9004   0.9004   0.9016   0.9016   0.9017
     0.9111   0.9111   0.9170   0.9170   0.9215   0.9279   0.9281   0.9284
     0.9285   0.9328   0.9336   0.9336   0.9915   0.9915   0.9918   0.9918
     0.9931   1.0021   1.0147   1.0148   1.0163   1.0163   1.0194   1.0194
     1.0238   1.0238   1.0284   1.0304   1.0304   1.0317   1.0317   1.0347
     1.0347   1.0379   1.0379   1.0424   1.0430   1.0431   1.0431   1.0543
     1.0543   1.0546   1.0606   1.0606   1.0739   1.0755   1.0756   1.0772
     1.0773   1.0880   1.0880   1.0895   1.0907   1.0930   1.0931   1.0932
     1.0932   1.0945   1.0945   1.0956   1.0956   1.0986   1.0986   1.1054
     1.1074   1.1088   1.1088   1.1113   1.1162   1.1188   1.1188   1.1189
     1.1335   1.1335   1.1335   1.1337   1.1337   1.1382   1.1653   1.1653
     1.1653   1.1653   1.3879   1.3879   1.5926   1.5926   1.6216   1.6216
     1.8354   1.8354   2.2391   2.2939   2.5126   2.5127   2.5243   2.7240
     2.7372   2.7372   2.9292   2.9333   3.1165   3.1165   3.2982   3.2982
     3.6568   3.6568   3.7818   3.7818   4.0970   4.0970   4.1471   4.1471
     4.4845   4.6820   4.6820   4.8972   4.9563   4.9563   5.1492   5.2402
     5.2402   5.3628   5.3628   5.5866   5.7358   5.7358   5.8005   5.8005
     5.8278   5.8278   5.9681   5.9681   6.1162   6.1738   6.1738   6.3880
     6.3880   6.4310

          k = 0.0346 0.0346-0.3115 (124826 PWs)   bands (ev):

   -80.7374 -80.7373 -80.7373 -80.7373 -80.7373 -80.7373 -80.7373 -80.7373
   -80.7373 -80.7373 -80.7373 -80.7373 -80.7373 -80.7373 -80.7373 -80.7373
   -80.7373 -80.7373 -80.7373 -80.7373 -80.7373 -80.7373 -80.7373 -80.7373
   -80.7373 -80.7373 -80.7373 -80.7373 -80.7373 -80.7372 -80.7372 -80.7368
   -46.5412 -46.5412 -46.5412 -46.5412 -46.5412 -46.5412 -46.5412 -46.5412
   -46.5412 -46.5412 -46.5412 -46.5412 -46.5412 -46.5412 -46.5411 -46.5411
   -46.5411 -46.5411 -46.5411 -46.5410 -46.5410 -46.5410 -46.5410 -46.5409
   -46.5409 -46.5409 -46.5409 -46.5409 -46.5409 -46.5409 -46.5409 -46.5409
   -46.5409 -46.5409 -46.5409 -46.5409 -46.5409 -46.5408 -46.5408 -46.5408
   -46.5408 -46.5408 -46.5407 -46.5407 -46.5407 -46.5407 -46.5407 -46.5407
   -46.5407 -46.5407 -46.5406 -46.5406 -46.5406 -46.5406 -46.5406 -46.5406
   -46.5406 -46.5406 -46.5406 -46.5406 -46.5406 -46.5406 -46.5405 -46.5405
   -46.5405 -46.5405 -46.5405 -46.5405 -46.5405 -46.5405 -46.5405 -46.5405
   -46.5405 -46.5405 -46.5404 -46.5404 -46.5404 -46.5404 -46.5404 -46.5404
   -46.5404 -46.5404 -46.5403 -46.5403 -46.5403 -46.5403 -46.5403 -46.5403
   -46.5403 -46.5403 -46.5403 -46.5403 -46.5402 -46.5402 -46.5401 -46.5401
     0.3553   0.3554   0.6904   0.6904   0.6950   0.6950   0.6987   0.6987
     0.6987   0.6987   0.7036   0.7036   0.7045   0.7045   0.7132   0.7132
     0.7132   0.7132   0.7249   0.7249   0.7249   0.7249   0.7881   0.7881
     0.7881   0.7881   0.7907   0.7907   0.7907   0.7907   0.7963   0.7963
     0.7963   0.7963   0.8127   0.8127   0.8127   0.8127   0.8384   0.8384
     0.8384   0.8384   0.8406   0.8406   0.8406   0.8406   0.8426   0.8426
     0.8519   0.8519   0.8519   0.8519   0.8621   0.8621   0.8660   0.8660
     0.8660   0.8660   0.8726   0.8726   0.8764   0.8764   0.8764   0.8764
     0.8916   0.8916   0.8916   0.8916   0.8995   0.8995   0.8995   0.8995
     0.9011   0.9011   0.9011   0.9011   0.9035   0.9035   0.9035   0.9035
     0.9061   0.9061   0.9108   0.9108   0.9110   0.9110   0.9125   0.9125
     0.9125   0.9125   0.9162   0.9162   0.9912   0.9912   0.9912   0.9912
     0.9950   0.9950   1.0154   1.0154   1.0154   1.0154   1.0270   1.0270
     1.0270   1.0270   1.0348   1.0348   1.0357   1.0357   1.0357   1.0357
     1.0491   1.0491   1.0491   1.0491   1.0644   1.0644   1.0644   1.0644
     1.0673   1.0673   1.0673   1.0674   1.0700   1.0700   1.0701   1.0701
     1.0701   1.0701   1.0827   1.0827   1.0918   1.0918   1.0922   1.0923
     1.0923   1.0923   1.1048   1.1049   1.1049   1.1049   1.1059   1.1059
     1.1061   1.1061   1.1148   1.1148   1.1151   1.1151   1.1151   1.1151
     1.1153   1.1153   1.1153   1.1153   1.1238   1.1238   1.1653   1.1653
     1.1653   1.1653   1.4940   1.4940   1.4940   1.4940   1.7034   1.7034
     1.7034   1.7034   2.3969   2.3970   2.5725   2.5725   2.6143   2.6143
     2.6143   2.6144   2.8211   2.8211   3.3896   3.3897   3.3897   3.3897
     3.5481   3.5482   3.5482   3.5482   4.1220   4.1221   4.1221   4.1221
     4.7999   4.7999   5.0086   5.0086   5.0086   5.0086   5.0836   5.0836
     5.0837   5.0837   5.2296   5.2296   5.7585   5.7585   5.7585   5.7585
     5.8659   5.8659   5.8659   5.8659   6.2868   6.2868   6.2868   6.2868
     6.5163   6.5164

          k = 0.0346 0.1038 0.1038 (124756 PWs)   bands (ev):

   -80.7374 -80.7373 -80.7373 -80.7373 -80.7373 -80.7373 -80.7373 -80.7373
   -80.7373 -80.7373 -80.7373 -80.7373 -80.7373 -80.7373 -80.7373 -80.7373
   -80.7373 -80.7373 -80.7373 -80.7373 -80.7373 -80.7373 -80.7373 -80.7373
   -80.7373 -80.7373 -80.7373 -80.7373 -80.7373 -80.7372 -80.7372 -80.7368
   -46.5413 -46.5413 -46.5413 -46.5413 -46.5412 -46.5412 -46.5412 -46.5411
   -46.5411 -46.5411 -46.5411 -46.5411 -46.5411 -46.5411 -46.5411 -46.5411
   -46.5411 -46.5410 -46.5410 -46.5410 -46.5410 -46.5410 -46.5410 -46.5410
   -46.5410 -46.5410 -46.5409 -46.5409 -46.5409 -46.5409 -46.5409 -46.5409
   -46.5409 -46.5409 -46.5408 -46.5408 -46.5408 -46.5408 -46.5408 -46.5408
   -46.5408 -46.5408 -46.5408 -46.5407 -46.5407 -46.5407 -46.5407 -46.5407
   -46.5407 -46.5407 -46.5407 -46.5407 -46.5406 -46.5406 -46.5406 -46.5406
   -46.5406 -46.5406 -46.5406 -46.5406 -46.5406 -46.5406 -46.5406 -46.5406
   -46.5406 -46.5405 -46.5405 -46.5405 -46.5405 -46.5404 -46.5404 -46.5404
   -46.5404 -46.5404 -46.5404 -46.5404 -46.5404 -46.5404 -46.5404 -46.5404
   -46.5404 -46.5404 -46.5403 -46.5403 -46.5403 -46.5403 -46.5403 -46.5403
   -46.5403 -46.5403 -46.5403 -46.5402 -46.5402 -46.5401 -46.5400 -46.5400
     0.1557   0.6401   0.6465   0.6526   0.6526   0.6689   0.6712   0.6712
     0.6758   0.6758   0.6821   0.7142   0.7142   0.7444   0.7444   0.7565
     0.7587   0.7636   0.7636   0.7765   0.7765   0.7818   0.7818   0.7825
     0.7853   0.7853   0.7854   0.7854   0.7895   0.7895   0.7898   0.7946
     0.7946   0.7961   0.7961   0.7982   0.7990   0.7990   0.8104   0.8144
     0.8144   0.8227   0.8227   0.8252   0.8252   0.8437   0.8437   0.8480
     0.8493   0.8493   0.8535   0.8535   0.8580   0.8580   0.8636   0.8636
     0.8650   0.8650   0.8688   0.8688   0.8693   0.8725   0.8768   0.8793
     0.8803   0.8816   0.8841   0.8871   0.8871   0.8935   0.8956   0.8956
     0.9089   0.9089   0.9302   0.9302   0.9356   0.9356   0.9406   0.9406
     0.9432   0.9486   0.9486   0.9486   0.9486   0.9492   0.9492   0.9598
     0.9647   0.9647   0.9671   0.9691   0.9693   0.9693   0.9829   0.9866
     0.9866   0.9878   0.9888   0.9888   0.9943   0.9943   0.9954   0.9960
     0.9980   0.9980   1.0045   1.0147   1.0197   1.0223   1.0223   1.0243
     1.0244   1.0326   1.0326   1.0355   1.0355   1.0431   1.0431   1.0432
     1.0432   1.0468   1.0468   1.0520   1.0520   1.0533   1.0533   1.0579
     1.0579   1.0677   1.0678   1.0680   1.0700   1.0700   1.0776   1.0899
     1.0950   1.0950   1.1029   1.1029   1.1139   1.1139   1.1143   1.1204
     1.1211   1.1212   1.1212   1.1313   1.1358   1.1358   1.1364   1.1459
     1.1491   1.1491   1.1549   1.1549   1.1596   1.1596   1.1598   1.1599
     1.1605   1.1605   1.1619   1.2696   1.4719   1.6846   1.6846   1.7506
     1.9687   1.9687   2.1882   2.1882   2.4035   2.4035   2.6203   2.6203
     2.6509   2.8268   2.8268   2.8550   3.0228   3.1395   3.1395   3.7127
     3.7128   4.0386   4.0386   4.0418   4.0419   4.0658   4.0740   4.0740
     4.1389   4.1389   4.3597   4.5651   4.8276   5.1779   5.1779   5.6367
     5.6367   5.6436   5.6436   5.6856   5.6856   5.7266   5.7266   5.9245
     5.9261   5.9261   6.1959   6.1959   6.3190   6.3190   6.3605   6.3607
     6.4281   6.4301

          k = 0.0346 0.1038 0.1730 (124767 PWs)   bands (ev):

   -80.7374 -80.7373 -80.7373 -80.7373 -80.7373 -80.7373 -80.7373 -80.7373
   -80.7373 -80.7373 -80.7373 -80.7373 -80.7373 -80.7373 -80.7373 -80.7373
   -80.7373 -80.7373 -80.7373 -80.7373 -80.7373 -80.7373 -80.7373 -80.7373
   -80.7373 -80.7373 -80.7373 -80.7373 -80.7373 -80.7373 -80.7372 -80.7368
   -46.5413 -46.5413 -46.5413 -46.5413 -46.5412 -46.5412 -46.5412 -46.5411
   -46.5411 -46.5411 -46.5411 -46.5411 -46.5411 -46.5411 -46.5411 -46.5411
   -46.5411 -46.5411 -46.5410 -46.5410 -46.5410 -46.5410 -46.5410 -46.5410
   -46.5410 -46.5409 -46.5409 -46.5409 -46.5409 -46.5409 -46.5409 -46.5409
   -46.5409 -46.5409 -46.5409 -46.5408 -46.5408 -46.5408 -46.5408 -46.5408
   -46.5408 -46.5407 -46.5407 -46.5407 -46.5407 -46.5407 -46.5407 -46.5407
   -46.5407 -46.5407 -46.5406 -46.5406 -46.5406 -46.5406 -46.5406 -46.5406
   -46.5406 -46.5406 -46.5406 -46.5406 -46.5406 -46.5406 -46.5406 -46.5406
   -46.5405 -46.5405 -46.5405 -46.5405 -46.5405 -46.5405 -46.5405 -46.5405
   -46.5404 -46.5404 -46.5404 -46.5404 -46.5404 -46.5404 -46.5404 -46.5404
   -46.5404 -46.5403 -46.5403 -46.5403 -46.5403 -46.5403 -46.5403 -46.5403
   -46.5403 -46.5403 -46.5403 -46.5402 -46.5402 -46.5402 -46.5401 -46.5401
     0.2062   0.6142   0.6489   0.6571   0.6668   0.6685   0.6760   0.6783
     0.6813   0.6835   0.6887   0.6974   0.7280   0.7350   0.7464   0.7468
     0.7512   0.7527   0.7560   0.7565   0.7582   0.7651   0.7659   0.7677
     0.7714   0.7737   0.7776   0.7789   0.7818   0.7849   0.7855   0.7933
     0.7945   0.7957   0.8012   0.8022   0.8045   0.8059   0.8107   0.8118
     0.8154   0.8168   0.8208   0.8273   0.8374   0.8395   0.8423   0.8456
     0.8461   0.8483   0.8527   0.8567   0.8599   0.8634   0.8642   0.8643
     0.8644   0.8653   0.8655   0.8679   0.8713   0.8718   0.8776   0.8835
     0.8854   0.8856   0.8888   0.8909   0.8952   0.8962   0.8969   0.9000
     0.9026   0.9036   0.9184   0.9202   0.9293   0.9295   0.9339   0.9347
     0.9355   0.9362   0.9364   0.9379   0.9414   0.9447   0.9474   0.9510
     0.9529   0.9595   0.9622   0.9686   0.9719   0.9748   0.9783   0.9791
     0.9800   0.9916   0.9944   0.9967   0.9977   0.9998   1.0026   1.0026
     1.0032   1.0070   1.0085   1.0099   1.0131   1.0227   1.0232   1.0324
     1.0346   1.0347   1.0378   1.0401   1.0425   1.0426   1.0470   1.0498
     1.0511   1.0556   1.0559   1.0567   1.0586   1.0623   1.0633   1.0680
     1.0732   1.0753   1.0795   1.0816   1.0854   1.0856   1.0856   1.0859
     1.0933   1.0959   1.0977   1.0986   1.0987   1.1064   1.1080   1.1088
     1.1124   1.1145   1.1261   1.1274   1.1324   1.1328   1.1332   1.1333
     1.1411   1.1457   1.1459   1.1486   1.1492   1.1515   1.1583   1.1595
     1.1600   1.1603   1.1604   1.3279   1.5328   1.5828   1.7468   1.7949
     1.9624   2.0137   2.0185   2.2312   2.2399   2.4785   2.6650   2.6716
     2.6948   2.8736   2.8757   3.0644   3.0685   3.1704   3.2524   3.3288
     3.7479   3.8055   3.8778   3.9310   3.9839   4.0413   4.0802   4.1417
     4.1442   4.2506   4.6224   4.8410   4.8917   5.2190   5.3413   5.4470
     5.4890   5.5291   5.5436   5.5661   5.5776   5.6352   5.6582   5.7612
     5.7711   5.8017   5.9818   6.0599   6.2145   6.2941   6.3792   6.3870
     6.4432   6.5215

          k = 0.0346 0.1038 0.2423 (124733 PWs)   bands (ev):

   -80.7374 -80.7373 -80.7373 -80.7373 -80.7373 -80.7373 -80.7373 -80.7373
   -80.7373 -80.7373 -80.7373 -80.7373 -80.7373 -80.7373 -80.7373 -80.7373
   -80.7373 -80.7373 -80.7373 -80.7373 -80.7373 -80.7373 -80.7373 -80.7373
   -80.7373 -80.7373 -80.7373 -80.7373 -80.7373 -80.7372 -80.7372 -80.7368
   -46.5413 -46.5413 -46.5413 -46.5412 -46.5412 -46.5412 -46.5412 -46.5412
   -46.5412 -46.5411 -46.5411 -46.5411 -46.5411 -46.5411 -46.5411 -46.5411
   -46.5411 -46.5411 -46.5411 -46.5410 -46.5410 -46.5410 -46.5410 -46.5410
   -46.5409 -46.5409 -46.5409 -46.5409 -46.5409 -46.5409 -46.5409 -46.5409
   -46.5409 -46.5409 -46.5408 -46.5408 -46.5408 -46.5408 -46.5408 -46.5408
   -46.5408 -46.5408 -46.5407 -46.5407 -46.5407 -46.5407 -46.5407 -46.5407
   -46.5407 -46.5407 -46.5406 -46.5406 -46.5406 -46.5406 -46.5406 -46.5406
   -46.5406 -46.5406 -46.5406 -46.5405 -46.5405 -46.5405 -46.5405 -46.5405
   -46.5405 -46.5405 -46.5405 -46.5405 -46.5405 -46.5405 -46.5405 -46.5405
   -46.5405 -46.5404 -46.5404 -46.5404 -46.5404 -46.5404 -46.5404 -46.5404
   -46.5404 -46.5404 -46.5403 -46.5403 -46.5403 -46.5403 -46.5403 -46.5403
   -46.5403 -46.5403 -46.5403 -46.5402 -46.5402 -46.5401 -46.5401 -46.5401
     0.2810   0.4930   0.6643   0.6740   0.6864   0.6876   0.6886   0.6894
     0.6953   0.6965   0.7066   0.7128   0.7139   0.7174   0.7243   0.7281
     0.7284   0.7384   0.7403   0.7404   0.7537   0.7595   0.7606   0.7611
     0.7619   0.7672   0.7679   0.7686   0.7721   0.7767   0.7875   0.7930
     0.7938   0.7956   0.7998   0.8043   0.8088   0.8099   0.8165   0.8204
     0.8249   0.8308   0.8324   0.8344   0.8357   0.8372   0.8401   0.8478
     0.8503   0.8516   0.8546   0.8547   0.8551   0.8558   0.8601   0.8603
     0.8615   0.8666   0.8706   0.8751   0.8758   0.8778   0.8805   0.8916
     0.8921   0.8933   0.8937   0.8937   0.8963   0.8994   0.9008   0.9062
     0.9084   0.9085   0.9097   0.9110   0.9134   0.9150   0.9157   0.9195
     0.9233   0.9244   0.9260   0.9264   0.9277   0.9283   0.9328   0.9330
     0.9372   0.9396   0.9422   0.9575   0.9681   0.9709   0.9756   0.9761
     0.9949   0.9977   0.9996   1.0031   1.0094   1.0125   1.0135   1.0185
     1.0190   1.0218   1.0270   1.0272   1.0277   1.0281   1.0299   1.0322
     1.0352   1.0384   1.0410   1.0415   1.0423   1.0441   1.0467   1.0517
     1.0553   1.0694   1.0708   1.0728   1.0748   1.0754   1.0772   1.0782
     1.0785   1.0791   1.0800   1.0856   1.0906   1.0913   1.0914   1.0915
     1.0948   1.0955   1.0956   1.0982   1.1011   1.1021   1.1023   1.1024
     1.1037   1.1045   1.1150   1.1151   1.1174   1.1252   1.1252   1.1266
     1.1290   1.1332   1.1334   1.1336   1.1341   1.1401   1.1595   1.1598
     1.1601   1.1603   1.2315   1.4107   1.4412   1.6193   1.6440   1.8349
     1.8605   2.0785   2.0945   2.2685   2.3175   2.3258   2.5475   2.7469
     2.9436   2.9457   2.9539   2.9548   3.1163   3.1377   3.3143   3.4824
     3.5263   3.6577   3.7647   3.7970   3.8924   3.9201   4.0986   4.1332
     4.3499   4.5130   4.9231   4.9736   4.9873   5.1484   5.1724   5.2678
     5.2800   5.4113   5.4560   5.4684   5.5017   5.6083   5.6305   5.6611
     5.7164   5.8398   5.8737   6.0317   6.1157   6.1330   6.2233   6.5625
     6.5962   6.6367

          k = 0.0346 0.1038-0.3115 (124780 PWs)   bands (ev):

   -80.7374 -80.7373 -80.7373 -80.7373 -80.7373 -80.7373 -80.7373 -80.7373
   -80.7373 -80.7373 -80.7373 -80.7373 -80.7373 -80.7373 -80.7373 -80.7373
   -80.7373 -80.7373 -80.7373 -80.7373 -80.7373 -80.7373 -80.7373 -80.7373
   -80.7373 -80.7373 -80.7373 -80.7373 -80.7373 -80.7372 -80.7372 -80.7368
   -46.5413 -46.5413 -46.5412 -46.5412 -46.5412 -46.5412 -46.5412 -46.5412
   -46.5412 -46.5412 -46.5412 -46.5411 -46.5411 -46.5411 -46.5411 -46.5411
   -46.5411 -46.5411 -46.5410 -46.5410 -46.5410 -46.5410 -46.5410 -46.5410
   -46.5410 -46.5409 -46.5409 -46.5409 -46.5409 -46.5409 -46.5409 -46.5409
   -46.5409 -46.5409 -46.5409 -46.5408 -46.5408 -46.5408 -46.5408 -46.5408
   -46.5408 -46.5408 -46.5407 -46.5407 -46.5407 -46.5407 -46.5407 -46.5407
   -46.5407 -46.5406 -46.5406 -46.5406 -46.5406 -46.5406 -46.5406 -46.5406
   -46.5406 -46.5406 -46.5406 -46.5406 -46.5405 -46.5405 -46.5405 -46.5405
   -46.5405 -46.5405 -46.5405 -46.5405 -46.5405 -46.5405 -46.5405 -46.5405
   -46.5404 -46.5404 -46.5404 -46.5404 -46.5404 -46.5404 -46.5404 -46.5404
   -46.5404 -46.5404 -46.5404 -46.5403 -46.5403 -46.5403 -46.5403 -46.5403
   -46.5403 -46.5403 -46.5403 -46.5402 -46.5402 -46.5402 -46.5401 -46.5401
     0.3781   0.3781   0.6861   0.6861   0.6966   0.6966   0.6992   0.6992
     0.7062   0.7062   0.7106   0.7106   0.7107   0.7107   0.7139   0.7139
     0.7165   0.7165   0.7287   0.7287   0.7411   0.7411   0.7662   0.7662
     0.7668   0.7668   0.7678   0.7678   0.7760   0.7760   0.7810   0.7810
     0.7906   0.7906   0.8141   0.8141   0.8165   0.8165   0.8247   0.8247
     0.8251   0.8251   0.8296   0.8296   0.8308   0.8308   0.8444   0.8444
     0.8549   0.8549   0.8565   0.8565   0.8578   0.8578   0.8631   0.8631
     0.8689   0.8689   0.8742   0.8742   0.8746   0.8746   0.8770   0.8770
     0.8976   0.8976   0.8983   0.8983   0.9052   0.9052   0.9055   0.9055
     0.9105   0.9105   0.9124   0.9124   0.9126   0.9126   0.9136   0.9136
     0.9143   0.9143   0.9234   0.9234   0.9235   0.9235   0.9246   0.9246
     0.9251   0.9251   0.9300   0.9300   0.9686   0.9686   0.9750   0.9750
     0.9961   0.9961   0.9974   0.9974   1.0195   1.0195   1.0271   1.0271
     1.0279   1.0280   1.0280   1.0280   1.0352   1.0352   1.0402   1.0402
     1.0511   1.0511   1.0524   1.0525   1.0532   1.0532   1.0544   1.0544
     1.0559   1.0559   1.0617   1.0617   1.0668   1.0668   1.0687   1.0687
     1.0827   1.0827   1.0846   1.0846   1.0886   1.0886   1.0889   1.0889
     1.0978   1.0978   1.0986   1.0987   1.1122   1.1122   1.1124   1.1124
     1.1146   1.1146   1.1156   1.1156   1.1161   1.1161   1.1162   1.1162
     1.1183   1.1183   1.1186   1.1186   1.1285   1.1285   1.1596   1.1596
     1.1602   1.1602   1.3248   1.3248   1.5161   1.5161   1.7289   1.7289
     1.9460   1.9461   2.1971   2.1972   2.4205   2.4206   2.6002   2.6002
     2.8431   2.8431   3.0305   3.0306   3.2336   3.2336   3.4038   3.4038
     3.5523   3.5524   3.7009   3.7010   3.8560   3.8560   4.1175   4.1175
     4.6376   4.6376   4.8257   4.8257   5.1134   5.1134   5.2534   5.2534
     5.3596   5.3596   5.4085   5.4085   5.4826   5.4826   5.5405   5.5405
     5.6715   5.6715   5.9935   5.9935   6.0984   6.0984   6.6048   6.6049
     6.6919   6.6919

          k = 0.0346 0.1730 0.1730 (124737 PWs)   bands (ev):

   -80.7374 -80.7373 -80.7373 -80.7373 -80.7373 -80.7373 -80.7373 -80.7373
   -80.7373 -80.7373 -80.7373 -80.7373 -80.7373 -80.7373 -80.7373 -80.7373
   -80.7373 -80.7373 -80.7373 -80.7373 -80.7373 -80.7373 -80.7373 -80.7373
   -80.7373 -80.7373 -80.7373 -80.7373 -80.7373 -80.7373 -80.7373 -80.7368
   -46.5413 -46.5413 -46.5412 -46.5412 -46.5412 -46.5412 -46.5412 -46.5411
   -46.5411 -46.5411 -46.5411 -46.5411 -46.5411 -46.5411 -46.5411 -46.5411
   -46.5411 -46.5411 -46.5411 -46.5410 -46.5410 -46.5410 -46.5410 -46.5410
   -46.5410 -46.5409 -46.5409 -46.5409 -46.5409 -46.5409 -46.5409 -46.5409
   -46.5409 -46.5409 -46.5408 -46.5408 -46.5408 -46.5408 -46.5408 -46.5408
   -46.5408 -46.5407 -46.5407 -46.5407 -46.5407 -46.5407 -46.5407 -46.5407
   -46.5406 -46.5406 -46.5406 -46.5406 -46.5406 -46.5406 -46.5406 -46.5406
   -46.5406 -46.5406 -46.5406 -46.5406 -46.5405 -46.5405 -46.5405 -46.5405
   -46.5405 -46.5405 -46.5405 -46.5405 -46.5405 -46.5405 -46.5405 -46.5404
   -46.5404 -46.5404 -46.5404 -46.5404 -46.5404 -46.5404 -46.5404 -46.5404
   -46.5404 -46.5404 -46.5404 -46.5404 -46.5403 -46.5403 -46.5403 -46.5403
   -46.5403 -46.5403 -46.5402 -46.5402 -46.5402 -46.5401 -46.5401 -46.5401
     0.2558   0.6451   0.6451   0.6550   0.6650   0.6800   0.6832   0.6832
     0.6879   0.6879   0.6965   0.6965   0.7148   0.7357   0.7357   0.7424
     0.7424   0.7467   0.7467   0.7477   0.7495   0.7526   0.7526   0.7601
     0.7610   0.7610   0.7715   0.7715   0.7724   0.7724   0.7783   0.7783
     0.7868   0.7868   0.7877   0.8016   0.8017   0.8049   0.8049   0.8135
     0.8135   0.8206   0.8206   0.8345   0.8345   0.8349   0.8428   0.8429
     0.8447   0.8477   0.8477   0.8502   0.8517   0.8517   0.8594   0.8594
     0.8629   0.8699   0.8699   0.8721   0.8765   0.8765   0.8783   0.8886
     0.8886   0.8888   0.8908   0.8954   0.8972   0.9005   0.9077   0.9077
     0.9153   0.9153   0.9270   0.9271   0.9272   0.9340   0.9340   0.9353
     0.9353   0.9374   0.9468   0.9468   0.9511   0.9563   0.9563   0.9579
     0.9579   0.9586   0.9589   0.9653   0.9683   0.9683   0.9765   0.9765
     0.9807   0.9834   0.9873   0.9873   0.9902   0.9902   0.9910   0.9910
     0.9982   0.9982   1.0078   1.0150   1.0169   1.0169   1.0243   1.0265
     1.0265   1.0282   1.0282   1.0523   1.0523   1.0524   1.0524   1.0666
     1.0666   1.0668   1.0668   1.0673   1.0673   1.0767   1.0767   1.0802
     1.0804   1.0804   1.0831   1.0831   1.0856   1.0856   1.0883   1.0907
     1.0912   1.0967   1.0967   1.0991   1.0991   1.1001   1.1001   1.1019
     1.1053   1.1076   1.1076   1.1132   1.1257   1.1305   1.1305   1.1333
     1.1333   1.1339   1.1401   1.1401   1.1487   1.1487   1.1495   1.1495
     1.1511   1.1511   1.1546   1.3800   1.4248   1.5897   1.8429   1.8429
     2.0223   2.0223   2.0648   2.0648   2.3017   2.4973   2.4973   2.5249
     2.9216   2.9216   3.1106   3.1106   3.2026   3.2026   3.3733   3.3733
     3.4604   3.7061   3.7061   3.8229   3.8229   4.0811   4.0811   4.0896
     4.2119   4.2119   4.8944   4.9549   5.1211   5.1989   5.1989   5.2962
     5.2962   5.3836   5.3836   5.4899   5.4899   5.6560   5.6560   5.7002
     5.7589   5.7589   6.1518   6.1518   6.2017   6.2518   6.2518   6.4919
     6.4920   6.5075

          k = 0.0346 0.1730 0.2423 (124779 PWs)   bands (ev):

   -80.7374 -80.7373 -80.7373 -80.7373 -80.7373 -80.7373 -80.7373 -80.7373
   -80.7373 -80.7373 -80.7373 -80.7373 -80.7373 -80.7373 -80.7373 -80.7373
   -80.7373 -80.7373 -80.7373 -80.7373 -80.7373 -80.7373 -80.7373 -80.7373
   -80.7373 -80.7373 -80.7373 -80.7373 -80.7373 -80.7373 -80.7373 -80.7368
   -46.5413 -46.5413 -46.5413 -46.5412 -46.5412 -46.5412 -46.5412 -46.5412
   -46.5412 -46.5412 -46.5411 -46.5411 -46.5411 -46.5411 -46.5411 -46.5411
   -46.5411 -46.5411 -46.5411 -46.5411 -46.5410 -46.5410 -46.5410 -46.5410
   -46.5410 -46.5409 -46.5409 -46.5409 -46.5409 -46.5409 -46.5409 -46.5409
   -46.5408 -46.5408 -46.5408 -46.5408 -46.5408 -46.5408 -46.5408 -46.5408
   -46.5408 -46.5408 -46.5407 -46.5407 -46.5407 -46.5407 -46.5407 -46.5407
   -46.5407 -46.5407 -46.5407 -46.5407 -46.5406 -46.5406 -46.5406 -46.5406
   -46.5406 -46.5406 -46.5406 -46.5406 -46.5405 -46.5405 -46.5405 -46.5405
   -46.5405 -46.5405 -46.5405 -46.5405 -46.5405 -46.5405 -46.5405 -46.5405
   -46.5405 -46.5404 -46.5404 -46.5404 -46.5404 -46.5404 -46.5404 -46.5404
   -46.5404 -46.5404 -46.5404 -46.5403 -46.5403 -46.5403 -46.5403 -46.5403
   -46.5403 -46.5403 -46.5403 -46.5402 -46.5402 -46.5402 -46.5401 -46.5401
     0.3287   0.5325   0.6675   0.6788   0.6854   0.6895   0.6970   0.7024
     0.7028   0.7035   0.7085   0.7116   0.7145   0.7212   0.7232   0.7236
     0.7364   0.7400   0.7418   0.7420   0.7442   0.7464   0.7465   0.7476
     0.7491   0.7505   0.7507   0.7515   0.7608   0.7625   0.7790   0.7806
     0.7811   0.7827   0.7874   0.7906   0.7959   0.7964   0.7973   0.8093
     0.8205   0.8276   0.8281   0.8289   0.8320   0.8335   0.8347   0.8349
     0.8414   0.8448   0.8451   0.8478   0.8538   0.8540   0.8568   0.8605
     0.8715   0.8723   0.8794   0.8795   0.8797   0.8809   0.8811   0.8844
     0.8975   0.8985   0.9045   0.9050   0.9065   0.9117   0.9132   0.9216
     0.9217   0.9220   0.9231   0.9232   0.9249   0.9274   0.9275   0.9293
     0.9310   0.9316   0.9318   0.9408   0.9410   0.9469   0.9505   0.9523
     0.9532   0.9535   0.9560   0.9586   0.9631   0.9677   0.9717   0.9764
     0.9773   0.9825   0.9908   0.9940   0.9972   1.0027   1.0032   1.0043
     1.0049   1.0104   1.0119   1.0174   1.0174   1.0186   1.0186   1.0215
     1.0262   1.0302   1.0405   1.0458   1.0545   1.0576   1.0587   1.0599
     1.0606   1.0635   1.0661   1.0674   1.0693   1.0694   1.0703   1.0779
     1.0809   1.0847   1.0851   1.0879   1.0890   1.0904   1.0904   1.0953
     1.0956   1.0964   1.1032   1.1036   1.1048   1.1049   1.1115   1.1117
     1.1125   1.1133   1.1175   1.1182   1.1194   1.1239   1.1294   1.1295
     1.1304   1.1322   1.1324   1.1325   1.1343   1.1347   1.1392   1.1489
     1.1498   1.1506   1.1512   1.2985   1.4584   1.6728   1.6906   1.9114
     1.9171   2.1082   2.1420   2.1474   2.3258   2.3476   2.3737   2.7836
     2.9899   3.0049   3.1536   3.1667   3.1776   3.2504   3.3418   3.3978
     3.4369   3.6077   3.6502   3.6600   3.7164   3.9805   4.0994   4.1008
     4.3141   4.4110   4.8467   5.0220   5.0489   5.1063   5.1403   5.1981
     5.2019   5.2647   5.3213   5.4299   5.5417   5.6326   5.6836   5.7397
     5.8818   5.9503   6.0116   6.0590   6.1116   6.1198   6.3161   6.3166
     6.5455   6.7942

          k = 0.0346 0.1730-0.3115 (124786 PWs)   bands (ev):

   -80.7374 -80.7373 -80.7373 -80.7373 -80.7373 -80.7373 -80.7373 -80.7373
   -80.7373 -80.7373 -80.7373 -80.7373 -80.7373 -80.7373 -80.7373 -80.7373
   -80.7373 -80.7373 -80.7373 -80.7373 -80.7373 -80.7373 -80.7373 -80.7373
   -80.7373 -80.7373 -80.7373 -80.7373 -80.7373 -80.7373 -80.7373 -80.7368
   -46.5413 -46.5413 -46.5412 -46.5412 -46.5412 -46.5412 -46.5412 -46.5412
   -46.5412 -46.5412 -46.5411 -46.5411 -46.5411 -46.5411 -46.5411 -46.5411
   -46.5411 -46.5411 -46.5411 -46.5411 -46.5411 -46.5410 -46.5410 -46.5410
   -46.5410 -46.5409 -46.5409 -46.5409 -46.5409 -46.5409 -46.5408 -46.5408
   -46.5408 -46.5408 -46.5408 -46.5408 -46.5408 -46.5408 -46.5408 -46.5408
   -46.5408 -46.5408 -46.5407 -46.5407 -46.5407 -46.5407 -46.5407 -46.5407
   -46.5407 -46.5407 -46.5407 -46.5407 -46.5406 -46.5406 -46.5406 -46.5406
   -46.5406 -46.5405 -46.5405 -46.5405 -46.5405 -46.5405 -46.5405 -46.5405
   -46.5405 -46.5405 -46.5405 -46.5405 -46.5405 -46.5405 -46.5405 -46.5405
   -46.5404 -46.5404 -46.5404 -46.5404 -46.5404 -46.5404 -46.5404 -46.5404
   -46.5404 -46.5404 -46.5404 -46.5404 -46.5404 -46.5403 -46.5403 -46.5403
   -46.5403 -46.5403 -46.5403 -46.5402 -46.5402 -46.5402 -46.5401 -46.5401
     0.4227   0.4228   0.6864   0.6864   0.6984   0.6984   0.7042   0.7042
     0.7081   0.7081   0.7226   0.7226   0.7240   0.7240   0.7256   0.7256
     0.7266   0.7266   0.7272   0.7272   0.7364   0.7364   0.7395   0.7395
     0.7454   0.7454   0.7466   0.7466   0.7611   0.7611   0.7634   0.7634
     0.7878   0.7878   0.7894   0.7894   0.8039   0.8039   0.8040   0.8040
     0.8101   0.8101   0.8215   0.8215   0.8352   0.8352   0.8382   0.8382
     0.8471   0.8471   0.8489   0.8489   0.8494   0.8494   0.8578   0.8578
     0.8722   0.8722   0.8801   0.8801   0.8809   0.8809   0.8955   0.8955
     0.9089   0.9089   0.9107   0.9107   0.9115   0.9115   0.9162   0.9162
     0.9166   0.9166   0.9184   0.9184   0.9225   0.9225   0.9274   0.9274
     0.9377   0.9377   0.9385   0.9385   0.9396   0.9396   0.9470   0.9470
     0.9480   0.9480   0.9486   0.9486   0.9576   0.9576   0.9640   0.9640
     0.9746   0.9746   0.9987   0.9988   1.0060   1.0060   1.0065   1.0065
     1.0126   1.0126   1.0316   1.0316   1.0345   1.0345   1.0353   1.0353
     1.0368   1.0368   1.0369   1.0369   1.0399   1.0399   1.0454   1.0454
     1.0553   1.0554   1.0620   1.0620   1.0642   1.0642   1.0687   1.0687
     1.0823   1.0823   1.0863   1.0863   1.0954   1.0954   1.1021   1.1021
     1.1022   1.1022   1.1070   1.1070   1.1103   1.1103   1.1164   1.1165
     1.1184   1.1184   1.1197   1.1197   1.1222   1.1222   1.1226   1.1226
     1.1232   1.1232   1.1236   1.1236   1.1282   1.1282   1.1497   1.1497
     1.1502   1.1502   1.2027   1.2027   1.5622   1.5622   1.7804   1.7804
     2.0187   2.0187   2.2173   2.2173   2.2453   2.2453   2.6543   2.6543
     3.0721   3.0721   3.0861   3.0861   3.2231   3.2231   3.4271   3.4271
     3.5164   3.5164   3.5513   3.5513   3.8377   3.8377   4.1050   4.1050
     4.5412   4.5412   4.6920   4.6920   5.0801   5.0801   5.1720   5.1721
     5.1982   5.1982   5.5287   5.5287   5.5875   5.5876   5.7132   5.7132
     5.7640   5.7640   5.9837   5.9837   6.1333   6.1333   6.5342   6.5342
     6.5655   6.5656

          k = 0.0346 0.2423 0.2423 (124835 PWs)   bands (ev):

   -80.7374 -80.7373 -80.7373 -80.7373 -80.7373 -80.7373 -80.7373 -80.7373
   -80.7373 -80.7373 -80.7373 -80.7373 -80.7373 -80.7373 -80.7373 -80.7373
   -80.7373 -80.7373 -80.7373 -80.7373 -80.7373 -80.7373 -80.7373 -80.7373
   -80.7373 -80.7373 -80.7373 -80.7373 -80.7373 -80.7373 -80.7373 -80.7368
   -46.5413 -46.5413 -46.5413 -46.5412 -46.5412 -46.5412 -46.5412 -46.5412
   -46.5412 -46.5412 -46.5412 -46.5412 -46.5412 -46.5412 -46.5411 -46.5411
   -46.5411 -46.5411 -46.5411 -46.5411 -46.5411 -46.5410 -46.5410 -46.5410
   -46.5410 -46.5410 -46.5409 -46.5409 -46.5409 -46.5409 -46.5409 -46.5408
   -46.5408 -46.5408 -46.5408 -46.5408 -46.5408 -46.5408 -46.5408 -46.5408
   -46.5408 -46.5408 -46.5408 -46.5408 -46.5407 -46.5407 -46.5407 -46.5407
   -46.5407 -46.5407 -46.5407 -46.5407 -46.5407 -46.5406 -46.5406 -46.5406
   -46.5406 -46.5406 -46.5406 -46.5406 -46.5406 -46.5406 -46.5405 -46.5405
   -46.5405 -46.5405 -46.5405 -46.5405 -46.5405 -46.5405 -46.5405 -46.5405
   -46.5405 -46.5404 -46.5404 -46.5404 -46.5404 -46.5404 -46.5404 -46.5404
   -46.5404 -46.5404 -46.5404 -46.5404 -46.5403 -46.5403 -46.5403 -46.5403
   -46.5403 -46.5403 -46.5403 -46.5402 -46.5402 -46.5401 -46.5401 -46.5400
     0.3984   0.5872   0.5872   0.6765   0.6889   0.6957   0.7114   0.7114
     0.7124   0.7128   0.7128   0.7216   0.7216   0.7235   0.7235   0.7245
     0.7245   0.7266   0.7266   0.7275   0.7341   0.7341   0.7356   0.7371
     0.7543   0.7543   0.7591   0.7607   0.7607   0.7629   0.7629   0.7664
     0.7664   0.7723   0.7723   0.7725   0.7725   0.7941   0.7941   0.8073
     0.8073   0.8102   0.8102   0.8239   0.8239   0.8350   0.8350   0.8392
     0.8392   0.8397   0.8397   0.8433   0.8470   0.8470   0.8550   0.8591
     0.8743   0.8784   0.8784   0.8797   0.8813   0.8849   0.8850   0.8979
     0.9027   0.9060   0.9133   0.9152   0.9228   0.9265   0.9265   0.9275
     0.9275   0.9283   0.9283   0.9341   0.9350   0.9351   0.9353   0.9353
     0.9374   0.9374   0.9400   0.9450   0.9456   0.9493   0.9493   0.9599
     0.9656   0.9656   0.9724   0.9724   0.9769   0.9778   0.9778   0.9797
     0.9797   0.9821   0.9884   0.9884   0.9921   0.9921   0.9962   0.9962
     0.9989   1.0004   1.0004   1.0067   1.0067   1.0071   1.0071   1.0093
     1.0093   1.0325   1.0375   1.0378   1.0379   1.0385   1.0460   1.0506
     1.0506   1.0593   1.0593   1.0705   1.0772   1.0772   1.0810   1.0811
     1.0849   1.0870   1.0870   1.0887   1.0887   1.0973   1.0973   1.0993
     1.1001   1.1001   1.1112   1.1120   1.1120   1.1129   1.1141   1.1141
     1.1155   1.1155   1.1184   1.1202   1.1202   1.1214   1.1214   1.1291
     1.1303   1.1303   1.1303   1.1303   1.1354   1.1354   1.1357   1.1357
     1.1376   1.1376   1.1435   1.1952   1.5331   1.7527   1.7635   1.7635
     1.9885   1.9885   1.9928   2.2208   2.4084   2.4084   2.6396   2.6397
     3.0772   3.0773   3.2299   3.2299   3.2772   3.2772   3.3010   3.3010
     3.3681   3.3681   3.6141   3.6141   3.8192   4.0418   4.0419   4.0947
     4.4111   4.4111   4.7869   4.7869   4.9231   4.9231   4.9629   4.9630
     5.1398   5.3962   5.3962   5.5019   5.5618   5.7384   5.9665   6.0184
     6.0184   6.0981   6.0981   6.1037   6.1037   6.1804   6.1804   6.4242
     6.4242   6.5112

          k = 0.0346 0.2423-0.3115 (124792 PWs)   bands (ev):

   -80.7374 -80.7373 -80.7373 -80.7373 -80.7373 -80.7373 -80.7373 -80.7373
   -80.7373 -80.7373 -80.7373 -80.7373 -80.7373 -80.7373 -80.7373 -80.7373
   -80.7373 -80.7373 -80.7373 -80.7373 -80.7373 -80.7373 -80.7373 -80.7373
   -80.7373 -80.7373 -80.7373 -80.7373 -80.7373 -80.7373 -80.7373 -80.7368
   -46.5413 -46.5413 -46.5413 -46.5412 -46.5412 -46.5412 -46.5412 -46.5412
   -46.5412 -46.5412 -46.5412 -46.5412 -46.5412 -46.5412 -46.5411 -46.5411
   -46.5411 -46.5411 -46.5411 -46.5411 -46.5410 -46.5410 -46.5410 -46.5410
   -46.5410 -46.5410 -46.5409 -46.5409 -46.5409 -46.5409 -46.5408 -46.5408
   -46.5408 -46.5408 -46.5408 -46.5408 -46.5408 -46.5408 -46.5408 -46.5408
   -46.5408 -46.5408 -46.5408 -46.5407 -46.5407 -46.5407 -46.5407 -46.5407
   -46.5407 -46.5407 -46.5407 -46.5406 -46.5406 -46.5406 -46.5406 -46.5406
   -46.5406 -46.5406 -46.5406 -46.5406 -46.5405 -46.5405 -46.5405 -46.5405
   -46.5405 -46.5405 -46.5405 -46.5405 -46.5405 -46.5405 -46.5405 -46.5405
   -46.5405 -46.5404 -46.5404 -46.5404 -46.5404 -46.5404 -46.5404 -46.5404
   -46.5404 -46.5404 -46.5404 -46.5404 -46.5403 -46.5403 -46.5403 -46.5403
   -46.5403 -46.5403 -46.5403 -46.5402 -46.5401 -46.5401 -46.5401 -46.5401
     0.4869   0.4869   0.6506   0.6506   0.6916   0.6916   0.7042   0.7042
     0.7072   0.7072   0.7180   0.7180   0.7219   0.7219   0.7280   0.7280
     0.7284   0.7284   0.7306   0.7306   0.7423   0.7423   0.7425   0.7425
     0.7428   0.7428   0.7484   0.7484   0.7513   0.7513   0.7630   0.7630
     0.7776   0.7776   0.7819   0.7819   0.7833   0.7833   0.7842   0.7842
     0.7880   0.7880   0.8266   0.8266   0.8314   0.8314   0.8346   0.8346
     0.8405   0.8405   0.8416   0.8416   0.8426   0.8426   0.8488   0.8488
     0.8765   0.8765   0.8834   0.8834   0.8840   0.8840   0.8919   0.8919
     0.9132   0.9132   0.9157   0.9157   0.9226   0.9226   0.9261   0.9261
     0.9320   0.9320   0.9332   0.9332   0.9354   0.9354   0.9392   0.9392
     0.9543   0.9543   0.9550   0.9550   0.9568   0.9568   0.9569   0.9569
     0.9586   0.9586   0.9642   0.9642   0.9706   0.9706   0.9707   0.9707
     0.9904   0.9904   0.9907   0.9907   0.9954   0.9954   0.9956   0.9956
     0.9961   0.9961   1.0049   1.0049   1.0144   1.0145   1.0152   1.0152
     1.0154   1.0154   1.0181   1.0181   1.0295   1.0295   1.0432   1.0432
     1.0490   1.0490   1.0542   1.0542   1.0729   1.0729   1.0851   1.0851
     1.0852   1.0852   1.1013   1.1013   1.1029   1.1029   1.1064   1.1064
     1.1069   1.1069   1.1111   1.1111   1.1151   1.1151   1.1179   1.1179
     1.1223   1.1224   1.1234   1.1234   1.1245   1.1245   1.1259   1.1259
     1.1263   1.1263   1.1268   1.1268   1.1269   1.1269   1.1275   1.1275
     1.1363   1.1363   1.1385   1.1385   1.6351   1.6351   1.8583   1.8583
     1.8643   1.8643   2.0919   2.0919   2.5138   2.5139   2.7326   2.7326
     2.9512   2.9513   3.1691   3.1691   3.2805   3.2806   3.3673   3.3673
     3.4467   3.4467   3.5234   3.5234   3.9486   3.9487   4.0780   4.0780
     4.5419   4.5419   4.6281   4.6281   4.8201   4.8201   4.8950   4.8950
     5.2575   5.2575   5.4820   5.4820   5.8306   5.8306   5.9802   5.9802
     6.0685   6.0685   6.0709   6.0709   6.2731   6.2731   6.2765   6.2765
     6.5011   6.5011

          k = 0.0346-0.3115-0.3115 (124872 PWs)   bands (ev):

   -80.7374 -80.7373 -80.7373 -80.7373 -80.7373 -80.7373 -80.7373 -80.7373
   -80.7373 -80.7373 -80.7373 -80.7373 -80.7373 -80.7373 -80.7373 -80.7373
   -80.7373 -80.7373 -80.7373 -80.7373 -80.7373 -80.7373 -80.7373 -80.7373
   -80.7373 -80.7373 -80.7373 -80.7373 -80.7373 -80.7373 -80.7373 -80.7368
   -46.5413 -46.5413 -46.5413 -46.5413 -46.5412 -46.5412 -46.5412 -46.5412
   -46.5412 -46.5412 -46.5412 -46.5412 -46.5412 -46.5412 -46.5412 -46.5412
   -46.5411 -46.5411 -46.5411 -46.5411 -46.5410 -46.5410 -46.5410 -46.5410
   -46.5410 -46.5410 -46.5410 -46.5410 -46.5409 -46.5408 -46.5408 -46.5408
   -46.5408 -46.5408 -46.5408 -46.5408 -46.5408 -46.5408 -46.5408 -46.5407
   -46.5407 -46.5407 -46.5407 -46.5407 -46.5407 -46.5407 -46.5407 -46.5407
   -46.5407 -46.5407 -46.5406 -46.5406 -46.5406 -46.5406 -46.5406 -46.5406
   -46.5406 -46.5406 -46.5406 -46.5406 -46.5406 -46.5406 -46.5406 -46.5406
   -46.5405 -46.5405 -46.5405 -46.5405 -46.5405 -46.5405 -46.5405 -46.5405
   -46.5405 -46.5405 -46.5404 -46.5404 -46.5404 -46.5404 -46.5404 -46.5404
   -46.5404 -46.5404 -46.5404 -46.5404 -46.5404 -46.5404 -46.5403 -46.5403
   -46.5403 -46.5403 -46.5403 -46.5402 -46.5401 -46.5401 -46.5401 -46.5401
     0.5659   0.5659   0.5659   0.5659   0.7020   0.7020   0.7020   0.7020
     0.7142   0.7142   0.7142   0.7142   0.7151   0.7151   0.7151   0.7151
     0.7403   0.7403   0.7403   0.7403   0.7403   0.7403   0.7403   0.7403
     0.7611   0.7611   0.7611   0.7611   0.7611   0.7611   0.7611   0.7611
     0.7643   0.7643   0.7643   0.7643   0.7643   0.7643   0.7643   0.7643
     0.8092   0.8092   0.8093   0.8093   0.8337   0.8337   0.8337   0.8337
     0.8337   0.8337   0.8337   0.8337   0.8476   0.8476   0.8476   0.8476
     0.8811   0.8811   0.8811   0.8811   0.8876   0.8876   0.8876   0.8876
     0.9201   0.9201   0.9201   0.9201   0.9246   0.9246   0.9246   0.9246
     0.9311   0.9311   0.9311   0.9311   0.9366   0.9366   0.9366   0.9366
     0.9719   0.9719   0.9719   0.9719   0.9719   0.9719   0.9719   0.9719
     0.9762   0.9762   0.9762   0.9762   0.9874   0.9874   0.9874   0.9874
     0.9897   0.9897   0.9897   0.9897   0.9935   0.9935   0.9935   0.9935
     0.9935   0.9935   0.9935   0.9935   0.9936   0.9936   0.9936   0.9936
     0.9936   0.9936   0.9936   0.9936   1.0234   1.0234   1.0234   1.0234
     1.0615   1.0615   1.0615   1.0615   1.0808   1.0808   1.0808   1.0808
     1.0983   1.0983   1.0983   1.0983   1.0983   1.0983   1.0983   1.0983
     1.1095   1.1095   1.1095   1.1095   1.1205   1.1205   1.1205   1.1205
     1.1205   1.1205   1.1205   1.1205   1.1221   1.1221   1.1221   1.1221
     1.1283   1.1283   1.1283   1.1283   1.1283   1.1283   1.1283   1.1283
     1.1289   1.1289   1.1289   1.1289   1.7359   1.7359   1.7359   1.7359
     1.9623   1.9624   1.9624   1.9624   2.8324   2.8325   2.8325   2.8325
     2.8325   2.8325   2.8325   2.8325   3.4378   3.4379   3.4379   3.4379
     3.4379   3.4379   3.4379   3.4379   4.0281   4.0282   4.0282   4.0282
     4.6641   4.6641   4.6641   4.6641   4.6641   4.6641   4.6642   4.6642
     5.3647   5.3647   5.3647   5.3647   6.0855   6.0855   6.0855   6.0855
     6.1560   6.1560   6.1560   6.1560   6.3986   6.3986   6.4009   6.4009
     6.4009   6.4009

          k = 0.1038 0.1038 0.1038 (124698 PWs)   bands (ev):

   -80.7374 -80.7373 -80.7373 -80.7373 -80.7373 -80.7373 -80.7373 -80.7373
   -80.7373 -80.7373 -80.7373 -80.7373 -80.7373 -80.7373 -80.7373 -80.7373
   -80.7373 -80.7373 -80.7373 -80.7373 -80.7373 -80.7373 -80.7373 -80.7373
   -80.7373 -80.7373 -80.7373 -80.7373 -80.7373 -80.7373 -80.7373 -80.7368
   -46.5413 -46.5413 -46.5413 -46.5413 -46.5412 -46.5412 -46.5412 -46.5411
   -46.5411 -46.5411 -46.5411 -46.5411 -46.5411 -46.5411 -46.5411 -46.5411
   -46.5411 -46.5411 -46.5410 -46.5410 -46.5410 -46.5410 -46.5409 -46.5409
   -46.5409 -46.5409 -46.5409 -46.5409 -46.5409 -46.5409 -46.5409 -46.5409
   -46.5409 -46.5409 -46.5408 -46.5408 -46.5408 -46.5408 -46.5408 -46.5408
   -46.5407 -46.5407 -46.5407 -46.5407 -46.5407 -46.5407 -46.5407 -46.5407
   -46.5407 -46.5407 -46.5407 -46.5407 -46.5406 -46.5406 -46.5406 -46.5406
   -46.5406 -46.5406 -46.5406 -46.5406 -46.5406 -46.5406 -46.5406 -46.5405
   -46.5405 -46.5405 -46.5405 -46.5405 -46.5405 -46.5405 -46.5404 -46.5404
   -46.5404 -46.5404 -46.5404 -46.5404 -46.5404 -46.5404 -46.5404 -46.5404
   -46.5404 -46.5404 -46.5404 -46.5404 -46.5403 -46.5403 -46.5403 -46.5403
   -46.5403 -46.5403 -46.5403 -46.5402 -46.5402 -46.5402 -46.5400 -46.5400
     0.1809   0.6399   0.6585   0.6585   0.6585   0.6725   0.6725   0.6725
     0.6859   0.6859   0.6859   0.7198   0.7198   0.7198   0.7433   0.7433
     0.7433   0.7743   0.7743   0.7743   0.7754   0.7754   0.7754   0.7765
     0.7765   0.7765   0.7799   0.7799   0.7799   0.7799   0.7799   0.7799
     0.7970   0.7970   0.7970   0.7970   0.7970   0.7970   0.8079   0.8079
     0.8079   0.8234   0.8234   0.8234   0.8234   0.8234   0.8234   0.8508
     0.8508   0.8508   0.8508   0.8508   0.8508   0.8675   0.8675   0.8675
     0.8676   0.8676   0.8676   0.8696   0.8756   0.8757   0.8757   0.8801
     0.8801   0.8825   0.8825   0.8915   0.8915   0.8915   0.9281   0.9281
     0.9281   0.9281   0.9281   0.9281   0.9312   0.9312   0.9312   0.9312
     0.9312   0.9312   0.9400   0.9400   0.9400   0.9488   0.9489   0.9489
     0.9622   0.9622   0.9622   0.9670   0.9670   0.9670   0.9843   0.9843
     0.9843   0.9896   0.9896   0.9896   1.0065   1.0065   1.0065   1.0065
     1.0065   1.0065   1.0153   1.0153   1.0153   1.0168   1.0168   1.0171
     1.0171   1.0171   1.0262   1.0262   1.0262   1.0443   1.0443   1.0443
     1.0443   1.0443   1.0443   1.0657   1.0657   1.0657   1.0722   1.0722
     1.0722   1.0722   1.0722   1.0722   1.0783   1.0783   1.0783   1.1021
     1.1021   1.1021   1.1028   1.1028   1.1028   1.1168   1.1168   1.1169
     1.1226   1.1226   1.1245   1.1245   1.1245   1.1377   1.1377   1.1377
     1.1405   1.1405   1.1405   1.1550   1.1550   1.1550   1.1550   1.1550
     1.1550   1.1589   1.1589   1.1589   1.7160   1.7160   1.7160   1.7733
     1.7733   1.7733   2.4297   2.4297   2.4297   2.4297   2.4297   2.4297
     2.4552   3.0454   3.0454   3.0454   3.0471   3.0471   3.0471   3.7304
     3.7304   3.7304   4.0159   4.0160   4.0160   4.0160   4.0160   4.0160
     4.2170   4.2170   4.2170   4.8134   5.1974   5.1974   5.1974   5.5588
     5.5588   5.5588   5.5947   5.5947   5.5947   5.5947   5.5947   5.5947
     6.1534   6.1535   6.1535   6.1535   6.1535   6.1535   6.3858   6.3858
     6.3858   6.3858

          k = 0.1038 0.1038 0.1730 (124770 PWs)   bands (ev):

   -80.7374 -80.7373 -80.7373 -80.7373 -80.7373 -80.7373 -80.7373 -80.7373
   -80.7373 -80.7373 -80.7373 -80.7373 -80.7373 -80.7373 -80.7373 -80.7373
   -80.7373 -80.7373 -80.7373 -80.7373 -80.7373 -80.7373 -80.7373 -80.7373
   -80.7373 -80.7373 -80.7373 -80.7373 -80.7373 -80.7373 -80.7373 -80.7368
   -46.5413 -46.5413 -46.5413 -46.5413 -46.5412 -46.5412 -46.5412 -46.5411
   -46.5411 -46.5411 -46.5411 -46.5411 -46.5411 -46.5411 -46.5411 -46.5411
   -46.5411 -46.5411 -46.5411 -46.5410 -46.5410 -46.5410 -46.5410 -46.5410
   -46.5410 -46.5409 -46.5409 -46.5409 -46.5409 -46.5409 -46.5409 -46.5409
   -46.5409 -46.5408 -46.5408 -46.5408 -46.5408 -46.5408 -46.5408 -46.5408
   -46.5408 -46.5407 -46.5407 -46.5407 -46.5407 -46.5407 -46.5407 -46.5407
   -46.5407 -46.5406 -46.5406 -46.5406 -46.5406 -46.5406 -46.5406 -46.5406
   -46.5406 -46.5406 -46.5406 -46.5406 -46.5406 -46.5406 -46.5406 -46.5405
   -46.5405 -46.5405 -46.5405 -46.5405 -46.5405 -46.5405 -46.5405 -46.5405
   -46.5405 -46.5404 -46.5404 -46.5404 -46.5404 -46.5404 -46.5404 -46.5404
   -46.5404 -46.5404 -46.5403 -46.5403 -46.5403 -46.5403 -46.5403 -46.5403
   -46.5403 -46.5403 -46.5402 -46.5402 -46.5402 -46.5402 -46.5401 -46.5401
     0.2309   0.6277   0.6462   0.6702   0.6703   0.6755   0.6793   0.6794
     0.6794   0.6937   0.7013   0.7013   0.7283   0.7290   0.7290   0.7379
     0.7454   0.7455   0.7557   0.7557   0.7572   0.7633   0.7660   0.7660
     0.7665   0.7665   0.7703   0.7703   0.7739   0.7739   0.7864   0.7864
     0.7880   0.7880   0.7938   0.7938   0.7971   0.7972   0.8032   0.8032
     0.8214   0.8247   0.8247   0.8254   0.8254   0.8365   0.8365   0.8423
     0.8423   0.8543   0.8543   0.8614   0.8614   0.8616   0.8626   0.8656
     0.8656   0.8661   0.8702   0.8702   0.8774   0.8802   0.8802   0.8824
     0.8836   0.8882   0.8889   0.8997   0.8997   0.9021   0.9066   0.9066
     0.9174   0.9174   0.9239   0.9239   0.9255   0.9255   0.9307   0.9319
     0.9331   0.9331   0.9430   0.9432   0.9432   0.9442   0.9442   0.9554
     0.9554   0.9583   0.9583   0.9673   0.9715   0.9715   0.9751   0.9751
     0.9896   0.9896   0.9946   0.9960   0.9960   0.9988   0.9988   1.0114
     1.0120   1.0120   1.0193   1.0193   1.0203   1.0203   1.0209   1.0220
     1.0223   1.0223   1.0368   1.0393   1.0393   1.0427   1.0453   1.0455
     1.0455   1.0473   1.0543   1.0589   1.0589   1.0645   1.0645   1.0811
     1.0811   1.0854   1.0854   1.0873   1.0893   1.0893   1.0905   1.0905
     1.0919   1.0919   1.0926   1.1061   1.1061   1.1063   1.1063   1.1096
     1.1104   1.1141   1.1176   1.1244   1.1244   1.1298   1.1351   1.1369
     1.1369   1.1459   1.1459   1.1463   1.1463   1.1533   1.1552   1.1552
     1.1576   1.1576   1.1739   1.1739   1.6032   1.6032   1.7765   1.7765
     1.8201   1.9927   2.2575   2.2575   2.2773   2.4819   2.4819   2.6908
     2.6908   2.9155   2.9155   3.0883   3.1870   3.2695   3.2695   3.3512
     3.7639   3.7640   3.8019   3.8020   3.9549   3.9549   3.9748   3.9748
     4.1773   4.4499   4.4499   5.0952   5.1762   5.2358   5.2358   5.4285
     5.4285   5.4638   5.4638   5.5244   5.5244   5.5816   5.5816   5.6433
     5.7770   5.7771   5.9735   5.9735   6.3868   6.3868   6.4053   6.4733
     6.5120   6.5128

          k = 0.1038 0.1038 0.2423 (124795 PWs)   bands (ev):

   -80.7374 -80.7373 -80.7373 -80.7373 -80.7373 -80.7373 -80.7373 -80.7373
   -80.7373 -80.7373 -80.7373 -80.7373 -80.7373 -80.7373 -80.7373 -80.7373
   -80.7373 -80.7373 -80.7373 -80.7373 -80.7373 -80.7373 -80.7373 -80.7373
   -80.7373 -80.7373 -80.7373 -80.7373 -80.7373 -80.7373 -80.7373 -80.7368
   -46.5413 -46.5413 -46.5413 -46.5412 -46.5412 -46.5412 -46.5412 -46.5412
   -46.5412 -46.5412 -46.5411 -46.5411 -46.5411 -46.5411 -46.5411 -46.5411
   -46.5411 -46.5411 -46.5411 -46.5410 -46.5410 -46.5410 -46.5410 -46.5410
   -46.5410 -46.5409 -46.5409 -46.5409 -46.5409 -46.5409 -46.5409 -46.5409
   -46.5409 -46.5409 -46.5409 -46.5409 -46.5408 -46.5408 -46.5408 -46.5408
   -46.5408 -46.5408 -46.5407 -46.5407 -46.5407 -46.5407 -46.5407 -46.5407
   -46.5407 -46.5406 -46.5406 -46.5406 -46.5406 -46.5406 -46.5406 -46.5406
   -46.5406 -46.5406 -46.5406 -46.5406 -46.5406 -46.5406 -46.5405 -46.5405
   -46.5405 -46.5405 -46.5405 -46.5405 -46.5405 -46.5405 -46.5405 -46.5405
   -46.5405 -46.5404 -46.5404 -46.5404 -46.5404 -46.5404 -46.5404 -46.5404
   -46.5404 -46.5404 -46.5404 -46.5404 -46.5403 -46.5403 -46.5403 -46.5403
   -46.5403 -46.5403 -46.5403 -46.5402 -46.5402 -46.5402 -46.5401 -46.5401
     0.3046   0.5119   0.6593   0.6875   0.6875   0.6888   0.6918   0.6918
     0.6964   0.7053   0.7057   0.7137   0.7213   0.7213   0.7310   0.7310
     0.7363   0.7363   0.7382   0.7392   0.7392   0.7431   0.7518   0.7518
     0.7582   0.7582   0.7671   0.7671   0.7693   0.7693   0.7707   0.7707
     0.7746   0.7746   0.7948   0.7948   0.8060   0.8060   0.8164   0.8164
     0.8263   0.8263   0.8341   0.8341   0.8352   0.8484   0.8484   0.8511
     0.8511   0.8553   0.8573   0.8573   0.8580   0.8584   0.8630   0.8630
     0.8631   0.8631   0.8718   0.8718   0.8762   0.8762   0.8819   0.8836
     0.8907   0.8983   0.8991   0.9021   0.9021   0.9113   0.9113   0.9115
     0.9115   0.9139   0.9139   0.9146   0.9156   0.9165   0.9165   0.9252
     0.9256   0.9302   0.9302   0.9360   0.9360   0.9395   0.9395   0.9459
     0.9459   0.9491   0.9563   0.9563   0.9572   0.9572   0.9600   0.9601
     1.0050   1.0080   1.0089   1.0089   1.0122   1.0122   1.0140   1.0140
     1.0156   1.0156   1.0205   1.0205   1.0214   1.0269   1.0316   1.0316
     1.0322   1.0322   1.0327   1.0327   1.0439   1.0447   1.0447   1.0558
     1.0570   1.0570   1.0578   1.0637   1.0637   1.0670   1.0683   1.0713
     1.0757   1.0757   1.0836   1.0836   1.0912   1.0912   1.0952   1.0987
     1.1047   1.1047   1.1051   1.1052   1.1052   1.1053   1.1053   1.1068
     1.1078   1.1078   1.1090   1.1090   1.1142   1.1255   1.1288   1.1319
     1.1319   1.1336   1.1336   1.1343   1.1343   1.1455   1.1555   1.1555
     1.1566   1.1566   1.2460   1.2460   1.4590   1.4590   1.8630   1.8630
     1.8932   2.1050   2.1050   2.1225   2.2975   2.5592   2.5592   2.7811
     2.7812   2.9673   2.9673   2.9801   3.1456   3.2337   3.4886   3.4886
     3.5375   3.5375   3.8103   3.8103   3.8462   3.8463   3.9220   3.9220
     4.2812   4.7357   4.7357   4.8207   5.2917   5.2917   5.3442   5.3442
     5.3591   5.3591   5.4057   5.4072   5.4072   5.4426   5.4427   5.6202
     5.6202   5.8223   5.8223   6.0990   6.1088   6.4395   6.4395   6.6584
     6.6584   6.6915

          k = 0.1038 0.1038-0.3115 (124874 PWs)   bands (ev):

   -80.7374 -80.7373 -80.7373 -80.7373 -80.7373 -80.7373 -80.7373 -80.7373
   -80.7373 -80.7373 -80.7373 -80.7373 -80.7373 -80.7373 -80.7373 -80.7373
   -80.7373 -80.7373 -80.7373 -80.7373 -80.7373 -80.7373 -80.7373 -80.7373
   -80.7373 -80.7373 -80.7373 -80.7373 -80.7373 -80.7373 -80.7373 -80.7368
   -46.5413 -46.5413 -46.5412 -46.5412 -46.5412 -46.5412 -46.5412 -46.5412
   -46.5412 -46.5412 -46.5412 -46.5411 -46.5411 -46.5411 -46.5411 -46.5411
   -46.5411 -46.5411 -46.5411 -46.5411 -46.5410 -46.5410 -46.5410 -46.5410
   -46.5410 -46.5410 -46.5409 -46.5409 -46.5409 -46.5409 -46.5409 -46.5409
   -46.5409 -46.5409 -46.5409 -46.5409 -46.5408 -46.5408 -46.5408 -46.5408
   -46.5408 -46.5408 -46.5407 -46.5407 -46.5407 -46.5407 -46.5407 -46.5407
   -46.5407 -46.5407 -46.5406 -46.5406 -46.5406 -46.5406 -46.5406 -46.5406
   -46.5406 -46.5406 -46.5406 -46.5406 -46.5406 -46.5406 -46.5406 -46.5406
   -46.5405 -46.5405 -46.5405 -46.5405 -46.5405 -46.5405 -46.5405 -46.5405
   -46.5405 -46.5405 -46.5404 -46.5404 -46.5404 -46.5404 -46.5404 -46.5404
   -46.5404 -46.5404 -46.5404 -46.5404 -46.5404 -46.5403 -46.5403 -46.5403
   -46.5403 -46.5403 -46.5403 -46.5402 -46.5402 -46.5401 -46.5401 -46.5401
     0.4000   0.4000   0.6792   0.6792   0.7004   0.7004   0.7092   0.7093
[...]
     2.4818   2.4818   2.4818   2.4818   2.9070   2.9070   2.9070   2.9070
     2.9071   2.9071   2.9071   2.9071   3.2799   3.2799   3.2800   3.2800
     3.2800   3.2800   3.2800   3.2800   3.6548   3.6548   3.6548   3.6549
     4.9509   4.9509   4.9509   4.9509   4.9509   4.9509   4.9510   4.9510
     5.3093   5.3093   5.3093   5.3094   5.7448   5.7448   5.7448   5.7448
     6.0110   6.0110   6.0110   6.0110   6.0110   6.0111   6.0111   6.0111
     6.7340   6.7340

          k = 0.2423 0.2423 0.2423 (124788 PWs)   bands (ev):

   -80.7374 -80.7373 -80.7373 -80.7373 -80.7373 -80.7373 -80.7373 -80.7373
   -80.7373 -80.7373 -80.7373 -80.7373 -80.7373 -80.7373 -80.7373 -80.7373
   -80.7373 -80.7373 -80.7373 -80.7373 -80.7373 -80.7373 -80.7373 -80.7373
   -80.7373 -80.7373 -80.7373 -80.7373 -80.7373 -80.7373 -80.7373 -80.7368
   -46.5412 -46.5412 -46.5412 -46.5412 -46.5412 -46.5412 -46.5412 -46.5412
   -46.5412 -46.5412 -46.5412 -46.5412 -46.5412 -46.5412 -46.5412 -46.5412
   -46.5412 -46.5411 -46.5411 -46.5411 -46.5411 -46.5411 -46.5411 -46.5411
   -46.5410 -46.5409 -46.5409 -46.5409 -46.5408 -46.5408 -46.5408 -46.5408
   -46.5408 -46.5408 -46.5408 -46.5408 -46.5407 -46.5407 -46.5407 -46.5407
   -46.5407 -46.5407 -46.5407 -46.5407 -46.5407 -46.5407 -46.5407 -46.5406
   -46.5406 -46.5406 -46.5406 -46.5406 -46.5406 -46.5406 -46.5406 -46.5406
   -46.5406 -46.5406 -46.5406 -46.5406 -46.5406 -46.5406 -46.5406 -46.5406
   -46.5406 -46.5406 -46.5406 -46.5406 -46.5406 -46.5405 -46.5405 -46.5405
   -46.5405 -46.5405 -46.5405 -46.5405 -46.5404 -46.5404 -46.5404 -46.5404
   -46.5403 -46.5403 -46.5403 -46.5403 -46.5403 -46.5402 -46.5402 -46.5402
   -46.5402 -46.5402 -46.5402 -46.5402 -46.5402 -46.5401 -46.5401 -46.5401
     0.5096   0.6279   0.6279   0.6279   0.6556   0.6649   0.6649   0.6649
     0.7096   0.7096   0.7096   0.7249   0.7249   0.7249   0.7252   0.7252
     0.7252   0.7324   0.7324   0.7324   0.7324   0.7324   0.7324   0.7363
     0.7363   0.7363   0.7378   0.7378   0.7378   0.7378   0.7378   0.7378
     0.7820   0.7820   0.7820   0.8150   0.8150   0.8150   0.8264   0.8264
     0.8264   0.8264   0.8264   0.8264   0.8483   0.8483   0.8483   0.8483
     0.8483   0.8483   0.8556   0.8556   0.8556   0.8575   0.8575   0.8575
     0.8982   0.8982   0.8990   0.8990   0.8990   0.9003   0.9003   0.9003
     0.9047   0.9047   0.9092   0.9093   0.9093   0.9117   0.9138   0.9138
     0.9138   0.9564   0.9564   0.9564   0.9564   0.9564   0.9564   0.9582
     0.9582   0.9582   0.9594   0.9594   0.9594   0.9808   0.9808   0.9808
     0.9808   0.9808   0.9808   0.9825   0.9825   0.9825   0.9946   0.9946
     0.9946   0.9963   0.9964   0.9964   0.9985   0.9985   0.9985   1.0048
     1.0048   1.0048   1.0048   1.0048   1.0048   1.0129   1.0129   1.0129
     1.0239   1.0239   1.0326   1.0326   1.0326   1.0334   1.0334   1.0334
     1.0346   1.0346   1.0346   1.0346   1.0346   1.0346   1.0390   1.0390
     1.0390   1.0491   1.0491   1.0491   1.0530   1.0530   1.0530   1.0712
     1.0712   1.0819   1.0819   1.0819   1.1336   1.1336   1.1336   1.1379
     1.1379   1.1379   1.1379   1.1379   1.1379   1.1408   1.1408   1.1408
     1.1408   1.1408   1.1408   1.1417   1.1417   1.1417   1.1417   1.1417
     1.1417   1.1480   1.1480   1.1480   1.2493   1.2493   1.2493   1.4490
     2.5688   2.5688   2.5688   2.7916   2.7916   2.7916   2.7916   2.7916
     2.7916   2.9984   2.9985   2.9985   3.2135   3.2136   3.2136   3.3889
     3.3889   3.3889   3.3889   3.3889   3.3889   3.4957   3.4957   3.4957
     4.9212   4.9212   4.9212   4.9944   4.9944   4.9944   5.3875   5.3875
     5.3875   5.3875   5.3876   5.3876   5.6098   5.6098   5.6098   5.6098
     5.6098   5.6098   5.7894   5.7895   5.7895   6.1831   6.1831   6.1831
     6.6067   7.1837

          k = 0.2423 0.2423-0.3115 (124786 PWs)   bands (ev):

   -80.7374 -80.7373 -80.7373 -80.7373 -80.7373 -80.7373 -80.7373 -80.7373
   -80.7373 -80.7373 -80.7373 -80.7373 -80.7373 -80.7373 -80.7373 -80.7373
   -80.7373 -80.7373 -80.7373 -80.7373 -80.7373 -80.7373 -80.7373 -80.7373
   -80.7373 -80.7373 -80.7373 -80.7373 -80.7373 -80.7373 -80.7373 -80.7368
   -46.5412 -46.5412 -46.5412 -46.5412 -46.5412 -46.5412 -46.5412 -46.5412
   -46.5412 -46.5412 -46.5412 -46.5412 -46.5412 -46.5412 -46.5412 -46.5412
   -46.5412 -46.5411 -46.5411 -46.5411 -46.5411 -46.5411 -46.5411 -46.5411
   -46.5410 -46.5410 -46.5409 -46.5409 -46.5409 -46.5409 -46.5408 -46.5408
   -46.5408 -46.5408 -46.5408 -46.5407 -46.5407 -46.5407 -46.5407 -46.5407
   -46.5407 -46.5407 -46.5407 -46.5407 -46.5407 -46.5407 -46.5407 -46.5407
   -46.5407 -46.5407 -46.5406 -46.5406 -46.5406 -46.5406 -46.5406 -46.5406
   -46.5406 -46.5406 -46.5406 -46.5406 -46.5406 -46.5406 -46.5406 -46.5406
   -46.5406 -46.5406 -46.5406 -46.5406 -46.5406 -46.5406 -46.5405 -46.5405
   -46.5405 -46.5405 -46.5405 -46.5405 -46.5405 -46.5405 -46.5405 -46.5404
   -46.5403 -46.5403 -46.5403 -46.5403 -46.5403 -46.5403 -46.5402 -46.5402
   -46.5402 -46.5402 -46.5402 -46.5402 -46.5402 -46.5401 -46.5401 -46.5401
     0.5698   0.5699   0.6466   0.6466   0.6466   0.6466   0.6574   0.6574
     0.7172   0.7172   0.7187   0.7187   0.7187   0.7187   0.7295   0.7295
     0.7295   0.7295   0.7301   0.7301   0.7301   0.7301   0.7324   0.7324
     0.7324   0.7324   0.7324   0.7324   0.7359   0.7359   0.7359   0.7359
     0.7970   0.7970   0.8051   0.8051   0.8051   0.8051   0.8348   0.8348
     0.8348   0.8348   0.8367   0.8367   0.8367   0.8367   0.8437   0.8437
     0.8437   0.8437   0.8555   0.8555   0.8556   0.8556   0.8556   0.8556
     0.9009   0.9009   0.9018   0.9019   0.9019   0.9019   0.9019   0.9019
     0.9022   0.9022   0.9081   0.9081   0.9104   0.9104   0.9104   0.9104
     0.9464   0.9464   0.9664   0.9664   0.9664   0.9664   0.9678   0.9678
     0.9678   0.9678   0.9758   0.9758   0.9758   0.9758   0.9761   0.9761
     0.9821   0.9821   0.9821   0.9821   0.9880   0.9880   0.9880   0.9880
     0.9882   0.9882   0.9998   0.9998   0.9998   0.9998   1.0069   1.0070
     1.0070   1.0070   1.0106   1.0106   1.0106   1.0106   1.0123   1.0123
     1.0123   1.0123   1.0200   1.0200   1.0202   1.0202   1.0202   1.0202
     1.0287   1.0287   1.0314   1.0314   1.0378   1.0378   1.0416   1.0416
     1.0416   1.0416   1.0462   1.0462   1.0462   1.0462   1.0522   1.0522
     1.0627   1.0627   1.1383   1.1383   1.1383   1.1383   1.1391   1.1391
     1.1406   1.1406   1.1406   1.1406   1.1415   1.1415   1.1415   1.1415
     1.1417   1.1417   1.1417   1.1417   1.1436   1.1436   1.1437   1.1437
     1.1452   1.1452   1.1452   1.1452   1.1462   1.1462   1.3275   1.3275
     2.6702   2.6702   2.6703   2.6703   2.8840   2.8840   2.8869   2.8870
     2.8870   2.8870   3.0893   3.0894   3.0894   3.0894   3.2614   3.2615
     3.2960   3.2960   3.2960   3.2961   3.4470   3.4471   3.4471   3.4471
     4.9194   4.9195   5.1350   5.1350   5.1350   5.1350   5.2898   5.2898
     5.2898   5.2898   5.4801   5.4801   5.4801   5.4802   5.5936   5.5936
     5.5936   5.5936   5.8916   5.8916   5.8916   5.8916   5.9883   5.9883
     6.9432   6.9433

          k = 0.2423-0.3115-0.3115 (124756 PWs)   bands (ev):

   -80.7374 -80.7373 -80.7373 -80.7373 -80.7373 -80.7373 -80.7373 -80.7373
   -80.7373 -80.7373 -80.7373 -80.7373 -80.7373 -80.7373 -80.7373 -80.7373
   -80.7373 -80.7373 -80.7373 -80.7373 -80.7373 -80.7373 -80.7373 -80.7373
   -80.7373 -80.7373 -80.7373 -80.7373 -80.7373 -80.7373 -80.7373 -80.7368
   -46.5412 -46.5412 -46.5412 -46.5412 -46.5412 -46.5412 -46.5412 -46.5412
   -46.5412 -46.5412 -46.5412 -46.5412 -46.5412 -46.5412 -46.5412 -46.5412
   -46.5412 -46.5412 -46.5412 -46.5412 -46.5411 -46.5411 -46.5411 -46.5411
   -46.5409 -46.5409 -46.5409 -46.5409 -46.5408 -46.5408 -46.5408 -46.5408
   -46.5408 -46.5408 -46.5408 -46.5407 -46.5407 -46.5407 -46.5407 -46.5407
   -46.5407 -46.5407 -46.5407 -46.5407 -46.5407 -46.5407 -46.5407 -46.5407
   -46.5407 -46.5407 -46.5406 -46.5406 -46.5406 -46.5406 -46.5406 -46.5406
   -46.5406 -46.5406 -46.5406 -46.5406 -46.5406 -46.5406 -46.5406 -46.5406
   -46.5406 -46.5406 -46.5406 -46.5406 -46.5406 -46.5406 -46.5406 -46.5406
   -46.5405 -46.5405 -46.5405 -46.5405 -46.5405 -46.5405 -46.5405 -46.5404
   -46.5403 -46.5403 -46.5402 -46.5402 -46.5402 -46.5402 -46.5402 -46.5402
   -46.5402 -46.5402 -46.5402 -46.5402 -46.5402 -46.5401 -46.5401 -46.5401
     0.6099   0.6099   0.6099   0.6099   0.6504   0.6504   0.6504   0.6504
     0.7233   0.7233   0.7233   0.7233   0.7244   0.7244   0.7244   0.7244
     0.7244   0.7244   0.7244   0.7244   0.7282   0.7282   0.7282   0.7282
     0.7326   0.7326   0.7326   0.7326   0.7326   0.7326   0.7326   0.7326
     0.8187   0.8187   0.8187   0.8187   0.8187   0.8187   0.8187   0.8187
     0.8263   0.8263   0.8263   0.8263   0.8492   0.8492   0.8492   0.8492
     0.8493   0.8493   0.8493   0.8493   0.8493   0.8493   0.8493   0.8493
     0.9023   0.9023   0.9023   0.9023   0.9046   0.9046   0.9046   0.9046
     0.9058   0.9058   0.9058   0.9058   0.9075   0.9075   0.9075   0.9075
     0.9756   0.9756   0.9756   0.9756   0.9756   0.9756   0.9756   0.9756
     0.9792   0.9792   0.9792   0.9792   0.9848   0.9848   0.9848   0.9848
     0.9934   0.9934   0.9934   0.9934   0.9934   0.9934   0.9934   0.9934
     0.9948   0.9948   0.9948   0.9948   0.9974   0.9974   0.9974   0.9974
     0.9974   0.9974   0.9974   0.9974   1.0010   1.0010   1.0010   1.0010
     1.0215   1.0215   1.0215   1.0215   1.0249   1.0249   1.0249   1.0249
     1.0249   1.0249   1.0249   1.0249   1.0261   1.0261   1.0261   1.0261
     1.0329   1.0329   1.0329   1.0329   1.0611   1.0611   1.0611   1.0611
     1.0639   1.0639   1.0639   1.0639   1.1414   1.1414   1.1414   1.1414
     1.1414   1.1414   1.1414   1.1414   1.1427   1.1427   1.1427   1.1427
     1.1435   1.1435   1.1435   1.1435   1.1447   1.1447   1.1447   1.1447
     1.1447   1.1447   1.1447   1.1447   1.2095   1.2095   1.2095   1.2095
     2.7692   2.7692   2.7692   2.7692   2.9784   2.9784   2.9784   2.9784
     2.9784   2.9784   2.9784   2.9784   3.1719   3.1719   3.1719   3.1719
     3.1719   3.1719   3.1719   3.1719   3.3697   3.3698   3.3698   3.3698
     5.1850   5.1850   5.1850   5.1850   5.1850   5.1850   5.1851   5.1851
     5.3576   5.3576   5.3576   5.3576   5.5819   5.5819   5.5819   5.5819
     5.7332   5.7332   5.7332   5.7332   5.7332   5.7332   5.7333   5.7333
     7.1880   7.1881

          k =-0.3115-0.3115-0.3115 (124800 PWs)   bands (ev):

   -80.7374 -80.7373 -80.7373 -80.7373 -80.7373 -80.7373 -80.7373 -80.7373
   -80.7373 -80.7373 -80.7373 -80.7373 -80.7373 -80.7373 -80.7373 -80.7373
   -80.7373 -80.7373 -80.7373 -80.7373 -80.7373 -80.7373 -80.7373 -80.7373
   -80.7373 -80.7373 -80.7373 -80.7373 -80.7373 -80.7373 -80.7373 -80.7368
   -46.5412 -46.5412 -46.5412 -46.5412 -46.5412 -46.5412 -46.5412 -46.5412
   -46.5412 -46.5411 -46.5411 -46.5411 -46.5411 -46.5411 -46.5411 -46.5411
   -46.5411 -46.5411 -46.5411 -46.5411 -46.5411 -46.5411 -46.5411 -46.5411
   -46.5409 -46.5409 -46.5409 -46.5409 -46.5409 -46.5409 -46.5409 -46.5408
   -46.5407 -46.5407 -46.5407 -46.5407 -46.5407 -46.5407 -46.5407 -46.5407
   -46.5407 -46.5407 -46.5407 -46.5407 -46.5407 -46.5407 -46.5407 -46.5407
   -46.5407 -46.5407 -46.5407 -46.5407 -46.5407 -46.5407 -46.5406 -46.5406
   -46.5406 -46.5406 -46.5406 -46.5406 -46.5406 -46.5406 -46.5406 -46.5406
   -46.5406 -46.5406 -46.5406 -46.5406 -46.5406 -46.5406 -46.5406 -46.5406
   -46.5406 -46.5406 -46.5406 -46.5406 -46.5406 -46.5405 -46.5405 -46.5405
   -46.5402 -46.5402 -46.5402 -46.5402 -46.5402 -46.5402 -46.5402 -46.5402
   -46.5402 -46.5402 -46.5402 -46.5402 -46.5402 -46.5401 -46.5401 -46.5401
     0.6303   0.6303   0.6303   0.6303   0.6303   0.6303   0.6303   0.6303
     0.7265   0.7265   0.7265   0.7265   0.7265   0.7265   0.7265   0.7265
     0.7265   0.7265   0.7265   0.7265   0.7265   0.7265   0.7265   0.7265
     0.7265   0.7265   0.7265   0.7265   0.7265   0.7265   0.7265   0.7265
     0.8370   0.8370   0.8370   0.8370   0.8370   0.8370   0.8370   0.8370
     0.8370   0.8370   0.8370   0.8370   0.8370   0.8370   0.8370   0.8370
     0.8370   0.8370   0.8370   0.8370   0.8370   0.8370   0.8370   0.8370
     0.9053   0.9053   0.9053   0.9053   0.9053   0.9053   0.9053   0.9053
     0.9053   0.9053   0.9053   0.9053   0.9053   0.9053   0.9053   0.9053
     0.9896   0.9896   0.9896   0.9896   0.9896   0.9896   0.9896   0.9896
     0.9896   0.9896   0.9896   0.9896   0.9896   0.9896   0.9896   0.9896
     0.9896   0.9896   0.9896   0.9896   0.9896   0.9896   0.9896   0.9896
     1.0032   1.0032   1.0032   1.0032   1.0032   1.0032   1.0032   1.0032
     1.0032   1.0032   1.0032   1.0032   1.0032   1.0032   1.0032   1.0032
     1.0032   1.0032   1.0032   1.0032   1.0032   1.0032   1.0032   1.0032
     1.0434   1.0434   1.0434   1.0434   1.0434   1.0434   1.0434   1.0434
     1.0434   1.0434   1.0434   1.0434   1.0434   1.0434   1.0434   1.0434
     1.0927   1.0927   1.0927   1.0927   1.0927   1.0927   1.0927   1.0928
     1.1446   1.1446   1.1446   1.1446   1.1446   1.1446   1.1446   1.1446
     1.1446   1.1446   1.1446   1.1446   1.1446   1.1446   1.1446   1.1446
     1.1446   1.1446   1.1446   1.1446   1.1446   1.1446   1.1446   1.1446
     3.0683   3.0684   3.0684   3.0685   3.0685   3.0685   3.0685   3.0685
     3.0685   3.0685   3.0685   3.0685   3.0685   3.0685   3.0685   3.0685
     3.0685   3.0685   3.0685   3.0685   3.0685   3.0685   3.0685   3.0685
     5.4511   5.4512   5.4512   5.4512   5.4512   5.4512   5.4512   5.4512
     5.4512   5.4512   5.4512   5.4512   5.4512   5.4512   5.4512   5.4512
     5.4512   5.4512   5.4512   5.4512   5.4512   5.4513   5.4513   5.4513
     7.6183   7.6217

     the Fermi energy is     1.4354 ev

!    total energy              =  -16376.95551750 Ry

     total all-electron energy =   -322937.809225 Ry
     estimated scf accuracy    <       0.00000037 Ry
     smearing contrib. (-TS)   =       0.80723172 Ry
     internal energy E=F+TS    =  -16377.76274922 Ry

     The total energy is F=E-TS. E is the sum of the following terms:
     one-electron contribution =   -6387.47776581 Ry
     hartree contribution      =    3271.75855968 Ry
     xc contribution           =    -982.54321543 Ry
     ewald contribution        =   -4112.84676551 Ry
     one-center paw contrib.   =   -8166.65356215 Ry

     convergence has been achieved in  28 iterations

     Forces acting on atoms (cartesian axes, Ry/au):

     atom    1 type  1   force =     0.00000000    0.00000000    0.00000000
     atom    2 type  1   force =    -0.00002550   -0.00002550    0.00000000
     atom    3 type  1   force =    -0.00002550    0.00000000   -0.00002550
     atom    4 type  1   force =     0.00000000   -0.00002550   -0.00002550
     atom    5 type  1   force =     0.00000000    0.00000000    0.00000000
     atom    6 type  1   force =    -0.00001909   -0.00001909    0.00000000
     atom    7 type  1   force =    -0.00002550    0.00000000    0.00002550
     atom    8 type  1   force =     0.00000000   -0.00002550    0.00002550
     atom    9 type  1   force =     0.00000000    0.00000000    0.00000000
     atom   10 type  1   force =    -0.00002550    0.00002550   -0.00000000
     atom   11 type  1   force =    -0.00001909   -0.00000000   -0.00001909
     atom   12 type  1   force =     0.00000000    0.00002550   -0.00002550
     atom   13 type  1   force =     0.00000000    0.00000000    0.00000000
     atom   14 type  1   force =    -0.00001909    0.00001909   -0.00000000
     atom   15 type  1   force =    -0.00001909    0.00000000    0.00001909
     atom   16 type  1   force =     0.00000000    0.00002550    0.00002550
     atom   17 type  1   force =     0.00000000    0.00000000    0.00000000
     atom   18 type  1   force =     0.00002550   -0.00002550   -0.00000000
     atom   19 type  1   force =     0.00002550    0.00000000   -0.00002550
     atom   20 type  1   force =     0.00000000   -0.00001909   -0.00001909
     atom   21 type  1   force =     0.00000000    0.00000000    0.00000000
     atom   22 type  1   force =     0.00001909   -0.00001909   -0.00000000
     atom   23 type  1   force =     0.00002550    0.00000000    0.00002550
     atom   24 type  1   force =    -0.00000000   -0.00001909    0.00001909
     atom   25 type  1   force =     0.00000000    0.00000000    0.00000000
     atom   26 type  1   force =     0.00002550    0.00002550    0.00000000
     atom   27 type  1   force =     0.00001909   -0.00000000   -0.00001909
     atom   28 type  1   force =     0.00000000    0.00001909   -0.00001909
     atom   29 type  1   force =     0.00000000    0.00000000    0.00000000
     atom   30 type  1   force =     0.00001909    0.00001909    0.00000000
     atom   31 type  1   force =     0.00001909    0.00000000    0.00001909
     atom   32 type  1   force =     0.00000000    0.00001909    0.00001909

     Total force =     0.000156     Total SCF correction =     0.001653
     SCF correction compared to forces is large: reduce conv_thr to get better values


     Computing stress (Cartesian axis) and pressure

          total   stress  (Ry/bohr**3)                   (kbar)     P=      -48.68
  -0.00033093   0.00000000   0.00000000          -48.68        0.00        0.00
   0.00000000  -0.00033093   0.00000000            0.00      -48.68        0.00
   0.00000000   0.00000000  -0.00033093            0.00        0.00      -48.68


     Writing output data file /scratch/frlUFEaFKfrlGMwT.save/
 
     init_run     :     39.92s CPU     40.79s WALL (       1 calls)
     electrons    :   2584.25s CPU   2614.84s WALL (       1 calls)
     forces       :     13.70s CPU     13.85s WALL (       1 calls)
     stress       :    186.28s CPU    187.45s WALL (       1 calls)

     Called by init_run:
     wfcinit      :     38.56s CPU     39.28s WALL (       1 calls)
     potinit      :      0.22s CPU      0.24s WALL (       1 calls)
     hinit0       :      0.12s CPU      0.13s WALL (       1 calls)

     Called by electrons:
     c_bands      :   2276.58s CPU   2299.67s WALL (      28 calls)
     sum_band     :    299.53s CPU    305.33s WALL (      28 calls)
     v_of_rho     :      1.89s CPU      2.20s WALL (      29 calls)
     newd         :      2.76s CPU      3.91s WALL (      29 calls)
     PAW_pot      :      2.48s CPU      2.64s WALL (      29 calls)
     mix_rho      :      0.49s CPU      0.57s WALL (      28 calls)

     Called by c_bands:
     init_us_2    :     16.57s CPU     16.76s WALL (    2065 calls)
     cegterg      :   2215.35s CPU   2237.72s WALL (     980 calls)

     Called by *egterg:
     cdiaghg      :    115.74s CPU    117.20s WALL (    3038 calls)
     h_psi        :   1156.64s CPU   1168.89s WALL (    3073 calls)
     s_psi        :    121.01s CPU    121.78s WALL (    3073 calls)
     g_psi        :      5.02s CPU      5.08s WALL (    2058 calls)

     Called by h_psi:
     h_psi:calbec :    162.85s CPU    164.00s WALL (    3073 calls)
     vloc_psi     :    862.15s CPU    871.96s WALL (    3073 calls)
     add_vuspsi   :    121.21s CPU    122.16s WALL (    3073 calls)

     General routines
     calbec       :    259.76s CPU    261.63s WALL (    4228 calls)
     fft          :      1.82s CPU      1.96s WALL (     400 calls)
     ffts         :      0.35s CPU      0.36s WALL (      57 calls)
     fftw         :   1024.29s CPU   1036.88s WALL ( 1817008 calls)
     interpolate  :      0.45s CPU      0.46s WALL (      29 calls)
 
     Parallel routines
     fft_scatt_xy :     84.03s CPU     84.95s WALL ( 1817465 calls)
     fft_scatt_yz :    670.76s CPU    679.86s WALL ( 1817465 calls)
 
     PWSCF        :  47m23.96s CPU  48m 4.28s WALL

 
   This run was terminated on:  23:54:23  26Nov2021            

=------------------------------------------------------------------------------=
   JOB DONE.
=------------------------------------------------------------------------------=
