
     Program PWSCF v.6.7MaX starts on 26Nov2021 at 19:15:15 

     This program is part of the open-source Quantum ESPRESSO suite
     for quantum simulation of materials; please cite
         "P. Giannozzi et al., J. Phys.:Condens. Matter 21 395502 (2009);
         "P. Giannozzi et al., J. Phys.:Condens. Matter 29 465901 (2017);
          URL http://www.quantum-espresso.org", 
     in publications or presentations arising from this work. More details at
     http://www.quantum-espresso.org/quote

     Parallel version (MPI & OpenMP), running on      72 processor cores
     Number of MPI processes:                72
     Threads/MPI process:                     1

     MPI processes distributed on     1 nodes
     R & G space division:  proc/nbgrp/npool/nimage =      72
     Reading input from fcc_3.in
Warning: card &CELL ignored
Warning: card CELL_DYNAMICS = 'BFGS', ignored
Warning: card CELL_FACTOR = 2.0, ignored
Warning: card PRESS = 0.0, ignored
Warning: card / ignored

     Current dimensions of program PWSCF are:
     Max number of different atomic species (ntypx) = 10
     Max number of k-points (npk) =  40000
     Max angular momentum in pseudopotentials (lmaxx) =  3
     file Pd.pbe-spn-kjpaw_psl.1.0.0.UPF: wavefunction(s)  4S 5S 4D renormalized

     Subspace diagonalization in iterative solution of the eigenvalue problem:
     one sub-group per band group will be used
     ELPA distributed-memory algorithm (size of sub-group:  8*  8 procs)

     Found symmetry operation: I + (  0.2500  0.2500  0.0000)
     This is a supercell, fractional translations are disabled
     Message from routine setup:
     using ibrav=0 with symmetry is DISCOURAGED, use correct ibrav instead
 
     Parallelization info
     --------------------
     sticks:   dense  smooth     PW     G-vecs:    dense   smooth      PW
     Min          76      50     13                 4280     2292     327
     Max          77      51     14                 4287     2295     334
     Sum        5513    3641   1005               308371   165141   23871
 


     bravais-lattice index     =            0
     lattice parameter (alat)  =      14.4000  a.u.
     unit-cell volume          =    2045.8374 (a.u.)^3
     number of atoms/cell      =           32
     number of atomic types    =            1
     number of electrons       =       576.00
     number of Kohn-Sham states=          346
     kinetic-energy cutoff     =      71.0000  Ry
     charge density cutoff     =     430.0000  Ry
     scf convergence threshold =      1.0E-06
     mixing beta               =       0.1000
     number of iterations used =           10  TF        mixing
     Exchange-correlation= SLA  PW   PBX  PBC
                           (   1   4   3   4   0   0   0)

     celldm(1)=  14.400000  celldm(2)=   0.000000  celldm(3)=   0.000000
     celldm(4)=   0.000000  celldm(5)=   0.000000  celldm(6)=   0.000000

     crystal axes: (cart. coord. in units of alat)
               a(1) = (   0.881579   0.000000   0.000000 )  
               a(2) = (   0.000000   0.881579   0.000000 )  
               a(3) = (   0.000000   0.000000   0.881579 )  

     reciprocal axes: (cart. coord. in units 2 pi/alat)
               b(1) = (  1.134328  0.000000  0.000000 )  
               b(2) = (  0.000000  1.134328  0.000000 )  
               b(3) = (  0.000000  0.000000  1.134328 )  


     PseudoPot. # 1 for Pd read from file:
     /rds/homes/b/bxp912/pp/Pd.pbe-spn-kjpaw_psl.1.0.0.UPF
     MD5 check sum: 790f2ebce206edfd9790dcb9844eca51
     Pseudo is Projector augmented-wave + core cor, Zval = 18.0
     Generated using &quot;atomic&quot; code by A. Dal Corso  v.6.3
     Shape of augmentation charge: PSQ
     Using radial grid of 1235 points,  6 beta functions with: 
                l(1) =   0
                l(2) =   0
                l(3) =   1
                l(4) =   1
                l(5) =   2
                l(6) =   2
     Q(r) pseudized with 0 coefficients 


     atomic species   valence    mass     pseudopotential
        Pd            18.00   106.42000     Pd( 1.00)

     48 Sym. Ops., with inversion, found



   Cartesian axes

     site n.     atom                  positions (alat units)
         1           Pd  tau(   1) = (   0.0000000   0.0000000   0.0000000  )
         2           Pd  tau(   2) = (   0.2203947   0.2203947   0.0000000  )
         3           Pd  tau(   3) = (   0.2203947   0.0000000   0.2203947  )
         4           Pd  tau(   4) = (   0.0000000   0.2203947   0.2203947  )
         5           Pd  tau(   5) = (   0.0000000   0.0000000   0.4407895  )
         6           Pd  tau(   6) = (   0.2203947   0.2203947   0.4407895  )
         7           Pd  tau(   7) = (   0.2203947   0.0000000   0.6611842  )
         8           Pd  tau(   8) = (   0.0000000   0.2203947   0.6611842  )
         9           Pd  tau(   9) = (   0.0000000   0.4407895   0.0000000  )
        10           Pd  tau(  10) = (   0.2203947   0.6611842   0.0000000  )
        11           Pd  tau(  11) = (   0.2203947   0.4407895   0.2203947  )
        12           Pd  tau(  12) = (   0.0000000   0.6611842   0.2203947  )
        13           Pd  tau(  13) = (   0.0000000   0.4407895   0.4407895  )
        14           Pd  tau(  14) = (   0.2203947   0.6611842   0.4407895  )
        15           Pd  tau(  15) = (   0.2203947   0.4407895   0.6611842  )
        16           Pd  tau(  16) = (   0.0000000   0.6611842   0.6611842  )
        17           Pd  tau(  17) = (   0.4407895   0.0000000   0.0000000  )
        18           Pd  tau(  18) = (   0.6611842   0.2203947   0.0000000  )
        19           Pd  tau(  19) = (   0.6611842   0.0000000   0.2203947  )
        20           Pd  tau(  20) = (   0.4407895   0.2203947   0.2203947  )
        21           Pd  tau(  21) = (   0.4407895   0.0000000   0.4407895  )
        22           Pd  tau(  22) = (   0.6611842   0.2203947   0.4407895  )
        23           Pd  tau(  23) = (   0.6611842   0.0000000   0.6611842  )
        24           Pd  tau(  24) = (   0.4407895   0.2203947   0.6611842  )
        25           Pd  tau(  25) = (   0.4407895   0.4407895   0.0000000  )
        26           Pd  tau(  26) = (   0.6611842   0.6611842   0.0000000  )
        27           Pd  tau(  27) = (   0.6611842   0.4407895   0.2203947  )
        28           Pd  tau(  28) = (   0.4407895   0.6611842   0.2203947  )
        29           Pd  tau(  29) = (   0.4407895   0.4407895   0.4407895  )
        30           Pd  tau(  30) = (   0.6611842   0.6611842   0.4407895  )
        31           Pd  tau(  31) = (   0.6611842   0.4407895   0.6611842  )
        32           Pd  tau(  32) = (   0.4407895   0.6611842   0.6611842  )

     number of k points=    35  Marzari-Vanderbilt smearing, width (Ry)=  0.0400
                       cart. coord. in units 2pi/alat
        k(    1) = (   0.0630182   0.0630182   0.0630182), wk =   0.0219479
        k(    2) = (   0.0630182   0.0630182   0.1890547), wk =   0.0658436
        k(    3) = (   0.0630182   0.0630182   0.3150912), wk =   0.0658436
        k(    4) = (   0.0630182   0.0630182   0.4411277), wk =   0.0658436
        k(    5) = (   0.0630182   0.0630182  -0.5671642), wk =   0.0329218
        k(    6) = (   0.0630182   0.1890547   0.1890547), wk =   0.0658436
        k(    7) = (   0.0630182   0.1890547   0.3150912), wk =   0.1316872
        k(    8) = (   0.0630182   0.1890547   0.4411277), wk =   0.1316872
        k(    9) = (   0.0630182   0.1890547  -0.5671642), wk =   0.0658436
        k(   10) = (   0.0630182   0.3150912   0.3150912), wk =   0.0658436
        k(   11) = (   0.0630182   0.3150912   0.4411277), wk =   0.1316872
        k(   12) = (   0.0630182   0.3150912  -0.5671642), wk =   0.0658436
        k(   13) = (   0.0630182   0.4411277   0.4411277), wk =   0.0658436
        k(   14) = (   0.0630182   0.4411277  -0.5671642), wk =   0.0658436
        k(   15) = (   0.0630182  -0.5671642  -0.5671642), wk =   0.0164609
        k(   16) = (   0.1890547   0.1890547   0.1890547), wk =   0.0219479
        k(   17) = (   0.1890547   0.1890547   0.3150912), wk =   0.0658436
        k(   18) = (   0.1890547   0.1890547   0.4411277), wk =   0.0658436
        k(   19) = (   0.1890547   0.1890547  -0.5671642), wk =   0.0329218
        k(   20) = (   0.1890547   0.3150912   0.3150912), wk =   0.0658436
        k(   21) = (   0.1890547   0.3150912   0.4411277), wk =   0.1316872
        k(   22) = (   0.1890547   0.3150912  -0.5671642), wk =   0.0658436
        k(   23) = (   0.1890547   0.4411277   0.4411277), wk =   0.0658436
        k(   24) = (   0.1890547   0.4411277  -0.5671642), wk =   0.0658436
        k(   25) = (   0.1890547  -0.5671642  -0.5671642), wk =   0.0164609
        k(   26) = (   0.3150912   0.3150912   0.3150912), wk =   0.0219479
        k(   27) = (   0.3150912   0.3150912   0.4411277), wk =   0.0658436
        k(   28) = (   0.3150912   0.3150912  -0.5671642), wk =   0.0329218
        k(   29) = (   0.3150912   0.4411277   0.4411277), wk =   0.0658436
        k(   30) = (   0.3150912   0.4411277  -0.5671642), wk =   0.0658436
        k(   31) = (   0.3150912  -0.5671642  -0.5671642), wk =   0.0164609
        k(   32) = (   0.4411277   0.4411277   0.4411277), wk =   0.0219479
        k(   33) = (   0.4411277   0.4411277  -0.5671642), wk =   0.0329218
        k(   34) = (   0.4411277  -0.5671642  -0.5671642), wk =   0.0164609
        k(   35) = (  -0.5671642  -0.5671642  -0.5671642), wk =   0.0027435

     Dense  grid:   308371 G-vectors     FFT dimensions: (  90,  90,  90)

     Smooth grid:   165141 G-vectors     FFT dimensions: (  72,  72,  72)

     Estimated max dynamical RAM per process >      80.35 MB

     Estimated total dynamical RAM >       5.65 GB

     Check: negative core charge=   -0.000002

     Initial potential from superposition of free atoms

     starting charge  575.98776, renormalised to  576.00000
     Starting wfcs are  320 randomized atomic wfcs +   26 random wfcs
     Checking if some PAW data can be deallocated... 

     total cpu time spent up to now is       12.3 secs

     Self-consistent Calculation

     iteration #  1     ecut=    71.00 Ry     beta= 0.10
     Davidson diagonalization with overlap
     ethr =  1.00E-02,  avg # of iterations =  4.0

     Threshold (ethr) on eigenvalues was too large:
     Diagonalizing with lowered threshold

     Davidson diagonalization with overlap
     c_bands:  1 eigenvalues not converged
     ethr =  1.17E-05,  avg # of iterations =  8.2

     total cpu time spent up to now is      126.5 secs

     total energy              =  -16377.32715946 Ry
     estimated scf accuracy    <       0.05564428 Ry

     iteration #  2     ecut=    71.00 Ry     beta= 0.10
     Davidson diagonalization with overlap
     ethr =  9.66E-06,  avg # of iterations =  1.5

     total cpu time spent up to now is      153.1 secs

     total energy              =  -16377.30793478 Ry
     estimated scf accuracy    <       0.04452056 Ry

     iteration #  3     ecut=    71.00 Ry     beta= 0.10
     Davidson diagonalization with overlap
     ethr =  7.73E-06,  avg # of iterations =  2.6

     total cpu time spent up to now is      192.8 secs

     total energy              =  -16377.31234605 Ry
     estimated scf accuracy    <       0.00529168 Ry

     iteration #  4     ecut=    71.00 Ry     beta= 0.10
     Davidson diagonalization with overlap
     c_bands:  1 eigenvalues not converged
     ethr =  9.19E-07,  avg # of iterations =  4.8

     total cpu time spent up to now is      229.2 secs

     total energy              =  -16377.31142836 Ry
     estimated scf accuracy    <       0.00270711 Ry

     iteration #  5     ecut=    71.00 Ry     beta= 0.10
     Davidson diagonalization with overlap
     ethr =  4.70E-07,  avg # of iterations =  2.5

     total cpu time spent up to now is      264.2 secs

     total energy              =  -16377.31150120 Ry
     estimated scf accuracy    <       0.00059146 Ry

     iteration #  6     ecut=    71.00 Ry     beta= 0.10
     Davidson diagonalization with overlap
     c_bands:  1 eigenvalues not converged
     ethr =  1.03E-07,  avg # of iterations =  2.5

     total cpu time spent up to now is      308.7 secs

     total energy              =  -16377.31174867 Ry
     estimated scf accuracy    <       0.00052679 Ry

     iteration #  7     ecut=    71.00 Ry     beta= 0.10
     Davidson diagonalization with overlap
     ethr =  9.15E-08,  avg # of iterations =  1.0

     total cpu time spent up to now is      336.6 secs

     total energy              =  -16377.31160309 Ry
     estimated scf accuracy    <       0.00034409 Ry

     iteration #  8     ecut=    71.00 Ry     beta= 0.10
     Davidson diagonalization with overlap
     ethr =  5.97E-08,  avg # of iterations =  2.0

     total cpu time spent up to now is      366.3 secs

     total energy              =  -16377.31160797 Ry
     estimated scf accuracy    <       0.00004962 Ry

     iteration #  9     ecut=    71.00 Ry     beta= 0.10
     Davidson diagonalization with overlap
     ethr =  8.62E-09,  avg # of iterations =  2.2

     total cpu time spent up to now is      410.9 secs

     total energy              =  -16377.31161618 Ry
     estimated scf accuracy    <       0.00000386 Ry

     iteration # 10     ecut=    71.00 Ry     beta= 0.10
     Davidson diagonalization with overlap
     ethr =  6.71E-10,  avg # of iterations =  3.2

     total cpu time spent up to now is      452.6 secs

     total energy              =  -16377.31161929 Ry
     estimated scf accuracy    <       0.00000144 Ry

     iteration # 11     ecut=    71.00 Ry     beta= 0.10
     Davidson diagonalization with overlap
     ethr =  2.51E-10,  avg # of iterations =  1.8

     total cpu time spent up to now is      479.8 secs

     End of self-consistent calculation

          k = 0.0630 0.0630 0.0630 ( 20608 PWs)   bands (ev):

   -51.2359 -51.0165 -51.0165 -51.0164 -50.9739 -50.9739 -50.9739 -50.8937
   -50.8937 -50.8937 -50.8722 -50.8703 -50.8703 -50.8703 -50.8703 -50.8703
   -50.8702 -50.8684 -50.8684 -50.8684 -50.8506 -50.8506 -50.8505 -50.7497
   -50.7497 -50.7497 -50.7485 -50.7485 -50.7484 -50.7484 -50.7484 -50.7484
   -17.8361 -17.8360 -17.8360 -17.8288 -17.7114 -17.7114 -17.7114 -17.3491
   -17.3491 -17.3490 -17.3280 -17.3280 -17.3280 -17.3280 -17.3279 -17.3279
   -17.2905 -17.2905 -17.2904 -17.2428 -17.2428 -17.2428 -17.2428 -17.2428
   -17.2428 -17.1487 -17.1487 -17.1487 -17.1487 -17.1487 -17.1487 -16.9687
   -16.9687 -16.9687 -16.8315 -16.8315 -16.8315 -16.8191 -16.8191 -16.8191
   -16.7542 -16.7542 -16.7542 -16.7541 -16.7541 -16.7541 -16.6794 -16.6794
   -16.6794 -16.6638 -16.6638 -16.6638 -16.6638 -16.6638 -16.6638 -16.6458
   -16.6458 -16.6458 -16.6371 -16.6371 -16.6371 -16.3408 -16.3408 -16.3408
   -16.3397 -16.3397 -16.3397 -16.2818 -16.2817 -16.2817 -16.2814 -16.2814
   -16.2814 -16.2490 -16.2490 -16.2490 -16.2258 -16.2258 -16.2258 -16.2246
   -16.2246 -16.2246 -16.2245 -16.2245 -16.2245 -16.2198 -16.2197 -16.2197
   -16.2145 -16.2145 -16.1904 -16.1904 -16.1904 -15.9866 -15.9737 -15.9737
    24.0310  24.4007  24.4007  24.4007  24.8990  24.8990  24.8990  25.1076
    25.1273  25.1273  25.1273  26.3161  26.3161  26.3161  26.3161  26.3161
    26.3161  26.3870  26.3870  26.3870  26.4679  26.4679  26.4679  26.5764
    26.5764  26.5764  26.9421  26.9421  26.9421  27.4341  27.4341  27.4341
    27.6081  27.6081  27.6081  27.6081  27.6081  27.6081  27.6215  27.6215
    27.6215  27.9933  27.9933  27.9933  27.9933  27.9933  27.9933  28.1673
    28.1673  28.1673  28.1673  28.1673  28.1673  28.1721  28.1721  28.1721
    28.2984  28.2984  28.2984  28.7160  28.7160  28.7160  28.7160  28.7160
    28.7160  28.9670  28.9670  28.9670  28.9670  28.9670  28.9670  29.0388
    29.0388  29.0388  29.0461  29.0461  29.0461  29.0946  29.0946  29.1017
    29.1017  29.1017  29.1156  29.1156  29.1156  29.2249  29.2668  29.2668
    30.9008  30.9008  30.9008  30.9978  30.9978  30.9978  31.0635  31.0635
    31.0635  31.0635  31.0635  31.0635  31.0640  31.0640  31.0640  31.4610
    31.4610  31.4610  31.4952  31.4952  31.4952  31.7898  31.7898  31.7898
    32.0018  32.0018  32.0018  32.0678  32.0678  32.0678  32.1322  32.1322
    32.1322  32.1322  32.1322  32.1322  32.3706  32.3706  32.3706  32.3847
    32.3847  32.3847  32.3848  32.3848  32.3848  32.4995  32.4995  32.6177
    32.6177  32.6177  33.5586  33.5586  33.5586  33.7786  33.7787  33.7787
    34.3261  34.3261  34.3261  34.9119  34.9119  34.9119  34.9522  34.9522
    35.0005  35.0006  35.0006  35.0813  35.4835  35.4835  35.4835  35.6444
    35.6444  35.6444  35.6445  35.6445  35.6445  35.6504  35.6505  35.6505
    35.8916  35.8916  35.8916  38.1036  38.1036  38.1036  38.8872  38.8872
    38.8872  38.8872  38.8872  38.8872  38.9399  38.9399  38.9399  39.6529
    39.6529  39.6529  46.7065  46.7065  46.7065  46.7065  46.7065  46.7065
    47.0735  47.0735  47.0735  47.2096  47.5356  47.5356  47.5356  47.5356
    47.5356  47.5356  49.9042  49.9042  49.9042  49.9043  49.9043  49.9043
    50.6662  50.6663  50.8860  50.8877  50.8877  50.9957  50.9960  50.9960
    50.9960  50.9960

          k = 0.0630 0.0630 0.1891 ( 20642 PWs)   bands (ev):

   -51.2286 -51.0582 -51.0124 -51.0123 -50.9705 -50.9704 -50.9319 -50.9169
   -50.9168 -50.8930 -50.8898 -50.8897 -50.8760 -50.8702 -50.8702 -50.8685
   -50.8685 -50.8648 -50.8511 -50.8472 -50.8472 -50.8312 -50.8312 -50.7572
   -50.7525 -50.7525 -50.7518 -50.7518 -50.7496 -50.7496 -50.7485 -50.7485
   -17.8224 -17.8153 -17.8153 -17.8006 -17.6962 -17.6962 -17.6878 -17.4066
   -17.3818 -17.3817 -17.3574 -17.3573 -17.3524 -17.3524 -17.3428 -17.3329
   -17.3329 -17.2948 -17.2948 -17.2629 -17.2628 -17.2409 -17.2408 -17.2376
   -17.2376 -17.1647 -17.1647 -17.1321 -17.1321 -17.1137 -17.0570 -17.0570
   -16.9921 -16.9921 -16.9070 -16.9070 -16.8496 -16.8496 -16.8272 -16.8272
   -16.7694 -16.6991 -16.6991 -16.6774 -16.6774 -16.6691 -16.6659 -16.6659
   -16.6622 -16.6622 -16.6362 -16.6362 -16.6361 -16.6361 -16.6357 -16.6328
   -16.6328 -16.6288 -16.6273 -16.6053 -16.6053 -16.3990 -16.3965 -16.3544
   -16.3544 -16.3250 -16.3250 -16.2950 -16.2950 -16.2855 -16.2855 -16.2705
   -16.2705 -16.2638 -16.2638 -16.2590 -16.2479 -16.2462 -16.2462 -16.2261
   -16.2249 -16.2244 -16.2243 -16.2243 -16.2226 -16.2218 -16.2218 -16.2125
   -16.2124 -16.2097 -16.1912 -16.1689 -16.1689 -16.0193 -15.9839 -15.9800
    24.1470  24.4798  24.4870  24.4870  24.9496  24.9911  24.9911  25.1690
    25.2074  25.2075  25.2268  26.1429  26.1515  26.1515  26.2328  26.3274
    26.3720  26.3720  26.3907  26.3907  26.4639  26.4639  26.5486  26.5486
    26.6530  26.6530  27.0017  27.0017  27.1244  27.1637  27.1846  27.1846
    27.2579  27.2579  27.3213  27.3388  27.3388  27.5653  27.5653  27.5889
    27.5889  27.6523  27.6523  27.9884  27.9884  27.9995  27.9995  28.1161
    28.1161  28.1419  28.1419  28.1464  28.1464  28.2079  28.2789  28.2789
    28.3863  28.3863  28.4495  28.6689  28.6689  28.7096  28.7096  28.7258
    28.7258  28.7510  28.7510  28.9362  28.9362  28.9495  28.9908  28.9908
    29.0612  29.0612  29.0919  29.1396  29.1415  29.1879  29.1879  29.2024
    29.3269  29.3326  29.4089  29.4089  29.4672  29.4966  29.4966  29.5263
    30.5605  30.5605  30.6202  30.7440  30.7976  30.7976  30.8191  30.9306
    30.9306  30.9711  30.9711  31.0263  31.2580  31.2580  31.2649  31.2649
    31.3480  31.3588  31.3588  31.4640  31.4640  31.8521  31.8521  31.9616
    31.9617  32.0875  32.1309  32.1309  32.1526  32.1526  32.1615  32.1615
    32.2448  32.2448  32.3475  32.3475  32.3997  32.3999  32.5328  32.5358
    32.6994  32.6994  32.7737  32.7737  32.7854  32.7855  32.8968  32.9397
    32.9397  33.0715  33.3480  33.6279  33.6532  33.6532  33.7282  33.7282
    33.9290  33.9290  34.0027  34.1462  34.7486  34.7487  34.7907  34.8558
    34.9080  34.9080  34.9310  34.9310  34.9328  35.3147  35.4711  35.4711
    35.4732  35.4732  35.5028  35.6418  35.6419  35.6441  35.6441  35.6599
    36.3893  36.3894  36.7220  37.3387  37.3387  38.0199  38.1232  38.1232
    38.5394  38.8071  38.8071  39.5738  39.5861  39.5861  39.7039  39.7039
    40.4381  40.4381  45.7786  45.7786  45.8683  45.8683  46.5252  46.5252
    46.9716  46.9716  47.0262  47.1676  47.1676  47.4267  47.7706  47.7707
    48.2303  48.2304  49.9860  49.9861  50.0704  50.2216  50.2216  50.2985
    50.2985  50.4187  50.4187  50.5137  50.5137  50.5610  50.5612  50.8930
    50.9287  50.9289

          k = 0.0630 0.0630 0.3151 ( 20629 PWs)   bands (ev):

   -51.2144 -51.0979 -51.0043 -51.0043 -50.9636 -50.9636 -50.9390 -50.9389
   -50.9084 -50.9084 -50.8917 -50.8915 -50.8798 -50.8700 -50.8699 -50.8688
   -50.8687 -50.8615 -50.8522 -50.8252 -50.8252 -50.8127 -50.8127 -50.7720
   -50.7605 -50.7604 -50.7585 -50.7585 -50.7495 -50.7495 -50.7487 -50.7486
   -17.7882 -17.7743 -17.7743 -17.7527 -17.6661 -17.6661 -17.6412 -17.4914
   -17.4643 -17.4643 -17.4252 -17.4182 -17.4182 -17.3630 -17.3630 -17.3525
   -17.3525 -17.2919 -17.2919 -17.2514 -17.2514 -17.2501 -17.2442 -17.2442
   -17.1811 -17.1811 -17.1700 -17.1700 -17.1036 -17.1036 -17.0337 -17.0337
   -16.9783 -16.9783 -16.9683 -16.9683 -16.9029 -16.9029 -16.8967 -16.8967
   -16.7006 -16.7006 -16.6756 -16.6586 -16.6585 -16.6388 -16.6388 -16.6161
   -16.6139 -16.6139 -16.6081 -16.6034 -16.6034 -16.5870 -16.5870 -16.5804
   -16.5804 -16.5500 -16.5343 -16.5343 -16.5237 -16.4542 -16.4504 -16.3820
   -16.3820 -16.3328 -16.3328 -16.3262 -16.3262 -16.3215 -16.3215 -16.3131
   -16.2998 -16.2998 -16.2894 -16.2894 -16.2591 -16.2458 -16.2358 -16.2358
   -16.2300 -16.2241 -16.2240 -16.2222 -16.2222 -16.2124 -16.2124 -16.2051
   -16.1926 -16.1692 -16.1663 -16.1608 -16.1607 -16.0775 -16.0044 -15.9992
    24.3738  24.6349  24.6556  24.6556  25.0502  25.1742  25.1742  25.3112
    25.3668  25.3668  25.4039  25.8183  25.8701  25.8701  25.9166  25.9926
    26.4775  26.4775  26.5361  26.5361  26.6038  26.6038  26.6374  26.7003
    26.7003  26.7181  26.7181  26.7530  26.7530  26.7607  26.8138  26.8138
    27.0957  27.0957  27.1220  27.1220  27.4617  27.4617  27.4806  27.4806
    27.4862  27.4862  27.7026  27.9908  27.9908  28.0074  28.0074  28.0330
    28.0330  28.0519  28.0519  28.1300  28.1300  28.2414  28.3587  28.3587
    28.3831  28.3831  28.5728  28.5729  28.5859  28.5859  28.5936  28.5936
    28.6061  28.7419  28.7419  28.8147  28.8223  28.8223  28.8968  28.8968
    28.9683  28.9854  28.9854  29.0428  29.2504  29.3218  29.3218  29.3531
    29.4588  29.4634  29.9993  29.9993  30.0842  30.0925  30.0925  30.1448
    30.2746  30.3323  30.3323  30.3506  30.3506  30.4828  30.4854  30.4855
    30.5265  30.6028  31.1878  31.1878  31.1922  31.4443  31.4443  31.5249
    31.5249  31.5470  31.5470  31.6658  31.6658  31.7610  31.7610  31.9382
    31.9383  32.1154  32.1154  32.1728  32.1728  32.2063  32.2063  32.2088
    32.3524  32.3524  32.5988  32.7256  32.7256  32.7652  32.8448  32.8939
    32.8939  32.9199  33.0013  33.0013  33.0828  33.1317  33.1317  33.1522
    33.2470  33.2470  33.2779  33.2968  33.3378  33.3378  33.9080  33.9527
    33.9527  34.0059  34.0059  34.2259  34.3817  34.3817  34.5194  34.5195
    34.5272  34.7205  34.7205  34.7335  34.7546  34.9951  35.1533  35.1533
    35.1563  35.1563  35.2379  35.6408  35.6408  35.6434  35.6434  36.2566
    36.5856  36.5856  36.9868  36.9868  37.3522  37.3522  37.4905  37.8225
    37.8495  38.6408  38.6408  39.4037  40.5248  40.5248  40.5729  40.5729
    41.2672  41.2672  44.7613  44.7613  44.7762  44.7762  45.3679  45.3679
    47.0992  47.3770  47.3770  47.4132  47.4132  47.7402  48.2065  48.2065
    48.7748  48.7748  49.1766  49.7131  49.7131  50.0635  50.0635  50.1299
    50.1299  50.1524  50.1525  50.2236  50.4005  50.4005  50.4208  50.4208
    50.5008  50.5008

          k = 0.0630 0.0630 0.4411 ( 20630 PWs)   bands (ev):

   -51.1935 -51.1344 -50.9925 -50.9925 -50.9593 -50.9593 -50.9537 -50.9536
   -50.9256 -50.9256 -50.8893 -50.8833 -50.8697 -50.8697 -50.8690 -50.8690
   -50.8585 -50.8544 -50.8538 -50.8050 -50.8050 -50.7958 -50.7957 -50.7937
   -50.7721 -50.7721 -50.7682 -50.7682 -50.7493 -50.7493 -50.7488 -50.7488
   -17.7347 -17.7152 -17.7152 -17.6872 -17.6219 -17.6219 -17.5813 -17.5720
   -17.5544 -17.5544 -17.5176 -17.4962 -17.4962 -17.3738 -17.3605 -17.3604
   -17.3353 -17.3353 -17.3216 -17.3216 -17.2740 -17.2740 -17.1999 -17.1999
   -17.1441 -17.1441 -17.1137 -17.1137 -17.0864 -17.0864 -17.0651 -17.0651
   -17.0432 -17.0432 -16.9695 -16.9695 -16.9605 -16.9605 -16.8858 -16.8858
   -16.7498 -16.7498 -16.6537 -16.6537 -16.6432 -16.6432 -16.5871 -16.5799
   -16.5733 -16.5349 -16.5349 -16.5248 -16.5248 -16.5202 -16.5202 -16.5174
   -16.5174 -16.5050 -16.4998 -16.4684 -16.4684 -16.4635 -16.4224 -16.4224
   -16.3895 -16.3895 -16.3891 -16.3891 -16.3875 -16.3861 -16.3602 -16.3602
   -16.3520 -16.3520 -16.3121 -16.2707 -16.2706 -16.2429 -16.2348 -16.2236
   -16.2236 -16.2234 -16.2234 -16.2227 -16.2227 -16.2058 -16.2058 -16.2010
   -16.1948 -16.1652 -16.1651 -16.1603 -16.1181 -16.1139 -16.0341 -16.0289
    24.7002  24.8600  24.8976  24.8977  25.1994  25.4458  25.4458  25.4727
    25.5330  25.5349  25.5349  25.5561  25.6027  25.6027  25.6356  25.6546
    26.2018  26.2397  26.2397  26.2865  26.2865  26.3477  26.6190  26.6191
    26.7435  26.7435  26.7879  26.7879  26.9011  26.9011  26.9387  26.9387
    27.0648  27.0648  27.2429  27.2429  27.2567  27.2567  27.3064  27.3064
    27.3213  27.3213  27.7782  27.7782  27.8308  27.8308  27.9913  27.9913
    28.0084  28.0084  28.0208  28.0208  28.0732  28.2278  28.2278  28.3492
    28.5035  28.5035  28.5039  28.5039  28.5218  28.5218  28.6572  28.7222
    28.7307  28.7587  28.7587  28.7742  28.7742  28.7835  28.7835  28.8722
    28.8722  28.9573  29.0699  29.0699  29.4245  29.5164  29.5164  29.5641
    29.6552  29.6581  29.6685  29.6685  29.8011  29.8011  29.9454  30.0516
    30.0517  30.1416  30.2159  30.2308  30.7885  30.7885  30.8124  30.8129
    31.2149  31.2149  31.3506  31.3506  31.3555  31.4238  31.4238  31.7667
    31.7667  31.7708  31.7708  31.8541  31.8541  31.9093  31.9094  31.9165
    31.9165  31.9458  32.0636  32.0636  32.1598  32.1599  32.2100  32.2491
    32.2491  32.2926  32.2926  32.3073  32.3073  32.4256  32.6960  32.7665
    32.7665  32.9757  33.0747  33.0747  33.1933  33.1933  33.3126  33.4186
    33.5866  33.5866  33.6221  33.7225  33.7444  33.7445  33.7899  33.7899
    34.1381  34.1381  34.1787  34.4085  34.4085  34.4458  34.4794  34.4799
    34.4799  34.5049  34.5537  34.7344  34.7344  34.7362  34.7362  34.8662
    34.9297  35.0516  35.0516  35.6409  35.6410  35.6425  35.6426  35.8466
    35.8466  36.5748  36.5748  36.7861  36.9042  37.5428  37.5428  37.5881
    38.1630  38.3785  38.3785  39.1225  41.5119  41.5119  41.5687  41.5687
    42.1651  42.1651  43.6231  43.6231  43.7246  43.7246  44.2220  44.2220
    47.3333  47.7294  47.7294  48.0235  48.0235  48.1737  48.3837  48.7870
    48.7870  48.9155  48.9156  49.1850  49.1850  49.4369  49.4488  49.4488
    49.8264  49.8264  50.0277  50.0277  50.3813  50.3814  50.4855  50.4855
    50.5583  50.5583

          k = 0.0630 0.0630-0.5672 ( 20644 PWs)   bands (ev):

   -51.1665 -51.1665 -50.9774 -50.9774 -50.9773 -50.9773 -50.9409 -50.9408
   -50.9408 -50.9408 -50.8866 -50.8866 -50.8694 -50.8694 -50.8693 -50.8693
   -50.8559 -50.8559 -50.8214 -50.8214 -50.7871 -50.7871 -50.7871 -50.7871
   -50.7808 -50.7808 -50.7808 -50.7807 -50.7491 -50.7491 -50.7490 -50.7490
   -17.6646 -17.6646 -17.6405 -17.6405 -17.6405 -17.6405 -17.6073 -17.6073
   -17.5648 -17.5648 -17.5648 -17.5648 -17.4820 -17.4820 -17.3458 -17.3458
   -17.3457 -17.3457 -17.3078 -17.3078 -17.3078 -17.3077 -17.1437 -17.1437
   -17.1437 -17.1437 -17.0995 -17.0995 -17.0995 -17.0995 -17.0417 -17.0417
   -17.0417 -17.0417 -17.0171 -17.0171 -17.0171 -17.0171 -16.8122 -16.8122
   -16.8122 -16.8122 -16.6482 -16.6482 -16.6482 -16.6482 -16.5496 -16.5496
   -16.5434 -16.5434 -16.4744 -16.4744 -16.4739 -16.4739 -16.4739 -16.4739
   -16.4571 -16.4571 -16.4571 -16.4571 -16.4519 -16.4519 -16.4519 -16.4519
   -16.4305 -16.4305 -16.4304 -16.4304 -16.4097 -16.4097 -16.4097 -16.4097
   -16.3819 -16.3819 -16.2650 -16.2650 -16.2438 -16.2438 -16.2438 -16.2438
   -16.2391 -16.2391 -16.2232 -16.2232 -16.2232 -16.2232 -16.1976 -16.1976
   -16.1810 -16.1810 -16.1810 -16.1810 -16.0725 -16.0725 -16.0676 -16.0676
    25.1058  25.1058  25.1447  25.1447  25.1985  25.1985  25.1986  25.1986
    25.3954  25.3954  25.8025  25.8025  25.8025  25.8025  25.8313  25.8313
    25.9112  25.9112  25.9112  25.9113  25.9725  25.9725  26.7783  26.7783
    26.7783  26.7783  26.9955  26.9955  26.9956  26.9956  27.0045  27.0045
    27.0045  27.0045  27.1183  27.1183  27.1183  27.1183  27.3957  27.3957
    27.3957  27.3957  27.5533  27.5533  27.5533  27.5533  27.9971  27.9971
    27.9971  27.9971  28.0987  28.0987  28.0987  28.0987  28.4184  28.4184
    28.4858  28.4858  28.4859  28.4859  28.4954  28.4954  28.6379  28.6379
    28.6379  28.6379  28.7718  28.7718  28.7718  28.7718  28.8492  28.8492
    29.3027  29.3027  29.3027  29.3027  29.3163  29.3163  29.3164  29.3164
    29.6583  29.6583  29.7663  29.7663  29.7663  29.7663  29.8299  29.8299
    29.9114  29.9114  29.9147  29.9148  31.4013  31.4013  31.4013  31.4013
    31.5021  31.5021  31.5021  31.5021  31.5048  31.5048  31.6001  31.6001
    31.6430  31.6430  31.8650  31.8650  31.8651  31.8651  31.9531  31.9531
    31.9531  31.9531  32.0813  32.0813  32.0813  32.0814  32.0861  32.0862
    32.0862  32.0862  32.1342  32.1342  32.1342  32.1342  32.5350  32.5350
    32.5350  32.5351  32.8225  32.8225  33.6826  33.6826  33.6826  33.6826
    33.7661  33.7661  34.0203  34.0203  34.0219  34.0219  34.0220  34.0220
    34.1184  34.1184  34.1270  34.1270  34.2508  34.2508  34.2508  34.2508
    34.2676  34.2676  34.2676  34.2676  34.6693  34.6693  35.1344  35.1344
    35.1344  35.1344  35.6416  35.6416  35.6417  35.6417  35.8006  35.8006
    35.8006  35.8006  35.8898  35.8898  37.2329  37.2329  38.0123  38.0123
    38.0123  38.0123  38.7112  38.7112  42.5305  42.5305  42.5305  42.5305
    42.6471  42.6471  42.6471  42.6471  43.1489  43.1489  43.1489  43.1489
    47.7597  47.7597  48.2434  48.2434  48.2434  48.2434  48.7297  48.7297
    48.7297  48.7297  48.7415  48.7415  49.4312  49.4312  49.4312  49.4312
    49.5179  49.5179  49.5180  49.5180  50.5862  50.5862  50.5862  50.5862
    50.6168  50.6168

          k = 0.0630 0.1891 0.1891 ( 20643 PWs)   bands (ev):

   -51.2215 -51.0535 -51.0535 -51.0084 -50.9671 -50.9435 -50.9291 -50.9290
   -50.9155 -50.9154 -50.8890 -50.8890 -50.8835 -50.8723 -50.8631 -50.8631
   -50.8613 -50.8612 -50.8478 -50.8477 -50.8324 -50.8323 -50.8154 -50.7570
   -50.7570 -50.7557 -50.7557 -50.7532 -50.7532 -50.7512 -50.7512 -50.7496
   -17.8090 -17.8090 -17.7877 -17.7653 -17.6811 -17.6739 -17.6739 -17.4184
   -17.4184 -17.4067 -17.4067 -17.3507 -17.3447 -17.3447 -17.3428 -17.3428
   -17.3361 -17.3361 -17.3212 -17.3211 -17.2914 -17.2914 -17.2815 -17.2815
   -17.1754 -17.1299 -17.1299 -17.1197 -17.1197 -17.0863 -17.0863 -17.0430
   -17.0430 -17.0175 -16.9845 -16.8819 -16.8384 -16.8384 -16.7688 -16.7688
   -16.7479 -16.7478 -16.7063 -16.7063 -16.6980 -16.6555 -16.6555 -16.6377
   -16.6377 -16.6293 -16.6293 -16.6283 -16.6283 -16.6261 -16.6261 -16.6222
   -16.6097 -16.6097 -16.5600 -16.5600 -16.5342 -16.4129 -16.4129 -16.3850
   -16.3850 -16.3425 -16.3333 -16.3120 -16.2857 -16.2857 -16.2835 -16.2835
   -16.2770 -16.2753 -16.2693 -16.2693 -16.2666 -16.2666 -16.2432 -16.2365
   -16.2365 -16.2359 -16.2359 -16.2304 -16.2151 -16.2132 -16.2132 -16.2109
   -16.2036 -16.2036 -16.1706 -16.1706 -16.1379 -16.0606 -15.9932 -15.9782
    24.2601  24.5609  24.5662  24.5662  25.0410  25.0410  25.0928  25.2090
    25.2651  25.3223  25.3223  26.1807  26.1807  26.2119  26.2119  26.2337
    26.2337  26.3250  26.3250  26.4045  26.4045  26.4466  26.4466  26.4474
    26.5586  26.8168  26.9865  27.0573  27.0573  27.1074  27.1074  27.1274
    27.1382  27.1382  27.2494  27.2494  27.3604  27.3604  27.3679  27.3679
    27.3977  27.3977  27.4949  27.6750  27.6750  27.9421  27.9421  28.0435
    28.0435  28.0446  28.0446  28.1157  28.1261  28.1261  28.4014  28.4014
    28.4218  28.4218  28.5368  28.5741  28.5741  28.7383  28.7383  28.8446
    28.8446  28.9668  28.9954  29.0897  29.0897  29.0972  29.1063  29.1945
    29.2551  29.2551  29.2585  29.2895  29.3021  29.3021  29.3060  29.3060
    29.3527  29.3922  29.3948  29.3948  29.4589  29.4589  29.4866  29.4866
    30.3375  30.3884  30.3884  30.6514  30.6514  30.6655  30.8505  30.9392
    30.9392  31.0038  31.0038  31.0218  31.0218  31.0927  31.0927  31.2826
    31.3561  31.4609  31.4609  31.5567  31.6198  31.6198  31.6831  31.6831
    31.7207  32.1302  32.1302  32.2394  32.2394  32.3256  32.3257  32.3690
    32.3871  32.3871  32.4874  32.4874  32.5044  32.5369  32.6351  32.6351
    32.7056  32.7056  33.0863  33.0863  33.1517  33.1517  33.1749  33.1989
    33.1989  33.2425  33.3273  33.4042  33.4042  33.4565  33.4565  33.6852
    33.8387  33.9554  34.2629  34.2629  34.4899  34.5542  34.5542  34.6317
    34.8524  34.8730  34.8730  34.9629  34.9630  34.9934  35.3239  35.3310
    35.3310  35.4693  35.4693  35.4754  35.4754  35.5003  35.5003  35.5547
    36.3391  36.5891  37.2356  37.2356  37.2554  37.2554  38.0457  38.0457
    38.9542  38.9543  39.1854  39.1854  39.6336  39.6336  40.1163  40.3651
    40.3651  41.1780  45.0731  45.0731  45.9578  45.9578  46.0210  46.0210
    46.8575  46.8576  46.9768  46.9768  47.1147  47.1147  47.3927  47.7419
    48.4543  48.4543  49.5461  49.5461  49.8876  50.0546  50.0546  50.0743
    50.2529  50.2529  50.4558  50.4558  50.6829  50.6830  51.0340  51.0724
    51.0724  51.1821

          k = 0.0630 0.1891 0.3151 ( 20658 PWs)   bands (ev):

   -51.2074 -51.0926 -51.0442 -51.0005 -50.9690 -50.9605 -50.9369 -50.9234
   -50.9127 -50.9070 -50.8908 -50.8894 -50.8875 -50.8783 -50.8760 -50.8580
   -50.8544 -50.8488 -50.8376 -50.8347 -50.8264 -50.8145 -50.8005 -50.7716
   -50.7635 -50.7625 -50.7622 -50.7567 -50.7566 -50.7540 -50.7507 -50.7497
   -17.7821 -17.7757 -17.7412 -17.7114 -17.6511 -17.6464 -17.6298 -17.5044
   -17.4880 -17.4237 -17.4202 -17.4171 -17.4171 -17.4051 -17.3724 -17.3637
   -17.3579 -17.3328 -17.3266 -17.3123 -17.3100 -17.2997 -17.2970 -17.2594
   -17.2290 -17.1591 -17.1295 -17.1005 -17.0959 -17.0697 -17.0624 -17.0565
   -17.0163 -17.0051 -16.9553 -16.9380 -16.9039 -16.8364 -16.8150 -16.7701
   -16.7413 -16.7377 -16.6898 -16.6794 -16.6713 -16.6376 -16.6349 -16.6277
   -16.6229 -16.6143 -16.6062 -16.5930 -16.5745 -16.5673 -16.5668 -16.5634
   -16.5625 -16.5539 -16.4943 -16.4889 -16.4687 -16.4659 -16.4417 -16.4417
   -16.3636 -16.3635 -16.3496 -16.3476 -16.3341 -16.3295 -16.3290 -16.3235
   -16.3093 -16.3002 -16.2795 -16.2731 -16.2722 -16.2669 -16.2618 -16.2476
   -16.2460 -16.2454 -16.2366 -16.2290 -16.2148 -16.2144 -16.2022 -16.1805
   -16.1741 -16.1740 -16.1635 -16.1460 -16.1257 -16.1202 -16.0138 -15.9888
    24.4814  24.7081  24.7215  24.7349  25.1401  25.2225  25.2913  25.3282
    25.3994  25.4919  25.5097  25.8768  25.8944  25.9532  26.0064  26.0688
    26.2378  26.3445  26.3958  26.4822  26.5096  26.5510  26.5510  26.5734
    26.5923  26.5962  26.6633  26.7611  26.7838  26.8018  26.8212  26.8603
    26.9730  27.0209  27.0363  27.0707  27.3168  27.3538  27.3643  27.3804
    27.4023  27.4580  27.5167  27.6300  27.7246  27.7375  27.7678  27.8562
    27.8674  27.9547  28.0092  28.0338  28.0666  28.1047  28.4294  28.4318
    28.4861  28.5157  28.5980  28.6284  28.6683  28.6875  28.7028  28.7677
    28.7791  28.8446  28.9082  28.9515  29.0533  29.0958  29.1062  29.1070
    29.2172  29.2919  29.3319  29.3623  29.3863  29.4630  29.4634  29.4671
    29.4771  29.5137  29.6716  29.8336  29.8355  29.9894  30.0339  30.0388
    30.1896  30.2310  30.3020  30.3067  30.3314  30.5876  30.6007  30.6928
    30.7596  30.7799  30.7886  30.9252  30.9882  31.1205  31.1682  31.2981
    31.4039  31.4071  31.4233  31.5767  31.5794  31.8955  31.9381  31.9543
    32.0670  32.0746  32.1106  32.2077  32.2435  32.2739  32.4346  32.4608
    32.5427  32.5464  32.5561  32.6844  32.6861  32.7003  32.7060  32.7190
    32.7773  32.7950  33.0280  33.0818  33.1223  33.1779  33.2084  33.4359
    33.4462  33.4913  33.5001  33.5099  33.5650  33.5744  33.5983  33.7613
    33.7765  33.9014  34.0516  34.2268  34.3094  34.3819  34.5550  34.5745
    34.7410  34.7930  34.8512  34.8596  34.8682  34.9335  35.0720  35.0740
    35.1535  35.1614  35.2533  35.4683  35.4776  35.4930  35.5041  35.6614
    35.8693  36.5049  36.5890  37.0885  37.2792  37.8223  37.8891  38.0736
    38.1786  38.4736  39.4820  39.8462  40.1111  40.1987  40.5199  40.9532
    41.2063  41.9533  44.0480  44.1725  44.8294  45.0388  45.3237  45.8658
    46.5463  46.6849  46.8952  47.0502  47.2158  47.5762  47.7149  48.1285
    48.6111  48.8672  48.9782  48.9880  49.1484  49.3634  49.4549  49.4994
    50.2272  50.3798  50.4003  50.4968  50.5243  50.6582  50.6863  50.7796
    50.8993  51.1785

          k = 0.0630 0.1891 0.4411 ( 20664 PWs)   bands (ev):

   -51.1868 -51.1286 -51.0307 -50.9925 -50.9890 -50.9568 -50.9508 -50.9237
   -50.9153 -50.9087 -50.8975 -50.8923 -50.8854 -50.8795 -50.8550 -50.8528
   -50.8504 -50.8482 -50.8382 -50.8142 -50.8067 -50.7981 -50.7929 -50.7867
   -50.7760 -50.7748 -50.7716 -50.7645 -50.7561 -50.7547 -50.7504 -50.7499
   -17.7355 -17.7236 -17.6775 -17.6408 -17.6072 -17.6059 -17.5923 -17.5747
   -17.5643 -17.5127 -17.4912 -17.4824 -17.4650 -17.4131 -17.4032 -17.3782
   -17.3766 -17.3723 -17.3656 -17.3471 -17.3057 -17.2768 -17.2760 -17.2414
   -17.1965 -17.1664 -17.1586 -17.1195 -17.1191 -17.0613 -17.0186 -17.0172
   -17.0079 -16.9789 -16.9641 -16.9278 -16.9008 -16.8769 -16.8735 -16.8484
   -16.7945 -16.7385 -16.6358 -16.6304 -16.6290 -16.6174 -16.6118 -16.6049
   -16.6003 -16.5814 -16.5769 -16.5341 -16.5204 -16.5132 -16.5115 -16.5058
   -16.5007 -16.4934 -16.4835 -16.4706 -16.4353 -16.4338 -16.4283 -16.4111
   -16.4027 -16.4024 -16.3994 -16.3971 -16.3970 -16.3845 -16.3841 -16.3374
   -16.3352 -16.3239 -16.2989 -16.2886 -16.2792 -16.2781 -16.2738 -16.2632
   -16.2578 -16.2527 -16.2270 -16.2245 -16.2173 -16.2139 -16.2114 -16.1932
   -16.1789 -16.1693 -16.1459 -16.1287 -16.1163 -16.0937 -16.0440 -16.0129
    24.7999  24.9259  24.9467  24.9775  25.2874  25.4918  25.5264  25.5342
    25.5566  25.5784  25.6092  25.6168  25.6375  25.7211  25.7327  25.7643
    26.1526  26.2454  26.2772  26.3219  26.3741  26.4071  26.4339  26.5353
    26.5718  26.5787  26.6333  26.6670  26.6870  26.7499  26.7813  26.8013
    26.8642  26.8713  26.9470  27.0653  27.1882  27.2945  27.2975  27.3973
    27.4610  27.5304  27.5778  27.5855  27.6051  27.6581  27.6951  27.7449
    27.8153  27.8894  27.8994  28.0965  28.1467  28.1871  28.2147  28.2243
    28.3946  28.4787  28.5410  28.5760  28.6185  28.7210  28.8180  28.8246
    28.8942  28.9317  28.9631  28.9689  28.9862  29.0001  29.0550  29.0776
    29.2050  29.2430  29.4068  29.4205  29.4434  29.5682  29.6283  29.6516
    29.6898  29.6912  29.7094  29.7388  29.7597  29.9086  29.9991  30.1276
    30.1433  30.1855  30.2206  30.3006  30.6177  30.6545  30.6922  30.6935
    30.9145  30.9777  30.9884  31.0398  31.0876  31.1583  31.2733  31.4591
    31.4840  31.4854  31.5712  31.6891  31.8201  31.8863  31.9002  31.9221
    31.9621  31.9685  31.9693  32.0440  32.1786  32.2064  32.2167  32.2494
    32.3853  32.4229  32.4455  32.6611  32.6828  32.7669  32.7948  32.8507
    32.8818  32.9283  32.9763  33.1319  33.2168  33.2467  33.2485  33.3215
    33.5635  33.6223  33.7310  33.7899  33.8769  33.9272  33.9364  33.9584
    33.9709  33.9947  34.0289  34.1637  34.1813  34.4051  34.4280  34.4738
    34.5249  34.6436  34.6442  34.7344  34.7357  34.7397  34.7485  34.9730
    34.9836  35.1827  35.4688  35.4800  35.4820  35.4871  35.6222  35.7322
    35.7687  36.1063  36.5065  36.8380  36.9666  37.3767  37.5718  37.6520
    38.3865  38.8301  39.2312  39.9044  40.8098  41.1299  41.4834  41.9295
    42.1214  42.7953  42.9396  43.1952  43.6577  44.0098  44.2094  44.7592
    46.9805  47.1529  47.1595  47.2868  47.7200  47.8364  47.9978  48.1561
    48.3474  48.3697  48.6125  48.6919  48.8714  48.9072  49.3936  49.4015
    49.4323  49.9142  50.0579  50.4630  50.5217  50.5958  50.6291  50.7793
    50.8738  51.0586

          k = 0.0630 0.1891-0.5672 ( 20654 PWs)   bands (ev):

   -51.1603 -51.1603 -51.0132 -51.0132 -50.9743 -50.9743 -50.9384 -50.9384
   -50.9048 -50.9048 -50.9036 -50.9036 -50.8827 -50.8827 -50.8525 -50.8525
   -50.8427 -50.8427 -50.8203 -50.8203 -50.7934 -50.7934 -50.7893 -50.7893
   -50.7837 -50.7837 -50.7746 -50.7746 -50.7555 -50.7555 -50.7501 -50.7501
   -17.6711 -17.6711 -17.6553 -17.6553 -17.5998 -17.5998 -17.5569 -17.5569
   -17.5538 -17.5538 -17.5505 -17.5505 -17.4792 -17.4792 -17.3953 -17.3953
   -17.3802 -17.3802 -17.3790 -17.3790 -17.2785 -17.2785 -17.2369 -17.2369
   -17.1806 -17.1806 -17.1642 -17.1642 -17.0833 -17.0833 -17.0170 -17.0170
   -16.9611 -16.9611 -16.9332 -16.9332 -16.9321 -16.9321 -16.8570 -16.8570
   -16.8004 -16.8004 -16.6331 -16.6331 -16.6132 -16.6132 -16.5663 -16.5663
   -16.5390 -16.5390 -16.5370 -16.5369 -16.5236 -16.5236 -16.4866 -16.4866
   -16.4669 -16.4669 -16.4526 -16.4526 -16.4487 -16.4487 -16.4457 -16.4457
   -16.4441 -16.4441 -16.3915 -16.3915 -16.3802 -16.3802 -16.3464 -16.3464
   -16.3389 -16.3389 -16.3158 -16.3158 -16.3110 -16.3110 -16.2665 -16.2665
   -16.2586 -16.2586 -16.2491 -16.2491 -16.2206 -16.2206 -16.1869 -16.1869
   -16.1853 -16.1853 -16.1255 -16.1255 -16.0828 -16.0828 -16.0487 -16.0487
    25.1962  25.1962  25.2067  25.2067  25.2310  25.2310  25.2792  25.2792
    25.4815  25.4815  25.8022  25.8022  25.8450  25.8450  25.8923  25.8923
    25.9433  25.9433  26.0401  26.0401  26.0774  26.0774  26.4342  26.4342
    26.7053  26.7053  26.7637  26.7637  26.7786  26.7786  26.8281  26.8281
    26.9384  26.9384  26.9738  26.9738  27.0568  27.0568  27.1278  27.1278
    27.5312  27.5312  27.6313  27.6313  27.7393  27.7393  27.7845  27.7845
    27.8176  27.8176  27.9254  27.9254  28.0184  28.0184  28.2964  28.2964
    28.3758  28.3758  28.4298  28.4298  28.7243  28.7243  28.7769  28.7769
    28.8907  28.8907  28.9849  28.9849  29.0835  29.0835  29.3115  29.3115
    29.3167  29.3167  29.3495  29.3495  29.5211  29.5211  29.5257  29.5257
    29.6546  29.6546  29.7975  29.7975  29.9037  29.9037  29.9150  29.9150
    29.9573  29.9573  29.9919  29.9919  30.9806  30.9806  31.0092  31.0092
    31.2453  31.2453  31.2516  31.2516  31.2989  31.2989  31.3896  31.3896
    31.4256  31.4256  31.6862  31.6862  31.7102  31.7102  31.8013  31.8013
    31.9062  31.9062  31.9326  31.9326  32.0278  32.0278  32.0413  32.0413
    32.3547  32.3547  32.3804  32.3804  32.5899  32.5899  32.8028  32.8028
    33.0036  33.0036  33.1070  33.1070  33.2668  33.2668  33.5986  33.5986
    33.7050  33.7050  33.7339  33.7339  34.0628  34.0628  34.1002  34.1002
    34.2509  34.2509  34.3078  34.3078  34.3200  34.3200  34.3383  34.3384
    34.3492  34.3492  34.3547  34.3547  34.5455  34.5455  34.7080  34.7080
    35.0581  35.0581  35.4724  35.4725  35.4829  35.4830  35.7351  35.7351
    36.5074  36.5074  36.5563  36.5563  36.5895  36.5895  37.3384  37.3384
    38.8658  38.8658  39.4502  39.4502  41.8462  41.8462  42.1708  42.1708
    42.5321  42.5321  42.9632  42.9632  43.1239  43.1239  43.7276  43.7276
    47.2859  47.2859  47.7174  47.7174  47.7449  47.7449  47.9007  47.9007
    48.3012  48.3012  48.4198  48.4199  48.7306  48.7306  49.2101  49.2101
    49.7335  49.7335  49.9614  49.9614  50.5305  50.5305  50.8682  50.8683
    51.0802  51.0802

          k = 0.0630 0.3151 0.3151 ( 20643 PWs)   bands (ev):

   -51.1937 -51.0822 -51.0822 -50.9977 -50.9931 -50.9543 -50.9330 -50.9330
   -50.9044 -50.9043 -50.9013 -50.8850 -50.8850 -50.8830 -50.8495 -50.8495
   -50.8478 -50.8477 -50.8287 -50.8287 -50.8181 -50.8181 -50.7888 -50.7708
   -50.7708 -50.7694 -50.7694 -50.7645 -50.7645 -50.7549 -50.7549 -50.7503
   -17.7563 -17.7563 -17.6901 -17.6522 -17.6215 -17.6071 -17.6071 -17.5029
   -17.5028 -17.4955 -17.4955 -17.4218 -17.4217 -17.3798 -17.3798 -17.3735
   -17.3735 -17.3717 -17.3717 -17.3557 -17.3557 -17.3075 -17.3075 -17.3060
   -17.2762 -17.2761 -17.1261 -17.1128 -17.0594 -17.0594 -17.0224 -17.0223
   -17.0116 -16.9986 -16.9302 -16.9302 -16.7989 -16.7989 -16.7937 -16.7459
   -16.7459 -16.7361 -16.7361 -16.6685 -16.6685 -16.6386 -16.6386 -16.6056
   -16.6056 -16.5980 -16.5980 -16.5930 -16.5699 -16.5699 -16.5310 -16.5310
   -16.4985 -16.4985 -16.4972 -16.4972 -16.4316 -16.4316 -16.4248 -16.4248
   -16.4003 -16.3984 -16.3984 -16.3766 -16.3404 -16.3401 -16.3401 -16.3232
   -16.3231 -16.3210 -16.3181 -16.3180 -16.2681 -16.2674 -16.2674 -16.2657
   -16.2641 -16.2458 -16.2210 -16.2184 -16.2184 -16.2141 -16.2047 -16.2047
   -16.1984 -16.1691 -16.1691 -16.1175 -16.1175 -16.0927 -16.0347 -15.9881
    24.6918  24.8219  24.8906  24.8907  25.3187  25.3187  25.4193  25.5020
    25.5116  25.6822  25.6823  25.9052  25.9052  26.0417  26.0417  26.1172
    26.1172  26.1859  26.1859  26.2150  26.2150  26.4199  26.4790  26.5123
    26.5221  26.5221  26.5930  26.5930  26.6950  26.6950  26.8446  26.8447
    26.8489  26.8489  26.9504  26.9505  27.0574  27.0574  27.1595  27.2286
    27.2286  27.3963  27.5460  27.5460  27.6840  27.6841  27.6863  27.7904
    27.7904  27.8013  27.8013  27.8614  27.8614  28.0386  28.2514  28.4849
    28.4849  28.6455  28.6455  28.7150  28.7150  28.8681  28.8805  28.9325
    28.9325  28.9929  28.9930  29.0951  29.2996  29.2996  29.4070  29.4342
    29.4433  29.4433  29.5165  29.5225  29.5996  29.6149  29.6629  29.6629
    29.6733  29.6733  29.7940  29.8637  29.8638  29.9435  29.9435  29.9913
    30.0735  30.0735  30.2363  30.2363  30.4351  30.4351  30.5766  30.5766
    30.7218  30.7218  30.7901  30.9307  30.9652  30.9652  31.0520  31.0520
    31.2126  31.2857  31.3026  31.3026  31.6072  31.6072  31.7730  31.9832
    31.9832  32.0384  32.0385  32.1237  32.1340  32.3027  32.3027  32.4808
    32.5512  32.5972  32.5973  32.7733  32.7733  32.8367  32.8367  32.9970
    32.9970  33.2185  33.2185  33.2538  33.2538  33.2754  33.2930  33.2942
    33.2942  33.3837  33.3837  33.7174  33.8733  33.8734  33.8828  33.8958
    33.8958  33.9035  33.9035  34.0968  34.1427  34.1990  34.5156  34.5156
    34.7080  34.8800  34.8800  34.9240  34.9240  34.9301  35.1591  35.1591
    35.1681  35.1681  35.1986  35.2270  35.2270  35.3039  35.3571  35.6530
    35.6530  36.3451  36.3451  36.3795  37.1355  37.1355  38.6966  38.6966
    39.0753  39.0753  39.3840  39.3840  40.3943  40.3943  41.0503  41.0503
    41.6769  42.6655  43.2309  43.2309  44.6970  44.6970  45.5060  45.5060
    46.4266  46.4266  46.4557  46.4557  46.8055  46.8055  48.0227  48.0227
    48.1241  48.5440  48.5440  48.5614  48.6386  48.6784  49.3759  49.3759
    50.5978  50.6785  50.6785  50.7189  50.7189  50.7393  50.7395  50.8537
    50.8537  51.3367

          k = 0.0630 0.3151 0.4411 ( 20696 PWs)   bands (ev):

   -51.1737 -51.1171 -51.0670 -51.0241 -50.9822 -50.9517 -50.9453 -50.9272
   -50.9199 -50.9111 -50.9004 -50.8896 -50.8786 -50.8605 -50.8495 -50.8417
   -50.8384 -50.8321 -50.8234 -50.8230 -50.8102 -50.8029 -50.7914 -50.7801
   -50.7798 -50.7782 -50.7782 -50.7696 -50.7664 -50.7610 -50.7534 -50.7510
   -17.7173 -17.7121 -17.6234 -17.5869 -17.5782 -17.5777 -17.5772 -17.5740
   -17.5490 -17.4871 -17.4870 -17.4801 -17.4580 -17.4554 -17.4245 -17.4196
   -17.4193 -17.3990 -17.3886 -17.3817 -17.3443 -17.3403 -17.3106 -17.2976
   -17.2865 -17.2335 -17.1759 -17.1719 -17.1163 -17.0735 -16.9879 -16.9703
   -16.9507 -16.9172 -16.8944 -16.8584 -16.8534 -16.8496 -16.8131 -16.7960
   -16.7260 -16.7164 -16.6874 -16.6627 -16.6472 -16.6376 -16.6049 -16.6015
   -16.5787 -16.5733 -16.5681 -16.5512 -16.5437 -16.5419 -16.5134 -16.5126
   -16.4859 -16.4830 -16.4815 -16.4814 -16.4673 -16.4454 -16.4250 -16.4139
   -16.4103 -16.4032 -16.3795 -16.3747 -16.3741 -16.3633 -16.3624 -16.3578
   -16.3396 -16.3138 -16.3100 -16.3006 -16.2957 -16.2924 -16.2895 -16.2860
   -16.2849 -16.2513 -16.2414 -16.2403 -16.2339 -16.2298 -16.2244 -16.2014
   -16.1777 -16.1774 -16.1520 -16.0935 -16.0791 -16.0684 -16.0656 -16.0016
    24.9947  25.0039  25.1162  25.1341  25.4621  25.5615  25.5834  25.5852
    25.6743  25.7198  25.7779  25.7956  25.8171  25.8916  25.9185  25.9310
    25.9712  26.1384  26.2224  26.2538  26.2546  26.3520  26.3564  26.4128
    26.4185  26.4499  26.4693  26.4834  26.5161  26.5498  26.5631  26.6100
    26.8164  26.8563  26.8941  26.9034  26.9157  26.9346  26.9896  27.1066
    27.1676  27.2275  27.3217  27.4688  27.4833  27.5575  27.6622  27.7782
    27.8818  27.9078  27.9187  27.9561  28.0175  28.0838  28.1332  28.2629
    28.2862  28.5759  28.6898  28.7069  28.8330  28.9921  29.0045  29.0085
    29.0826  29.1031  29.1464  29.1551  29.2253  29.2519  29.4910  29.5498
    29.5570  29.6414  29.6654  29.6748  29.6762  29.6950  29.7000  29.7283
    29.7576  29.8623  29.8892  29.8910  29.9266  29.9339  30.0487  30.1261
    30.1809  30.2153  30.3584  30.3761  30.4618  30.5366  30.5674  30.5791
    30.6369  30.6921  30.7367  30.7425  30.7658  30.8380  31.0373  31.0929
    31.2569  31.2780  31.3450  31.4661  31.4875  31.5103  31.5623  31.6191
    31.7439  31.7902  31.8296  31.8575  31.9470  32.0235  32.4574  32.4856
    32.5917  32.6166  32.6239  32.6467  32.8499  32.9231  32.9450  32.9517
    33.0074  33.0325  33.2920  33.3033  33.3177  33.3612  33.4727  33.5228
    33.5785  33.6886  33.7454  33.8009  33.8223  33.9619  34.0182  34.1866
    34.2074  34.2077  34.2368  34.2376  34.2613  34.2786  34.3409  34.3708
    34.5779  34.7246  34.7276  34.7308  34.7507  34.7621  34.7724  34.7769
    34.8641  34.9050  35.1736  35.1765  35.2037  35.2592  35.4864  35.6162
    36.1110  36.3765  36.4494  36.5263  36.5343  36.9286  38.2602  38.4737
    39.2938  39.5279  40.0467  40.1630  40.3702  40.7409  41.3914  41.9751
    42.1651  42.3278  42.5645  43.4394  43.6077  43.9660  44.5291  45.2548
    46.2564  46.4532  46.7133  46.7994  46.8873  46.8876  47.2925  47.4310
    47.7550  47.8381  47.9253  47.9820  48.6265  49.0709  49.7735  49.8679
    49.9529  50.3786  50.4924  50.5499  50.6273  50.8565  50.8799  51.0147
    51.1366  51.2021

          k = 0.0630 0.3151-0.5672 ( 20690 PWs)   bands (ev):

   -51.1479 -51.1479 -51.0474 -51.0474 -50.9683 -50.9683 -50.9337 -50.9337
   -50.9199 -50.9199 -50.8955 -50.8955 -50.8703 -50.8703 -50.8364 -50.8364
   -50.8302 -50.8302 -50.8180 -50.8179 -50.7995 -50.7995 -50.7938 -50.7938
   -50.7894 -50.7894 -50.7688 -50.7688 -50.7681 -50.7681 -50.7521 -50.7521
   -17.6599 -17.6599 -17.6512 -17.6512 -17.5442 -17.5442 -17.5313 -17.5313
   -17.5223 -17.5223 -17.4916 -17.4916 -17.4734 -17.4734 -17.4628 -17.4628
   -17.4587 -17.4587 -17.4092 -17.4092 -17.3201 -17.3201 -17.3050 -17.3050
   -17.2438 -17.2438 -17.1628 -17.1628 -17.1539 -17.1539 -16.9186 -16.9186
   -16.9156 -16.9156 -16.8811 -16.8811 -16.8492 -16.8492 -16.8206 -16.8206
   -16.7775 -16.7775 -16.6037 -16.6037 -16.5980 -16.5980 -16.5972 -16.5972
   -16.5794 -16.5794 -16.5706 -16.5706 -16.5520 -16.5520 -16.5315 -16.5315
   -16.4797 -16.4797 -16.4602 -16.4602 -16.4320 -16.4320 -16.4289 -16.4289
   -16.3999 -16.3999 -16.3951 -16.3951 -16.3797 -16.3797 -16.3570 -16.3570
   -16.3338 -16.3338 -16.3013 -16.3013 -16.3011 -16.3011 -16.2989 -16.2989
   -16.2857 -16.2857 -16.2597 -16.2597 -16.2321 -16.2321 -16.1988 -16.1988
   -16.1882 -16.1882 -16.1051 -16.1051 -16.0796 -16.0796 -16.0290 -16.0290
    25.2536  25.2536  25.3725  25.3725  25.3996  25.3996  25.4375  25.4375
    25.6522  25.6522  25.8253  25.8253  25.9151  25.9151  25.9296  25.9296
    26.0854  26.0854  26.1896  26.1896  26.2144  26.2144  26.2273  26.2273
    26.4499  26.4499  26.4628  26.4628  26.5283  26.5283  26.6596  26.6596
    26.6601  26.6601  26.7850  26.7850  26.8971  26.8971  27.0549  27.0549
    27.1659  27.1659  27.2871  27.2871  27.5395  27.5395  27.6308  27.6308
    27.9608  27.9608  28.0601  28.0601  28.0913  28.0913  28.1953  28.1953
    28.4362  28.4362  28.5275  28.5275  28.7726  28.7726  29.0544  29.0544
    29.3093  29.3093  29.3199  29.3199  29.3217  29.3217  29.3613  29.3613
    29.4514  29.4514  29.7459  29.7459  29.7724  29.7724  29.8794  29.8794
    29.9006  29.9006  29.9081  29.9081  29.9227  29.9227  29.9598  29.9598
    30.2052  30.2052  30.2373  30.2373  30.6138  30.6138  30.6426  30.6426
    30.8093  30.8093  30.9430  30.9430  30.9557  30.9557  30.9760  30.9760
    30.9898  30.9898  31.4730  31.4730  31.5411  31.5411  31.5961  31.5961
    31.6124  31.6124  31.7199  31.7199  31.8431  31.8431  32.2626  32.2626
    32.4066  32.4066  32.7753  32.7753  32.8142  32.8142  32.8391  32.8391
    33.1755  33.1755  33.4332  33.4332  33.4588  33.4588  33.7233  33.7233
    33.7700  33.7700  33.8590  33.8590  33.9950  33.9950  34.0249  34.0249
    34.2648  34.2648  34.3133  34.3133  34.3812  34.3812  34.4855  34.4855
    34.4904  34.4904  34.5383  34.5383  34.5486  34.5486  34.5939  34.5939
    34.9097  34.9097  35.1877  35.1877  35.2034  35.2034  35.6159  35.6159
    35.8140  35.8140  36.6800  36.6800  37.4088  37.4088  37.4917  37.4917
    39.7963  39.7963  40.2309  40.2309  41.0853  41.0853  41.3642  41.3642
    42.4718  42.4718  42.9682  42.9682  43.5326  43.5326  44.3028  44.3028
    46.8553  46.8553  46.8763  46.8763  47.0077  47.0077  47.1955  47.1955
    47.3269  47.3269  47.4013  47.4013  49.2376  49.2376  49.6780  49.6780
    50.1320  50.1320  50.3847  50.3847  50.5728  50.5728  51.0368  51.0368
    51.3003  51.3003

          k = 0.0630 0.4411 0.4411 ( 20681 PWs)   bands (ev):

   -51.1545 -51.1004 -51.1004 -51.0532 -50.9723 -50.9444 -50.9443 -50.9371
   -50.9237 -50.9144 -50.9144 -50.8990 -50.8447 -50.8446 -50.8312 -50.8312
   -50.8295 -50.8295 -50.8152 -50.8152 -50.8098 -50.8098 -50.7893 -50.7893
   -50.7879 -50.7878 -50.7834 -50.7834 -50.7704 -50.7578 -50.7578 -50.7528
   -17.6809 -17.6809 -17.5656 -17.5656 -17.5619 -17.5619 -17.5552 -17.5357
   -17.5266 -17.5265 -17.5009 -17.4814 -17.4814 -17.4611 -17.4611 -17.4162
   -17.4162 -17.3926 -17.3926 -17.3925 -17.3925 -17.3873 -17.3873 -17.3224
   -17.3224 -17.3149 -17.2460 -17.1621 -17.1538 -17.0523 -17.0522 -16.9178
   -16.8809 -16.8809 -16.8153 -16.8153 -16.8122 -16.7485 -16.7485 -16.7204
   -16.7204 -16.7186 -16.7186 -16.6845 -16.6845 -16.6056 -16.6056 -16.5959
   -16.5958 -16.5679 -16.5679 -16.5530 -16.5530 -16.5513 -16.5482 -16.5481
   -16.5191 -16.5191 -16.4652 -16.4652 -16.4496 -16.4495 -16.4401 -16.4274
   -16.4274 -16.3842 -16.3841 -16.3841 -16.3595 -16.3595 -16.3592 -16.3592
   -16.3305 -16.3208 -16.3208 -16.3143 -16.3143 -16.3043 -16.2900 -16.2814
   -16.2646 -16.2563 -16.2503 -16.2441 -16.2441 -16.2310 -16.2229 -16.1903
   -16.1902 -16.1860 -16.1860 -16.0972 -16.0555 -16.0508 -16.0508 -16.0038
    25.1474  25.2753  25.3604  25.3605  25.6400  25.6400  25.7101  25.7204
    25.7204  25.7981  25.9550  25.9550  25.9852  26.0113  26.0113  26.0203
    26.0203  26.1351  26.1435  26.1435  26.1530  26.1530  26.1598  26.1598
    26.2201  26.2201  26.3063  26.3210  26.4641  26.4641  26.6038  26.6068
    26.6068  26.6965  26.6966  26.7500  26.7500  26.8386  26.8387  26.9155
    26.9155  26.9743  26.9743  27.3297  27.3297  27.6158  27.6158  27.6258
    27.6580  27.6580  28.0337  28.0337  28.1154  28.1642  28.1642  28.1843
    28.5514  28.5895  28.7296  28.7296  28.8205  29.0909  29.0909  29.0913
    29.4468  29.4945  29.4946  29.5656  29.6078  29.6078  29.6097  29.6097
    29.6500  29.6501  29.7160  29.7715  29.8484  29.8609  29.8752  29.9737
    29.9737  29.9971  29.9972  30.1315  30.1315  30.1763  30.2159  30.2159
    30.2364  30.2364  30.2391  30.2391  30.3801  30.3801  30.4639  30.4729
    30.4729  30.5162  30.7961  30.8392  30.8392  30.8705  30.9012  30.9012
    30.9712  30.9713  31.0480  31.0480  31.0565  31.0565  31.0931  31.2849
    31.5452  31.5452  31.5548  31.5548  31.8389  32.0423  32.0423  32.1363
    32.2980  32.7344  32.8198  32.8198  32.9652  32.9652  33.2245  33.2245
    33.2981  33.2981  33.4401  33.4401  33.5374  33.5374  33.5381  33.7942
    33.7942  33.9611  34.0356  34.0516  34.0516  34.0799  34.0799  34.0898
    34.0898  34.1038  34.2252  34.4387  34.4582  34.4582  34.4685  34.4686
    34.5285  34.6923  34.6923  34.7678  34.7678  34.7724  34.7724  34.8131
    34.8299  34.8299  34.8371  34.8371  34.8870  35.0250  35.0614  35.3985
    35.3985  36.0923  36.2046  36.2047  37.4462  37.4462  39.2240  39.2240
    39.4330  39.4330  40.2038  40.2038  41.1736  41.1736  41.3085  41.3085
    41.6278  41.6278  43.2424  43.2424  43.3713  44.1352  45.1748  45.1748
    45.9272  45.9272  46.3485  46.3485  46.6021  46.6021  46.7929  46.7929
    46.9571  47.1767  47.1768  47.1852  49.1655  49.5872  50.2640  50.2640
    50.5075  50.5075  50.5888  50.7713  50.7713  50.8753  50.8753  51.0789
    51.0826  51.0826

          k = 0.0630 0.4411-0.5672 ( 20704 PWs)   bands (ev):

   -51.1299 -51.1299 -51.0788 -51.0788 -50.9595 -50.9595 -50.9349 -50.9349
   -50.9267 -50.9267 -50.9073 -50.9073 -50.8385 -50.8385 -50.8217 -50.8217
   -50.8188 -50.8188 -50.8146 -50.8146 -50.8052 -50.8052 -50.8003 -50.8003
   -50.7979 -50.7979 -50.7866 -50.7866 -50.7635 -50.7635 -50.7551 -50.7551
   -17.6315 -17.6315 -17.6282 -17.6282 -17.5297 -17.5297 -17.5296 -17.5296
   -17.4971 -17.4971 -17.4810 -17.4810 -17.4766 -17.4766 -17.4640 -17.4640
   -17.4325 -17.4325 -17.4141 -17.4141 -17.3915 -17.3915 -17.3672 -17.3672
   -17.3204 -17.3204 -17.2390 -17.2390 -17.1133 -17.1133 -16.9850 -16.9850
   -16.8131 -16.8131 -16.7966 -16.7966 -16.7717 -16.7717 -16.7445 -16.7445
   -16.7071 -16.7071 -16.6529 -16.6529 -16.6439 -16.6439 -16.6432 -16.6432
   -16.6282 -16.6282 -16.5613 -16.5613 -16.5315 -16.5315 -16.5208 -16.5208
   -16.4937 -16.4937 -16.4906 -16.4906 -16.4757 -16.4757 -16.4465 -16.4465
   -16.4074 -16.4074 -16.4060 -16.4060 -16.3497 -16.3497 -16.3393 -16.3393
   -16.3393 -16.3393 -16.3277 -16.3277 -16.2839 -16.2839 -16.2747 -16.2747
   -16.2680 -16.2680 -16.2571 -16.2571 -16.2297 -16.2297 -16.2163 -16.2163
   -16.2065 -16.2065 -16.1378 -16.1378 -16.0460 -16.0460 -16.0204 -16.0204
    25.3608  25.3608  25.6255  25.6255  25.6432  25.6432  25.6662  25.6662
    25.7801  25.7801  25.9017  25.9017  25.9041  25.9041  25.9802  25.9802
    26.0568  26.0568  26.2193  26.2193  26.2450  26.2450  26.2540  26.2540
    26.2964  26.2964  26.3019  26.3019  26.4227  26.4227  26.4275  26.4275
    26.4661  26.4661  26.5096  26.5096  26.6177  26.6177  26.8636  26.8636
    26.9451  26.9451  27.2642  27.2642  27.3574  27.3574  27.4334  27.4334
    27.8104  27.8104  27.8118  27.8118  28.1645  28.1645  28.4084  28.4084
    28.5505  28.5505  28.7902  28.7902  28.9901  28.9901  29.0950  29.0950
    29.3881  29.3881  29.4954  29.4954  29.7558  29.7558  29.8240  29.8240
    29.8952  29.8952  29.9240  29.9240  29.9388  29.9388  29.9624  29.9624
    29.9925  29.9925  30.0418  30.0418  30.3012  30.3012  30.3124  30.3124
    30.3248  30.3248  30.3378  30.3378  30.4199  30.4199  30.4233  30.4233
    30.5453  30.5454  30.5523  30.5523  30.5933  30.5934  30.5948  30.5948
    30.6862  30.6862  31.1872  31.1872  31.2238  31.2238  31.2607  31.2607
    31.4277  31.4278  31.5251  31.5251  31.5570  31.5570  31.6692  31.6692
    32.5765  32.5765  32.9370  32.9370  33.1921  33.1921  33.1954  33.1954
    33.2643  33.2643  33.5723  33.5723  33.7284  33.7284  33.7951  33.7951
    33.8434  33.8434  33.9007  33.9007  34.1183  34.1183  34.2945  34.2945
    34.3077  34.3077  34.4509  34.4509  34.5007  34.5007  34.5536  34.5536
    34.6084  34.6084  34.6150  34.6150  34.6585  34.6585  34.6680  34.6680
    34.7013  34.7013  34.7941  34.7941  34.9200  34.9200  35.1414  35.1414
    35.4908  35.4908  36.0524  36.0524  38.3519  38.3519  38.4315  38.4315
    40.2521  40.2521  40.3891  40.3891  40.7758  40.7758  41.0196  41.0196
    42.2319  42.2319  42.5121  42.5121  44.2702  44.2702  44.9007  44.9007
    46.1115  46.1115  46.4208  46.4208  46.4921  46.4921  46.5326  46.5326
    46.6707  46.6707  46.7343  46.7343  49.7926  49.7926  50.1885  50.1885
    50.6620  50.6620  50.6726  50.6726  50.8041  50.8041  50.9288  50.9288
    51.1222  51.1223

          k = 0.0630-0.5672-0.5672 ( 20692 PWs)   bands (ev):

   -51.1066 -51.1066 -51.1066 -51.1066 -50.9483 -50.9483 -50.9483 -50.9483
   -50.9179 -50.9179 -50.9179 -50.9178 -50.8103 -50.8103 -50.8103 -50.8103
   -50.8103 -50.8103 -50.8103 -50.8103 -50.8088 -50.8088 -50.8087 -50.8087
   -50.8087 -50.8087 -50.8087 -50.8087 -50.7589 -50.7589 -50.7589 -50.7589
   -17.5871 -17.5871 -17.5871 -17.5871 -17.5871 -17.5871 -17.5871 -17.5871
   -17.4506 -17.4506 -17.4506 -17.4506 -17.4506 -17.4506 -17.4505 -17.4505
   -17.4285 -17.4285 -17.4284 -17.4284 -17.4003 -17.4003 -17.4003 -17.4003
   -17.3281 -17.3281 -17.3281 -17.3281 -17.0515 -17.0515 -17.0515 -17.0515
   -16.7159 -16.7159 -16.7159 -16.7159 -16.7159 -16.7159 -16.7158 -16.7158
   -16.7025 -16.7025 -16.7025 -16.7025 -16.7025 -16.7025 -16.7025 -16.7025
   -16.5960 -16.5960 -16.5960 -16.5960 -16.5079 -16.5079 -16.5079 -16.5079
   -16.5079 -16.5079 -16.5079 -16.5079 -16.4996 -16.4996 -16.4996 -16.4996
   -16.3757 -16.3757 -16.3757 -16.3757 -16.3757 -16.3757 -16.3757 -16.3757
   -16.3127 -16.3127 -16.3127 -16.3127 -16.2848 -16.2848 -16.2848 -16.2848
   -16.2434 -16.2434 -16.2433 -16.2433 -16.2358 -16.2358 -16.2358 -16.2358
   -16.1797 -16.1797 -16.1796 -16.1796 -16.0261 -16.0261 -16.0261 -16.0261
    25.5363  25.5363  25.5363  25.5363  25.9407  25.9407  25.9407  25.9407
    25.9502  25.9502  25.9502  25.9502  25.9502  25.9502  25.9503  25.9503
    26.0326  26.0326  26.0327  26.0327  26.0893  26.0893  26.0893  26.0893
    26.2298  26.2298  26.2298  26.2298  26.2298  26.2298  26.2299  26.2299
    26.6631  26.6631  26.6631  26.6631  26.6631  26.6631  26.6631  26.6631
    26.8773  26.8773  26.8773  26.8773  27.5696  27.5696  27.5696  27.5696
    27.5696  27.5696  27.5697  27.5697  28.3195  28.3195  28.3195  28.3195
    28.7437  28.7437  28.7437  28.7437  29.1144  29.1144  29.1144  29.1144
    29.8061  29.8061  29.8061  29.8061  29.8259  29.8259  29.8259  29.8259
    29.9577  29.9577  29.9577  29.9577  30.0917  30.0917  30.0917  30.0917
    30.0968  30.0968  30.0968  30.0968  30.1832  30.1832  30.1832  30.1832
    30.1832  30.1832  30.1833  30.1833  30.3120  30.3120  30.3120  30.3120
    30.7461  30.7461  30.7461  30.7461  30.7461  30.7461  30.7462  30.7462
    30.8948  30.8948  30.8948  30.8948  30.8948  30.8948  30.8948  30.8948
    31.0869  31.0869  31.0869  31.0869  31.5363  31.5363  31.5363  31.5363
    32.9014  32.9014  32.9014  32.9014  33.2000  33.2000  33.2000  33.2000
    33.5675  33.5675  33.5675  33.5675  33.5675  33.5675  33.5675  33.5675
    34.3236  34.3236  34.3236  34.3236  34.3498  34.3498  34.3498  34.3498
    34.3498  34.3498  34.3499  34.3499  34.5585  34.5585  34.5585  34.5585
    34.6472  34.6472  34.6472  34.6472  34.6790  34.6790  34.6790  34.6790
    34.6804  34.6804  34.6804  34.6804  34.6804  34.6804  34.6805  34.6805
    35.5702  35.5702  35.5702  35.5702  39.3606  39.3606  39.3606  39.3606
    39.3606  39.3606  39.3606  39.3606  41.7287  41.7287  41.7287  41.7287
    41.7287  41.7287  41.7287  41.7287  45.0558  45.0558  45.0558  45.0558
    45.7521  45.7521  45.7521  45.7521  46.4257  46.4257  46.4257  46.4257
    46.4257  46.4257  46.4258  46.4258  50.4194  50.4194  50.4194  50.4194
    50.7742  50.7742  50.7742  50.7742  50.7996  50.7996  50.7997  50.7997
    51.2651  51.2651

          k = 0.1891 0.1891 0.1891 ( 20665 PWs)   bands (ev):

   -51.2145 -51.0489 -51.0489 -51.0489 -50.9415 -50.9415 -50.9415 -50.9263
   -50.9263 -50.9263 -50.8947 -50.8630 -50.8630 -50.8630 -50.8630 -50.8630
   -50.8629 -50.8614 -50.8614 -50.8614 -50.8173 -50.8173 -50.8172 -50.7570
   -50.7569 -50.7569 -50.7558 -50.7558 -50.7558 -50.7558 -50.7558 -50.7558
   -17.7894 -17.7894 -17.7894 -17.7228 -17.6603 -17.6603 -17.6603 -17.4194
   -17.4194 -17.4193 -17.3843 -17.3843 -17.3843 -17.3843 -17.3842 -17.3842
   -17.3425 -17.3425 -17.3425 -17.3425 -17.3425 -17.3425 -17.2255 -17.2255
   -17.2255 -17.1481 -17.1481 -17.1481 -17.0569 -17.0569 -17.0569 -17.0569
   -17.0569 -17.0569 -16.9052 -16.9051 -16.9051 -16.7447 -16.7447 -16.7447
   -16.6990 -16.6990 -16.6990 -16.6990 -16.6990 -16.6990 -16.6862 -16.6862
   -16.6862 -16.6127 -16.6127 -16.6127 -16.6085 -16.6084 -16.6084 -16.6084
   -16.6084 -16.6084 -16.4924 -16.4924 -16.4924 -16.4091 -16.4091 -16.4091
   -16.3883 -16.3883 -16.3883 -16.3092 -16.3092 -16.3092 -16.2970 -16.2970
   -16.2970 -16.2662 -16.2662 -16.2662 -16.2662 -16.2662 -16.2661 -16.2456
   -16.2455 -16.2455 -16.2213 -16.2213 -16.2213 -16.2100 -16.2100 -16.2100
   -16.2002 -16.2002 -16.1404 -16.1404 -16.1404 -16.1036 -15.9883 -15.9883
    24.3697  24.6389  24.6390  24.6390  25.1429  25.1429  25.1429  25.2290
    25.3935  25.3935  25.3935  26.1965  26.1965  26.1965  26.2599  26.2599
    26.2599  26.2599  26.2599  26.2599  26.4373  26.4373  26.4373  26.4955
    26.4955  26.4955  26.9160  26.9160  26.9160  26.9723  26.9723  26.9723
    27.2101  27.2101  27.2101  27.2101  27.2101  27.2101  27.4068  27.4068
    27.4068  27.4069  27.4069  27.4069  27.4573  27.4573  27.4573  28.1118
    28.1118  28.1118  28.1118  28.1119  28.1119  28.1966  28.1966  28.1966
    28.6420  28.6420  28.6420  28.7859  28.7859  28.7859  28.9369  28.9369
    28.9369  28.9369  28.9370  28.9370  29.0639  29.1962  29.1962  29.3867
    29.3867  29.3867  29.4074  29.4074  29.4074  29.4074  29.4074  29.4074
    29.4095  29.4095  29.4388  29.4389  29.4389  29.5047  29.5047  29.5047
    30.2139  30.2139  30.2139  30.5084  30.5084  30.5084  30.8765  30.8765
    30.8765  31.1306  31.1306  31.1306  31.1659  31.1659  31.1659  31.2828
    31.2828  31.2828  31.2828  31.2829  31.2829  31.9646  31.9646  31.9646
    31.9793  31.9793  31.9793  32.1817  32.1817  32.1817  32.3418  32.3418
    32.3418  32.3418  32.3418  32.3418  32.4108  32.4108  32.7913  32.7913
    32.7913  33.0854  33.0854  33.0854  33.0854  33.0854  33.0855  33.4131
    33.4131  33.4131  33.4255  33.4255  33.4255  34.0555  34.0677  34.0677
    34.0677  34.2288  34.2288  34.2288  34.3155  34.3155  34.3155  34.5133
    34.5133  34.5133  34.6079  34.6079  35.0224  35.0224  35.0224  35.3342
    35.3342  35.3342  35.3343  35.3343  35.3343  35.4889  35.4890  35.4890
    36.5050  36.5050  36.5050  37.3695  37.3695  37.3696  38.8898  38.8898
    38.8898  38.8898  38.8898  38.8898  39.7031  39.7031  39.7031  41.1064
    41.1064  41.1064  45.2486  45.2486  45.2486  45.2486  45.2486  45.2486
    47.0764  47.0764  47.0764  47.3357  47.3357  47.3357  47.3357  47.3357
    47.3357  48.1135  49.0027  49.0027  49.0027  50.1486  50.1486  50.1487
    50.5541  50.5541  50.5541  50.5542  50.5542  50.5542  51.1408  51.1408
    51.1409  51.1409

          k = 0.1891 0.1891 0.3151 ( 20676 PWs)   bands (ev):

   -51.2006 -51.0874 -51.0398 -51.0398 -50.9664 -50.9664 -50.9375 -50.9209
   -50.9209 -50.9054 -50.8873 -50.8776 -50.8775 -50.8628 -50.8628 -50.8616
   -50.8616 -50.8510 -50.8381 -50.8381 -50.8209 -50.8029 -50.8029 -50.7713
   -50.7649 -50.7648 -50.7610 -50.7609 -50.7568 -50.7568 -50.7560 -50.7560
   -17.7697 -17.7505 -17.7505 -17.6621 -17.6330 -17.6330 -17.6187 -17.5089
   -17.4597 -17.4597 -17.4136 -17.4136 -17.4101 -17.4101 -17.4089 -17.4089
   -17.3718 -17.3718 -17.3523 -17.3523 -17.3453 -17.3453 -17.3071 -17.2705
   -17.1809 -17.1809 -17.1495 -17.1495 -17.0715 -17.0715 -17.0104 -17.0104
   -16.9820 -16.9820 -16.9659 -16.9658 -16.8104 -16.8104 -16.7947 -16.7672
   -16.7672 -16.7277 -16.7277 -16.6626 -16.6314 -16.6314 -16.6219 -16.6218
   -16.6103 -16.6061 -16.6061 -16.6046 -16.6046 -16.5940 -16.5708 -16.5708
   -16.5600 -16.5600 -16.4731 -16.4407 -16.4291 -16.4291 -16.4283 -16.4283
   -16.4274 -16.3705 -16.3703 -16.3703 -16.3458 -16.3458 -16.3287 -16.3286
   -16.3269 -16.3269 -16.3037 -16.2739 -16.2739 -16.2655 -16.2655 -16.2601
   -16.2553 -16.2553 -16.2401 -16.2401 -16.2117 -16.1861 -16.1834 -16.1834
   -16.1722 -16.1677 -16.1488 -16.1454 -16.1237 -16.1237 -16.0081 -15.9946
    24.5839  24.7846  24.7846  24.7919  25.2429  25.3271  25.3414  25.3414
    25.5352  25.5352  25.5886  25.9001  25.9540  25.9540  26.1173  26.1609
    26.2509  26.2509  26.3098  26.3098  26.4150  26.4151  26.4987  26.4994
    26.4994  26.7341  26.7394  26.7394  26.7453  26.7453  26.7622  26.7622
    26.8818  26.8818  26.8899  26.8899  27.0118  27.0118  27.2517  27.2517
    27.4223  27.4223  27.5018  27.5018  27.6299  27.6299  27.7699  27.7699
    27.8015  28.0348  28.1574  28.1574  28.1579  28.1579  28.1944  28.1944
    28.5796  28.6027  28.6027  28.6868  28.6868  28.7712  28.7712  28.8791
    28.8791  28.9422  28.9657  29.2351  29.2638  29.2733  29.2733  29.4196
    29.4196  29.4281  29.4281  29.4862  29.4862  29.5021  29.5224  29.5224
    29.5226  29.5414  29.5414  29.5760  29.8901  29.9525  29.9525  30.0432
    30.1577  30.1743  30.1743  30.1924  30.5097  30.5395  30.5395  30.6516
    30.6516  30.7923  30.7923  30.8005  30.9021  30.9021  31.3599  31.3599
    31.4936  31.4937  31.6277  31.6277  31.6322  31.7592  31.8692  31.8692
    32.0188  32.0188  32.2278  32.2278  32.2336  32.2416  32.2417  32.2457
    32.2457  32.2474  32.3453  32.3453  32.4433  32.4933  32.6534  32.7069
    32.7069  33.1830  33.1910  33.1911  33.2252  33.5412  33.5412  33.5576
    33.5576  33.5630  33.5630  33.5819  33.5819  33.7047  33.7047  33.7639
    33.9851  34.0343  34.0343  34.2747  34.2840  34.2924  34.2924  34.4975
    34.8941  34.8941  34.9388  34.9449  34.9801  34.9801  34.9922  35.0807
    35.0807  35.0862  35.0862  35.3415  35.3416  35.3657  35.4498  35.4498
    35.7869  35.7869  36.3377  37.6275  37.6275  38.1223  38.1223  38.3675
    38.7574  38.7574  38.9712  39.8037  39.8037  40.5180  40.5181  40.9289
    41.8866  41.8866  44.1650  44.1650  44.3847  44.3847  45.3556  45.3556
    46.4287  46.4287  46.8396  47.2948  47.2948  47.7173  47.7173  47.7865
    47.7865  48.0571  48.4071  48.4071  48.5310  49.6143  49.6143  49.6804
    49.6805  50.0033  50.0033  50.6464  51.0698  51.0698  51.2577  51.2578
    51.3207  51.3207

          k = 0.1891 0.1891 0.4411 ( 20680 PWs)   bands (ev):

   -51.1803 -51.1229 -51.0266 -51.0266 -50.9893 -50.9893 -50.9317 -50.9153
   -50.9131 -50.9131 -50.8910 -50.8910 -50.8625 -50.8625 -50.8619 -50.8618
   -50.8512 -50.8415 -50.8263 -50.8153 -50.8152 -50.7923 -50.7898 -50.7898
   -50.7781 -50.7780 -50.7685 -50.7685 -50.7566 -50.7566 -50.7562 -50.7561
   -17.7298 -17.6945 -17.6945 -17.5957 -17.5934 -17.5934 -17.5857 -17.5573
   -17.5435 -17.5435 -17.4816 -17.4816 -17.4188 -17.4188 -17.4017 -17.3977
   -17.3977 -17.3932 -17.3932 -17.3812 -17.3555 -17.3554 -17.3126 -17.3126
   -17.2227 -17.2227 -17.0728 -17.0728 -17.0659 -17.0659 -17.0170 -17.0170
   -16.9557 -16.9557 -16.9082 -16.9082 -16.8912 -16.8912 -16.8333 -16.8333
   -16.7792 -16.7792 -16.6779 -16.6284 -16.6034 -16.6033 -16.6013 -16.6013
   -16.5685 -16.5684 -16.5664 -16.5361 -16.5360 -16.5322 -16.5189 -16.5189
   -16.5031 -16.5031 -16.4886 -16.4824 -16.4652 -16.4652 -16.4606 -16.3921
   -16.3921 -16.3921 -16.3920 -16.3826 -16.3826 -16.3693 -16.3693 -16.3571
   -16.3429 -16.3429 -16.2957 -16.2908 -16.2908 -16.2737 -16.2737 -16.2736
   -16.2645 -16.2645 -16.2603 -16.2602 -16.2602 -16.2438 -16.1735 -16.1537
   -16.1537 -16.1528 -16.1209 -16.1209 -16.1184 -16.0944 -16.0372 -16.0152
    24.8919  25.0010  25.0010  25.0120  25.3931  25.5043  25.5906  25.6091
    25.6091  25.6275  25.6275  25.7014  25.7459  25.7459  25.8415  25.8515
    26.0926  26.3636  26.3636  26.3721  26.3721  26.3810  26.3810  26.4146
    26.4146  26.4524  26.5843  26.5843  26.5920  26.5920  26.6389  26.6389
    26.7730  26.7730  26.7843  26.7843  27.0647  27.0647  27.1740  27.1741
    27.4392  27.4392  27.5196  27.5196  27.6448  27.6448  27.8420  27.8420
    27.8715  27.8715  28.0136  28.0136  28.0515  28.1409  28.3039  28.3039
    28.3692  28.4257  28.4258  28.5638  28.5638  28.7313  28.8999  28.8999
    29.0657  29.0658  29.1050  29.1210  29.1210  29.2281  29.3967  29.4127
    29.4127  29.4496  29.4496  29.4734  29.4734  29.6735  29.6911  29.7021
    29.7021  29.7537  29.7538  29.8217  29.8484  30.0219  30.0220  30.0830
    30.0830  30.0940  30.1872  30.4495  30.5937  30.5971  30.6170  30.6170
    30.6609  30.6609  30.7323  30.7323  30.9973  30.9973  31.5744  31.6214
    31.6214  31.6270  31.6270  31.6716  31.6716  31.6991  31.9142  31.9142
    31.9320  31.9320  31.9520  31.9520  31.9963  32.0920  32.0920  32.2587
    32.2587  32.2956  32.2956  32.3004  32.3802  32.6149  32.7315  32.7315
    32.9355  32.9638  33.1206  33.1471  33.1471  33.3795  33.3796  33.5292
    33.8404  33.8404  33.8713  33.9265  33.9265  33.9598  33.9763  33.9763
    33.9860  33.9860  34.0259  34.0259  34.0432  34.0432  34.1349  34.7508
    34.7536  34.7569  34.7569  34.7592  34.7592  34.7788  34.7788  35.1030
    35.1030  35.1958  35.3545  35.3545  35.3778  35.4077  35.4078  35.7006
    35.7006  35.9904  36.0896  37.3298  37.3298  37.9541  37.9542  38.0440
    38.5528  38.5528  39.2785  40.5879  40.7979  40.7979  41.4631  41.4631
    42.7339  42.7339  43.0081  43.0081  43.4399  43.4399  44.6444  44.6444
    46.5486  46.5486  46.7534  47.3337  47.6576  47.6576  47.7661  47.7661
    48.2104  48.2105  48.2213  48.2213  48.8667  48.8668  49.0292  49.1084
    49.1084  49.4075  49.4075  50.3254  51.3618  51.3618  51.3998  51.3999
    51.5723  51.5730

          k = 0.1891 0.1891-0.5672 ( 20678 PWs)   bands (ev):

   -51.1541 -51.1541 -51.0096 -51.0096 -51.0096 -51.0095 -50.9242 -50.9242
   -50.9030 -50.9030 -50.9030 -50.9030 -50.8622 -50.8622 -50.8622 -50.8622
   -50.8332 -50.8332 -50.8192 -50.8192 -50.7950 -50.7950 -50.7950 -50.7950
   -50.7782 -50.7782 -50.7782 -50.7781 -50.7564 -50.7564 -50.7564 -50.7564
   -17.6708 -17.6708 -17.6241 -17.6241 -17.6241 -17.6241 -17.5423 -17.5423
   -17.5423 -17.5423 -17.4971 -17.4971 -17.4775 -17.4775 -17.4145 -17.4145
   -17.4144 -17.4144 -17.3732 -17.3731 -17.3731 -17.3731 -17.2682 -17.2682
   -17.2682 -17.2682 -17.0542 -17.0542 -17.0542 -17.0541 -16.9783 -16.9783
   -16.9783 -16.9783 -16.8963 -16.8963 -16.8962 -16.8962 -16.8398 -16.8398
   -16.8398 -16.8398 -16.6012 -16.6012 -16.6012 -16.6012 -16.5844 -16.5844
   -16.5646 -16.5646 -16.5309 -16.5309 -16.5124 -16.5124 -16.5124 -16.5124
   -16.4578 -16.4578 -16.4578 -16.4578 -16.4538 -16.4538 -16.4538 -16.4538
   -16.4455 -16.4455 -16.4455 -16.4455 -16.3647 -16.3647 -16.3173 -16.3173
   -16.3173 -16.3173 -16.3149 -16.3148 -16.3148 -16.3148 -16.2935 -16.2935
   -16.2856 -16.2856 -16.2629 -16.2629 -16.2629 -16.2629 -16.1622 -16.1622
   -16.1316 -16.1316 -16.1316 -16.1316 -16.0743 -16.0743 -16.0492 -16.0492
    25.2750  25.2750  25.2811  25.2811  25.2811  25.2811  25.2857  25.2857
    25.5948  25.5948  25.7600  25.7600  25.9896  25.9896  25.9896  25.9896
    26.0232  26.0232  26.0232  26.0232  26.1382  26.1382  26.4739  26.4739
    26.4739  26.4739  26.5511  26.5511  26.5511  26.5511  26.6826  26.6826
    26.6826  26.6826  26.9141  26.9141  26.9141  26.9141  27.4400  27.4400
    27.4400  27.4400  27.4570  27.4570  27.4570  27.4570  27.8251  27.8251
    27.8251  27.8251  28.1543  28.1543  28.1543  28.1543  28.1813  28.1813
    28.4314  28.4314  28.4314  28.4314  28.4571  28.4571  28.9868  28.9868
    28.9868  28.9868  29.1836  29.1836  29.4648  29.4648  29.4648  29.4648
    29.5120  29.5120  29.5120  29.5120  29.5399  29.5399  29.5399  29.5400
    29.5928  29.5928  29.8908  29.8908  29.9133  29.9133  29.9939  29.9939
    29.9939  29.9939  30.1167  30.1167  30.6781  30.6781  30.6781  30.6781
    31.0078  31.0078  31.0078  31.0078  31.1472  31.1472  31.4164  31.4164
    31.7453  31.7453  31.8072  31.8072  31.8072  31.8073  31.8573  31.8573
    31.8573  31.8573  31.8811  31.8811  31.8811  31.8811  32.1232  32.1232
    32.1232  32.1233  32.1606  32.1606  32.1606  32.1606  32.7729  32.7729
    32.9825  32.9825  33.4182  33.4182  33.5637  33.5637  33.5919  33.5919
    33.5919  33.5919  33.6104  33.6104  33.6104  33.6105  34.3837  34.3837
    34.3837  34.3837  34.4016  34.4016  34.4017  34.4017  34.4463  34.4463
    34.4463  34.4463  34.4689  34.4689  34.4689  34.4689  34.4748  34.4748
    34.9890  34.9890  35.3757  35.3757  35.3757  35.3757  35.7663  35.7663
    36.5185  36.5185  36.5185  36.5185  37.0253  37.0253  38.2784  38.2784
    38.2784  38.2784  40.0365  40.0365  41.8718  41.8718  41.8718  41.8718
    42.4534  42.4534  42.4534  42.4534  43.6628  43.6628  43.6628  43.6628
    46.8984  46.8984  47.1181  47.1181  47.1181  47.1181  48.1825  48.1825
    48.1825  48.1825  48.6428  48.6428  48.6428  48.6428  48.8004  48.8004
    48.8004  48.8004  49.6293  49.6293  51.4299  51.4299  51.4300  51.4305
    51.5490  51.5490

          k = 0.1891 0.3151 0.3151 ( 20667 PWs)   bands (ev):

   -51.1871 -51.0772 -51.0772 -51.0312 -50.9944 -50.9612 -50.9612 -50.9194
   -50.9160 -50.8831 -50.8831 -50.8761 -50.8761 -50.8651 -50.8494 -50.8494
   -50.8479 -50.8479 -50.8392 -50.8391 -50.8078 -50.8078 -50.7919 -50.7707
   -50.7707 -50.7695 -50.7695 -50.7662 -50.7662 -50.7599 -50.7599 -50.7571
   -17.7389 -17.7389 -17.7078 -17.6070 -17.5970 -17.5970 -17.5957 -17.5013
   -17.5013 -17.4791 -17.4791 -17.4252 -17.4252 -17.4211 -17.4211 -17.4024
   -17.4024 -17.3989 -17.3962 -17.3962 -17.3932 -17.3932 -17.2905 -17.2905
   -17.2303 -17.2303 -17.2196 -17.0608 -17.0187 -17.0187 -17.0171 -16.9963
   -16.9963 -16.9410 -16.9410 -16.8793 -16.8486 -16.8486 -16.7773 -16.7013
   -16.7012 -16.6995 -16.6994 -16.6921 -16.6921 -16.6832 -16.6832 -16.5855
   -16.5855 -16.5841 -16.5734 -16.5734 -16.5668 -16.5667 -16.5576 -16.5575
   -16.5316 -16.5316 -16.4948 -16.4948 -16.4267 -16.4267 -16.4193 -16.4064
   -16.4064 -16.3728 -16.3723 -16.3701 -16.3701 -16.3659 -16.3388 -16.3387
   -16.3384 -16.3384 -16.3369 -16.3227 -16.3226 -16.2775 -16.2775 -16.2753
   -16.2753 -16.2704 -16.2459 -16.2159 -16.1966 -16.1936 -16.1842 -16.1841
   -16.1832 -16.1306 -16.1306 -16.1256 -16.1255 -16.0970 -16.0229 -15.9975
    24.7840  24.8948  24.9338  24.9339  25.3994  25.4421  25.4421  25.5632
    25.6394  25.7279  25.7279  25.9726  25.9726  25.9776  25.9776  26.1036
    26.1036  26.2086  26.2086  26.2267  26.3983  26.3983  26.4406  26.4419
    26.4419  26.4476  26.4476  26.4830  26.6387  26.6387  26.6557  26.6557
    26.7608  26.8544  26.8544  26.9357  26.9357  26.9498  26.9498  27.0461
    27.0815  27.0815  27.4728  27.4728  27.7437  27.7437  27.8594  27.8594
    27.9218  27.9240  27.9240  27.9591  27.9591  28.1075  28.2715  28.2716
    28.4489  28.4489  28.5514  28.6342  28.8779  28.9292  28.9292  29.0766
    29.0766  29.2599  29.2599  29.2637  29.3614  29.3751  29.3752  29.4099
    29.4099  29.5590  29.6087  29.6341  29.6405  29.6567  29.6567  29.6873
    29.7548  29.7548  29.8039  29.9346  29.9346  29.9538  29.9538  30.0164
    30.0164  30.1384  30.1384  30.2078  30.2078  30.3735  30.4179  30.4554
    30.4554  30.6118  31.0333  31.0333  31.0492  31.0492  31.1728  31.1728
    31.2208  31.2208  31.5581  31.6616  31.6715  31.7461  31.7856  31.7856
    31.8385  31.8385  31.8714  31.8714  32.1711  32.1711  32.1948  32.3678
    32.3678  32.4680  32.4762  32.4762  32.5658  32.5658  32.6011  32.7115
    32.7115  32.7209  33.1331  33.2399  33.2400  33.2620  33.2620  33.5642
    33.6549  33.6549  33.7239  33.7239  33.9195  33.9582  33.9582  33.9765
    34.0203  34.0204  34.0888  34.0888  34.3976  34.4035  34.4541  34.4541
    34.5003  34.9492  34.9492  34.9763  34.9763  35.0340  35.0510  35.1025
    35.1025  35.1100  35.1100  35.1179  35.3486  35.3486  35.3717  35.6245
    35.6245  35.7266  35.7266  37.5279  38.0130  38.0130  38.6945  38.6945
    39.0462  39.0462  39.7103  39.7103  39.7552  39.7552  41.2072  41.6967
    41.6967  42.5917  43.3847  43.3848  44.2768  44.2768  44.7230  44.7230
    46.7029  46.7029  46.7250  46.7251  46.9135  46.9135  47.4890  47.4891
    47.6384  47.7737  48.1702  48.1702  48.8860  48.9562  49.0657  49.0657
[...]
    37.9016  37.9016  37.9016  37.9016  39.7214  39.7214  39.7214  39.7214
    39.7214  39.7214  39.7214  39.7214  41.2890  41.2890  41.2890  41.2890
    41.2890  41.2890  41.2890  41.2890  43.0694  43.0694  43.0694  43.0694
    46.5787  46.5787  46.5787  46.5787  46.8323  46.8323  46.8323  46.8323
    46.8323  46.8323  46.8323  46.8323  49.2683  49.2683  49.2683  49.2683
    49.3802  49.3802  49.3802  49.3802  49.3802  49.3802  49.3802  49.3802
    51.2873  52.2136

          k = 0.4411 0.4411 0.4411 ( 20681 PWs)   bands (ev):

   -51.1192 -51.0700 -51.0700 -51.0700 -51.0279 -51.0279 -51.0279 -50.9929
   -50.8387 -50.8387 -50.8387 -50.8307 -50.8307 -50.8306 -50.8306 -50.8306
   -50.8306 -50.8301 -50.8301 -50.8301 -50.7954 -50.7954 -50.7953 -50.7888
   -50.7888 -50.7888 -50.7884 -50.7884 -50.7883 -50.7883 -50.7883 -50.7883
   -17.6026 -17.6026 -17.6026 -17.5339 -17.5339 -17.5339 -17.5115 -17.5115
   -17.5115 -17.5056 -17.5056 -17.5056 -17.5056 -17.5056 -17.5056 -17.4958
   -17.4958 -17.4958 -17.4958 -17.4958 -17.4958 -17.4468 -17.4468 -17.4467
   -17.2489 -17.0418 -17.0418 -17.0418 -16.8353 -16.8353 -16.8353 -16.8353
   -16.8352 -16.8352 -16.8309 -16.8308 -16.8308 -16.8202 -16.8202 -16.8202
   -16.7745 -16.7745 -16.7745 -16.6369 -16.6369 -16.6369 -16.6369 -16.6368
   -16.6368 -16.6109 -16.6042 -16.6042 -16.6042 -16.5812 -16.5812 -16.5812
   -16.5035 -16.5035 -16.5035 -16.4701 -16.4700 -16.4700 -16.4700 -16.4700
   -16.4700 -16.4369 -16.4369 -16.4369 -16.4059 -16.4059 -16.4059 -16.3986
   -16.3986 -16.3986 -16.3986 -16.3986 -16.3986 -16.3585 -16.3585 -16.3585
   -16.1741 -16.1741 -16.1741 -16.1373 -16.1373 -16.1219 -16.1219 -16.1219
   -16.0898 -16.0897 -16.0897 -16.0844 -16.0844 -16.0843 -16.0535 -16.0535
    25.5013  25.5013  25.5013  25.5739  25.6989  25.8918  25.8918  25.8918
    25.9337  25.9337  25.9337  25.9337  25.9337  25.9337  25.9374  25.9374
    25.9374  25.9660  25.9660  25.9660  26.1043  26.1043  26.1043  26.1303
    26.1303  26.1303  26.1779  26.1779  26.1779  26.1779  26.1779  26.1779
    26.4555  26.4555  26.4555  26.9863  26.9863  26.9863  27.1557  27.1557
    27.1557  27.1557  27.1557  27.1557  27.6079  27.6079  27.6079  27.6079
    27.6080  27.6080  27.6714  27.6714  27.6714  27.9675  27.9675  27.9675
    28.8965  28.9411  28.9411  28.9411  29.4748  29.4748  29.4748  29.6037
    29.6037  29.8012  29.8012  29.8327  29.8327  29.8327  29.8452  29.8452
    29.8452  29.9014  29.9014  29.9014  29.9146  29.9146  29.9146  29.9147
    29.9147  29.9147  29.9536  29.9536  29.9536  30.2164  30.2164  30.2164
    30.3522  30.3522  30.3522  30.3522  30.3522  30.3522  30.3624  30.3624
    30.3624  30.6037  30.6037  30.6037  30.6732  30.6732  30.6732  30.8869
    31.3938  31.3938  31.3938  31.4170  31.4170  31.4171  31.4357  31.4357
    31.4357  31.4357  31.4357  31.4357  31.8586  31.8586  31.8586  32.1425
    32.1425  32.1425  32.1425  32.1425  32.1425  32.2998  32.2998  32.2998
    32.3701  32.3701  32.4142  32.4142  32.4142  32.6579  32.6579  32.6579
    33.0156  33.0156  33.0156  33.3285  33.3285  33.6294  33.6294  33.6294
    34.8579  34.8579  34.8579  34.9564  34.9564  34.9564  34.9564  34.9564
    34.9564  35.0325  35.0325  35.0325  35.0325  35.0325  35.0325  35.1231
    35.1231  35.1231  35.1520  35.1521  35.1521  35.2744  35.2744  35.2744
    38.2444  38.2444  38.2444  39.4381  39.4381  39.4381  39.4381  39.4381
    39.4381  39.7875  39.7875  39.7875  40.6853  40.6853  40.6853  41.9715
    41.9715  41.9715  41.9715  41.9715  41.9715  42.3291  42.3291  42.3291
    46.3187  46.3187  46.3187  47.2748  47.2748  47.2748  47.2748  47.2748
    47.2748  47.3685  47.3685  47.3685  48.5169  48.5169  48.5169  48.6462
    48.6462  48.6462  48.6462  48.6462  48.6462  50.0119  50.0119  50.0119
    50.6488  51.7454

          k = 0.4411 0.4411-0.5672 ( 20668 PWs)   bands (ev):

   -51.0968 -51.0968 -51.0508 -51.0508 -51.0508 -51.0508 -51.0119 -51.0119
   -50.8350 -50.8350 -50.8350 -50.8350 -50.8304 -50.8304 -50.8303 -50.8303
   -50.8116 -50.8116 -50.8112 -50.8112 -50.8077 -50.8076 -50.8076 -50.8076
   -50.7915 -50.7915 -50.7915 -50.7915 -50.7886 -50.7886 -50.7886 -50.7886
   -17.5779 -17.5779 -17.5562 -17.5562 -17.5562 -17.5562 -17.5150 -17.5149
   -17.5149 -17.5149 -17.5087 -17.5087 -17.5087 -17.5087 -17.5037 -17.5037
   -17.5037 -17.5037 -17.4858 -17.4858 -17.4767 -17.4767 -17.4766 -17.4766
   -17.1461 -17.1461 -16.9358 -16.9358 -16.9357 -16.9357 -16.8319 -16.8319
   -16.8318 -16.8318 -16.8071 -16.8071 -16.8071 -16.8071 -16.7361 -16.7361
   -16.7361 -16.7360 -16.7185 -16.7185 -16.6984 -16.6984 -16.6934 -16.6934
   -16.6175 -16.6175 -16.6175 -16.6175 -16.6055 -16.6055 -16.6055 -16.6055
   -16.4846 -16.4846 -16.4846 -16.4846 -16.4732 -16.4732 -16.4380 -16.4380
   -16.4380 -16.4380 -16.4359 -16.4359 -16.4359 -16.4359 -16.4183 -16.4183
   -16.4183 -16.4183 -16.3843 -16.3843 -16.3796 -16.3796 -16.3796 -16.3796
   -16.1474 -16.1474 -16.1398 -16.1398 -16.1398 -16.1398 -16.1114 -16.1114
   -16.0847 -16.0847 -16.0843 -16.0842 -16.0842 -16.0842 -16.0604 -16.0604
    25.6828  25.6828  25.6828  25.6828  25.6947  25.6947  25.7488  25.7488
    25.8038  25.8038  25.9379  25.9379  25.9380  25.9380  26.0041  26.0041
    26.0042  26.0042  26.0060  26.0060  26.0060  26.0060  26.0694  26.0694
    26.0694  26.0694  26.1223  26.1223  26.1223  26.1223  26.1449  26.1449
    26.6858  26.6858  26.8090  26.8090  26.8090  26.8090  27.3230  27.3230
    27.3230  27.3230  27.3449  27.3449  27.3449  27.3450  27.4378  27.4378
    27.4378  27.4378  27.7786  27.7786  27.8215  27.8215  27.8215  27.8215
    28.9578  28.9578  29.2844  29.2844  29.2844  29.2844  29.6579  29.6579
    29.6893  29.6893  29.8229  29.8229  29.8229  29.8229  29.8368  29.8368
    29.8578  29.8578  29.8853  29.8853  29.8854  29.8854  30.1202  30.1202
    30.1202  30.1202  30.1236  30.1236  30.1236  30.1236  30.2459  30.2459
    30.2459  30.2459  30.2720  30.2720  30.2982  30.2983  30.2983  30.2983
    30.3166  30.3166  30.9018  30.9018  30.9018  30.9018  31.0047  31.0047
    31.0047  31.0047  31.0220  31.0220  31.0227  31.0227  31.6070  31.6070
    31.6071  31.6071  31.7260  31.7260  31.7261  31.7261  31.7956  31.7956
    31.7956  31.7956  32.2551  32.2551  32.2584  32.2584  32.3758  32.3758
    32.3758  32.3758  32.3954  32.3954  32.3954  32.3954  32.6748  32.6748
    32.8714  32.8714  33.2115  33.2115  33.2115  33.2115  33.4333  33.4333
    34.9821  34.9821  34.9821  34.9821  35.0316  35.0316  35.0370  35.0370
    35.0370  35.0370  35.1122  35.1122  35.1122  35.1123  35.1137  35.1137
    35.1137  35.1137  35.1805  35.1805  35.1806  35.1806  35.2520  35.2520
    38.8124  38.8124  38.8124  38.8124  39.4683  39.4683  39.5980  39.5980
    39.5980  39.5980  40.6920  40.6920  40.6920  40.6920  41.0840  41.0840
    41.3296  41.3296  41.3296  41.3296  42.2187  42.2187  42.2187  42.2187
    46.6512  46.6512  46.6512  46.6512  46.7762  46.7762  47.8369  47.8369
    47.8369  47.8369  47.9286  47.9286  47.9286  47.9286  47.9334  47.9334
    47.9334  47.9334  49.2419  49.2419  49.2845  49.2845  49.2845  49.2845
    51.1442  51.1442

          k = 0.4411-0.5672-0.5672 ( 20668 PWs)   bands (ev):

   -51.0758 -51.0758 -51.0758 -51.0758 -51.0331 -51.0331 -51.0331 -51.0331
   -50.8329 -50.8329 -50.8329 -50.8328 -50.8098 -50.8098 -50.8098 -50.8098
   -50.8098 -50.8098 -50.8098 -50.8098 -50.8093 -50.8093 -50.8092 -50.8092
   -50.8092 -50.8092 -50.8092 -50.8092 -50.7899 -50.7899 -50.7899 -50.7899
   -17.5446 -17.5446 -17.5446 -17.5446 -17.5446 -17.5446 -17.5446 -17.5446
   -17.5174 -17.5174 -17.5174 -17.5174 -17.5087 -17.5087 -17.5087 -17.5087
   -17.4973 -17.4973 -17.4973 -17.4973 -17.4973 -17.4973 -17.4973 -17.4973
   -17.0410 -17.0410 -17.0410 -17.0410 -16.8258 -16.8258 -16.8258 -16.8258
   -16.8233 -16.8233 -16.8233 -16.8233 -16.7178 -16.7178 -16.7178 -16.7178
   -16.7178 -16.7178 -16.7177 -16.7177 -16.7148 -16.7148 -16.7148 -16.7148
   -16.7147 -16.7147 -16.7147 -16.7147 -16.6085 -16.6085 -16.6085 -16.6085
   -16.4577 -16.4577 -16.4577 -16.4577 -16.4547 -16.4546 -16.4546 -16.4546
   -16.4546 -16.4546 -16.4546 -16.4546 -16.4105 -16.4105 -16.4105 -16.4105
   -16.4104 -16.4104 -16.4104 -16.4104 -16.3998 -16.3998 -16.3998 -16.3998
   -16.1275 -16.1275 -16.1275 -16.1275 -16.1048 -16.1048 -16.1047 -16.1047
   -16.1032 -16.1032 -16.1032 -16.1032 -16.0685 -16.0685 -16.0685 -16.0685
    25.8104  25.8104  25.8104  25.8104  25.8348  25.8348  25.8348  25.8348
    25.8487  25.8487  25.8487  25.8487  25.8487  25.8487  25.8487  25.8487
    25.8491  25.8491  25.8491  25.8491  26.0402  26.0402  26.0402  26.0402
    26.0842  26.0842  26.0842  26.0842  26.0842  26.0842  26.0843  26.0843
    27.0297  27.0297  27.0297  27.0297  27.0298  27.0298  27.0298  27.0298
    27.1395  27.1395  27.1395  27.1395  27.5935  27.5935  27.5935  27.5935
    27.5935  27.5935  27.5935  27.5935  27.6118  27.6118  27.6118  27.6118
    29.1748  29.1748  29.1748  29.1748  29.6650  29.6650  29.6650  29.6651
    29.7793  29.7793  29.7793  29.7793  29.8328  29.8328  29.8328  29.8328
    29.8455  29.8455  29.8455  29.8455  29.9060  29.9060  29.9060  29.9060
    30.1810  30.1810  30.1810  30.1810  30.1949  30.1949  30.1949  30.1949
    30.1949  30.1949  30.1949  30.1949  30.5764  30.5764  30.5764  30.5764
    30.5764  30.5764  30.5764  30.5764  30.6318  30.6318  30.6319  30.6319
    31.2369  31.2369  31.2369  31.2369  31.3585  31.3585  31.3585  31.3585
    31.3585  31.3585  31.3585  31.3585  31.9928  31.9928  31.9928  31.9928
    31.9928  31.9928  31.9928  31.9928  31.9999  31.9999  31.9999  31.9999
    32.3311  32.3311  32.3311  32.3311  32.7541  32.7541  32.7541  32.7541
    32.8450  32.8450  32.8451  32.8451  33.1359  33.1359  33.1359  33.1359
    35.0905  35.0905  35.0905  35.0905  35.0905  35.0905  35.0906  35.0906
    35.1168  35.1168  35.1168  35.1168  35.1878  35.1878  35.1878  35.1878
    35.1882  35.1882  35.1882  35.1882  35.1882  35.1882  35.1882  35.1882
    39.1718  39.1718  39.1718  39.1718  40.0672  40.0672  40.0672  40.0672
    40.0672  40.0672  40.0672  40.0672  40.9072  40.9072  40.9072  40.9072
    40.9072  40.9072  40.9072  40.9072  41.7967  41.7967  41.7967  41.7967
    47.1506  47.1506  47.1506  47.1506  47.2517  47.2517  47.2518  47.2518
    47.2518  47.2518  47.2518  47.2518  48.5364  48.5364  48.5364  48.5364
    48.5365  48.5365  48.5365  48.5365  48.5474  48.5474  48.5474  48.5474
    51.6045  51.6045

          k =-0.5672-0.5672-0.5672 ( 20672 PWs)   bands (ev):

   -51.0564 -51.0564 -51.0564 -51.0563 -51.0563 -51.0563 -51.0563 -51.0563
   -50.8096 -50.8096 -50.8096 -50.8095 -50.8095 -50.8095 -50.8095 -50.8095
   -50.8095 -50.8095 -50.8095 -50.8095 -50.8095 -50.8095 -50.8095 -50.8095
   -50.8095 -50.8095 -50.8095 -50.8095 -50.8095 -50.8095 -50.8095 -50.8093
   -17.5213 -17.5213 -17.5213 -17.5213 -17.5213 -17.5213 -17.5213 -17.5213
   -17.5213 -17.5213 -17.5213 -17.5213 -17.5213 -17.5213 -17.5213 -17.5213
   -17.5213 -17.5213 -17.5213 -17.5213 -17.5213 -17.5212 -17.5212 -17.5212
   -16.9328 -16.9327 -16.9327 -16.9327 -16.9327 -16.9327 -16.9327 -16.9327
   -16.7172 -16.7171 -16.7171 -16.7171 -16.7171 -16.7171 -16.7171 -16.7171
   -16.7171 -16.7171 -16.7171 -16.7171 -16.7171 -16.7171 -16.7171 -16.7171
   -16.7171 -16.7171 -16.7171 -16.7171 -16.7170 -16.7170 -16.7170 -16.7170
   -16.4313 -16.4313 -16.4313 -16.4313 -16.4313 -16.4313 -16.4313 -16.4313
   -16.4313 -16.4313 -16.4313 -16.4313 -16.4313 -16.4313 -16.4313 -16.4313
   -16.4313 -16.4313 -16.4313 -16.4313 -16.4313 -16.4312 -16.4312 -16.4312
   -16.0955 -16.0955 -16.0955 -16.0955 -16.0955 -16.0954 -16.0954 -16.0954
   -16.0954 -16.0954 -16.0954 -16.0954 -16.0954 -16.0954 -16.0954 -16.0954
    25.8272  25.8272  25.8272  25.8272  25.8272  25.8272  25.8272  25.8272
    25.9370  25.9370  25.9370  25.9370  25.9370  25.9370  25.9370  25.9370
    25.9370  25.9370  25.9370  25.9370  25.9370  25.9370  25.9370  25.9370
    25.9371  25.9371  25.9371  25.9371  25.9371  25.9371  25.9371  25.9371
    27.3400  27.3400  27.3400  27.3400  27.3400  27.3400  27.3400  27.3400
    27.3400  27.3400  27.3400  27.3400  27.3400  27.3400  27.3401  27.3401
    27.3401  27.3401  27.3401  27.3401  27.3401  27.3401  27.3401  27.3401
    29.5702  29.5702  29.5702  29.5702  29.5702  29.5702  29.5702  29.5702
    29.7822  29.7822  29.7822  29.7822  29.7822  29.7822  29.7822  29.7822
    29.7822  29.7822  29.7822  29.7823  29.7823  29.7823  29.7823  29.7823
    30.4020  30.4020  30.4020  30.4020  30.4020  30.4020  30.4020  30.4020
    30.4020  30.4020  30.4020  30.4020  30.4020  30.4020  30.4020  30.4020
    30.4020  30.4020  30.4020  30.4020  30.4020  30.4021  30.4021  30.4021
    31.6124  31.6124  31.6124  31.6124  31.6124  31.6124  31.6124  31.6124
    31.6124  31.6124  31.6124  31.6124  31.6124  31.6124  31.6124  31.6124
    31.6124  31.6124  31.6124  31.6125  31.6125  31.6125  31.6125  31.6125
    32.7233  32.7233  32.7233  32.7233  32.7233  32.7233  32.7233  32.7233
    32.7233  32.7233  32.7233  32.7233  32.7233  32.7233  32.7234  32.7234
    35.1943  35.1943  35.1943  35.1943  35.1943  35.1943  35.1943  35.1943
    35.1943  35.1943  35.1943  35.1943  35.1943  35.1943  35.1943  35.1943
    35.1944  35.1944  35.1944  35.1944  35.1944  35.1944  35.1944  35.1944
    40.4807  40.4807  40.4807  40.4807  40.4807  40.4807  40.4807  40.4807
    40.4807  40.4807  40.4807  40.4807  40.4807  40.4807  40.4807  40.4807
    40.4807  40.4807  40.4807  40.4807  40.4807  40.4807  40.4807  40.4807
    47.8214  47.8214  47.8214  47.8214  47.8214  47.8214  47.8214  47.8214
    47.8214  47.8214  47.8214  47.8214  47.8214  47.8214  47.8214  47.8214
    47.8214  47.8214  47.8214  47.8214  47.8214  47.8214  47.8214  47.8215
    52.0255  52.0255

     the Fermi energy is    35.0540 ev

!    total energy              =  -16377.31162430 Ry

     total all-electron energy =   -322938.165331 Ry
     estimated scf accuracy    <       0.00000093 Ry
     smearing contrib. (-TS)   =      -0.01491534 Ry
     internal energy E=F+TS    =  -16377.29670896 Ry

     The total energy is F=E-TS. E is the sum of the following terms:
     one-electron contribution =    -860.59773912 Ry
     hartree contribution      =    1145.60471222 Ry
     xc contribution           =   -1005.06482782 Ry
     ewald contribution        =   -7489.06425957 Ry
     one-center paw contrib.   =   -8168.17459466 Ry

     convergence has been achieved in  11 iterations

     Forces acting on atoms (cartesian axes, Ry/au):

     atom    1 type  1   force =     0.00000000    0.00000000    0.00000000
     atom    2 type  1   force =     0.00000868    0.00000868    0.00000000
     atom    3 type  1   force =     0.00000868   -0.00000000    0.00000868
     atom    4 type  1   force =     0.00000000    0.00000868    0.00000868
     atom    5 type  1   force =     0.00000000    0.00000000    0.00000000
     atom    6 type  1   force =    -0.00001311   -0.00001311    0.00000000
     atom    7 type  1   force =     0.00000868    0.00000000   -0.00000868
     atom    8 type  1   force =     0.00000000    0.00000868   -0.00000868
     atom    9 type  1   force =     0.00000000    0.00000000    0.00000000
     atom   10 type  1   force =     0.00000868   -0.00000868    0.00000000
     atom   11 type  1   force =    -0.00001311   -0.00000000   -0.00001311
     atom   12 type  1   force =     0.00000000   -0.00000868    0.00000868
     atom   13 type  1   force =     0.00000000    0.00000000    0.00000000
     atom   14 type  1   force =    -0.00001311    0.00001311   -0.00000000
     atom   15 type  1   force =    -0.00001311    0.00000000    0.00001311
     atom   16 type  1   force =     0.00000000   -0.00000868   -0.00000868
     atom   17 type  1   force =     0.00000000    0.00000000    0.00000000
     atom   18 type  1   force =    -0.00000868    0.00000868    0.00000000
     atom   19 type  1   force =    -0.00000868    0.00000000    0.00000868
     atom   20 type  1   force =    -0.00000000   -0.00001311   -0.00001311
     atom   21 type  1   force =     0.00000000    0.00000000    0.00000000
     atom   22 type  1   force =     0.00001311   -0.00001311   -0.00000000
     atom   23 type  1   force =    -0.00000868   -0.00000000   -0.00000868
     atom   24 type  1   force =    -0.00000000   -0.00001311    0.00001311
     atom   25 type  1   force =     0.00000000    0.00000000    0.00000000
     atom   26 type  1   force =    -0.00000868   -0.00000868    0.00000000
     atom   27 type  1   force =     0.00001311   -0.00000000   -0.00001311
     atom   28 type  1   force =     0.00000000    0.00001311   -0.00001311
     atom   29 type  1   force =     0.00000000    0.00000000    0.00000000
     atom   30 type  1   force =     0.00001311    0.00001311    0.00000000
     atom   31 type  1   force =     0.00001311    0.00000000    0.00001311
     atom   32 type  1   force =     0.00000000    0.00001311    0.00001311

     Total force =     0.000077     Total SCF correction =     0.000455
     SCF correction compared to forces is large: reduce conv_thr to get better values


     Computing stress (Cartesian axis) and pressure

          total   stress  (Ry/bohr**3)                   (kbar)     P=     2889.95
   0.01964550   0.00000000   0.00000000         2889.95        0.00        0.00
   0.00000000   0.01964550   0.00000000            0.00     2889.95        0.00
   0.00000000   0.00000000   0.01964550            0.00        0.00     2889.95


     Writing output data file /scratch/GghMviRozrucfGkE.save/
 
     init_run     :      9.39s CPU      9.66s WALL (       1 calls)
     electrons    :    459.97s CPU    467.49s WALL (       1 calls)
     forces       :      4.91s CPU      4.97s WALL (       1 calls)
     stress       :     20.51s CPU     20.78s WALL (       1 calls)

     Called by init_run:
     wfcinit      :      8.62s CPU      8.83s WALL (       1 calls)
     potinit      :      0.14s CPU      0.15s WALL (       1 calls)
     hinit0       :      0.36s CPU      0.37s WALL (       1 calls)

     Called by electrons:
     c_bands      :    410.93s CPU    417.20s WALL (      12 calls)
     sum_band     :     46.82s CPU     47.90s WALL (      12 calls)
     v_of_rho     :      0.44s CPU      0.46s WALL (      12 calls)
     newd         :      0.27s CPU      0.33s WALL (      12 calls)
     PAW_pot      :      1.16s CPU      1.22s WALL (      12 calls)
     mix_rho      :      0.24s CPU      0.25s WALL (      12 calls)

     Called by c_bands:
     init_us_2    :      1.20s CPU      1.22s WALL (     945 calls)
     cegterg      :    406.13s CPU    412.31s WALL (     420 calls)

     Called by *egterg:
     cdiaghg      :     69.03s CPU     69.72s WALL (    1658 calls)
     h_psi        :    198.61s CPU    202.14s WALL (    1728 calls)
     s_psi        :     11.64s CPU     11.71s WALL (    1728 calls)
     g_psi        :      0.28s CPU      0.29s WALL (    1273 calls)

     Called by h_psi:
     h_psi:calbec :     27.32s CPU     27.49s WALL (    1728 calls)
     vloc_psi     :    159.05s CPU    162.12s WALL (    1728 calls)
     add_vuspsi   :     11.61s CPU     11.90s WALL (    1728 calls)

     General routines
     calbec       :     46.47s CPU     46.81s WALL (    2323 calls)
     fft          :      0.34s CPU      0.35s WALL (     180 calls)
     ffts         :      0.02s CPU      0.02s WALL (      24 calls)
     fftw         :    188.80s CPU    192.70s WALL (  873598 calls)
     interpolate  :      0.05s CPU      0.05s WALL (      12 calls)
 
     Parallel routines
     fft_scatt_xy :      6.53s CPU      6.65s WALL (  873802 calls)
     fft_scatt_yz :    170.04s CPU    173.67s WALL (  873802 calls)
 
     PWSCF        :   8m24.93s CPU   8m34.64s WALL

 
   This run was terminated on:  19:23:50  26Nov2021            

=------------------------------------------------------------------------------=
   JOB DONE.
=------------------------------------------------------------------------------=
