
     Program PWSCF v.6.7MaX starts on 27Nov2021 at  8: 6: 4 

     This program is part of the open-source Quantum ESPRESSO suite
     for quantum simulation of materials; please cite
         "P. Giannozzi et al., J. Phys.:Condens. Matter 21 395502 (2009);
         "P. Giannozzi et al., J. Phys.:Condens. Matter 29 465901 (2017);
          URL http://www.quantum-espresso.org", 
     in publications or presentations arising from this work. More details at
     http://www.quantum-espresso.org/quote

     Parallel version (MPI & OpenMP), running on      72 processor cores
     Number of MPI processes:                72
     Threads/MPI process:                     1

     MPI processes distributed on     1 nodes
     R & G space division:  proc/nbgrp/npool/nimage =      72
     Reading input from fcc_19.in
Warning: card &CELL ignored
Warning: card CELL_DYNAMICS = 'BFGS', ignored
Warning: card CELL_FACTOR = 2.0, ignored
Warning: card PRESS = 0.0, ignored
Warning: card / ignored

     Current dimensions of program PWSCF are:
     Max number of different atomic species (ntypx) = 10
     Max number of k-points (npk) =  40000
     Max angular momentum in pseudopotentials (lmaxx) =  3
     file Pd.pbe-spn-kjpaw_psl.1.0.0.UPF: wavefunction(s)  4S 5S 4D renormalized

     Subspace diagonalization in iterative solution of the eigenvalue problem:
     one sub-group per band group will be used
     ELPA distributed-memory algorithm (size of sub-group:  8*  8 procs)

     Found symmetry operation: I + (  0.2500  0.2500  0.0000)
     This is a supercell, fractional translations are disabled
     Message from routine setup:
     using ibrav=0 with symmetry is DISCOURAGED, use correct ibrav instead
 
     Parallelization info
     --------------------
     sticks:   dense  smooth     PW     G-vecs:    dense   smooth      PW
     Min         368     243     63                45168    24251    3245
     Max         369     244     64                45175    24256    3250
     Sum       26501   17529   4597              3252179  1746237  233817
 


     bravais-lattice index     =            0
     lattice parameter (alat)  =      14.4000  a.u.
     unit-cell volume          =   21607.2105 (a.u.)^3
     number of atoms/cell      =           32
     number of atomic types    =            1
     number of electrons       =       576.00
     number of Kohn-Sham states=          346
     kinetic-energy cutoff     =      71.0000  Ry
     charge density cutoff     =     430.0000  Ry
     scf convergence threshold =      1.0E-06
     mixing beta               =       0.1000
     number of iterations used =           10  TF        mixing
     Exchange-correlation= SLA  PW   PBX  PBC
                           (   1   4   3   4   0   0   0)

     celldm(1)=  14.400000  celldm(2)=   0.000000  celldm(3)=   0.000000
     celldm(4)=   0.000000  celldm(5)=   0.000000  celldm(6)=   0.000000

     crystal axes: (cart. coord. in units of alat)
               a(1) = (   1.934211   0.000000   0.000000 )  
               a(2) = (   0.000000   1.934211   0.000000 )  
               a(3) = (   0.000000   0.000000   1.934211 )  

     reciprocal axes: (cart. coord. in units 2 pi/alat)
               b(1) = (  0.517007  0.000000  0.000000 )  
               b(2) = (  0.000000  0.517007  0.000000 )  
               b(3) = (  0.000000  0.000000  0.517007 )  


     PseudoPot. # 1 for Pd read from file:
     /rds/homes/b/bxp912/pp/Pd.pbe-spn-kjpaw_psl.1.0.0.UPF
     MD5 check sum: 790f2ebce206edfd9790dcb9844eca51
     Pseudo is Projector augmented-wave + core cor, Zval = 18.0
     Generated using &quot;atomic&quot; code by A. Dal Corso  v.6.3
     Shape of augmentation charge: PSQ
     Using radial grid of 1235 points,  6 beta functions with: 
                l(1) =   0
                l(2) =   0
                l(3) =   1
                l(4) =   1
                l(5) =   2
                l(6) =   2
     Q(r) pseudized with 0 coefficients 


     atomic species   valence    mass     pseudopotential
        Pd            18.00   106.42000     Pd( 1.00)

     48 Sym. Ops., with inversion, found



   Cartesian axes

     site n.     atom                  positions (alat units)
         1           Pd  tau(   1) = (   0.0000000   0.0000000   0.0000000  )
         2           Pd  tau(   2) = (   0.4835526   0.4835526   0.0000000  )
         3           Pd  tau(   3) = (   0.4835526   0.0000000   0.4835526  )
         4           Pd  tau(   4) = (   0.0000000   0.4835526   0.4835526  )
         5           Pd  tau(   5) = (   0.0000000   0.0000000   0.9671053  )
         6           Pd  tau(   6) = (   0.4835526   0.4835526   0.9671053  )
         7           Pd  tau(   7) = (   0.4835526   0.0000000   1.4506579  )
         8           Pd  tau(   8) = (   0.0000000   0.4835526   1.4506579  )
         9           Pd  tau(   9) = (   0.0000000   0.9671053   0.0000000  )
        10           Pd  tau(  10) = (   0.4835526   1.4506579   0.0000000  )
        11           Pd  tau(  11) = (   0.4835526   0.9671053   0.4835526  )
        12           Pd  tau(  12) = (   0.0000000   1.4506579   0.4835526  )
        13           Pd  tau(  13) = (   0.0000000   0.9671053   0.9671053  )
        14           Pd  tau(  14) = (   0.4835526   1.4506579   0.9671053  )
        15           Pd  tau(  15) = (   0.4835526   0.9671053   1.4506579  )
        16           Pd  tau(  16) = (   0.0000000   1.4506579   1.4506579  )
        17           Pd  tau(  17) = (   0.9671053   0.0000000   0.0000000  )
        18           Pd  tau(  18) = (   1.4506579   0.4835526   0.0000000  )
        19           Pd  tau(  19) = (   1.4506579   0.0000000   0.4835526  )
        20           Pd  tau(  20) = (   0.9671053   0.4835526   0.4835526  )
        21           Pd  tau(  21) = (   0.9671053   0.0000000   0.9671053  )
        22           Pd  tau(  22) = (   1.4506579   0.4835526   0.9671053  )
        23           Pd  tau(  23) = (   1.4506579   0.0000000   1.4506579  )
        24           Pd  tau(  24) = (   0.9671053   0.4835526   1.4506579  )
        25           Pd  tau(  25) = (   0.9671053   0.9671053   0.0000000  )
        26           Pd  tau(  26) = (   1.4506579   1.4506579   0.0000000  )
        27           Pd  tau(  27) = (   1.4506579   0.9671053   0.4835526  )
        28           Pd  tau(  28) = (   0.9671053   1.4506579   0.4835526  )
        29           Pd  tau(  29) = (   0.9671053   0.9671053   0.9671053  )
        30           Pd  tau(  30) = (   1.4506579   1.4506579   0.9671053  )
        31           Pd  tau(  31) = (   1.4506579   0.9671053   1.4506579  )
        32           Pd  tau(  32) = (   0.9671053   1.4506579   1.4506579  )

     number of k points=    35  Marzari-Vanderbilt smearing, width (Ry)=  0.0400
                       cart. coord. in units 2pi/alat
        k(    1) = (   0.0287226   0.0287226   0.0287226), wk =   0.0219479
        k(    2) = (   0.0287226   0.0287226   0.0861678), wk =   0.0658436
        k(    3) = (   0.0287226   0.0287226   0.1436130), wk =   0.0658436
        k(    4) = (   0.0287226   0.0287226   0.2010582), wk =   0.0658436
        k(    5) = (   0.0287226   0.0287226  -0.2585034), wk =   0.0329218
        k(    6) = (   0.0287226   0.0861678   0.0861678), wk =   0.0658436
        k(    7) = (   0.0287226   0.0861678   0.1436130), wk =   0.1316872
        k(    8) = (   0.0287226   0.0861678   0.2010582), wk =   0.1316872
        k(    9) = (   0.0287226   0.0861678  -0.2585034), wk =   0.0658436
        k(   10) = (   0.0287226   0.1436130   0.1436130), wk =   0.0658436
        k(   11) = (   0.0287226   0.1436130   0.2010582), wk =   0.1316872
        k(   12) = (   0.0287226   0.1436130  -0.2585034), wk =   0.0658436
        k(   13) = (   0.0287226   0.2010582   0.2010582), wk =   0.0658436
        k(   14) = (   0.0287226   0.2010582  -0.2585034), wk =   0.0658436
        k(   15) = (   0.0287226  -0.2585034  -0.2585034), wk =   0.0164609
        k(   16) = (   0.0861678   0.0861678   0.0861678), wk =   0.0219479
        k(   17) = (   0.0861678   0.0861678   0.1436130), wk =   0.0658436
        k(   18) = (   0.0861678   0.0861678   0.2010582), wk =   0.0658436
        k(   19) = (   0.0861678   0.0861678  -0.2585034), wk =   0.0329218
        k(   20) = (   0.0861678   0.1436130   0.1436130), wk =   0.0658436
        k(   21) = (   0.0861678   0.1436130   0.2010582), wk =   0.1316872
        k(   22) = (   0.0861678   0.1436130  -0.2585034), wk =   0.0658436
        k(   23) = (   0.0861678   0.2010582   0.2010582), wk =   0.0658436
        k(   24) = (   0.0861678   0.2010582  -0.2585034), wk =   0.0658436
        k(   25) = (   0.0861678  -0.2585034  -0.2585034), wk =   0.0164609
        k(   26) = (   0.1436130   0.1436130   0.1436130), wk =   0.0219479
        k(   27) = (   0.1436130   0.1436130   0.2010582), wk =   0.0658436
        k(   28) = (   0.1436130   0.1436130  -0.2585034), wk =   0.0329218
        k(   29) = (   0.1436130   0.2010582   0.2010582), wk =   0.0658436
        k(   30) = (   0.1436130   0.2010582  -0.2585034), wk =   0.0658436
        k(   31) = (   0.1436130  -0.2585034  -0.2585034), wk =   0.0164609
        k(   32) = (   0.2010582   0.2010582   0.2010582), wk =   0.0219479
        k(   33) = (   0.2010582   0.2010582  -0.2585034), wk =   0.0329218
        k(   34) = (   0.2010582  -0.2585034  -0.2585034), wk =   0.0164609
        k(   35) = (  -0.2585034  -0.2585034  -0.2585034), wk =   0.0027435

     Dense  grid:  3252179 G-vectors     FFT dimensions: ( 192, 192, 192)

     Smooth grid:  1746237 G-vectors     FFT dimensions: ( 150, 150, 150)

     Estimated max dynamical RAM per process >     826.82 MB

     Estimated total dynamical RAM >      58.14 GB

     Initial potential from superposition of free atoms

     starting charge  575.98776, renormalised to  576.00000
     Starting wfcs are  320 randomized atomic wfcs +   26 random wfcs
     Checking if some PAW data can be deallocated... 

     total cpu time spent up to now is       76.2 secs

     Self-consistent Calculation

     iteration #  1     ecut=    71.00 Ry     beta= 0.10
     Davidson diagonalization with overlap
     ethr =  1.00E-02,  avg # of iterations =  6.1

     total cpu time spent up to now is      354.4 secs

     total energy              =  -16381.46455261 Ry
     estimated scf accuracy    <      25.02435585 Ry

     iteration #  2     ecut=    71.00 Ry     beta= 0.10
     Davidson diagonalization with overlap
     ethr =  4.34E-03,  avg # of iterations =  1.0

     total cpu time spent up to now is      535.4 secs

     total energy              =  -16373.29712061 Ry
     estimated scf accuracy    <      18.68328326 Ry

     iteration #  3     ecut=    71.00 Ry     beta= 0.10
     Davidson diagonalization with overlap
     ethr =  3.24E-03,  avg # of iterations =  2.0

     total cpu time spent up to now is      793.2 secs

     total energy              =  -16376.16140180 Ry
     estimated scf accuracy    <       3.43392532 Ry

     iteration #  4     ecut=    71.00 Ry     beta= 0.10
     Davidson diagonalization with overlap
     ethr =  5.96E-04,  avg # of iterations =  8.0

     total cpu time spent up to now is     1044.2 secs

     total energy              =  -16376.13011342 Ry
     estimated scf accuracy    <       2.35102008 Ry

     iteration #  5     ecut=    71.00 Ry     beta= 0.10
     Davidson diagonalization with overlap
     ethr =  4.08E-04,  avg # of iterations =  3.5

     total cpu time spent up to now is     1247.7 secs

     total energy              =  -16376.03998813 Ry
     estimated scf accuracy    <       1.37481642 Ry

     iteration #  6     ecut=    71.00 Ry     beta= 0.10
     Davidson diagonalization with overlap
     c_bands:  2 eigenvalues not converged
     ethr =  2.39E-04,  avg # of iterations =  3.7

     total cpu time spent up to now is     1438.5 secs

     total energy              =  -16375.94787817 Ry
     estimated scf accuracy    <       2.27813481 Ry

     iteration #  7     ecut=    71.00 Ry     beta= 0.10
     Davidson diagonalization with overlap
     ethr =  2.39E-04,  avg # of iterations =  2.1

     total cpu time spent up to now is     1713.2 secs

     total energy              =  -16376.58291034 Ry
     estimated scf accuracy    <      39.09265743 Ry

     iteration #  8     ecut=    71.00 Ry     beta= 0.10
     Davidson diagonalization with overlap
     ethr =  2.39E-04,  avg # of iterations =  1.0

     total cpu time spent up to now is     1892.3 secs

     total energy              =  -16376.62495134 Ry
     estimated scf accuracy    <      28.36871357 Ry

     iteration #  9     ecut=    71.00 Ry     beta= 0.10
     Davidson diagonalization with overlap
     ethr =  2.39E-04,  avg # of iterations =  1.2

     total cpu time spent up to now is     2075.9 secs

     total energy              =  -16376.65373775 Ry
     estimated scf accuracy    <      28.20875998 Ry

     iteration # 10     ecut=    71.00 Ry     beta= 0.10
     Davidson diagonalization with overlap
     ethr =  2.39E-04,  avg # of iterations =  1.6

     total cpu time spent up to now is     2254.8 secs

     total energy              =  -16376.69125816 Ry
     estimated scf accuracy    <       6.78902376 Ry

     iteration # 11     ecut=    71.00 Ry     beta= 0.10
     Davidson diagonalization with overlap
     ethr =  2.39E-04,  avg # of iterations =  1.0

     total cpu time spent up to now is     2430.3 secs

     total energy              =  -16376.92839494 Ry
     estimated scf accuracy    <       8.03977489 Ry

     iteration # 12     ecut=    71.00 Ry     beta= 0.10
     Davidson diagonalization with overlap
     ethr =  2.39E-04,  avg # of iterations =  1.1

     total cpu time spent up to now is     2607.6 secs

     total energy              =  -16374.38044239 Ry
     estimated scf accuracy    <       8.35709383 Ry

     iteration # 13     ecut=    71.00 Ry     beta= 0.10
     Davidson diagonalization with overlap
     ethr =  2.39E-04,  avg # of iterations =  3.5

     total cpu time spent up to now is     2907.5 secs

     total energy              =  -16374.07044411 Ry
     estimated scf accuracy    <       8.19064849 Ry

     iteration # 14     ecut=    71.00 Ry     beta= 0.10
     Davidson diagonalization with overlap
     ethr =  2.39E-04,  avg # of iterations =  2.0

     total cpu time spent up to now is     3185.2 secs

     total energy              =  -16376.71189581 Ry
     estimated scf accuracy    <       3.65290485 Ry

     iteration # 15     ecut=    71.00 Ry     beta= 0.10
     Davidson diagonalization with overlap
     ethr =  2.39E-04,  avg # of iterations =  1.1

     total cpu time spent up to now is     3357.5 secs

     total energy              =  -16376.44624892 Ry
     estimated scf accuracy    <       5.61220885 Ry

     iteration # 16     ecut=    71.00 Ry     beta= 0.10
     Davidson diagonalization with overlap
     ethr =  2.39E-04,  avg # of iterations =  2.0

     total cpu time spent up to now is     3560.1 secs

     total energy              =  -16376.10783317 Ry
     estimated scf accuracy    <       3.94342393 Ry

     iteration # 17     ecut=    71.00 Ry     beta= 0.10
     Davidson diagonalization with overlap
     ethr =  2.39E-04,  avg # of iterations =  1.0

     total cpu time spent up to now is     3729.1 secs

     total energy              =  -16375.58869274 Ry
     estimated scf accuracy    <       2.48637060 Ry

     iteration # 18     ecut=    71.00 Ry     beta= 0.10
     Davidson diagonalization with overlap
     ethr =  2.39E-04,  avg # of iterations =  2.1

     total cpu time spent up to now is     3961.7 secs

     total energy              =  -16375.66705902 Ry
     estimated scf accuracy    <       0.85106356 Ry

     iteration # 19     ecut=    71.00 Ry     beta= 0.10
     Davidson diagonalization with overlap
     ethr =  1.48E-04,  avg # of iterations =  1.6

     total cpu time spent up to now is     4142.8 secs

     total energy              =  -16375.70529561 Ry
     estimated scf accuracy    <       0.66458480 Ry

     iteration # 20     ecut=    71.00 Ry     beta= 0.10
     Davidson diagonalization with overlap
     ethr =  1.15E-04,  avg # of iterations =  1.1

     total cpu time spent up to now is     4321.2 secs

     total energy              =  -16375.68475857 Ry
     estimated scf accuracy    <       0.70359917 Ry

     iteration # 21     ecut=    71.00 Ry     beta= 0.10
     Davidson diagonalization with overlap
     ethr =  1.15E-04,  avg # of iterations =  1.3

     total cpu time spent up to now is     4498.1 secs

     total energy              =  -16375.67390028 Ry
     estimated scf accuracy    <       0.63245728 Ry

     iteration # 22     ecut=    71.00 Ry     beta= 0.10
     Davidson diagonalization with overlap
     ethr =  1.10E-04,  avg # of iterations =  1.0

     total cpu time spent up to now is     4672.3 secs

     total energy              =  -16375.68139167 Ry
     estimated scf accuracy    <       0.22218773 Ry

     iteration # 23     ecut=    71.00 Ry     beta= 0.10
     Davidson diagonalization with overlap
     ethr =  3.86E-05,  avg # of iterations =  3.6

     total cpu time spent up to now is     4861.3 secs

     total energy              =  -16375.68115781 Ry
     estimated scf accuracy    <       0.31402362 Ry

     iteration # 24     ecut=    71.00 Ry     beta= 0.10
     Davidson diagonalization with overlap
     ethr =  3.86E-05,  avg # of iterations =  1.0

     total cpu time spent up to now is     5032.7 secs

     total energy              =  -16375.65942800 Ry
     estimated scf accuracy    <       0.07344033 Ry

     iteration # 25     ecut=    71.00 Ry     beta= 0.10
     Davidson diagonalization with overlap
     ethr =  1.28E-05,  avg # of iterations =  3.1

     total cpu time spent up to now is     5284.8 secs

     total energy              =  -16375.68310941 Ry
     estimated scf accuracy    <       0.22041434 Ry

     iteration # 26     ecut=    71.00 Ry     beta= 0.10
     Davidson diagonalization with overlap
     ethr =  1.28E-05,  avg # of iterations =  1.0

     total cpu time spent up to now is     5457.7 secs

     total energy              =  -16375.67596746 Ry
     estimated scf accuracy    <       0.13599579 Ry

     iteration # 27     ecut=    71.00 Ry     beta= 0.10
     Davidson diagonalization with overlap
     ethr =  1.28E-05,  avg # of iterations =  1.1

     total cpu time spent up to now is     5631.7 secs

     total energy              =  -16375.67569333 Ry
     estimated scf accuracy    <       0.02882864 Ry

     iteration # 28     ecut=    71.00 Ry     beta= 0.10
     Davidson diagonalization with overlap
     c_bands:  2 eigenvalues not converged
     ethr =  5.00E-06,  avg # of iterations =  3.7

     total cpu time spent up to now is     5813.9 secs

     total energy              =  -16375.67720549 Ry
     estimated scf accuracy    <       0.00185912 Ry

     iteration # 29     ecut=    71.00 Ry     beta= 0.10
     Davidson diagonalization with overlap
     c_bands:  1 eigenvalues not converged
     c_bands:  3 eigenvalues not converged
     ethr =  3.23E-07,  avg # of iterations =  4.8

     total cpu time spent up to now is     6018.1 secs

     total energy              =  -16375.67737232 Ry
     estimated scf accuracy    <       0.00078754 Ry

     iteration # 30     ecut=    71.00 Ry     beta= 0.10
     Davidson diagonalization with overlap
     ethr =  1.37E-07,  avg # of iterations =  1.3

     total cpu time spent up to now is     6188.6 secs

     total energy              =  -16375.67742847 Ry
     estimated scf accuracy    <       0.00015474 Ry

     iteration # 31     ecut=    71.00 Ry     beta= 0.10
     Davidson diagonalization with overlap
     ethr =  2.69E-08,  avg # of iterations =  2.2

     total cpu time spent up to now is     6404.4 secs

     total energy              =  -16375.67758018 Ry
     estimated scf accuracy    <       0.00035842 Ry

     iteration # 32     ecut=    71.00 Ry     beta= 0.10
     Davidson diagonalization with overlap
     ethr =  2.69E-08,  avg # of iterations =  3.0

     total cpu time spent up to now is     6614.4 secs

     total energy              =  -16375.67761182 Ry
     estimated scf accuracy    <       0.00142570 Ry

     iteration # 33     ecut=    71.00 Ry     beta= 0.10
     Davidson diagonalization with overlap
     ethr =  2.69E-08,  avg # of iterations =  2.0

     total cpu time spent up to now is     6816.1 secs

     total energy              =  -16375.67762962 Ry
     estimated scf accuracy    <       0.00001029 Ry

     iteration # 34     ecut=    71.00 Ry     beta= 0.10
     Davidson diagonalization with overlap
     ethr =  1.79E-09,  avg # of iterations =  4.2

     total cpu time spent up to now is     7022.7 secs

     total energy              =  -16375.67764152 Ry
     estimated scf accuracy    <       0.00000873 Ry

     iteration # 35     ecut=    71.00 Ry     beta= 0.10
     Davidson diagonalization with overlap
     ethr =  1.52E-09,  avg # of iterations =  3.0

     total cpu time spent up to now is     7233.0 secs

     total energy              =  -16375.67765457 Ry
     estimated scf accuracy    <       0.00001627 Ry

     iteration # 36     ecut=    71.00 Ry     beta= 0.10
     Davidson diagonalization with overlap
     ethr =  1.52E-09,  avg # of iterations =  3.0

     total cpu time spent up to now is     7458.3 secs

     total energy              =  -16375.67765522 Ry
     estimated scf accuracy    <       0.00001624 Ry

     iteration # 37     ecut=    71.00 Ry     beta= 0.10
     Davidson diagonalization with overlap
     ethr =  1.52E-09,  avg # of iterations =  2.0

     total cpu time spent up to now is     7673.7 secs

     total energy              =  -16375.67765779 Ry
     estimated scf accuracy    <       0.00000526 Ry

     iteration # 38     ecut=    71.00 Ry     beta= 0.10
     Davidson diagonalization with overlap
     ethr =  9.13E-10,  avg # of iterations =  3.0

     total cpu time spent up to now is     7887.9 secs

     total energy              =  -16375.67765970 Ry
     estimated scf accuracy    <       0.00000208 Ry

     iteration # 39     ecut=    71.00 Ry     beta= 0.10
     Davidson diagonalization with overlap
     ethr =  3.62E-10,  avg # of iterations =  2.0

     total cpu time spent up to now is     8092.0 secs

     total energy              =  -16375.67766069 Ry
     estimated scf accuracy    <       0.00000202 Ry

     iteration # 40     ecut=    71.00 Ry     beta= 0.10
     Davidson diagonalization with overlap
     ethr =  3.51E-10,  avg # of iterations =  1.0

     total cpu time spent up to now is     8259.8 secs

     total energy              =  -16375.67766310 Ry
     estimated scf accuracy    <       0.00000246 Ry

     iteration # 41     ecut=    71.00 Ry     beta= 0.10
     Davidson diagonalization with overlap
     ethr =  3.51E-10,  avg # of iterations =  2.5

     total cpu time spent up to now is     8464.8 secs

     total energy              =  -16375.67766277 Ry
     estimated scf accuracy    <       0.00000210 Ry

     iteration # 42     ecut=    71.00 Ry     beta= 0.10
     Davidson diagonalization with overlap
     ethr =  3.51E-10,  avg # of iterations =  2.0

     total cpu time spent up to now is     8662.7 secs

     total energy              =  -16375.67766283 Ry
     estimated scf accuracy    <       0.00000160 Ry

     iteration # 43     ecut=    71.00 Ry     beta= 0.10
     Davidson diagonalization with overlap
     ethr =  2.77E-10,  avg # of iterations =  2.0

     total cpu time spent up to now is     8863.1 secs

     total energy              =  -16375.67766398 Ry
     estimated scf accuracy    <       0.00000108 Ry

     iteration # 44     ecut=    71.00 Ry     beta= 0.10
     Davidson diagonalization with overlap
     ethr =  1.87E-10,  avg # of iterations =  2.0

     total cpu time spent up to now is     9052.5 secs

     End of self-consistent calculation

          k = 0.0287 0.0287 0.0287 (218368 PWs)   bands (ev):

   -82.6489 -82.6489 -82.6489 -82.6489 -82.6489 -82.6489 -82.6489 -82.6489
   -82.6489 -82.6489 -82.6489 -82.6489 -82.6489 -82.6489 -82.6489 -82.6489
   -82.6489 -82.6489 -82.6489 -82.6489 -82.6489 -82.6489 -82.6489 -82.6489
   -82.6489 -82.6489 -82.6489 -82.6489 -82.6489 -82.6489 -82.6489 -82.6487
   -48.4871 -48.4871 -48.4871 -48.4871 -48.4871 -48.4871 -48.4871 -48.4871
   -48.4871 -48.4871 -48.4871 -48.4871 -48.4871 -48.4871 -48.4871 -48.4871
   -48.4871 -48.4871 -48.4871 -48.4871 -48.4871 -48.4871 -48.4871 -48.4871
   -48.4871 -48.4871 -48.4871 -48.4871 -48.4871 -48.4871 -48.4871 -48.4871
   -48.4871 -48.4871 -48.4871 -48.4871 -48.4871 -48.4871 -48.4871 -48.4871
   -48.4871 -48.4871 -48.4871 -48.4871 -48.4871 -48.4871 -48.4871 -48.4871
   -48.4871 -48.4871 -48.4871 -48.4871 -48.4871 -48.4871 -48.4871 -48.4870
   -48.4870 -48.4870 -48.4870 -48.4870 -48.4870 -48.4870 -48.4870 -48.4870
   -48.4870 -48.4870 -48.4870 -48.4870 -48.4870 -48.4870 -48.4870 -48.4870
   -48.4870 -48.4870 -48.4870 -48.4870 -48.4870 -48.4870 -48.4870 -48.4870
   -48.4870 -48.4870 -48.4870 -48.4870 -48.4870 -48.4870 -48.4870 -48.4870
   -48.4870 -48.4870 -48.4870 -48.4870 -48.4870 -48.4869 -48.4869 -48.4869
    -1.2697  -1.2630  -1.2630  -1.2630  -1.2581  -1.2575  -1.2575  -1.2575
    -1.2548  -1.2548  -1.2548  -1.2337  -1.2337  -1.2337  -1.2281  -1.2281
    -1.2281  -1.2147  -1.2147  -1.2147  -1.2134  -1.2134  -1.2134  -1.2134
    -1.2134  -1.2134  -1.2107  -1.2107  -1.2107  -1.2107  -1.2107  -1.2107
    -1.2085  -1.2085  -1.2085  -1.2077  -1.2077  -1.2077  -1.1991  -1.1991
    -1.1991  -1.1990  -1.1985  -1.1985  -1.1978  -1.1978  -1.1978  -1.1976
    -1.1976  -1.1976  -1.1974  -1.1974  -1.1969  -1.1969  -1.1969  -1.1965
    -1.1965  -1.1965  -1.1965  -1.1965  -1.1965  -1.1955  -1.1955  -1.1955
    -1.1955  -1.1955  -1.1955  -1.1906  -1.1906  -1.1906  -1.1827  -1.1827
    -1.1827  -1.1827  -1.1827  -1.1827  -1.1646  -1.1646  -1.1646  -1.1646
    -1.1646  -1.1646  -1.1643  -1.1643  -1.1643  -1.1609  -1.1609  -1.1609
    -1.1568  -1.1568  -1.1568  -1.1566  -1.1566  -1.1566  -1.1515  -1.1515
    -1.1512  -1.1512  -1.1512  -1.1495  -1.1495  -1.1495  -1.1482  -1.1482
    -1.1482  -1.1481  -1.1481  -1.1481  -1.1477  -1.1477  -1.1477  -1.1477
    -1.1477  -1.1477  -1.1463  -1.1463  -1.1463  -1.1436  -1.1436  -1.1436
    -1.1436  -1.1436  -1.1436  -1.1422  -1.1422  -1.1422  -1.1422  -1.1422
    -1.1422  -1.1411  -1.1411  -1.1411  -1.1335  -1.1335  -1.1335  -1.1300
    -1.1300  -1.1300  -1.1135  -1.1135  -1.1135  -1.1112  -1.1112  -1.1112
    -1.1107  -1.1107  -1.1101  -1.1101  -1.1101  -1.1004  -1.1004  -1.1004
    -1.1001  -1.1001  -1.1001  -1.1001  -1.1001  -1.1001  -1.1000  -1.1000
    -1.1000  -0.6903  -0.6903  -0.6903  -0.5517  -0.5517  -0.5517  -0.1693
    -0.1693  -0.1693  -0.0548  -0.0547  -0.0547  -0.0547  -0.0547  -0.0547
     0.0518   0.0518   0.0518   0.1403   0.1671   0.1671   0.1671   0.6430
     0.6431   0.6431   0.6810   0.6811   0.6811   0.6811   0.6811   0.6811
     1.9030   1.9031   1.9031   1.9310   2.3287   2.3287   2.3287   2.9502
     2.9502   2.9503   2.9975   2.9975   2.9975   2.9976   2.9976   2.9976
     3.0502   3.0502   3.0502   3.0503   3.0503   3.0505   3.1589   3.1591
     3.1656   3.1670

          k = 0.0287 0.0287 0.0862 (218345 PWs)   bands (ev):

   -82.6489 -82.6489 -82.6489 -82.6489 -82.6489 -82.6489 -82.6489 -82.6489
   -82.6489 -82.6489 -82.6489 -82.6489 -82.6489 -82.6489 -82.6489 -82.6489
   -82.6489 -82.6489 -82.6489 -82.6489 -82.6489 -82.6489 -82.6489 -82.6489
   -82.6489 -82.6489 -82.6489 -82.6489 -82.6489 -82.6489 -82.6489 -82.6487
   -48.4871 -48.4871 -48.4871 -48.4871 -48.4871 -48.4871 -48.4871 -48.4871
   -48.4871 -48.4871 -48.4871 -48.4871 -48.4871 -48.4871 -48.4871 -48.4871
   -48.4871 -48.4871 -48.4871 -48.4871 -48.4871 -48.4871 -48.4871 -48.4871
   -48.4871 -48.4871 -48.4871 -48.4871 -48.4871 -48.4871 -48.4871 -48.4871
   -48.4871 -48.4871 -48.4871 -48.4871 -48.4871 -48.4871 -48.4871 -48.4871
   -48.4871 -48.4871 -48.4871 -48.4871 -48.4871 -48.4871 -48.4871 -48.4871
   -48.4871 -48.4871 -48.4871 -48.4871 -48.4871 -48.4870 -48.4870 -48.4870
   -48.4870 -48.4870 -48.4870 -48.4870 -48.4870 -48.4870 -48.4870 -48.4870
   -48.4870 -48.4870 -48.4870 -48.4870 -48.4870 -48.4870 -48.4870 -48.4870
   -48.4870 -48.4870 -48.4870 -48.4870 -48.4870 -48.4870 -48.4870 -48.4870
   -48.4870 -48.4870 -48.4870 -48.4870 -48.4870 -48.4870 -48.4870 -48.4870
   -48.4870 -48.4870 -48.4870 -48.4870 -48.4870 -48.4869 -48.4869 -48.4869
    -1.2621  -1.2611  -1.2611  -1.2564  -1.2553  -1.2553  -1.2548  -1.2541
    -1.2532  -1.2527  -1.2527  -1.2392  -1.2323  -1.2323  -1.2269  -1.2269
    -1.2225  -1.2175  -1.2174  -1.2174  -1.2174  -1.2166  -1.2163  -1.2145
    -1.2145  -1.2139  -1.2139  -1.2134  -1.2130  -1.2130  -1.2119  -1.2119
    -1.2092  -1.2092  -1.2061  -1.2061  -1.2059  -1.2059  -1.2059  -1.2059
    -1.2009  -1.2009  -1.2003  -1.2003  -1.1998  -1.1983  -1.1980  -1.1980
    -1.1977  -1.1974  -1.1974  -1.1973  -1.1973  -1.1971  -1.1971  -1.1971
    -1.1965  -1.1965  -1.1965  -1.1955  -1.1955  -1.1952  -1.1946  -1.1946
    -1.1946  -1.1946  -1.1940  -1.1908  -1.1871  -1.1871  -1.1827  -1.1827
    -1.1824  -1.1824  -1.1698  -1.1698  -1.1696  -1.1685  -1.1685  -1.1678
    -1.1678  -1.1677  -1.1677  -1.1669  -1.1669  -1.1655  -1.1651  -1.1648
    -1.1620  -1.1620  -1.1612  -1.1612  -1.1568  -1.1568  -1.1534  -1.1534
    -1.1533  -1.1533  -1.1524  -1.1520  -1.1520  -1.1509  -1.1483  -1.1483
    -1.1482  -1.1482  -1.1465  -1.1460  -1.1460  -1.1460  -1.1460  -1.1440
    -1.1433  -1.1433  -1.1424  -1.1424  -1.1421  -1.1419  -1.1419  -1.1401
    -1.1401  -1.1399  -1.1395  -1.1395  -1.1395  -1.1376  -1.1376  -1.1375
    -1.1375  -1.1370  -1.1367  -1.1361  -1.1361  -1.1323  -1.1323  -1.1284
    -1.1284  -1.1265  -1.1148  -1.1148  -1.1142  -1.1134  -1.1134  -1.1131
    -1.1126  -1.1116  -1.1109  -1.1106  -1.1106  -1.1034  -1.1034  -1.1021
    -1.1019  -1.1019  -1.1019  -1.1019  -1.1016  -1.1001  -1.1001  -1.1001
    -1.1001  -0.8153  -0.6741  -0.6741  -0.5361  -0.5361  -0.4006  -0.2762
    -0.2762  -0.1566  -0.1553  -0.1553  -0.0435  -0.0435   0.0610   0.0650
     0.0650   0.0998   0.1507   0.1508   0.1614   0.1614   0.1773   0.5675
     0.6452   0.6452   0.6520   0.6521   0.6589   0.6590   0.6787   0.6787
     1.9227   1.9502   1.9503   2.0034   2.3486   2.3486   2.4235   2.8012
     2.8580   2.8580   2.8734   2.8734   2.9048   2.9049   2.9392   2.9392
     2.9546   2.9547   2.9808   2.9809   3.0228   3.1138   3.1138   3.1704
     3.1718   3.1948

          k = 0.0287 0.0287 0.1436 (218273 PWs)   bands (ev):

   -82.6489 -82.6489 -82.6489 -82.6489 -82.6489 -82.6489 -82.6489 -82.6489
   -82.6489 -82.6489 -82.6489 -82.6489 -82.6489 -82.6489 -82.6489 -82.6489
   -82.6489 -82.6489 -82.6489 -82.6489 -82.6489 -82.6489 -82.6489 -82.6489
   -82.6489 -82.6489 -82.6489 -82.6489 -82.6489 -82.6489 -82.6489 -82.6487
   -48.4871 -48.4871 -48.4871 -48.4871 -48.4871 -48.4871 -48.4871 -48.4871
   -48.4871 -48.4871 -48.4871 -48.4871 -48.4871 -48.4871 -48.4871 -48.4871
   -48.4871 -48.4871 -48.4871 -48.4871 -48.4871 -48.4871 -48.4871 -48.4871
   -48.4871 -48.4871 -48.4871 -48.4871 -48.4871 -48.4871 -48.4871 -48.4871
   -48.4871 -48.4871 -48.4871 -48.4871 -48.4871 -48.4871 -48.4871 -48.4871
   -48.4871 -48.4871 -48.4871 -48.4871 -48.4871 -48.4870 -48.4870 -48.4870
   -48.4870 -48.4870 -48.4870 -48.4870 -48.4870 -48.4870 -48.4870 -48.4870
   -48.4870 -48.4870 -48.4870 -48.4870 -48.4870 -48.4870 -48.4870 -48.4870
   -48.4870 -48.4870 -48.4870 -48.4870 -48.4870 -48.4870 -48.4870 -48.4870
   -48.4870 -48.4870 -48.4870 -48.4870 -48.4870 -48.4870 -48.4870 -48.4870
   -48.4870 -48.4870 -48.4870 -48.4870 -48.4870 -48.4870 -48.4870 -48.4870
   -48.4870 -48.4870 -48.4870 -48.4870 -48.4870 -48.4869 -48.4869 -48.4869
    -1.2601  -1.2572  -1.2572  -1.2526  -1.2510  -1.2510  -1.2500  -1.2500
    -1.2486  -1.2486  -1.2445  -1.2297  -1.2297  -1.2251  -1.2251  -1.2247
    -1.2245  -1.2245  -1.2242  -1.2214  -1.2212  -1.2205  -1.2205  -1.2197
    -1.2197  -1.2190  -1.2190  -1.2173  -1.2162  -1.2161  -1.2123  -1.2123
    -1.2122  -1.2122  -1.2089  -1.2089  -1.2074  -1.2074  -1.2025  -1.2025
    -1.2016  -1.1989  -1.1988  -1.1988  -1.1985  -1.1985  -1.1984  -1.1984
    -1.1983  -1.1983  -1.1976  -1.1975  -1.1970  -1.1964  -1.1964  -1.1946
    -1.1946  -1.1945  -1.1945  -1.1940  -1.1940  -1.1936  -1.1930  -1.1930
    -1.1923  -1.1915  -1.1915  -1.1852  -1.1852  -1.1833  -1.1824  -1.1824
    -1.1818  -1.1818  -1.1758  -1.1755  -1.1755  -1.1732  -1.1732  -1.1730
    -1.1725  -1.1718  -1.1718  -1.1715  -1.1712  -1.1712  -1.1682  -1.1682
    -1.1671  -1.1671  -1.1609  -1.1609  -1.1571  -1.1571  -1.1560  -1.1560
    -1.1545  -1.1545  -1.1533  -1.1497  -1.1494  -1.1494  -1.1490  -1.1490
    -1.1486  -1.1486  -1.1438  -1.1438  -1.1428  -1.1428  -1.1414  -1.1414
    -1.1405  -1.1405  -1.1402  -1.1398  -1.1395  -1.1395  -1.1374  -1.1357
    -1.1355  -1.1355  -1.1350  -1.1350  -1.1321  -1.1314  -1.1314  -1.1311
    -1.1311  -1.1310  -1.1310  -1.1306  -1.1306  -1.1300  -1.1300  -1.1272
    -1.1272  -1.1228  -1.1174  -1.1174  -1.1169  -1.1169  -1.1162  -1.1156
    -1.1155  -1.1140  -1.1129  -1.1124  -1.1124  -1.1091  -1.1091  -1.1054
    -1.1054  -1.1054  -1.1054  -1.1054  -1.1046  -1.1001  -1.1001  -1.1001
    -1.1001  -0.9256  -0.6422  -0.6422  -0.5054  -0.5054  -0.3737  -0.3736
    -0.2478  -0.2478  -0.2388  -0.1318  -0.0219  -0.0219   0.0506   0.0784
     0.1214   0.1214   0.1715   0.1864   0.1865   0.2705   0.2705   0.4377
     0.5958   0.5959   0.6152   0.6153   0.6493   0.6494   0.6742   0.6742
     1.9890   2.0410   2.0411   2.1151   2.3881   2.3881   2.5913   2.6074
     2.7098   2.7099   2.7309   2.7309   2.8229   2.8230   2.8256   2.8764
     2.8764   2.8828   2.8828   2.9200   2.9201   3.1165   3.1165   3.2437
     3.2438   3.3075

          k = 0.0287 0.0287 0.2011 (218307 PWs)   bands (ev):

   -82.6489 -82.6489 -82.6489 -82.6489 -82.6489 -82.6489 -82.6489 -82.6489
   -82.6489 -82.6489 -82.6489 -82.6489 -82.6489 -82.6489 -82.6489 -82.6489
   -82.6489 -82.6489 -82.6489 -82.6489 -82.6489 -82.6489 -82.6489 -82.6489
   -82.6489 -82.6489 -82.6489 -82.6489 -82.6489 -82.6489 -82.6489 -82.6487
   -48.4871 -48.4871 -48.4871 -48.4871 -48.4871 -48.4871 -48.4871 -48.4871
   -48.4871 -48.4871 -48.4871 -48.4871 -48.4871 -48.4871 -48.4871 -48.4871
   -48.4871 -48.4871 -48.4871 -48.4871 -48.4871 -48.4871 -48.4871 -48.4871
   -48.4871 -48.4871 -48.4871 -48.4871 -48.4871 -48.4871 -48.4871 -48.4871
   -48.4871 -48.4871 -48.4871 -48.4871 -48.4871 -48.4871 -48.4871 -48.4871
   -48.4871 -48.4871 -48.4871 -48.4871 -48.4871 -48.4871 -48.4871 -48.4870
   -48.4870 -48.4870 -48.4870 -48.4870 -48.4870 -48.4870 -48.4870 -48.4870
   -48.4870 -48.4870 -48.4870 -48.4870 -48.4870 -48.4870 -48.4870 -48.4870
   -48.4870 -48.4870 -48.4870 -48.4870 -48.4870 -48.4870 -48.4870 -48.4870
   -48.4870 -48.4870 -48.4870 -48.4870 -48.4870 -48.4870 -48.4870 -48.4870
   -48.4870 -48.4870 -48.4870 -48.4870 -48.4870 -48.4870 -48.4870 -48.4870
   -48.4870 -48.4870 -48.4870 -48.4870 -48.4869 -48.4869 -48.4869 -48.4869
    -1.2573  -1.2514  -1.2514  -1.2494  -1.2467  -1.2454  -1.2449  -1.2449
    -1.2436  -1.2430  -1.2429  -1.2348  -1.2348  -1.2325  -1.2304  -1.2288
    -1.2288  -1.2282  -1.2282  -1.2281  -1.2259  -1.2259  -1.2211  -1.2211
    -1.2194  -1.2194  -1.2178  -1.2178  -1.2151  -1.2151  -1.2124  -1.2121
    -1.2121  -1.2120  -1.2120  -1.2118  -1.2118  -1.2047  -1.1995  -1.1993
    -1.1992  -1.1992  -1.1987  -1.1987  -1.1980  -1.1980  -1.1975  -1.1971
    -1.1962  -1.1962  -1.1951  -1.1951  -1.1948  -1.1930  -1.1930  -1.1929
    -1.1929  -1.1912  -1.1906  -1.1897  -1.1897  -1.1893  -1.1893  -1.1883
    -1.1880  -1.1879  -1.1846  -1.1846  -1.1817  -1.1813  -1.1813  -1.1810
    -1.1807  -1.1804  -1.1804  -1.1798  -1.1798  -1.1794  -1.1791  -1.1791
    -1.1776  -1.1764  -1.1764  -1.1763  -1.1759  -1.1759  -1.1759  -1.1759
    -1.1727  -1.1727  -1.1694  -1.1694  -1.1574  -1.1574  -1.1572  -1.1572
    -1.1493  -1.1493  -1.1489  -1.1489  -1.1480  -1.1468  -1.1468  -1.1465
    -1.1435  -1.1435  -1.1432  -1.1421  -1.1421  -1.1412  -1.1412  -1.1410
    -1.1410  -1.1360  -1.1360  -1.1338  -1.1338  -1.1327  -1.1317  -1.1317
    -1.1316  -1.1316  -1.1309  -1.1297  -1.1297  -1.1289  -1.1273  -1.1273
    -1.1253  -1.1253  -1.1250  -1.1250  -1.1234  -1.1234  -1.1232  -1.1232
    -1.1232  -1.1216  -1.1216  -1.1214  -1.1214  -1.1206  -1.1198  -1.1189
    -1.1177  -1.1175  -1.1171  -1.1171  -1.1160  -1.1155  -1.1155  -1.1104
    -1.1104  -1.1103  -1.1103  -1.1101  -1.1090  -1.1001  -1.1001  -1.1001
    -1.1001  -1.0205  -0.5953  -0.5953  -0.4602  -0.4602  -0.4601  -0.4600
    -0.3303  -0.3303  -0.0962  -0.0688  -0.0016   0.0085   0.0085   0.0843
     0.0843   0.1020   0.1534   0.2780   0.3055   0.3056   0.3749   0.3749
     0.5159   0.5159   0.5514   0.5514   0.6550   0.6550   0.6682   0.6682
     2.0978   2.1695   2.1695   2.2597   2.4155   2.4468   2.4468   2.5121
     2.5121   2.6191   2.6191   2.6226   2.8017   2.8018   2.8069   2.8341
     2.8341   2.8373   2.8373   2.8538   2.8539   3.1627   3.1627   3.3055
     3.3056   3.3237

          k = 0.0287 0.0287-0.2585 (218330 PWs)   bands (ev):

   -82.6489 -82.6489 -82.6489 -82.6489 -82.6489 -82.6489 -82.6489 -82.6489
   -82.6489 -82.6489 -82.6489 -82.6489 -82.6489 -82.6489 -82.6489 -82.6489
   -82.6489 -82.6489 -82.6489 -82.6489 -82.6489 -82.6489 -82.6489 -82.6489
   -82.6489 -82.6489 -82.6489 -82.6489 -82.6489 -82.6489 -82.6489 -82.6487
   -48.4871 -48.4871 -48.4871 -48.4871 -48.4871 -48.4871 -48.4871 -48.4871
   -48.4871 -48.4871 -48.4871 -48.4871 -48.4871 -48.4871 -48.4871 -48.4871
   -48.4871 -48.4871 -48.4871 -48.4871 -48.4871 -48.4871 -48.4871 -48.4871
   -48.4871 -48.4871 -48.4871 -48.4871 -48.4871 -48.4871 -48.4871 -48.4871
   -48.4871 -48.4871 -48.4871 -48.4871 -48.4871 -48.4871 -48.4871 -48.4871
   -48.4871 -48.4871 -48.4871 -48.4871 -48.4871 -48.4871 -48.4871 -48.4871
   -48.4870 -48.4870 -48.4870 -48.4870 -48.4870 -48.4870 -48.4870 -48.4870
   -48.4870 -48.4870 -48.4870 -48.4870 -48.4870 -48.4870 -48.4870 -48.4870
   -48.4870 -48.4870 -48.4870 -48.4870 -48.4870 -48.4870 -48.4870 -48.4870
   -48.4870 -48.4870 -48.4870 -48.4870 -48.4870 -48.4870 -48.4870 -48.4870
   -48.4870 -48.4870 -48.4870 -48.4870 -48.4870 -48.4870 -48.4870 -48.4870
   -48.4870 -48.4870 -48.4870 -48.4870 -48.4870 -48.4869 -48.4869 -48.4869
    -1.2537  -1.2537  -1.2439  -1.2439  -1.2439  -1.2439  -1.2395  -1.2395
    -1.2391  -1.2391  -1.2373  -1.2373  -1.2373  -1.2373  -1.2360  -1.2360
    -1.2360  -1.2360  -1.2360  -1.2360  -1.2209  -1.2209  -1.2209  -1.2209
    -1.2190  -1.2190  -1.2190  -1.2190  -1.2169  -1.2169  -1.2169  -1.2169
    -1.2118  -1.2118  -1.2118  -1.2118  -1.2082  -1.2081  -1.1997  -1.1997
    -1.1991  -1.1991  -1.1991  -1.1991  -1.1973  -1.1973  -1.1958  -1.1958
    -1.1958  -1.1958  -1.1934  -1.1934  -1.1934  -1.1934  -1.1877  -1.1877
    -1.1876  -1.1876  -1.1871  -1.1871  -1.1869  -1.1869  -1.1855  -1.1855
    -1.1854  -1.1854  -1.1854  -1.1854  -1.1846  -1.1846  -1.1846  -1.1846
    -1.1833  -1.1833  -1.1803  -1.1803  -1.1803  -1.1803  -1.1791  -1.1791
    -1.1791  -1.1791  -1.1775  -1.1775  -1.1775  -1.1775  -1.1772  -1.1772
    -1.1772  -1.1772  -1.1726  -1.1726  -1.1575  -1.1575  -1.1575  -1.1575
    -1.1492  -1.1492  -1.1492  -1.1492  -1.1458  -1.1458  -1.1449  -1.1449
    -1.1449  -1.1449  -1.1412  -1.1412  -1.1412  -1.1412  -1.1332  -1.1332
    -1.1332  -1.1332  -1.1293  -1.1293  -1.1293  -1.1293  -1.1288  -1.1288
    -1.1288  -1.1288  -1.1273  -1.1273  -1.1273  -1.1273  -1.1262  -1.1262
    -1.1250  -1.1250  -1.1242  -1.1242  -1.1242  -1.1242  -1.1228  -1.1228
    -1.1206  -1.1206  -1.1202  -1.1202  -1.1197  -1.1197  -1.1197  -1.1197
    -1.1165  -1.1165  -1.1165  -1.1165  -1.1165  -1.1165  -1.1165  -1.1165
    -1.1161  -1.1161  -1.1140  -1.1140  -1.1001  -1.1001  -1.1001  -1.1001
    -1.0981  -1.0981  -0.5343  -0.5343  -0.5343  -0.5343  -0.4015  -0.4015
    -0.4015  -0.4015  -0.0518  -0.0518   0.0451   0.0451   0.0451   0.0451
     0.1056   0.1056   0.1284   0.1284   0.4172   0.4172   0.4173   0.4173
     0.4700   0.4700   0.4700   0.4700   0.6615   0.6616   0.6616   0.6616
     2.2424   2.2425   2.3289   2.3289   2.3289   2.3290   2.4310   2.4311
     2.5240   2.5240   2.5240   2.5240   2.8121   2.8121   2.8121   2.8121
     2.8205   2.8206   2.8206   2.8206   3.0514   3.0514   3.2333   3.2334
     3.2334   3.2334

          k = 0.0287 0.0862 0.0862 (218302 PWs)   bands (ev):

   -82.6489 -82.6489 -82.6489 -82.6489 -82.6489 -82.6489 -82.6489 -82.6489
   -82.6489 -82.6489 -82.6489 -82.6489 -82.6489 -82.6489 -82.6489 -82.6489
   -82.6489 -82.6489 -82.6489 -82.6489 -82.6489 -82.6489 -82.6489 -82.6489
   -82.6489 -82.6489 -82.6489 -82.6489 -82.6489 -82.6489 -82.6489 -82.6487
   -48.4871 -48.4871 -48.4871 -48.4871 -48.4871 -48.4871 -48.4871 -48.4871
   -48.4871 -48.4871 -48.4871 -48.4871 -48.4871 -48.4871 -48.4871 -48.4871
   -48.4871 -48.4871 -48.4871 -48.4871 -48.4871 -48.4871 -48.4871 -48.4871
   -48.4871 -48.4871 -48.4871 -48.4871 -48.4871 -48.4871 -48.4871 -48.4871
   -48.4871 -48.4871 -48.4871 -48.4871 -48.4871 -48.4871 -48.4871 -48.4871
   -48.4871 -48.4871 -48.4871 -48.4871 -48.4871 -48.4870 -48.4870 -48.4870
   -48.4870 -48.4870 -48.4870 -48.4870 -48.4870 -48.4870 -48.4870 -48.4870
   -48.4870 -48.4870 -48.4870 -48.4870 -48.4870 -48.4870 -48.4870 -48.4870
   -48.4870 -48.4870 -48.4870 -48.4870 -48.4870 -48.4870 -48.4870 -48.4870
   -48.4870 -48.4870 -48.4870 -48.4870 -48.4870 -48.4870 -48.4870 -48.4870
   -48.4870 -48.4870 -48.4870 -48.4870 -48.4870 -48.4870 -48.4870 -48.4870
   -48.4870 -48.4870 -48.4870 -48.4870 -48.4870 -48.4869 -48.4869 -48.4869
    -1.2601  -1.2601  -1.2597  -1.2554  -1.2538  -1.2522  -1.2522  -1.2511
    -1.2511  -1.2501  -1.2396  -1.2378  -1.2378  -1.2316  -1.2263  -1.2218
    -1.2215  -1.2215  -1.2207  -1.2207  -1.2186  -1.2186  -1.2164  -1.2164
    -1.2145  -1.2145  -1.2139  -1.2139  -1.2138  -1.2138  -1.2131  -1.2131
    -1.2122  -1.2122  -1.2088  -1.2088  -1.2058  -1.2058  -1.2056  -1.2043
    -1.2043  -1.2039  -1.2022  -1.2022  -1.1999  -1.1998  -1.1997  -1.1994
    -1.1991  -1.1991  -1.1981  -1.1980  -1.1980  -1.1979  -1.1979  -1.1969
    -1.1968  -1.1962  -1.1962  -1.1957  -1.1954  -1.1949  -1.1944  -1.1933
    -1.1933  -1.1917  -1.1917  -1.1891  -1.1891  -1.1810  -1.1810  -1.1810
    -1.1737  -1.1737  -1.1712  -1.1712  -1.1703  -1.1703  -1.1703  -1.1703
    -1.1691  -1.1691  -1.1686  -1.1686  -1.1667  -1.1667  -1.1664  -1.1651
    -1.1651  -1.1632  -1.1632  -1.1620  -1.1607  -1.1598  -1.1574  -1.1560
    -1.1534  -1.1533  -1.1526  -1.1509  -1.1501  -1.1501  -1.1495  -1.1495
    -1.1492  -1.1492  -1.1478  -1.1478  -1.1454  -1.1454  -1.1447  -1.1424
    -1.1424  -1.1423  -1.1423  -1.1400  -1.1400  -1.1398  -1.1398  -1.1386
    -1.1386  -1.1386  -1.1386  -1.1361  -1.1361  -1.1359  -1.1359  -1.1341
    -1.1341  -1.1330  -1.1320  -1.1320  -1.1319  -1.1319  -1.1307  -1.1265
    -1.1244  -1.1244  -1.1164  -1.1160  -1.1159  -1.1159  -1.1158  -1.1158
    -1.1150  -1.1120  -1.1105  -1.1105  -1.1103  -1.1051  -1.1047  -1.1047
    -1.1034  -1.1034  -1.1019  -1.1019  -1.1018  -1.1018  -1.1016  -1.1016
    -1.1012  -0.7986  -0.7986  -0.6581  -0.5207  -0.3881  -0.3859  -0.3858
    -0.2625  -0.2625  -0.1427  -0.1427  -0.0275  -0.0275   0.0393   0.0740
     0.0740   0.1107   0.1678   0.1678   0.1876   0.1876   0.2586   0.5715
     0.5715   0.6327   0.6328   0.6422   0.6422   0.6469   0.6626   0.6626
     1.9421   1.9422   2.0220   2.0968   2.3683   2.4399   2.4399   2.7220
     2.7221   2.8096   2.8097   2.8168   2.8404   2.8405   2.8667   2.8667
     2.8697   2.8697   3.0296   3.0297   3.0568   3.0569   3.1607   3.1607
     3.2065   3.2066

          k = 0.0287 0.0862 0.1436 (218249 PWs)   bands (ev):

   -82.6489 -82.6489 -82.6489 -82.6489 -82.6489 -82.6489 -82.6489 -82.6489
   -82.6489 -82.6489 -82.6489 -82.6489 -82.6489 -82.6489 -82.6489 -82.6489
   -82.6489 -82.6489 -82.6489 -82.6489 -82.6489 -82.6489 -82.6489 -82.6489
   -82.6489 -82.6489 -82.6489 -82.6489 -82.6489 -82.6489 -82.6489 -82.6487
   -48.4871 -48.4871 -48.4871 -48.4871 -48.4871 -48.4871 -48.4871 -48.4871
   -48.4871 -48.4871 -48.4871 -48.4871 -48.4871 -48.4871 -48.4871 -48.4871
   -48.4871 -48.4871 -48.4871 -48.4871 -48.4871 -48.4871 -48.4871 -48.4871
   -48.4871 -48.4871 -48.4871 -48.4871 -48.4871 -48.4871 -48.4871 -48.4871
   -48.4871 -48.4871 -48.4871 -48.4871 -48.4871 -48.4871 -48.4871 -48.4871
   -48.4871 -48.4870 -48.4870 -48.4870 -48.4870 -48.4870 -48.4870 -48.4870
   -48.4870 -48.4870 -48.4870 -48.4870 -48.4870 -48.4870 -48.4870 -48.4870
   -48.4870 -48.4870 -48.4870 -48.4870 -48.4870 -48.4870 -48.4870 -48.4870
   -48.4870 -48.4870 -48.4870 -48.4870 -48.4870 -48.4870 -48.4870 -48.4870
   -48.4870 -48.4870 -48.4870 -48.4870 -48.4870 -48.4870 -48.4870 -48.4870
   -48.4870 -48.4870 -48.4870 -48.4870 -48.4870 -48.4870 -48.4870 -48.4870
   -48.4870 -48.4870 -48.4870 -48.4870 -48.4869 -48.4869 -48.4869 -48.4869
    -1.2582  -1.2569  -1.2563  -1.2521  -1.2502  -1.2479  -1.2477  -1.2473
    -1.2471  -1.2452  -1.2429  -1.2349  -1.2298  -1.2293  -1.2250  -1.2248
    -1.2242  -1.2237  -1.2228  -1.2220  -1.2216  -1.2206  -1.2196  -1.2194
    -1.2190  -1.2188  -1.2164  -1.2154  -1.2153  -1.2145  -1.2144  -1.2142
    -1.2133  -1.2132  -1.2127  -1.2110  -1.2110  -1.2081  -1.2067  -1.2055
    -1.2040  -1.2007  -1.2002  -1.2002  -1.2000  -1.1999  -1.1993  -1.1991
    -1.1988  -1.1985  -1.1981  -1.1981  -1.1981  -1.1976  -1.1968  -1.1968
    -1.1965  -1.1964  -1.1954  -1.1945  -1.1940  -1.1920  -1.1919  -1.1910
    -1.1901  -1.1899  -1.1868  -1.1858  -1.1817  -1.1788  -1.1787  -1.1780
    -1.1771  -1.1769  -1.1768  -1.1762  -1.1753  -1.1738  -1.1735  -1.1730
    -1.1727  -1.1726  -1.1695  -1.1687  -1.1682  -1.1682  -1.1682  -1.1677
    -1.1661  -1.1653  -1.1627  -1.1614  -1.1610  -1.1609  -1.1573  -1.1548
    -1.1547  -1.1536  -1.1535  -1.1533  -1.1520  -1.1519  -1.1518  -1.1495
    -1.1474  -1.1456  -1.1446  -1.1440  -1.1434  -1.1433  -1.1433  -1.1424
    -1.1415  -1.1410  -1.1400  -1.1397  -1.1383  -1.1379  -1.1372  -1.1357
    -1.1357  -1.1349  -1.1335  -1.1323  -1.1317  -1.1314  -1.1303  -1.1301
    -1.1292  -1.1283  -1.1277  -1.1268  -1.1266  -1.1263  -1.1260  -1.1247
    -1.1231  -1.1208  -1.1205  -1.1202  -1.1197  -1.1192  -1.1189  -1.1185
    -1.1178  -1.1134  -1.1116  -1.1112  -1.1112  -1.1103  -1.1095  -1.1073
    -1.1065  -1.1064  -1.1055  -1.1053  -1.1046  -1.1020  -1.1018  -1.1018
    -1.1017  -0.9086  -0.7658  -0.6263  -0.4901  -0.4893  -0.3592  -0.3567
    -0.2355  -0.2342  -0.2250  -0.1182  -0.1135  -0.0251   0.0621   0.0911
     0.1042   0.1793   0.1821   0.1925   0.2079   0.2730   0.3531   0.4442
     0.5729   0.5791   0.5814   0.5941   0.6299   0.6303   0.6499   0.6632
     1.9811   2.0078   2.1326   2.2246   2.4076   2.4723   2.5320   2.6016
     2.6191   2.6704   2.7400   2.7447   2.7471   2.7751   2.7783   2.7880
     2.8235   2.8358   2.8824   2.9634   2.9637   3.0984   3.1724   3.1759
     3.2862   3.2939

          k = 0.0287 0.0862 0.2011 (218289 PWs)   bands (ev):

   -82.6489 -82.6489 -82.6489 -82.6489 -82.6489 -82.6489 -82.6489 -82.6489
   -82.6489 -82.6489 -82.6489 -82.6489 -82.6489 -82.6489 -82.6489 -82.6489
   -82.6489 -82.6489 -82.6489 -82.6489 -82.6489 -82.6489 -82.6489 -82.6489
   -82.6489 -82.6489 -82.6489 -82.6489 -82.6489 -82.6489 -82.6489 -82.6487
   -48.4871 -48.4871 -48.4871 -48.4871 -48.4871 -48.4871 -48.4871 -48.4871
   -48.4871 -48.4871 -48.4871 -48.4871 -48.4871 -48.4871 -48.4871 -48.4871
   -48.4871 -48.4871 -48.4871 -48.4871 -48.4871 -48.4871 -48.4871 -48.4871
   -48.4871 -48.4871 -48.4871 -48.4871 -48.4871 -48.4871 -48.4871 -48.4871
   -48.4871 -48.4871 -48.4871 -48.4871 -48.4871 -48.4871 -48.4871 -48.4871
   -48.4871 -48.4871 -48.4871 -48.4871 -48.4871 -48.4871 -48.4871 -48.4870
   -48.4870 -48.4870 -48.4870 -48.4870 -48.4870 -48.4870 -48.4870 -48.4870
   -48.4870 -48.4870 -48.4870 -48.4870 -48.4870 -48.4870 -48.4870 -48.4870
   -48.4870 -48.4870 -48.4870 -48.4870 -48.4870 -48.4870 -48.4870 -48.4870
   -48.4870 -48.4870 -48.4870 -48.4870 -48.4870 -48.4870 -48.4870 -48.4870
   -48.4870 -48.4870 -48.4870 -48.4870 -48.4870 -48.4870 -48.4870 -48.4870
   -48.4870 -48.4870 -48.4870 -48.4870 -48.4870 -48.4869 -48.4869 -48.4869
    -1.2555  -1.2522  -1.2505  -1.2477  -1.2468  -1.2447  -1.2434  -1.2416
    -1.2414  -1.2410  -1.2387  -1.2381  -1.2340  -1.2312  -1.2306  -1.2306
    -1.2293  -1.2271  -1.2269  -1.2269  -1.2264  -1.2264  -1.2258  -1.2228
    -1.2223  -1.2195  -1.2189  -1.2184  -1.2171  -1.2169  -1.2165  -1.2120
    -1.2119  -1.2117  -1.2115  -1.2096  -1.2071  -1.2064  -1.2062  -1.2054
    -1.2050  -1.2016  -1.2008  -1.2008  -1.2007  -1.2007  -1.1999  -1.1987
    -1.1982  -1.1972  -1.1970  -1.1963  -1.1962  -1.1957  -1.1943  -1.1942
    -1.1932  -1.1925  -1.1916  -1.1913  -1.1912  -1.1906  -1.1886  -1.1881
    -1.1858  -1.1854  -1.1840  -1.1829  -1.1824  -1.1806  -1.1797  -1.1790
    -1.1786  -1.1785  -1.1780  -1.1766  -1.1761  -1.1760  -1.1749  -1.1748
    -1.1748  -1.1743  -1.1742  -1.1740  -1.1714  -1.1701  -1.1699  -1.1690
    -1.1690  -1.1689  -1.1657  -1.1656  -1.1640  -1.1626  -1.1614  -1.1588
    -1.1538  -1.1534  -1.1501  -1.1491  -1.1481  -1.1457  -1.1450  -1.1449
    -1.1431  -1.1429  -1.1427  -1.1416  -1.1411  -1.1407  -1.1403  -1.1393
    -1.1384  -1.1375  -1.1370  -1.1364  -1.1363  -1.1363  -1.1361  -1.1319
    -1.1311  -1.1306  -1.1288  -1.1278  -1.1276  -1.1271  -1.1262  -1.1260
    -1.1255  -1.1251  -1.1245  -1.1242  -1.1239  -1.1237  -1.1232  -1.1232
    -1.1225  -1.1223  -1.1219  -1.1217  -1.1211  -1.1209  -1.1208  -1.1208
    -1.1181  -1.1165  -1.1163  -1.1155  -1.1139  -1.1135  -1.1132  -1.1113
    -1.1106  -1.1105  -1.1105  -1.1102  -1.1084  -1.1020  -1.1019  -1.1018
    -1.1017  -1.0034  -0.7176  -0.5797  -0.5785  -0.4452  -0.4451  -0.3161
    -0.3138  -0.1963  -0.1910  -0.0884  -0.0830  -0.0563   0.0106   0.1142
     0.1645   0.1934   0.2127   0.2358   0.2869   0.3076   0.3725   0.4408
     0.4770   0.5073   0.5365   0.5819   0.5898   0.6164   0.6539   0.6614
     2.0657   2.1154   2.2759   2.3495   2.3810   2.4297   2.4660   2.5201
     2.6353   2.6369   2.6493   2.6578   2.6991   2.7054   2.7152   2.7576
     2.7893   2.8091   2.8229   2.8642   2.8927   3.0637   3.1887   3.3070
     3.3295   3.3490

          k = 0.0287 0.0862-0.2585 (218340 PWs)   bands (ev):

   -82.6489 -82.6489 -82.6489 -82.6489 -82.6489 -82.6489 -82.6489 -82.6489
   -82.6489 -82.6489 -82.6489 -82.6489 -82.6489 -82.6489 -82.6489 -82.6489
   -82.6489 -82.6489 -82.6489 -82.6489 -82.6489 -82.6489 -82.6489 -82.6489
   -82.6489 -82.6489 -82.6489 -82.6489 -82.6489 -82.6489 -82.6489 -82.6487
   -48.4871 -48.4871 -48.4871 -48.4871 -48.4871 -48.4871 -48.4871 -48.4871
   -48.4871 -48.4871 -48.4871 -48.4871 -48.4871 -48.4871 -48.4871 -48.4871
   -48.4871 -48.4871 -48.4871 -48.4871 -48.4871 -48.4871 -48.4871 -48.4871
   -48.4871 -48.4871 -48.4871 -48.4871 -48.4871 -48.4871 -48.4871 -48.4871
   -48.4871 -48.4871 -48.4871 -48.4871 -48.4871 -48.4871 -48.4871 -48.4871
   -48.4871 -48.4871 -48.4871 -48.4871 -48.4871 -48.4871 -48.4871 -48.4871
   -48.4871 -48.4870 -48.4870 -48.4870 -48.4870 -48.4870 -48.4870 -48.4870
   -48.4870 -48.4870 -48.4870 -48.4870 -48.4870 -48.4870 -48.4870 -48.4870
   -48.4870 -48.4870 -48.4870 -48.4870 -48.4870 -48.4870 -48.4870 -48.4870
   -48.4870 -48.4870 -48.4870 -48.4870 -48.4870 -48.4870 -48.4870 -48.4870
   -48.4870 -48.4870 -48.4870 -48.4870 -48.4870 -48.4870 -48.4870 -48.4870
   -48.4870 -48.4870 -48.4870 -48.4870 -48.4870 -48.4869 -48.4869 -48.4869
    -1.2519  -1.2519  -1.2459  -1.2459  -1.2430  -1.2430  -1.2397  -1.2397
    -1.2376  -1.2376  -1.2375  -1.2375  -1.2345  -1.2345  -1.2343  -1.2343
    -1.2338  -1.2338  -1.2309  -1.2309  -1.2267  -1.2267  -1.2251  -1.2250
    -1.2234  -1.2234  -1.2200  -1.2200  -1.2186  -1.2186  -1.2131  -1.2131
    -1.2112  -1.2112  -1.2091  -1.2091  -1.2077  -1.2077  -1.2061  -1.2061
    -1.2015  -1.2015  -1.2014  -1.2014  -1.2009  -1.2009  -1.2009  -1.2009
    -1.1984  -1.1984  -1.1961  -1.1961  -1.1928  -1.1928  -1.1921  -1.1921
    -1.1905  -1.1905  -1.1889  -1.1889  -1.1880  -1.1880  -1.1873  -1.1873
    -1.1857  -1.1857  -1.1842  -1.1842  -1.1842  -1.1842  -1.1806  -1.1806
    -1.1801  -1.1801  -1.1781  -1.1781  -1.1772  -1.1772  -1.1760  -1.1760
    -1.1754  -1.1754  -1.1732  -1.1732  -1.1716  -1.1716  -1.1700  -1.1700
    -1.1696  -1.1696  -1.1689  -1.1689  -1.1653  -1.1653  -1.1608  -1.1608
    -1.1538  -1.1538  -1.1473  -1.1473  -1.1461  -1.1461  -1.1450  -1.1450
    -1.1440  -1.1440  -1.1407  -1.1407  -1.1380  -1.1380  -1.1357  -1.1357
    -1.1338  -1.1338  -1.1326  -1.1326  -1.1317  -1.1317  -1.1304  -1.1304
    -1.1299  -1.1299  -1.1298  -1.1298  -1.1297  -1.1297  -1.1254  -1.1254
    -1.1253  -1.1253  -1.1250  -1.1250  -1.1248  -1.1248  -1.1216  -1.1216
    -1.1205  -1.1205  -1.1173  -1.1173  -1.1171  -1.1171  -1.1169  -1.1169
    -1.1164  -1.1164  -1.1163  -1.1163  -1.1163  -1.1163  -1.1156  -1.1156
    -1.1155  -1.1154  -1.1125  -1.1125  -1.1020  -1.1020  -1.1017  -1.1017
    -1.0816  -1.0816  -0.6549  -0.6549  -0.5190  -0.5190  -0.3869  -0.3869
    -0.2582  -0.2582  -0.1465  -0.1465  -0.0391  -0.0391   0.1165   0.1165
     0.1401   0.1401   0.2062   0.2062   0.3622   0.3622   0.4143   0.4144
     0.4617   0.4617   0.5181   0.5181   0.6026   0.6026   0.6580   0.6580
     2.1909   2.1909   2.2586   2.2586   2.4456   2.4457   2.5428   2.5428
     2.5606   2.5606   2.5824   2.5824   2.6610   2.6610   2.6900   2.6900
     2.8193   2.8193   2.8455   2.8455   3.0434   3.0434   3.1070   3.1070
     3.4253   3.4253

          k = 0.0287 0.1436 0.1436 (218319 PWs)   bands (ev):

   -82.6489 -82.6489 -82.6489 -82.6489 -82.6489 -82.6489 -82.6489 -82.6489
   -82.6489 -82.6489 -82.6489 -82.6489 -82.6489 -82.6489 -82.6489 -82.6489
   -82.6489 -82.6489 -82.6489 -82.6489 -82.6489 -82.6489 -82.6489 -82.6489
   -82.6489 -82.6489 -82.6489 -82.6489 -82.6489 -82.6489 -82.6489 -82.6487
   -48.4871 -48.4871 -48.4871 -48.4871 -48.4871 -48.4871 -48.4871 -48.4871
   -48.4871 -48.4871 -48.4871 -48.4871 -48.4871 -48.4871 -48.4871 -48.4871
   -48.4871 -48.4871 -48.4871 -48.4871 -48.4871 -48.4871 -48.4871 -48.4871
   -48.4871 -48.4871 -48.4871 -48.4871 -48.4871 -48.4871 -48.4871 -48.4871
   -48.4871 -48.4871 -48.4871 -48.4871 -48.4871 -48.4871 -48.4871 -48.4871
   -48.4871 -48.4871 -48.4871 -48.4871 -48.4871 -48.4871 -48.4871 -48.4871
   -48.4871 -48.4871 -48.4871 -48.4870 -48.4870 -48.4870 -48.4870 -48.4870
   -48.4870 -48.4870 -48.4870 -48.4870 -48.4870 -48.4870 -48.4870 -48.4870
   -48.4870 -48.4870 -48.4870 -48.4870 -48.4870 -48.4870 -48.4870 -48.4870
   -48.4870 -48.4870 -48.4870 -48.4870 -48.4870 -48.4870 -48.4870 -48.4870
   -48.4870 -48.4870 -48.4870 -48.4870 -48.4870 -48.4870 -48.4870 -48.4870
   -48.4870 -48.4870 -48.4870 -48.4870 -48.4870 -48.4869 -48.4869 -48.4869
    -1.2552  -1.2545  -1.2545  -1.2497  -1.2475  -1.2440  -1.2440  -1.2429
    -1.2429  -1.2398  -1.2398  -1.2395  -1.2322  -1.2322  -1.2296  -1.2293
    -1.2254  -1.2227  -1.2227  -1.2226  -1.2226  -1.2221  -1.2221  -1.2213
    -1.2213  -1.2192  -1.2192  -1.2168  -1.2168  -1.2167  -1.2167  -1.2147
    -1.2147  -1.2138  -1.2138  -1.2134  -1.2134  -1.2076  -1.2068  -1.2061
    -1.2061  -1.2032  -1.2032  -1.2013  -1.2013  -1.2011  -1.2011  -1.2002
    -1.2002  -1.1989  -1.1978  -1.1972  -1.1972  -1.1971  -1.1971  -1.1970
    -1.1965  -1.1962  -1.1953  -1.1953  -1.1935  -1.1922  -1.1899  -1.1888
    -1.1860  -1.1860  -1.1821  -1.1821  -1.1789  -1.1789  -1.1778  -1.1778
    -1.1767  -1.1767  -1.1752  -1.1740  -1.1740  -1.1737  -1.1737  -1.1730
    -1.1730  -1.1697  -1.1683  -1.1669  -1.1667  -1.1661  -1.1660  -1.1660
    -1.1637  -1.1637  -1.1622  -1.1618  -1.1618  -1.1608  -1.1607  -1.1553
    -1.1553  -1.1546  -1.1511  -1.1511  -1.1499  -1.1499  -1.1496  -1.1493
    -1.1493  -1.1482  -1.1482  -1.1461  -1.1461  -1.1457  -1.1445  -1.1445
    -1.1441  -1.1398  -1.1398  -1.1372  -1.1372  -1.1347  -1.1347  -1.1317
    -1.1317  -1.1316  -1.1316  -1.1290  -1.1290  -1.1279  -1.1279  -1.1269
    -1.1260  -1.1253  -1.1246  -1.1246  -1.1244  -1.1244  -1.1237  -1.1226
    -1.1226  -1.1223  -1.1223  -1.1222  -1.1216  -1.1215  -1.1208  -1.1192
    -1.1192  -1.1140  -1.1139  -1.1112  -1.1112  -1.1112  -1.1106  -1.1106
    -1.1084  -1.1084  -1.1055  -1.1055  -1.1052  -1.1052  -1.1047  -1.1047
    -1.1038  -0.8752  -0.8752  -0.5950  -0.5932  -0.4600  -0.3307  -0.3307
    -0.2077  -0.2077  -0.1979  -0.1978  -0.1006  -0.0010   0.0264   0.0265
     0.2033   0.2034   0.2283   0.2283   0.2767   0.2767   0.4308   0.4568
     0.4569   0.5476   0.5476   0.5517   0.5517   0.6409   0.6409   0.6508
     2.0193   2.0194   2.2580   2.3641   2.4465   2.4874   2.4875   2.5570
     2.5570   2.6216   2.6216   2.6601   2.6602   2.7736   2.7736   2.7770
     2.7771   2.7804   2.9818   2.9818   3.0608   3.0609   3.1204   3.1204
     3.1736   3.1811

          k = 0.0287 0.1436 0.2011 (218276 PWs)   bands (ev):

   -82.6489 -82.6489 -82.6489 -82.6489 -82.6489 -82.6489 -82.6489 -82.6489
   -82.6489 -82.6489 -82.6489 -82.6489 -82.6489 -82.6489 -82.6489 -82.6489
   -82.6489 -82.6489 -82.6489 -82.6489 -82.6489 -82.6489 -82.6489 -82.6489
   -82.6489 -82.6489 -82.6489 -82.6489 -82.6489 -82.6489 -82.6489 -82.6487
   -48.4871 -48.4871 -48.4871 -48.4871 -48.4871 -48.4871 -48.4871 -48.4871
   -48.4871 -48.4871 -48.4871 -48.4871 -48.4871 -48.4871 -48.4871 -48.4871
   -48.4871 -48.4871 -48.4871 -48.4871 -48.4871 -48.4871 -48.4871 -48.4871
   -48.4871 -48.4871 -48.4871 -48.4871 -48.4871 -48.4871 -48.4871 -48.4871
   -48.4871 -48.4871 -48.4871 -48.4871 -48.4871 -48.4871 -48.4871 -48.4871
   -48.4871 -48.4871 -48.4871 -48.4871 -48.4871 -48.4870 -48.4870 -48.4870
   -48.4870 -48.4870 -48.4870 -48.4870 -48.4870 -48.4870 -48.4870 -48.4870
   -48.4870 -48.4870 -48.4870 -48.4870 -48.4870 -48.4870 -48.4870 -48.4870
   -48.4870 -48.4870 -48.4870 -48.4870 -48.4870 -48.4870 -48.4870 -48.4870
   -48.4870 -48.4870 -48.4870 -48.4870 -48.4870 -48.4870 -48.4870 -48.4870
   -48.4870 -48.4870 -48.4870 -48.4870 -48.4870 -48.4870 -48.4870 -48.4870
   -48.4870 -48.4870 -48.4870 -48.4870 -48.4870 -48.4869 -48.4869 -48.4869
    -1.2519  -1.2518  -1.2488  -1.2452  -1.2444  -1.2430  -1.2402  -1.2395
    -1.2384  -1.2371  -1.2369  -1.2352  -1.2337  -1.2325  -1.2323  -1.2322
    -1.2313  -1.2299  -1.2287  -1.2269  -1.2253  -1.2250  -1.2245  -1.2243
    -1.2237  -1.2230  -1.2218  -1.2206  -1.2201  -1.2158  -1.2158  -1.2149
    -1.2142  -1.2137  -1.2136  -1.2124  -1.2117  -1.2104  -1.2079  -1.2060
    -1.2053  -1.2051  -1.2050  -1.2042  -1.2031  -1.2026  -1.2024  -1.2012
    -1.2005  -1.1983  -1.1982  -1.1975  -1.1972  -1.1970  -1.1957  -1.1951
    -1.1950  -1.1936  -1.1928  -1.1925  -1.1905  -1.1896  -1.1881  -1.1872
    -1.1871  -1.1867  -1.1819  -1.1816  -1.1811  -1.1810  -1.1799  -1.1779
    -1.1763  -1.1759  -1.1744  -1.1741  -1.1740  -1.1726  -1.1725  -1.1721
    -1.1708  -1.1697  -1.1695  -1.1692  -1.1681  -1.1678  -1.1669  -1.1660
    -1.1645  -1.1644  -1.1618  -1.1602  -1.1602  -1.1599  -1.1565  -1.1564
    -1.1557  -1.1556  -1.1536  -1.1514  -1.1503  -1.1497  -1.1477  -1.1464
    -1.1459  -1.1458  -1.1451  -1.1437  -1.1435  -1.1431  -1.1428  -1.1426
    -1.1409  -1.1394  -1.1392  -1.1333  -1.1324  -1.1322  -1.1320  -1.1309
    -1.1304  -1.1302  -1.1299  -1.1299  -1.1295  -1.1272  -1.1267  -1.1256
    -1.1255  -1.1245  -1.1242  -1.1240  -1.1234  -1.1224  -1.1220  -1.1210
    -1.1208  -1.1208  -1.1196  -1.1192  -1.1182  -1.1181  -1.1176  -1.1174
    -1.1157  -1.1157  -1.1148  -1.1129  -1.1125  -1.1125  -1.1121  -1.1111
    -1.1110  -1.1103  -1.1100  -1.1099  -1.1086  -1.1055  -1.1051  -1.1048
    -1.1048  -0.9697  -0.8262  -0.6845  -0.5488  -0.4156  -0.4156  -0.2890
    -0.2882  -0.1718  -0.1691  -0.1579  -0.0631  -0.0444  -0.0316   0.1685
     0.2166   0.2339   0.2585   0.2784   0.3043   0.3103   0.3661   0.4368
     0.4748   0.4886   0.5005   0.5058   0.5217   0.6065   0.6473   0.6513
     2.0771   2.1021   2.3184   2.3795   2.4117   2.4771   2.5042   2.5271
     2.5287   2.5656   2.5773   2.6502   2.6718   2.7277   2.7810   2.7977
     2.8114   2.8126   2.8192   2.9137   2.9629   3.0674   3.0785   3.1443
     3.1688   3.2988

          k = 0.0287 0.1436-0.2585 (218286 PWs)   bands (ev):

   -82.6489 -82.6489 -82.6489 -82.6489 -82.6489 -82.6489 -82.6489 -82.6489
   -82.6489 -82.6489 -82.6489 -82.6489 -82.6489 -82.6489 -82.6489 -82.6489
   -82.6489 -82.6489 -82.6489 -82.6489 -82.6489 -82.6489 -82.6489 -82.6489
   -82.6489 -82.6489 -82.6489 -82.6489 -82.6489 -82.6489 -82.6489 -82.6487
   -48.4871 -48.4871 -48.4871 -48.4871 -48.4871 -48.4871 -48.4871 -48.4871
   -48.4871 -48.4871 -48.4871 -48.4871 -48.4871 -48.4871 -48.4871 -48.4871
   -48.4871 -48.4871 -48.4871 -48.4871 -48.4871 -48.4871 -48.4871 -48.4871
   -48.4871 -48.4871 -48.4871 -48.4871 -48.4871 -48.4871 -48.4871 -48.4871
   -48.4871 -48.4871 -48.4871 -48.4871 -48.4871 -48.4871 -48.4871 -48.4871
   -48.4871 -48.4871 -48.4871 -48.4871 -48.4870 -48.4870 -48.4870 -48.4870
   -48.4870 -48.4870 -48.4870 -48.4870 -48.4870 -48.4870 -48.4870 -48.4870
   -48.4870 -48.4870 -48.4870 -48.4870 -48.4870 -48.4870 -48.4870 -48.4870
   -48.4870 -48.4870 -48.4870 -48.4870 -48.4870 -48.4870 -48.4870 -48.4870
   -48.4870 -48.4870 -48.4870 -48.4870 -48.4870 -48.4870 -48.4870 -48.4870
   -48.4870 -48.4870 -48.4870 -48.4870 -48.4870 -48.4870 -48.4870 -48.4870
   -48.4870 -48.4870 -48.4870 -48.4870 -48.4870 -48.4869 -48.4869 -48.4869
    -1.2484  -1.2484  -1.2468  -1.2468  -1.2414  -1.2414  -1.2390  -1.2390
    -1.2371  -1.2371  -1.2338  -1.2338  -1.2337  -1.2337  -1.2317  -1.2317
    -1.2306  -1.2306  -1.2303  -1.2303  -1.2291  -1.2291  -1.2269  -1.2269
    -1.2247  -1.2247  -1.2238  -1.2238  -1.2183  -1.2183  -1.2181  -1.2181
    -1.2102  -1.2102  -1.2099  -1.2099  -1.2096  -1.2096  -1.2085  -1.2085
    -1.2083  -1.2083  -1.2070  -1.2070  -1.2037  -1.2037  -1.2026  -1.2026
    -1.1996  -1.1996  -1.1972  -1.1972  -1.1952  -1.1952  -1.1933  -1.1933
    -1.1918  -1.1918  -1.1913  -1.1913  -1.1900  -1.1900  -1.1890  -1.1890
    -1.1860  -1.1860  -1.1858  -1.1858  -1.1826  -1.1826  -1.1754  -1.1754
    -1.1753  -1.1753  -1.1749  -1.1749  -1.1733  -1.1733  -1.1726  -1.1726
    -1.1720  -1.1720  -1.1686  -1.1686  -1.1660  -1.1660  -1.1654  -1.1654
    -1.1648  -1.1648  -1.1626  -1.1626  -1.1622  -1.1622  -1.1587  -1.1587
    -1.1585  -1.1585  -1.1517  -1.1517  -1.1486  -1.1486  -1.1474  -1.1474
    -1.1429  -1.1429  -1.1424  -1.1424  -1.1394  -1.1393  -1.1390  -1.1390
    -1.1369  -1.1369  -1.1361  -1.1361  -1.1360  -1.1360  -1.1328  -1.1328
    -1.1325  -1.1325  -1.1313  -1.1313  -1.1298  -1.1298  -1.1275  -1.1275
    -1.1254  -1.1254  -1.1214  -1.1214  -1.1207  -1.1207  -1.1199  -1.1199
    -1.1189  -1.1189  -1.1174  -1.1174  -1.1160  -1.1160  -1.1158  -1.1158
    -1.1152  -1.1152  -1.1148  -1.1148  -1.1143  -1.1143  -1.1142  -1.1142
    -1.1141  -1.1141  -1.1123  -1.1123  -1.1053  -1.1053  -1.1050  -1.1050
    -1.0484  -1.0484  -0.7624  -0.7624  -0.4887  -0.4887  -0.3579  -0.3579
    -0.2355  -0.2355  -0.1202  -0.1201  -0.1064  -0.1064   0.1380   0.1380
     0.2283   0.2283   0.2738   0.2739   0.3075   0.3075   0.4070   0.4070
     0.4434   0.4435   0.4969   0.4969   0.5595   0.5595   0.6504   0.6505
     2.1787   2.1787   2.2246   2.2246   2.5031   2.5031   2.5330   2.5330
     2.5797   2.5798   2.5880   2.5881   2.6861   2.6861   2.7137   2.7137
     2.8216   2.8216   2.8822   2.8822   3.0266   3.0266   3.0293   3.0293
     3.2797   3.2798

          k = 0.0287 0.2011 0.2011 (218297 PWs)   bands (ev):

   -82.6489 -82.6489 -82.6489 -82.6489 -82.6489 -82.6489 -82.6489 -82.6489
   -82.6489 -82.6489 -82.6489 -82.6489 -82.6489 -82.6489 -82.6489 -82.6489
   -82.6489 -82.6489 -82.6489 -82.6489 -82.6489 -82.6489 -82.6489 -82.6489
   -82.6489 -82.6489 -82.6489 -82.6489 -82.6489 -82.6489 -82.6489 -82.6487
   -48.4871 -48.4871 -48.4871 -48.4871 -48.4871 -48.4871 -48.4871 -48.4871
   -48.4871 -48.4871 -48.4871 -48.4871 -48.4871 -48.4871 -48.4871 -48.4871
   -48.4871 -48.4871 -48.4871 -48.4871 -48.4871 -48.4871 -48.4871 -48.4871
   -48.4871 -48.4871 -48.4871 -48.4871 -48.4871 -48.4871 -48.4871 -48.4871
   -48.4871 -48.4871 -48.4871 -48.4871 -48.4871 -48.4871 -48.4871 -48.4871
   -48.4871 -48.4871 -48.4871 -48.4871 -48.4871 -48.4871 -48.4871 -48.4870
   -48.4870 -48.4870 -48.4870 -48.4870 -48.4870 -48.4870 -48.4870 -48.4870
   -48.4870 -48.4870 -48.4870 -48.4870 -48.4870 -48.4870 -48.4870 -48.4870
   -48.4870 -48.4870 -48.4870 -48.4870 -48.4870 -48.4870 -48.4870 -48.4870
   -48.4870 -48.4870 -48.4870 -48.4870 -48.4870 -48.4870 -48.4870 -48.4870
   -48.4870 -48.4870 -48.4870 -48.4870 -48.4870 -48.4870 -48.4870 -48.4870
   -48.4870 -48.4870 -48.4870 -48.4870 -48.4869 -48.4869 -48.4869 -48.4869
    -1.2499  -1.2463  -1.2463  -1.2419  -1.2407  -1.2407  -1.2400  -1.2394
    -1.2394  -1.2367  -1.2340  -1.2340  -1.2318  -1.2318  -1.2308  -1.2308
    -1.2305  -1.2305  -1.2304  -1.2304  -1.2299  -1.2277  -1.2250  -1.2250
    -1.2243  -1.2221  -1.2221  -1.2217  -1.2217  -1.2204  -1.2204  -1.2190
    -1.2190  -1.2144  -1.2144  -1.2095  -1.2095  -1.2088  -1.2088  -1.2072
    -1.2069  -1.2069  -1.2067  -1.2067  -1.2060  -1.2060  -1.2054  -1.2042
    -1.2042  -1.2030  -1.2030  -1.1964  -1.1962  -1.1949  -1.1949  -1.1943
    -1.1943  -1.1930  -1.1930  -1.1915  -1.1915  -1.1911  -1.1895  -1.1888
    -1.1880  -1.1870  -1.1838  -1.1798  -1.1798  -1.1798  -1.1798  -1.1762
    -1.1760  -1.1760  -1.1755  -1.1755  -1.1738  -1.1687  -1.1686  -1.1686
    -1.1670  -1.1670  -1.1643  -1.1643  -1.1641  -1.1632  -1.1632  -1.1627
    -1.1626  -1.1626  -1.1620  -1.1573  -1.1563  -1.1563  -1.1539  -1.1530
    -1.1524  -1.1524  -1.1512  -1.1512  -1.1503  -1.1503  -1.1490  -1.1490
    -1.1486  -1.1486  -1.1486  -1.1486  -1.1480  -1.1454  -1.1454  -1.1446
    -1.1446  -1.1423  -1.1389  -1.1361  -1.1361  -1.1360  -1.1356  -1.1356
    -1.1351  -1.1351  -1.1272  -1.1272  -1.1272  -1.1259  -1.1245  -1.1245
    -1.1244  -1.1244  -1.1230  -1.1220  -1.1220  -1.1208  -1.1208  -1.1184
    -1.1183  -1.1176  -1.1176  -1.1164  -1.1164  -1.1164  -1.1155  -1.1155
    -1.1153  -1.1153  -1.1148  -1.1148  -1.1128  -1.1122  -1.1122  -1.1118
    -1.1118  -1.1100  -1.1100  -1.1098  -1.1098  -1.1091  -1.1091  -1.1075
    -1.0629  -0.9203  -0.9203  -0.7772  -0.5034  -0.3722  -0.3722  -0.3720
    -0.2486  -0.2473  -0.2473  -0.1326   0.0045   0.0045   0.1061   0.1061
     0.2888   0.2889   0.3108   0.3109   0.3294   0.3294   0.3525   0.3525
     0.3974   0.3974   0.4578   0.4579   0.5517   0.6249   0.6250   0.6463
     2.1330   2.1331   2.3256   2.3257   2.3655   2.3656   2.4587   2.4587
     2.5606   2.5720   2.6987   2.7209   2.7209   2.8064   2.8161   2.8162
     2.8188   2.8189   2.9456   2.9456   3.0173   3.0413   3.0421   3.0878
     3.0880   3.1516

          k = 0.0287 0.2011-0.2585 (218292 PWs)   bands (ev):

   -82.6489 -82.6489 -82.6489 -82.6489 -82.6489 -82.6489 -82.6489 -82.6489
   -82.6489 -82.6489 -82.6489 -82.6489 -82.6489 -82.6489 -82.6489 -82.6489
   -82.6489 -82.6489 -82.6489 -82.6489 -82.6489 -82.6489 -82.6489 -82.6489
   -82.6489 -82.6489 -82.6489 -82.6489 -82.6489 -82.6489 -82.6489 -82.6487
   -48.4871 -48.4871 -48.4871 -48.4871 -48.4871 -48.4871 -48.4871 -48.4871
   -48.4871 -48.4871 -48.4871 -48.4871 -48.4871 -48.4871 -48.4871 -48.4871
   -48.4871 -48.4871 -48.4871 -48.4871 -48.4871 -48.4871 -48.4871 -48.4871
   -48.4871 -48.4871 -48.4871 -48.4871 -48.4871 -48.4871 -48.4871 -48.4871
   -48.4871 -48.4871 -48.4871 -48.4871 -48.4871 -48.4871 -48.4871 -48.4871
   -48.4871 -48.4871 -48.4871 -48.4871 -48.4871 -48.4870 -48.4870 -48.4870
   -48.4870 -48.4870 -48.4870 -48.4870 -48.4870 -48.4870 -48.4870 -48.4870
   -48.4870 -48.4870 -48.4870 -48.4870 -48.4870 -48.4870 -48.4870 -48.4870
   -48.4870 -48.4870 -48.4870 -48.4870 -48.4870 -48.4870 -48.4870 -48.4870
   -48.4870 -48.4870 -48.4870 -48.4870 -48.4870 -48.4870 -48.4870 -48.4870
   -48.4870 -48.4870 -48.4870 -48.4870 -48.4870 -48.4870 -48.4870 -48.4870
   -48.4870 -48.4870 -48.4870 -48.4869 -48.4869 -48.4869 -48.4869 -48.4869
    -1.2461  -1.2461  -1.2431  -1.2431  -1.2395  -1.2395  -1.2392  -1.2392
    -1.2370  -1.2370  -1.2357  -1.2357  -1.2329  -1.2329  -1.2305  -1.2305
    -1.2296  -1.2296  -1.2284  -1.2284  -1.2279  -1.2279  -1.2274  -1.2274
    -1.2264  -1.2264  -1.2256  -1.2256  -1.2185  -1.2185  -1.2157  -1.2157
    -1.2156  -1.2156  -1.2153  -1.2153  -1.2151  -1.2151  -1.2085  -1.2085
    -1.2076  -1.2076  -1.2064  -1.2064  -1.2058  -1.2058  -1.2048  -1.2048
    -1.2046  -1.2046  -1.1981  -1.1981  -1.1953  -1.1953  -1.1945  -1.1945
    -1.1939  -1.1939  -1.1938  -1.1937  -1.1918  -1.1918  -1.1904  -1.1904
    -1.1852  -1.1852  -1.1837  -1.1837  -1.1800  -1.1800  -1.1788  -1.1788
    -1.1772  -1.1772  -1.1729  -1.1729  -1.1695  -1.1695  -1.1694  -1.1694
    -1.1633  -1.1633  -1.1625  -1.1625  -1.1612  -1.1612  -1.1604  -1.1604
    -1.1587  -1.1587  -1.1585  -1.1585  -1.1576  -1.1576  -1.1572  -1.1572
    -1.1556  -1.1556  -1.1526  -1.1526  -1.1497  -1.1497  -1.1481  -1.1481
    -1.1475  -1.1475  -1.1459  -1.1459  -1.1455  -1.1455  -1.1431  -1.1431
    -1.1426  -1.1426  -1.1424  -1.1424  -1.1419  -1.1419  -1.1385  -1.1385
    -1.1341  -1.1341  -1.1308  -1.1308  -1.1253  -1.1253  -1.1246  -1.1246
    -1.1218  -1.1218  -1.1194  -1.1194  -1.1185  -1.1185  -1.1185  -1.1185
    -1.1184  -1.1184  -1.1173  -1.1173  -1.1154  -1.1154  -1.1146  -1.1146
    -1.1145  -1.1145  -1.1133  -1.1133  -1.1133  -1.1133  -1.1132  -1.1132
    -1.1130  -1.1130  -1.1130  -1.1130  -1.1095  -1.1095  -1.1091  -1.1091
    -0.9994  -0.9994  -0.8560  -0.8560  -0.4441  -0.4441  -0.3161  -0.3160
    -0.3155  -0.3155  -0.1949  -0.1948   0.0508   0.0509   0.1692   0.1692
     0.2556   0.2556   0.3051   0.3051   0.3279   0.3279   0.3609   0.3610
     0.3924   0.3924   0.4127   0.4128   0.5933   0.5933   0.6379   0.6379
     2.2086   2.2086   2.2311   2.2312   2.3729   2.3729   2.3915   2.3915
     2.6338   2.6338   2.7519   2.7519   2.7753   2.7753   2.8183   2.8183
     2.8867   2.8868   2.9244   2.9244   3.0005   3.0005   3.0472   3.0473
     3.1242   3.1246

          k = 0.0287-0.2585-0.2585 (218216 PWs)   bands (ev):

   -82.6489 -82.6489 -82.6489 -82.6489 -82.6489 -82.6489 -82.6489 -82.6489
   -82.6489 -82.6489 -82.6489 -82.6489 -82.6489 -82.6489 -82.6489 -82.6489
   -82.6489 -82.6489 -82.6489 -82.6489 -82.6489 -82.6489 -82.6489 -82.6489
   -82.6489 -82.6489 -82.6489 -82.6489 -82.6489 -82.6489 -82.6489 -82.6487
   -48.4871 -48.4871 -48.4871 -48.4871 -48.4871 -48.4871 -48.4871 -48.4871
   -48.4871 -48.4871 -48.4871 -48.4871 -48.4871 -48.4871 -48.4871 -48.4871
   -48.4871 -48.4871 -48.4871 -48.4871 -48.4871 -48.4871 -48.4871 -48.4871
   -48.4871 -48.4871 -48.4871 -48.4871 -48.4871 -48.4871 -48.4871 -48.4871
   -48.4871 -48.4871 -48.4871 -48.4871 -48.4871 -48.4871 -48.4871 -48.4871
   -48.4871 -48.4871 -48.4870 -48.4870 -48.4870 -48.4870 -48.4870 -48.4870
   -48.4870 -48.4870 -48.4870 -48.4870 -48.4870 -48.4870 -48.4870 -48.4870
   -48.4870 -48.4870 -48.4870 -48.4870 -48.4870 -48.4870 -48.4870 -48.4870
   -48.4870 -48.4870 -48.4870 -48.4870 -48.4870 -48.4870 -48.4870 -48.4870
   -48.4870 -48.4870 -48.4870 -48.4870 -48.4870 -48.4870 -48.4870 -48.4870
   -48.4870 -48.4870 -48.4870 -48.4870 -48.4870 -48.4870 -48.4870 -48.4870
   -48.4870 -48.4869 -48.4869 -48.4869 -48.4869 -48.4869 -48.4868 -48.4868
    -1.2437  -1.2437  -1.2437  -1.2437  -1.2363  -1.2363  -1.2363  -1.2363
    -1.2363  -1.2363  -1.2363  -1.2363  -1.2338  -1.2338  -1.2338  -1.2338
    -1.2335  -1.2335  -1.2335  -1.2335  -1.2220  -1.2220  -1.2220  -1.2220
    -1.2220  -1.2220  -1.2220  -1.2220  -1.2212  -1.2212  -1.2212  -1.2212
    -1.2212  -1.2212  -1.2212  -1.2212  -1.2069  -1.2069  -1.2069  -1.2069
    -1.2067  -1.2067  -1.2067  -1.2067  -1.2067  -1.2067  -1.2067  -1.2067
    -1.2065  -1.2065  -1.2065  -1.2065  -1.1946  -1.1946  -1.1946  -1.1946
    -1.1932  -1.1932  -1.1932  -1.1932  -1.1922  -1.1922  -1.1922  -1.1922
    -1.1829  -1.1829  -1.1829  -1.1829  -1.1807  -1.1807  -1.1807  -1.1807
    -1.1766  -1.1766  -1.1766  -1.1766  -1.1633  -1.1633  -1.1633  -1.1633
    -1.1633  -1.1633  -1.1632  -1.1632  -1.1599  -1.1599  -1.1599  -1.1599
    -1.1529  -1.1529  -1.1529  -1.1529  -1.1520  -1.1520  -1.1520  -1.1520
    -1.1520  -1.1520  -1.1520  -1.1520  -1.1505  -1.1505  -1.1505  -1.1505
    -1.1505  -1.1505  -1.1505  -1.1505  -1.1489  -1.1489  -1.1489  -1.1489
    -1.1489  -1.1489  -1.1489  -1.1489  -1.1397  -1.1397  -1.1397  -1.1397
    -1.1346  -1.1346  -1.1346  -1.1346  -1.1207  -1.1207  -1.1207  -1.1207
    -1.1207  -1.1207  -1.1207  -1.1207  -1.1194  -1.1194  -1.1194  -1.1194
    -1.1152  -1.1152  -1.1152  -1.1152  -1.1146  -1.1146  -1.1146  -1.1146
    -1.1146  -1.1146  -1.1145  -1.1145  -1.1127  -1.1127  -1.1127  -1.1127
    -1.1127  -1.1127  -1.1127  -1.1127  -1.1124  -1.1124  -1.1124  -1.1124
    -0.9351  -0.9351  -0.9351  -0.9351  -0.3862  -0.3861  -0.3861  -0.3861
    -0.2606  -0.2606  -0.2606  -0.2606   0.2088   0.2089   0.2089   0.2089
     0.2089   0.2089   0.2089   0.2089   0.3669   0.3670   0.3670   0.3670
     0.3670   0.3670   0.3670   0.3671   0.6191   0.6192   0.6192   0.6192
     2.2807   2.2807   2.2807   2.2807   2.2808   2.2808   2.2808   2.2808
     2.7021   2.7021   2.7021   2.7021   2.9326   2.9326   2.9326   2.9327
     2.9654   2.9654   2.9654   2.9654   2.9655   2.9655   2.9655   2.9655
     3.0759   3.0760

          k = 0.0862 0.0862 0.0862 (218281 PWs)   bands (ev):

   -82.6489 -82.6489 -82.6489 -82.6489 -82.6489 -82.6489 -82.6489 -82.6489
   -82.6489 -82.6489 -82.6489 -82.6489 -82.6489 -82.6489 -82.6489 -82.6489
   -82.6489 -82.6489 -82.6489 -82.6489 -82.6489 -82.6489 -82.6489 -82.6489
   -82.6489 -82.6489 -82.6489 -82.6489 -82.6489 -82.6489 -82.6489 -82.6487
   -48.4871 -48.4871 -48.4871 -48.4871 -48.4871 -48.4871 -48.4871 -48.4871
   -48.4871 -48.4871 -48.4871 -48.4871 -48.4871 -48.4871 -48.4871 -48.4871
   -48.4871 -48.4871 -48.4871 -48.4871 -48.4871 -48.4871 -48.4871 -48.4871
   -48.4871 -48.4871 -48.4871 -48.4871 -48.4871 -48.4871 -48.4871 -48.4871
   -48.4871 -48.4871 -48.4871 -48.4871 -48.4871 -48.4871 -48.4871 -48.4871
   -48.4871 -48.4871 -48.4871 -48.4871 -48.4871 -48.4870 -48.4870 -48.4870
   -48.4870 -48.4870 -48.4870 -48.4870 -48.4870 -48.4870 -48.4870 -48.4870
   -48.4870 -48.4870 -48.4870 -48.4870 -48.4870 -48.4870 -48.4870 -48.4870
   -48.4870 -48.4870 -48.4870 -48.4870 -48.4870 -48.4870 -48.4870 -48.4870
   -48.4870 -48.4870 -48.4870 -48.4870 -48.4870 -48.4870 -48.4870 -48.4870
   -48.4870 -48.4870 -48.4870 -48.4870 -48.4870 -48.4870 -48.4870 -48.4870
   -48.4870 -48.4870 -48.4870 -48.4870 -48.4870 -48.4869 -48.4869 -48.4869
    -1.2588  -1.2588  -1.2588  -1.2549  -1.2503  -1.2503  -1.2503  -1.2485
    -1.2485  -1.2485  -1.2368  -1.2368  -1.2368  -1.2280  -1.2225  -1.2225
    -1.2225  -1.2211  -1.2211  -1.2211  -1.2198  -1.2198  -1.2198  -1.2198
    -1.2198  -1.2198  -1.2136  -1.2136  -1.2136  -1.2124  -1.2124  -1.2124
    -1.2111  -1.2111  -1.2111  -1.2111  -1.2111  -1.2111  -1.2042  -1.2042
    -1.2042  -1.2042  -1.2042  -1.2042  -1.2020  -1.2020  -1.2020  -1.2020
    -1.2020  -1.2020  -1.1992  -1.1992  -1.1992  -1.1966  -1.1966  -1.1966
    -1.1959  -1.1959  -1.1957  -1.1957  -1.1939  -1.1918  -1.1918  -1.1918
    -1.1871  -1.1871  -1.1871  -1.1866  -1.1866  -1.1866  -1.1727  -1.1727
    -1.1727  -1.1710  -1.1710  -1.1710  -1.1710  -1.1710  -1.1710  -1.1704
    -1.1704  -1.1704  -1.1699  -1.1699  -1.1699  -1.1699  -1.1699  -1.1699
    -1.1677  -1.1677  -1.1677  -1.1600  -1.1600  -1.1600  -1.1540  -1.1540
    -1.1540  -1.1519  -1.1519  -1.1506  -1.1506  -1.1506  -1.1472  -1.1472
    -1.1472  -1.1472  -1.1472  -1.1472  -1.1462  -1.1462  -1.1462  -1.1446
    -1.1446  -1.1446  -1.1409  -1.1409  -1.1409  -1.1394  -1.1394  -1.1394
    -1.1394  -1.1394  -1.1394  -1.1349  -1.1349  -1.1349  -1.1295  -1.1295
    -1.1295  -1.1293  -1.1293  -1.1293  -1.1293  -1.1293  -1.1293  -1.1222
    -1.1222  -1.1222  -1.1191  -1.1191  -1.1191  -1.1172  -1.1172  -1.1172
    -1.1149  -1.1149  -1.1099  -1.1099  -1.1099  -1.1068  -1.1068  -1.1068
    -1.1034  -1.1034  -1.1034  -1.1034  -1.1034  -1.1034  -1.1023  -1.1023
    -1.1023  -0.7821  -0.7821  -0.7821  -0.3736  -0.3736  -0.3736  -0.3712
    -0.3712  -0.3712  -0.0370  -0.0167  -0.0166  -0.0166  -0.0166  -0.0166
    -0.0166   0.1718   0.1718   0.1718   0.2613   0.2614   0.2614   0.5750
     0.5750   0.5750   0.6287   0.6289   0.6289   0.6289   0.6289   0.6289
     1.9882   1.9884   1.9884   2.2072   2.4557   2.4557   2.4557   2.6598
     2.6598   2.6599   2.8131   2.8131   2.8131   2.8131   2.8131   2.8131
     2.9191   2.9192   2.9192   2.9192   2.9193   2.9193   3.3011   3.3011
     3.3024   3.3097

          k = 0.0862 0.0862 0.1436 (218293 PWs)   bands (ev):

   -82.6489 -82.6489 -82.6489 -82.6489 -82.6489 -82.6489 -82.6489 -82.6489
   -82.6489 -82.6489 -82.6489 -82.6489 -82.6489 -82.6489 -82.6489 -82.6489
   -82.6489 -82.6489 -82.6489 -82.6489 -82.6489 -82.6489 -82.6489 -82.6489
   -82.6489 -82.6489 -82.6489 -82.6489 -82.6489 -82.6489 -82.6489 -82.6487
   -48.4871 -48.4871 -48.4871 -48.4871 -48.4871 -48.4871 -48.4871 -48.4871
   -48.4871 -48.4871 -48.4871 -48.4871 -48.4871 -48.4871 -48.4871 -48.4871
   -48.4871 -48.4871 -48.4871 -48.4871 -48.4871 -48.4871 -48.4871 -48.4871
   -48.4871 -48.4871 -48.4871 -48.4871 -48.4871 -48.4871 -48.4871 -48.4871
   -48.4871 -48.4871 -48.4871 -48.4871 -48.4871 -48.4871 -48.4871 -48.4871
   -48.4871 -48.4870 -48.4870 -48.4870 -48.4870 -48.4870 -48.4870 -48.4870
   -48.4870 -48.4870 -48.4870 -48.4870 -48.4870 -48.4870 -48.4870 -48.4870
   -48.4870 -48.4870 -48.4870 -48.4870 -48.4870 -48.4870 -48.4870 -48.4870
   -48.4870 -48.4870 -48.4870 -48.4870 -48.4870 -48.4870 -48.4870 -48.4870
   -48.4870 -48.4870 -48.4870 -48.4870 -48.4870 -48.4870 -48.4870 -48.4870
   -48.4870 -48.4870 -48.4870 -48.4870 -48.4870 -48.4870 -48.4870 -48.4870
   -48.4870 -48.4870 -48.4870 -48.4870 -48.4869 -48.4869 -48.4869 -48.4869
    -1.2569  -1.2559  -1.2559  -1.2522  -1.2466  -1.2466  -1.2454  -1.2453
    -1.2438  -1.2438  -1.2418  -1.2347  -1.2347  -1.2284  -1.2284  -1.2251
    -1.2251  -1.2242  -1.2229  -1.2229  -1.2229  -1.2207  -1.2204  -1.2204
    -1.2187  -1.2187  -1.2180  -1.2180  -1.2164  -1.2154  -1.2154  -1.2144
    -1.2144  -1.2144  -1.2126  -1.2126  -1.2100  -1.2099  -1.2086  -1.2086
    -1.2044  -1.2044  -1.2041  -1.2041  -1.2017  -1.2017  -1.2003  -1.1996
    -1.1996  -1.1988  -1.1988  -1.1987  -1.1987  -1.1959  -1.1950  -1.1950
    -1.1950  -1.1949  -1.1947  -1.1934  -1.1930  -1.1889  -1.1889  -1.1881
    -1.1842  -1.1842  -1.1838  -1.1838  -1.1796  -1.1788  -1.1779  -1.1763
    -1.1752  -1.1752  -1.1751  -1.1751  -1.1744  -1.1738  -1.1738  -1.1727
    -1.1727  -1.1718  -1.1718  -1.1708  -1.1708  -1.1691  -1.1691  -1.1686
    -1.1686  -1.1658  -1.1594  -1.1594  -1.1574  -1.1574  -1.1553  -1.1553
    -1.1550  -1.1550  -1.1535  -1.1535  -1.1523  -1.1504  -1.1474  -1.1474
    -1.1470  -1.1470  -1.1467  -1.1456  -1.1456  -1.1440  -1.1440  -1.1434
    -1.1411  -1.1411  -1.1394  -1.1394  -1.1393  -1.1388  -1.1386  -1.1386
    -1.1361  -1.1349  -1.1346  -1.1346  -1.1338  -1.1338  -1.1259  -1.1259
    -1.1253  -1.1253  -1.1247  -1.1245  -1.1245  -1.1238  -1.1238  -1.1233
    -1.1233  -1.1228  -1.1203  -1.1203  -1.1202  -1.1202  -1.1194  -1.1189
    -1.1180  -1.1161  -1.1114  -1.1114  -1.1107  -1.1101  -1.1101  -1.1101
    -1.1064  -1.1064  -1.1063  -1.1063  -1.1042  -1.1034  -1.1034  -1.1027
    -1.1027  -0.8918  -0.7495  -0.7495  -0.4742  -0.4742  -0.3449  -0.3422
    -0.3422  -0.2114  -0.1131  -0.1013  -0.1013   0.0044   0.0044   0.1127
[...]
     0.0103   0.0103   0.0103   0.0103   0.2333   0.2333   0.2334   0.2334
     0.2334   0.2334   0.2334   0.2334   0.3360   0.3360   0.3360   0.3360
     0.3360   0.3361   0.3361   0.3361   0.5063   0.5063   0.5063   0.5063
     2.3833   2.3833   2.3833   2.3834   2.3834   2.3834   2.3835   2.3835
     2.5954   2.5954   2.5954   2.5954   2.7101   2.7101   2.7101   2.7101
     2.8238   2.8238   2.8239   2.8239   2.8239   2.8239   2.8240   2.8240
     3.4173   3.4173

          k = 0.2011 0.2011 0.2011 (218182 PWs)   bands (ev):

   -82.6489 -82.6489 -82.6489 -82.6489 -82.6489 -82.6489 -82.6489 -82.6489
   -82.6489 -82.6489 -82.6489 -82.6489 -82.6489 -82.6489 -82.6489 -82.6489
   -82.6489 -82.6489 -82.6489 -82.6489 -82.6489 -82.6489 -82.6489 -82.6489
   -82.6489 -82.6489 -82.6489 -82.6489 -82.6489 -82.6489 -82.6489 -82.6487
   -48.4871 -48.4871 -48.4871 -48.4871 -48.4871 -48.4871 -48.4871 -48.4871
   -48.4871 -48.4871 -48.4871 -48.4871 -48.4871 -48.4871 -48.4871 -48.4871
   -48.4871 -48.4871 -48.4871 -48.4871 -48.4871 -48.4871 -48.4871 -48.4871
   -48.4871 -48.4871 -48.4871 -48.4871 -48.4871 -48.4871 -48.4871 -48.4871
   -48.4871 -48.4871 -48.4871 -48.4871 -48.4871 -48.4871 -48.4871 -48.4871
   -48.4871 -48.4870 -48.4870 -48.4870 -48.4870 -48.4870 -48.4870 -48.4870
   -48.4870 -48.4870 -48.4870 -48.4870 -48.4870 -48.4870 -48.4870 -48.4870
   -48.4870 -48.4870 -48.4870 -48.4870 -48.4870 -48.4870 -48.4870 -48.4870
   -48.4870 -48.4870 -48.4870 -48.4870 -48.4870 -48.4870 -48.4870 -48.4870
   -48.4870 -48.4870 -48.4870 -48.4870 -48.4870 -48.4870 -48.4870 -48.4870
   -48.4870 -48.4870 -48.4870 -48.4870 -48.4870 -48.4870 -48.4870 -48.4870
   -48.4870 -48.4870 -48.4870 -48.4870 -48.4870 -48.4869 -48.4869 -48.4869
    -1.2451  -1.2451  -1.2451  -1.2405  -1.2391  -1.2391  -1.2391  -1.2369
    -1.2369  -1.2369  -1.2369  -1.2369  -1.2369  -1.2349  -1.2349  -1.2349
    -1.2347  -1.2347  -1.2347  -1.2330  -1.2330  -1.2330  -1.2330  -1.2330
    -1.2330  -1.2307  -1.2307  -1.2307  -1.2250  -1.2250  -1.2250  -1.2222
    -1.2173  -1.2173  -1.2173  -1.2076  -1.2076  -1.2076  -1.2030  -1.2030
    -1.2030  -1.2030  -1.2030  -1.2030  -1.1988  -1.1988  -1.1988  -1.1988
    -1.1988  -1.1988  -1.1969  -1.1969  -1.1969  -1.1934  -1.1934  -1.1934
    -1.1901  -1.1901  -1.1887  -1.1887  -1.1887  -1.1880  -1.1880  -1.1879
    -1.1879  -1.1879  -1.1865  -1.1865  -1.1865  -1.1848  -1.1848  -1.1848
    -1.1690  -1.1690  -1.1690  -1.1641  -1.1641  -1.1641  -1.1641  -1.1641
    -1.1641  -1.1567  -1.1567  -1.1567  -1.1552  -1.1552  -1.1552  -1.1552
    -1.1552  -1.1552  -1.1542  -1.1542  -1.1542  -1.1518  -1.1518  -1.1518
    -1.1508  -1.1508  -1.1508  -1.1487  -1.1487  -1.1484  -1.1484  -1.1484
    -1.1484  -1.1484  -1.1484  -1.1478  -1.1478  -1.1478  -1.1465  -1.1465
    -1.1465  -1.1451  -1.1451  -1.1451  -1.1408  -1.1408  -1.1408  -1.1408
    -1.1408  -1.1407  -1.1388  -1.1388  -1.1388  -1.1387  -1.1387  -1.1387
    -1.1363  -1.1363  -1.1363  -1.1350  -1.1350  -1.1350  -1.1321  -1.1321
    -1.1111  -1.1111  -1.1111  -1.1096  -1.1096  -1.1096  -1.1096  -1.1096
    -1.1096  -1.1086  -1.1086  -1.1086  -1.1086  -1.1086  -1.1086  -1.1085
    -1.1085  -1.1085  -1.1085  -1.1085  -1.1085  -1.1063  -1.1063  -1.1063
    -0.9676  -0.8239  -0.8239  -0.8239  -0.6828  -0.6828  -0.6828  -0.5453
     0.0710   0.0710   0.0710   0.1594   0.1594   0.1594   0.1594   0.1595
     0.1595   0.2222   0.2222   0.2222   0.3682   0.3682   0.3682   0.4125
     0.4126   0.4126   0.4126   0.4126   0.4126   0.4150   0.4151   0.4151
     2.3628   2.3629   2.3629   2.4087   2.4087   2.4088   2.5935   2.5935
     2.5935   2.5935   2.5936   2.5936   2.6517   2.6517   2.6517   2.6517
     2.6518   2.6518   2.7224   2.7224   2.7224   2.9157   2.9157   2.9158
     3.2052   3.6203

          k = 0.2011 0.2011-0.2585 (218182 PWs)   bands (ev):

   -82.6489 -82.6489 -82.6489 -82.6489 -82.6489 -82.6489 -82.6489 -82.6489
   -82.6489 -82.6489 -82.6489 -82.6489 -82.6489 -82.6489 -82.6489 -82.6489
   -82.6489 -82.6489 -82.6489 -82.6489 -82.6489 -82.6489 -82.6489 -82.6489
   -82.6489 -82.6489 -82.6489 -82.6489 -82.6489 -82.6489 -82.6489 -82.6487
   -48.4871 -48.4871 -48.4871 -48.4871 -48.4871 -48.4871 -48.4871 -48.4871
   -48.4871 -48.4871 -48.4871 -48.4871 -48.4871 -48.4871 -48.4871 -48.4871
   -48.4871 -48.4871 -48.4871 -48.4871 -48.4871 -48.4871 -48.4871 -48.4871
   -48.4871 -48.4871 -48.4871 -48.4871 -48.4871 -48.4871 -48.4871 -48.4871
   -48.4871 -48.4871 -48.4871 -48.4870 -48.4870 -48.4870 -48.4870 -48.4870
   -48.4870 -48.4870 -48.4870 -48.4870 -48.4870 -48.4870 -48.4870 -48.4870
   -48.4870 -48.4870 -48.4870 -48.4870 -48.4870 -48.4870 -48.4870 -48.4870
   -48.4870 -48.4870 -48.4870 -48.4870 -48.4870 -48.4870 -48.4870 -48.4870
   -48.4870 -48.4870 -48.4870 -48.4870 -48.4870 -48.4870 -48.4870 -48.4870
   -48.4870 -48.4870 -48.4870 -48.4870 -48.4870 -48.4870 -48.4870 -48.4870
   -48.4870 -48.4870 -48.4870 -48.4870 -48.4870 -48.4870 -48.4870 -48.4870
   -48.4870 -48.4870 -48.4870 -48.4870 -48.4870 -48.4869 -48.4869 -48.4869
    -1.2423  -1.2423  -1.2418  -1.2418  -1.2418  -1.2418  -1.2368  -1.2368
    -1.2368  -1.2368  -1.2367  -1.2367  -1.2367  -1.2367  -1.2366  -1.2366
    -1.2349  -1.2349  -1.2349  -1.2349  -1.2345  -1.2345  -1.2344  -1.2344
    -1.2344  -1.2344  -1.2286  -1.2286  -1.2286  -1.2286  -1.2242  -1.2242
    -1.2129  -1.2129  -1.2098  -1.2098  -1.2098  -1.2098  -1.2021  -1.2021
    -1.2021  -1.2021  -1.2009  -1.2009  -1.2009  -1.2009  -1.1972  -1.1972
    -1.1972  -1.1972  -1.1969  -1.1969  -1.1969  -1.1969  -1.1954  -1.1954
    -1.1890  -1.1890  -1.1888  -1.1888  -1.1882  -1.1882  -1.1882  -1.1882
    -1.1879  -1.1879  -1.1868  -1.1868  -1.1860  -1.1860  -1.1860  -1.1860
    -1.1650  -1.1650  -1.1650  -1.1650  -1.1629  -1.1629  -1.1598  -1.1598
    -1.1598  -1.1598  -1.1578  -1.1578  -1.1578  -1.1578  -1.1547  -1.1547
    -1.1547  -1.1547  -1.1507  -1.1507  -1.1507  -1.1507  -1.1507  -1.1507
    -1.1501  -1.1501  -1.1487  -1.1487  -1.1487  -1.1487  -1.1481  -1.1481
    -1.1481  -1.1481  -1.1480  -1.1480  -1.1480  -1.1480  -1.1463  -1.1463
    -1.1463  -1.1463  -1.1446  -1.1446  -1.1445  -1.1445  -1.1445  -1.1445
    -1.1439  -1.1439  -1.1404  -1.1404  -1.1385  -1.1385  -1.1383  -1.1383
    -1.1383  -1.1383  -1.1378  -1.1378  -1.1378  -1.1378  -1.1334  -1.1334
    -1.1095  -1.1095  -1.1095  -1.1095  -1.1093  -1.1093  -1.1087  -1.1087
    -1.1087  -1.1087  -1.1085  -1.1085  -1.1085  -1.1085  -1.1084  -1.1084
    -1.1084  -1.1084  -1.1072  -1.1072  -1.1072  -1.1072  -1.1070  -1.1070
    -0.9032  -0.9032  -0.7606  -0.7606  -0.7606  -0.7606  -0.6210  -0.6210
     0.1120   0.1120   0.1120   0.1120   0.1899   0.1899   0.1899   0.1900
     0.2234   0.2234   0.2919   0.2919   0.2919   0.2919   0.3267   0.3267
     0.3899   0.3900   0.3900   0.3900   0.4165   0.4165   0.4166   0.4166
     2.3644   2.3644   2.4939   2.4939   2.4939   2.4940   2.4989   2.4989
     2.4990   2.4990   2.6067   2.6068   2.6068   2.6068   2.6607   2.6607
     2.6607   2.6607   2.7822   2.7822   2.7822   2.7822   2.8121   2.8121
     3.4073   3.4074

          k = 0.2011-0.2585-0.2585 (218228 PWs)   bands (ev):

   -82.6489 -82.6489 -82.6489 -82.6489 -82.6489 -82.6489 -82.6489 -82.6489
   -82.6489 -82.6489 -82.6489 -82.6489 -82.6489 -82.6489 -82.6489 -82.6489
   -82.6489 -82.6489 -82.6489 -82.6489 -82.6489 -82.6489 -82.6489 -82.6489
   -82.6489 -82.6489 -82.6489 -82.6489 -82.6489 -82.6489 -82.6489 -82.6487
   -48.4871 -48.4871 -48.4871 -48.4871 -48.4871 -48.4871 -48.4871 -48.4871
   -48.4871 -48.4871 -48.4871 -48.4871 -48.4871 -48.4871 -48.4871 -48.4871
   -48.4871 -48.4871 -48.4871 -48.4871 -48.4871 -48.4871 -48.4871 -48.4871
   -48.4871 -48.4871 -48.4871 -48.4871 -48.4871 -48.4871 -48.4871 -48.4871
   -48.4871 -48.4871 -48.4871 -48.4871 -48.4871 -48.4871 -48.4871 -48.4871
   -48.4871 -48.4870 -48.4870 -48.4870 -48.4870 -48.4870 -48.4870 -48.4870
   -48.4870 -48.4870 -48.4870 -48.4870 -48.4870 -48.4870 -48.4870 -48.4870
   -48.4870 -48.4870 -48.4870 -48.4870 -48.4870 -48.4870 -48.4870 -48.4870
   -48.4870 -48.4870 -48.4870 -48.4870 -48.4870 -48.4870 -48.4870 -48.4870
   -48.4870 -48.4870 -48.4870 -48.4870 -48.4870 -48.4870 -48.4870 -48.4870
   -48.4870 -48.4870 -48.4870 -48.4870 -48.4870 -48.4870 -48.4870 -48.4870
   -48.4870 -48.4870 -48.4870 -48.4870 -48.4870 -48.4869 -48.4869 -48.4869
    -1.2400  -1.2400  -1.2400  -1.2400  -1.2394  -1.2394  -1.2394  -1.2394
    -1.2394  -1.2394  -1.2394  -1.2394  -1.2363  -1.2363  -1.2363  -1.2363
    -1.2354  -1.2354  -1.2354  -1.2354  -1.2354  -1.2354  -1.2354  -1.2354
    -1.2335  -1.2335  -1.2335  -1.2335  -1.2272  -1.2272  -1.2272  -1.2272
    -1.2062  -1.2062  -1.2062  -1.2062  -1.2062  -1.2062  -1.2062  -1.2062
    -1.2029  -1.2029  -1.2029  -1.2029  -1.1982  -1.1982  -1.1982  -1.1982
    -1.1970  -1.1970  -1.1970  -1.1970  -1.1970  -1.1970  -1.1970  -1.1970
    -1.1887  -1.1887  -1.1887  -1.1887  -1.1875  -1.1875  -1.1875  -1.1875
    -1.1875  -1.1875  -1.1875  -1.1875  -1.1871  -1.1871  -1.1871  -1.1871
    -1.1601  -1.1601  -1.1601  -1.1601  -1.1595  -1.1595  -1.1595  -1.1595
    -1.1595  -1.1595  -1.1595  -1.1595  -1.1520  -1.1520  -1.1520  -1.1520
    -1.1520  -1.1520  -1.1520  -1.1520  -1.1520  -1.1520  -1.1520  -1.1520
    -1.1501  -1.1501  -1.1501  -1.1501  -1.1500  -1.1500  -1.1500  -1.1500
    -1.1478  -1.1478  -1.1478  -1.1478  -1.1475  -1.1475  -1.1475  -1.1475
    -1.1460  -1.1460  -1.1460  -1.1460  -1.1430  -1.1430  -1.1430  -1.1430
    -1.1430  -1.1430  -1.1430  -1.1430  -1.1426  -1.1426  -1.1426  -1.1426
    -1.1424  -1.1424  -1.1424  -1.1424  -1.1357  -1.1357  -1.1357  -1.1357
    -1.1085  -1.1085  -1.1085  -1.1085  -1.1085  -1.1085  -1.1085  -1.1085
    -1.1081  -1.1081  -1.1081  -1.1081  -1.1079  -1.1079  -1.1079  -1.1079
    -1.1074  -1.1074  -1.1074  -1.1074  -1.1074  -1.1074  -1.1074  -1.1074
    -0.8393  -0.8393  -0.8393  -0.8393  -0.6979  -0.6979  -0.6979  -0.6979
     0.1487   0.1487   0.1487   0.1487   0.2557   0.2557   0.2558   0.2558
     0.2558   0.2558   0.2558   0.2558   0.3102   0.3102   0.3102   0.3102
     0.3102   0.3103   0.3103   0.3103   0.4042   0.4042   0.4042   0.4042
     2.4772   2.4772   2.4772   2.4773   2.4773   2.4773   2.4774   2.4774
     2.5755   2.5755   2.5756   2.5756   2.6356   2.6356   2.6356   2.6356
     2.7098   2.7098   2.7098   2.7098   2.7098   2.7098   2.7099   2.7099
     3.6119   3.6122

          k =-0.2585-0.2585-0.2585 (218672 PWs)   bands (ev):

   -82.6489 -82.6489 -82.6489 -82.6489 -82.6489 -82.6489 -82.6489 -82.6489
   -82.6489 -82.6489 -82.6489 -82.6489 -82.6489 -82.6489 -82.6489 -82.6489
   -82.6489 -82.6489 -82.6489 -82.6489 -82.6489 -82.6489 -82.6489 -82.6489
   -82.6489 -82.6489 -82.6489 -82.6489 -82.6489 -82.6489 -82.6489 -82.6487
   -48.4871 -48.4871 -48.4871 -48.4871 -48.4871 -48.4871 -48.4871 -48.4871
   -48.4871 -48.4871 -48.4871 -48.4871 -48.4871 -48.4871 -48.4871 -48.4871
   -48.4871 -48.4871 -48.4871 -48.4871 -48.4871 -48.4871 -48.4871 -48.4871
   -48.4871 -48.4871 -48.4871 -48.4871 -48.4871 -48.4871 -48.4871 -48.4871
   -48.4871 -48.4871 -48.4871 -48.4871 -48.4871 -48.4871 -48.4871 -48.4871
   -48.4871 -48.4871 -48.4871 -48.4871 -48.4871 -48.4871 -48.4871 -48.4871
   -48.4871 -48.4871 -48.4871 -48.4871 -48.4871 -48.4871 -48.4871 -48.4871
   -48.4871 -48.4871 -48.4871 -48.4871 -48.4871 -48.4871 -48.4871 -48.4871
   -48.4871 -48.4871 -48.4871 -48.4871 -48.4871 -48.4871 -48.4870 -48.4870
   -48.4870 -48.4870 -48.4870 -48.4870 -48.4870 -48.4870 -48.4870 -48.4870
   -48.4870 -48.4870 -48.4870 -48.4870 -48.4870 -48.4870 -48.4870 -48.4870
   -48.4870 -48.4870 -48.4870 -48.4870 -48.4870 -48.4869 -48.4869 -48.4869
    -1.2381  -1.2381  -1.2381  -1.2381  -1.2381  -1.2381  -1.2381  -1.2381
    -1.2381  -1.2381  -1.2381  -1.2381  -1.2381  -1.2381  -1.2381  -1.2381
    -1.2381  -1.2381  -1.2381  -1.2381  -1.2381  -1.2381  -1.2381  -1.2381
    -1.2313  -1.2313  -1.2313  -1.2313  -1.2313  -1.2313  -1.2313  -1.2313
    -1.2006  -1.2006  -1.2006  -1.2006  -1.2006  -1.2006  -1.2006  -1.2006
    -1.2006  -1.2006  -1.2006  -1.2006  -1.2006  -1.2006  -1.2006  -1.2006
    -1.2006  -1.2006  -1.2006  -1.2006  -1.2006  -1.2006  -1.2006  -1.2006
    -1.1878  -1.1878  -1.1878  -1.1878  -1.1878  -1.1878  -1.1878  -1.1878
    -1.1878  -1.1878  -1.1878  -1.1878  -1.1878  -1.1878  -1.1878  -1.1878
    -1.1539  -1.1539  -1.1539  -1.1539  -1.1539  -1.1539  -1.1539  -1.1539
    -1.1539  -1.1539  -1.1539  -1.1539  -1.1539  -1.1539  -1.1539  -1.1539
    -1.1539  -1.1539  -1.1539  -1.1539  -1.1539  -1.1539  -1.1539  -1.1539
    -1.1492  -1.1492  -1.1492  -1.1492  -1.1492  -1.1492  -1.1492  -1.1492
    -1.1492  -1.1492  -1.1492  -1.1492  -1.1492  -1.1492  -1.1492  -1.1492
    -1.1492  -1.1492  -1.1492  -1.1492  -1.1492  -1.1492  -1.1492  -1.1492
    -1.1417  -1.1417  -1.1417  -1.1417  -1.1417  -1.1417  -1.1417  -1.1417
    -1.1417  -1.1417  -1.1417  -1.1417  -1.1417  -1.1417  -1.1417  -1.1417
    -1.1075  -1.1075  -1.1075  -1.1075  -1.1075  -1.1075  -1.1075  -1.1075
    -1.1075  -1.1075  -1.1075  -1.1075  -1.1075  -1.1075  -1.1075  -1.1075
    -1.1075  -1.1075  -1.1075  -1.1075  -1.1075  -1.1075  -1.1075  -1.1075
    -0.7759  -0.7759  -0.7759  -0.7759  -0.7759  -0.7759  -0.7759  -0.7759
     0.2821   0.2822   0.2823   0.2823   0.2823   0.2823   0.2823   0.2823
     0.2823   0.2823   0.2823   0.2823   0.2823   0.2824   0.2824   0.2824
     0.2824   0.2824   0.2824   0.2824   0.2824   0.2824   0.2824   0.2824
     2.5896   2.5896   2.5896   2.5896   2.5896   2.5896   2.5896   2.5896
     2.5896   2.5896   2.5896   2.5896   2.5896   2.5896   2.5897   2.5897
     2.5897   2.5897   2.5897   2.5897   2.5897   2.5898   2.5898   2.5898
     3.8196   3.8197

     the Fermi energy is    -0.6965 ev

!    total energy              =  -16375.67766576 Ry

     total all-electron energy =   -322936.531373 Ry
     estimated scf accuracy    <       0.00000041 Ry
     smearing contrib. (-TS)   =       0.72152740 Ry
     internal energy E=F+TS    =  -16376.39919316 Ry

     The total energy is F=E-TS. E is the sum of the following terms:
     one-electron contribution =   -7695.98880371 Ry
     hartree contribution      =    3885.03774130 Ry
     xc contribution           =    -985.54152088 Ry
     ewald contribution        =   -3413.38302986 Ry
     one-center paw contrib.   =   -8166.52358001 Ry

     convergence has been achieved in  44 iterations

     Forces acting on atoms (cartesian axes, Ry/au):

     atom    1 type  1   force =     0.00000000    0.00000000    0.00000000
     atom    2 type  1   force =    -0.00003888   -0.00003888    0.00000000
     atom    3 type  1   force =    -0.00003888    0.00000000   -0.00003888
     atom    4 type  1   force =     0.00000000   -0.00003888   -0.00003888
     atom    5 type  1   force =     0.00000000    0.00000000    0.00000000
     atom    6 type  1   force =     0.00002850    0.00002850   -0.00000000
     atom    7 type  1   force =    -0.00003888   -0.00000000    0.00003888
     atom    8 type  1   force =    -0.00000000   -0.00003888    0.00003888
     atom    9 type  1   force =     0.00000000    0.00000000    0.00000000
     atom   10 type  1   force =    -0.00003888    0.00003888   -0.00000000
     atom   11 type  1   force =     0.00002850    0.00000000    0.00002850
     atom   12 type  1   force =    -0.00000000    0.00003888   -0.00003888
     atom   13 type  1   force =     0.00000000    0.00000000    0.00000000
     atom   14 type  1   force =     0.00002850   -0.00002850    0.00000000
     atom   15 type  1   force =     0.00002850   -0.00000000   -0.00002850
     atom   16 type  1   force =    -0.00000000    0.00003888    0.00003888
     atom   17 type  1   force =     0.00000000    0.00000000    0.00000000
     atom   18 type  1   force =     0.00003888   -0.00003888    0.00000000
     atom   19 type  1   force =     0.00003888   -0.00000000   -0.00003888
     atom   20 type  1   force =     0.00000000    0.00002850    0.00002850
     atom   21 type  1   force =     0.00000000    0.00000000    0.00000000
     atom   22 type  1   force =    -0.00002850    0.00002850    0.00000000
     atom   23 type  1   force =     0.00003888   -0.00000000    0.00003888
     atom   24 type  1   force =     0.00000000    0.00002850   -0.00002850
     atom   25 type  1   force =     0.00000000    0.00000000    0.00000000
     atom   26 type  1   force =     0.00003888    0.00003888    0.00000000
     atom   27 type  1   force =    -0.00002850    0.00000000    0.00002850
     atom   28 type  1   force =     0.00000000   -0.00002850    0.00002850
     atom   29 type  1   force =     0.00000000    0.00000000    0.00000000
     atom   30 type  1   force =    -0.00002850   -0.00002850    0.00000000
     atom   31 type  1   force =    -0.00002850   -0.00000000   -0.00002850
     atom   32 type  1   force =     0.00000000   -0.00002850   -0.00002850

     Total force =     0.000236     Total SCF correction =     0.001495
     SCF correction compared to forces is large: reduce conv_thr to get better values


     Computing stress (Cartesian axis) and pressure

          total   stress  (Ry/bohr**3)                   (kbar)     P=      -10.33
  -0.00007021   0.00000000   0.00000000          -10.33        0.00        0.00
   0.00000000  -0.00007021   0.00000000            0.00      -10.33        0.00
   0.00000000   0.00000000  -0.00007021            0.00        0.00      -10.33


     Writing output data file /scratch/VoUYSRTlQqCygSJT.save/
 
     init_run     :     71.42s CPU     73.11s WALL (       1 calls)
     electrons    :   8844.81s CPU   8976.40s WALL (       1 calls)
     forces       :     20.58s CPU     21.12s WALL (       1 calls)
     stress       :    326.97s CPU    329.28s WALL (       1 calls)

     Called by init_run:
     wfcinit      :     68.98s CPU     70.48s WALL (       1 calls)
     potinit      :      0.29s CPU      0.32s WALL (       1 calls)
     hinit0       :      0.17s CPU      0.17s WALL (       1 calls)

     Called by electrons:
     c_bands      :   7738.10s CPU   7826.12s WALL (      44 calls)
     sum_band     :   1084.90s CPU   1114.35s WALL (      44 calls)
     v_of_rho     :      5.51s CPU      5.98s WALL (      45 calls)
     newd         :      9.41s CPU     22.55s WALL (      45 calls)
     PAW_pot      :      4.04s CPU      4.28s WALL (      45 calls)
     mix_rho      :      1.98s CPU      2.25s WALL (      44 calls)

     Called by c_bands:
     init_us_2    :     45.14s CPU     45.55s WALL (    3185 calls)
     cegterg      :   7574.23s CPU   7660.29s WALL (    1540 calls)

     Called by *egterg:
     cdiaghg      :    187.11s CPU    188.68s WALL (    5129 calls)
     h_psi        :   4043.85s CPU   4088.24s WALL (    5164 calls)
     s_psi        :    331.72s CPU    333.94s WALL (    5164 calls)
     g_psi        :     38.64s CPU     38.91s WALL (    3589 calls)

     Called by h_psi:
     h_psi:calbec :    403.48s CPU    406.27s WALL (    5164 calls)
     vloc_psi     :   3247.22s CPU   3282.60s WALL (    5164 calls)
     add_vuspsi   :    335.85s CPU    338.73s WALL (    5164 calls)

     General routines
     calbec       :    616.73s CPU    621.21s WALL (    6879 calls)
     fft          :      5.40s CPU      5.67s WALL (     608 calls)
     ffts         :      0.74s CPU      0.77s WALL (      89 calls)
     fftw         :   3809.03s CPU   3851.23s WALL ( 2830578 calls)
     interpolate  :      0.77s CPU      0.80s WALL (      45 calls)
 
     Parallel routines
     fft_scatt_xy :    455.20s CPU    459.14s WALL ( 2831275 calls)
     fft_scatt_yz :   2346.06s CPU   2377.11s WALL ( 2831275 calls)
 
     PWSCF        :      2h35m CPU      2h37m WALL

 
   This run was terminated on:  10:43:50  27Nov2021            

=------------------------------------------------------------------------------=
   JOB DONE.
=------------------------------------------------------------------------------=
