
     Program PWSCF v.6.7MaX starts on 26Nov2021 at 19:57: 6 

     This program is part of the open-source Quantum ESPRESSO suite
     for quantum simulation of materials; please cite
         "P. Giannozzi et al., J. Phys.:Condens. Matter 21 395502 (2009);
         "P. Giannozzi et al., J. Phys.:Condens. Matter 29 465901 (2017);
          URL http://www.quantum-espresso.org", 
     in publications or presentations arising from this work. More details at
     http://www.quantum-espresso.org/quote

     Parallel version (MPI & OpenMP), running on      72 processor cores
     Number of MPI processes:                72
     Threads/MPI process:                     1

     MPI processes distributed on     1 nodes
     R & G space division:  proc/nbgrp/npool/nimage =      72
     Reading input from fcc_7.in
Warning: card &CELL ignored
Warning: card CELL_DYNAMICS = 'BFGS', ignored
Warning: card CELL_FACTOR = 2.0, ignored
Warning: card PRESS = 0.0, ignored
Warning: card / ignored

     Current dimensions of program PWSCF are:
     Max number of different atomic species (ntypx) = 10
     Max number of k-points (npk) =  40000
     Max angular momentum in pseudopotentials (lmaxx) =  3
     file Pd.pbe-spn-kjpaw_psl.1.0.0.UPF: wavefunction(s)  4S 5S 4D renormalized

     Subspace diagonalization in iterative solution of the eigenvalue problem:
     one sub-group per band group will be used
     ELPA distributed-memory algorithm (size of sub-group:  8*  8 procs)

     Found symmetry operation: I + (  0.2500  0.2500  0.0000)
     This is a supercell, fractional translations are disabled
     Message from routine setup:
     using ibrav=0 with symmetry is DISCOURAGED, use correct ibrav instead
 
     Parallelization info
     --------------------
     sticks:   dense  smooth     PW     G-vecs:    dense   smooth      PW
     Min         129      85     22                 9361     5029     698
     Max         130      86     23                 9367     5036     707
     Sum        9289    6149   1649               674277   362205   50685
 


     bravais-lattice index     =            0
     lattice parameter (alat)  =      14.4000  a.u.
     unit-cell volume          =    4479.2413 (a.u.)^3
     number of atoms/cell      =           32
     number of atomic types    =            1
     number of electrons       =       576.00
     number of Kohn-Sham states=          346
     kinetic-energy cutoff     =      71.0000  Ry
     charge density cutoff     =     430.0000  Ry
     scf convergence threshold =      1.0E-06
     mixing beta               =       0.1000
     number of iterations used =           10  TF        mixing
     Exchange-correlation= SLA  PW   PBX  PBC
                           (   1   4   3   4   0   0   0)

     celldm(1)=  14.400000  celldm(2)=   0.000000  celldm(3)=   0.000000
     celldm(4)=   0.000000  celldm(5)=   0.000000  celldm(6)=   0.000000

     crystal axes: (cart. coord. in units of alat)
               a(1) = (   1.144737   0.000000   0.000000 )  
               a(2) = (   0.000000   1.144737   0.000000 )  
               a(3) = (   0.000000   0.000000   1.144737 )  

     reciprocal axes: (cart. coord. in units 2 pi/alat)
               b(1) = (  0.873563  0.000000  0.000000 )  
               b(2) = (  0.000000  0.873563  0.000000 )  
               b(3) = (  0.000000  0.000000  0.873563 )  


     PseudoPot. # 1 for Pd read from file:
     /rds/homes/b/bxp912/pp/Pd.pbe-spn-kjpaw_psl.1.0.0.UPF
     MD5 check sum: 790f2ebce206edfd9790dcb9844eca51
     Pseudo is Projector augmented-wave + core cor, Zval = 18.0
     Generated using &quot;atomic&quot; code by A. Dal Corso  v.6.3
     Shape of augmentation charge: PSQ
     Using radial grid of 1235 points,  6 beta functions with: 
                l(1) =   0
                l(2) =   0
                l(3) =   1
                l(4) =   1
                l(5) =   2
                l(6) =   2
     Q(r) pseudized with 0 coefficients 


     atomic species   valence    mass     pseudopotential
        Pd            18.00   106.42000     Pd( 1.00)

     48 Sym. Ops., with inversion, found



   Cartesian axes

     site n.     atom                  positions (alat units)
         1           Pd  tau(   1) = (   0.0000000   0.0000000   0.0000000  )
         2           Pd  tau(   2) = (   0.2861842   0.2861842   0.0000000  )
         3           Pd  tau(   3) = (   0.2861842   0.0000000   0.2861842  )
         4           Pd  tau(   4) = (   0.0000000   0.2861842   0.2861842  )
         5           Pd  tau(   5) = (   0.0000000   0.0000000   0.5723684  )
         6           Pd  tau(   6) = (   0.2861842   0.2861842   0.5723684  )
         7           Pd  tau(   7) = (   0.2861842   0.0000000   0.8585526  )
         8           Pd  tau(   8) = (   0.0000000   0.2861842   0.8585526  )
         9           Pd  tau(   9) = (   0.0000000   0.5723684   0.0000000  )
        10           Pd  tau(  10) = (   0.2861842   0.8585526   0.0000000  )
        11           Pd  tau(  11) = (   0.2861842   0.5723684   0.2861842  )
        12           Pd  tau(  12) = (   0.0000000   0.8585526   0.2861842  )
        13           Pd  tau(  13) = (   0.0000000   0.5723684   0.5723684  )
        14           Pd  tau(  14) = (   0.2861842   0.8585526   0.5723684  )
        15           Pd  tau(  15) = (   0.2861842   0.5723684   0.8585526  )
        16           Pd  tau(  16) = (   0.0000000   0.8585526   0.8585526  )
        17           Pd  tau(  17) = (   0.5723684   0.0000000   0.0000000  )
        18           Pd  tau(  18) = (   0.8585526   0.2861842   0.0000000  )
        19           Pd  tau(  19) = (   0.8585526   0.0000000   0.2861842  )
        20           Pd  tau(  20) = (   0.5723684   0.2861842   0.2861842  )
        21           Pd  tau(  21) = (   0.5723684   0.0000000   0.5723684  )
        22           Pd  tau(  22) = (   0.8585526   0.2861842   0.5723684  )
        23           Pd  tau(  23) = (   0.8585526   0.0000000   0.8585526  )
        24           Pd  tau(  24) = (   0.5723684   0.2861842   0.8585526  )
        25           Pd  tau(  25) = (   0.5723684   0.5723684   0.0000000  )
        26           Pd  tau(  26) = (   0.8585526   0.8585526   0.0000000  )
        27           Pd  tau(  27) = (   0.8585526   0.5723684   0.2861842  )
        28           Pd  tau(  28) = (   0.5723684   0.8585526   0.2861842  )
        29           Pd  tau(  29) = (   0.5723684   0.5723684   0.5723684  )
        30           Pd  tau(  30) = (   0.8585526   0.8585526   0.5723684  )
        31           Pd  tau(  31) = (   0.8585526   0.5723684   0.8585526  )
        32           Pd  tau(  32) = (   0.5723684   0.8585526   0.8585526  )

     number of k points=    35  Marzari-Vanderbilt smearing, width (Ry)=  0.0400
                       cart. coord. in units 2pi/alat
        k(    1) = (   0.0485313   0.0485313   0.0485313), wk =   0.0219479
        k(    2) = (   0.0485313   0.0485313   0.1455939), wk =   0.0658436
        k(    3) = (   0.0485313   0.0485313   0.2426564), wk =   0.0658436
        k(    4) = (   0.0485313   0.0485313   0.3397190), wk =   0.0658436
        k(    5) = (   0.0485313   0.0485313  -0.4367816), wk =   0.0329218
        k(    6) = (   0.0485313   0.1455939   0.1455939), wk =   0.0658436
        k(    7) = (   0.0485313   0.1455939   0.2426564), wk =   0.1316872
        k(    8) = (   0.0485313   0.1455939   0.3397190), wk =   0.1316872
        k(    9) = (   0.0485313   0.1455939  -0.4367816), wk =   0.0658436
        k(   10) = (   0.0485313   0.2426564   0.2426564), wk =   0.0658436
        k(   11) = (   0.0485313   0.2426564   0.3397190), wk =   0.1316872
        k(   12) = (   0.0485313   0.2426564  -0.4367816), wk =   0.0658436
        k(   13) = (   0.0485313   0.3397190   0.3397190), wk =   0.0658436
        k(   14) = (   0.0485313   0.3397190  -0.4367816), wk =   0.0658436
        k(   15) = (   0.0485313  -0.4367816  -0.4367816), wk =   0.0164609
        k(   16) = (   0.1455939   0.1455939   0.1455939), wk =   0.0219479
        k(   17) = (   0.1455939   0.1455939   0.2426564), wk =   0.0658436
        k(   18) = (   0.1455939   0.1455939   0.3397190), wk =   0.0658436
        k(   19) = (   0.1455939   0.1455939  -0.4367816), wk =   0.0329218
        k(   20) = (   0.1455939   0.2426564   0.2426564), wk =   0.0658436
        k(   21) = (   0.1455939   0.2426564   0.3397190), wk =   0.1316872
        k(   22) = (   0.1455939   0.2426564  -0.4367816), wk =   0.0658436
        k(   23) = (   0.1455939   0.3397190   0.3397190), wk =   0.0658436
        k(   24) = (   0.1455939   0.3397190  -0.4367816), wk =   0.0658436
        k(   25) = (   0.1455939  -0.4367816  -0.4367816), wk =   0.0164609
        k(   26) = (   0.2426564   0.2426564   0.2426564), wk =   0.0219479
        k(   27) = (   0.2426564   0.2426564   0.3397190), wk =   0.0658436
        k(   28) = (   0.2426564   0.2426564  -0.4367816), wk =   0.0329218
        k(   29) = (   0.2426564   0.3397190   0.3397190), wk =   0.0658436
        k(   30) = (   0.2426564   0.3397190  -0.4367816), wk =   0.0658436
        k(   31) = (   0.2426564  -0.4367816  -0.4367816), wk =   0.0164609
        k(   32) = (   0.3397190   0.3397190   0.3397190), wk =   0.0219479
        k(   33) = (   0.3397190   0.3397190  -0.4367816), wk =   0.0329218
        k(   34) = (   0.3397190  -0.4367816  -0.4367816), wk =   0.0164609
        k(   35) = (  -0.4367816  -0.4367816  -0.4367816), wk =   0.0027435

     Dense  grid:   674277 G-vectors     FFT dimensions: ( 120, 120, 120)

     Smooth grid:   362205 G-vectors     FFT dimensions: (  90,  90,  90)

     Estimated max dynamical RAM per process >     173.17 MB

     Estimated total dynamical RAM >      12.18 GB

     Check: negative core charge=   -0.000001

     Initial potential from superposition of free atoms

     starting charge  575.98776, renormalised to  576.00000
     Starting wfcs are  320 randomized atomic wfcs +   26 random wfcs
     Checking if some PAW data can be deallocated... 

     total cpu time spent up to now is       21.1 secs

     Self-consistent Calculation

     iteration #  1     ecut=    71.00 Ry     beta= 0.10
     Davidson diagonalization with overlap
     ethr =  1.00E-02,  avg # of iterations =  3.1

     Threshold (ethr) on eigenvalues was too large:
     Diagonalizing with lowered threshold

     Davidson diagonalization with overlap
     ethr =  4.95E-04,  avg # of iterations =  1.2

     total cpu time spent up to now is      127.0 secs

     total energy              =  -16384.11128782 Ry
     estimated scf accuracy    <       2.77108147 Ry

     iteration #  2     ecut=    71.00 Ry     beta= 0.10
     Davidson diagonalization with overlap
     ethr =  4.81E-04,  avg # of iterations =  1.2

     total cpu time spent up to now is      171.3 secs

     total energy              =  -16383.40403164 Ry
     estimated scf accuracy    <       1.85882125 Ry

     iteration #  3     ecut=    71.00 Ry     beta= 0.10
     Davidson diagonalization with overlap
     ethr =  3.23E-04,  avg # of iterations =  2.1

     total cpu time spent up to now is      229.9 secs

     total energy              =  -16383.68019679 Ry
     estimated scf accuracy    <       0.06548516 Ry

     iteration #  4     ecut=    71.00 Ry     beta= 0.10
     Davidson diagonalization with overlap
     ethr =  1.14E-05,  avg # of iterations =  4.6

     total cpu time spent up to now is      288.8 secs

     total energy              =  -16383.66363912 Ry
     estimated scf accuracy    <       0.03750929 Ry

     iteration #  5     ecut=    71.00 Ry     beta= 0.10
     Davidson diagonalization with overlap
     ethr =  6.51E-06,  avg # of iterations =  2.1

     total cpu time spent up to now is      348.8 secs

     total energy              =  -16383.67428261 Ry
     estimated scf accuracy    <       0.02140041 Ry

     iteration #  6     ecut=    71.00 Ry     beta= 0.10
     Davidson diagonalization with overlap
     ethr =  3.72E-06,  avg # of iterations =  1.0

     total cpu time spent up to now is      386.5 secs

     total energy              =  -16383.67481287 Ry
     estimated scf accuracy    <       0.00368716 Ry

     iteration #  7     ecut=    71.00 Ry     beta= 0.10
     Davidson diagonalization with overlap
     ethr =  6.40E-07,  avg # of iterations =  2.5

     total cpu time spent up to now is      446.1 secs

     total energy              =  -16383.67631082 Ry
     estimated scf accuracy    <       0.00097599 Ry

     iteration #  8     ecut=    71.00 Ry     beta= 0.10
     Davidson diagonalization with overlap
     ethr =  1.69E-07,  avg # of iterations =  3.3

     total cpu time spent up to now is      509.5 secs

     total energy              =  -16383.67481830 Ry
     estimated scf accuracy    <       0.00390344 Ry

     iteration #  9     ecut=    71.00 Ry     beta= 0.10
     Davidson diagonalization with overlap
     ethr =  1.69E-07,  avg # of iterations =  2.0

     total cpu time spent up to now is      565.9 secs

     total energy              =  -16383.67584625 Ry
     estimated scf accuracy    <       0.00012917 Ry

     iteration # 10     ecut=    71.00 Ry     beta= 0.10
     Davidson diagonalization with overlap
     ethr =  2.24E-08,  avg # of iterations =  2.0

     total cpu time spent up to now is      614.9 secs

     total energy              =  -16383.67574742 Ry
     estimated scf accuracy    <       0.00028345 Ry

     iteration # 11     ecut=    71.00 Ry     beta= 0.10
     Davidson diagonalization with overlap
     ethr =  2.24E-08,  avg # of iterations =  2.0

     total cpu time spent up to now is      671.5 secs

     total energy              =  -16383.67581548 Ry
     estimated scf accuracy    <       0.00001984 Ry

     iteration # 12     ecut=    71.00 Ry     beta= 0.10
     Davidson diagonalization with overlap
     ethr =  3.44E-09,  avg # of iterations =  2.0

     total cpu time spent up to now is      724.0 secs

     total energy              =  -16383.67581565 Ry
     estimated scf accuracy    <       0.00001323 Ry

     iteration # 13     ecut=    71.00 Ry     beta= 0.10
     Davidson diagonalization with overlap
     ethr =  2.30E-09,  avg # of iterations =  2.0

     total cpu time spent up to now is      791.1 secs

     total energy              =  -16383.67582806 Ry
     estimated scf accuracy    <       0.00003055 Ry

     iteration # 14     ecut=    71.00 Ry     beta= 0.10
     Davidson diagonalization with overlap
     ethr =  2.30E-09,  avg # of iterations =  1.3

     total cpu time spent up to now is      829.2 secs

     total energy              =  -16383.67582494 Ry
     estimated scf accuracy    <       0.00001350 Ry

     iteration # 15     ecut=    71.00 Ry     beta= 0.10
     Davidson diagonalization with overlap
     ethr =  2.30E-09,  avg # of iterations =  2.0

     total cpu time spent up to now is      877.7 secs

     End of self-consistent calculation

          k = 0.0485 0.0485 0.0485 ( 45271 PWs)   bands (ev):

   -71.0450 -71.0387 -71.0387 -71.0387 -71.0375 -71.0375 -71.0375 -71.0353
   -71.0353 -71.0353 -71.0347 -71.0346 -71.0346 -71.0346 -71.0346 -71.0346
   -71.0346 -71.0346 -71.0346 -71.0346 -71.0341 -71.0340 -71.0340 -71.0312
   -71.0312 -71.0312 -71.0312 -71.0312 -71.0312 -71.0312 -71.0312 -71.0312
   -36.8099 -36.8099 -36.8099 -36.8095 -36.8046 -36.8046 -36.8046 -36.7808
   -36.7808 -36.7808 -36.7795 -36.7795 -36.7795 -36.7795 -36.7795 -36.7795
   -36.7770 -36.7770 -36.7770 -36.7764 -36.7764 -36.7764 -36.7764 -36.7764
   -36.7764 -36.7709 -36.7709 -36.7709 -36.7709 -36.7709 -36.7709 -36.7575
   -36.7575 -36.7575 -36.7511 -36.7511 -36.7511 -36.7482 -36.7482 -36.7482
   -36.7464 -36.7464 -36.7464 -36.7464 -36.7464 -36.7464 -36.7423 -36.7423
   -36.7423 -36.7422 -36.7422 -36.7422 -36.7422 -36.7422 -36.7422 -36.7419
   -36.7419 -36.7419 -36.7418 -36.7418 -36.7417 -36.7223 -36.7223 -36.7223
   -36.7223 -36.7223 -36.7223 -36.7185 -36.7185 -36.7185 -36.7185 -36.7185
   -36.7185 -36.7180 -36.7180 -36.7180 -36.7166 -36.7166 -36.7166 -36.7164
   -36.7164 -36.7164 -36.7164 -36.7164 -36.7164 -36.7161 -36.7161 -36.7161
   -36.7157 -36.7157 -36.7143 -36.7143 -36.7143 -36.6998 -36.6990 -36.6990
     7.4258   9.0817   9.0817   9.0817   9.0910   9.1015   9.1015   9.1015
     9.1484   9.1484   9.1484   9.2825   9.2825   9.2825   9.3043   9.3043
     9.3043   9.8081   9.8081   9.8081   9.8081   9.8081   9.8081   9.8599
     9.8599   9.8599   9.8896   9.8896   9.8896   9.9563   9.9563   9.9563
     9.9563   9.9563   9.9563   9.9669   9.9669   9.9669   9.9731   9.9731
     9.9731  10.2162  10.2162  10.2162  10.2162  10.2162  10.2162  10.2789
    10.2789  10.2789  10.2936  10.2936  10.2936  10.2936  10.2936  10.2936
    10.3333  10.3333  10.3333  10.4383  10.4383  10.4383  10.4383  10.4383
    10.4383  10.5470  10.5470  10.5470  10.5470  10.5470  10.5470  10.5487
    10.5487  10.5487  10.5884  10.5885  10.5885  10.6000  10.6000  10.6030
    10.6065  10.6065  10.6066  10.6076  10.6076  10.6076  10.6144  10.6144
    11.1313  11.1313  11.1313  11.1544  11.1544  11.1544  11.2010  11.2010
    11.2010  11.2010  11.2010  11.2010  11.2031  11.2031  11.2031  11.2651
    11.2651  11.2651  11.2770  11.2770  11.2770  11.3656  11.3656  11.3656
    11.4229  11.4229  11.4229  11.4546  11.4546  11.4546  11.5204  11.5204
    11.5204  11.5204  11.5204  11.5204  11.5216  11.5216  11.5420  11.5420
    11.5420  11.5420  11.5420  11.5420  11.5496  11.5496  11.5496  11.6055
    11.6055  11.6055  11.8221  11.8221  11.8221  11.8819  11.8819  11.8819
    12.1437  12.1437  12.1437  12.1763  12.1763  12.1763  12.1924  12.1924
    12.2037  12.2037  12.2037  12.3430  12.3430  12.3430  12.3662  12.3662
    12.3662  12.3662  12.3662  12.3662  12.3679  12.3680  12.3680  13.5633
    13.5633  13.5633  13.7962  13.9697  13.9697  13.9697  13.9697  13.9697
    13.9697  14.0038  14.0038  14.0038  14.3979  14.3979  14.3979  15.6528
    15.6528  15.6528  17.3520  17.3520  17.3520  17.5171  19.0789  19.0789
    19.0789  19.0789  19.0789  19.0789  19.6152  19.6152  19.6152  19.6152
    19.6152  19.6152  20.0636  20.0636  20.0636  20.3275  20.3275  20.3275
    20.3275  20.3275  20.3275  21.5047  21.5047  21.5047  21.7329  21.7329
    21.7329  21.7329

          k = 0.0485 0.0485 0.1456 ( 45194 PWs)   bands (ev):

   -71.0447 -71.0399 -71.0386 -71.0386 -71.0374 -71.0374 -71.0363 -71.0359
   -71.0359 -71.0352 -71.0351 -71.0351 -71.0348 -71.0346 -71.0346 -71.0346
   -71.0346 -71.0345 -71.0341 -71.0340 -71.0340 -71.0335 -71.0335 -71.0314
   -71.0313 -71.0313 -71.0313 -71.0313 -71.0312 -71.0312 -71.0312 -71.0312
   -36.8091 -36.8086 -36.8086 -36.8076 -36.8035 -36.8035 -36.8028 -36.7842
   -36.7827 -36.7827 -36.7816 -36.7816 -36.7815 -36.7815 -36.7811 -36.7811
   -36.7802 -36.7774 -36.7773 -36.7773 -36.7773 -36.7760 -36.7759 -36.7739
   -36.7739 -36.7716 -36.7716 -36.7698 -36.7698 -36.7665 -36.7655 -36.7655
   -36.7588 -36.7588 -36.7557 -36.7557 -36.7509 -36.7509 -36.7501 -36.7501
   -36.7474 -36.7433 -36.7433 -36.7432 -36.7432 -36.7422 -36.7422 -36.7417
   -36.7417 -36.7416 -36.7416 -36.7415 -36.7410 -36.7406 -36.7406 -36.7404
   -36.7404 -36.7391 -36.7390 -36.7374 -36.7374 -36.7261 -36.7259 -36.7231
   -36.7230 -36.7213 -36.7213 -36.7203 -36.7203 -36.7193 -36.7193 -36.7192
   -36.7192 -36.7185 -36.7179 -36.7177 -36.7177 -36.7175 -36.7175 -36.7164
   -36.7164 -36.7164 -36.7164 -36.7163 -36.7163 -36.7155 -36.7154 -36.7154
   -36.7148 -36.7147 -36.7143 -36.7128 -36.7128 -36.7018 -36.6998 -36.6995
     7.4822   8.8113   9.1077   9.1205   9.1205   9.1287   9.1287   9.1389
     9.1683   9.1787   9.1787   9.3201   9.3201   9.3220   9.3304   9.3304
     9.3862   9.7455   9.7507   9.7522   9.7522   9.8049   9.8049   9.8095
     9.8095   9.8290   9.8290   9.8339   9.8339   9.8416   9.8759   9.8759
     9.9224   9.9224   9.9694   9.9694   9.9866   9.9866  10.0137  10.0137
    10.0179  10.0179  10.0869  10.2078  10.2078  10.2179  10.2179  10.2412
    10.2412  10.2484  10.2484  10.2909  10.2909  10.3551  10.3551  10.3606
    10.3792  10.3792  10.4014  10.4183  10.4183  10.4413  10.4413  10.4537
    10.4537  10.5046  10.5046  10.5137  10.5137  10.5668  10.5769  10.5769
    10.5825  10.6009  10.6141  10.6208  10.6208  10.6286  10.6286  10.6327
    10.6337  10.6341  10.6548  10.6548  10.6804  10.6804  10.6847  10.6891
    11.0078  11.0078  11.0676  11.0700  11.1021  11.1021  11.1189  11.1189
    11.1282  11.1399  11.1700  11.1700  11.2391  11.2535  11.2535  11.2580
    11.2580  11.2688  11.2688  11.2846  11.2846  11.3948  11.3948  11.4124
    11.4124  11.4684  11.4809  11.4809  11.4992  11.5038  11.5038  11.5177
    11.5177  11.5234  11.5234  11.5313  11.5499  11.5738  11.5758  11.5758
    11.6312  11.6312  11.6506  11.6506  11.6816  11.6816  11.6830  11.6920
    11.6920  11.7640  11.8198  11.8516  11.8516  11.9346  11.9346  11.9420
    12.0118  12.0339  12.0339  12.1293  12.1440  12.1440  12.1550  12.1632
    12.1885  12.1895  12.1895  12.2316  12.2316  12.3052  12.3267  12.3267
    12.3272  12.3272  12.3341  12.3660  12.3660  12.3661  12.3662  13.2071
    13.2071  13.5585  13.5860  13.5860  13.6360  13.9723  13.9723  14.0032
    14.0032  14.2013  14.4060  14.4340  14.4340  14.8777  14.8777  15.2828
    15.8145  15.8145  17.3621  17.5315  17.5315  17.8277  18.4027  18.4027
    18.5298  18.5298  18.8649  18.8649  19.1861  19.1861  19.7191  19.7191
    19.9855  19.9855  20.0655  20.0655  20.4920  20.4920  20.5281  20.6529
    20.6530  20.6564  20.7386  20.7386  21.0654  21.0654  21.1243  21.1243
    21.5334  21.5334

          k = 0.0485 0.0485 0.2427 ( 45222 PWs)   bands (ev):

   -71.0443 -71.0410 -71.0383 -71.0383 -71.0372 -71.0372 -71.0365 -71.0365
   -71.0357 -71.0357 -71.0352 -71.0352 -71.0349 -71.0346 -71.0346 -71.0346
   -71.0346 -71.0344 -71.0341 -71.0333 -71.0333 -71.0330 -71.0330 -71.0318
   -71.0315 -71.0315 -71.0315 -71.0315 -71.0312 -71.0312 -71.0312 -71.0312
   -36.8070 -36.8061 -36.8061 -36.8047 -36.8017 -36.8017 -36.7998 -36.7894
   -36.7876 -36.7876 -36.7867 -36.7867 -36.7852 -36.7820 -36.7820 -36.7815
   -36.7815 -36.7788 -36.7788 -36.7761 -36.7761 -36.7751 -36.7746 -36.7746
   -36.7718 -36.7718 -36.7702 -36.7702 -36.7680 -36.7680 -36.7614 -36.7614
   -36.7604 -36.7604 -36.7600 -36.7600 -36.7551 -36.7551 -36.7533 -36.7533
   -36.7451 -36.7451 -36.7421 -36.7421 -36.7420 -36.7416 -36.7416 -36.7401
   -36.7397 -36.7384 -36.7384 -36.7378 -36.7378 -36.7375 -36.7375 -36.7374
   -36.7374 -36.7346 -36.7332 -36.7332 -36.7306 -36.7296 -36.7295 -36.7247
   -36.7246 -36.7232 -36.7232 -36.7225 -36.7225 -36.7216 -36.7208 -36.7208
   -36.7202 -36.7202 -36.7200 -36.7200 -36.7184 -36.7177 -36.7169 -36.7164
   -36.7164 -36.7163 -36.7163 -36.7159 -36.7159 -36.7153 -36.7153 -36.7152
   -36.7144 -36.7121 -36.7121 -36.7114 -36.7112 -36.7050 -36.7011 -36.7007
     7.5939   8.5154   9.1517   9.1827   9.1827   9.1955   9.1955   9.2025
     9.2063   9.2378   9.2378   9.3569   9.3825   9.3825   9.3927   9.3927
     9.4054   9.5860   9.6468   9.6468   9.6485   9.6562   9.6562   9.6864
     9.6959   9.6959   9.8430   9.8430   9.8505   9.8505   9.8670   9.8670
     9.8842   9.8842   9.9076   9.9076   9.9704   9.9704  10.0129  10.0129
    10.0656  10.0656  10.1705  10.1705  10.1965  10.1965  10.1977  10.2037
    10.2037  10.2187  10.2187  10.2569  10.2569  10.3344  10.3344  10.3712
    10.3712  10.3847  10.3847  10.3899  10.4294  10.4294  10.4459  10.4459
    10.4628  10.4628  10.4801  10.5083  10.5083  10.5367  10.5391  10.5570
    10.5570  10.5921  10.6186  10.6186  10.6486  10.6701  10.6701  10.6724
    10.6736  10.6807  10.8514  10.8514  10.8741  10.8810  10.8810  10.8971
    10.9322  10.9322  10.9408  10.9408  10.9627  10.9994  11.0147  11.0221
    11.0221  11.0265  11.2080  11.2210  11.2210  11.2648  11.2648  11.3249
    11.3249  11.3331  11.3331  11.3714  11.3714  11.3720  11.3720  11.4071
    11.4071  11.4563  11.4959  11.4959  11.5093  11.5093  11.5245  11.5245
    11.5397  11.5397  11.5506  11.6694  11.6708  11.6713  11.6713  11.7058
    11.7058  11.7092  11.7247  11.7478  11.7479  11.7734  11.7734  11.7894
    11.7972  11.7972  11.8255  11.8532  11.8532  11.9527  11.9527  11.9536
    12.0010  12.0193  12.0193  12.0932  12.0955  12.0955  12.1098  12.1098
    12.1351  12.1426  12.1426  12.1476  12.2316  12.2319  12.2526  12.2526
    12.2534  12.2534  12.2708  12.3658  12.3658  12.3661  12.3661  12.8919
    12.8919  13.2386  13.2386  13.5491  13.5507  13.9772  13.9772  14.0010
    14.0010  14.3421  14.4199  14.7023  14.9607  14.9607  15.4138  15.4138
    16.1083  16.1083  17.5648  17.6442  17.6442  17.8717  17.8717  17.9817
    17.9817  18.1049  18.1049  18.2564  19.3488  19.3488  19.8596  19.8856
    19.8856  20.0695  20.0695  20.0839  20.0839  20.3299  20.3299  20.6467
    20.6467  20.8090  20.8324  20.8324  20.9173  20.9173  21.0250  21.0250
    21.1281  21.1281

          k = 0.0485 0.0485 0.3397 ( 45246 PWs)   bands (ev):

   -71.0437 -71.0420 -71.0380 -71.0380 -71.0371 -71.0371 -71.0369 -71.0369
   -71.0361 -71.0361 -71.0351 -71.0350 -71.0346 -71.0346 -71.0346 -71.0346
   -71.0343 -71.0342 -71.0341 -71.0328 -71.0328 -71.0325 -71.0325 -71.0324
   -71.0319 -71.0319 -71.0318 -71.0317 -71.0312 -71.0312 -71.0312 -71.0312
   -36.8037 -36.8026 -36.8026 -36.8008 -36.7990 -36.7990 -36.7954 -36.7947
   -36.7930 -36.7930 -36.7913 -36.7913 -36.7906 -36.7828 -36.7822 -36.7822
   -36.7808 -36.7808 -36.7804 -36.7804 -36.7776 -36.7776 -36.7715 -36.7715
   -36.7702 -36.7702 -36.7660 -36.7660 -36.7656 -36.7656 -36.7646 -36.7645
   -36.7640 -36.7640 -36.7591 -36.7591 -36.7574 -36.7574 -36.7557 -36.7557
   -36.7480 -36.7480 -36.7419 -36.7419 -36.7419 -36.7419 -36.7382 -36.7378
   -36.7362 -36.7342 -36.7342 -36.7339 -36.7339 -36.7334 -36.7334 -36.7331
   -36.7331 -36.7329 -36.7327 -36.7297 -36.7293 -36.7293 -36.7269 -36.7269
   -36.7265 -36.7265 -36.7263 -36.7263 -36.7256 -36.7237 -36.7237 -36.7230
   -36.7230 -36.7226 -36.7213 -36.7183 -36.7183 -36.7176 -36.7171 -36.7164
   -36.7163 -36.7163 -36.7163 -36.7158 -36.7158 -36.7150 -36.7145 -36.7144
   -36.7144 -36.7121 -36.7121 -36.7096 -36.7082 -36.7080 -36.7030 -36.7027
     7.7588   8.2289   9.2226   9.2585   9.2630   9.2630   9.2913   9.3014
     9.3014   9.3220   9.3220   9.3730   9.4084   9.4417   9.4604   9.4604
     9.4948   9.4948   9.4974   9.4974   9.5369   9.5414   9.5414   9.5558
     9.5662   9.5662   9.6916   9.6916   9.7424   9.7424   9.9129   9.9129
     9.9544   9.9544   9.9559   9.9559   9.9674   9.9674  10.0508  10.0508
    10.0899  10.0899  10.0976  10.0976  10.1509  10.1509  10.1904  10.1904
    10.1939  10.1939  10.2122  10.2122  10.2714  10.2714  10.3019  10.3372
    10.3372  10.3505  10.3505  10.4240  10.4501  10.4501  10.4535  10.4535
    10.4655  10.4656  10.4760  10.5006  10.5213  10.5302  10.5302  10.5577
    10.5577  10.5748  10.6379  10.6379  10.7027  10.7303  10.7304  10.7316
    10.7322  10.7461  10.7725  10.7725  10.7796  10.7796  10.8627  10.8943
    10.8943  10.9014  10.9039  10.9231  11.1214  11.1214  11.1300  11.1329
    11.2147  11.2147  11.2524  11.2524  11.2552  11.2615  11.2615  11.3738
    11.3738  11.3963  11.4012  11.4012  11.4028  11.4028  11.4036  11.4036
    11.4425  11.4425  11.4904  11.4904  11.5161  11.5161  11.5233  11.5234
    11.5310  11.5310  11.5788  11.6065  11.6252  11.6252  11.6592  11.6636
    11.6636  11.7018  11.7701  11.7701  11.7860  11.7860  11.7934  11.8438
    11.8661  11.8661  11.8687  11.8984  11.9031  11.9031  11.9146  11.9146
    12.0073  12.0073  12.0097  12.0589  12.0694  12.0694  12.0832  12.0845
    12.1273  12.1318  12.1318  12.1520  12.1520  12.1523  12.1523  12.1911
    12.3534  12.3534  12.3658  12.3658  12.3659  12.3660  12.6098  12.6098
    12.7691  12.9202  12.9202  13.5234  13.5367  13.9836  13.9836  13.9966
    13.9966  14.0457  14.4155  14.4342  15.5502  15.5502  16.0081  16.0081
    16.4972  16.4972  16.9013  16.9013  17.3610  17.3610  17.4515  17.4515
    17.9495  18.3453  18.3453  18.7828  19.1287  19.5924  19.5924  19.5930
    19.5930  20.0701  20.0760  20.0760  20.0919  20.0919  20.1196  20.1196
    20.2543  20.2543  20.7519  20.7519  20.9884  20.9884  21.2430  21.2430
    21.3913  21.3913

          k = 0.0485 0.0485-0.4368 ( 45228 PWs)   bands (ev):

   -71.0430 -71.0430 -71.0376 -71.0376 -71.0376 -71.0376 -71.0366 -71.0366
   -71.0366 -71.0366 -71.0351 -71.0351 -71.0346 -71.0346 -71.0346 -71.0346
   -71.0342 -71.0342 -71.0332 -71.0332 -71.0323 -71.0323 -71.0323 -71.0323
   -71.0321 -71.0321 -71.0321 -71.0321 -71.0312 -71.0312 -71.0312 -71.0312
   -36.7996 -36.7996 -36.7981 -36.7981 -36.7981 -36.7981 -36.7959 -36.7959
   -36.7955 -36.7955 -36.7955 -36.7955 -36.7897 -36.7897 -36.7816 -36.7816
   -36.7816 -36.7816 -36.7793 -36.7793 -36.7793 -36.7793 -36.7680 -36.7680
   -36.7680 -36.7680 -36.7675 -36.7674 -36.7674 -36.7674 -36.7626 -36.7626
   -36.7626 -36.7626 -36.7617 -36.7617 -36.7617 -36.7617 -36.7514 -36.7514
   -36.7514 -36.7514 -36.7419 -36.7419 -36.7419 -36.7419 -36.7359 -36.7359
   -36.7355 -36.7355 -36.7306 -36.7306 -36.7303 -36.7303 -36.7303 -36.7303
   -36.7301 -36.7301 -36.7301 -36.7301 -36.7299 -36.7299 -36.7299 -36.7299
   -36.7281 -36.7281 -36.7280 -36.7280 -36.7259 -36.7259 -36.7259 -36.7258
   -36.7252 -36.7252 -36.7173 -36.7173 -36.7169 -36.7169 -36.7169 -36.7169
   -36.7164 -36.7164 -36.7164 -36.7164 -36.7156 -36.7156 -36.7147 -36.7147
   -36.7130 -36.7130 -36.7130 -36.7130 -36.7054 -36.7054 -36.7051 -36.7051
     7.9727   7.9727   9.3178   9.3178   9.3197   9.3197   9.3684   9.3684
     9.3684   9.3684   9.4036   9.4036   9.4259   9.4259   9.4259   9.4259
     9.4293   9.4293   9.4293   9.4293   9.4752   9.4752   9.5638   9.5638
     9.5638   9.5638   9.6167   9.6167   9.6167   9.6167   9.9503   9.9503
     9.9503   9.9503  10.0157  10.0157  10.0157  10.0157  10.0412  10.0412
    10.0412  10.0412  10.0979  10.0979  10.0979  10.0979  10.1911  10.1911
    10.1911  10.1911  10.2164  10.2164  10.2164  10.2164  10.3327  10.3327
    10.3327  10.3327  10.3959  10.3959  10.4526  10.4526  10.4526  10.4526
    10.4618  10.4618  10.4990  10.4990  10.4990  10.4990  10.5510  10.5510
    10.6522  10.6522  10.6522  10.6522  10.6898  10.6898  10.6898  10.6898
    10.7748  10.7748  10.8072  10.8072  10.8073  10.8073  10.8088  10.8088
    10.8093  10.8093  10.8280  10.8280  11.2590  11.2590  11.2590  11.2590
    11.3256  11.3256  11.3705  11.3705  11.3736  11.3736  11.3736  11.3736
    11.3927  11.3927  11.3927  11.3928  11.4176  11.4176  11.4559  11.4559
    11.4559  11.4559  11.4678  11.4678  11.4678  11.4678  11.4905  11.4905
    11.4905  11.4905  11.4950  11.4950  11.4950  11.4950  11.5978  11.5978
    11.5978  11.5978  11.6154  11.6154  11.9022  11.9022  11.9022  11.9022
    11.9083  11.9083  11.9754  11.9754  11.9755  11.9755  11.9947  11.9947
    11.9965  11.9965  11.9986  11.9986  12.0322  12.0322  12.0322  12.0322
    12.0361  12.0361  12.0361  12.0361  12.1188  12.1188  12.3559  12.3559
    12.3559  12.3559  12.3659  12.3659  12.3659  12.3659  12.6257  12.6257
    12.6257  12.6257  13.3867  13.3867  13.5251  13.5251  13.9904  13.9904
    13.9904  13.9904  14.4385  14.4385  16.1993  16.1993  16.1993  16.1993
    16.6588  16.6588  16.6588  16.6588  16.9518  16.9518  16.9518  16.9518
    18.4827  18.4827  18.9261  18.9261  18.9261  18.9261  19.3914  19.3914
    19.8987  19.8987  19.8987  19.8987  20.0846  20.0846  20.0846  20.0846
    20.4122  20.4122  20.4122  20.4122  21.1686  21.1686  21.1686  21.1686
    21.4702  21.4702

          k = 0.0485 0.1456 0.1456 ( 45227 PWs)   bands (ev):

   -71.0445 -71.0397 -71.0397 -71.0385 -71.0373 -71.0366 -71.0362 -71.0362
   -71.0359 -71.0359 -71.0351 -71.0351 -71.0350 -71.0347 -71.0344 -71.0344
   -71.0344 -71.0344 -71.0340 -71.0340 -71.0335 -71.0335 -71.0331 -71.0314
   -71.0314 -71.0314 -71.0314 -71.0313 -71.0313 -71.0313 -71.0313 -71.0312
   -36.8084 -36.8084 -36.8069 -36.8054 -36.8026 -36.8020 -36.8020 -36.7852
   -36.7852 -36.7843 -36.7843 -36.7821 -36.7821 -36.7813 -36.7809 -36.7809
   -36.7804 -36.7804 -36.7801 -36.7801 -36.7783 -36.7783 -36.7769 -36.7769
   -36.7698 -36.7689 -36.7689 -36.7675 -36.7675 -36.7671 -36.7670 -36.7646
   -36.7646 -36.7603 -36.7603 -36.7520 -36.7517 -36.7517 -36.7475 -36.7474
   -36.7462 -36.7462 -36.7449 -36.7426 -36.7425 -36.7414 -36.7413 -36.7409
   -36.7409 -36.7408 -36.7408 -36.7408 -36.7404 -36.7403 -36.7391 -36.7391
   -36.7391 -36.7391 -36.7349 -36.7349 -36.7331 -36.7268 -36.7268 -36.7253
   -36.7253 -36.7222 -36.7219 -36.7219 -36.7202 -36.7202 -36.7200 -36.7200
   -36.7192 -36.7192 -36.7188 -36.7188 -36.7183 -36.7181 -36.7175 -36.7172
   -36.7172 -36.7168 -36.7158 -36.7156 -36.7156 -36.7155 -36.7155 -36.7155
   -36.7137 -36.7137 -36.7129 -36.7129 -36.7108 -36.7040 -36.7004 -36.6995
     7.5380   8.8525   8.8525   9.1129   9.1447   9.1531   9.1751   9.1751
     9.1989   9.1989   9.2056   9.3477   9.3477   9.3495   9.3589   9.4230
     9.4230   9.6673   9.6744   9.6744   9.7631   9.7631   9.7676   9.7676
     9.7690   9.7690   9.7785   9.7785   9.8542   9.8542   9.8698   9.8698
     9.8707   9.8707   9.8988   9.9213  10.0060  10.0166  10.0166  10.0253
    10.0253  10.0315  10.0315  10.0978  10.0978  10.1913  10.1913  10.2357
    10.2357  10.2472  10.3277  10.3277  10.3297  10.3297  10.3877  10.3878
    10.3899  10.3899  10.3928  10.3967  10.3967  10.4420  10.4420  10.5195
    10.5429  10.5430  10.5672  10.5672  10.5722  10.5729  10.5960  10.5960
    10.6063  10.6285  10.6418  10.6452  10.6452  10.6485  10.6521  10.6606
    10.6606  10.6638  10.6638  10.6664  10.6664  10.6766  10.6767  10.6878
    10.9461  10.9738  10.9738  11.0218  11.0707  11.0707  11.1341  11.1344
    11.1344  11.1528  11.1528  11.1863  11.1863  11.2032  11.2032  11.2172
    11.2667  11.2667  11.2860  11.3125  11.3363  11.3363  11.3448  11.3548
    11.3548  11.4934  11.5076  11.5076  11.5148  11.5148  11.5264  11.5617
    11.5617  11.5678  11.5678  11.5839  11.5839  11.6002  11.6168  11.6168
    11.6294  11.6294  11.7348  11.7348  11.7543  11.7629  11.7629  11.7820
    11.7820  11.8456  11.8589  11.8835  11.8835  11.8907  11.8907  11.9308
    11.9312  12.0558  12.0933  12.0933  12.1122  12.1123  12.1155  12.1451
    12.1685  12.1958  12.1958  12.2016  12.2095  12.2095  12.2945  12.2945
    12.3263  12.3263  12.3278  12.3278  12.3332  12.3332  12.3452  12.8833
    13.1973  13.1973  13.3419  13.5852  13.5852  13.8274  14.0289  14.0289
    14.3735  14.3735  14.4463  14.4463  14.8931  14.8931  15.3667  15.4399
    15.4399  15.9676  17.3717  17.3717  17.8473  17.9234  17.9234  18.2282
    18.4810  18.4810  18.6225  18.6225  18.9660  18.9660  19.3204  19.3204
    20.0657  20.1999  20.1999  20.2219  20.2219  20.5345  20.5345  20.6067
    20.6067  20.6107  20.6850  20.6850  20.8638  20.8638  21.2763  21.2763
    21.6268  21.6430

          k = 0.0485 0.1456 0.2427 ( 45254 PWs)   bands (ev):

   -71.0441 -71.0408 -71.0395 -71.0382 -71.0374 -71.0371 -71.0365 -71.0361
   -71.0358 -71.0356 -71.0352 -71.0351 -71.0351 -71.0348 -71.0348 -71.0343
   -71.0342 -71.0340 -71.0337 -71.0336 -71.0334 -71.0330 -71.0327 -71.0318
   -71.0316 -71.0316 -71.0316 -71.0314 -71.0314 -71.0313 -71.0313 -71.0312
   -36.8068 -36.8063 -36.8040 -36.8021 -36.8008 -36.8003 -36.7991 -36.7903
   -36.7892 -36.7867 -36.7859 -36.7854 -36.7852 -36.7851 -36.7828 -36.7819
   -36.7817 -36.7808 -36.7805 -36.7800 -36.7796 -36.7784 -36.7774 -36.7756
   -36.7730 -36.7694 -36.7692 -36.7674 -36.7658 -36.7651 -36.7647 -36.7631
   -36.7630 -36.7624 -36.7595 -36.7557 -36.7554 -36.7516 -36.7503 -36.7474
   -36.7458 -36.7452 -36.7445 -36.7424 -36.7417 -36.7412 -36.7409 -36.7409
   -36.7403 -36.7401 -36.7396 -36.7381 -36.7373 -36.7366 -36.7365 -36.7352
   -36.7348 -36.7330 -36.7310 -36.7309 -36.7305 -36.7291 -36.7289 -36.7285
   -36.7243 -36.7241 -36.7236 -36.7235 -36.7229 -36.7228 -36.7225 -36.7224
   -36.7206 -36.7199 -36.7197 -36.7191 -36.7190 -36.7189 -36.7179 -36.7178
   -36.7170 -36.7169 -36.7166 -36.7166 -36.7157 -36.7155 -36.7150 -36.7131
   -36.7123 -36.7122 -36.7121 -36.7102 -36.7095 -36.7077 -36.7017 -36.7002
     7.6486   8.5600   8.9329   9.1446   9.1871   9.2150   9.2368   9.2373
     9.2460   9.2579   9.2583   9.3821   9.3993   9.4048   9.4155   9.4408
     9.4942   9.5125   9.5276   9.5925   9.6086   9.6576   9.6688   9.6810
     9.7113   9.7117   9.7298   9.7814   9.8056   9.8298   9.8538   9.8749
     9.8809   9.8902   9.8980   9.9034   9.9320   9.9456   9.9501  10.0396
    10.0451  10.0624  10.0706  10.1184  10.1450  10.1558  10.1584  10.2060
    10.2339  10.2483  10.2522  10.2681  10.2738  10.3382  10.3499  10.3530
    10.3542  10.3605  10.4156  10.4465  10.4658  10.4762  10.5018  10.5107
    10.5151  10.5154  10.5356  10.5428  10.5525  10.5620  10.5817  10.6069
    10.6249  10.6291  10.6580  10.6682  10.6756  10.6868  10.6886  10.7124
    10.7140  10.7178  10.7364  10.7945  10.7963  10.8526  10.8624  10.8805
    10.8950  10.8957  10.9304  10.9457  10.9707  11.0117  11.0490  11.0530
    11.0871  11.1002  11.1021  11.1320  11.1441  11.1860  11.1961  11.2649
    11.2677  11.2733  11.2932  11.3063  11.3477  11.4002  11.4381  11.4496
    11.4574  11.4622  11.4953  11.5048  11.5120  11.5424  11.5501  11.5557
    11.5925  11.6305  11.6397  11.6404  11.6585  11.6782  11.6827  11.7027
    11.7048  11.7122  11.7190  11.7502  11.7550  11.7635  11.8371  11.8440
    11.8450  11.8455  11.8545  11.8583  11.8614  11.8662  11.8922  11.9351
    11.9489  11.9653  12.0014  12.0455  12.0610  12.1013  12.1123  12.1163
    12.1669  12.1726  12.1741  12.1757  12.2338  12.2344  12.2525  12.2547
    12.2741  12.3261  12.3284  12.3319  12.3337  12.3674  12.4570  12.6038
    12.8793  13.1752  13.1785  13.2363  13.5847  13.6550  13.7036  14.4689
    14.4825  14.5404  14.6778  14.8582  14.9189  14.9840  15.4380  15.7218
    15.9064  16.2486  17.1889  17.3955  17.4415  17.5787  17.7141  18.0813
    18.1754  18.2805  18.5689  18.6363  18.7144  18.8085  19.1093  19.4263
    19.6976  19.8209  19.8880  20.0649  20.1725  20.2816  20.3943  20.4957
    20.5470  20.6447  20.6904  20.8377  21.1246  21.2657  21.3055  21.3251
    21.3497  21.5904

          k = 0.0485 0.1456 0.3397 ( 45250 PWs)   bands (ev):

   -71.0435 -71.0419 -71.0391 -71.0380 -71.0379 -71.0370 -71.0368 -71.0361
   -71.0358 -71.0357 -71.0354 -71.0352 -71.0350 -71.0349 -71.0342 -71.0341
   -71.0341 -71.0340 -71.0337 -71.0330 -71.0328 -71.0326 -71.0324 -71.0323
   -71.0320 -71.0319 -71.0318 -71.0316 -71.0314 -71.0314 -71.0312 -71.0312
   -36.8040 -36.8032 -36.8002 -36.7981 -36.7979 -36.7978 -36.7955 -36.7950
   -36.7944 -36.7910 -36.7905 -36.7904 -36.7873 -36.7854 -36.7848 -36.7834
   -36.7832 -36.7830 -36.7830 -36.7819 -36.7790 -36.7780 -36.7764 -36.7740
   -36.7715 -36.7713 -36.7687 -36.7685 -36.7665 -36.7652 -36.7627 -36.7606
   -36.7601 -36.7596 -36.7593 -36.7579 -36.7556 -36.7549 -36.7542 -36.7505
   -36.7498 -36.7472 -36.7411 -36.7409 -36.7401 -36.7400 -36.7395 -36.7393
   -36.7377 -36.7375 -36.7367 -36.7347 -36.7338 -36.7338 -36.7334 -36.7332
   -36.7323 -36.7316 -36.7308 -36.7302 -36.7281 -36.7274 -36.7270 -36.7266
   -36.7266 -36.7266 -36.7261 -36.7260 -36.7257 -36.7254 -36.7253 -36.7226
   -36.7220 -36.7217 -36.7198 -36.7195 -36.7193 -36.7192 -36.7188 -36.7188
   -36.7185 -36.7182 -36.7163 -36.7160 -36.7158 -36.7148 -36.7144 -36.7135
   -36.7125 -36.7124 -36.7106 -36.7091 -36.7088 -36.7069 -36.7035 -36.7018
     7.8118   8.2769   9.0478   9.2026   9.2555   9.2901   9.2999   9.3229
     9.3334   9.3400   9.3431   9.3492   9.3959   9.4069   9.4327   9.4677
     9.4764   9.4786   9.4989   9.4989   9.5401   9.5627   9.5646   9.5778
     9.5867   9.5949   9.6414   9.7048   9.7331   9.8023   9.8413   9.8493
     9.8607   9.9037   9.9254   9.9283   9.9737   9.9940  10.0177  10.0320
    10.0602  10.0647  10.1042  10.1114  10.1144  10.1330  10.1458  10.1466
    10.1574  10.2067  10.2096  10.2345  10.2717  10.2726  10.3076  10.3237
    10.3691  10.3950  10.4564  10.4575  10.4732  10.4761  10.4985  10.5002
    10.5039  10.5126  10.5268  10.5453  10.5605  10.5622  10.5852  10.5951
    10.6006  10.6380  10.6532  10.7051  10.7258  10.7325  10.7422  10.7423
    10.7601  10.7650  10.7819  10.7894  10.8059  10.8479  10.8545  10.8712
    10.8848  10.9026  10.9306  10.9692  11.0539  11.0713  11.0820  11.0855
    11.1271  11.1321  11.1464  11.1607  11.1655  11.1963  11.2317  11.2813
    11.2817  11.3001  11.3432  11.3744  11.4015  11.4018  11.4159  11.4613
    11.4812  11.4980  11.5020  11.5032  11.5200  11.5235  11.5302  11.5475
    11.5535  11.5729  11.5912  11.6452  11.6484  11.6625  11.6625  11.6635
    11.6919  11.7047  11.7294  11.7687  11.7727  11.7966  11.7991  11.8171
    11.8578  11.8821  11.8999  11.9366  11.9436  11.9539  11.9544  11.9590
    11.9616  11.9703  11.9805  12.0175  12.0217  12.0745  12.0962  12.1041
    12.1144  12.1231  12.1258  12.1525  12.1530  12.1535  12.1550  12.2046
    12.3262  12.3290  12.3290  12.3307  12.3514  12.3600  12.5958  12.6637
    12.9179  12.9641  13.1233  13.1535  13.3058  13.5877  13.6332  14.2069
    14.4971  14.5245  14.8650  14.9424  15.1197  15.5850  16.0419  16.0890
    16.4566  16.4993  16.6246  16.9593  16.9669  17.4170  17.5586  17.6407
    17.8390  17.9693  18.7065  18.8098  18.8551  19.0636  19.1559  19.2748
    19.3230  19.4557  19.7602  19.9167  19.9380  20.0586  20.0991  20.5640
    20.5770  20.5868  20.6301  20.7944  20.8490  21.1157  21.2480  21.5468
    21.5631  21.8051

          k = 0.0485 0.1456-0.4368 ( 45246 PWs)   bands (ev):

   -71.0428 -71.0428 -71.0386 -71.0386 -71.0375 -71.0375 -71.0365 -71.0365
   -71.0356 -71.0355 -71.0355 -71.0355 -71.0350 -71.0350 -71.0341 -71.0341
   -71.0339 -71.0339 -71.0332 -71.0332 -71.0325 -71.0324 -71.0323 -71.0323
   -71.0322 -71.0322 -71.0319 -71.0319 -71.0314 -71.0314 -71.0312 -71.0312
   -36.8002 -36.8002 -36.7992 -36.7992 -36.7956 -36.7956 -36.7947 -36.7947
   -36.7946 -36.7946 -36.7928 -36.7928 -36.7895 -36.7895 -36.7845 -36.7845
   -36.7836 -36.7836 -36.7836 -36.7836 -36.7777 -36.7777 -36.7739 -36.7739
   -36.7712 -36.7711 -36.7702 -36.7702 -36.7641 -36.7641 -36.7625 -36.7625
   -36.7593 -36.7593 -36.7576 -36.7576 -36.7550 -36.7550 -36.7539 -36.7539
   -36.7507 -36.7507 -36.7410 -36.7410 -36.7400 -36.7400 -36.7368 -36.7368
   -36.7353 -36.7353 -36.7339 -36.7339 -36.7334 -36.7334 -36.7313 -36.7313
   -36.7307 -36.7307 -36.7303 -36.7303 -36.7298 -36.7298 -36.7297 -36.7297
   -36.7283 -36.7283 -36.7257 -36.7257 -36.7243 -36.7243 -36.7226 -36.7226
   -36.7219 -36.7219 -36.7210 -36.7210 -36.7191 -36.7191 -36.7185 -36.7185
   -36.7185 -36.7185 -36.7172 -36.7172 -36.7161 -36.7161 -36.7139 -36.7139
   -36.7133 -36.7133 -36.7095 -36.7095 -36.7060 -36.7060 -36.7040 -36.7040
     8.0235   8.0235   9.1900   9.1900   9.2867   9.2867   9.3493   9.3493
     9.3504   9.3504   9.3982   9.3982   9.4290   9.4290   9.4322   9.4322
     9.4479   9.4479   9.4547   9.4547   9.4985   9.4985   9.5610   9.5610
     9.5786   9.5786   9.6063   9.6063   9.7158   9.7158   9.8242   9.8242
     9.9355   9.9355   9.9420   9.9420   9.9932   9.9932  10.0550  10.0550
    10.0608  10.0608  10.0879  10.0879  10.1157  10.1157  10.1497  10.1497
    10.1787  10.1787  10.1820  10.1820  10.1870  10.1870  10.3988  10.3988
    10.4105  10.4105  10.4105  10.4105  10.4335  10.4335  10.4764  10.4764
    10.5238  10.5238  10.5486  10.5486  10.5861  10.5861  10.6294  10.6294
    10.6497  10.6497  10.6773  10.6773  10.6853  10.6853  10.7542  10.7542
    10.7703  10.7703  10.8086  10.8086  10.8104  10.8104  10.8124  10.8124
    10.8634  10.8634  10.8758  10.8758  11.1371  11.1371  11.1475  11.1475
    11.2588  11.2588  11.2786  11.2786  11.2813  11.2813  11.2937  11.2937
    11.3372  11.3372  11.3555  11.3555  11.3582  11.3582  11.4103  11.4103
    11.4346  11.4346  11.4383  11.4383  11.4666  11.4666  11.4753  11.4753
    11.5333  11.5333  11.5703  11.5703  11.6110  11.6110  11.6134  11.6134
    11.7272  11.7272  11.7554  11.7554  11.8101  11.8101  11.8803  11.8803
    11.9002  11.9002  11.9160  11.9160  11.9899  11.9899  12.0031  12.0031
    12.0324  12.0324  12.0458  12.0458  12.0499  12.0499  12.0511  12.0511
    12.0579  12.0579  12.0588  12.0588  12.1392  12.1392  12.1475  12.1475
    12.3270  12.3270  12.3298  12.3298  12.3409  12.3409  12.6240  12.6240
    12.9764  12.9764  13.1293  13.1293  13.5604  13.5604  13.6001  13.6001
    14.5212  14.5212  14.9385  14.9385  15.7615  15.7615  16.2457  16.2457
    16.5111  16.5111  16.7031  16.7031  17.0681  17.0681  17.1449  17.1449
    18.0949  18.0949  18.5072  18.5073  19.1314  19.1314  19.3861  19.3861
    19.4199  19.4199  19.5949  19.5949  19.9012  19.9012  20.0317  20.0317
    20.5799  20.5799  20.9166  20.9166  20.9333  20.9333  21.2307  21.2307
    21.8425  21.8425

          k = 0.0485 0.2427 0.2427 ( 45231 PWs)   bands (ev):

   -71.0437 -71.0406 -71.0405 -71.0382 -71.0380 -71.0369 -71.0364 -71.0364
   -71.0356 -71.0356 -71.0355 -71.0350 -71.0350 -71.0350 -71.0340 -71.0340
   -71.0340 -71.0340 -71.0334 -71.0334 -71.0332 -71.0332 -71.0323 -71.0318
   -71.0318 -71.0318 -71.0318 -71.0316 -71.0316 -71.0314 -71.0314 -71.0312
   -36.8053 -36.8053 -36.8010 -36.7989 -36.7985 -36.7979 -36.7979 -36.7905
   -36.7905 -36.7899 -36.7899 -36.7866 -36.7866 -36.7843 -36.7843 -36.7834
   -36.7834 -36.7818 -36.7818 -36.7814 -36.7814 -36.7790 -36.7777 -36.7777
   -36.7767 -36.7767 -36.7689 -36.7662 -36.7653 -36.7653 -36.7630 -36.7630
   -36.7596 -36.7590 -36.7580 -36.7580 -36.7503 -36.7495 -36.7494 -36.7463
   -36.7463 -36.7457 -36.7457 -36.7431 -36.7431 -36.7395 -36.7395 -36.7390
   -36.7386 -36.7385 -36.7372 -36.7372 -36.7372 -36.7372 -36.7346 -36.7346
   -36.7321 -36.7321 -36.7315 -36.7315 -36.7280 -36.7280 -36.7275 -36.7275
   -36.7264 -36.7264 -36.7260 -36.7250 -36.7230 -36.7230 -36.7225 -36.7225
   -36.7223 -36.7221 -36.7221 -36.7214 -36.7192 -36.7191 -36.7185 -36.7180
   -36.7176 -36.7175 -36.7160 -36.7157 -36.7157 -36.7154 -36.7135 -36.7135
   -36.7126 -36.7126 -36.7118 -36.7086 -36.7086 -36.7076 -36.7029 -36.7003
     7.7571   8.6474   8.6474   9.1619   9.2159   9.2513   9.2975   9.2976
     9.2989   9.3126   9.3126   9.3153   9.4273   9.4325   9.4325   9.4699
     9.4699   9.4792   9.5095   9.5095   9.5703   9.5703   9.6645   9.6645
     9.7096   9.7096   9.7289   9.7289   9.7789   9.7789   9.7801   9.7801
     9.8074   9.8754   9.8754   9.9337   9.9337   9.9339   9.9339   9.9673
     9.9673  10.0207  10.0944  10.0944  10.1074  10.1074  10.1099  10.2207
    10.2207  10.2538  10.2718  10.2718  10.2765  10.2765  10.3000  10.4042
    10.4042  10.4578  10.4578  10.5100  10.5100  10.5148  10.5206  10.5206
    10.5311  10.5311  10.5589  10.5876  10.5876  10.6103  10.6522  10.6810
    10.6810  10.6895  10.6957  10.7188  10.7236  10.7339  10.7339  10.7686
    10.7766  10.7766  10.7997  10.8026  10.8026  10.8137  10.8137  10.8250
    10.8864  10.8864  10.9081  10.9081  10.9932  10.9932  11.0112  11.0112
    11.0772  11.0772  11.0968  11.1189  11.1656  11.1656  11.1871  11.1871
    11.2211  11.2211  11.2242  11.2255  11.3186  11.3186  11.4014  11.4418
    11.4651  11.4651  11.5380  11.5380  11.5423  11.5423  11.5458  11.5774
    11.6322  11.6322  11.6598  11.6598  11.6952  11.6952  11.7055  11.7055
    11.7102  11.7571  11.7571  11.7678  11.7678  11.7908  11.7908  11.8355
    11.8471  11.8471  11.8476  11.8953  11.9151  11.9402  11.9402  11.9437
    11.9437  11.9649  11.9649  11.9967  12.0046  12.1058  12.1058  12.1333
    12.1543  12.1781  12.1781  12.1860  12.1989  12.1990  12.2537  12.2537
    12.2564  12.2564  12.2693  12.2693  12.2986  12.3616  12.7545  12.7545
    12.8557  12.8557  12.9213  13.2345  13.2345  13.4799  14.1465  14.1465
    14.9410  14.9411  15.0260  15.0260  15.1321  15.1321  15.4771  15.4771
    16.4438  16.5099  16.7400  16.7400  17.4177  17.4177  17.8286  17.8286
    18.2735  18.2735  18.3318  18.3318  18.7720  19.0306  19.0306  19.0380
    19.0380  19.2367  19.4844  19.4844  19.7132  20.0485  20.6041  20.6041
    20.8346  20.8346  21.0974  21.3166  21.3166  21.3840  21.3840  21.5486
    21.5487  21.6340

          k = 0.0485 0.2427 0.3397 ( 45276 PWs)   bands (ev):

   -71.0432 -71.0415 -71.0401 -71.0389 -71.0377 -71.0369 -71.0367 -71.0362
   -71.0360 -71.0358 -71.0355 -71.0352 -71.0348 -71.0343 -71.0340 -71.0338
   -71.0337 -71.0335 -71.0333 -71.0333 -71.0329 -71.0327 -71.0324 -71.0321
   -71.0321 -71.0320 -71.0320 -71.0318 -71.0317 -71.0315 -71.0313 -71.0313
   -36.8030 -36.8027 -36.7969 -36.7963 -36.7958 -36.7953 -36.7948 -36.7941
   -36.7940 -36.7902 -36.7897 -36.7896 -36.7888 -36.7870 -36.7863 -36.7862
   -36.7861 -36.7837 -36.7833 -36.7832 -36.7821 -36.7805 -36.7782 -36.7781
   -36.7779 -36.7731 -36.7715 -36.7699 -36.7684 -36.7635 -36.7612 -36.7599
   -36.7587 -36.7557 -36.7538 -36.7537 -36.7534 -36.7531 -36.7504 -36.7495
   -36.7458 -36.7430 -36.7424 -36.7415 -36.7411 -36.7407 -36.7394 -36.7389
   -36.7382 -36.7374 -36.7373 -36.7355 -36.7353 -36.7346 -36.7340 -36.7320
   -36.7319 -36.7316 -36.7311 -36.7304 -36.7299 -36.7285 -36.7283 -36.7275
   -36.7273 -36.7267 -36.7256 -36.7255 -36.7244 -36.7240 -36.7238 -36.7236
   -36.7219 -36.7216 -36.7214 -36.7206 -36.7202 -36.7202 -36.7197 -36.7195
   -36.7176 -36.7172 -36.7170 -36.7165 -36.7161 -36.7157 -36.7155 -36.7148
   -36.7132 -36.7130 -36.7102 -36.7072 -36.7067 -36.7055 -36.7048 -36.7012
     7.9168   8.3712   8.7740   9.1179   9.2037   9.2691   9.2995   9.3517
     9.3596   9.3614   9.3836   9.4010   9.4083   9.4120   9.4472   9.4577
     9.4727   9.4816   9.5081   9.5315   9.5478   9.5693   9.6068   9.6090
     9.6221   9.6373   9.6475   9.6806   9.7313   9.7503   9.7718   9.7957
     9.8046   9.8340   9.8480   9.8530   9.9084   9.9322   9.9392   9.9707
     9.9755  10.0141  10.0301  10.0445  10.0736  10.1301  10.1851  10.1961
    10.2063  10.2094  10.2383  10.2600  10.3018  10.3141  10.3159  10.4021
    10.4091  10.4254  10.4626  10.4682  10.4845  10.5291  10.5519  10.5695
    10.5698  10.5767  10.5944  10.5948  10.6116  10.6383  10.6759  10.7102
    10.7338  10.7353  10.7355  10.7362  10.7426  10.7434  10.7623  10.7762
    10.7922  10.8003  10.8273  10.8399  10.8527  10.8557  10.8627  10.8714
    10.9042  10.9166  10.9584  10.9788  10.9886  10.9948  11.0155  11.0160
    11.0582  11.0663  11.0666  11.0737  11.0920  11.1047  11.1570  11.1711
    11.2445  11.2497  11.2725  11.3083  11.3254  11.3540  11.3556  11.3611
    11.3996  11.4008  11.4066  11.4170  11.4643  11.4701  11.5748  11.5915
    11.5979  11.6230  11.6232  11.6391  11.6837  11.6942  11.6959  11.7129
    11.7199  11.7341  11.7923  11.8085  11.8119  11.8381  11.8450  11.8492
    11.8523  11.9043  11.9084  11.9298  11.9342  11.9720  11.9756  12.0222
    12.0235  12.0262  12.0284  12.0304  12.0486  12.0641  12.0716  12.0838
    12.1475  12.1506  12.1516  12.1516  12.1550  12.1555  12.1563  12.1614
    12.1921  12.2568  12.2585  12.2646  12.2758  12.3692  12.5706  12.8120
    12.8256  12.9186  13.0777  13.2404  13.2555  13.3391  13.7736  14.4813
    14.7112  15.0752  15.0804  15.2945  15.4818  15.5066  15.6465  16.0246
    16.0941  16.3006  16.8652  17.0291  17.0573  17.4627  17.4736  17.6726
    17.7643  18.1209  18.3296  18.3375  18.5377  18.5467  18.6750  18.7603
    19.1217  19.2804  19.3350  19.4808  19.8181  19.9939  20.5963  20.6472
    20.6553  20.9020  21.1100  21.1109  21.1419  21.1433  21.3196  21.7471
    21.8728  21.9415

          k = 0.0485 0.2427-0.4368 ( 45254 PWs)   bands (ev):

   -71.0424 -71.0424 -71.0396 -71.0396 -71.0373 -71.0373 -71.0364 -71.0364
   -71.0360 -71.0360 -71.0353 -71.0353 -71.0346 -71.0346 -71.0337 -71.0337
   -71.0335 -71.0335 -71.0331 -71.0331 -71.0326 -71.0326 -71.0325 -71.0325
   -71.0323 -71.0323 -71.0318 -71.0318 -71.0317 -71.0317 -71.0313 -71.0313
   -36.7996 -36.7996 -36.7991 -36.7991 -36.7932 -36.7932 -36.7929 -36.7929
   -36.7922 -36.7922 -36.7891 -36.7891 -36.7887 -36.7887 -36.7885 -36.7885
   -36.7882 -36.7882 -36.7854 -36.7854 -36.7795 -36.7795 -36.7793 -36.7793
   -36.7740 -36.7740 -36.7709 -36.7709 -36.7683 -36.7683 -36.7573 -36.7573
   -36.7566 -36.7566 -36.7546 -36.7546 -36.7529 -36.7529 -36.7492 -36.7492
   -36.7480 -36.7480 -36.7392 -36.7392 -36.7386 -36.7386 -36.7377 -36.7377
   -36.7376 -36.7376 -36.7367 -36.7367 -36.7352 -36.7352 -36.7347 -36.7347
   -36.7315 -36.7315 -36.7309 -36.7309 -36.7289 -36.7289 -36.7287 -36.7287
   -36.7258 -36.7258 -36.7253 -36.7253 -36.7237 -36.7237 -36.7231 -36.7231
   -36.7217 -36.7217 -36.7211 -36.7211 -36.7210 -36.7210 -36.7203 -36.7203
   -36.7182 -36.7182 -36.7179 -36.7179 -36.7166 -36.7166 -36.7140 -36.7140
   -36.7138 -36.7138 -36.7073 -36.7073 -36.7065 -36.7065 -36.7030 -36.7030
     8.1239   8.1239   8.9337   8.9337   9.2699   9.2699   9.3464   9.3464
     9.3545   9.3545   9.4138   9.4138   9.4450   9.4450   9.4900   9.4900
     9.4933   9.4933   9.5099   9.5099   9.5213   9.5213   9.5454   9.5454
     9.6082   9.6082   9.6802   9.6802   9.7086   9.7086   9.7241   9.7241
     9.8576   9.8576   9.8705   9.8705   9.8926   9.8926   9.9266   9.9266
     9.9572   9.9572  10.0974  10.0974  10.1091  10.1091  10.1224  10.1224
    10.2534  10.2534  10.2683  10.2683  10.3296  10.3296  10.3481  10.3481
    10.3598  10.3598  10.4000  10.4000  10.5418  10.5418  10.5960  10.5960
    10.6081  10.6081  10.6215  10.6215  10.6461  10.6461  10.6668  10.6668
    10.6761  10.6761  10.7726  10.7726  10.7912  10.7912  10.8101  10.8101
    10.8130  10.8130  10.8147  10.8147  10.8171  10.8171  10.8375  10.8375
    10.9365  10.9365  10.9475  10.9475  11.0300  11.0300  11.0416  11.0416
    11.1196  11.1196  11.1344  11.1344  11.1673  11.1673  11.1796  11.1796
    11.1898  11.1898  11.2916  11.2916  11.3318  11.3318  11.3326  11.3326
    11.3469  11.3469  11.3513  11.3513  11.4055  11.4055  11.5364  11.5364
    11.5699  11.5699  11.6224  11.6224  11.6716  11.6716  11.6740  11.6740
    11.7774  11.7774  11.8375  11.8375  11.8441  11.8441  11.9183  11.9183
    11.9260  11.9260  11.9513  11.9513  11.9751  11.9751  11.9817  11.9817
    12.0361  12.0361  12.0585  12.0585  12.0635  12.0635  12.0916  12.0916
    12.0934  12.0934  12.1001  12.1001  12.1043  12.1043  12.1195  12.1195
    12.2611  12.2611  12.2633  12.2633  12.3147  12.3147  12.6307  12.6307
    12.8007  12.8007  13.2678  13.2678  13.4179  13.4179  13.8418  13.8418
    15.1077  15.1077  15.3414  15.3414  15.4728  15.4728  15.8775  15.8775
    16.3258  16.3258  16.7655  16.7655  17.2898  17.2898  17.6621  17.6621
    17.7783  17.7783  18.1399  18.1399  18.3654  18.3654  18.8041  18.8041
    18.8870  18.8870  19.8260  19.8260  19.9621  19.9621  20.4549  20.4549
    20.7400  20.7400  20.7560  20.7560  21.2835  21.2835  21.4099  21.4099
    22.2778  22.2780

          k = 0.0485 0.3397 0.3397 ( 45253 PWs)   bands (ev):

   -71.0426 -71.0411 -71.0411 -71.0397 -71.0375 -71.0367 -71.0367 -71.0365
   -71.0361 -71.0358 -71.0358 -71.0354 -71.0339 -71.0339 -71.0335 -71.0335
   -71.0335 -71.0335 -71.0331 -71.0331 -71.0329 -71.0329 -71.0323 -71.0323
   -71.0323 -71.0323 -71.0322 -71.0322 -71.0318 -71.0315 -71.0315 -71.0313
   -36.8009 -36.8009 -36.7943 -36.7943 -36.7940 -36.7940 -36.7937 -36.7928
   -36.7927 -36.7927 -36.7896 -36.7896 -36.7892 -36.7888 -36.7888 -36.7864
   -36.7864 -36.7840 -36.7840 -36.7837 -36.7837 -36.7830 -36.7830 -36.7801
   -36.7784 -36.7784 -36.7741 -36.7709 -36.7682 -36.7647 -36.7647 -36.7572
   -36.7546 -36.7546 -36.7512 -36.7512 -36.7473 -36.7467 -36.7467 -36.7451
   -36.7451 -36.7449 -36.7449 -36.7438 -36.7438 -36.7381 -36.7381 -36.7370
   -36.7370 -36.7366 -36.7360 -36.7360 -36.7352 -36.7352 -36.7350 -36.7350
   -36.7345 -36.7345 -36.7306 -36.7306 -36.7299 -36.7299 -36.7299 -36.7283
   -36.7283 -36.7251 -36.7251 -36.7246 -36.7246 -36.7246 -36.7246 -36.7225
   -36.7220 -36.7219 -36.7217 -36.7212 -36.7212 -36.7206 -36.7197 -36.7187
   -36.7178 -36.7175 -36.7171 -36.7171 -36.7168 -36.7164 -36.7157 -36.7137
   -36.7137 -36.7121 -36.7121 -36.7067 -36.7050 -36.7045 -36.7045 -36.7013
     8.0713   8.5090   8.5090   8.8916   9.2260   9.3034   9.3038   9.3324
     9.3324   9.4098   9.4359   9.4359   9.4395   9.4395   9.4415   9.4953
     9.4953   9.5550   9.5550   9.5660   9.5660   9.5708   9.5708   9.6642
     9.6702   9.6702   9.6711   9.6893   9.6893   9.7191   9.7191   9.7197
     9.7197   9.7715   9.7715   9.8032   9.8032   9.8912   9.8912   9.8969
     9.8969   9.8976   9.8976  10.0857  10.0857  10.1116  10.2274  10.2274
    10.2294  10.2294  10.2762  10.2968  10.3214  10.3214  10.3428  10.3428
    10.3489  10.4412  10.5456  10.5456  10.5550  10.6192  10.6259  10.6259
    10.6721  10.6721  10.6808  10.6808  10.6859  10.6859  10.6935  10.7010
    10.7019  10.7019  10.7742  10.7777  10.7908  10.8240  10.8270  10.8453
    10.8453  10.8484  10.8484  10.8826  10.8918  10.8918  10.9144  10.9144
    10.9256  10.9256  10.9393  10.9393  10.9478  10.9478  10.9887  10.9971
    10.9971  11.0032  11.0878  11.0931  11.0931  11.1408  11.1440  11.1440
    11.1497  11.1497  11.1618  11.1618  11.2027  11.2028  11.2258  11.2460
    11.3085  11.3085  11.3326  11.3326  11.3754  11.4647  11.4647  11.4945
    11.5432  11.6037  11.6829  11.6829  11.7197  11.7197  11.7434  11.7434
    11.8097  11.8097  11.8313  11.8313  11.8603  11.8728  11.8728  11.9189
    11.9189  11.9762  11.9856  11.9979  11.9979  12.0005  12.0005  12.0043
    12.0043  12.0238  12.0603  12.0831  12.0831  12.0868  12.0868  12.0883
    12.0977  12.1425  12.1425  12.1554  12.1554  12.1568  12.1606  12.1606
    12.1736  12.1736  12.1771  12.1771  12.2282  12.4693  12.5421  12.5421
    12.6097  12.9358  12.9358  13.1246  13.5891  13.5891  14.3207  14.3207
    14.8223  14.8223  15.6054  15.6054  15.6093  15.6093  15.7125  15.7125
    16.1162  16.1162  17.0953  17.0953  17.1974  17.5042  17.5042  17.6003
    17.9088  17.9088  18.0084  18.0084  18.0546  18.0546  18.4101  18.4101
    18.8274  18.8531  18.8531  19.7842  19.9168  20.4113  20.5711  20.5711
    20.7021  20.7420  21.2378  21.2378  21.5519  21.5519  21.7401  21.7401
    22.1488  22.1489

          k = 0.0485 0.3397-0.4368 ( 45278 PWs)   bands (ev):

   -71.0419 -71.0419 -71.0405 -71.0405 -71.0371 -71.0371 -71.0364 -71.0364
   -71.0362 -71.0362 -71.0356 -71.0356 -71.0337 -71.0337 -71.0333 -71.0333
   -71.0332 -71.0332 -71.0330 -71.0330 -71.0328 -71.0328 -71.0327 -71.0327
   -71.0326 -71.0326 -71.0322 -71.0322 -71.0316 -71.0316 -71.0314 -71.0314
   -36.7981 -36.7981 -36.7979 -36.7979 -36.7924 -36.7924 -36.7923 -36.7923
   -36.7910 -36.7910 -36.7903 -36.7903 -36.7886 -36.7886 -36.7880 -36.7880
   -36.7868 -36.7868 -36.7840 -36.7840 -36.7839 -36.7839 -36.7834 -36.7834
   -36.7785 -36.7785 -36.7734 -36.7734 -36.7681 -36.7681 -36.7609 -36.7609
   -36.7506 -36.7506 -36.7497 -36.7497 -36.7485 -36.7485 -36.7472 -36.7472
   -36.7413 -36.7413 -36.7412 -36.7412 -36.7411 -36.7411 -36.7405 -36.7405
   -36.7397 -36.7397 -36.7366 -36.7366 -36.7354 -36.7354 -36.7340 -36.7340
   -36.7323 -36.7323 -36.7320 -36.7320 -36.7295 -36.7295 -36.7286 -36.7286
   -36.7275 -36.7275 -36.7274 -36.7274 -36.7235 -36.7235 -36.7234 -36.7234
   -36.7230 -36.7230 -36.7219 -36.7219 -36.7190 -36.7190 -36.7188 -36.7188
   -36.7183 -36.7183 -36.7180 -36.7180 -36.7151 -36.7151 -36.7147 -36.7147
   -36.7147 -36.7147 -36.7092 -36.7092 -36.7043 -36.7043 -36.7026 -36.7026
     8.2710   8.2710   8.6850   8.6850   9.2693   9.2693   9.3139   9.3139
     9.3596   9.3596   9.4340   9.4340   9.4797   9.4797   9.5040   9.5040
     9.5480   9.5480   9.5997   9.5997   9.6030   9.6030   9.6115   9.6115
     9.6160   9.6160   9.6523   9.6523   9.6794   9.6794   9.7393   9.7393
     9.7763   9.7763   9.7810   9.7810   9.8011   9.8011   9.8071   9.8071
     9.8270   9.8270  10.0025  10.0025  10.1492  10.1492  10.1527  10.1527
    10.2799  10.2799  10.2836  10.2836  10.3169  10.3169  10.3909  10.3909
    10.4384  10.4384  10.5203  10.5203  10.5549  10.5549  10.6258  10.6258
    10.6510  10.6510  10.6628  10.6628  10.7663  10.7663  10.7889  10.7889
    10.8167  10.8167  10.8227  10.8227  10.8288  10.8288  10.8323  10.8323
    10.8351  10.8351  10.8656  10.8656  10.9093  10.9093  10.9398  10.9398
    10.9407  10.9407  10.9537  10.9537  10.9738  10.9738  10.9970  10.9970
    11.0013  11.0013  11.0310  11.0310  11.0376  11.0376  11.0484  11.0484
    11.0763  11.0763  11.2026  11.2026  11.2382  11.2382  11.2477  11.2477
    11.2796  11.2796  11.3063  11.3063  11.3128  11.3128  11.3361  11.3361
    11.6175  11.6175  11.6621  11.6621  11.7762  11.7762  11.7814  11.7814
    11.7922  11.7922  11.8468  11.8468  11.9165  11.9165  11.9405  11.9405
    11.9410  11.9410  11.9508  11.9508  12.0140  12.0140  12.0441  12.0441
    12.0506  12.0506  12.0856  12.0856  12.0924  12.0924  12.1068  12.1068
    12.1209  12.1209  12.1229  12.1229  12.1298  12.1298  12.1328  12.1328
    12.1670  12.1670  12.1946  12.1946  12.2943  12.2943  12.5350  12.5350
    12.6729  12.6729  12.9946  12.9946  13.9463  13.9463  14.1792  14.1792
    14.9367  14.9367  15.2021  15.2021  15.7313  15.7313  15.9888  15.9888
    16.3983  16.3983  16.7274  16.7274  17.5829  17.5829  17.5999  17.5999
    17.7864  17.7864  17.8386  17.8386  18.1142  18.1142  18.2113  18.2113
    18.4147  18.4147  19.3634  19.3634  20.5521  20.5521  20.5605  20.5605
    20.6307  20.6307  21.0526  21.0526  21.8708  21.8708  21.8986  21.8986
    21.9222  21.9222

          k = 0.0485-0.4368-0.4368 ( 45288 PWs)   bands (ev):

   -71.0413 -71.0412 -71.0412 -71.0412 -71.0368 -71.0368 -71.0368 -71.0368
   -71.0359 -71.0359 -71.0359 -71.0359 -71.0329 -71.0329 -71.0329 -71.0329
   -71.0329 -71.0329 -71.0329 -71.0329 -71.0329 -71.0329 -71.0329 -71.0329
   -71.0329 -71.0329 -71.0329 -71.0329 -71.0315 -71.0315 -71.0315 -71.0315
   -36.7956 -36.7956 -36.7956 -36.7956 -36.7956 -36.7956 -36.7956 -36.7956
   -36.7879 -36.7879 -36.7879 -36.7879 -36.7879 -36.7879 -36.7879 -36.7879
   -36.7871 -36.7871 -36.7871 -36.7871 -36.7834 -36.7834 -36.7834 -36.7834
   -36.7787 -36.7787 -36.7787 -36.7787 -36.7646 -36.7646 -36.7646 -36.7646
   -36.7449 -36.7449 -36.7449 -36.7449 -36.7449 -36.7449 -36.7449 -36.7448
   -36.7446 -36.7446 -36.7446 -36.7446 -36.7445 -36.7445 -36.7445 -36.7445
   -36.7346 -36.7346 -36.7346 -36.7346 -36.7335 -36.7335 -36.7335 -36.7335
   -36.7333 -36.7333 -36.7333 -36.7333 -36.7333 -36.7333 -36.7333 -36.7333
   -36.7256 -36.7256 -36.7256 -36.7256 -36.7255 -36.7255 -36.7255 -36.7255
   -36.7209 -36.7209 -36.7209 -36.7209 -36.7196 -36.7196 -36.7196 -36.7196
   -36.7169 -36.7169 -36.7169 -36.7169 -36.7161 -36.7161 -36.7161 -36.7161
   -36.7117 -36.7117 -36.7117 -36.7117 -36.7030 -36.7030 -36.7030 -36.7030
     8.4604   8.4604   8.4605   8.4605   9.2844   9.2844   9.2844   9.2844
     9.3889   9.3889   9.3889   9.3889   9.5351   9.5351   9.5351   9.5351
     9.6149   9.6149   9.6149   9.6149   9.6149   9.6149   9.6149   9.6149
     9.6987   9.6987   9.6987   9.6987   9.6987   9.6987   9.6987   9.6987
     9.7106   9.7106   9.7106   9.7106   9.7106   9.7106   9.7106   9.7106
     9.8869   9.8869   9.8869   9.8869  10.2117  10.2117  10.2117  10.2117
    10.2118  10.2118  10.2118  10.2118  10.3639  10.3639  10.3639  10.3639
    10.5468  10.5468  10.5468  10.5468  10.6430  10.6430  10.6430  10.6430
    10.7301  10.7301  10.7301  10.7301  10.7410  10.7410  10.7410  10.7410
    10.8333  10.8333  10.8333  10.8333  10.8738  10.8738  10.8738  10.8738
    10.8855  10.8855  10.8855  10.8855  10.9093  10.9093  10.9093  10.9093
    10.9093  10.9093  10.9093  10.9093  10.9515  10.9515  10.9515  10.9515
    11.0582  11.0582  11.0582  11.0582  11.0582  11.0582  11.0582  11.0582
    11.1401  11.1401  11.1401  11.1401  11.1401  11.1401  11.1401  11.1401
    11.1687  11.1687  11.1687  11.1687  11.3054  11.3054  11.3054  11.3054
    11.7009  11.7009  11.7009  11.7009  11.7390  11.7390  11.7390  11.7390
    11.8752  11.8752  11.8752  11.8753  11.8753  11.8753  11.8753  11.8753
    12.0351  12.0351  12.0351  12.0351  12.0589  12.0589  12.0589  12.0589
    12.0589  12.0589  12.0589  12.0589  12.1146  12.1146  12.1146  12.1146
    12.1358  12.1358  12.1358  12.1358  12.1368  12.1368  12.1368  12.1368
    12.1368  12.1368  12.1368  12.1369  12.3484  12.3484  12.3484  12.3484
    12.7905  12.7905  12.7905  12.7905  14.5478  14.5478  14.5478  14.5478
    14.5478  14.5478  14.5478  14.5478  16.3375  16.3375  16.3375  16.3375
    16.3375  16.3375  16.3375  16.3375  17.6551  17.6551  17.6551  17.6551
    17.6551  17.6551  17.6551  17.6551  17.9800  17.9800  17.9800  17.9800
    18.7890  18.7890  18.7890  18.7890  20.5579  20.5579  20.5579  20.5579
    21.1889  21.1889  21.1889  21.1889  21.6937  21.6937  21.6937  21.6937
    22.3840  22.3840

          k = 0.1456 0.1456 0.1456 ( 45220 PWs)   bands (ev):

   -71.0443 -71.0396 -71.0396 -71.0396 -71.0366 -71.0366 -71.0366 -71.0361
   -71.0361 -71.0361 -71.0353 -71.0344 -71.0344 -71.0344 -71.0344 -71.0344
   -71.0344 -71.0344 -71.0344 -71.0344 -71.0331 -71.0331 -71.0331 -71.0314
   -71.0314 -71.0314 -71.0314 -71.0314 -71.0314 -71.0314 -71.0314 -71.0314
   -36.8072 -36.8071 -36.8071 -36.8028 -36.8012 -36.8012 -36.8012 -36.7854
   -36.7854 -36.7854 -36.7829 -36.7829 -36.7829 -36.7829 -36.7829 -36.7829
   -36.7820 -36.7820 -36.7820 -36.7820 -36.7820 -36.7820 -36.7727 -36.7727
   -36.7727 -36.7686 -36.7686 -36.7686 -36.7653 -36.7653 -36.7653 -36.7653
   -36.7653 -36.7653 -36.7556 -36.7556 -36.7556 -36.7442 -36.7442 -36.7442
   -36.7436 -36.7436 -36.7436 -36.7434 -36.7434 -36.7434 -36.7434 -36.7433
   -36.7433 -36.7402 -36.7402 -36.7401 -36.7392 -36.7392 -36.7392 -36.7392
   -36.7392 -36.7392 -36.7308 -36.7308 -36.7308 -36.7265 -36.7265 -36.7265
   -36.7255 -36.7255 -36.7255 -36.7217 -36.7217 -36.7217 -36.7206 -36.7206
   -36.7206 -36.7188 -36.7188 -36.7188 -36.7188 -36.7188 -36.7188 -36.7178
   -36.7178 -36.7177 -36.7149 -36.7149 -36.7147 -36.7147 -36.7147 -36.7140
   -36.7140 -36.7140 -36.7109 -36.7109 -36.7109 -36.7065 -36.7002 -36.7002
     7.5932   8.8894   8.8894   8.8894   9.1058   9.2002   9.2002   9.2002
     9.2256   9.2256   9.2256   9.3763   9.3763   9.3763   9.4502   9.4502
     9.4502   9.5664   9.5664   9.5664   9.7869   9.7869   9.7869   9.7869
     9.7869   9.7869   9.7950   9.7950   9.7950   9.8455   9.8455   9.8455
     9.8455   9.8455   9.8455   9.8557   9.8557   9.8557  10.0358  10.0358
    10.0358  10.0358  10.0358  10.0358  10.1137  10.1137  10.1137  10.3251
    10.3251  10.3251  10.3603  10.3603  10.3603  10.3603  10.3603  10.3603
    10.3873  10.3873  10.3873  10.4746  10.4746  10.4746  10.4746  10.4746
    10.4746  10.5303  10.5303  10.5303  10.5643  10.6289  10.6289  10.6490
    10.6490  10.6490  10.6490  10.6490  10.6490  10.6589  10.6589  10.6818
    10.6818  10.6818  10.6885  10.6885  10.6885  10.7138  10.7138  10.7138
    10.9285  10.9285  10.9285  11.0284  11.0284  11.0284  11.0976  11.0976
    11.0976  11.1713  11.1713  11.1713  11.2183  11.2183  11.2183  11.2517
    11.2517  11.2517  11.2517  11.2517  11.2517  11.4247  11.4247  11.4247
    11.4316  11.4316  11.4316  11.4769  11.4769  11.4769  11.5053  11.5053
    11.5694  11.5694  11.5694  11.5694  11.5694  11.5694  11.7378  11.7378
    11.7378  11.7378  11.7378  11.7378  11.7767  11.7767  11.7767  11.7889
    11.7889  11.7889  11.8183  11.8183  11.8183  12.0024  12.0024  12.0024
    12.0883  12.0883  12.0884  12.1024  12.1024  12.1024  12.1109  12.1109
    12.1719  12.1719  12.1719  12.2091  12.2091  12.2091  12.2953  12.2953
    12.2953  12.2953  12.2953  12.2953  12.3279  12.3279  12.3279  12.8678
    12.8678  12.8678  12.9342  14.0399  14.0399  14.0399  14.0399  14.0399
    14.0399  14.3341  14.3341  14.3341  15.3870  15.3870  15.3871  15.5872
    15.5872  15.5872  17.5595  17.5595  17.5595  18.0061  18.0061  18.0061
    18.0062  18.0062  18.0062  18.6838  19.4254  19.4254  19.4254  19.4254
    19.4254  19.4254  19.7888  19.7888  19.7888  20.5376  20.5376  20.5376
    21.1802  21.1802  21.1802  21.1802  21.2202  21.2204  21.2205  21.2205
    21.2205  21.2205

          k = 0.1456 0.1456 0.2427 ( 45240 PWs)   bands (ev):

   -71.0439 -71.0407 -71.0393 -71.0393 -71.0373 -71.0373 -71.0365 -71.0360
   -71.0360 -71.0356 -71.0350 -71.0348 -71.0348 -71.0344 -71.0344 -71.0344
   -71.0344 -71.0341 -71.0337 -71.0337 -71.0332 -71.0327 -71.0327 -71.0318
   -71.0317 -71.0316 -71.0315 -71.0315 -71.0314 -71.0314 -71.0314 -71.0314
   -36.8060 -36.8048 -36.8048 -36.7995 -36.7995 -36.7991 -36.7984 -36.7907
   -36.7874 -36.7874 -36.7863 -36.7863 -36.7851 -36.7851 -36.7846 -36.7846
   -36.7835 -36.7835 -36.7820 -36.7820 -36.7810 -36.7810 -36.7776 -36.7763
   -36.7705 -36.7705 -36.7680 -36.7680 -36.7659 -36.7659 -36.7625 -36.7625
   -36.7610 -36.7610 -36.7593 -36.7593 -36.7492 -36.7475 -36.7475 -36.7475
   -36.7475 -36.7466 -36.7466 -36.7428 -36.7396 -36.7396 -36.7394 -36.7394
   -36.7391 -36.7391 -36.7390 -36.7390 -36.7389 -36.7370 -36.7369 -36.7364
   -36.7364 -36.7355 -36.7306 -36.7289 -36.7277 -36.7277 -36.7272 -36.7269
   -36.7269 -36.7248 -36.7245 -36.7245 -36.7240 -36.7240 -36.7224 -36.7224
   -36.7223 -36.7223 -36.7214 -36.7191 -36.7191 -36.7188 -36.7188 -36.7187
   -36.7184 -36.7184 -36.7158 -36.7158 -36.7155 -36.7140 -36.7126 -36.7126
   -36.7114 -36.7113 -36.7103 -36.7103 -36.7097 -36.7097 -36.7015 -36.7006
     7.7026   8.6016   8.9605   8.9605   9.1239   9.2502   9.2502   9.2637
     9.2776   9.2776   9.2779   9.4107   9.4329   9.4329   9.4424   9.4445
     9.4445   9.4663   9.5010   9.5010   9.6784   9.6784   9.6848   9.6848
     9.6970   9.7442   9.7928   9.7928   9.7991   9.7991   9.8315   9.8315
     9.8400   9.8400   9.8483   9.8483   9.8871   9.8871   9.9049   9.9049
    10.0443  10.0443  10.0614  10.0614  10.1450  10.1450  10.2185  10.2779
    10.2779  10.2961  10.2961  10.3133  10.3276  10.3276  10.3566  10.3566
    10.3927  10.3927  10.4317  10.4317  10.4401  10.4401  10.4808  10.5087
    10.5087  10.5335  10.5407  10.6010  10.6010  10.6408  10.6499  10.6553
    10.6553  10.6745  10.6745  10.6776  10.6776  10.6877  10.6928  10.7224
    10.7224  10.7346  10.7346  10.7473  10.8137  10.8598  10.8598  10.8617
    10.8893  10.8893  10.9191  10.9228  10.9885  11.0101  11.0102  11.0289
    11.0289  11.0750  11.0750  11.1195  11.1374  11.1374  11.2831  11.2831
    11.3044  11.3045  11.3257  11.3511  11.3511  11.3657  11.4066  11.4066
    11.4334  11.4334  11.4655  11.5004  11.5004  11.5290  11.5395  11.5395
    11.5633  11.5657  11.5657  11.6058  11.6069  11.6069  11.6092  11.6621
    11.6621  11.7226  11.7701  11.7701  11.8332  11.8332  11.8560  11.8560
    11.8642  11.8642  11.8934  11.8934  11.9090  11.9099  11.9099  11.9920
    11.9920  11.9938  12.0191  12.0312  12.0343  12.0443  12.0443  12.0721
    12.1908  12.2011  12.2011  12.2356  12.2357  12.2372  12.2372  12.2956
    12.2969  12.2969  12.3191  12.3191  12.4087  12.4087  12.5856  12.5856
    12.5937  12.7150  12.8373  13.6668  13.6668  14.0625  14.0625  14.2717
    14.2717  14.5647  14.5647  14.8109  15.0016  15.4180  15.8546  15.8546
    15.9330  15.9330  17.2615  17.2615  17.4038  17.5299  17.5299  17.9109
    17.9109  18.1645  18.1645  18.6473  18.6473  19.0008  19.2048  19.3858
    19.3858  19.5826  19.5826  19.8638  19.8638  20.3867  20.3867  20.5399
    20.5399  20.7704  20.7704  21.1699  21.1699  21.3042  21.3959  21.3959
    21.7100  21.7106

          k = 0.1456 0.1456 0.3397 ( 45238 PWs)   bands (ev):

   -71.0434 -71.0417 -71.0390 -71.0390 -71.0379 -71.0379 -71.0363 -71.0359
   -71.0358 -71.0358 -71.0352 -71.0352 -71.0344 -71.0344 -71.0344 -71.0344
   -71.0340 -71.0338 -71.0334 -71.0331 -71.0331 -71.0324 -71.0324 -71.0324
   -71.0320 -71.0320 -71.0318 -71.0318 -71.0314 -71.0314 -71.0314 -71.0314
   -36.8037 -36.8015 -36.8014 -36.7971 -36.7971 -36.7958 -36.7946 -36.7944
   -36.7924 -36.7924 -36.7903 -36.7903 -36.7857 -36.7857 -36.7849 -36.7849
   -36.7842 -36.7842 -36.7833 -36.7832 -36.7825 -36.7825 -36.7785 -36.7785
   -36.7731 -36.7731 -36.7659 -36.7659 -36.7629 -36.7629 -36.7624 -36.7624
   -36.7591 -36.7591 -36.7567 -36.7567 -36.7524 -36.7524 -36.7516 -36.7516
   -36.7494 -36.7494 -36.7423 -36.7406 -36.7394 -36.7394 -36.7391 -36.7391
   -36.7371 -36.7357 -36.7357 -36.7343 -36.7341 -36.7340 -36.7338 -36.7338
   -36.7332 -36.7332 -36.7320 -36.7299 -36.7297 -36.7297 -36.7282 -36.7268
   -36.7268 -36.7264 -36.7264 -36.7255 -36.7254 -36.7234 -36.7234 -36.7233
   -36.7229 -36.7229 -36.7210 -36.7199 -36.7199 -36.7196 -36.7187 -36.7187
   -36.7186 -36.7186 -36.7179 -36.7179 -36.7171 -36.7153 -36.7131 -36.7118
   -36.7110 -36.7110 -36.7094 -36.7094 -36.7084 -36.7069 -36.7033 -36.7019
     7.8638   8.3227   9.0607   9.0607   9.1675   9.3134   9.3134   9.3160
     9.3245   9.3245   9.3290   9.3528   9.3528   9.3756   9.4319   9.4615
     9.5163   9.5163   9.5431   9.5431   9.5594   9.5594   9.5687   9.5687
     9.6070   9.6161   9.7225   9.7226   9.7488   9.7488   9.8101   9.8101
     9.8277   9.8277   9.8886   9.8886   9.9307   9.9307   9.9385   9.9385
    10.0601  10.0601  10.1066  10.1066  10.1765  10.1765  10.1780  10.1780
    10.1903  10.1903  10.2384  10.2384  10.3059  10.3059  10.3167  10.3363
    10.4208  10.4208  10.4283  10.4524  10.4524  10.4784  10.4814  10.4814
    10.5400  10.5400  10.5438  10.5438  10.6091  10.6424  10.6615  10.6615
    10.6690  10.6690  10.6910  10.7259  10.7259  10.7397  10.7434  10.7957
    10.7957  10.7984  10.7984  10.8230  10.8293  10.8377  10.8377  10.8666
    10.8666  10.8756  10.8922  11.0141  11.0406  11.0406  11.0482  11.0491
    11.0611  11.0611  11.0634  11.0634  11.1464  11.1464  11.3119  11.3478
    11.3478  11.3587  11.3587  11.4032  11.4032  11.4068  11.4068  11.4116
    11.4248  11.4299  11.4299  11.4388  11.4388  11.4931  11.4931  11.5110
    11.5111  11.5472  11.5472  11.5637  11.5647  11.6618  11.6716  11.6716
    11.6942  11.6975  11.7369  11.7713  11.7713  11.8237  11.8237  11.8986
    11.9327  11.9457  11.9457  11.9516  11.9516  11.9550  11.9658  11.9658
    11.9726  11.9727  11.9796  11.9796  11.9835  11.9835  12.0015  12.1379
    12.1480  12.1575  12.1575  12.1588  12.1588  12.1591  12.1591  12.2514
    12.2996  12.2996  12.3105  12.3105  12.3408  12.3408  12.6912  12.6912
    12.6952  12.7934  13.1112  13.3203  13.3203  14.0974  14.0974  14.2048
    14.2048  14.3504  15.1573  15.1573  15.1819  15.4341  16.2076  16.2076
    16.5182  16.5183  16.5334  16.5334  17.0632  17.0632  17.4498  17.8909
    17.8909  18.3039  18.3937  18.3937  18.3999  18.3999  19.0155  19.0155
    19.6495  19.6495  19.7859  19.8003  19.8003  20.2354  20.2354  20.4004
    20.4004  20.5274  20.5274  21.1119  21.2055  21.2055  21.5499  21.5499
    21.8332  21.8333

          k = 0.1456 0.1456-0.4368 ( 45264 PWs)   bands (ev):

   -71.0426 -71.0426 -71.0385 -71.0385 -71.0385 -71.0385 -71.0361 -71.0361
   -71.0355 -71.0355 -71.0355 -71.0355 -71.0344 -71.0344 -71.0344 -71.0344
   -71.0336 -71.0336 -71.0331 -71.0331 -71.0325 -71.0325 -71.0325 -71.0325
   -71.0320 -71.0320 -71.0320 -71.0320 -71.0314 -71.0314 -71.0314 -71.0314
   -36.8003 -36.8003 -36.7972 -36.7972 -36.7972 -36.7972 -36.7940 -36.7940
   -36.7940 -36.7940 -36.7894 -36.7894 -36.7890 -36.7890 -36.7857 -36.7857
   -36.7857 -36.7857 -36.7833 -36.7833 -36.7833 -36.7833 -36.7758 -36.7758
   -36.7758 -36.7758 -36.7647 -36.7647 -36.7647 -36.7647 -36.7577 -36.7577
   -36.7576 -36.7576 -36.7555 -36.7555 -36.7555 -36.7555 -36.7529 -36.7528
   -36.7528 -36.7528 -36.7393 -36.7393 -36.7392 -36.7392 -36.7377 -36.7377
   -36.7358 -36.7358 -36.7347 -36.7347 -36.7324 -36.7324 -36.7324 -36.7324
   -36.7302 -36.7302 -36.7302 -36.7302 -36.7299 -36.7299 -36.7299 -36.7299
   -36.7294 -36.7294 -36.7294 -36.7294 -36.7214 -36.7214 -36.7212 -36.7212
   -36.7212 -36.7212 -36.7204 -36.7204 -36.7204 -36.7204 -36.7203 -36.7203
   -36.7198 -36.7198 -36.7187 -36.7187 -36.7187 -36.7187 -36.7124 -36.7124
   -36.7099 -36.7099 -36.7099 -36.7099 -36.7056 -36.7056 -36.7041 -36.7041
     8.0728   8.0728   9.1818   9.1818   9.1818   9.1818   9.2363   9.2363
     9.3757   9.3757   9.4225   9.4225   9.4225   9.4225   9.4481   9.4481
     9.4481   9.4481   9.4900   9.4900   9.5276   9.5276   9.6233   9.6233
     9.6233   9.6233   9.6451   9.6451   9.6451   9.6451   9.8187   9.8187
     9.8187   9.8187   9.9342   9.9342   9.9342   9.9342  10.0422  10.0422
    10.0422  10.0422  10.0981  10.0981  10.0981  10.0981  10.1692  10.1692
    10.1692  10.1692  10.2464  10.2464  10.2464  10.2464  10.3779  10.3779
    10.4046  10.4046  10.4511  10.4511  10.4511  10.4511  10.4903  10.4903
    10.4903  10.4903  10.6334  10.6334  10.6660  10.6660  10.6660  10.6660
    10.6777  10.6777  10.6777  10.6777  10.7494  10.7494  10.7494  10.7494
    10.7513  10.7513  10.8070  10.8070  10.8101  10.8101  10.8708  10.8708
    10.8708  10.8708  10.9133  10.9133  11.0506  11.0506  11.0506  11.0506
    11.1903  11.1903  11.1903  11.1903  11.2381  11.2381  11.3535  11.3535
    11.3597  11.3597  11.3806  11.3806  11.3806  11.3806  11.4111  11.4111
    11.4111  11.4111  11.4314  11.4314  11.4314  11.4314  11.4754  11.4754
    11.4754  11.4754  11.5057  11.5057  11.5057  11.5057  11.6084  11.6084
    11.7455  11.7455  11.8189  11.8189  11.8541  11.8541  11.8791  11.8791
    11.8791  11.8791  11.8862  11.8862  11.8862  11.8862  12.0669  12.0670
    12.0670  12.0670  12.0697  12.0697  12.0697  12.0697  12.0834  12.0834
    12.0845  12.0845  12.0845  12.0845  12.1280  12.1280  12.1280  12.1280
    12.1982  12.1982  12.3040  12.3040  12.3040  12.3040  12.7408  12.7408
    12.9959  12.9959  12.9959  12.9959  13.7064  13.7064  14.1451  14.1451
    14.1451  14.1451  15.3812  15.3812  15.8116  15.8116  15.8116  15.8116
    16.6174  16.6174  16.6174  16.6174  17.1876  17.1876  17.1876  17.1876
    17.7595  17.7595  18.6835  18.6835  18.6835  18.6835  18.9801  18.9801
    18.9801  18.9801  20.0750  20.0750  20.0750  20.0750  20.4229  20.4229
    20.4553  20.4553  20.4553  20.4553  21.4274  21.4274  21.4274  21.4274
    21.7307  21.7307

          k = 0.1456 0.2427 0.2427 ( 45263 PWs)   bands (ev):

   -71.0435 -71.0404 -71.0404 -71.0391 -71.0381 -71.0372 -71.0371 -71.0360
   -71.0359 -71.0349 -71.0349 -71.0348 -71.0348 -71.0345 -71.0340 -71.0340
   -71.0340 -71.0340 -71.0337 -71.0337 -71.0329 -71.0329 -71.0324 -71.0318
   -71.0318 -71.0318 -71.0318 -71.0317 -71.0317 -71.0315 -71.0315 -71.0314
   -36.8043 -36.8043 -36.8022 -36.7979 -36.7972 -36.7972 -36.7950 -36.7904
   -36.7904 -36.7889 -36.7889 -36.7868 -36.7868 -36.7855 -36.7855 -36.7851
   -36.7851 -36.7849 -36.7849 -36.7845 -36.7837 -36.7836 -36.7776 -36.7775
   -36.7729 -36.7728 -36.7728 -36.7629 -36.7629 -36.7625 -36.7623 -36.7615
   -36.7615 -36.7585 -36.7585 -36.7525 -36.7525 -36.7516 -36.7494 -36.7449
   -36.7449 -36.7435 -36.7435 -36.7432 -36.7432 -36.7398 -36.7398 -36.7384
   -36.7384 -36.7384 -36.7372 -36.7372 -36.7364 -36.7364 -36.7357 -36.7357
   -36.7348 -36.7347 -36.7319 -36.7319 -36.7281 -36.7281 -36.7271 -36.7268
   -36.7268 -36.7257 -36.7248 -36.7238 -36.7238 -36.7235 -36.7235 -36.7232
   -36.7230 -36.7230 -36.7227 -36.7223 -36.7223 -36.7198 -36.7198 -36.7192
   -36.7192 -36.7192 -36.7146 -36.7145 -36.7145 -36.7137 -36.7131 -36.7124
   -36.7124 -36.7102 -36.7102 -36.7090 -36.7090 -36.7079 -36.7023 -36.7009
     7.8094   8.6826   8.6826   9.0131   9.1260   9.2788   9.2863   9.3151
     9.3151   9.3174   9.3319   9.3319   9.3533   9.3533   9.4675   9.4675
     9.4973   9.5144   9.5144   9.5161   9.6504   9.6504   9.6792   9.6792
     9.7164   9.7164   9.7539   9.7539   9.7544   9.7544   9.7588   9.7588
     9.7846   9.8283   9.8283   9.8312   9.8312   9.9131   9.9131   9.9296
     9.9467   9.9468  10.0631  10.0631  10.1981  10.2279  10.2279  10.2420
    10.2420  10.2723  10.2743  10.2743  10.3019  10.3019  10.3528  10.4205
    10.4205  10.4498  10.4498  10.4570  10.4570  10.4989  10.5166  10.5343
    10.5343  10.5604  10.5604  10.6351  10.6351  10.6357  10.6357  10.6511
    10.6750  10.7066  10.7189  10.7197  10.7623  10.7623  10.7742  10.7766
    10.8002  10.8002  10.8165  10.8165  10.8210  10.8231  10.8231  10.8734
[...]
    13.8918  13.8918  13.8918  13.8918  14.7692  14.7692  14.7692  14.7692
    14.7692  14.7692  14.7692  14.7692  15.8170  15.8170  15.8170  15.8170
    15.8170  15.8170  15.8170  15.8170  16.7100  16.7100  16.7100  16.7100
    18.4052  18.4052  18.4052  18.4052  18.4052  18.4052  18.4052  18.4052
    19.0298  19.0298  19.0298  19.0298  20.2834  20.2834  20.2834  20.2834
    20.9062  20.9062  20.9062  20.9062  20.9062  20.9062  20.9062  20.9062
    22.0565  22.0566

          k = 0.3397 0.3397 0.3397 ( 45302 PWs)   bands (ev):

   -71.0416 -71.0402 -71.0402 -71.0402 -71.0390 -71.0390 -71.0390 -71.0380
   -71.0337 -71.0337 -71.0337 -71.0335 -71.0335 -71.0335 -71.0335 -71.0335
   -71.0335 -71.0335 -71.0335 -71.0335 -71.0325 -71.0325 -71.0325 -71.0323
   -71.0323 -71.0323 -71.0323 -71.0323 -71.0323 -71.0323 -71.0323 -71.0323
   -36.7964 -36.7964 -36.7964 -36.7928 -36.7928 -36.7928 -36.7918 -36.7918
   -36.7918 -36.7908 -36.7908 -36.7908 -36.7908 -36.7908 -36.7908 -36.7907
   -36.7907 -36.7907 -36.7907 -36.7907 -36.7907 -36.7872 -36.7872 -36.7872
   -36.7737 -36.7610 -36.7610 -36.7610 -36.7519 -36.7519 -36.7519 -36.7519
   -36.7519 -36.7519 -36.7509 -36.7509 -36.7509 -36.7486 -36.7485 -36.7485
   -36.7483 -36.7483 -36.7483 -36.7401 -36.7401 -36.7401 -36.7400 -36.7400
   -36.7400 -36.7382 -36.7382 -36.7382 -36.7368 -36.7368 -36.7368 -36.7355
   -36.7335 -36.7335 -36.7335 -36.7315 -36.7315 -36.7315 -36.7314 -36.7314
   -36.7314 -36.7291 -36.7291 -36.7291 -36.7277 -36.7277 -36.7277 -36.7269
   -36.7269 -36.7269 -36.7269 -36.7269 -36.7269 -36.7246 -36.7246 -36.7246
   -36.7122 -36.7122 -36.7122 -36.7104 -36.7104 -36.7089 -36.7089 -36.7089
   -36.7073 -36.7073 -36.7073 -36.7066 -36.7066 -36.7066 -36.7046 -36.7046
     8.3409   8.7035   8.7035   8.7035   8.9475   8.9475   8.9475   9.0322
     9.4841   9.4842   9.4842   9.5337   9.5337   9.5337   9.5443   9.5443
     9.5443   9.6058   9.6058   9.6058   9.6058   9.6058   9.6058   9.6101
     9.6101   9.6101   9.6101   9.6101   9.6101   9.6351   9.6351   9.6351
     9.7840   9.7840   9.7840   9.9616   9.9616   9.9616  10.0088  10.0088
    10.0088  10.0088  10.0088  10.0088  10.1811  10.1811  10.1811  10.1884
    10.1884  10.1884  10.1884  10.1884  10.1884  10.3143  10.3144  10.3144
    10.4790  10.4790  10.4790  10.4957  10.6308  10.6308  10.6308  10.7412
    10.7412  10.7836  10.7836  10.7836  10.7836  10.7836  10.7836  10.7838
    10.7838  10.8089  10.8089  10.8089  10.8123  10.8123  10.8123  10.8135
    10.8135  10.8135  10.8310  10.8310  10.8310  10.8950  10.8950  10.8950
    10.9338  10.9338  10.9338  10.9338  10.9338  10.9338  10.9471  10.9471
    10.9471  10.9951  10.9951  10.9951  11.0699  11.0699  11.0699  11.1196
    11.2674  11.2674  11.2674  11.2831  11.2831  11.2831  11.2850  11.2850
    11.2850  11.2850  11.2850  11.2850  11.4006  11.4006  11.4006  11.4906
    11.4906  11.4906  11.4906  11.4906  11.4906  11.5169  11.5169  11.5169
    11.5212  11.5212  11.5501  11.5501  11.5501  11.6254  11.6254  11.6254
    11.6945  11.6945  11.6945  11.7893  11.7893  11.8776  11.8776  11.8776
    12.1757  12.1757  12.1757  12.1999  12.1999  12.1999  12.1999  12.1999
    12.1999  12.2188  12.2188  12.2188  12.2188  12.2188  12.2188  12.2341
    12.2341  12.2341  12.2374  12.2374  12.2374  12.2714  12.2714  12.2714
    14.0379  14.0379  14.0379  14.6150  14.6150  14.6150  14.6150  14.6150
    14.6150  15.0173  15.0173  15.0173  15.3733  15.3733  15.3733  16.0258
    16.0258  16.0258  16.0258  16.0258  16.0258  16.5046  16.5046  16.5046
    18.0958  18.0958  18.0958  18.6753  18.6753  18.6753  19.3196  19.3196
    19.3196  19.3196  19.3196  19.3196  19.9485  19.9485  19.9486  19.9486
    19.9486  19.9486  20.5230  20.5230  20.5230  21.2075  21.2075  21.2075
    22.1165  22.7908

          k = 0.3397 0.3397-0.4368 ( 45282 PWs)   bands (ev):

   -71.0410 -71.0410 -71.0397 -71.0397 -71.0397 -71.0397 -71.0386 -71.0386
   -71.0336 -71.0336 -71.0336 -71.0336 -71.0335 -71.0335 -71.0335 -71.0335
   -71.0330 -71.0330 -71.0329 -71.0329 -71.0329 -71.0328 -71.0328 -71.0328
   -71.0324 -71.0324 -71.0324 -71.0324 -71.0323 -71.0323 -71.0323 -71.0323
   -36.7952 -36.7952 -36.7937 -36.7937 -36.7936 -36.7936 -36.7918 -36.7918
   -36.7918 -36.7918 -36.7912 -36.7912 -36.7912 -36.7912 -36.7912 -36.7912
   -36.7912 -36.7912 -36.7898 -36.7898 -36.7889 -36.7889 -36.7889 -36.7889
   -36.7673 -36.7673 -36.7546 -36.7546 -36.7545 -36.7545 -36.7517 -36.7517
   -36.7517 -36.7517 -36.7503 -36.7503 -36.7503 -36.7503 -36.7460 -36.7460
   -36.7460 -36.7460 -36.7437 -36.7437 -36.7437 -36.7437 -36.7417 -36.7417
   -36.7389 -36.7389 -36.7389 -36.7389 -36.7382 -36.7382 -36.7382 -36.7382
   -36.7324 -36.7324 -36.7323 -36.7323 -36.7315 -36.7315 -36.7295 -36.7295
   -36.7295 -36.7295 -36.7294 -36.7294 -36.7294 -36.7294 -36.7280 -36.7280
   -36.7280 -36.7280 -36.7264 -36.7264 -36.7259 -36.7259 -36.7258 -36.7258
   -36.7108 -36.7108 -36.7100 -36.7100 -36.7100 -36.7100 -36.7087 -36.7087
   -36.7068 -36.7068 -36.7068 -36.7068 -36.7066 -36.7066 -36.7051 -36.7051
     8.5088   8.5088   8.8188   8.8188   8.8188   8.8188   8.9851   8.9851
     9.5182   9.5182   9.5373   9.5373   9.5373   9.5373   9.5641   9.5641
     9.5641   9.5641   9.5684   9.5684   9.5684   9.5684   9.5929   9.5929
     9.6158   9.6159   9.6159   9.6159   9.6161   9.6161   9.6161   9.6161
     9.8643   9.8643   9.8971   9.8971   9.8971   9.8971  10.0816  10.0816
    10.0816  10.0816  10.0886  10.0886  10.0886  10.0886  10.1022  10.1022
    10.1022  10.1022  10.2399  10.2399  10.2646  10.2646  10.2646  10.2646
    10.4982  10.4982  10.5648  10.5648  10.5648  10.5648  10.7480  10.7480
    10.7665  10.7665  10.7990  10.7990  10.8013  10.8013  10.8035  10.8035
    10.8035  10.8035  10.8150  10.8150  10.8151  10.8151  10.8562  10.8562
    10.8562  10.8562  10.8562  10.8562  10.8562  10.8562  10.8827  10.8827
    10.8827  10.8827  10.8975  10.8975  10.9143  10.9143  10.9164  10.9164
    10.9164  10.9164  11.1049  11.1049  11.1049  11.1049  11.1365  11.1365
    11.1632  11.1632  11.1632  11.1632  11.1741  11.1741  11.3318  11.3318
    11.3318  11.3318  11.3753  11.3753  11.3753  11.3753  11.3904  11.3904
    11.3904  11.3904  11.4976  11.4976  11.5143  11.5143  11.5439  11.5439
    11.5439  11.5439  11.5517  11.5517  11.5517  11.5517  11.6036  11.6036
    11.6710  11.6710  11.7542  11.7542  11.7542  11.7542  11.8214  11.8214
    12.2054  12.2054  12.2054  12.2054  12.2148  12.2148  12.2187  12.2187
    12.2188  12.2188  12.2316  12.2316  12.2316  12.2316  12.2328  12.2328
    12.2328  12.2328  12.2511  12.2511  12.2511  12.2511  12.2634  12.2634
    14.3068  14.3068  14.3068  14.3068  14.6853  14.6853  14.8007  14.8007
    14.8007  14.8007  15.2990  15.2990  15.2990  15.2990  15.6821  15.6821
    15.6821  15.6821  15.7440  15.7440  16.2636  16.2636  16.2636  16.2636
    18.3555  18.3555  18.6635  18.6635  18.6635  18.6635  19.2785  19.2785
    19.2785  19.2785  19.6067  19.6067  19.6067  19.6067  19.9032  19.9032
    19.9032  19.9032  20.5561  20.5561  20.5561  20.5561  20.8412  20.8412
    22.7586  22.7587

          k = 0.3397-0.4368-0.4368 ( 45256 PWs)   bands (ev):

   -71.0404 -71.0404 -71.0404 -71.0404 -71.0392 -71.0392 -71.0392 -71.0392
   -71.0336 -71.0336 -71.0335 -71.0335 -71.0329 -71.0329 -71.0329 -71.0329
   -71.0329 -71.0329 -71.0329 -71.0329 -71.0329 -71.0329 -71.0329 -71.0329
   -71.0329 -71.0329 -71.0329 -71.0329 -71.0324 -71.0324 -71.0323 -71.0323
   -36.7933 -36.7933 -36.7933 -36.7933 -36.7933 -36.7932 -36.7932 -36.7932
   -36.7915 -36.7915 -36.7915 -36.7915 -36.7913 -36.7913 -36.7913 -36.7913
   -36.7905 -36.7905 -36.7905 -36.7905 -36.7905 -36.7905 -36.7905 -36.7905
   -36.7609 -36.7609 -36.7609 -36.7609 -36.7512 -36.7512 -36.7512 -36.7512
   -36.7479 -36.7479 -36.7479 -36.7479 -36.7449 -36.7449 -36.7449 -36.7449
   -36.7449 -36.7449 -36.7449 -36.7449 -36.7448 -36.7448 -36.7448 -36.7448
   -36.7448 -36.7448 -36.7448 -36.7447 -36.7384 -36.7384 -36.7384 -36.7384
   -36.7308 -36.7308 -36.7308 -36.7308 -36.7304 -36.7304 -36.7304 -36.7304
   -36.7304 -36.7304 -36.7304 -36.7304 -36.7278 -36.7278 -36.7278 -36.7278
   -36.7278 -36.7278 -36.7278 -36.7278 -36.7270 -36.7270 -36.7270 -36.7270
   -36.7096 -36.7096 -36.7096 -36.7096 -36.7081 -36.7081 -36.7081 -36.7081
   -36.7079 -36.7079 -36.7079 -36.7079 -36.7057 -36.7057 -36.7057 -36.7057
     8.6537   8.6537   8.6537   8.6537   8.8971   8.8971   8.8971   8.8971
     9.5586   9.5586   9.5586   9.5586   9.5586   9.5586   9.5586   9.5586
     9.5603   9.5603   9.5604   9.5604   9.5681   9.5681   9.5681   9.5681
     9.5990   9.5990   9.5990   9.5990   9.5990   9.5990   9.5990   9.5990
     9.9798   9.9798   9.9798   9.9798   9.9798   9.9798   9.9798   9.9798
    10.0042  10.0042  10.0042  10.0042  10.1747  10.1747  10.1747  10.1747
    10.1747  10.1747  10.1747  10.1747  10.1868  10.1868  10.1868  10.1868
    10.5425  10.5425  10.5425  10.5425  10.7096  10.7096  10.7096  10.7096
    10.7861  10.7861  10.7861  10.7861  10.7937  10.7937  10.7937  10.7937
    10.8001  10.8001  10.8001  10.8001  10.8005  10.8005  10.8005  10.8005
    10.8633  10.8633  10.8634  10.8634  10.8813  10.8813  10.8813  10.8813
    10.8813  10.8813  10.8813  10.8813  10.9956  10.9956  10.9956  10.9956
    10.9956  10.9956  10.9956  10.9956  11.0182  11.0182  11.0182  11.0182
    11.2290  11.2290  11.2290  11.2290  11.2681  11.2681  11.2681  11.2681
    11.2681  11.2681  11.2681  11.2681  11.4432  11.4432  11.4432  11.4432
    11.4432  11.4432  11.4432  11.4432  11.4498  11.4498  11.4498  11.4498
    11.5210  11.5210  11.5210  11.5210  11.6423  11.6423  11.6423  11.6423
    11.6534  11.6534  11.6534  11.6534  11.7339  11.7339  11.7339  11.7339
    12.2290  12.2290  12.2290  12.2290  12.2290  12.2290  12.2290  12.2290
    12.2359  12.2359  12.2359  12.2359  12.2477  12.2477  12.2477  12.2477
    12.2508  12.2508  12.2508  12.2508  12.2508  12.2508  12.2508  12.2508
    14.5337  14.5337  14.5337  14.5337  14.9741  14.9741  14.9741  14.9741
    14.9741  14.9741  14.9741  14.9741  15.5118  15.5118  15.5118  15.5118
    15.5118  15.5118  15.5118  15.5118  15.9578  15.9578  15.9578  15.9578
    18.9436  18.9436  18.9436  18.9436  18.9436  18.9436  18.9436  18.9436
    19.2565  19.2565  19.2565  19.2566  19.8908  19.8908  19.8908  19.8908
    20.2029  20.2029  20.2029  20.2029  20.2029  20.2029  20.2029  20.2029
    23.0402  23.0402

          k =-0.4368-0.4368-0.4368 ( 45104 PWs)   bands (ev):

   -71.0398 -71.0398 -71.0398 -71.0398 -71.0398 -71.0398 -71.0398 -71.0398
   -71.0330 -71.0329 -71.0329 -71.0329 -71.0329 -71.0329 -71.0329 -71.0329
   -71.0329 -71.0329 -71.0329 -71.0329 -71.0329 -71.0329 -71.0329 -71.0329
   -71.0329 -71.0329 -71.0329 -71.0329 -71.0329 -71.0329 -71.0329 -71.0329
   -36.7919 -36.7919 -36.7919 -36.7919 -36.7919 -36.7919 -36.7919 -36.7919
   -36.7919 -36.7919 -36.7919 -36.7919 -36.7919 -36.7919 -36.7919 -36.7919
   -36.7919 -36.7919 -36.7919 -36.7918 -36.7918 -36.7918 -36.7918 -36.7918
   -36.7543 -36.7543 -36.7543 -36.7543 -36.7543 -36.7543 -36.7543 -36.7543
   -36.7448 -36.7448 -36.7448 -36.7448 -36.7448 -36.7448 -36.7448 -36.7448
   -36.7448 -36.7448 -36.7448 -36.7448 -36.7448 -36.7448 -36.7448 -36.7448
   -36.7448 -36.7448 -36.7448 -36.7448 -36.7448 -36.7448 -36.7448 -36.7448
   -36.7290 -36.7290 -36.7290 -36.7290 -36.7290 -36.7290 -36.7290 -36.7290
   -36.7290 -36.7290 -36.7290 -36.7290 -36.7290 -36.7290 -36.7290 -36.7290
   -36.7290 -36.7290 -36.7290 -36.7290 -36.7290 -36.7289 -36.7289 -36.7289
   -36.7074 -36.7074 -36.7074 -36.7074 -36.7074 -36.7074 -36.7074 -36.7074
   -36.7074 -36.7074 -36.7074 -36.7074 -36.7074 -36.7074 -36.7074 -36.7074
     8.7685   8.7685   8.7685   8.7685   8.7685   8.7685   8.7685   8.7685
     9.5718   9.5718   9.5718   9.5718   9.5718   9.5718   9.5718   9.5718
     9.5718   9.5718   9.5718   9.5718   9.5718   9.5718   9.5718   9.5718
     9.5718   9.5718   9.5718   9.5718   9.5718   9.5718   9.5718   9.5718
    10.0858  10.0858  10.0858  10.0858  10.0858  10.0858  10.0858  10.0858
    10.0858  10.0858  10.0858  10.0858  10.0858  10.0858  10.0858  10.0858
    10.0858  10.0858  10.0858  10.0858  10.0858  10.0858  10.0858  10.0858
    10.6427  10.6427  10.6427  10.6427  10.6427  10.6427  10.6427  10.6427
    10.7860  10.7860  10.7860  10.7860  10.7860  10.7860  10.7860  10.7860
    10.7860  10.7860  10.7860  10.7860  10.7860  10.7860  10.7860  10.7860
    10.9399  10.9399  10.9399  10.9399  10.9399  10.9399  10.9399  10.9399
    10.9399  10.9399  10.9399  10.9399  10.9399  10.9399  10.9399  10.9399
    10.9399  10.9399  10.9399  10.9399  10.9399  10.9399  10.9399  10.9399
    11.3387  11.3387  11.3387  11.3387  11.3387  11.3387  11.3387  11.3387
    11.3387  11.3387  11.3387  11.3387  11.3387  11.3387  11.3387  11.3387
    11.3387  11.3387  11.3387  11.3387  11.3387  11.3387  11.3387  11.3387
    11.6256  11.6256  11.6256  11.6256  11.6256  11.6256  11.6256  11.6256
    11.6256  11.6256  11.6256  11.6256  11.6256  11.6256  11.6256  11.6256
    12.2516  12.2516  12.2516  12.2516  12.2516  12.2516  12.2516  12.2516
    12.2516  12.2516  12.2516  12.2516  12.2516  12.2516  12.2516  12.2516
    12.2516  12.2516  12.2516  12.2516  12.2516  12.2516  12.2516  12.2516
    15.2259  15.2259  15.2259  15.2259  15.2259  15.2259  15.2259  15.2259
    15.2259  15.2259  15.2259  15.2259  15.2259  15.2259  15.2259  15.2259
    15.2259  15.2259  15.2259  15.2259  15.2259  15.2259  15.2259  15.2259
    19.5461  19.5461  19.5461  19.5461  19.5461  19.5461  19.5461  19.5461
    19.5461  19.5461  19.5461  19.5461  19.5461  19.5461  19.5461  19.5461
    19.5461  19.5461  19.5461  19.5461  19.5461  19.5461  19.5461  19.5461
    24.0244  24.0245

     the Fermi energy is    12.3363 ev

!    total energy              =  -16383.67583340 Ry

     total all-electron energy =   -322944.529541 Ry
     estimated scf accuracy    <       0.00000025 Ry
     smearing contrib. (-TS)   =       0.19847369 Ry
     internal energy E=F+TS    =  -16383.87430709 Ry

     The total energy is F=E-TS. E is the sum of the following terms:
     one-electron contribution =   -3506.75191826 Ry
     hartree contribution      =    2039.05257819 Ry
     xc contribution           =    -981.60056884 Ry
     ewald contribution        =   -5767.44029183 Ry
     one-center paw contrib.   =   -8167.13410635 Ry

     convergence has been achieved in  15 iterations

     Forces acting on atoms (cartesian axes, Ry/au):

     atom    1 type  1   force =     0.00000000    0.00000000    0.00000000
     atom    2 type  1   force =     0.00000092    0.00000092   -0.00000000
     atom    3 type  1   force =     0.00000092    0.00000000    0.00000092
     atom    4 type  1   force =     0.00000000    0.00000092    0.00000092
     atom    5 type  1   force =     0.00000000    0.00000000    0.00000000
     atom    6 type  1   force =    -0.00000741   -0.00000741   -0.00000000
     atom    7 type  1   force =     0.00000092    0.00000000   -0.00000092
     atom    8 type  1   force =    -0.00000000    0.00000092   -0.00000092
     atom    9 type  1   force =     0.00000000    0.00000000    0.00000000
     atom   10 type  1   force =     0.00000092   -0.00000092   -0.00000000
     atom   11 type  1   force =    -0.00000741    0.00000000   -0.00000741
     atom   12 type  1   force =     0.00000000   -0.00000092    0.00000092
     atom   13 type  1   force =     0.00000000    0.00000000    0.00000000
     atom   14 type  1   force =    -0.00000741    0.00000741    0.00000000
     atom   15 type  1   force =    -0.00000741    0.00000000    0.00000741
     atom   16 type  1   force =     0.00000000   -0.00000092   -0.00000092
     atom   17 type  1   force =     0.00000000    0.00000000    0.00000000
     atom   18 type  1   force =    -0.00000092    0.00000092   -0.00000000
     atom   19 type  1   force =    -0.00000092    0.00000000    0.00000092
     atom   20 type  1   force =    -0.00000000   -0.00000741   -0.00000741
     atom   21 type  1   force =     0.00000000    0.00000000    0.00000000
     atom   22 type  1   force =     0.00000741   -0.00000741    0.00000000
     atom   23 type  1   force =    -0.00000092    0.00000000   -0.00000092
     atom   24 type  1   force =     0.00000000   -0.00000741    0.00000741
     atom   25 type  1   force =     0.00000000    0.00000000    0.00000000
     atom   26 type  1   force =    -0.00000092   -0.00000092    0.00000000
     atom   27 type  1   force =     0.00000741    0.00000000   -0.00000741
     atom   28 type  1   force =     0.00000000    0.00000741   -0.00000741
     atom   29 type  1   force =     0.00000000    0.00000000    0.00000000
     atom   30 type  1   force =     0.00000741    0.00000741   -0.00000000
     atom   31 type  1   force =     0.00000741   -0.00000000    0.00000741
     atom   32 type  1   force =    -0.00000000    0.00000741    0.00000741

     Total force =     0.000037     Total SCF correction =     0.000104
     SCF correction compared to forces is large: reduce conv_thr to get better values


     Computing stress (Cartesian axis) and pressure

          total   stress  (Ry/bohr**3)                   (kbar)     P=     -237.37
  -0.00161358   0.00000000   0.00000000         -237.37        0.00        0.00
   0.00000000  -0.00161358   0.00000000            0.00     -237.37        0.00
   0.00000000   0.00000000  -0.00161358            0.00        0.00     -237.37


     Writing output data file /scratch/vrmBkqIZGHocUxjN.save/
 
     init_run     :     18.12s CPU     18.46s WALL (       1 calls)
     electrons    :    843.62s CPU    856.64s WALL (       1 calls)
     forces       :      7.05s CPU      7.13s WALL (       1 calls)
     stress       :     62.05s CPU     62.46s WALL (       1 calls)

     Called by init_run:
     wfcinit      :     17.41s CPU     17.71s WALL (       1 calls)
     potinit      :      0.15s CPU      0.16s WALL (       1 calls)
     hinit0       :      0.07s CPU      0.07s WALL (       1 calls)

     Called by electrons:
     c_bands      :    758.01s CPU    769.20s WALL (      16 calls)
     sum_band     :     83.18s CPU     84.65s WALL (      16 calls)
     v_of_rho     :      0.57s CPU      0.61s WALL (      16 calls)
     newd         :      0.52s CPU      0.72s WALL (      16 calls)
     PAW_pot      :      1.31s CPU      1.40s WALL (      16 calls)
     mix_rho      :      0.10s CPU      0.11s WALL (      16 calls)

     Called by c_bands:
     init_us_2    :      3.47s CPU      3.51s WALL (    1225 calls)
     cegterg      :    744.94s CPU    755.78s WALL (     560 calls)

     Called by *egterg:
     cdiaghg      :     72.43s CPU     74.08s WALL (    1729 calls)
     h_psi        :    385.08s CPU    391.17s WALL (    1799 calls)
     s_psi        :     30.99s CPU     31.19s WALL (    1799 calls)
     g_psi        :      0.97s CPU      0.99s WALL (    1204 calls)

     Called by h_psi:
     h_psi:calbec :     51.57s CPU     51.89s WALL (    1799 calls)
     vloc_psi     :    300.36s CPU    305.65s WALL (    1799 calls)
     add_vuspsi   :     30.70s CPU     31.14s WALL (    1799 calls)

     General routines
     calbec       :     80.63s CPU     81.12s WALL (    2534 calls)
     fft          :      0.54s CPU      0.57s WALL (     232 calls)
     ffts         :      0.02s CPU      0.03s WALL (      32 calls)
     fftw         :    345.33s CPU    351.29s WALL ( 1149210 calls)
     interpolate  :      0.04s CPU      0.04s WALL (      16 calls)
 
     Parallel routines
     fft_scatt_xy :     27.54s CPU     27.92s WALL ( 1149474 calls)
     fft_scatt_yz :    261.45s CPU    266.34s WALL ( 1149474 calls)
 
     PWSCF        :  15m42.98s CPU  15m59.78s WALL

 
   This run was terminated on:  20:13: 5  26Nov2021            

=------------------------------------------------------------------------------=
   JOB DONE.
=------------------------------------------------------------------------------=
