
     Program PWSCF v.6.7MaX starts on 26Nov2021 at 23:54:28 

     This program is part of the open-source Quantum ESPRESSO suite
     for quantum simulation of materials; please cite
         "P. Giannozzi et al., J. Phys.:Condens. Matter 21 395502 (2009);
         "P. Giannozzi et al., J. Phys.:Condens. Matter 29 465901 (2017);
          URL http://www.quantum-espresso.org", 
     in publications or presentations arising from this work. More details at
     http://www.quantum-espresso.org/quote

     Parallel version (MPI & OpenMP), running on      72 processor cores
     Number of MPI processes:                72
     Threads/MPI process:                     1

     MPI processes distributed on     1 nodes
     R & G space division:  proc/nbgrp/npool/nimage =      72
     Reading input from fcc_15.in
Warning: card &CELL ignored
Warning: card CELL_DYNAMICS = 'BFGS', ignored
Warning: card CELL_FACTOR = 2.0, ignored
Warning: card PRESS = 0.0, ignored
Warning: card / ignored

     Current dimensions of program PWSCF are:
     Max number of different atomic species (ntypx) = 10
     Max number of k-points (npk) =  40000
     Max angular momentum in pseudopotentials (lmaxx) =  3
     file Pd.pbe-spn-kjpaw_psl.1.0.0.UPF: wavefunction(s)  4S 5S 4D renormalized

     Subspace diagonalization in iterative solution of the eigenvalue problem:
     one sub-group per band group will be used
     ELPA distributed-memory algorithm (size of sub-group:  8*  8 procs)

     Found symmetry operation: I + (  0.2500  0.2500  0.0000)
     This is a supercell, fractional translations are disabled
     Message from routine setup:
     using ibrav=0 with symmetry is DISCOURAGED, use correct ibrav instead
 
     Parallelization info
     --------------------
     sticks:   dense  smooth     PW     G-vecs:    dense   smooth      PW
     Min         275     182     48                29145    15638    2116
     Max         276     183     49                29148    15644    2122
     Sum       19845   13109   3457              2098507  1126173  152571
 


     bravais-lattice index     =            0
     lattice parameter (alat)  =      14.4000  a.u.
     unit-cell volume          =   13933.4243 (a.u.)^3
     number of atoms/cell      =           32
     number of atomic types    =            1
     number of electrons       =       576.00
     number of Kohn-Sham states=          346
     kinetic-energy cutoff     =      71.0000  Ry
     charge density cutoff     =     430.0000  Ry
     scf convergence threshold =      1.0E-06
     mixing beta               =       0.1000
     number of iterations used =           10  TF        mixing
     Exchange-correlation= SLA  PW   PBX  PBC
                           (   1   4   3   4   0   0   0)

     celldm(1)=  14.400000  celldm(2)=   0.000000  celldm(3)=   0.000000
     celldm(4)=   0.000000  celldm(5)=   0.000000  celldm(6)=   0.000000

     crystal axes: (cart. coord. in units of alat)
               a(1) = (   1.671053   0.000000   0.000000 )  
               a(2) = (   0.000000   1.671053   0.000000 )  
               a(3) = (   0.000000   0.000000   1.671053 )  

     reciprocal axes: (cart. coord. in units 2 pi/alat)
               b(1) = (  0.598425  0.000000  0.000000 )  
               b(2) = (  0.000000  0.598425  0.000000 )  
               b(3) = (  0.000000  0.000000  0.598425 )  


     PseudoPot. # 1 for Pd read from file:
     /rds/homes/b/bxp912/pp/Pd.pbe-spn-kjpaw_psl.1.0.0.UPF
     MD5 check sum: 790f2ebce206edfd9790dcb9844eca51
     Pseudo is Projector augmented-wave + core cor, Zval = 18.0
     Generated using &quot;atomic&quot; code by A. Dal Corso  v.6.3
     Shape of augmentation charge: PSQ
     Using radial grid of 1235 points,  6 beta functions with: 
                l(1) =   0
                l(2) =   0
                l(3) =   1
                l(4) =   1
                l(5) =   2
                l(6) =   2
     Q(r) pseudized with 0 coefficients 


     atomic species   valence    mass     pseudopotential
        Pd            18.00   106.42000     Pd( 1.00)

     48 Sym. Ops., with inversion, found



   Cartesian axes

     site n.     atom                  positions (alat units)
         1           Pd  tau(   1) = (   0.0000000   0.0000000   0.0000000  )
         2           Pd  tau(   2) = (   0.4177632   0.4177632   0.0000000  )
         3           Pd  tau(   3) = (   0.4177632   0.0000000   0.4177632  )
         4           Pd  tau(   4) = (   0.0000000   0.4177632   0.4177632  )
         5           Pd  tau(   5) = (   0.0000000   0.0000000   0.8355263  )
         6           Pd  tau(   6) = (   0.4177632   0.4177632   0.8355263  )
         7           Pd  tau(   7) = (   0.4177632   0.0000000   1.2532895  )
         8           Pd  tau(   8) = (   0.0000000   0.4177632   1.2532895  )
         9           Pd  tau(   9) = (   0.0000000   0.8355263   0.0000000  )
        10           Pd  tau(  10) = (   0.4177632   1.2532895   0.0000000  )
        11           Pd  tau(  11) = (   0.4177632   0.8355263   0.4177632  )
        12           Pd  tau(  12) = (   0.0000000   1.2532895   0.4177632  )
        13           Pd  tau(  13) = (   0.0000000   0.8355263   0.8355263  )
        14           Pd  tau(  14) = (   0.4177632   1.2532895   0.8355263  )
        15           Pd  tau(  15) = (   0.4177632   0.8355263   1.2532895  )
        16           Pd  tau(  16) = (   0.0000000   1.2532895   1.2532895  )
        17           Pd  tau(  17) = (   0.8355263   0.0000000   0.0000000  )
        18           Pd  tau(  18) = (   1.2532895   0.4177632   0.0000000  )
        19           Pd  tau(  19) = (   1.2532895   0.0000000   0.4177632  )
        20           Pd  tau(  20) = (   0.8355263   0.4177632   0.4177632  )
        21           Pd  tau(  21) = (   0.8355263   0.0000000   0.8355263  )
        22           Pd  tau(  22) = (   1.2532895   0.4177632   0.8355263  )
        23           Pd  tau(  23) = (   1.2532895   0.0000000   1.2532895  )
        24           Pd  tau(  24) = (   0.8355263   0.4177632   1.2532895  )
        25           Pd  tau(  25) = (   0.8355263   0.8355263   0.0000000  )
        26           Pd  tau(  26) = (   1.2532895   1.2532895   0.0000000  )
        27           Pd  tau(  27) = (   1.2532895   0.8355263   0.4177632  )
        28           Pd  tau(  28) = (   0.8355263   1.2532895   0.4177632  )
        29           Pd  tau(  29) = (   0.8355263   0.8355263   0.8355263  )
        30           Pd  tau(  30) = (   1.2532895   1.2532895   0.8355263  )
        31           Pd  tau(  31) = (   1.2532895   0.8355263   1.2532895  )
        32           Pd  tau(  32) = (   0.8355263   1.2532895   1.2532895  )

     number of k points=    35  Marzari-Vanderbilt smearing, width (Ry)=  0.0400
                       cart. coord. in units 2pi/alat
        k(    1) = (   0.0332458   0.0332458   0.0332458), wk =   0.0219479
        k(    2) = (   0.0332458   0.0332458   0.0997375), wk =   0.0658436
        k(    3) = (   0.0332458   0.0332458   0.1662292), wk =   0.0658436
        k(    4) = (   0.0332458   0.0332458   0.2327209), wk =   0.0658436
        k(    5) = (   0.0332458   0.0332458  -0.2992126), wk =   0.0329218
        k(    6) = (   0.0332458   0.0997375   0.0997375), wk =   0.0658436
        k(    7) = (   0.0332458   0.0997375   0.1662292), wk =   0.1316872
        k(    8) = (   0.0332458   0.0997375   0.2327209), wk =   0.1316872
        k(    9) = (   0.0332458   0.0997375  -0.2992126), wk =   0.0658436
        k(   10) = (   0.0332458   0.1662292   0.1662292), wk =   0.0658436
        k(   11) = (   0.0332458   0.1662292   0.2327209), wk =   0.1316872
        k(   12) = (   0.0332458   0.1662292  -0.2992126), wk =   0.0658436
        k(   13) = (   0.0332458   0.2327209   0.2327209), wk =   0.0658436
        k(   14) = (   0.0332458   0.2327209  -0.2992126), wk =   0.0658436
        k(   15) = (   0.0332458  -0.2992126  -0.2992126), wk =   0.0164609
        k(   16) = (   0.0997375   0.0997375   0.0997375), wk =   0.0219479
        k(   17) = (   0.0997375   0.0997375   0.1662292), wk =   0.0658436
        k(   18) = (   0.0997375   0.0997375   0.2327209), wk =   0.0658436
        k(   19) = (   0.0997375   0.0997375  -0.2992126), wk =   0.0329218
        k(   20) = (   0.0997375   0.1662292   0.1662292), wk =   0.0658436
        k(   21) = (   0.0997375   0.1662292   0.2327209), wk =   0.1316872
        k(   22) = (   0.0997375   0.1662292  -0.2992126), wk =   0.0658436
        k(   23) = (   0.0997375   0.2327209   0.2327209), wk =   0.0658436
        k(   24) = (   0.0997375   0.2327209  -0.2992126), wk =   0.0658436
        k(   25) = (   0.0997375  -0.2992126  -0.2992126), wk =   0.0164609
        k(   26) = (   0.1662292   0.1662292   0.1662292), wk =   0.0219479
        k(   27) = (   0.1662292   0.1662292   0.2327209), wk =   0.0658436
        k(   28) = (   0.1662292   0.1662292  -0.2992126), wk =   0.0329218
        k(   29) = (   0.1662292   0.2327209   0.2327209), wk =   0.0658436
        k(   30) = (   0.1662292   0.2327209  -0.2992126), wk =   0.0658436
        k(   31) = (   0.1662292  -0.2992126  -0.2992126), wk =   0.0164609
        k(   32) = (   0.2327209   0.2327209   0.2327209), wk =   0.0219479
        k(   33) = (   0.2327209   0.2327209  -0.2992126), wk =   0.0329218
        k(   34) = (   0.2327209  -0.2992126  -0.2992126), wk =   0.0164609
        k(   35) = (  -0.2992126  -0.2992126  -0.2992126), wk =   0.0027435

     Dense  grid:  2098507 G-vectors     FFT dimensions: ( 160, 160, 160)

     Smooth grid:  1126173 G-vectors     FFT dimensions: ( 135, 135, 135)

     Estimated max dynamical RAM per process >     534.37 MB

     Estimated total dynamical RAM >      37.57 GB

     Initial potential from superposition of free atoms

     starting charge  575.98776, renormalised to  576.00000
     Starting wfcs are  320 randomized atomic wfcs +   26 random wfcs
     Checking if some PAW data can be deallocated... 

     total cpu time spent up to now is       46.7 secs

     Self-consistent Calculation

     iteration #  1     ecut=    71.00 Ry     beta= 0.10
     Davidson diagonalization with overlap
     ethr =  1.00E-02,  avg # of iterations =  5.5

     total cpu time spent up to now is      176.5 secs

     total energy              =  -16381.30159412 Ry
     estimated scf accuracy    <      23.99406868 Ry

     iteration #  2     ecut=    71.00 Ry     beta= 0.10
     Davidson diagonalization with overlap
     ethr =  4.17E-03,  avg # of iterations =  1.0

     total cpu time spent up to now is      274.9 secs

     total energy              =  -16373.41106850 Ry
     estimated scf accuracy    <      17.89504816 Ry

     iteration #  3     ecut=    71.00 Ry     beta= 0.10
     Davidson diagonalization with overlap
     ethr =  3.11E-03,  avg # of iterations =  2.0

     total cpu time spent up to now is      405.0 secs

     total energy              =  -16376.80614704 Ry
     estimated scf accuracy    <       3.88467185 Ry

     iteration #  4     ecut=    71.00 Ry     beta= 0.10
     Davidson diagonalization with overlap
     ethr =  6.74E-04,  avg # of iterations =  3.5

     total cpu time spent up to now is      511.6 secs

     total energy              =  -16376.81286503 Ry
     estimated scf accuracy    <       1.43528948 Ry

     iteration #  5     ecut=    71.00 Ry     beta= 0.10
     Davidson diagonalization with overlap
     c_bands:  1 eigenvalues not converged
     ethr =  2.49E-04,  avg # of iterations =  3.4

     total cpu time spent up to now is      614.6 secs

     total energy              =  -16376.68363985 Ry
     estimated scf accuracy    <       0.65716977 Ry

     iteration #  6     ecut=    71.00 Ry     beta= 0.10
     Davidson diagonalization with overlap
     c_bands:  2 eigenvalues not converged
     ethr =  1.14E-04,  avg # of iterations =  5.0

     total cpu time spent up to now is      769.3 secs

     total energy              =  -16377.36749543 Ry
     estimated scf accuracy    <      13.03875749 Ry

     iteration #  7     ecut=    71.00 Ry     beta= 0.10
     Davidson diagonalization with overlap
     ethr =  1.14E-04,  avg # of iterations =  1.3

     total cpu time spent up to now is      868.2 secs

     total energy              =  -16377.05723951 Ry
     estimated scf accuracy    <       6.40758294 Ry

     iteration #  8     ecut=    71.00 Ry     beta= 0.10
     Davidson diagonalization with overlap
     ethr =  1.14E-04,  avg # of iterations =  1.3

     total cpu time spent up to now is      962.5 secs

     total energy              =  -16377.12846530 Ry
     estimated scf accuracy    <       3.42933257 Ry

     iteration #  9     ecut=    71.00 Ry     beta= 0.10
     Davidson diagonalization with overlap
     ethr =  1.14E-04,  avg # of iterations =  1.5

     total cpu time spent up to now is     1052.6 secs

     total energy              =  -16377.00909093 Ry
     estimated scf accuracy    <       3.37262360 Ry

     iteration # 10     ecut=    71.00 Ry     beta= 0.10
     Davidson diagonalization with overlap
     ethr =  1.14E-04,  avg # of iterations =  1.0

     total cpu time spent up to now is     1140.4 secs

     total energy              =  -16376.86696729 Ry
     estimated scf accuracy    <       3.52089284 Ry

     iteration # 11     ecut=    71.00 Ry     beta= 0.10
     Davidson diagonalization with overlap
     ethr =  1.14E-04,  avg # of iterations =  1.5

     total cpu time spent up to now is     1233.4 secs

     total energy              =  -16376.72248653 Ry
     estimated scf accuracy    <       2.00563027 Ry

     iteration # 12     ecut=    71.00 Ry     beta= 0.10
     Davidson diagonalization with overlap
     ethr =  1.14E-04,  avg # of iterations =  1.6

     total cpu time spent up to now is     1320.2 secs

     total energy              =  -16376.61428671 Ry
     estimated scf accuracy    <       1.21710430 Ry

     iteration # 13     ecut=    71.00 Ry     beta= 0.10
     Davidson diagonalization with overlap
     ethr =  1.14E-04,  avg # of iterations =  1.9

     total cpu time spent up to now is     1411.4 secs

     total energy              =  -16376.49557910 Ry
     estimated scf accuracy    <       0.52684873 Ry

     iteration # 14     ecut=    71.00 Ry     beta= 0.10
     Davidson diagonalization with overlap
     ethr =  9.15E-05,  avg # of iterations =  1.7

     total cpu time spent up to now is     1507.1 secs

     total energy              =  -16376.54621425 Ry
     estimated scf accuracy    <       0.14352859 Ry

     iteration # 15     ecut=    71.00 Ry     beta= 0.10
     Davidson diagonalization with overlap
     c_bands:  1 eigenvalues not converged
     c_bands:  2 eigenvalues not converged
     ethr =  2.49E-05,  avg # of iterations =  2.9

     total cpu time spent up to now is     1603.7 secs

     total energy              =  -16376.54409561 Ry
     estimated scf accuracy    <       0.09625577 Ry

     iteration # 16     ecut=    71.00 Ry     beta= 0.10
     Davidson diagonalization with overlap
     ethr =  1.67E-05,  avg # of iterations =  1.9

     total cpu time spent up to now is     1691.6 secs

     total energy              =  -16376.54754082 Ry
     estimated scf accuracy    <       0.02086363 Ry

     iteration # 17     ecut=    71.00 Ry     beta= 0.10
     Davidson diagonalization with overlap
     c_bands:  1 eigenvalues not converged
     ethr =  3.62E-06,  avg # of iterations =  4.5

     total cpu time spent up to now is     1824.2 secs

     total energy              =  -16376.54283634 Ry
     estimated scf accuracy    <       0.11062916 Ry

     iteration # 18     ecut=    71.00 Ry     beta= 0.10
     Davidson diagonalization with overlap
     ethr =  3.62E-06,  avg # of iterations =  2.3

     total cpu time spent up to now is     1951.2 secs

     total energy              =  -16376.54796055 Ry
     estimated scf accuracy    <       0.00258895 Ry

     iteration # 19     ecut=    71.00 Ry     beta= 0.10
     Davidson diagonalization with overlap
     ethr =  4.49E-07,  avg # of iterations =  2.0

     total cpu time spent up to now is     2054.1 secs

     total energy              =  -16376.54792984 Ry
     estimated scf accuracy    <       0.00024076 Ry

     iteration # 20     ecut=    71.00 Ry     beta= 0.10
     Davidson diagonalization with overlap
     ethr =  4.18E-08,  avg # of iterations =  2.0

     total cpu time spent up to now is     2174.3 secs

     total energy              =  -16376.54799541 Ry
     estimated scf accuracy    <       0.00041657 Ry

     iteration # 21     ecut=    71.00 Ry     beta= 0.10
     Davidson diagonalization with overlap
     ethr =  4.18E-08,  avg # of iterations =  2.0

     total cpu time spent up to now is     2292.2 secs

     total energy              =  -16376.54806024 Ry
     estimated scf accuracy    <       0.00003733 Ry

     iteration # 22     ecut=    71.00 Ry     beta= 0.10
     Davidson diagonalization with overlap
     ethr =  6.48E-09,  avg # of iterations =  2.0

     total cpu time spent up to now is     2426.8 secs

     total energy              =  -16376.54806168 Ry
     estimated scf accuracy    <       0.00007657 Ry

     iteration # 23     ecut=    71.00 Ry     beta= 0.10
     Davidson diagonalization with overlap
     ethr =  6.48E-09,  avg # of iterations =  2.0

     total cpu time spent up to now is     2543.7 secs

     total energy              =  -16376.54808260 Ry
     estimated scf accuracy    <       0.00001158 Ry

     iteration # 24     ecut=    71.00 Ry     beta= 0.10
     Davidson diagonalization with overlap
     ethr =  2.01E-09,  avg # of iterations =  3.0

     total cpu time spent up to now is     2689.1 secs

     total energy              =  -16376.54809002 Ry
     estimated scf accuracy    <       0.00004174 Ry

     iteration # 25     ecut=    71.00 Ry     beta= 0.10
     Davidson diagonalization with overlap
     ethr =  2.01E-09,  avg # of iterations =  1.0

     total cpu time spent up to now is     2779.2 secs

     total energy              =  -16376.54809471 Ry
     estimated scf accuracy    <       0.00001731 Ry

     iteration # 26     ecut=    71.00 Ry     beta= 0.10
     Davidson diagonalization with overlap
     ethr =  2.01E-09,  avg # of iterations =  2.3

     total cpu time spent up to now is     2900.3 secs

     total energy              =  -16376.54809854 Ry
     estimated scf accuracy    <       0.00000875 Ry

     iteration # 27     ecut=    71.00 Ry     beta= 0.10
     Davidson diagonalization with overlap
     ethr =  1.52E-09,  avg # of iterations =  2.0

     total cpu time spent up to now is     3003.4 secs

     total energy              =  -16376.54809803 Ry
     estimated scf accuracy    <       0.00001074 Ry

     iteration # 28     ecut=    71.00 Ry     beta= 0.10
     Davidson diagonalization with overlap
     ethr =  1.52E-09,  avg # of iterations =  1.0

     total cpu time spent up to now is     3091.5 secs

     End of self-consistent calculation

          k = 0.0332 0.0332 0.0332 (140764 PWs)   bands (ev):

   -81.2624 -81.2622 -81.2622 -81.2622 -81.2622 -81.2622 -81.2622 -81.2622
   -81.2622 -81.2622 -81.2622 -81.2622 -81.2622 -81.2622 -81.2622 -81.2622
   -81.2622 -81.2622 -81.2622 -81.2622 -81.2622 -81.2622 -81.2622 -81.2622
   -81.2622 -81.2622 -81.2622 -81.2622 -81.2622 -81.2622 -81.2622 -81.2621
   -47.0755 -47.0755 -47.0755 -47.0755 -47.0754 -47.0754 -47.0754 -47.0753
   -47.0753 -47.0753 -47.0753 -47.0753 -47.0753 -47.0753 -47.0753 -47.0753
   -47.0753 -47.0753 -47.0753 -47.0753 -47.0753 -47.0753 -47.0753 -47.0753
   -47.0753 -47.0753 -47.0753 -47.0753 -47.0753 -47.0753 -47.0753 -47.0753
   -47.0753 -47.0753 -47.0753 -47.0752 -47.0752 -47.0752 -47.0752 -47.0752
   -47.0752 -47.0752 -47.0752 -47.0752 -47.0752 -47.0752 -47.0752 -47.0752
   -47.0752 -47.0752 -47.0752 -47.0752 -47.0752 -47.0752 -47.0752 -47.0752
   -47.0752 -47.0752 -47.0752 -47.0752 -47.0752 -47.0752 -47.0752 -47.0752
   -47.0752 -47.0752 -47.0752 -47.0752 -47.0751 -47.0751 -47.0751 -47.0751
   -47.0751 -47.0751 -47.0751 -47.0751 -47.0751 -47.0751 -47.0751 -47.0751
   -47.0751 -47.0751 -47.0751 -47.0751 -47.0751 -47.0751 -47.0751 -47.0751
   -47.0751 -47.0751 -47.0751 -47.0751 -47.0751 -47.0751 -47.0751 -47.0751
    -0.2817   0.1257   0.1274   0.1274   0.1274   0.1453   0.1453   0.1453
     0.1475   0.1475   0.1475   0.2196   0.2196   0.2196   0.2337   0.2337
     0.2337   0.2400   0.2400   0.2400   0.2439   0.2439   0.2439   0.2510
     0.2510   0.2510   0.2510   0.2510   0.2510   0.2560   0.2560   0.2560
     0.2643   0.2643   0.2643   0.2643   0.2643   0.2643   0.2669   0.2669
     0.2669   0.2963   0.2963   0.2963   0.2963   0.2963   0.2963   0.2967
     0.2967   0.2967   0.3002   0.3002   0.3002   0.3002   0.3002   0.3002
     0.3086   0.3099   0.3099   0.3099   0.3099   0.3099   0.3101   0.3101
     0.3101   0.3110   0.3110   0.3120   0.3121   0.3121   0.3295   0.3295
     0.3295   0.3295   0.3295   0.3295   0.3783   0.3783   0.3783   0.3783
     0.3783   0.3783   0.3886   0.3886   0.3886   0.3909   0.3909   0.3909
     0.3961   0.3961   0.3961   0.3990   0.3990   0.3990   0.4042   0.4042
     0.4042   0.4064   0.4064   0.4064   0.4084   0.4084   0.4084   0.4084
     0.4084   0.4084   0.4241   0.4241   0.4250   0.4250   0.4250   0.4255
     0.4255   0.4255   0.4262   0.4262   0.4262   0.4376   0.4377   0.4377
     0.4377   0.4377   0.4377   0.4397   0.4397   0.4397   0.4397   0.4397
     0.4397   0.4453   0.4453   0.4453   0.4657   0.4657   0.4657   0.4738
     0.4738   0.4738   0.5124   0.5124   0.5124   0.5162   0.5162   0.5162
     0.5179   0.5179   0.5193   0.5193   0.5193   0.5412   0.5412   0.5412
     0.5423   0.5423   0.5423   0.5423   0.5423   0.5423   0.5425   0.5425
     0.5425   0.6656   0.6656   0.6656   0.8624   0.8624   0.8624   1.5117
     1.5117   1.5117   1.7058   1.7058   1.7058   1.7058   1.7058   1.7058
     1.8946   1.8946   1.8946   2.2233   2.3033   2.3033   2.3033   3.1371
     3.1371   3.1371   3.2396   3.2396   3.2396   3.2396   3.2396   3.2396
     3.4242   3.4242   3.4242   3.5049   4.0843   4.0843   4.0843   5.0756
     5.0756   5.0756   5.0756   5.0756   5.0756   5.3125   5.3125   5.3125
     5.3125   5.3125   5.3125   5.3417   5.3417   5.3417   5.5196   5.5197
     5.5197   5.5197

          k = 0.0332 0.0332 0.0997 (140738 PWs)   bands (ev):

   -81.2624 -81.2622 -81.2622 -81.2622 -81.2622 -81.2622 -81.2622 -81.2622
   -81.2622 -81.2622 -81.2622 -81.2622 -81.2622 -81.2622 -81.2622 -81.2622
   -81.2622 -81.2622 -81.2622 -81.2622 -81.2622 -81.2622 -81.2622 -81.2622
   -81.2622 -81.2622 -81.2622 -81.2622 -81.2622 -81.2622 -81.2622 -81.2621
   -47.0754 -47.0754 -47.0754 -47.0754 -47.0754 -47.0754 -47.0754 -47.0754
   -47.0754 -47.0753 -47.0753 -47.0753 -47.0753 -47.0753 -47.0753 -47.0753
   -47.0753 -47.0753 -47.0753 -47.0753 -47.0753 -47.0753 -47.0753 -47.0753
   -47.0753 -47.0753 -47.0753 -47.0753 -47.0753 -47.0753 -47.0753 -47.0753
   -47.0753 -47.0753 -47.0752 -47.0752 -47.0752 -47.0752 -47.0752 -47.0752
   -47.0752 -47.0752 -47.0752 -47.0752 -47.0752 -47.0752 -47.0752 -47.0752
   -47.0752 -47.0752 -47.0752 -47.0752 -47.0752 -47.0752 -47.0752 -47.0752
   -47.0752 -47.0752 -47.0752 -47.0752 -47.0752 -47.0752 -47.0752 -47.0752
   -47.0752 -47.0752 -47.0752 -47.0752 -47.0752 -47.0752 -47.0752 -47.0752
   -47.0751 -47.0751 -47.0751 -47.0751 -47.0751 -47.0751 -47.0751 -47.0751
   -47.0751 -47.0751 -47.0751 -47.0751 -47.0751 -47.0751 -47.0751 -47.0751
   -47.0751 -47.0751 -47.0751 -47.0751 -47.0751 -47.0750 -47.0750 -47.0750
    -0.2584   0.1295   0.1328   0.1328   0.1344   0.1478   0.1489   0.1489
     0.1511   0.1533   0.1534   0.2056   0.2220   0.2220   0.2226   0.2276
     0.2350   0.2350   0.2418   0.2418   0.2460   0.2467   0.2467   0.2468
     0.2483   0.2489   0.2489   0.2503   0.2503   0.2506   0.2506   0.2520
     0.2520   0.2533   0.2533   0.2635   0.2635   0.2659   0.2659   0.2702
     0.2702   0.2729   0.2729   0.2913   0.2913   0.2928   0.2928   0.2964
     0.2964   0.2987   0.2987   0.3001   0.3001   0.3015   0.3015   0.3019
     0.3043   0.3064   0.3081   0.3091   0.3091   0.3115   0.3127   0.3129
     0.3130   0.3152   0.3152   0.3160   0.3174   0.3175   0.3283   0.3283
     0.3301   0.3301   0.3598   0.3598   0.3633   0.3633   0.3640   0.3640
     0.3750   0.3751   0.3759   0.3759   0.3764   0.3782   0.3782   0.3843
     0.3856   0.3872   0.3892   0.3892   0.4055   0.4055   0.4063   0.4067
     0.4067   0.4080   0.4080   0.4097   0.4097   0.4109   0.4109   0.4140
     0.4198   0.4198   0.4201   0.4201   0.4206   0.4206   0.4218   0.4254
     0.4254   0.4255   0.4367   0.4367   0.4383   0.4394   0.4394   0.4405
     0.4405   0.4459   0.4460   0.4465   0.4465   0.4506   0.4506   0.4527
     0.4527   0.4555   0.4569   0.4569   0.4578   0.4674   0.4674   0.4767
     0.4767   0.4820   0.5092   0.5092   0.5102   0.5102   0.5105   0.5109
     0.5135   0.5152   0.5153   0.5175   0.5180   0.5180   0.5331   0.5331
     0.5370   0.5378   0.5378   0.5379   0.5379   0.5386   0.5423   0.5423
     0.5423   0.5423   0.6952   0.6952   0.8910   0.8910   1.0909   1.3356
     1.3356   1.5327   1.5328   1.5351   1.7289   1.7289   1.9158   1.9158
     1.9169   2.0965   2.0965   2.1045   2.2388   2.2388   2.3175   2.8828
     3.1430   3.1430   3.1607   3.1607   3.1835   3.1836   3.2330   3.2330
     3.4553   3.5347   3.5347   3.6703   4.1143   4.1143   4.3728   4.8730
     4.8730   5.0165   5.0165   5.0461   5.0461   5.0504   5.1910   5.1910
     5.2364   5.2364   5.2677   5.2677   5.3510   5.3510   5.3739   5.3739
     5.4344   5.5437

          k = 0.0332 0.0332 0.1662 (140780 PWs)   bands (ev):

   -81.2624 -81.2622 -81.2622 -81.2622 -81.2622 -81.2622 -81.2622 -81.2622
   -81.2622 -81.2622 -81.2622 -81.2622 -81.2622 -81.2622 -81.2622 -81.2622
   -81.2622 -81.2622 -81.2622 -81.2622 -81.2622 -81.2622 -81.2622 -81.2622
   -81.2622 -81.2622 -81.2622 -81.2622 -81.2622 -81.2622 -81.2622 -81.2621
   -47.0754 -47.0754 -47.0754 -47.0754 -47.0754 -47.0754 -47.0754 -47.0754
   -47.0754 -47.0754 -47.0753 -47.0753 -47.0753 -47.0753 -47.0753 -47.0753
   -47.0753 -47.0753 -47.0753 -47.0753 -47.0753 -47.0753 -47.0753 -47.0753
   -47.0753 -47.0753 -47.0753 -47.0753 -47.0753 -47.0753 -47.0753 -47.0753
   -47.0753 -47.0753 -47.0753 -47.0753 -47.0752 -47.0752 -47.0752 -47.0752
   -47.0752 -47.0752 -47.0752 -47.0752 -47.0752 -47.0752 -47.0752 -47.0752
   -47.0752 -47.0752 -47.0752 -47.0752 -47.0752 -47.0752 -47.0752 -47.0752
   -47.0752 -47.0752 -47.0752 -47.0752 -47.0752 -47.0752 -47.0752 -47.0752
   -47.0752 -47.0752 -47.0752 -47.0752 -47.0752 -47.0752 -47.0752 -47.0752
   -47.0752 -47.0752 -47.0752 -47.0752 -47.0752 -47.0751 -47.0751 -47.0751
   -47.0751 -47.0751 -47.0751 -47.0751 -47.0751 -47.0751 -47.0751 -47.0751
   -47.0751 -47.0751 -47.0751 -47.0751 -47.0751 -47.0750 -47.0750 -47.0750
    -0.2121   0.1386   0.1433   0.1433   0.1463   0.1527   0.1532   0.1570
     0.1570   0.1582   0.1638   0.1638   0.1922   0.2121   0.2211   0.2254
     0.2254   0.2259   0.2259   0.2270   0.2270   0.2275   0.2390   0.2390
     0.2391   0.2391   0.2472   0.2472   0.2495   0.2495   0.2571   0.2571
     0.2591   0.2591   0.2616   0.2641   0.2641   0.2660   0.2660   0.2684
     0.2684   0.2693   0.2693   0.2939   0.2939   0.2965   0.2965   0.2979
     0.2979   0.3006   0.3009   0.3009   0.3010   0.3010   0.3015   0.3036
     0.3036   0.3054   0.3060   0.3078   0.3078   0.3114   0.3179   0.3189
     0.3189   0.3212   0.3212   0.3216   0.3216   0.3228   0.3270   0.3270
     0.3312   0.3312   0.3392   0.3392   0.3495   0.3495   0.3559   0.3559
     0.3601   0.3601   0.3618   0.3672   0.3672   0.3675   0.3677   0.3677
     0.3694   0.3715   0.3867   0.3867   0.3990   0.3990   0.4049   0.4049
     0.4063   0.4063   0.4173   0.4187   0.4187   0.4227   0.4227   0.4248
     0.4248   0.4279   0.4282   0.4284   0.4284   0.4296   0.4296   0.4299
     0.4299   0.4343   0.4363   0.4385   0.4385   0.4414   0.4414   0.4454
     0.4454   0.4502   0.4539   0.4578   0.4578   0.4651   0.4660   0.4660
     0.4662   0.4663   0.4663   0.4691   0.4691   0.4691   0.4712   0.4712
     0.4771   0.4771   0.4902   0.5002   0.5002   0.5007   0.5026   0.5026
     0.5061   0.5077   0.5080   0.5127   0.5133   0.5133   0.5175   0.5175
     0.5290   0.5292   0.5292   0.5294   0.5294   0.5312   0.5423   0.5423
     0.5423   0.5423   0.7503   0.7503   0.9456   0.9457   1.1788   1.1788
     1.3450   1.3772   1.3772   1.5816   1.7747   1.7747   1.9606   1.9749
     2.1387   2.1387   2.1387   2.1387   2.2696   2.3075   2.3075   2.5612
     3.0147   3.0147   3.0738   3.0738   3.1542   3.1542   3.2208   3.2208
     3.5944   3.7266   3.7266   3.8925   4.1739   4.1739   4.6860   4.6860
     4.7125   4.7619   4.8998   4.8998   4.9742   4.9742   4.9834   4.9834
     5.0707   5.0707   5.0982   5.2091   5.2091   5.2815   5.2815   5.4529
     5.4529   5.7391

          k = 0.0332 0.0332 0.2327 (140797 PWs)   bands (ev):

   -81.2624 -81.2622 -81.2622 -81.2622 -81.2622 -81.2622 -81.2622 -81.2622
   -81.2622 -81.2622 -81.2622 -81.2622 -81.2622 -81.2622 -81.2622 -81.2622
   -81.2622 -81.2622 -81.2622 -81.2622 -81.2622 -81.2622 -81.2622 -81.2622
   -81.2622 -81.2622 -81.2622 -81.2622 -81.2622 -81.2622 -81.2622 -81.2621
   -47.0754 -47.0754 -47.0754 -47.0754 -47.0754 -47.0754 -47.0754 -47.0754
   -47.0754 -47.0754 -47.0754 -47.0753 -47.0753 -47.0753 -47.0753 -47.0753
   -47.0753 -47.0753 -47.0753 -47.0753 -47.0753 -47.0753 -47.0753 -47.0753
   -47.0753 -47.0753 -47.0753 -47.0753 -47.0753 -47.0753 -47.0753 -47.0753
   -47.0753 -47.0753 -47.0753 -47.0753 -47.0752 -47.0752 -47.0752 -47.0752
   -47.0752 -47.0752 -47.0752 -47.0752 -47.0752 -47.0752 -47.0752 -47.0752
   -47.0752 -47.0752 -47.0752 -47.0752 -47.0752 -47.0752 -47.0752 -47.0752
   -47.0752 -47.0752 -47.0752 -47.0752 -47.0752 -47.0752 -47.0752 -47.0752
   -47.0752 -47.0752 -47.0752 -47.0752 -47.0752 -47.0752 -47.0752 -47.0752
   -47.0752 -47.0752 -47.0752 -47.0751 -47.0751 -47.0751 -47.0751 -47.0751
   -47.0751 -47.0751 -47.0751 -47.0751 -47.0751 -47.0751 -47.0751 -47.0751
   -47.0751 -47.0751 -47.0751 -47.0751 -47.0751 -47.0751 -47.0751 -47.0751
    -0.1437   0.0491   0.1530   0.1587   0.1587   0.1598   0.1627   0.1684
     0.1695   0.1695   0.1783   0.1783   0.1799   0.1953   0.1963   0.2013
     0.2013   0.2051   0.2053   0.2053   0.2163   0.2163   0.2347   0.2347
     0.2454   0.2454   0.2462   0.2462   0.2481   0.2481   0.2565   0.2565
     0.2614   0.2614   0.2624   0.2624   0.2649   0.2649   0.2741   0.2760
     0.2760   0.2837   0.2837   0.2943   0.2966   0.2966   0.2990   0.2990
     0.3001   0.3016   0.3016   0.3025   0.3025   0.3036   0.3061   0.3061
     0.3077   0.3106   0.3108   0.3108   0.3154   0.3154   0.3177   0.3177
     0.3222   0.3222   0.3255   0.3273   0.3273   0.3278   0.3279   0.3298
     0.3298   0.3322   0.3332   0.3332   0.3368   0.3368   0.3383   0.3384
     0.3465   0.3465   0.3465   0.3465   0.3479   0.3532   0.3533   0.3536
     0.3536   0.3571   0.3617   0.3617   0.4042   0.4042   0.4045   0.4045
     0.4092   0.4117   0.4230   0.4230   0.4241   0.4241   0.4270   0.4270
     0.4322   0.4331   0.4331   0.4362   0.4362   0.4364   0.4364   0.4415
     0.4415   0.4421   0.4421   0.4433   0.4497   0.4497   0.4499   0.4568
     0.4568   0.4593   0.4612   0.4612   0.4694   0.4709   0.4709   0.4736
     0.4736   0.4810   0.4810   0.4821   0.4827   0.4853   0.4861   0.4861
     0.4867   0.4867   0.4868   0.4868   0.4871   0.4903   0.4903   0.4960
     0.4961   0.4980   0.4980   0.4989   0.5027   0.5051   0.5053   0.5053
     0.5171   0.5171   0.5173   0.5173   0.5173   0.5208   0.5423   0.5423
     0.5423   0.5423   0.8273   0.8273   1.0233   1.0233   1.0417   1.0417
     1.2400   1.2400   1.6221   1.6508   1.8420   1.8420   1.8510   2.0238
     2.0301   2.0301   2.1893   2.2347   2.3695   2.3695   2.5214   2.5214
     2.8213   2.8213   2.9179   2.9180   3.1693   3.1693   3.2047   3.2047
     3.8115   3.9725   3.9725   4.1547   4.2623   4.2623   4.3840   4.5202
     4.5202   4.5681   4.5681   4.7642   4.9391   4.9391   4.9740   4.9740
     4.9850   4.9850   5.0963   5.0964   5.1875   5.3490   5.3490   5.5477
     5.5477   5.5825

          k = 0.0332 0.0332-0.2992 (140722 PWs)   bands (ev):

   -81.2624 -81.2622 -81.2622 -81.2622 -81.2622 -81.2622 -81.2622 -81.2622
   -81.2622 -81.2622 -81.2622 -81.2622 -81.2622 -81.2622 -81.2622 -81.2622
   -81.2622 -81.2622 -81.2622 -81.2622 -81.2622 -81.2622 -81.2622 -81.2622
   -81.2622 -81.2622 -81.2622 -81.2622 -81.2622 -81.2622 -81.2622 -81.2621
   -47.0754 -47.0754 -47.0754 -47.0754 -47.0754 -47.0754 -47.0754 -47.0754
   -47.0754 -47.0754 -47.0753 -47.0753 -47.0753 -47.0753 -47.0753 -47.0753
   -47.0753 -47.0753 -47.0753 -47.0753 -47.0753 -47.0753 -47.0753 -47.0753
   -47.0753 -47.0753 -47.0753 -47.0753 -47.0753 -47.0753 -47.0753 -47.0753
   -47.0753 -47.0753 -47.0753 -47.0753 -47.0752 -47.0752 -47.0752 -47.0752
   -47.0752 -47.0752 -47.0752 -47.0752 -47.0752 -47.0752 -47.0752 -47.0752
   -47.0752 -47.0752 -47.0752 -47.0752 -47.0752 -47.0752 -47.0752 -47.0752
   -47.0752 -47.0752 -47.0752 -47.0752 -47.0752 -47.0752 -47.0752 -47.0752
   -47.0752 -47.0752 -47.0752 -47.0751 -47.0751 -47.0751 -47.0751 -47.0751
   -47.0751 -47.0751 -47.0751 -47.0751 -47.0751 -47.0751 -47.0751 -47.0751
   -47.0751 -47.0751 -47.0751 -47.0751 -47.0751 -47.0751 -47.0751 -47.0751
   -47.0751 -47.0751 -47.0751 -47.0751 -47.0751 -47.0751 -47.0751 -47.0751
    -0.0550  -0.0549   0.1690   0.1690   0.1722   0.1722   0.1784   0.1784
     0.1784   0.1784   0.1814   0.1814   0.1827   0.1827   0.1859   0.1859
     0.1859   0.1859   0.1961   0.1961   0.1961   0.1961   0.2447   0.2447
     0.2447   0.2447   0.2467   0.2467   0.2467   0.2467   0.2536   0.2536
     0.2536   0.2536   0.2643   0.2643   0.2643   0.2643   0.2851   0.2851
     0.2959   0.2959   0.2959   0.2959   0.2973   0.2973   0.2973   0.2973
     0.3008   0.3008   0.3008   0.3008   0.3015   0.3015   0.3043   0.3043
     0.3043   0.3043   0.3094   0.3094   0.3183   0.3183   0.3183   0.3183
     0.3309   0.3309   0.3309   0.3309   0.3311   0.3311   0.3311   0.3311
     0.3356   0.3356   0.3374   0.3374   0.3374   0.3374   0.3375   0.3375
     0.3375   0.3375   0.3393   0.3393   0.3396   0.3396   0.3408   0.3408
     0.3408   0.3408   0.3437   0.3438   0.4039   0.4040   0.4040   0.4040
     0.4071   0.4071   0.4234   0.4234   0.4234   0.4234   0.4328   0.4328
     0.4328   0.4328   0.4373   0.4373   0.4401   0.4401   0.4401   0.4401
     0.4529   0.4529   0.4529   0.4529   0.4647   0.4647   0.4647   0.4647
     0.4666   0.4666   0.4666   0.4666   0.4696   0.4696   0.4696   0.4696
     0.4700   0.4700   0.4797   0.4797   0.4836   0.4836   0.4842   0.4842
     0.4842   0.4842   0.4944   0.4944   0.4944   0.4944   0.4947   0.4948
     0.4949   0.4949   0.5025   0.5025   0.5025   0.5025   0.5026   0.5026
     0.5026   0.5026   0.5026   0.5026   0.5092   0.5092   0.5423   0.5423
     0.5423   0.5423   0.9246   0.9246   0.9246   0.9246   1.1218   1.1218
     1.1218   1.1218   1.7414   1.7414   1.9196   1.9196   1.9285   1.9285
     1.9286   1.9286   2.1026   2.1026   2.6008   2.6008   2.6008   2.6008
     2.7289   2.7290   2.7290   2.7290   3.1868   3.1868   3.1868   3.1869
     4.0800   4.0800   4.2562   4.2562   4.2562   4.2563   4.3783   4.3783
     4.3783   4.3783   4.4474   4.4474   4.9393   4.9393   4.9393   4.9394
     5.0164   5.0164   5.0164   5.0164   5.4516   5.4516   5.4516   5.4516
     5.6626   5.6626

          k = 0.0332 0.0997 0.0997 (140803 PWs)   bands (ev):

   -81.2624 -81.2622 -81.2622 -81.2622 -81.2622 -81.2622 -81.2622 -81.2622
   -81.2622 -81.2622 -81.2622 -81.2622 -81.2622 -81.2622 -81.2622 -81.2622
   -81.2622 -81.2622 -81.2622 -81.2622 -81.2622 -81.2622 -81.2622 -81.2622
   -81.2622 -81.2622 -81.2622 -81.2622 -81.2622 -81.2622 -81.2622 -81.2621
   -47.0754 -47.0754 -47.0754 -47.0754 -47.0754 -47.0754 -47.0754 -47.0754
   -47.0754 -47.0754 -47.0754 -47.0753 -47.0753 -47.0753 -47.0753 -47.0753
   -47.0753 -47.0753 -47.0753 -47.0753 -47.0753 -47.0753 -47.0753 -47.0753
   -47.0753 -47.0753 -47.0753 -47.0753 -47.0753 -47.0753 -47.0753 -47.0753
   -47.0753 -47.0753 -47.0753 -47.0752 -47.0752 -47.0752 -47.0752 -47.0752
   -47.0752 -47.0752 -47.0752 -47.0752 -47.0752 -47.0752 -47.0752 -47.0752
   -47.0752 -47.0752 -47.0752 -47.0752 -47.0752 -47.0752 -47.0752 -47.0752
   -47.0752 -47.0752 -47.0752 -47.0752 -47.0752 -47.0752 -47.0752 -47.0752
   -47.0752 -47.0752 -47.0752 -47.0752 -47.0752 -47.0752 -47.0752 -47.0752
   -47.0752 -47.0752 -47.0752 -47.0752 -47.0752 -47.0751 -47.0751 -47.0751
   -47.0751 -47.0751 -47.0751 -47.0751 -47.0751 -47.0751 -47.0751 -47.0751
   -47.0751 -47.0751 -47.0751 -47.0751 -47.0751 -47.0750 -47.0750 -47.0750
    -0.2353   0.1314   0.1363   0.1410   0.1410   0.1501   0.1516   0.1516
     0.1568   0.1568   0.1615   0.2084   0.2084   0.2210   0.2294   0.2294
     0.2309   0.2336   0.2336   0.2371   0.2371   0.2401   0.2438   0.2438
     0.2449   0.2449   0.2450   0.2450   0.2499   0.2499   0.2522   0.2522
     0.2522   0.2522   0.2530   0.2530   0.2560   0.2648   0.2669   0.2669
     0.2682   0.2744   0.2744   0.2757   0.2757   0.2885   0.2885   0.2930
     0.2953   0.2953   0.2967   0.2967   0.2989   0.2989   0.3034   0.3034
     0.3060   0.3060   0.3061   0.3072   0.3072   0.3088   0.3121   0.3138
     0.3149   0.3158   0.3180   0.3205   0.3205   0.3309   0.3322   0.3322
     0.3454   0.3454   0.3595   0.3595   0.3638   0.3638   0.3671   0.3671
     0.3711   0.3711   0.3712   0.3712   0.3734   0.3739   0.3739   0.3821
     0.3843   0.3863   0.3863   0.3864   0.3864   0.3973   0.3982   0.4038
     0.4038   0.4045   0.4067   0.4077   0.4092   0.4092   0.4105   0.4106
     0.4128   0.4128   0.4145   0.4212   0.4252   0.4300   0.4300   0.4326
     0.4326   0.4380   0.4380   0.4394   0.4394   0.4453   0.4453   0.4457
     0.4457   0.4484   0.4484   0.4527   0.4527   0.4543   0.4543   0.4579
     0.4579   0.4646   0.4649   0.4649   0.4663   0.4663   0.4718   0.4816
     0.4859   0.4859   0.5021   0.5023   0.5023   0.5060   0.5067   0.5067
     0.5071   0.5149   0.5185   0.5185   0.5190   0.5277   0.5299   0.5299
     0.5341   0.5341   0.5378   0.5378   0.5380   0.5380   0.5385   0.5385
     0.5396   0.5438   0.5438   0.7224   0.9185   1.1182   1.1182   1.1587
     1.3587   1.3587   1.5562   1.5562   1.7483   1.7483   1.9380   1.9380
     1.9565   2.1169   2.1169   2.1218   2.2868   2.3320   2.3320   2.8958
     2.8958   3.1186   3.1186   3.1277   3.1278   3.1480   3.1956   3.1956
     3.4860   3.4860   3.6980   3.8656   4.1441   4.3935   4.3935   4.8799
     4.8799   4.8867   4.8868   4.8932   4.8933   4.8982   4.8982   5.0602
     5.0651   5.0651   5.3816   5.3817   5.4482   5.4482   5.4741   5.4742
     5.5365   5.5423

          k = 0.0332 0.0997 0.1662 (140769 PWs)   bands (ev):

   -81.2624 -81.2622 -81.2622 -81.2622 -81.2622 -81.2622 -81.2622 -81.2622
   -81.2622 -81.2622 -81.2622 -81.2622 -81.2622 -81.2622 -81.2622 -81.2622
   -81.2622 -81.2622 -81.2622 -81.2622 -81.2622 -81.2622 -81.2622 -81.2622
   -81.2622 -81.2622 -81.2622 -81.2622 -81.2622 -81.2622 -81.2622 -81.2621
   -47.0755 -47.0754 -47.0754 -47.0754 -47.0754 -47.0754 -47.0754 -47.0754
   -47.0754 -47.0754 -47.0754 -47.0753 -47.0753 -47.0753 -47.0753 -47.0753
   -47.0753 -47.0753 -47.0753 -47.0753 -47.0753 -47.0753 -47.0753 -47.0753
   -47.0753 -47.0753 -47.0753 -47.0753 -47.0753 -47.0753 -47.0753 -47.0753
   -47.0753 -47.0753 -47.0752 -47.0752 -47.0752 -47.0752 -47.0752 -47.0752
   -47.0752 -47.0752 -47.0752 -47.0752 -47.0752 -47.0752 -47.0752 -47.0752
   -47.0752 -47.0752 -47.0752 -47.0752 -47.0752 -47.0752 -47.0752 -47.0752
   -47.0752 -47.0752 -47.0752 -47.0752 -47.0752 -47.0752 -47.0752 -47.0752
   -47.0752 -47.0752 -47.0752 -47.0752 -47.0752 -47.0752 -47.0752 -47.0752
   -47.0752 -47.0752 -47.0752 -47.0752 -47.0752 -47.0751 -47.0751 -47.0751
   -47.0751 -47.0751 -47.0751 -47.0751 -47.0751 -47.0751 -47.0751 -47.0751
   -47.0751 -47.0751 -47.0751 -47.0751 -47.0751 -47.0750 -47.0750 -47.0750
    -0.1896   0.1388   0.1450   0.1524   0.1538   0.1557   0.1565   0.1596
     0.1637   0.1655   0.1673   0.1740   0.1954   0.2142   0.2175   0.2177
     0.2178   0.2218   0.2241   0.2284   0.2293   0.2298   0.2322   0.2322
     0.2330   0.2394   0.2411   0.2423   0.2433   0.2450   0.2462   0.2510
     0.2519   0.2521   0.2567   0.2575   0.2615   0.2642   0.2643   0.2660
     0.2688   0.2710   0.2772   0.2827   0.2848   0.2870   0.2897   0.2913
     0.2924   0.2949   0.2951   0.2992   0.3007   0.3023   0.3027   0.3028
     0.3034   0.3049   0.3072   0.3072   0.3084   0.3088   0.3128   0.3189
     0.3190   0.3217   0.3235   0.3271   0.3278   0.3283   0.3348   0.3362
     0.3388   0.3388   0.3517   0.3518   0.3551   0.3592   0.3600   0.3613
     0.3620   0.3631   0.3646   0.3646   0.3654   0.3687   0.3724   0.3741
     0.3774   0.3787   0.3848   0.3858   0.3923   0.3927   0.3937   0.3982
     0.3989   0.4068   0.4088   0.4103   0.4111   0.4121   0.4166   0.4175
     0.4184   0.4188   0.4188   0.4196   0.4272   0.4276   0.4370   0.4388
     0.4396   0.4426   0.4429   0.4429   0.4451   0.4472   0.4492   0.4510
     0.4542   0.4561   0.4565   0.4590   0.4607   0.4608   0.4629   0.4655
     0.4693   0.4717   0.4738   0.4756   0.4788   0.4789   0.4790   0.4791
     0.4847   0.4872   0.4901   0.4902   0.4909   0.4950   0.4969   0.4973
     0.4998   0.5015   0.5110   0.5135   0.5158   0.5165   0.5166   0.5172
     0.5235   0.5268   0.5269   0.5291   0.5296   0.5314   0.5377   0.5381
     0.5383   0.5384   0.5953   0.7749   0.9716   1.0030   1.1712   1.2015
     1.3711   1.4006   1.4051   1.5963   1.6027   1.8119   1.9797   1.9814
     1.9938   2.1563   2.1586   2.2857   2.3242   2.3607   2.4815   2.5789
     2.9207   2.9451   2.9926   3.0314   3.0871   3.1188   3.1572   3.1978
     3.5474   3.6230   3.9181   4.1032   4.2033   4.4346   4.5578   4.7083
     4.7308   4.7473   4.7693   4.7717   4.7731   4.7793   4.9012   4.9234
     4.9473   4.9628   5.1153   5.2481   5.3230   5.3731   5.5413   5.5531
     5.5774   5.6582

          k = 0.0332 0.0997 0.2327 (140767 PWs)   bands (ev):

   -81.2624 -81.2622 -81.2622 -81.2622 -81.2622 -81.2622 -81.2622 -81.2622
   -81.2622 -81.2622 -81.2622 -81.2622 -81.2622 -81.2622 -81.2622 -81.2622
   -81.2622 -81.2622 -81.2622 -81.2622 -81.2622 -81.2622 -81.2622 -81.2622
   -81.2622 -81.2622 -81.2622 -81.2622 -81.2622 -81.2622 -81.2622 -81.2621
   -47.0754 -47.0754 -47.0754 -47.0754 -47.0754 -47.0754 -47.0754 -47.0754
   -47.0754 -47.0754 -47.0754 -47.0753 -47.0753 -47.0753 -47.0753 -47.0753
   -47.0753 -47.0753 -47.0753 -47.0753 -47.0753 -47.0753 -47.0753 -47.0753
   -47.0753 -47.0753 -47.0753 -47.0753 -47.0753 -47.0753 -47.0753 -47.0753
   -47.0753 -47.0752 -47.0752 -47.0752 -47.0752 -47.0752 -47.0752 -47.0752
   -47.0752 -47.0752 -47.0752 -47.0752 -47.0752 -47.0752 -47.0752 -47.0752
   -47.0752 -47.0752 -47.0752 -47.0752 -47.0752 -47.0752 -47.0752 -47.0752
   -47.0752 -47.0752 -47.0752 -47.0752 -47.0752 -47.0752 -47.0752 -47.0752
   -47.0752 -47.0752 -47.0752 -47.0752 -47.0752 -47.0752 -47.0752 -47.0752
   -47.0752 -47.0752 -47.0752 -47.0751 -47.0751 -47.0751 -47.0751 -47.0751
   -47.0751 -47.0751 -47.0751 -47.0751 -47.0751 -47.0751 -47.0751 -47.0751
   -47.0751 -47.0751 -47.0751 -47.0751 -47.0751 -47.0751 -47.0751 -47.0750
    -0.1220   0.0663   0.1515   0.1587   0.1636   0.1658   0.1682   0.1704
     0.1720   0.1739   0.1817   0.1833   0.1902   0.1917   0.1977   0.1991
     0.2018   0.2079   0.2095   0.2106   0.2191   0.2230   0.2255   0.2289
     0.2290   0.2302   0.2306   0.2384   0.2391   0.2445   0.2486   0.2487
     0.2497   0.2592   0.2607   0.2620   0.2622   0.2628   0.2716   0.2751
     0.2756   0.2760   0.2797   0.2837   0.2851   0.2894   0.2916   0.2955
     0.2958   0.2966   0.2971   0.2985   0.2997   0.3006   0.3017   0.3033
     0.3046   0.3049   0.3076   0.3114   0.3131   0.3151   0.3163   0.3256
     0.3276   0.3304   0.3307   0.3314   0.3314   0.3330   0.3348   0.3377
     0.3386   0.3415   0.3429   0.3437   0.3453   0.3462   0.3463   0.3469
     0.3520   0.3529   0.3536   0.3549   0.3563   0.3572   0.3616   0.3619
     0.3627   0.3647   0.3665   0.3807   0.3854   0.3878   0.3922   0.3932
     0.4082   0.4098   0.4124   0.4154   0.4190   0.4248   0.4252   0.4258
     0.4272   0.4317   0.4320   0.4329   0.4370   0.4370   0.4371   0.4390
     0.4394   0.4420   0.4443   0.4452   0.4470   0.4481   0.4495   0.4528
     0.4572   0.4666   0.4688   0.4690   0.4716   0.4718   0.4743   0.4747
     0.4748   0.4750   0.4764   0.4800   0.4836   0.4838   0.4841   0.4845
     0.4864   0.4874   0.4881   0.4889   0.4911   0.4921   0.4922   0.4924
     0.4932   0.4946   0.5026   0.5029   0.5040   0.5101   0.5104   0.5113
     0.5139   0.5168   0.5170   0.5172   0.5176   0.5222   0.5377   0.5379
     0.5382   0.5383   0.6664   0.8503   0.8693   1.0479   1.0640   1.2474
     1.2635   1.4613   1.4747   1.6467   1.6718   1.6804   1.8710   2.0440
     2.2072   2.2110   2.2231   2.2555   2.3319   2.3851   2.5312   2.6726
     2.7184   2.8170   2.8984   2.9554   3.0021   3.0423   3.1692   3.1922
     3.7119   3.8375   4.1783   4.2379   4.2910   4.3735   4.4051   4.4954
     4.5459   4.6664   4.6701   4.6845   4.7300   4.7838   4.8157   4.8947
     4.9033   4.9890   5.0195   5.1874   5.2156   5.2324   5.3915   5.6818
     5.7527   5.7761

          k = 0.0332 0.0997-0.2992 (140748 PWs)   bands (ev):

   -81.2624 -81.2622 -81.2622 -81.2622 -81.2622 -81.2622 -81.2622 -81.2622
   -81.2622 -81.2622 -81.2622 -81.2622 -81.2622 -81.2622 -81.2622 -81.2622
   -81.2622 -81.2622 -81.2622 -81.2622 -81.2622 -81.2622 -81.2622 -81.2622
   -81.2622 -81.2622 -81.2622 -81.2622 -81.2622 -81.2622 -81.2622 -81.2621
   -47.0754 -47.0754 -47.0754 -47.0754 -47.0754 -47.0754 -47.0754 -47.0754
   -47.0754 -47.0753 -47.0753 -47.0753 -47.0753 -47.0753 -47.0753 -47.0753
   -47.0753 -47.0753 -47.0753 -47.0753 -47.0753 -47.0753 -47.0753 -47.0753
   -47.0753 -47.0753 -47.0753 -47.0753 -47.0753 -47.0753 -47.0753 -47.0753
   -47.0753 -47.0752 -47.0752 -47.0752 -47.0752 -47.0752 -47.0752 -47.0752
   -47.0752 -47.0752 -47.0752 -47.0752 -47.0752 -47.0752 -47.0752 -47.0752
   -47.0752 -47.0752 -47.0752 -47.0752 -47.0752 -47.0752 -47.0752 -47.0752
   -47.0752 -47.0752 -47.0752 -47.0752 -47.0752 -47.0752 -47.0752 -47.0752
   -47.0752 -47.0752 -47.0752 -47.0752 -47.0752 -47.0752 -47.0752 -47.0752
   -47.0752 -47.0752 -47.0752 -47.0752 -47.0752 -47.0752 -47.0752 -47.0751
   -47.0751 -47.0751 -47.0751 -47.0751 -47.0751 -47.0751 -47.0751 -47.0751
   -47.0751 -47.0751 -47.0751 -47.0751 -47.0751 -47.0751 -47.0751 -47.0751
    -0.0348  -0.0348   0.1693   0.1693   0.1726   0.1726   0.1770   0.1770
     0.1800   0.1800   0.1868   0.1868   0.1875   0.1875   0.1883   0.1883
     0.1899   0.1899   0.1992   0.1993   0.2093   0.2093   0.2277   0.2277
     0.2316   0.2316   0.2341   0.2341   0.2347   0.2347   0.2469   0.2469
     0.2563   0.2563   0.2656   0.2656   0.2683   0.2683   0.2751   0.2751
     0.2794   0.2794   0.2809   0.2810   0.2867   0.2867   0.2874   0.2874
     0.2973   0.2973   0.2980   0.2980   0.3007   0.3007   0.3064   0.3064
     0.3090   0.3090   0.3127   0.3127   0.3177   0.3177   0.3233   0.3233
     0.3302   0.3302   0.3348   0.3348   0.3351   0.3351   0.3390   0.3390
     0.3403   0.3404   0.3413   0.3413   0.3417   0.3417   0.3429   0.3429
     0.3482   0.3482   0.3497   0.3497   0.3510   0.3510   0.3544   0.3544
     0.3562   0.3562   0.3597   0.3597   0.3858   0.3858   0.3917   0.3917
     0.4087   0.4087   0.4092   0.4092   0.4268   0.4268   0.4332   0.4332
     0.4333   0.4333   0.4371   0.4372   0.4378   0.4378   0.4433   0.4433
     0.4526   0.4526   0.4548   0.4548   0.4566   0.4566   0.4570   0.4570
     0.4590   0.4590   0.4627   0.4627   0.4658   0.4658   0.4673   0.4673
     0.4781   0.4781   0.4792   0.4792   0.4815   0.4815   0.4815   0.4815
     0.4890   0.4890   0.4901   0.4902   0.5006   0.5006   0.5006   0.5006
     0.5018   0.5018   0.5029   0.5029   0.5031   0.5031   0.5033   0.5033
     0.5049   0.5050   0.5052   0.5052   0.5129   0.5129   0.5377   0.5378
     0.5382   0.5382   0.7573   0.7573   0.9468   0.9468   1.1456   1.1456
     1.3446   1.3446   1.5670   1.5670   1.7621   1.7621   1.9426   1.9426
     2.1218   2.1218   2.2741   2.2741   2.4725   2.4725   2.6089   2.6089
     2.7272   2.7273   2.8500   2.8501   2.9971   2.9971   3.1817   3.1817
     3.9504   3.9504   4.1035   4.1035   4.4058   4.4058   4.4690   4.4690
     4.5745   4.5746   4.6471   4.6471   4.6704   4.6704   4.7482   4.7482
     4.8839   4.8839   5.1145   5.1146   5.2765   5.2765   5.6149   5.7978
     5.7979   5.8963

          k = 0.0332 0.1662 0.1662 (140731 PWs)   bands (ev):

   -81.2624 -81.2622 -81.2622 -81.2622 -81.2622 -81.2622 -81.2622 -81.2622
   -81.2622 -81.2622 -81.2622 -81.2622 -81.2622 -81.2622 -81.2622 -81.2622
   -81.2622 -81.2622 -81.2622 -81.2622 -81.2622 -81.2622 -81.2622 -81.2622
   -81.2622 -81.2622 -81.2622 -81.2622 -81.2622 -81.2622 -81.2622 -81.2621
   -47.0754 -47.0754 -47.0754 -47.0754 -47.0754 -47.0754 -47.0754 -47.0754
   -47.0754 -47.0754 -47.0754 -47.0753 -47.0753 -47.0753 -47.0753 -47.0753
   -47.0753 -47.0753 -47.0753 -47.0753 -47.0753 -47.0753 -47.0753 -47.0753
   -47.0753 -47.0753 -47.0753 -47.0753 -47.0753 -47.0753 -47.0753 -47.0753
   -47.0753 -47.0752 -47.0752 -47.0752 -47.0752 -47.0752 -47.0752 -47.0752
   -47.0752 -47.0752 -47.0752 -47.0752 -47.0752 -47.0752 -47.0752 -47.0752
   -47.0752 -47.0752 -47.0752 -47.0752 -47.0752 -47.0752 -47.0752 -47.0752
   -47.0752 -47.0752 -47.0752 -47.0752 -47.0752 -47.0752 -47.0752 -47.0752
   -47.0752 -47.0752 -47.0752 -47.0752 -47.0752 -47.0752 -47.0752 -47.0752
   -47.0751 -47.0751 -47.0751 -47.0751 -47.0751 -47.0751 -47.0751 -47.0751
   -47.0751 -47.0751 -47.0751 -47.0751 -47.0751 -47.0751 -47.0751 -47.0751
   -47.0751 -47.0751 -47.0751 -47.0751 -47.0751 -47.0751 -47.0750 -47.0750
    -0.1449   0.1440   0.1516   0.1588   0.1645   0.1645   0.1655   0.1655
     0.1741   0.1741   0.1871   0.1871   0.1881   0.2018   0.2018   0.2123
     0.2123   0.2151   0.2151   0.2174   0.2212   0.2215   0.2215   0.2221
     0.2286   0.2286   0.2336   0.2336   0.2338   0.2338   0.2401   0.2401
     0.2453   0.2453   0.2565   0.2565   0.2587   0.2587   0.2594   0.2678
     0.2678   0.2691   0.2691   0.2839   0.2839   0.2874   0.2875   0.2880
     0.2915   0.2922   0.2922   0.2960   0.2960   0.2990   0.2990   0.3013
     0.3036   0.3077   0.3077   0.3087   0.3129   0.3129   0.3135   0.3215
     0.3234   0.3274   0.3285   0.3293   0.3293   0.3371   0.3371   0.3386
     0.3484   0.3484   0.3527   0.3527   0.3566   0.3585   0.3585   0.3613
     0.3613   0.3661   0.3682   0.3682   0.3773   0.3775   0.3785   0.3785
     0.3812   0.3812   0.3830   0.3871   0.3871   0.3906   0.3950   0.3962
     0.3962   0.3975   0.4053   0.4053   0.4081   0.4081   0.4088   0.4088
     0.4131   0.4131   0.4158   0.4229   0.4263   0.4263   0.4290   0.4337
     0.4337   0.4385   0.4385   0.4526   0.4526   0.4540   0.4540   0.4644
     0.4644   0.4649   0.4649   0.4658   0.4658   0.4725   0.4725   0.4762
     0.4771   0.4771   0.4800   0.4800   0.4804   0.4827   0.4841   0.4880
     0.4880   0.4895   0.4895   0.4905   0.4905   0.4913   0.4942   0.4965
     0.4965   0.4972   0.4972   0.5029   0.5105   0.5152   0.5152   0.5166
     0.5166   0.5169   0.5223   0.5223   0.5291   0.5291   0.5298   0.5298
     0.5311   0.5311   0.5337   0.8240   0.8516   1.0224   1.2472   1.2472
     1.4219   1.4219   1.4474   1.4474   1.6598   1.8338   1.8338   1.8517
     2.1969   2.1969   2.3549   2.3549   2.3905   2.3905   2.6135   2.6135
     2.6537   2.8701   2.8702   2.9413   2.9413   3.1485   3.1485   3.1623
     3.6070   3.6070   4.1521   4.2615   4.3486   4.4419   4.4420   4.5736
     4.5736   4.5958   4.5958   4.7490   4.7490   4.7943   4.7943   4.8893
     4.9192   4.9192   5.3412   5.3412   5.3556   5.3556   5.3711   5.5576
     5.5578   5.5717

          k = 0.0332 0.1662 0.2327 (140757 PWs)   bands (ev):

   -81.2624 -81.2622 -81.2622 -81.2622 -81.2622 -81.2622 -81.2622 -81.2622
   -81.2622 -81.2622 -81.2622 -81.2622 -81.2622 -81.2622 -81.2622 -81.2622
   -81.2622 -81.2622 -81.2622 -81.2622 -81.2622 -81.2622 -81.2622 -81.2622
   -81.2622 -81.2622 -81.2622 -81.2622 -81.2622 -81.2622 -81.2622 -81.2621
   -47.0754 -47.0754 -47.0754 -47.0754 -47.0754 -47.0754 -47.0754 -47.0754
   -47.0754 -47.0754 -47.0754 -47.0754 -47.0753 -47.0753 -47.0753 -47.0753
   -47.0753 -47.0753 -47.0753 -47.0753 -47.0753 -47.0753 -47.0753 -47.0753
   -47.0753 -47.0753 -47.0753 -47.0753 -47.0753 -47.0753 -47.0753 -47.0753
   -47.0753 -47.0752 -47.0752 -47.0752 -47.0752 -47.0752 -47.0752 -47.0752
   -47.0752 -47.0752 -47.0752 -47.0752 -47.0752 -47.0752 -47.0752 -47.0752
   -47.0752 -47.0752 -47.0752 -47.0752 -47.0752 -47.0752 -47.0752 -47.0752
   -47.0752 -47.0752 -47.0752 -47.0752 -47.0752 -47.0752 -47.0752 -47.0752
   -47.0752 -47.0752 -47.0752 -47.0752 -47.0752 -47.0752 -47.0752 -47.0752
   -47.0752 -47.0752 -47.0752 -47.0751 -47.0751 -47.0751 -47.0751 -47.0751
   -47.0751 -47.0751 -47.0751 -47.0751 -47.0751 -47.0751 -47.0751 -47.0751
   -47.0751 -47.0751 -47.0751 -47.0751 -47.0751 -47.0751 -47.0750 -47.0750
    -0.0793   0.0988   0.1545   0.1629   0.1663   0.1714   0.1767   0.1808
     0.1816   0.1842   0.1884   0.1903   0.1906   0.1937   0.1985   0.2057
     0.2098   0.2116   0.2122   0.2123   0.2124   0.2138   0.2146   0.2155
     0.2162   0.2181   0.2185   0.2195   0.2250   0.2390   0.2402   0.2405
     0.2436   0.2468   0.2495   0.2495   0.2521   0.2526   0.2528   0.2626
     0.2724   0.2760   0.2779   0.2792   0.2796   0.2799   0.2831   0.2854
     0.2883   0.2889   0.2913   0.2915   0.2949   0.2950   0.2967   0.3059
     0.3088   0.3090   0.3144   0.3148   0.3156   0.3192   0.3228   0.3246
     0.3284   0.3295   0.3357   0.3360   0.3403   0.3451   0.3468   0.3481
     0.3483   0.3486   0.3507   0.3520   0.3526   0.3546   0.3559   0.3571
     0.3584   0.3616   0.3622   0.3678   0.3682   0.3693   0.3740   0.3755
     0.3758   0.3759   0.3777   0.3781   0.3864   0.3902   0.3925   0.3927
     0.3958   0.3999   0.4069   0.4071   0.4118   0.4120   0.4151   0.4187
     0.4195   0.4238   0.4252   0.4261   0.4284   0.4286   0.4289   0.4304
     0.4318   0.4341   0.4445   0.4473   0.4574   0.4590   0.4599   0.4606
     0.4617   0.4629   0.4639   0.4644   0.4668   0.4674   0.4682   0.4742
     0.4759   0.4788   0.4796   0.4825   0.4827   0.4829   0.4833   0.4871
     0.4874   0.4878   0.4928   0.4938   0.4939   0.4948   0.4995   0.4995
     0.5003   0.5009   0.5048   0.5049   0.5057   0.5099   0.5135   0.5136
     0.5143   0.5160   0.5162   0.5176   0.5181   0.5216   0.5293   0.5301
     0.5307   0.5311   0.5514   0.7259   0.8968   1.0968   1.1093   1.3105
     1.3166   1.4956   1.5173   1.5244   1.6950   1.7033   1.7218   2.0865
     2.2499   2.2962   2.3649   2.3934   2.4137   2.4347   2.5463   2.6156
     2.6629   2.7950   2.8016   2.8154   2.8506   3.0687   3.1642   3.1673
     3.6968   3.7669   4.1397   4.2819   4.3476   4.3745   4.4188   4.4334
     4.4776   4.5013   4.5957   4.6226   4.7965   4.8230   4.8499   4.8888
     5.0266   5.0711   5.1847   5.2033   5.2389   5.2394   5.3863   5.4970
     5.6178   5.7563

          k = 0.0332 0.1662-0.2992 (140772 PWs)   bands (ev):

   -81.2624 -81.2622 -81.2622 -81.2622 -81.2622 -81.2622 -81.2622 -81.2622
   -81.2622 -81.2622 -81.2622 -81.2622 -81.2622 -81.2622 -81.2622 -81.2622
   -81.2622 -81.2622 -81.2622 -81.2622 -81.2622 -81.2622 -81.2622 -81.2622
   -81.2622 -81.2622 -81.2622 -81.2622 -81.2622 -81.2622 -81.2622 -81.2621
   -47.0754 -47.0754 -47.0754 -47.0754 -47.0754 -47.0754 -47.0754 -47.0754
   -47.0754 -47.0754 -47.0754 -47.0754 -47.0754 -47.0754 -47.0754 -47.0753
   -47.0753 -47.0753 -47.0753 -47.0753 -47.0753 -47.0753 -47.0753 -47.0753
   -47.0753 -47.0753 -47.0753 -47.0753 -47.0753 -47.0753 -47.0753 -47.0753
   -47.0753 -47.0753 -47.0753 -47.0753 -47.0752 -47.0752 -47.0752 -47.0752
   -47.0752 -47.0752 -47.0752 -47.0752 -47.0752 -47.0752 -47.0752 -47.0752
   -47.0752 -47.0752 -47.0752 -47.0752 -47.0752 -47.0752 -47.0752 -47.0752
   -47.0752 -47.0752 -47.0752 -47.0752 -47.0752 -47.0752 -47.0752 -47.0752
   -47.0752 -47.0752 -47.0752 -47.0752 -47.0752 -47.0752 -47.0752 -47.0752
   -47.0752 -47.0752 -47.0752 -47.0752 -47.0752 -47.0751 -47.0751 -47.0751
   -47.0751 -47.0751 -47.0751 -47.0751 -47.0751 -47.0751 -47.0751 -47.0751
   -47.0751 -47.0751 -47.0751 -47.0751 -47.0751 -47.0751 -47.0751 -47.0751
     0.0042   0.0042   0.1701   0.1701   0.1781   0.1781   0.1787   0.1787
     0.1801   0.1801   0.1928   0.1928   0.1971   0.1971   0.1991   0.1991
     0.1997   0.1997   0.2058   0.2058   0.2106   0.2106   0.2139   0.2139
     0.2161   0.2161   0.2246   0.2246   0.2256   0.2256   0.2342   0.2342
     0.2455   0.2455   0.2464   0.2464   0.2600   0.2600   0.2614   0.2614
     0.2640   0.2640   0.2711   0.2711   0.2834   0.2834   0.2864   0.2864
     0.2892   0.2892   0.2912   0.2912   0.2920   0.2920   0.3041   0.3041
     0.3091   0.3091   0.3151   0.3151   0.3184   0.3184   0.3279   0.3279
     0.3378   0.3378   0.3391   0.3391   0.3453   0.3453   0.3456   0.3456
     0.3486   0.3486   0.3511   0.3511   0.3538   0.3538   0.3568   0.3568
     0.3613   0.3613   0.3619   0.3619   0.3679   0.3679   0.3697   0.3697
     0.3726   0.3726   0.3748   0.3748   0.3790   0.3790   0.3867   0.3868
     0.3921   0.3921   0.4102   0.4102   0.4165   0.4165   0.4197   0.4197
     0.4218   0.4218   0.4395   0.4395   0.4403   0.4403   0.4412   0.4412
     0.4423   0.4423   0.4426   0.4426   0.4441   0.4441   0.4496   0.4496
     0.4580   0.4580   0.4612   0.4612   0.4625   0.4625   0.4666   0.4666
     0.4762   0.4763   0.4801   0.4801   0.4877   0.4877   0.4924   0.4924
     0.4926   0.4926   0.4963   0.4963   0.4991   0.4991   0.5036   0.5036
     0.5049   0.5049   0.5061   0.5061   0.5078   0.5078   0.5083   0.5083
     0.5088   0.5088   0.5090   0.5090   0.5128   0.5128   0.5298   0.5299
     0.5304   0.5304   0.6264   0.6264   0.9922   0.9922   1.1932   1.1933
     1.4093   1.4093   1.5900   1.5900   1.6093   1.6093   1.9877   1.9877
     2.3104   2.3104   2.3497   2.3497   2.4271   2.4271   2.6204   2.6204
     2.7165   2.7165   2.7246   2.7246   2.9565   2.9565   3.1692   3.1692
     3.8833   3.8833   4.0000   4.0000   4.3677   4.3677   4.4575   4.4575
     4.4600   4.4600   4.7120   4.7120   4.8295   4.8295   4.8558   4.8558
     4.9209   4.9209   5.1699   5.1700   5.2257   5.2258   5.5806   5.5808
     5.6972   5.6972

          k = 0.0332 0.2327 0.2327 (140755 PWs)   bands (ev):

   -81.2624 -81.2622 -81.2622 -81.2622 -81.2622 -81.2622 -81.2622 -81.2622
   -81.2622 -81.2622 -81.2622 -81.2622 -81.2622 -81.2622 -81.2622 -81.2622
   -81.2622 -81.2622 -81.2622 -81.2622 -81.2622 -81.2622 -81.2622 -81.2622
   -81.2622 -81.2622 -81.2622 -81.2622 -81.2622 -81.2622 -81.2622 -81.2621
   -47.0754 -47.0754 -47.0754 -47.0754 -47.0754 -47.0754 -47.0754 -47.0754
   -47.0754 -47.0754 -47.0754 -47.0753 -47.0753 -47.0753 -47.0753 -47.0753
   -47.0753 -47.0753 -47.0753 -47.0753 -47.0753 -47.0753 -47.0753 -47.0753
   -47.0753 -47.0753 -47.0753 -47.0753 -47.0753 -47.0753 -47.0753 -47.0753
   -47.0753 -47.0753 -47.0752 -47.0752 -47.0752 -47.0752 -47.0752 -47.0752
   -47.0752 -47.0752 -47.0752 -47.0752 -47.0752 -47.0752 -47.0752 -47.0752
   -47.0752 -47.0752 -47.0752 -47.0752 -47.0752 -47.0752 -47.0752 -47.0752
   -47.0752 -47.0752 -47.0752 -47.0752 -47.0752 -47.0752 -47.0752 -47.0752
   -47.0752 -47.0752 -47.0752 -47.0752 -47.0752 -47.0752 -47.0752 -47.0752
   -47.0751 -47.0751 -47.0751 -47.0751 -47.0751 -47.0751 -47.0751 -47.0751
   -47.0751 -47.0751 -47.0751 -47.0751 -47.0751 -47.0751 -47.0751 -47.0751
   -47.0751 -47.0751 -47.0751 -47.0751 -47.0751 -47.0751 -47.0750 -47.0750
    -0.0175   0.1416   0.1416   0.1623   0.1711   0.1712   0.1832   0.1832
     0.1922   0.1922   0.1933   0.1933   0.1958   0.1958   0.1985   0.1985
     0.1994   0.1994   0.2010   0.2010   0.2038   0.2048   0.2077   0.2182
     0.2182   0.2239   0.2241   0.2268   0.2268   0.2275   0.2275   0.2310
     0.2310   0.2324   0.2324   0.2345   0.2345   0.2515   0.2515   0.2625
     0.2625   0.2655   0.2655   0.2739   0.2739   0.2809   0.2809   0.2839
     0.2839   0.2856   0.2856   0.2890   0.2898   0.2898   0.2956   0.3052
     0.3108   0.3144   0.3144   0.3160   0.3177   0.3192   0.3192   0.3300
     0.3325   0.3355   0.3429   0.3435   0.3522   0.3522   0.3532   0.3532
     0.3560   0.3560   0.3594   0.3598   0.3598   0.3610   0.3610   0.3624
     0.3634   0.3634   0.3661   0.3668   0.3756   0.3756   0.3783   0.3787
     0.3848   0.3848   0.3893   0.3893   0.3959   0.3965   0.3965   0.3971
     0.4001   0.4001   0.4071   0.4071   0.4089   0.4094   0.4095   0.4119
     0.4119   0.4138   0.4138   0.4170   0.4170   0.4186   0.4186   0.4223
     0.4223   0.4400   0.4407   0.4418   0.4448   0.4448   0.4499   0.4527
     0.4527   0.4580   0.4580   0.4702   0.4734   0.4734   0.4781   0.4809
     0.4809   0.4819   0.4819   0.4872   0.4872   0.4887   0.4887   0.4893
     0.4909   0.4909   0.4991   0.5000   0.5000   0.5002   0.5019   0.5019
     0.5033   0.5033   0.5046   0.5063   0.5063   0.5073   0.5073   0.5131
     0.5142   0.5142   0.5144   0.5144   0.5186   0.5186   0.5187   0.5187
     0.5204   0.5204   0.5249   0.6152   0.9673   1.1693   1.1783   1.1783
     1.3808   1.3808   1.3872   1.5883   1.7652   1.7652   1.9631   1.9631
     2.3552   2.3552   2.4488   2.4488   2.4810   2.4810   2.5181   2.5181
     2.5560   2.5560   2.7616   2.7616   2.9410   3.1159   3.1159   3.1608
     3.7827   3.7827   4.1039   4.1039   4.2091   4.2091   4.2744   4.2745
     4.4310   4.6651   4.6651   4.6878   4.8065   4.8979   5.1186   5.1187
     5.1537   5.1753   5.1754   5.2931   5.2931   5.2973   5.2973   5.5128
     5.5128   5.5489

          k = 0.0332 0.2327-0.2992 (140774 PWs)   bands (ev):

   -81.2624 -81.2622 -81.2622 -81.2622 -81.2622 -81.2622 -81.2622 -81.2622
   -81.2622 -81.2622 -81.2622 -81.2622 -81.2622 -81.2622 -81.2622 -81.2622
   -81.2622 -81.2622 -81.2622 -81.2622 -81.2622 -81.2622 -81.2622 -81.2622
   -81.2622 -81.2622 -81.2622 -81.2622 -81.2622 -81.2622 -81.2622 -81.2621
   -47.0754 -47.0754 -47.0754 -47.0754 -47.0754 -47.0754 -47.0754 -47.0754
   -47.0754 -47.0754 -47.0754 -47.0753 -47.0753 -47.0753 -47.0753 -47.0753
   -47.0753 -47.0753 -47.0753 -47.0753 -47.0753 -47.0753 -47.0753 -47.0753
   -47.0753 -47.0753 -47.0753 -47.0753 -47.0753 -47.0753 -47.0753 -47.0753
   -47.0752 -47.0752 -47.0752 -47.0752 -47.0752 -47.0752 -47.0752 -47.0752
   -47.0752 -47.0752 -47.0752 -47.0752 -47.0752 -47.0752 -47.0752 -47.0752
   -47.0752 -47.0752 -47.0752 -47.0752 -47.0752 -47.0752 -47.0752 -47.0752
   -47.0752 -47.0752 -47.0752 -47.0752 -47.0752 -47.0752 -47.0752 -47.0752
   -47.0752 -47.0752 -47.0752 -47.0752 -47.0752 -47.0752 -47.0752 -47.0752
   -47.0752 -47.0751 -47.0751 -47.0751 -47.0751 -47.0751 -47.0751 -47.0751
   -47.0751 -47.0751 -47.0751 -47.0751 -47.0751 -47.0751 -47.0751 -47.0751
   -47.0751 -47.0751 -47.0751 -47.0751 -47.0751 -47.0751 -47.0751 -47.0751
     0.0592   0.0592   0.1749   0.1749   0.1802   0.1802   0.1834   0.1834
     0.1864   0.1864   0.1914   0.1914   0.1967   0.1967   0.1969   0.1969
     0.1989   0.1989   0.2024   0.2024   0.2115   0.2115   0.2121   0.2121
     0.2125   0.2125   0.2151   0.2151   0.2158   0.2158   0.2249   0.2249
     0.2389   0.2389   0.2429   0.2429   0.2442   0.2442   0.2444   0.2444
     0.2472   0.2472   0.2748   0.2748   0.2794   0.2794   0.2849   0.2849
     0.2853   0.2853   0.2860   0.2860   0.2875   0.2875   0.2911   0.2911
     0.3127   0.3127   0.3178   0.3178   0.3194   0.3194   0.3249   0.3249
     0.3410   0.3410   0.3433   0.3433   0.3517   0.3517   0.3524   0.3524
     0.3561   0.3561   0.3580   0.3580   0.3653   0.3653   0.3659   0.3659
     0.3747   0.3747   0.3752   0.3752   0.3802   0.3802   0.3823   0.3823
     0.3836   0.3836   0.3866   0.3866   0.3908   0.3908   0.3927   0.3927
     0.4036   0.4036   0.4045   0.4046   0.4068   0.4068   0.4087   0.4087
     0.4122   0.4122   0.4193   0.4193   0.4256   0.4256   0.4268   0.4268
     0.4274   0.4274   0.4291   0.4291   0.4363   0.4363   0.4489   0.4489
     0.4499   0.4499   0.4571   0.4571   0.4687   0.4687   0.4793   0.4793
     0.4796   0.4797   0.4912   0.4912   0.4934   0.4934   0.4961   0.4961
     0.4964   0.4964   0.4990   0.4990   0.5021   0.5021   0.5048   0.5048
     0.5080   0.5080   0.5087   0.5087   0.5100   0.5100   0.5112   0.5112
     0.5114   0.5114   0.5116   0.5116   0.5121   0.5121   0.5194   0.5194
     0.5209   0.5209   0.5374   0.5374   1.0615   1.0615   1.2644   1.2644
     1.2712   1.2712   1.4739   1.4739   1.8552   1.8553   2.0532   2.0532
     2.2368   2.2368   2.4301   2.4301   2.4780   2.4780   2.5416   2.5416
     2.6249   2.6250   2.6818   2.6819   3.0421   3.0422   3.1452   3.1453
     3.8985   3.8985   3.9617   3.9617   4.1464   4.1464   4.2015   4.2015
     4.5386   4.5386   4.7429   4.7429   4.9808   4.9808   5.1542   5.1546
     5.1742   5.1742   5.1959   5.1959   5.3388   5.3389   5.4608   5.4608
     5.5796   5.5799

          k = 0.0332-0.2992-0.2992 (140760 PWs)   bands (ev):

   -81.2624 -81.2622 -81.2622 -81.2622 -81.2622 -81.2622 -81.2622 -81.2622
   -81.2622 -81.2622 -81.2622 -81.2622 -81.2622 -81.2622 -81.2622 -81.2622
   -81.2622 -81.2622 -81.2622 -81.2622 -81.2622 -81.2622 -81.2622 -81.2622
   -81.2622 -81.2622 -81.2622 -81.2622 -81.2622 -81.2622 -81.2622 -81.2621
   -47.0754 -47.0754 -47.0754 -47.0754 -47.0754 -47.0754 -47.0754 -47.0754
   -47.0754 -47.0754 -47.0754 -47.0754 -47.0754 -47.0754 -47.0753 -47.0753
   -47.0753 -47.0753 -47.0753 -47.0753 -47.0753 -47.0753 -47.0753 -47.0753
   -47.0753 -47.0753 -47.0753 -47.0753 -47.0753 -47.0753 -47.0753 -47.0752
   -47.0752 -47.0752 -47.0752 -47.0752 -47.0752 -47.0752 -47.0752 -47.0752
   -47.0752 -47.0752 -47.0752 -47.0752 -47.0752 -47.0752 -47.0752 -47.0752
   -47.0752 -47.0752 -47.0752 -47.0752 -47.0752 -47.0752 -47.0752 -47.0752
   -47.0752 -47.0752 -47.0752 -47.0752 -47.0752 -47.0752 -47.0752 -47.0752
   -47.0752 -47.0752 -47.0752 -47.0752 -47.0752 -47.0752 -47.0752 -47.0752
   -47.0752 -47.0752 -47.0752 -47.0752 -47.0751 -47.0751 -47.0751 -47.0751
   -47.0751 -47.0751 -47.0751 -47.0751 -47.0751 -47.0751 -47.0751 -47.0751
   -47.0751 -47.0751 -47.0751 -47.0751 -47.0750 -47.0750 -47.0750 -47.0750
     0.1237   0.1238   0.1238   0.1238   0.1838   0.1838   0.1838   0.1838
     0.1865   0.1865   0.1865   0.1865   0.1914   0.1914   0.1914   0.1914
     0.2064   0.2064   0.2064   0.2064   0.2064   0.2064   0.2064   0.2064
     0.2266   0.2266   0.2266   0.2266   0.2266   0.2266   0.2266   0.2266
     0.2287   0.2287   0.2287   0.2287   0.2287   0.2287   0.2287   0.2287
     0.2647   0.2647   0.2648   0.2648   0.2801   0.2801   0.2801   0.2801
     0.2801   0.2801   0.2801   0.2801   0.2907   0.2907   0.2907   0.2907
     0.3166   0.3166   0.3166   0.3166   0.3213   0.3213   0.3213   0.3213
     0.3465   0.3465   0.3465   0.3465   0.3504   0.3504   0.3504   0.3504
     0.3600   0.3600   0.3600   0.3600   0.3620   0.3620   0.3620   0.3620
     0.3889   0.3889   0.3889   0.3889   0.3890   0.3890   0.3890   0.3890
     0.3979   0.3979   0.3979   0.3979   0.4017   0.4017   0.4017   0.4017
     0.4064   0.4064   0.4064   0.4064   0.4086   0.4086   0.4086   0.4086
     0.4086   0.4086   0.4086   0.4086   0.4104   0.4104   0.4104   0.4104
     0.4104   0.4104   0.4104   0.4104   0.4336   0.4336   0.4336   0.4336
     0.4597   0.4597   0.4597   0.4597   0.4855   0.4855   0.4855   0.4855
     0.4899   0.4899   0.4899   0.4899   0.4899   0.4899   0.4899   0.4899
     0.4975   0.4975   0.4975   0.4975   0.5069   0.5069   0.5069   0.5069
     0.5069   0.5069   0.5069   0.5069   0.5075   0.5075   0.5075   0.5075
     0.5126   0.5127   0.5127   0.5127   0.5127   0.5127   0.5127   0.5127
     0.5133   0.5133   0.5133   0.5133   1.1548   1.1548   1.1548   1.1548
     1.3583   1.3583   1.3583   1.3584   2.1370   2.1370   2.1370   2.1370
     2.1370   2.1370   2.1370   2.1370   2.6051   2.6052   2.6052   2.6052
     2.6052   2.6052   2.6052   2.6052   3.1044   3.1045   3.1045   3.1045
     4.0075   4.0075   4.0075   4.0075   4.0075   4.0075   4.0075   4.0075
     4.6369   4.6370   4.6370   4.6370   5.2715   5.2716   5.2717   5.2718
     5.2806   5.2806   5.2806   5.2806   5.4412   5.4412   5.4915   5.4919
     5.4921   5.4922

          k = 0.0997 0.0997 0.0997 (140770 PWs)   bands (ev):

   -81.2624 -81.2622 -81.2622 -81.2622 -81.2622 -81.2622 -81.2622 -81.2622
   -81.2622 -81.2622 -81.2622 -81.2622 -81.2622 -81.2622 -81.2622 -81.2622
   -81.2622 -81.2622 -81.2622 -81.2622 -81.2622 -81.2622 -81.2622 -81.2622
   -81.2622 -81.2622 -81.2622 -81.2622 -81.2622 -81.2622 -81.2622 -81.2621
   -47.0754 -47.0754 -47.0754 -47.0754 -47.0754 -47.0754 -47.0754 -47.0754
   -47.0754 -47.0754 -47.0754 -47.0754 -47.0753 -47.0753 -47.0753 -47.0753
   -47.0753 -47.0753 -47.0753 -47.0753 -47.0753 -47.0753 -47.0753 -47.0753
   -47.0753 -47.0753 -47.0753 -47.0753 -47.0753 -47.0753 -47.0753 -47.0753
   -47.0753 -47.0753 -47.0752 -47.0752 -47.0752 -47.0752 -47.0752 -47.0752
   -47.0752 -47.0752 -47.0752 -47.0752 -47.0752 -47.0752 -47.0752 -47.0752
   -47.0752 -47.0752 -47.0752 -47.0752 -47.0752 -47.0752 -47.0752 -47.0752
   -47.0752 -47.0752 -47.0752 -47.0752 -47.0752 -47.0752 -47.0752 -47.0752
   -47.0752 -47.0752 -47.0752 -47.0752 -47.0752 -47.0752 -47.0752 -47.0752
   -47.0752 -47.0752 -47.0752 -47.0752 -47.0752 -47.0752 -47.0752 -47.0752
   -47.0752 -47.0752 -47.0751 -47.0751 -47.0751 -47.0751 -47.0751 -47.0751
   -47.0751 -47.0751 -47.0751 -47.0751 -47.0751 -47.0751 -47.0750 -47.0750
    -0.2125   0.1316   0.1458   0.1458   0.1458   0.1528   0.1528   0.1528
     0.1648   0.1648   0.1648   0.2088   0.2088   0.2088   0.2261   0.2261
     0.2261   0.2361   0.2361   0.2361   0.2397   0.2397   0.2397   0.2397
     0.2397   0.2397   0.2405   0.2405   0.2405   0.2415   0.2415   0.2415
     0.2550   0.2550   0.2550   0.2550   0.2550   0.2550   0.2655   0.2655
     0.2655   0.2750   0.2750   0.2750   0.2750   0.2750   0.2750   0.2932
     0.2932   0.2932   0.2932   0.2932   0.2932   0.3052   0.3052   0.3052
     0.3066   0.3067   0.3067   0.3067   0.3148   0.3148   0.3164   0.3164
     0.3166   0.3166   0.3166   0.3239   0.3239   0.3239   0.3588   0.3588
     0.3588   0.3588   0.3588   0.3588   0.3603   0.3603   0.3603   0.3603
     0.3603   0.3603   0.3644   0.3644   0.3644   0.3697   0.3697   0.3697
     0.3806   0.3806   0.3807   0.3913   0.3913   0.3913   0.3983   0.3983
     0.3983   0.4134   0.4134   0.4134   0.4187   0.4187   0.4187   0.4187
     0.4187   0.4187   0.4227   0.4227   0.4227   0.4229   0.4229   0.4273
     0.4273   0.4273   0.4317   0.4317   0.4318   0.4464   0.4464   0.4464
     0.4464   0.4464   0.4464   0.4621   0.4621   0.4621   0.4690   0.4690
     0.4690   0.4690   0.4690   0.4690   0.4729   0.4729   0.4729   0.4915
     0.4915   0.4915   0.4937   0.4937   0.4937   0.5032   0.5032   0.5032
     0.5080   0.5080   0.5200   0.5200   0.5200   0.5235   0.5235   0.5235
     0.5341   0.5341   0.5341   0.5341   0.5341   0.5341   0.5372   0.5372
     0.5372   0.5674   0.5674   0.5674   1.1449   1.1449   1.1449   1.1810
     1.1810   1.1810   1.7713   1.7713   1.7713   1.7713   1.7713   1.7713
     1.7921   2.2703   2.2704   2.2704   2.3039   2.3039   2.3039   2.9081
     2.9081   2.9081   3.1036   3.1036   3.1036   3.1036   3.1036   3.1036
     3.5930   3.5931   3.5931   4.0780   4.4133   4.4133   4.4133   4.7526
     4.7526   4.7526   4.8298   4.8299   4.8299   4.8299   4.8299   4.8299
     5.2638   5.2638   5.2638   5.2638   5.2638   5.2638   5.5442   5.5442
     5.5442   5.5442

          k = 0.0997 0.0997 0.1662 (140781 PWs)   bands (ev):

   -81.2624 -81.2622 -81.2622 -81.2622 -81.2622 -81.2622 -81.2622 -81.2622
   -81.2622 -81.2622 -81.2622 -81.2622 -81.2622 -81.2622 -81.2622 -81.2622
   -81.2622 -81.2622 -81.2622 -81.2622 -81.2622 -81.2622 -81.2622 -81.2622
   -81.2622 -81.2622 -81.2622 -81.2622 -81.2622 -81.2622 -81.2622 -81.2621
   -47.0754 -47.0754 -47.0754 -47.0754 -47.0754 -47.0754 -47.0754 -47.0754
   -47.0754 -47.0754 -47.0753 -47.0753 -47.0753 -47.0753 -47.0753 -47.0753
   -47.0753 -47.0753 -47.0753 -47.0753 -47.0753 -47.0753 -47.0753 -47.0753
   -47.0753 -47.0753 -47.0753 -47.0753 -47.0753 -47.0753 -47.0753 -47.0753
   -47.0753 -47.0753 -47.0752 -47.0752 -47.0752 -47.0752 -47.0752 -47.0752
   -47.0752 -47.0752 -47.0752 -47.0752 -47.0752 -47.0752 -47.0752 -47.0752
   -47.0752 -47.0752 -47.0752 -47.0752 -47.0752 -47.0752 -47.0752 -47.0752
   -47.0752 -47.0752 -47.0752 -47.0752 -47.0752 -47.0752 -47.0752 -47.0752
   -47.0752 -47.0752 -47.0752 -47.0752 -47.0752 -47.0752 -47.0752 -47.0752
   -47.0752 -47.0752 -47.0752 -47.0752 -47.0752 -47.0752 -47.0752 -47.0752
   -47.0752 -47.0751 -47.0751 -47.0751 -47.0751 -47.0751 -47.0751 -47.0751
   -47.0751 -47.0751 -47.0751 -47.0751 -47.0751 -47.0751 -47.0750 -47.0750
    -0.1674   0.1371   0.1553   0.1553   0.1580   0.1584   0.1584   0.1593
     0.1714   0.1731   0.1772   0.1772   0.1964   0.2113   0.2113   0.2120
     0.2200   0.2200   0.2248   0.2248   0.2251   0.2268   0.2307   0.2307
     0.2312   0.2312   0.2342   0.2342   0.2364   0.2364   0.2447   0.2447
     0.2473   0.2473   0.2542   0.2542   0.2550   0.2550   0.2594   0.2594
     0.2710   0.2758   0.2758   0.2848   0.2848   0.2861   0.2861   0.2867
     0.2867   0.2956   0.2956   0.3015   0.3015   0.3015   0.3037   0.3037
     0.3040   0.3042   0.3095   0.3095   0.3136   0.3167   0.3175   0.3209
     0.3209   0.3212   0.3216   0.3306   0.3306   0.3325   0.3432   0.3432
     0.3509   0.3509   0.3520   0.3520   0.3547   0.3547   0.3552   0.3564
     0.3619   0.3620   0.3652   0.3661   0.3661   0.3684   0.3684   0.3776
     0.3776   0.3813   0.3813   0.3847   0.3921   0.3921   0.3986   0.3986
     0.4058   0.4058   0.4078   0.4078   0.4123   0.4142   0.4142   0.4187
     0.4222   0.4223   0.4262   0.4289   0.4289   0.4291   0.4291   0.4293
     0.4293   0.4367   0.4398   0.4425   0.4425   0.4475   0.4475   0.4485
     0.4491   0.4530   0.4581   0.4581   0.4625   0.4625   0.4687   0.4764
     0.4764   0.4805   0.4805   0.4822   0.4822   0.4823   0.4827   0.4827
     0.4842   0.4845   0.4845   0.4950   0.4950   0.4950   0.4950   0.4976
     0.4983   0.5011   0.5043   0.5110   0.5110   0.5151   0.5179   0.5193
     0.5193   0.5269   0.5269   0.5272   0.5272   0.5326   0.5343   0.5343
     0.5361   0.5361   0.6150   0.6150   1.0242   1.0242   1.1970   1.1970
     1.2262   1.3968   1.6197   1.6197   1.6390   1.8168   1.8168   2.0013
     2.0014   2.1738   2.1738   2.3353   2.3759   2.4922   2.4922   2.5963
     2.9315   2.9315   2.9376   2.9376   3.0502   3.0502   3.0761   3.0762
     3.5767   3.7803   3.7803   4.3250   4.4214   4.4522   4.4522   4.6489
     4.6489   4.7242   4.7243   4.7513   4.7513   4.7817   4.7991   4.7991
     4.9345   4.9345   5.1055   5.1055   5.4855   5.4856   5.5332   5.5332
     5.5554   5.6694

          k = 0.0997 0.0997 0.2327 (140756 PWs)   bands (ev):

   -81.2624 -81.2622 -81.2622 -81.2622 -81.2622 -81.2622 -81.2622 -81.2622
   -81.2622 -81.2622 -81.2622 -81.2622 -81.2622 -81.2622 -81.2622 -81.2622
   -81.2622 -81.2622 -81.2622 -81.2622 -81.2622 -81.2622 -81.2622 -81.2622
   -81.2622 -81.2622 -81.2622 -81.2622 -81.2622 -81.2622 -81.2622 -81.2621
   -47.0754 -47.0754 -47.0754 -47.0754 -47.0754 -47.0754 -47.0754 -47.0754
   -47.0754 -47.0753 -47.0753 -47.0753 -47.0753 -47.0753 -47.0753 -47.0753
   -47.0753 -47.0753 -47.0753 -47.0753 -47.0753 -47.0753 -47.0753 -47.0753
   -47.0753 -47.0753 -47.0753 -47.0753 -47.0753 -47.0753 -47.0753 -47.0753
   -47.0753 -47.0752 -47.0752 -47.0752 -47.0752 -47.0752 -47.0752 -47.0752
   -47.0752 -47.0752 -47.0752 -47.0752 -47.0752 -47.0752 -47.0752 -47.0752
   -47.0752 -47.0752 -47.0752 -47.0752 -47.0752 -47.0752 -47.0752 -47.0752
   -47.0752 -47.0752 -47.0752 -47.0752 -47.0752 -47.0752 -47.0752 -47.0752
   -47.0752 -47.0752 -47.0752 -47.0752 -47.0752 -47.0752 -47.0752 -47.0752
   -47.0752 -47.0752 -47.0752 -47.0752 -47.0751 -47.0751 -47.0751 -47.0751
   -47.0751 -47.0751 -47.0751 -47.0751 -47.0751 -47.0751 -47.0751 -47.0751
   -47.0751 -47.0751 -47.0751 -47.0751 -47.0751 -47.0751 -47.0751 -47.0751
    -0.1009   0.0814   0.1481   0.1652   0.1683   0.1683   0.1691   0.1691
     0.1758   0.1812   0.1848   0.1862   0.1934   0.1934   0.2000   0.2000
     0.2079   0.2080   0.2089   0.2120   0.2168   0.2168   0.2259   0.2259
     0.2281   0.2281   0.2301   0.2301   0.2325   0.2325   0.2330   0.2330
     0.2359   0.2359   0.2513   0.2513   0.2610   0.2610   0.2719   0.2719
     0.2768   0.2768   0.2806   0.2810   0.2810   0.2978   0.2978   0.2979
     0.2981   0.2982   0.2982   0.2983   0.3019   0.3019   0.3047   0.3047
     0.3048   0.3048   0.3126   0.3126   0.3167   0.3177   0.3182   0.3182
     0.3232   0.3292   0.3304   0.3393   0.3393   0.3399   0.3399   0.3423
     0.3423   0.3423   0.3433   0.3462   0.3462   0.3491   0.3491   0.3512
     0.3517   0.3592   0.3592   0.3629   0.3629   0.3644   0.3644   0.3702
     0.3732   0.3732   0.3762   0.3762   0.3807   0.3807   0.3826   0.3826
     0.4140   0.4182   0.4182   0.4239   0.4239   0.4241   0.4246   0.4247
     0.4266   0.4266   0.4281   0.4281   0.4310   0.4327   0.4363   0.4363
     0.4380   0.4380   0.4402   0.4402   0.4446   0.4472   0.4472   0.4565
     0.4581   0.4581   0.4605   0.4640   0.4641   0.4641   0.4681   0.4694
     0.4714   0.4714   0.4785   0.4785   0.4843   0.4843   0.4862   0.4890
     0.4940   0.4940   0.4947   0.4947   0.4947   0.4947   0.4953   0.4955
     0.4974   0.4974   0.4978   0.4978   0.5030   0.5103   0.5130   0.5155
     0.5155   0.5171   0.5171   0.5178   0.5178   0.5264   0.5345   0.5345
     0.5354   0.5354   0.6847   0.6847   0.8891   0.8891   1.2723   1.2723
     1.2951   1.4851   1.4851   1.5030   1.6711   1.8833   1.8834   2.0682
     2.0682   2.2420   2.2420   2.2760   2.3749   2.4195   2.6725   2.6725
     2.7239   2.7239   2.9605   2.9605   2.9637   2.9637   3.0404   3.0404
     3.6678   4.0217   4.0217   4.1161   4.5089   4.5089   4.5894   4.5895
     4.6006   4.6082   4.6082   4.6305   4.6305   4.6642   4.6642   4.8163
     4.8163   4.9756   4.9756   5.1820   5.2209   5.5739   5.5739   5.7677
     5.7677   5.8364

          k = 0.0997 0.0997-0.2992 (140678 PWs)   bands (ev):

   -81.2624 -81.2622 -81.2622 -81.2622 -81.2622 -81.2622 -81.2622 -81.2622
   -81.2622 -81.2622 -81.2622 -81.2622 -81.2622 -81.2622 -81.2622 -81.2622
   -81.2622 -81.2622 -81.2622 -81.2622 -81.2622 -81.2622 -81.2622 -81.2622
   -81.2622 -81.2622 -81.2622 -81.2622 -81.2622 -81.2622 -81.2622 -81.2621
   -47.0754 -47.0754 -47.0754 -47.0754 -47.0754 -47.0754 -47.0754 -47.0754
   -47.0753 -47.0753 -47.0753 -47.0753 -47.0753 -47.0753 -47.0753 -47.0753
   -47.0753 -47.0753 -47.0753 -47.0753 -47.0753 -47.0753 -47.0753 -47.0753
   -47.0753 -47.0753 -47.0753 -47.0753 -47.0753 -47.0753 -47.0753 -47.0752
   -47.0752 -47.0752 -47.0752 -47.0752 -47.0752 -47.0752 -47.0752 -47.0752
   -47.0752 -47.0752 -47.0752 -47.0752 -47.0752 -47.0752 -47.0752 -47.0752
   -47.0752 -47.0752 -47.0752 -47.0752 -47.0752 -47.0752 -47.0752 -47.0752
   -47.0752 -47.0752 -47.0752 -47.0752 -47.0752 -47.0752 -47.0752 -47.0752
   -47.0752 -47.0752 -47.0752 -47.0751 -47.0751 -47.0751 -47.0751 -47.0751
   -47.0751 -47.0751 -47.0751 -47.0751 -47.0751 -47.0751 -47.0751 -47.0751
   -47.0751 -47.0751 -47.0751 -47.0751 -47.0751 -47.0751 -47.0751 -47.0751
   -47.0751 -47.0751 -47.0751 -47.0751 -47.0751 -47.0751 -47.0751 -47.0751
    -0.0158  -0.0158   0.1646   0.1646   0.1743   0.1743   0.1824   0.1824
[...]
     1.8195   1.8196   1.8196   1.8196   2.1983   2.1983   2.1983   2.1983
     2.1983   2.1983   2.1983   2.1983   2.4927   2.4928   2.4928   2.4928
     2.4928   2.4928   2.4928   2.4928   2.8159   2.8160   2.8160   2.8160
     4.2348   4.2348   4.2348   4.2348   4.2348   4.2348   4.2348   4.2348
     4.5549   4.5549   4.5549   4.5549   4.9051   4.9051   4.9051   4.9051
     5.1265   5.1265   5.1265   5.1265   5.1265   5.1265   5.1266   5.1266
     5.8482   5.8483

          k = 0.2327 0.2327 0.2327 (140792 PWs)   bands (ev):

   -81.2624 -81.2622 -81.2622 -81.2622 -81.2622 -81.2622 -81.2622 -81.2622
   -81.2622 -81.2622 -81.2622 -81.2622 -81.2622 -81.2622 -81.2622 -81.2622
   -81.2622 -81.2622 -81.2622 -81.2622 -81.2622 -81.2622 -81.2622 -81.2622
   -81.2622 -81.2622 -81.2622 -81.2622 -81.2622 -81.2622 -81.2622 -81.2621
   -47.0754 -47.0754 -47.0754 -47.0754 -47.0754 -47.0754 -47.0754 -47.0754
   -47.0754 -47.0754 -47.0754 -47.0754 -47.0754 -47.0753 -47.0753 -47.0753
   -47.0753 -47.0753 -47.0753 -47.0753 -47.0753 -47.0753 -47.0753 -47.0753
   -47.0753 -47.0753 -47.0753 -47.0753 -47.0753 -47.0753 -47.0753 -47.0753
   -47.0753 -47.0753 -47.0752 -47.0752 -47.0752 -47.0752 -47.0752 -47.0752
   -47.0752 -47.0752 -47.0752 -47.0752 -47.0752 -47.0752 -47.0752 -47.0752
   -47.0752 -47.0752 -47.0752 -47.0752 -47.0752 -47.0752 -47.0752 -47.0752
   -47.0752 -47.0752 -47.0752 -47.0752 -47.0752 -47.0752 -47.0752 -47.0752
   -47.0752 -47.0752 -47.0752 -47.0752 -47.0752 -47.0752 -47.0752 -47.0752
   -47.0752 -47.0752 -47.0752 -47.0752 -47.0752 -47.0752 -47.0752 -47.0752
   -47.0752 -47.0752 -47.0751 -47.0751 -47.0751 -47.0751 -47.0751 -47.0751
   -47.0751 -47.0751 -47.0751 -47.0751 -47.0751 -47.0750 -47.0750 -47.0750
     0.0712   0.1504   0.1504   0.1504   0.1509   0.1650   0.1650   0.1650
     0.1824   0.1824   0.1824   0.1952   0.1952   0.1952   0.1972   0.1972
     0.1972   0.2009   0.2009   0.2009   0.2009   0.2009   0.2009   0.2043
     0.2043   0.2043   0.2063   0.2063   0.2063   0.2063   0.2063   0.2063
     0.2422   0.2422   0.2422   0.2682   0.2682   0.2682   0.2776   0.2776
     0.2776   0.2776   0.2776   0.2776   0.2934   0.2934   0.2934   0.2934
     0.2934   0.2934   0.2999   0.2999   0.2999   0.3007   0.3007   0.3007
     0.3291   0.3291   0.3312   0.3312   0.3312   0.3314   0.3314   0.3314
     0.3343   0.3343   0.3378   0.3378   0.3379   0.3416   0.3416   0.3416
     0.3616   0.3774   0.3774   0.3774   0.3796   0.3796   0.3796   0.3796
     0.3796   0.3796   0.3926   0.3926   0.3926   0.3992   0.3992   0.3992
     0.3992   0.3992   0.3992   0.4018   0.4018   0.4018   0.4065   0.4065
     0.4065   0.4127   0.4127   0.4127   0.4145   0.4145   0.4145   0.4167
     0.4167   0.4167   0.4167   0.4167   0.4167   0.4210   0.4210   0.4210
     0.4289   0.4289   0.4363   0.4363   0.4363   0.4394   0.4394   0.4394
     0.4394   0.4394   0.4394   0.4451   0.4451   0.4451   0.4458   0.4458
     0.4458   0.4498   0.4498   0.4498   0.4523   0.4523   0.4523   0.4671
     0.4671   0.5169   0.5169   0.5169   0.5203   0.5203   0.5203   0.5203
     0.5203   0.5203   0.5212   0.5212   0.5212   0.5226   0.5226   0.5226
     0.5226   0.5226   0.5226   0.5232   0.5232   0.5232   0.5232   0.5232
     0.5232   0.5283   0.5283   0.5283   0.7020   0.7020   0.7020   0.9004
     1.9017   1.9017   1.9017   2.0903   2.0903   2.0903   2.0903   2.0903
     2.0903   2.2582   2.2583   2.2583   2.4636   2.4636   2.4636   2.5993
     2.5993   2.5993   2.5994   2.5994   2.5994   2.6673   2.6673   2.6673
     4.2260   4.2260   4.2260   4.2572   4.2572   4.2572   4.6084   4.6084
     4.6084   4.6084   4.6084   4.6084   4.7882   4.7882   4.7882   4.7882
     4.7883   4.7883   4.9309   4.9309   4.9309   5.2833   5.2833   5.2833
     5.6798   6.2493

          k = 0.2327 0.2327-0.2992 (140782 PWs)   bands (ev):

   -81.2624 -81.2622 -81.2622 -81.2622 -81.2622 -81.2622 -81.2622 -81.2622
   -81.2622 -81.2622 -81.2622 -81.2622 -81.2622 -81.2622 -81.2622 -81.2622
   -81.2622 -81.2622 -81.2622 -81.2622 -81.2622 -81.2622 -81.2622 -81.2622
   -81.2622 -81.2622 -81.2622 -81.2622 -81.2622 -81.2622 -81.2622 -81.2621
   -47.0754 -47.0754 -47.0754 -47.0754 -47.0754 -47.0754 -47.0754 -47.0754
   -47.0754 -47.0754 -47.0754 -47.0754 -47.0754 -47.0754 -47.0753 -47.0753
   -47.0753 -47.0753 -47.0753 -47.0753 -47.0753 -47.0753 -47.0753 -47.0753
   -47.0753 -47.0753 -47.0753 -47.0753 -47.0753 -47.0753 -47.0753 -47.0752
   -47.0752 -47.0752 -47.0752 -47.0752 -47.0752 -47.0752 -47.0752 -47.0752
   -47.0752 -47.0752 -47.0752 -47.0752 -47.0752 -47.0752 -47.0752 -47.0752
   -47.0752 -47.0752 -47.0752 -47.0752 -47.0752 -47.0752 -47.0752 -47.0752
   -47.0752 -47.0752 -47.0752 -47.0752 -47.0752 -47.0752 -47.0752 -47.0752
   -47.0752 -47.0752 -47.0752 -47.0752 -47.0752 -47.0752 -47.0752 -47.0752
   -47.0752 -47.0752 -47.0752 -47.0752 -47.0752 -47.0752 -47.0752 -47.0752
   -47.0751 -47.0751 -47.0751 -47.0751 -47.0751 -47.0751 -47.0751 -47.0751
   -47.0751 -47.0751 -47.0751 -47.0751 -47.0751 -47.0751 -47.0751 -47.0751
     0.1137   0.1137   0.1553   0.1553   0.1569   0.1569   0.1570   0.1570
     0.1887   0.1887   0.1897   0.1897   0.1897   0.1897   0.1992   0.1992
     0.1992   0.1992   0.2006   0.2006   0.2006   0.2006   0.2010   0.2010
     0.2010   0.2010   0.2020   0.2020   0.2041   0.2041   0.2041   0.2041
     0.2540   0.2540   0.2607   0.2607   0.2607   0.2607   0.2834   0.2834
     0.2834   0.2834   0.2851   0.2851   0.2851   0.2851   0.2914   0.2914
     0.2914   0.2914   0.2988   0.2988   0.2988   0.2989   0.2995   0.2995
     0.3313   0.3313   0.3322   0.3322   0.3325   0.3325   0.3325   0.3325
     0.3331   0.3331   0.3370   0.3370   0.3388   0.3388   0.3388   0.3389
     0.3852   0.3852   0.3852   0.3852   0.3888   0.3888   0.3888   0.3888
     0.3918   0.3918   0.3949   0.3949   0.3954   0.3954   0.3954   0.3954
     0.4007   0.4007   0.4007   0.4007   0.4053   0.4053   0.4053   0.4053
     0.4063   0.4063   0.4177   0.4178   0.4178   0.4178   0.4188   0.4188
     0.4188   0.4188   0.4214   0.4214   0.4214   0.4214   0.4227   0.4227
     0.4227   0.4227   0.4284   0.4284   0.4284   0.4284   0.4311   0.4311
     0.4358   0.4358   0.4401   0.4401   0.4429   0.4429   0.4448   0.4448
     0.4448   0.4448   0.4497   0.4497   0.4497   0.4497   0.4520   0.4520
     0.4618   0.4618   0.5206   0.5206   0.5206   0.5206   0.5212   0.5212
     0.5224   0.5224   0.5224   0.5224   0.5231   0.5231   0.5231   0.5231
     0.5233   0.5233   0.5233   0.5233   0.5261   0.5261   0.5261   0.5261
     0.5268   0.5268   0.5943   0.5943   0.5943   0.5943   0.7859   0.7859
     1.9878   1.9879   1.9879   1.9879   2.1687   2.1687   2.1687   2.1688
     2.1787   2.1787   2.3469   2.3469   2.3469   2.3469   2.4766   2.4766
     2.5281   2.5281   2.5281   2.5281   2.6384   2.6384   2.6384   2.6385
     4.2065   4.2065   4.4004   4.4004   4.4004   4.4004   4.5108   4.5108
     4.5108   4.5108   4.6796   4.6796   4.6796   4.6796   4.7742   4.7742
     4.7742   4.7742   5.0319   5.0320   5.0320   5.0320   5.1070   5.1070
     5.9842   5.9842

          k = 0.2327-0.2992-0.2992 (140828 PWs)   bands (ev):

   -81.2624 -81.2622 -81.2622 -81.2622 -81.2622 -81.2622 -81.2622 -81.2622
   -81.2622 -81.2622 -81.2622 -81.2622 -81.2622 -81.2622 -81.2622 -81.2622
   -81.2622 -81.2622 -81.2622 -81.2622 -81.2622 -81.2622 -81.2622 -81.2622
   -81.2622 -81.2622 -81.2622 -81.2622 -81.2622 -81.2622 -81.2622 -81.2621
   -47.0754 -47.0754 -47.0754 -47.0754 -47.0754 -47.0754 -47.0754 -47.0754
   -47.0754 -47.0754 -47.0754 -47.0754 -47.0754 -47.0754 -47.0754 -47.0754
   -47.0754 -47.0754 -47.0753 -47.0753 -47.0753 -47.0753 -47.0753 -47.0753
   -47.0753 -47.0753 -47.0753 -47.0753 -47.0753 -47.0753 -47.0753 -47.0753
   -47.0753 -47.0753 -47.0753 -47.0753 -47.0752 -47.0752 -47.0752 -47.0752
   -47.0752 -47.0752 -47.0752 -47.0752 -47.0752 -47.0752 -47.0752 -47.0752
   -47.0752 -47.0752 -47.0752 -47.0752 -47.0752 -47.0752 -47.0752 -47.0752
   -47.0752 -47.0752 -47.0752 -47.0752 -47.0752 -47.0752 -47.0752 -47.0752
   -47.0752 -47.0752 -47.0752 -47.0752 -47.0752 -47.0752 -47.0752 -47.0752
   -47.0752 -47.0752 -47.0752 -47.0752 -47.0752 -47.0752 -47.0752 -47.0752
   -47.0751 -47.0751 -47.0751 -47.0751 -47.0751 -47.0751 -47.0751 -47.0751
   -47.0751 -47.0751 -47.0751 -47.0751 -47.0750 -47.0750 -47.0750 -47.0750
     0.1367   0.1367   0.1367   0.1367   0.1541   0.1541   0.1541   0.1541
     0.1935   0.1935   0.1935   0.1935   0.1946   0.1946   0.1946   0.1946
     0.1946   0.1946   0.1946   0.1946   0.1985   0.1986   0.1986   0.1986
     0.2017   0.2017   0.2017   0.2017   0.2017   0.2017   0.2017   0.2017
     0.2711   0.2711   0.2711   0.2711   0.2711   0.2711   0.2711   0.2711
     0.2776   0.2776   0.2776   0.2776   0.2943   0.2943   0.2943   0.2943
     0.2949   0.2949   0.2949   0.2949   0.2949   0.2949   0.2949   0.2949
     0.3324   0.3324   0.3324   0.3324   0.3346   0.3346   0.3346   0.3346
     0.3351   0.3351   0.3351   0.3351   0.3364   0.3364   0.3364   0.3364
     0.3944   0.3944   0.3944   0.3944   0.3944   0.3944   0.3944   0.3944
     0.3987   0.3987   0.3987   0.3987   0.3996   0.3996   0.3996   0.3996
     0.4092   0.4092   0.4092   0.4092   0.4092   0.4092   0.4092   0.4092
     0.4107   0.4107   0.4107   0.4107   0.4107   0.4107   0.4107   0.4107
     0.4163   0.4163   0.4163   0.4163   0.4279   0.4279   0.4279   0.4279
     0.4303   0.4304   0.4304   0.4304   0.4309   0.4309   0.4309   0.4309
     0.4318   0.4318   0.4318   0.4318   0.4318   0.4318   0.4318   0.4318
     0.4390   0.4390   0.4390   0.4390   0.4589   0.4589   0.4589   0.4589
     0.4950   0.4951   0.4951   0.4951   0.5230   0.5230   0.5230   0.5230
     0.5230   0.5230   0.5230   0.5230   0.5241   0.5241   0.5241   0.5241
     0.5246   0.5246   0.5246   0.5247   0.5256   0.5256   0.5256   0.5256
     0.5256   0.5256   0.5256   0.5256   0.6731   0.6731   0.6731   0.6731
     2.0710   2.0710   2.0710   2.0711   2.2565   2.2565   2.2565   2.2565
     2.2565   2.2565   2.2565   2.2565   2.4105   2.4105   2.4105   2.4105
     2.4105   2.4105   2.4105   2.4105   2.5831   2.5831   2.5831   2.5831
     4.4289   4.4289   4.4289   4.4289   4.4289   4.4289   4.4289   4.4289
     4.5815   4.5815   4.5815   4.5815   4.7634   4.7634   4.7634   4.7634
     4.8929   4.8929   4.8929   4.8929   4.8929   4.8929   4.8929   4.8929
     6.2791   6.2880

          k =-0.2992-0.2992-0.2992 (140936 PWs)   bands (ev):

   -81.2624 -81.2622 -81.2622 -81.2622 -81.2622 -81.2622 -81.2622 -81.2622
   -81.2622 -81.2622 -81.2622 -81.2622 -81.2622 -81.2622 -81.2622 -81.2622
   -81.2622 -81.2622 -81.2622 -81.2622 -81.2622 -81.2622 -81.2622 -81.2622
   -81.2622 -81.2622 -81.2622 -81.2622 -81.2622 -81.2622 -81.2622 -81.2621
   -47.0754 -47.0754 -47.0754 -47.0754 -47.0754 -47.0754 -47.0754 -47.0754
   -47.0754 -47.0754 -47.0754 -47.0754 -47.0754 -47.0754 -47.0754 -47.0754
   -47.0754 -47.0754 -47.0754 -47.0754 -47.0754 -47.0754 -47.0754 -47.0754
   -47.0753 -47.0753 -47.0753 -47.0753 -47.0752 -47.0752 -47.0752 -47.0752
   -47.0752 -47.0752 -47.0752 -47.0752 -47.0752 -47.0752 -47.0752 -47.0752
   -47.0752 -47.0752 -47.0752 -47.0752 -47.0752 -47.0752 -47.0752 -47.0752
   -47.0752 -47.0752 -47.0752 -47.0752 -47.0752 -47.0752 -47.0752 -47.0752
   -47.0752 -47.0752 -47.0752 -47.0752 -47.0752 -47.0752 -47.0752 -47.0752
   -47.0752 -47.0752 -47.0752 -47.0752 -47.0752 -47.0752 -47.0752 -47.0752
   -47.0752 -47.0752 -47.0752 -47.0752 -47.0752 -47.0752 -47.0752 -47.0752
   -47.0751 -47.0751 -47.0751 -47.0751 -47.0751 -47.0751 -47.0751 -47.0751
   -47.0751 -47.0751 -47.0751 -47.0751 -47.0751 -47.0751 -47.0751 -47.0751
     0.1447   0.1447   0.1447   0.1447   0.1447   0.1447   0.1447   0.1447
     0.1965   0.1965   0.1965   0.1965   0.1965   0.1965   0.1965   0.1965
     0.1965   0.1965   0.1965   0.1965   0.1965   0.1965   0.1965   0.1965
     0.1965   0.1965   0.1965   0.1965   0.1965   0.1965   0.1965   0.1965
     0.2854   0.2854   0.2855   0.2855   0.2855   0.2855   0.2855   0.2855
     0.2855   0.2855   0.2855   0.2855   0.2855   0.2855   0.2855   0.2855
     0.2855   0.2855   0.2855   0.2855   0.2855   0.2855   0.2855   0.2855
     0.3347   0.3347   0.3347   0.3347   0.3347   0.3347   0.3347   0.3347
     0.3347   0.3347   0.3347   0.3347   0.3347   0.3347   0.3347   0.3347
     0.4075   0.4075   0.4075   0.4075   0.4075   0.4075   0.4076   0.4076
     0.4076   0.4076   0.4076   0.4076   0.4076   0.4076   0.4076   0.4076
     0.4076   0.4076   0.4076   0.4076   0.4076   0.4076   0.4076   0.4076
     0.4133   0.4133   0.4133   0.4133   0.4133   0.4133   0.4133   0.4133
     0.4133   0.4133   0.4133   0.4133   0.4134   0.4134   0.4134   0.4134
     0.4134   0.4134   0.4134   0.4134   0.4134   0.4134   0.4134   0.4134
     0.4447   0.4447   0.4447   0.4447   0.4447   0.4447   0.4447   0.4447
     0.4447   0.4447   0.4447   0.4447   0.4447   0.4447   0.4448   0.4448
     0.5255   0.5255   0.5255   0.5255   0.5255   0.5255   0.5255   0.5255
     0.5255   0.5255   0.5255   0.5255   0.5255   0.5255   0.5255   0.5255
     0.5255   0.5255   0.5255   0.5255   0.5255   0.5255   0.5255   0.5255
     0.5622   0.5623   0.5623   0.5623   0.5623   0.5623   0.5623   0.5623
     2.3288   2.3290   2.3290   2.3290   2.3290   2.3290   2.3290   2.3290
     2.3290   2.3290   2.3290   2.3290   2.3290   2.3290   2.3290   2.3290
     2.3290   2.3290   2.3290   2.3290   2.3290   2.3290   2.3290   2.3291
     4.6536   4.6536   4.6536   4.6536   4.6536   4.6536   4.6536   4.6537
     4.6537   4.6537   4.6537   4.6537   4.6537   4.6537   4.6537   4.6537
     4.6537   4.6537   4.6537   4.6537   4.6537   4.6537   4.6537   4.6537
     6.5959   6.5976

     the Fermi energy is     0.8481 ev

!    total energy              =  -16376.54810160 Ry

     total all-electron energy =   -322937.401809 Ry
     estimated scf accuracy    <       0.00000061 Ry
     smearing contrib. (-TS)   =       0.77290672 Ry
     internal energy E=F+TS    =  -16377.32100832 Ry

     The total energy is F=E-TS. E is the sum of the following terms:
     one-electron contribution =   -6686.55574571 Ry
     hartree contribution      =    3410.02363714 Ry
     xc contribution           =    -983.24563815 Ry
     ewald contribution        =   -3950.92366449 Ry
     one-center paw contrib.   =   -8166.61959711 Ry

     convergence has been achieved in  28 iterations

     Forces acting on atoms (cartesian axes, Ry/au):

     atom    1 type  1   force =     0.00000000    0.00000000    0.00000000
     atom    2 type  1   force =    -0.00004801   -0.00004801   -0.00000000
     atom    3 type  1   force =    -0.00004801    0.00000000   -0.00004801
     atom    4 type  1   force =     0.00000000   -0.00004801   -0.00004801
     atom    5 type  1   force =     0.00000000    0.00000000    0.00000000
     atom    6 type  1   force =    -0.00002604   -0.00002604    0.00000000
     atom    7 type  1   force =    -0.00004801    0.00000000    0.00004801
     atom    8 type  1   force =    -0.00000000   -0.00004801    0.00004801
     atom    9 type  1   force =     0.00000000    0.00000000    0.00000000
     atom   10 type  1   force =    -0.00004801    0.00004801    0.00000000
     atom   11 type  1   force =    -0.00002604    0.00000000   -0.00002604
     atom   12 type  1   force =     0.00000000    0.00004801   -0.00004801
     atom   13 type  1   force =     0.00000000    0.00000000    0.00000000
     atom   14 type  1   force =    -0.00002604    0.00002604    0.00000000
     atom   15 type  1   force =    -0.00002604   -0.00000000    0.00002604
     atom   16 type  1   force =     0.00000000    0.00004801    0.00004801
     atom   17 type  1   force =     0.00000000    0.00000000    0.00000000
     atom   18 type  1   force =     0.00004801   -0.00004801    0.00000000
     atom   19 type  1   force =     0.00004801   -0.00000000   -0.00004801
     atom   20 type  1   force =     0.00000000   -0.00002604   -0.00002604
     atom   21 type  1   force =     0.00000000    0.00000000    0.00000000
     atom   22 type  1   force =     0.00002604   -0.00002604    0.00000000
     atom   23 type  1   force =     0.00004801    0.00000000    0.00004801
     atom   24 type  1   force =     0.00000000   -0.00002604    0.00002604
     atom   25 type  1   force =     0.00000000    0.00000000    0.00000000
     atom   26 type  1   force =     0.00004801    0.00004801    0.00000000
     atom   27 type  1   force =     0.00002604    0.00000000   -0.00002604
     atom   28 type  1   force =     0.00000000    0.00002604   -0.00002604
     atom   29 type  1   force =     0.00000000    0.00000000    0.00000000
     atom   30 type  1   force =     0.00002604    0.00002604   -0.00000000
     atom   31 type  1   force =     0.00002604    0.00000000    0.00002604
     atom   32 type  1   force =     0.00000000    0.00002604    0.00002604

     Total force =     0.000268     Total SCF correction =     0.002446
     SCF correction compared to forces is large: reduce conv_thr to get better values


     Computing stress (Cartesian axis) and pressure

          total   stress  (Ry/bohr**3)                   (kbar)     P=      -35.34
  -0.00024021   0.00000000   0.00000000          -35.34        0.00        0.00
   0.00000000  -0.00024021   0.00000000            0.00      -35.34        0.00
   0.00000000   0.00000000  -0.00024021            0.00        0.00      -35.34


     Writing output data file /scratch/trqHgbEJVIWjssSc.save/
 
     init_run     :     42.75s CPU     44.12s WALL (       1 calls)
     electrons    :   3010.00s CPU   3044.90s WALL (       1 calls)
     forces       :     14.49s CPU     14.66s WALL (       1 calls)
     stress       :    210.65s CPU    211.78s WALL (       1 calls)

     Called by init_run:
     wfcinit      :     41.14s CPU     42.35s WALL (       1 calls)
     potinit      :      0.22s CPU      0.24s WALL (       1 calls)
     hinit0       :      0.12s CPU      0.13s WALL (       1 calls)

     Called by electrons:
     c_bands      :   2653.40s CPU   2681.32s WALL (      28 calls)
     sum_band     :    348.07s CPU    353.44s WALL (      28 calls)
     v_of_rho     :      1.73s CPU      1.96s WALL (      29 calls)
     newd         :      3.24s CPU      4.46s WALL (      29 calls)
     PAW_pot      :      2.53s CPU      2.64s WALL (      29 calls)
     mix_rho      :      0.57s CPU      0.64s WALL (      28 calls)

     Called by c_bands:
     init_us_2    :     18.85s CPU     19.05s WALL (    2065 calls)
     cegterg      :   2584.72s CPU   2611.94s WALL (     980 calls)

     Called by *egterg:
     cdiaghg      :    127.77s CPU    129.10s WALL (    3194 calls)
     h_psi        :   1334.22s CPU   1350.10s WALL (    3229 calls)
     s_psi        :    137.76s CPU    138.62s WALL (    3229 calls)
     g_psi        :      5.97s CPU      6.04s WALL (    2214 calls)

     Called by h_psi:
     h_psi:calbec :    185.69s CPU    187.08s WALL (    3229 calls)
     vloc_psi     :    998.40s CPU   1011.43s WALL (    3229 calls)
     add_vuspsi   :    138.02s CPU    139.07s WALL (    3229 calls)

     General routines
     calbec       :    293.40s CPU    295.57s WALL (    4384 calls)
     fft          :      1.78s CPU      1.86s WALL (     400 calls)
     ffts         :      0.25s CPU      0.26s WALL (      57 calls)
     fftw         :   1183.44s CPU   1198.94s WALL ( 1856014 calls)
     interpolate  :      0.44s CPU      0.45s WALL (      29 calls)
 
     Parallel routines
     fft_scatt_xy :    108.39s CPU    109.39s WALL ( 1856471 calls)
     fft_scatt_yz :    745.53s CPU    757.09s WALL ( 1856471 calls)
 
     PWSCF        :  55m 0.00s CPU  55m46.83s WALL

 
   This run was terminated on:   0:50:15  27Nov2021            

=------------------------------------------------------------------------------=
   JOB DONE.
=------------------------------------------------------------------------------=
