
     Program PWSCF v.6.7MaX starts on 26Nov2021 at 20:49:35 

     This program is part of the open-source Quantum ESPRESSO suite
     for quantum simulation of materials; please cite
         "P. Giannozzi et al., J. Phys.:Condens. Matter 21 395502 (2009);
         "P. Giannozzi et al., J. Phys.:Condens. Matter 29 465901 (2017);
          URL http://www.quantum-espresso.org", 
     in publications or presentations arising from this work. More details at
     http://www.quantum-espresso.org/quote

     Parallel version (MPI & OpenMP), running on      72 processor cores
     Number of MPI processes:                72
     Threads/MPI process:                     1

     MPI processes distributed on     1 nodes
     R & G space division:  proc/nbgrp/npool/nimage =      72
     Reading input from fcc_10.in
Warning: card &CELL ignored
Warning: card CELL_DYNAMICS = 'BFGS', ignored
Warning: card CELL_FACTOR = 2.0, ignored
Warning: card PRESS = 0.0, ignored
Warning: card / ignored

     Current dimensions of program PWSCF are:
     Max number of different atomic species (ntypx) = 10
     Max number of k-points (npk) =  40000
     Max angular momentum in pseudopotentials (lmaxx) =  3
     file Pd.pbe-spn-kjpaw_psl.1.0.0.UPF: wavefunction(s)  4S 5S 4D renormalized

     Subspace diagonalization in iterative solution of the eigenvalue problem:
     one sub-group per band group will be used
     ELPA distributed-memory algorithm (size of sub-group:  8*  8 procs)

     Found symmetry operation: I + (  0.2500  0.2500  0.0000)
     This is a supercell, fractional translations are disabled
     Message from routine setup:
     using ibrav=0 with symmetry is DISCOURAGED, use correct ibrav instead
 
     Parallelization info
     --------------------
     sticks:   dense  smooth     PW     G-vecs:    dense   smooth      PW
     Min         177     116     31                15097     8092    1117
     Max         178     117     32                15106     8101    1122
     Sum       12769    8421   2241              1087183   583139   80581
 


     bravais-lattice index     =            0
     lattice parameter (alat)  =      14.4000  a.u.
     unit-cell volume          =    7218.5042 (a.u.)^3
     number of atoms/cell      =           32
     number of atomic types    =            1
     number of electrons       =       576.00
     number of Kohn-Sham states=          346
     kinetic-energy cutoff     =      71.0000  Ry
     charge density cutoff     =     430.0000  Ry
     scf convergence threshold =      1.0E-06
     mixing beta               =       0.1000
     number of iterations used =           10  TF        mixing
     Exchange-correlation= SLA  PW   PBX  PBC
                           (   1   4   3   4   0   0   0)

     celldm(1)=  14.400000  celldm(2)=   0.000000  celldm(3)=   0.000000
     celldm(4)=   0.000000  celldm(5)=   0.000000  celldm(6)=   0.000000

     crystal axes: (cart. coord. in units of alat)
               a(1) = (   1.342105   0.000000   0.000000 )  
               a(2) = (   0.000000   1.342105   0.000000 )  
               a(3) = (   0.000000   0.000000   1.342105 )  

     reciprocal axes: (cart. coord. in units 2 pi/alat)
               b(1) = (  0.745098  0.000000  0.000000 )  
               b(2) = (  0.000000  0.745098  0.000000 )  
               b(3) = (  0.000000  0.000000  0.745098 )  


     PseudoPot. # 1 for Pd read from file:
     /rds/homes/b/bxp912/pp/Pd.pbe-spn-kjpaw_psl.1.0.0.UPF
     MD5 check sum: 790f2ebce206edfd9790dcb9844eca51
     Pseudo is Projector augmented-wave + core cor, Zval = 18.0
     Generated using &quot;atomic&quot; code by A. Dal Corso  v.6.3
     Shape of augmentation charge: PSQ
     Using radial grid of 1235 points,  6 beta functions with: 
                l(1) =   0
                l(2) =   0
                l(3) =   1
                l(4) =   1
                l(5) =   2
                l(6) =   2
     Q(r) pseudized with 0 coefficients 


     atomic species   valence    mass     pseudopotential
        Pd            18.00   106.42000     Pd( 1.00)

     48 Sym. Ops., with inversion, found



   Cartesian axes

     site n.     atom                  positions (alat units)
         1           Pd  tau(   1) = (   0.0000000   0.0000000   0.0000000  )
         2           Pd  tau(   2) = (   0.3355263   0.3355263   0.0000000  )
         3           Pd  tau(   3) = (   0.3355263   0.0000000   0.3355263  )
         4           Pd  tau(   4) = (   0.0000000   0.3355263   0.3355263  )
         5           Pd  tau(   5) = (   0.0000000   0.0000000   0.6710526  )
         6           Pd  tau(   6) = (   0.3355263   0.3355263   0.6710526  )
         7           Pd  tau(   7) = (   0.3355263   0.0000000   1.0065789  )
         8           Pd  tau(   8) = (   0.0000000   0.3355263   1.0065789  )
         9           Pd  tau(   9) = (   0.0000000   0.6710526   0.0000000  )
        10           Pd  tau(  10) = (   0.3355263   1.0065789   0.0000000  )
        11           Pd  tau(  11) = (   0.3355263   0.6710526   0.3355263  )
        12           Pd  tau(  12) = (   0.0000000   1.0065789   0.3355263  )
        13           Pd  tau(  13) = (   0.0000000   0.6710526   0.6710526  )
        14           Pd  tau(  14) = (   0.3355263   1.0065789   0.6710526  )
        15           Pd  tau(  15) = (   0.3355263   0.6710526   1.0065789  )
        16           Pd  tau(  16) = (   0.0000000   1.0065789   1.0065789  )
        17           Pd  tau(  17) = (   0.6710526   0.0000000   0.0000000  )
        18           Pd  tau(  18) = (   1.0065789   0.3355263   0.0000000  )
        19           Pd  tau(  19) = (   1.0065789   0.0000000   0.3355263  )
        20           Pd  tau(  20) = (   0.6710526   0.3355263   0.3355263  )
        21           Pd  tau(  21) = (   0.6710526   0.0000000   0.6710526  )
        22           Pd  tau(  22) = (   1.0065789   0.3355263   0.6710526  )
        23           Pd  tau(  23) = (   1.0065789   0.0000000   1.0065789  )
        24           Pd  tau(  24) = (   0.6710526   0.3355263   1.0065789  )
        25           Pd  tau(  25) = (   0.6710526   0.6710526   0.0000000  )
        26           Pd  tau(  26) = (   1.0065789   1.0065789   0.0000000  )
        27           Pd  tau(  27) = (   1.0065789   0.6710526   0.3355263  )
        28           Pd  tau(  28) = (   0.6710526   1.0065789   0.3355263  )
        29           Pd  tau(  29) = (   0.6710526   0.6710526   0.6710526  )
        30           Pd  tau(  30) = (   1.0065789   1.0065789   0.6710526  )
        31           Pd  tau(  31) = (   1.0065789   0.6710526   1.0065789  )
        32           Pd  tau(  32) = (   0.6710526   1.0065789   1.0065789  )

     number of k points=    35  Marzari-Vanderbilt smearing, width (Ry)=  0.0400
                       cart. coord. in units 2pi/alat
        k(    1) = (   0.0413943   0.0413943   0.0413943), wk =   0.0219479
        k(    2) = (   0.0413943   0.0413943   0.1241830), wk =   0.0658436
        k(    3) = (   0.0413943   0.0413943   0.2069717), wk =   0.0658436
        k(    4) = (   0.0413943   0.0413943   0.2897603), wk =   0.0658436
        k(    5) = (   0.0413943   0.0413943  -0.3725490), wk =   0.0329218
        k(    6) = (   0.0413943   0.1241830   0.1241830), wk =   0.0658436
        k(    7) = (   0.0413943   0.1241830   0.2069717), wk =   0.1316872
        k(    8) = (   0.0413943   0.1241830   0.2897603), wk =   0.1316872
        k(    9) = (   0.0413943   0.1241830  -0.3725490), wk =   0.0658436
        k(   10) = (   0.0413943   0.2069717   0.2069717), wk =   0.0658436
        k(   11) = (   0.0413943   0.2069717   0.2897603), wk =   0.1316872
        k(   12) = (   0.0413943   0.2069717  -0.3725490), wk =   0.0658436
        k(   13) = (   0.0413943   0.2897603   0.2897603), wk =   0.0658436
        k(   14) = (   0.0413943   0.2897603  -0.3725490), wk =   0.0658436
        k(   15) = (   0.0413943  -0.3725490  -0.3725490), wk =   0.0164609
        k(   16) = (   0.1241830   0.1241830   0.1241830), wk =   0.0219479
        k(   17) = (   0.1241830   0.1241830   0.2069717), wk =   0.0658436
        k(   18) = (   0.1241830   0.1241830   0.2897603), wk =   0.0658436
        k(   19) = (   0.1241830   0.1241830  -0.3725490), wk =   0.0329218
        k(   20) = (   0.1241830   0.2069717   0.2069717), wk =   0.0658436
        k(   21) = (   0.1241830   0.2069717   0.2897603), wk =   0.1316872
        k(   22) = (   0.1241830   0.2069717  -0.3725490), wk =   0.0658436
        k(   23) = (   0.1241830   0.2897603   0.2897603), wk =   0.0658436
        k(   24) = (   0.1241830   0.2897603  -0.3725490), wk =   0.0658436
        k(   25) = (   0.1241830  -0.3725490  -0.3725490), wk =   0.0164609
        k(   26) = (   0.2069717   0.2069717   0.2069717), wk =   0.0219479
        k(   27) = (   0.2069717   0.2069717   0.2897603), wk =   0.0658436
        k(   28) = (   0.2069717   0.2069717  -0.3725490), wk =   0.0329218
        k(   29) = (   0.2069717   0.2897603   0.2897603), wk =   0.0658436
        k(   30) = (   0.2069717   0.2897603  -0.3725490), wk =   0.0658436
        k(   31) = (   0.2069717  -0.3725490  -0.3725490), wk =   0.0164609
        k(   32) = (   0.2897603   0.2897603   0.2897603), wk =   0.0219479
        k(   33) = (   0.2897603   0.2897603  -0.3725490), wk =   0.0329218
        k(   34) = (   0.2897603  -0.3725490  -0.3725490), wk =   0.0164609
        k(   35) = (  -0.3725490  -0.3725490  -0.3725490), wk =   0.0027435

     Dense  grid:  1087183 G-vectors     FFT dimensions: ( 128, 128, 128)

     Smooth grid:   583139 G-vectors     FFT dimensions: ( 108, 108, 108)

     Estimated max dynamical RAM per process >     277.05 MB

     Estimated total dynamical RAM >      19.48 GB

     Check: negative core charge=   -0.000001

     Initial potential from superposition of free atoms

     starting charge  575.98776, renormalised to  576.00000
     Starting wfcs are  320 randomized atomic wfcs +   26 random wfcs
     Checking if some PAW data can be deallocated... 

     total cpu time spent up to now is       28.9 secs

     Self-consistent Calculation

     iteration #  1     ecut=    71.00 Ry     beta= 0.10
     Davidson diagonalization with overlap
     ethr =  1.00E-02,  avg # of iterations =  3.6

     total cpu time spent up to now is      108.8 secs

     total energy              =  -16381.68463111 Ry
     estimated scf accuracy    <      13.53731030 Ry

     iteration #  2     ecut=    71.00 Ry     beta= 0.10
     Davidson diagonalization with overlap
     ethr =  2.35E-03,  avg # of iterations =  1.0

     total cpu time spent up to now is      162.8 secs

     total energy              =  -16378.77726207 Ry
     estimated scf accuracy    <       8.50615419 Ry

     iteration #  3     ecut=    71.00 Ry     beta= 0.10
     Davidson diagonalization with overlap
     ethr =  1.48E-03,  avg # of iterations =  2.0

     total cpu time spent up to now is      236.9 secs

     total energy              =  -16380.07878418 Ry
     estimated scf accuracy    <       0.24638425 Ry

     iteration #  4     ecut=    71.00 Ry     beta= 0.10
     Davidson diagonalization with overlap
     ethr =  4.28E-05,  avg # of iterations =  3.1

     total cpu time spent up to now is      305.4 secs

     total energy              =  -16379.98269908 Ry
     estimated scf accuracy    <       0.19673837 Ry

     iteration #  5     ecut=    71.00 Ry     beta= 0.10
     Davidson diagonalization with overlap
     ethr =  3.42E-05,  avg # of iterations =  1.0

     total cpu time spent up to now is      356.4 secs

     total energy              =  -16379.98778839 Ry
     estimated scf accuracy    <       0.05316841 Ry

     iteration #  6     ecut=    71.00 Ry     beta= 0.10
     Davidson diagonalization with overlap
     ethr =  9.23E-06,  avg # of iterations =  2.7

     total cpu time spent up to now is      419.2 secs

     total energy              =  -16379.99052874 Ry
     estimated scf accuracy    <       0.02117439 Ry

     iteration #  7     ecut=    71.00 Ry     beta= 0.10
     Davidson diagonalization with overlap
     c_bands:  1 eigenvalues not converged
     ethr =  3.68E-06,  avg # of iterations =  3.7

     total cpu time spent up to now is      495.2 secs

     total energy              =  -16379.99025496 Ry
     estimated scf accuracy    <       0.02692142 Ry

     iteration #  8     ecut=    71.00 Ry     beta= 0.10
     Davidson diagonalization with overlap
     ethr =  3.68E-06,  avg # of iterations =  1.5

     total cpu time spent up to now is      553.8 secs

     total energy              =  -16379.98922025 Ry
     estimated scf accuracy    <       0.01688889 Ry

     iteration #  9     ecut=    71.00 Ry     beta= 0.10
     Davidson diagonalization with overlap
     ethr =  2.93E-06,  avg # of iterations =  2.6

     total cpu time spent up to now is      628.3 secs

     total energy              =  -16379.99171590 Ry
     estimated scf accuracy    <       0.00135061 Ry

     iteration # 10     ecut=    71.00 Ry     beta= 0.10
     Davidson diagonalization with overlap
     ethr =  2.34E-07,  avg # of iterations =  1.1

     total cpu time spent up to now is      684.7 secs

     total energy              =  -16379.99180402 Ry
     estimated scf accuracy    <       0.00083690 Ry

     iteration # 11     ecut=    71.00 Ry     beta= 0.10
     Davidson diagonalization with overlap
     ethr =  1.45E-07,  avg # of iterations =  2.3

     total cpu time spent up to now is      761.5 secs

     total energy              =  -16379.99198496 Ry
     estimated scf accuracy    <       0.00056431 Ry

     iteration # 12     ecut=    71.00 Ry     beta= 0.10
     Davidson diagonalization with overlap
     ethr =  9.80E-08,  avg # of iterations =  1.0

     total cpu time spent up to now is      821.4 secs

     total energy              =  -16379.99202369 Ry
     estimated scf accuracy    <       0.00021464 Ry

     iteration # 13     ecut=    71.00 Ry     beta= 0.10
     Davidson diagonalization with overlap
     ethr =  3.73E-08,  avg # of iterations =  1.2

     total cpu time spent up to now is      873.2 secs

     total energy              =  -16379.99213286 Ry
     estimated scf accuracy    <       0.00004868 Ry

     iteration # 14     ecut=    71.00 Ry     beta= 0.10
     Davidson diagonalization with overlap
     ethr =  8.45E-09,  avg # of iterations =  3.1

     total cpu time spent up to now is      980.7 secs

     total energy              =  -16379.99202509 Ry
     estimated scf accuracy    <       0.00066664 Ry

     iteration # 15     ecut=    71.00 Ry     beta= 0.10
     Davidson diagonalization with overlap
     ethr =  8.45E-09,  avg # of iterations =  2.2

     total cpu time spent up to now is     1071.8 secs

     total energy              =  -16379.99205655 Ry
     estimated scf accuracy    <       0.00006495 Ry

     iteration # 16     ecut=    71.00 Ry     beta= 0.10
     Davidson diagonalization with overlap
     ethr =  8.45E-09,  avg # of iterations =  2.0

     total cpu time spent up to now is     1152.5 secs

     total energy              =  -16379.99207350 Ry
     estimated scf accuracy    <       0.00000263 Ry

     iteration # 17     ecut=    71.00 Ry     beta= 0.10
     Davidson diagonalization with overlap
     ethr =  4.57E-10,  avg # of iterations =  2.0

     total cpu time spent up to now is     1240.7 secs

     total energy              =  -16379.99207612 Ry
     estimated scf accuracy    <       0.00000345 Ry

     iteration # 18     ecut=    71.00 Ry     beta= 0.10
     Davidson diagonalization with overlap
     ethr =  4.57E-10,  avg # of iterations =  2.0

     total cpu time spent up to now is     1309.4 secs

     End of self-consistent calculation

          k = 0.0414 0.0414 0.0414 ( 72846 PWs)   bands (ev):

   -77.0737 -77.0733 -77.0733 -77.0733 -77.0732 -77.0732 -77.0732 -77.0730
   -77.0730 -77.0730 -77.0730 -77.0730 -77.0730 -77.0730 -77.0730 -77.0730
   -77.0730 -77.0730 -77.0730 -77.0730 -77.0729 -77.0729 -77.0729 -77.0727
   -77.0727 -77.0727 -77.0727 -77.0727 -77.0727 -77.0727 -77.0727 -77.0727
   -42.8334 -42.8334 -42.8334 -42.8333 -42.8326 -42.8326 -42.8326 -42.8297
   -42.8297 -42.8297 -42.8295 -42.8295 -42.8295 -42.8295 -42.8295 -42.8295
   -42.8292 -42.8292 -42.8292 -42.8291 -42.8291 -42.8291 -42.8291 -42.8291
   -42.8291 -42.8284 -42.8284 -42.8284 -42.8284 -42.8284 -42.8284 -42.8268
   -42.8267 -42.8267 -42.8259 -42.8259 -42.8259 -42.8255 -42.8255 -42.8255
   -42.8253 -42.8253 -42.8253 -42.8253 -42.8253 -42.8253 -42.8249 -42.8249
   -42.8249 -42.8248 -42.8248 -42.8248 -42.8247 -42.8247 -42.8247 -42.8247
   -42.8247 -42.8247 -42.8247 -42.8247 -42.8247 -42.8222 -42.8222 -42.8222
   -42.8222 -42.8222 -42.8222 -42.8218 -42.8218 -42.8218 -42.8217 -42.8217
   -42.8217 -42.8217 -42.8217 -42.8217 -42.8216 -42.8216 -42.8216 -42.8216
   -42.8216 -42.8216 -42.8216 -42.8216 -42.8215 -42.8215 -42.8215 -42.8215
   -42.8214 -42.8214 -42.8212 -42.8212 -42.8212 -42.8190 -42.8189 -42.8189
     2.8340   3.9762   3.9819   3.9819   3.9819   3.9965   3.9965   3.9965
     4.0460   4.0460   4.0460   4.0969   4.0969   4.0969   4.1226   4.1226
     4.1226   4.3496   4.3496   4.3496   4.3722   4.3722   4.3722   4.3722
     4.3722   4.3722   4.3995   4.3995   4.3995   4.4051   4.4051   4.4051
     4.4180   4.4180   4.4180   4.4250   4.4250   4.4250   4.4250   4.4250
     4.4251   4.5401   4.5401   4.5401   4.5401   4.5401   4.5401   4.5606
     4.5606   4.5606   4.5673   4.5673   4.5673   4.5673   4.5673   4.5673
     4.5893   4.5894   4.5894   4.6454   4.6454   4.6454   4.6454   4.6454
     4.6454   4.6660   4.6660   4.6660   4.6668   4.6706   4.6706   4.6715
     4.6715   4.6736   4.6736   4.6736   4.7394   4.7394   4.7394   4.7394
     4.7394   4.7394   4.7513   4.7514   4.7514   4.7621   4.7621   4.7621
     4.9218   4.9218   4.9218   4.9416   4.9416   4.9416   4.9446   4.9446
     4.9446   4.9482   4.9482   4.9482   4.9482   4.9482   4.9482   4.9750
     4.9750   4.9750   5.0152   5.0152   5.0152   5.0398   5.0398   5.0399
     5.0483   5.0483   5.0483   5.0641   5.0641   5.0689   5.0689   5.0689
     5.0865   5.0865   5.0865   5.0865   5.0865   5.0865   5.0870   5.0870
     5.0870   5.0870   5.0870   5.0870   5.1140   5.1140   5.1140   5.1979
     5.1979   5.1979   5.2242   5.2242   5.2242   5.2329   5.2329   5.2329
     5.3516   5.3516   5.3516   5.3516   5.3517   5.3517   5.3623   5.3623
     5.3670   5.3670   5.3670   5.4323   5.4323   5.4323   5.4388   5.4388
     5.4388   5.4388   5.4388   5.4388   5.4395   5.4395   5.4395   6.4418
     6.4418   6.4418   6.7540   6.7540   6.7540   6.7540   6.7540   6.7540
     7.0774   7.0774   7.0774   7.5444   7.8014   7.8014   7.8015   8.6258
     8.6258   8.6258   8.8774   8.8780   8.8780   8.8780  10.3760  10.3760
    10.3760  10.3761  10.3761  10.3761  10.4323  10.4323  10.4323  11.0625
    11.0625  11.0625  11.0625  11.0625  11.0625  11.4717  11.4717  11.4717
    11.4717  11.4717  11.4717  12.2789  12.2789  12.2789  12.6043  12.6043
    12.6044  12.6044

          k = 0.0414 0.0414 0.1242 ( 72898 PWs)   bands (ev):

   -77.0737 -77.0734 -77.0733 -77.0733 -77.0732 -77.0732 -77.0731 -77.0731
   -77.0731 -77.0730 -77.0730 -77.0730 -77.0730 -77.0730 -77.0730 -77.0730
   -77.0730 -77.0730 -77.0729 -77.0729 -77.0729 -77.0729 -77.0729 -77.0728
   -77.0728 -77.0728 -77.0727 -77.0727 -77.0727 -77.0727 -77.0727 -77.0727
   -42.8333 -42.8333 -42.8333 -42.8332 -42.8325 -42.8325 -42.8325 -42.8302
   -42.8300 -42.8299 -42.8298 -42.8298 -42.8298 -42.8298 -42.8297 -42.8297
   -42.8296 -42.8293 -42.8293 -42.8293 -42.8293 -42.8291 -42.8291 -42.8288
   -42.8288 -42.8286 -42.8286 -42.8283 -42.8283 -42.8279 -42.8278 -42.8278
   -42.8269 -42.8269 -42.8265 -42.8265 -42.8259 -42.8259 -42.8257 -42.8257
   -42.8255 -42.8251 -42.8251 -42.8249 -42.8249 -42.8249 -42.8249 -42.8249
   -42.8249 -42.8248 -42.8248 -42.8247 -42.8247 -42.8246 -42.8246 -42.8245
   -42.8245 -42.8244 -42.8241 -42.8241 -42.8241 -42.8227 -42.8227 -42.8223
   -42.8223 -42.8221 -42.8221 -42.8220 -42.8220 -42.8219 -42.8219 -42.8218
   -42.8218 -42.8217 -42.8217 -42.8217 -42.8217 -42.8216 -42.8215 -42.8215
   -42.8215 -42.8215 -42.8215 -42.8215 -42.8215 -42.8214 -42.8214 -42.8214
   -42.8213 -42.8212 -42.8211 -42.8210 -42.8210 -42.8193 -42.8190 -42.8190
     2.8729   3.8092   3.9850   3.9964   3.9964   4.0020   4.0207   4.0207
     4.0557   4.0610   4.0611   4.1051   4.1099   4.1099   4.1443   4.1443
     4.1763   4.3010   4.3273   4.3443   4.3443   4.3533   4.3533   4.3580
     4.3580   4.3627   4.3783   4.3783   4.3790   4.3790   4.3832   4.3832
     4.4067   4.4067   4.4121   4.4121   4.4254   4.4254   4.4429   4.4429
     4.4454   4.4454   4.4491   4.5393   4.5393   4.5407   4.5407   4.5452
     4.5452   4.5471   4.5471   4.5669   4.5669   4.5913   4.5932   4.5932
     4.6038   4.6059   4.6059   4.6373   4.6373   4.6469   4.6469   4.6581
     4.6584   4.6620   4.6620   4.6715   4.6769   4.6800   4.6807   4.6838
     4.6838   4.6862   4.6952   4.6952   4.6954   4.6954   4.7253   4.7253
     4.7439   4.7439   4.7584   4.7584   4.7982   4.7982   4.8182   4.8182
     4.8769   4.8769   4.8823   4.8907   4.9107   4.9131   4.9131   4.9133
     4.9335   4.9335   4.9383   4.9383   4.9715   4.9715   4.9716   4.9716
     4.9791   4.9791   4.9847   4.9904   4.9904   5.0233   5.0233   5.0358
     5.0358   5.0552   5.0685   5.0727   5.0727   5.0853   5.0853   5.0882
     5.0882   5.0905   5.0922   5.1061   5.1099   5.1099   5.1270   5.1270
     5.1270   5.1270   5.1351   5.1351   5.1480   5.1518   5.1518   5.1722
     5.2163   5.2163   5.2208   5.2208   5.2506   5.3182   5.3217   5.3217
     5.3355   5.3355   5.3392   5.3393   5.3462   5.3468   5.3476   5.3608
     5.3617   5.3617   5.3961   5.3961   5.4173   5.4228   5.4228   5.4230
     5.4230   5.4257   5.4387   5.4387   5.4388   5.4388   5.5068   6.1719
     6.1719   6.4621   6.4677   6.4677   6.7802   6.7802   7.1080   7.1095
     7.1095   7.2706   7.4389   7.4389   7.6109   7.6109   7.8755   8.4298
     8.6447   8.9048   8.9049   8.9496   8.9496   9.2352   9.9535   9.9535
    10.1315  10.1315  10.2721  10.2721  10.4416  10.4416  10.8166  10.8166
    10.9504  10.9747  10.9747  11.1658  11.1658  11.5742  11.5742  11.6462
    11.6682  11.6682  11.8310  11.8311  11.9841  11.9841  11.9872  11.9872
    12.3022  12.3022

          k = 0.0414 0.0414 0.2070 ( 72894 PWs)   bands (ev):

   -77.0737 -77.0735 -77.0733 -77.0733 -77.0732 -77.0732 -77.0731 -77.0731
   -77.0731 -77.0731 -77.0730 -77.0730 -77.0730 -77.0730 -77.0730 -77.0730
   -77.0730 -77.0730 -77.0729 -77.0729 -77.0729 -77.0729 -77.0729 -77.0728
   -77.0728 -77.0728 -77.0727 -77.0727 -77.0727 -77.0727 -77.0727 -77.0727
   -42.8331 -42.8329 -42.8329 -42.8327 -42.8323 -42.8323 -42.8322 -42.8308
   -42.8306 -42.8306 -42.8304 -42.8304 -42.8302 -42.8299 -42.8299 -42.8298
   -42.8298 -42.8295 -42.8295 -42.8291 -42.8291 -42.8290 -42.8290 -42.8290
   -42.8286 -42.8286 -42.8283 -42.8283 -42.8281 -42.8281 -42.8272 -42.8272
   -42.8271 -42.8271 -42.8271 -42.8271 -42.8264 -42.8264 -42.8262 -42.8262
   -42.8253 -42.8252 -42.8249 -42.8249 -42.8248 -42.8248 -42.8247 -42.8247
   -42.8246 -42.8243 -42.8243 -42.8242 -42.8242 -42.8241 -42.8241 -42.8241
   -42.8241 -42.8238 -42.8236 -42.8236 -42.8232 -42.8232 -42.8230 -42.8225
   -42.8224 -42.8224 -42.8224 -42.8223 -42.8223 -42.8222 -42.8220 -42.8220
   -42.8220 -42.8220 -42.8219 -42.8219 -42.8218 -42.8218 -42.8216 -42.8215
   -42.8215 -42.8215 -42.8215 -42.8213 -42.8213 -42.8213 -42.8213 -42.8213
   -42.8212 -42.8209 -42.8209 -42.8207 -42.8206 -42.8199 -42.8192 -42.8192
     2.9502   3.5986   4.0085   4.0253   4.0253   4.0359   4.0671   4.0671
     4.0744   4.0902   4.0902   4.1214   4.1358   4.1358   4.1804   4.1858
     4.1858   4.2420   4.2550   4.2702   4.2703   4.2872   4.2964   4.2964
     4.3372   4.3372   4.3615   4.3615   4.3747   4.3747   4.3901   4.3901
     4.4042   4.4042   4.4069   4.4069   4.4092   4.4092   4.4207   4.4207
     4.4597   4.4597   4.4969   4.5202   4.5202   4.5258   4.5258   4.5409
     4.5409   4.5410   4.5410   4.5584   4.5584   4.5982   4.6103   4.6103
     4.6113   4.6113   4.6245   4.6245   4.6298   4.6406   4.6474   4.6494
     4.6494   4.6519   4.6519   4.6552   4.6552   4.6596   4.6596   4.6690
     4.6882   4.6882   4.6927   4.6986   4.6991   4.7028   4.7028   4.7078
     4.7142   4.7142   4.8123   4.8123   4.8350   4.8438   4.8438   4.8501
     4.8521   4.8521   4.8565   4.8648   4.8773   4.8773   4.9121   4.9159
     4.9159   4.9171   4.9547   4.9585   4.9585   4.9697   4.9697   5.0067
     5.0067   5.0103   5.0104   5.0201   5.0201   5.0294   5.0294   5.0338
     5.0338   5.0380   5.0767   5.0767   5.0771   5.0817   5.0817   5.0894
     5.0894   5.1340   5.1340   5.1429   5.1479   5.1498   5.1498   5.1650
     5.1711   5.1779   5.1779   5.1890   5.1890   5.1938   5.1980   5.1980
     5.1984   5.1984   5.2644   5.2709   5.2709   5.2766   5.3056   5.3080
     5.3080   5.3104   5.3104   5.3212   5.3318   5.3318   5.3349   5.3434
     5.3434   5.3440   5.3881   5.3924   5.3924   5.3928   5.3928   5.3996
     5.4386   5.4386   5.4387   5.4388   5.4707   5.4707   5.8745   5.9411
     5.9411   6.2156   6.2156   6.5053   6.8344   6.8344   7.0292   7.1699
     7.3918   7.3918   7.5070   7.5070   7.7341   7.8378   7.8378   7.8765
     8.9642   9.0873   9.0873   9.3004   9.3004   9.4392   9.4392   9.6518
     9.7047   9.7047  10.0564  10.0564  10.4604  10.4604  10.6658  10.6658
    11.0050  11.0050  11.0320  11.2748  11.2748  11.3793  11.3793  11.6435
    11.6807  11.6807  11.7189  11.7189  11.7320  11.8724  11.8724  12.0317
    12.0317  12.4074

          k = 0.0414 0.0414 0.2898 ( 72923 PWs)   bands (ev):

   -77.0737 -77.0735 -77.0732 -77.0732 -77.0732 -77.0732 -77.0732 -77.0732
   -77.0731 -77.0731 -77.0730 -77.0730 -77.0730 -77.0730 -77.0730 -77.0730
   -77.0730 -77.0729 -77.0729 -77.0729 -77.0729 -77.0728 -77.0728 -77.0728
   -77.0728 -77.0728 -77.0728 -77.0728 -77.0727 -77.0727 -77.0727 -77.0727
   -42.8326 -42.8324 -42.8324 -42.8322 -42.8319 -42.8319 -42.8316 -42.8314
   -42.8313 -42.8313 -42.8310 -42.8310 -42.8309 -42.8300 -42.8300 -42.8299
   -42.8297 -42.8297 -42.8296 -42.8296 -42.8293 -42.8293 -42.8286 -42.8286
   -42.8284 -42.8284 -42.8279 -42.8279 -42.8278 -42.8278 -42.8277 -42.8277
   -42.8276 -42.8276 -42.8270 -42.8270 -42.8267 -42.8267 -42.8265 -42.8265
   -42.8255 -42.8255 -42.8249 -42.8249 -42.8248 -42.8248 -42.8244 -42.8243
   -42.8240 -42.8238 -42.8238 -42.8237 -42.8237 -42.8237 -42.8236 -42.8236
   -42.8236 -42.8236 -42.8236 -42.8232 -42.8231 -42.8231 -42.8229 -42.8229
   -42.8228 -42.8228 -42.8228 -42.8228 -42.8227 -42.8225 -42.8224 -42.8222
   -42.8222 -42.8221 -42.8220 -42.8217 -42.8217 -42.8217 -42.8216 -42.8215
   -42.8215 -42.8215 -42.8215 -42.8214 -42.8214 -42.8213 -42.8213 -42.8211
   -42.8211 -42.8209 -42.8209 -42.8205 -42.8202 -42.8202 -42.8195 -42.8195
     3.0648   3.3950   4.0466   4.0681   4.0681   4.0829   4.1002   4.1311
     4.1311   4.1315   4.1315   4.1452   4.1600   4.1645   4.1747   4.1747
     4.1922   4.1922   4.2112   4.2129   4.2393   4.2393   4.2425   4.2425
     4.2777   4.2777   4.2884   4.2884   4.3654   4.3654   4.4001   4.4001
     4.4007   4.4007   4.4083   4.4084   4.4323   4.4323   4.4413   4.4413
     4.4701   4.4701   4.4790   4.4790   4.4973   4.4973   4.5387   4.5387
     4.5413   4.5428   4.5428   4.5505   4.5505   4.5976   4.5976   4.6087
     4.6133   4.6133   4.6144   4.6226   4.6226   4.6234   4.6234   4.6348
     4.6449   4.6460   4.6460   4.6524   4.6524   4.6636   4.6641   4.6641
     4.6671   4.6671   4.7048   4.7048   4.7173   4.7262   4.7264   4.7304
     4.7304   4.7377   4.7591   4.7591   4.7745   4.7745   4.7899   4.8049
     4.8058   4.8063   4.8063   4.8181   4.9636   4.9665   4.9665   4.9681
     4.9681   4.9986   4.9986   5.0117   5.0119   5.0119   5.0146   5.0242
     5.0242   5.0314   5.0314   5.0315   5.0371   5.0371   5.0460   5.0460
     5.0589   5.0589   5.0738   5.0738   5.0870   5.0870   5.0898   5.1038
     5.1038   5.1130   5.1130   5.1257   5.1722   5.1722   5.1931   5.1953
     5.1969   5.1969   5.1999   5.1999   5.2274   5.2274   5.2285   5.2285
     5.2318   5.2325   5.2360   5.2401   5.2452   5.2452   5.2491   5.2491
     5.2865   5.2867   5.2867   5.3024   5.3138   5.3138   5.3157   5.3174
     5.3462   5.3507   5.3507   5.3508   5.3508   5.3649   5.4311   5.4311
     5.4386   5.4387   5.4387   5.4387   5.6250   5.6250   5.7445   5.7445
     5.9940   5.9940   6.3101   6.5767   6.8329   6.9196   6.9196   7.1974
     7.1974   7.2648   7.3230   7.5538   7.9440   7.9440   8.2717   8.2717
     8.9186   8.9186   9.2205   9.2205   9.2813   9.2813   9.4052   9.7572
     9.7572   9.7869   9.7869  10.1144  10.4503  10.4891  10.4891  10.5831
    10.5831  10.8019  10.8019  11.1173  11.1173  11.1579  11.4132  11.4132
    11.4836  11.4836  11.7928  11.7928  11.8076  11.8076  12.0595  12.0595
    12.1672  12.1672

          k = 0.0414 0.0414-0.3725 ( 72896 PWs)   bands (ev):

   -77.0736 -77.0736 -77.0732 -77.0732 -77.0732 -77.0732 -77.0731 -77.0731
   -77.0731 -77.0731 -77.0730 -77.0730 -77.0730 -77.0730 -77.0730 -77.0730
   -77.0730 -77.0729 -77.0729 -77.0729 -77.0728 -77.0728 -77.0728 -77.0728
   -77.0728 -77.0728 -77.0728 -77.0728 -77.0727 -77.0727 -77.0727 -77.0727
   -42.8320 -42.8320 -42.8319 -42.8319 -42.8318 -42.8318 -42.8315 -42.8315
   -42.8315 -42.8315 -42.8315 -42.8315 -42.8309 -42.8309 -42.8298 -42.8298
   -42.8298 -42.8298 -42.8295 -42.8295 -42.8295 -42.8295 -42.8281 -42.8281
   -42.8281 -42.8281 -42.8280 -42.8280 -42.8280 -42.8280 -42.8274 -42.8274
   -42.8274 -42.8274 -42.8273 -42.8273 -42.8273 -42.8273 -42.8260 -42.8260
   -42.8260 -42.8260 -42.8249 -42.8249 -42.8249 -42.8249 -42.8240 -42.8240
   -42.8240 -42.8240 -42.8233 -42.8233 -42.8233 -42.8233 -42.8233 -42.8233
   -42.8233 -42.8233 -42.8233 -42.8233 -42.8231 -42.8231 -42.8231 -42.8231
   -42.8230 -42.8230 -42.8230 -42.8230 -42.8226 -42.8226 -42.8226 -42.8226
   -42.8226 -42.8226 -42.8217 -42.8217 -42.8215 -42.8215 -42.8215 -42.8215
   -42.8215 -42.8215 -42.8215 -42.8215 -42.8213 -42.8213 -42.8211 -42.8211
   -42.8210 -42.8210 -42.8210 -42.8210 -42.8198 -42.8198 -42.8198 -42.8198
     3.2144   3.2144   4.0988   4.0988   4.1241   4.1241   4.1241   4.1241
     4.1304   4.1304   4.1420   4.1420   4.1760   4.1760   4.1824   4.1824
     4.1824   4.1824   4.2050   4.2050   4.2050   4.2050   4.2259   4.2259
     4.2259   4.2259   4.3065   4.3065   4.3065   4.3065   4.4066   4.4066
     4.4066   4.4066   4.4350   4.4350   4.4350   4.4350   4.4600   4.4600
     4.4600   4.4600   4.4675   4.4675   4.4675   4.4675   4.5354   4.5354
     4.5354   4.5354   4.5713   4.5713   4.5713   4.5713   4.5809   4.5809
     4.6110   4.6110   4.6110   4.6110   4.6215   4.6215   4.6352   4.6352
     4.6352   4.6352   4.6555   4.6555   4.6560   4.6560   4.6560   4.6560
     4.7105   4.7105   4.7105   4.7105   4.7215   4.7215   4.7215   4.7215
     4.7500   4.7500   4.7621   4.7621   4.7621   4.7621   4.7655   4.7655
     4.7655   4.7655   4.7750   4.7750   4.9672   4.9672   4.9672   4.9672
     4.9877   4.9877   5.0287   5.0287   5.0287   5.0287   5.0595   5.0595
     5.0595   5.0595   5.0777   5.0777   5.0777   5.0777   5.0816   5.0816
     5.0816   5.0816   5.1062   5.1062   5.1074   5.1074   5.1116   5.1116
     5.1116   5.1116   5.1175   5.1175   5.1175   5.1175   5.1394   5.1394
     5.1394   5.1394   5.1419   5.1419   5.2439   5.2439   5.2440   5.2440
     5.2440   5.2440   5.2747   5.2747   5.2747   5.2747   5.2822   5.2822
     5.2823   5.2823   5.2937   5.2937   5.3004   5.3004   5.3004   5.3004
     5.3015   5.3015   5.3015   5.3015   5.3306   5.3306   5.4386   5.4386
     5.4387   5.4387   5.5761   5.5761   5.5761   5.5761   5.7985   5.7985
     5.7985   5.7985   6.6835   6.6835   6.7967   6.7967   7.0397   7.0397
     7.0397   7.0397   7.3933   7.3933   8.4166   8.4166   8.4166   8.4166
     8.7357   8.7357   8.7357   8.7357   9.5196   9.5196   9.5196   9.5196
     9.9059   9.9059  10.2598  10.2598  10.2598  10.2598  10.5287  10.5287
    10.5287  10.5287  10.6176  10.6176  11.2810  11.2810  11.2810  11.2810
    11.5861  11.5861  11.5861  11.5861  11.9679  11.9679  11.9679  11.9679
    12.2576  12.2576

          k = 0.0414 0.1242 0.1242 ( 72913 PWs)   bands (ev):

   -77.0737 -77.0734 -77.0734 -77.0733 -77.0732 -77.0731 -77.0731 -77.0731
   -77.0731 -77.0731 -77.0730 -77.0730 -77.0730 -77.0730 -77.0730 -77.0730
   -77.0730 -77.0730 -77.0729 -77.0729 -77.0729 -77.0729 -77.0729 -77.0728
   -77.0728 -77.0728 -77.0728 -77.0728 -77.0727 -77.0727 -77.0727 -77.0727
   -42.8333 -42.8332 -42.8331 -42.8329 -42.8324 -42.8324 -42.8324 -42.8303
   -42.8303 -42.8302 -42.8302 -42.8299 -42.8299 -42.8298 -42.8297 -42.8297
   -42.8297 -42.8297 -42.8296 -42.8296 -42.8293 -42.8293 -42.8292 -42.8292
   -42.8283 -42.8282 -42.8282 -42.8280 -42.8280 -42.8279 -42.8279 -42.8277
   -42.8277 -42.8271 -42.8271 -42.8260 -42.8260 -42.8260 -42.8255 -42.8255
   -42.8253 -42.8252 -42.8252 -42.8250 -42.8250 -42.8248 -42.8248 -42.8248
   -42.8247 -42.8247 -42.8246 -42.8246 -42.8245 -42.8245 -42.8244 -42.8244
   -42.8244 -42.8244 -42.8238 -42.8238 -42.8236 -42.8228 -42.8228 -42.8226
   -42.8226 -42.8224 -42.8222 -42.8221 -42.8221 -42.8221 -42.8221 -42.8221
   -42.8219 -42.8219 -42.8218 -42.8218 -42.8217 -42.8217 -42.8216 -42.8216
   -42.8216 -42.8216 -42.8215 -42.8214 -42.8213 -42.8213 -42.8212 -42.8212
   -42.8210 -42.8210 -42.8209 -42.8209 -42.8207 -42.8196 -42.8191 -42.8190
     2.9115   3.8367   3.8367   3.9876   4.0050   4.0214   4.0214   4.0402
     4.0708   4.0708   4.0729   4.1180   4.1180   4.1255   4.1595   4.1960
     4.1960   4.2988   4.2988   4.3105   4.3105   4.3181   4.3397   4.3397
     4.3434   4.3434   4.3563   4.3563   4.3712   4.3712   4.3719   4.3791
     4.3791   4.3855   4.3898   4.3898   4.4182   4.4488   4.4488   4.4551
     4.4551   4.4582   4.4582   4.4606   4.4606   4.5306   4.5306   4.5434
     4.5434   4.5445   4.5748   4.5748   4.5859   4.5859   4.5986   4.5986
     4.6084   4.6084   4.6388   4.6395   4.6395   4.6491   4.6491   4.6492
     4.6492   4.6551   4.6608   4.6738   4.6833   4.6840   4.6892   4.6927
     4.7000   4.7000   4.7201   4.7417   4.7418   4.7423   4.7423   4.7569
     4.7569   4.7611   4.7611   4.7671   4.7834   4.7834   4.7958   4.7958
     4.8455   4.8455   4.8466   4.8905   4.8905   4.9013   4.9106   4.9108
     4.9108   4.9338   4.9338   4.9397   4.9397   4.9475   4.9544   4.9545
     4.9819   4.9862   5.0042   5.0169   5.0169   5.0272   5.0272   5.0329
     5.0329   5.0531   5.0668   5.0749   5.0749   5.0844   5.0844   5.1020
     5.1021   5.1063   5.1063   5.1143   5.1143   5.1257   5.1257   5.1283
     5.1283   5.1731   5.1731   5.1784   5.1827   5.1827   5.1829   5.1829
     5.1999   5.2153   5.2469   5.2553   5.2553   5.2783   5.2783   5.2878
     5.3188   5.3278   5.3290   5.3290   5.3522   5.3639   5.3639   5.3660
     5.3690   5.3853   5.3853   5.3882   5.4096   5.4096   5.4226   5.4226
     5.4232   5.4232   5.4253   5.4253   5.4298   5.5953   5.5953   5.9247
     6.1866   6.1866   6.4901   6.4901   6.8128   6.8128   6.9669   7.1415
     7.1415   7.3327   7.4740   7.4740   7.8019   7.9473   7.9473   8.4941
     8.4941   8.6633   8.6633   9.0197   9.2664   9.6172   9.7243   9.7243
     9.9084   9.9084  10.1990  10.1990  10.4497  10.7187  10.7187  10.7336
    10.7336  10.9649  10.9649  11.2141  11.2141  11.3386  11.3386  11.6560
    11.6560  11.6733  11.6733  11.6926  11.9521  11.9521  12.0377  12.0377
    12.3610  12.3823

          k = 0.0414 0.1242 0.2070 ( 72927 PWs)   bands (ev):

   -77.0737 -77.0734 -77.0733 -77.0733 -77.0732 -77.0732 -77.0731 -77.0731
   -77.0731 -77.0731 -77.0730 -77.0730 -77.0730 -77.0730 -77.0730 -77.0730
   -77.0729 -77.0729 -77.0729 -77.0729 -77.0729 -77.0729 -77.0728 -77.0728
   -77.0728 -77.0728 -77.0728 -77.0728 -77.0728 -77.0727 -77.0727 -77.0727
   -42.8330 -42.8330 -42.8327 -42.8324 -42.8322 -42.8322 -42.8321 -42.8309
   -42.8308 -42.8305 -42.8304 -42.8303 -42.8303 -42.8302 -42.8300 -42.8299
   -42.8298 -42.8297 -42.8297 -42.8296 -42.8296 -42.8294 -42.8293 -42.8290
   -42.8287 -42.8283 -42.8282 -42.8280 -42.8278 -42.8277 -42.8277 -42.8275
   -42.8274 -42.8274 -42.8270 -42.8265 -42.8264 -42.8260 -42.8258 -42.8255
   -42.8252 -42.8252 -42.8250 -42.8248 -42.8248 -42.8248 -42.8247 -42.8247
   -42.8246 -42.8246 -42.8246 -42.8243 -42.8242 -42.8241 -42.8240 -42.8239
   -42.8239 -42.8234 -42.8234 -42.8233 -42.8233 -42.8231 -42.8230 -42.8230
   -42.8227 -42.8225 -42.8224 -42.8224 -42.8224 -42.8223 -42.8223 -42.8223
   -42.8220 -42.8219 -42.8219 -42.8219 -42.8218 -42.8218 -42.8218 -42.8217
   -42.8216 -42.8216 -42.8215 -42.8214 -42.8214 -42.8213 -42.8213 -42.8210
   -42.8209 -42.8208 -42.8208 -42.8206 -42.8204 -42.8203 -42.8193 -42.8191
     2.9882   3.6295   3.8900   4.0046   4.0276   4.0542   4.0591   4.0765
     4.0896   4.0963   4.1001   4.1340   4.1437   4.1559   4.1868   4.1984
     4.2154   4.2336   4.2418   4.2543   4.2649   4.2655   4.2885   4.3007
     4.3064   4.3078   4.3189   4.3299   4.3423   4.3659   4.3667   4.3796
     4.3811   4.3855   4.3996   4.4008   4.4059   4.4105   4.4353   4.4420
     4.4554   4.4665   4.4779   4.4829   4.5017   4.5138   4.5193   4.5333
     4.5352   4.5441   4.5476   4.5724   4.5818   4.5845   4.5935   4.6044
     4.6081   4.6091   4.6231   4.6342   4.6374   4.6404   4.6421   4.6447
     4.6545   4.6574   4.6670   4.6749   4.6772   4.6966   4.6998   4.7064
     4.7101   4.7107   4.7135   4.7231   4.7249   4.7264   4.7316   4.7535
     4.7584   4.7637   4.7990   4.8020   4.8097   4.8202   4.8266   4.8352
     4.8359   4.8549   4.8559   4.8709   4.8732   4.8978   4.9045   4.9078
     4.9079   4.9094   4.9162   4.9195   4.9235   4.9340   4.9509   4.9724
     4.9761   4.9831   4.9884   4.9940   5.0096   5.0387   5.0594   5.0632
     5.0682   5.0742   5.0759   5.0807   5.0846   5.0941   5.0984   5.0999
     5.1197   5.1335   5.1343   5.1430   5.1441   5.1536   5.1563   5.1680
     5.1847   5.1864   5.1948   5.2143   5.2196   5.2199   5.2208   5.2208
     5.2245   5.2252   5.2253   5.2329   5.2444   5.2458   5.2742   5.2818
     5.2861   5.2995   5.3069   5.3099   5.3121   5.3347   5.3395   5.3544
     5.3561   5.3562   5.3647   5.3844   5.3847   5.3922   5.3934   5.4007
     5.4225   5.4235   5.4248   5.4251   5.5016   5.7218   5.7347   5.9514
     5.9528   6.2195   6.2354   6.5377   6.5466   6.7128   7.0871   7.2052
     7.2062   7.5442   7.5444   7.7927   7.8773   7.9390   8.0811   8.1979
     8.6167   8.7059   8.9921   9.1545   9.1680   9.4666   9.4764   9.6816
     9.6841   9.9359  10.0426  10.0801  10.4655  10.4825  10.5960  10.6943
    10.7160  10.7192  10.9936  11.0612  11.0655  11.1912  11.3940  11.4264
    11.4834  11.5901  11.6550  11.7604  11.8571  12.1184  12.1194  12.1551
    12.2848  12.3677

          k = 0.0414 0.1242 0.2898 ( 72909 PWs)   bands (ev):

   -77.0736 -77.0735 -77.0733 -77.0732 -77.0732 -77.0732 -77.0731 -77.0731
   -77.0731 -77.0731 -77.0730 -77.0730 -77.0730 -77.0730 -77.0730 -77.0729
   -77.0729 -77.0729 -77.0729 -77.0729 -77.0729 -77.0728 -77.0728 -77.0728
   -77.0728 -77.0728 -77.0728 -77.0728 -77.0728 -77.0728 -77.0727 -77.0727
   -42.8327 -42.8326 -42.8321 -42.8318 -42.8318 -42.8318 -42.8316 -42.8315
   -42.8314 -42.8310 -42.8309 -42.8309 -42.8305 -42.8303 -42.8302 -42.8301
   -42.8300 -42.8300 -42.8300 -42.8298 -42.8295 -42.8294 -42.8292 -42.8289
   -42.8286 -42.8285 -42.8282 -42.8281 -42.8279 -42.8277 -42.8274 -42.8271
   -42.8271 -42.8270 -42.8270 -42.8268 -42.8265 -42.8264 -42.8263 -42.8259
   -42.8256 -42.8255 -42.8247 -42.8247 -42.8246 -42.8246 -42.8245 -42.8245
   -42.8243 -42.8241 -42.8241 -42.8238 -42.8238 -42.8237 -42.8237 -42.8236
   -42.8236 -42.8235 -42.8233 -42.8232 -42.8230 -42.8230 -42.8229 -42.8229
   -42.8228 -42.8228 -42.8228 -42.8228 -42.8226 -42.8225 -42.8224 -42.8223
   -42.8222 -42.8221 -42.8220 -42.8219 -42.8219 -42.8218 -42.8218 -42.8218
   -42.8218 -42.8217 -42.8215 -42.8215 -42.8214 -42.8212 -42.8212 -42.8211
   -42.8209 -42.8208 -42.8206 -42.8205 -42.8203 -42.8200 -42.8196 -42.8194
     3.1018   3.4286   3.9651   4.0360   4.0644   4.0997   4.1085   4.1158
     4.1240   4.1310   4.1416   4.1421   4.1513   4.1575   4.1767   4.1785
     4.1823   4.1998   4.2213   4.2237   4.2243   4.2250   4.2298   4.2356
     4.2500   4.2846   4.2909   4.2950   4.3176   4.3426   4.3530   4.3606
     4.3911   4.3923   4.4058   4.4127   4.4337   4.4393   4.4458   4.4650
     4.4701   4.4747   4.4784   4.4825   4.4911   4.5124   4.5134   4.5171
     4.5178   4.5198   4.5450   4.5515   4.5736   4.5763   4.5892   4.5964
     4.6019   4.6059   4.6158   4.6181   4.6240   4.6357   4.6521   4.6598
     4.6608   4.6641   4.6670   4.6738   4.6770   4.6873   4.6989   4.7062
     4.7180   4.7231   4.7263   4.7316   4.7344   4.7356   4.7470   4.7473
     4.7531   4.7544   4.7577   4.7681   4.7690   4.7844   4.7983   4.8035
     4.8049   4.8235   4.8315   4.8411   4.9090   4.9129   4.9154   4.9259
     4.9627   4.9734   4.9734   4.9749   4.9759   4.9795   4.9814   4.9916
     4.9932   5.0054   5.0104   5.0170   5.0283   5.0399   5.0516   5.0612
     5.0716   5.0840   5.0852   5.0879   5.0970   5.0979   5.1108   5.1214
     5.1281   5.1465   5.1491   5.1579   5.1596   5.1633   5.1708   5.1712
     5.1895   5.1920   5.1962   5.2049   5.2080   5.2140   5.2215   5.2275
     5.2309   5.2412   5.2447   5.2576   5.2667   5.2670   5.2674   5.2679
     5.2715   5.2754   5.2975   5.2976   5.3085   5.3147   5.3305   5.3329
     5.3343   5.3366   5.3503   5.3508   5.3514   5.3516   5.3709   5.4225
     5.4234   5.4238   5.4244   5.4356   5.5559   5.6477   5.7516   5.9031
     6.0126   6.2778   6.3081   6.3813   6.5146   6.6153   6.8853   7.3049
     7.3866   7.6043   7.6416   7.6498   7.9506   7.9855   8.3149   8.6237
     8.6288   8.7876   8.9613   9.0923   9.2290   9.2552   9.3448   9.4364
     9.5242   9.8369  10.1338  10.1466  10.4810  10.4880  10.5024  10.5078
    10.5469  10.7896  10.8140  10.8295  11.0351  11.1424  11.1509  11.1867
    11.1879  11.5482  11.6305  11.6893  11.9046  12.1165  12.1472  12.3737
    12.4075  12.4758

          k = 0.0414 0.1242-0.3725 ( 72888 PWs)   bands (ev):

   -77.0736 -77.0736 -77.0733 -77.0733 -77.0732 -77.0732 -77.0731 -77.0731
   -77.0731 -77.0731 -77.0731 -77.0731 -77.0730 -77.0730 -77.0730 -77.0730
   -77.0729 -77.0729 -77.0729 -77.0729 -77.0728 -77.0728 -77.0728 -77.0728
   -77.0728 -77.0728 -77.0728 -77.0728 -77.0728 -77.0728 -77.0727 -77.0727
   -42.8321 -42.8321 -42.8320 -42.8320 -42.8315 -42.8315 -42.8314 -42.8314
   -42.8314 -42.8314 -42.8311 -42.8311 -42.8309 -42.8309 -42.8302 -42.8302
   -42.8301 -42.8301 -42.8301 -42.8301 -42.8293 -42.8293 -42.8289 -42.8289
   -42.8285 -42.8285 -42.8284 -42.8284 -42.8276 -42.8276 -42.8274 -42.8274
   -42.8270 -42.8270 -42.8267 -42.8267 -42.8264 -42.8264 -42.8263 -42.8263
   -42.8259 -42.8259 -42.8247 -42.8247 -42.8246 -42.8246 -42.8242 -42.8242
   -42.8240 -42.8240 -42.8237 -42.8237 -42.8236 -42.8236 -42.8234 -42.8234
   -42.8233 -42.8233 -42.8233 -42.8233 -42.8232 -42.8232 -42.8232 -42.8232
   -42.8230 -42.8230 -42.8227 -42.8227 -42.8225 -42.8225 -42.8223 -42.8223
   -42.8221 -42.8221 -42.8221 -42.8221 -42.8219 -42.8219 -42.8218 -42.8218
   -42.8216 -42.8216 -42.8215 -42.8215 -42.8214 -42.8214 -42.8211 -42.8211
   -42.8211 -42.8211 -42.8205 -42.8205 -42.8199 -42.8199 -42.8197 -42.8197
     3.2500   3.2500   4.0553   4.0553   4.0820   4.0820   4.1148   4.1148
     4.1464   4.1464   4.1572   4.1572   4.1682   4.1682   4.1754   4.1754
     4.1760   4.1760   4.1879   4.1879   4.1927   4.1927   4.2332   4.2332
     4.2547   4.2547   4.2574   4.2574   4.3402   4.3402   4.3457   4.3457
     4.4024   4.4024   4.4068   4.4068   4.4511   4.4511   4.4596   4.4596
     4.4789   4.4789   4.4794   4.4794   4.5011   4.5011   4.5058   4.5058
     4.5264   4.5264   4.5298   4.5298   4.5603   4.5603   4.5835   4.5835
     4.6024   4.6024   4.6099   4.6099   4.6377   4.6377   4.6449   4.6449
     4.6693   4.6693   4.6785   4.6785   4.7093   4.7093   4.7095   4.7095
     4.7188   4.7188   4.7355   4.7355   4.7373   4.7373   4.7477   4.7477
     4.7499   4.7500   4.7617   4.7617   4.7635   4.7636   4.7681   4.7681
     4.7921   4.7921   4.7972   4.7972   4.9108   4.9108   4.9193   4.9193
     4.9716   4.9716   4.9931   4.9931   5.0256   5.0256   5.0394   5.0394
     5.0545   5.0545   5.0626   5.0626   5.0657   5.0657   5.0684   5.0684
     5.0705   5.0705   5.0893   5.0893   5.0925   5.0925   5.1061   5.1061
     5.1073   5.1073   5.1151   5.1151   5.1164   5.1164   5.1420   5.1420
     5.1908   5.1908   5.2009   5.2009   5.2230   5.2230   5.2348   5.2348
     5.2478   5.2478   5.2532   5.2532   5.2873   5.2873   5.2910   5.2910
     5.3009   5.3009   5.3047   5.3047   5.3048   5.3048   5.3062   5.3062
     5.3105   5.3105   5.3108   5.3108   5.3423   5.3423   5.4197   5.4197
     5.4227   5.4227   5.4241   5.4241   5.5815   5.5815   5.8178   5.8178
     6.0943   6.0943   6.3722   6.3722   6.7291   6.7291   6.8632   6.8632
     7.4381   7.4381   7.7883   7.7883   8.1178   8.1178   8.4608   8.4608
     8.7799   8.7799   8.9955   8.9955   9.0716   9.0716   9.5782   9.5782
     9.5875   9.5875   9.9375   9.9375  10.5155  10.5155  10.6366  10.6366
    10.6489  10.6489  10.9473  10.9473  10.9789  10.9789  11.0104  11.0104
    11.0867  11.0867  11.7401  11.7401  11.8927  11.8927  12.5977  12.5982
    12.6651  12.6656

          k = 0.0414 0.2070 0.2070 ( 72936 PWs)   bands (ev):

   -77.0737 -77.0734 -77.0734 -77.0732 -77.0732 -77.0732 -77.0731 -77.0731
   -77.0731 -77.0731 -77.0730 -77.0730 -77.0730 -77.0730 -77.0729 -77.0729
   -77.0729 -77.0729 -77.0729 -77.0729 -77.0729 -77.0729 -77.0728 -77.0728
   -77.0728 -77.0728 -77.0728 -77.0728 -77.0728 -77.0727 -77.0727 -77.0727
   -42.8329 -42.8328 -42.8322 -42.8319 -42.8319 -42.8319 -42.8319 -42.8309
   -42.8309 -42.8309 -42.8309 -42.8305 -42.8305 -42.8301 -42.8301 -42.8300
   -42.8300 -42.8298 -42.8298 -42.8298 -42.8298 -42.8295 -42.8293 -42.8293
   -42.8292 -42.8292 -42.8283 -42.8278 -42.8277 -42.8277 -42.8274 -42.8274
   -42.8270 -42.8269 -42.8269 -42.8268 -42.8259 -42.8257 -42.8257 -42.8254
   -42.8254 -42.8252 -42.8252 -42.8250 -42.8249 -42.8246 -42.8246 -42.8246
   -42.8244 -42.8244 -42.8242 -42.8242 -42.8239 -42.8239 -42.8238 -42.8238
   -42.8235 -42.8235 -42.8235 -42.8235 -42.8230 -42.8230 -42.8230 -42.8229
   -42.8229 -42.8229 -42.8229 -42.8225 -42.8223 -42.8223 -42.8223 -42.8223
   -42.8223 -42.8223 -42.8222 -42.8221 -42.8220 -42.8219 -42.8218 -42.8217
   -42.8216 -42.8215 -42.8214 -42.8214 -42.8214 -42.8214 -42.8210 -42.8210
   -42.8209 -42.8209 -42.8207 -42.8203 -42.8203 -42.8203 -42.8195 -42.8192
     3.0636   3.6898   3.6898   4.0139   4.0432   4.0934   4.0942   4.0942
     4.1121   4.1192   4.1192   4.1281   4.1594   4.1594   4.1896   4.1896
     4.1905   4.1918   4.2324   4.2324   4.2386   4.2386   4.2829   4.2829
     4.2873   4.2873   4.3287   4.3287   4.3296   4.3296   4.3319   4.3338
     4.3338   4.3775   4.3775   4.4173   4.4173   4.4231   4.4231   4.4284
     4.4284   4.4495   4.4841   4.4880   4.4880   4.5105   4.5105   4.5192
     4.5192   4.5406   4.5530   4.5530   4.5595   4.5595   4.6134   4.6134
     4.6177   4.6177   4.6207   4.6334   4.6416   4.6416   4.6571   4.6580
     4.6580   4.6769   4.6918   4.6918   4.7087   4.7106   4.7211   4.7266
     4.7506   4.7516   4.7516   4.7520   4.7520   4.7730   4.7788   4.7846
     4.7846   4.8012   4.8013   4.8013   4.8092   4.8092   4.8184   4.8184
     4.8438   4.8438   4.8542   4.8542   4.8642   4.8642   4.8711   4.8711
     4.8907   4.9030   4.9034   4.9034   4.9333   4.9333   4.9486   4.9498
     4.9498   4.9502   4.9959   4.9959   5.0058   5.0058   5.0324   5.0327
     5.0633   5.0633   5.0768   5.1093   5.1093   5.1326   5.1326   5.1509
     5.1509   5.1582   5.1582   5.1641   5.1641   5.1657   5.1657   5.1709
     5.1768   5.1768   5.1910   5.1910   5.2078   5.2078   5.2169   5.2389
     5.2412   5.2425   5.2425   5.2589   5.2606   5.2607   5.2610   5.2610
     5.2766   5.2804   5.2804   5.2838   5.3366   5.3366   5.3373   5.3499
     5.3568   5.3569   5.3593   5.3696   5.3696   5.3926   5.3926   5.3942
     5.3942   5.3991   5.3991   5.4101   5.5504   5.5788   5.9759   5.9759
     6.0874   6.0874   6.2786   6.2786   6.4501   6.8287   6.9311   6.9311
     7.6186   7.6186   7.9560   7.9560   8.0577   8.0577   8.2086   8.2086
     8.5858   8.7476   8.7476   8.9037   8.9037   9.2841   9.4834   9.4834
    10.0505  10.0505  10.1091  10.1840  10.1841  10.4427  10.4427  10.4714
    10.4738  10.4933  10.4933  10.7790  10.7790  11.1536  11.6131  11.6131
    11.6208  11.6208  11.6752  11.6752  11.8825  12.1747  12.1747  12.4960
    12.5349  12.5380

          k = 0.0414 0.2070 0.2898 ( 72910 PWs)   bands (ev):

   -77.0736 -77.0735 -77.0734 -77.0733 -77.0732 -77.0732 -77.0731 -77.0731
   -77.0731 -77.0731 -77.0730 -77.0730 -77.0730 -77.0730 -77.0729 -77.0729
   -77.0729 -77.0729 -77.0729 -77.0729 -77.0729 -77.0728 -77.0728 -77.0728
   -77.0728 -77.0728 -77.0728 -77.0728 -77.0728 -77.0728 -77.0727 -77.0727
   -42.8325 -42.8325 -42.8317 -42.8316 -42.8316 -42.8315 -42.8315 -42.8314
   -42.8313 -42.8309 -42.8308 -42.8308 -42.8307 -42.8305 -42.8304 -42.8304
   -42.8303 -42.8301 -42.8301 -42.8300 -42.8299 -42.8297 -42.8294 -42.8294
   -42.8294 -42.8287 -42.8286 -42.8284 -42.8281 -42.8275 -42.8272 -42.8270
   -42.8269 -42.8265 -42.8263 -42.8262 -42.8262 -42.8261 -42.8259 -42.8257
   -42.8253 -42.8249 -42.8247 -42.8246 -42.8246 -42.8246 -42.8245 -42.8245
   -42.8244 -42.8244 -42.8243 -42.8240 -42.8239 -42.8238 -42.8238 -42.8235
   -42.8235 -42.8235 -42.8234 -42.8233 -42.8233 -42.8231 -42.8230 -42.8229
   -42.8229 -42.8228 -42.8227 -42.8227 -42.8225 -42.8224 -42.8224 -42.8224
   -42.8223 -42.8222 -42.8221 -42.8220 -42.8220 -42.8220 -42.8218 -42.8218
   -42.8216 -42.8216 -42.8215 -42.8214 -42.8214 -42.8213 -42.8213 -42.8212
   -42.8210 -42.8210 -42.8206 -42.8202 -42.8201 -42.8199 -42.8198 -42.8193
     3.1751   3.4946   3.7764   4.0050   4.0370   4.0722   4.1151   4.1252
     4.1390   4.1406   4.1442   4.1457   4.1609   4.1643   4.1701   4.1824
     4.1975   4.1981   4.2084   4.2233   4.2260   4.2400   4.2478   4.2623
     4.2655   4.2701   4.2777   4.2833   4.3072   4.3085   4.3230   4.3543
     4.3587   4.3598   4.3690   4.3759   4.3954   4.4078   4.4101   4.4314
     4.4450   4.4637   4.4693   4.4706   4.4853   4.5155   4.5184   4.5216
     4.5327   4.5396   4.5452   4.5510   4.5646   4.5656   4.5739   4.5976
     4.5998   4.6148   4.6494   4.6559   4.6632   4.6647   4.6672   4.6740
     4.6785   4.6806   4.6970   4.7192   4.7226   4.7304   4.7304   4.7306
     4.7411   4.7421   4.7505   4.7549   4.7709   4.7778   4.7785   4.7836
     4.7872   4.7876   4.7884   4.7903   4.7921   4.8029   4.8051   4.8074
     4.8488   4.8555   4.8570   4.8653   4.8733   4.8734   4.8834   4.8920
     4.9064   4.9120   4.9279   4.9305   4.9360   4.9379   4.9400   4.9596
     4.9686   4.9762   4.9831   4.9879   5.0048   5.0163   5.0375   5.0432
     5.0623   5.0691   5.0860   5.0890   5.0904   5.0916   5.1148   5.1397
     5.1403   5.1410   5.1424   5.1505   5.1619   5.1673   5.1747   5.1802
     5.1817   5.1934   5.2070   5.2134   5.2158   5.2279   5.2301   5.2347
     5.2361   5.2477   5.2541   5.2612   5.2664   5.2720   5.2783   5.2941
     5.2956   5.2959   5.2983   5.3026   5.3106   5.3167   5.3195   5.3456
     5.3461   5.3480   5.3488   5.3494   5.3530   5.3537   5.3671   5.3936
     5.3951   5.3975   5.4008   5.4165   5.4574   5.7028   5.7708   6.0236
     6.0545   6.2483   6.2592   6.3516   6.5098   6.6206   6.6827   7.3642
     7.5065   7.7298   8.0509   8.0681   8.0727   8.2229   8.3558   8.3764
     8.4007   8.6537   8.8281   8.9959   9.0427   9.1529   9.2979   9.4670
     9.8022   9.8542   9.9220   9.9444  10.1967  10.1968  10.2065  10.4546
    10.4802  10.5298  10.5354  10.5727  10.9046  10.9368  11.5385  11.6080
    11.6915  11.6977  11.7013  11.7686  11.9388  11.9723  12.4016  12.4206
    12.4574  12.6216

          k = 0.0414 0.2070-0.3725 ( 72964 PWs)   bands (ev):

   -77.0736 -77.0736 -77.0733 -77.0733 -77.0732 -77.0732 -77.0731 -77.0731
   -77.0731 -77.0731 -77.0730 -77.0730 -77.0730 -77.0730 -77.0729 -77.0729
   -77.0729 -77.0729 -77.0729 -77.0729 -77.0728 -77.0728 -77.0728 -77.0728
   -77.0728 -77.0728 -77.0728 -77.0728 -77.0728 -77.0728 -77.0727 -77.0727
   -42.8321 -42.8321 -42.8320 -42.8320 -42.8313 -42.8313 -42.8312 -42.8312
   -42.8311 -42.8311 -42.8309 -42.8309 -42.8307 -42.8307 -42.8307 -42.8307
   -42.8306 -42.8306 -42.8303 -42.8303 -42.8296 -42.8296 -42.8296 -42.8296
   -42.8289 -42.8289 -42.8285 -42.8285 -42.8281 -42.8281 -42.8268 -42.8268
   -42.8266 -42.8266 -42.8264 -42.8264 -42.8261 -42.8261 -42.8257 -42.8257
   -42.8253 -42.8253 -42.8245 -42.8245 -42.8244 -42.8244 -42.8244 -42.8244
   -42.8242 -42.8242 -42.8242 -42.8242 -42.8240 -42.8240 -42.8239 -42.8239
   -42.8235 -42.8235 -42.8234 -42.8234 -42.8231 -42.8231 -42.8231 -42.8231
   -42.8227 -42.8227 -42.8226 -42.8226 -42.8224 -42.8224 -42.8222 -42.8222
   -42.8221 -42.8221 -42.8221 -42.8221 -42.8221 -42.8221 -42.8220 -42.8220
   -42.8217 -42.8217 -42.8216 -42.8216 -42.8215 -42.8215 -42.8212 -42.8212
   -42.8211 -42.8211 -42.8202 -42.8202 -42.8201 -42.8201 -42.8196 -42.8196
     3.3203   3.3203   3.8842   3.8842   4.0741   4.0741   4.1145   4.1145
     4.1393   4.1393   4.1769   4.1769   4.1773   4.1773   4.1971   4.1971
     4.2022   4.2022   4.2093   4.2093   4.2121   4.2121   4.2123   4.2123
     4.2479   4.2479   4.2912   4.2912   4.2973   4.2973   4.3262   4.3262
     4.3765   4.3765   4.3822   4.3822   4.3872   4.3872   4.4051   4.4051
     4.4260   4.4260   4.4844   4.4844   4.5054   4.5054   4.5209   4.5209
     4.5324   4.5324   4.5790   4.5790   4.5819   4.5819   4.5865   4.5865
     4.5928   4.5928   4.6186   4.6186   4.6534   4.6534   4.6783   4.6783
     4.7092   4.7092   4.7135   4.7135   4.7179   4.7179   4.7481   4.7481
     4.7572   4.7572   4.7633   4.7633   4.7673   4.7673   4.7691   4.7691
     4.7761   4.7761   4.7802   4.7802   4.7909   4.7909   4.8252   4.8252
     4.8272   4.8272   4.8305   4.8305   4.8612   4.8612   4.8712   4.8712
     4.9146   4.9146   4.9851   4.9851   4.9972   4.9972   4.9995   4.9995
     5.0049   5.0049   5.0080   5.0080   5.0139   5.0139   5.0157   5.0157
     5.0435   5.0435   5.0438   5.0438   5.0843   5.0843   5.0910   5.0910
     5.1124   5.1124   5.1353   5.1353   5.1549   5.1549   5.1611   5.1611
     5.2104   5.2104   5.2169   5.2169   5.2340   5.2340   5.2610   5.2610
     5.2618   5.2618   5.2739   5.2739   5.2819   5.2819   5.3029   5.3029
     5.3110   5.3110   5.3116   5.3116   5.3138   5.3138   5.3236   5.3236
     5.3248   5.3248   5.3253   5.3253   5.3280   5.3280   5.3379   5.3379
     5.3959   5.3959   5.3961   5.3961   5.5994   5.5994   5.8628   5.8628
     6.1091   6.1091   6.4587   6.4587   6.4630   6.4630   6.9866   6.9866
     7.8408   7.8408   7.8762   7.8762   8.2231   8.2231   8.4244   8.4244
     8.5483   8.5483   8.8663   8.8663   9.3053   9.3053   9.4140   9.4140
     9.6517   9.6517   9.6894   9.6894  10.0222  10.0222  10.3361  10.3361
    10.4756  10.4756  10.6893  10.6893  11.0730  11.0730  11.4377  11.4377
    11.5813  11.5813  11.7097  11.7097  12.0489  12.0489  12.2013  12.2013
    12.9735  12.9737

          k = 0.0414 0.2898 0.2898 ( 72938 PWs)   bands (ev):

   -77.0736 -77.0735 -77.0735 -77.0734 -77.0732 -77.0731 -77.0731 -77.0731
   -77.0731 -77.0731 -77.0731 -77.0730 -77.0729 -77.0729 -77.0729 -77.0729
   -77.0729 -77.0729 -77.0729 -77.0729 -77.0729 -77.0729 -77.0728 -77.0728
   -77.0728 -77.0728 -77.0728 -77.0728 -77.0728 -77.0728 -77.0728 -77.0727
   -42.8323 -42.8323 -42.8314 -42.8314 -42.8314 -42.8314 -42.8313 -42.8313
   -42.8313 -42.8312 -42.8308 -42.8308 -42.8307 -42.8307 -42.8307 -42.8304
   -42.8304 -42.8302 -42.8301 -42.8301 -42.8301 -42.8300 -42.8300 -42.8297
   -42.8294 -42.8294 -42.8288 -42.8285 -42.8281 -42.8276 -42.8276 -42.8268
   -42.8264 -42.8264 -42.8260 -42.8260 -42.8254 -42.8254 -42.8252 -42.8252
   -42.8252 -42.8252 -42.8251 -42.8250 -42.8250 -42.8243 -42.8242 -42.8242
   -42.8242 -42.8242 -42.8241 -42.8241 -42.8240 -42.8239 -42.8239 -42.8239
   -42.8237 -42.8237 -42.8235 -42.8234 -42.8234 -42.8233 -42.8232 -42.8230
   -42.8230 -42.8226 -42.8226 -42.8226 -42.8226 -42.8226 -42.8226 -42.8223
   -42.8222 -42.8222 -42.8221 -42.8221 -42.8221 -42.8220 -42.8219 -42.8218
   -42.8216 -42.8216 -42.8215 -42.8215 -42.8215 -42.8215 -42.8213 -42.8211
   -42.8211 -42.8208 -42.8208 -42.8201 -42.8199 -42.8199 -42.8199 -42.8194
     3.2833   3.5907   3.5907   3.8543   4.0501   4.0918   4.1093   4.1140
     4.1140   4.1583   4.1672   4.1672   4.1807   4.1875   4.1875   4.1892
     4.1892   4.2203   4.2203   4.2313   4.2313   4.2506   4.2506   4.2716
     4.2856   4.2856   4.2909   4.2965   4.2965   4.3009   4.3009   4.3033
     4.3033   4.3305   4.3305   4.3510   4.3510   4.3861   4.3861   4.4041
     4.4042   4.4105   4.4105   4.4824   4.4824   4.5233   4.5336   4.5336
     4.5369   4.5369   4.5530   4.5568   4.5568   4.5754   4.5754   4.5954
     4.6055   4.6319   4.6593   4.6646   4.6646   4.6827   4.6881   4.6881
     4.7241   4.7370   4.7444   4.7502   4.7553   4.7553   4.7572   4.7731
     4.7745   4.7745   4.7803   4.7803   4.7860   4.7860   4.7883   4.7892
     4.7892   4.8090   4.8090   4.8270   4.8270   4.8415   4.8511   4.8531
     4.8531   4.8533   4.8533   4.8568   4.8656   4.8656   4.8769   4.8769
     4.8794   4.8794   4.8895   4.9218   4.9218   4.9378   4.9378   4.9499
     4.9499   4.9556   4.9641   4.9641   4.9860   4.9860   5.0054   5.0054
     5.0063   5.0064   5.0209   5.0209   5.0525   5.0933   5.0954   5.0954
     5.1056   5.1244   5.1528   5.1528   5.1751   5.1751   5.1824   5.1824
     5.2156   5.2156   5.2220   5.2220   5.2255   5.2448   5.2448   5.2558
     5.2558   5.2688   5.2911   5.2911   5.2938   5.2939   5.2939   5.2956
     5.2956   5.3049   5.3121   5.3180   5.3189   5.3189   5.3212   5.3212
     5.3447   5.3447   5.3468   5.3480   5.3480   5.3549   5.3549   5.3582
     5.3582   5.3615   5.3615   5.3804   5.5242   5.8011   5.8135   5.8135
     6.0410   6.1279   6.1279   6.4061   6.6802   6.6802   7.1110   7.1110
     7.6719   7.6719   8.1028   8.1028   8.1906   8.1906   8.5281   8.5281
     8.5338   8.5338   8.9087   8.9087   9.1385   9.1385   9.3769   9.6162
     9.6162   9.6379   9.6623   9.6623   9.9522   9.9522   9.9549   9.9549
    10.3474  10.3474  10.4520  10.6466  11.0347  11.4008  11.5550  11.5550
    11.5629  12.0128  12.0613  12.0613  12.1475  12.1475  12.3723  12.3724
    12.4293  12.4293

          k = 0.0414 0.2898-0.3725 ( 72896 PWs)   bands (ev):

   -77.0735 -77.0735 -77.0734 -77.0734 -77.0732 -77.0732 -77.0731 -77.0731
   -77.0731 -77.0731 -77.0731 -77.0731 -77.0729 -77.0729 -77.0729 -77.0729
   -77.0729 -77.0729 -77.0729 -77.0729 -77.0729 -77.0728 -77.0728 -77.0728
   -77.0728 -77.0728 -77.0728 -77.0728 -77.0728 -77.0728 -77.0727 -77.0727
   -42.8319 -42.8319 -42.8319 -42.8319 -42.8311 -42.8311 -42.8311 -42.8311
   -42.8310 -42.8310 -42.8309 -42.8309 -42.8308 -42.8308 -42.8306 -42.8306
   -42.8305 -42.8305 -42.8301 -42.8301 -42.8301 -42.8301 -42.8300 -42.8300
   -42.8294 -42.8294 -42.8287 -42.8287 -42.8281 -42.8281 -42.8272 -42.8272
   -42.8259 -42.8259 -42.8258 -42.8258 -42.8256 -42.8256 -42.8255 -42.8255
   -42.8247 -42.8247 -42.8246 -42.8246 -42.8246 -42.8246 -42.8245 -42.8245
   -42.8244 -42.8244 -42.8241 -42.8241 -42.8241 -42.8241 -42.8238 -42.8238
   -42.8237 -42.8237 -42.8235 -42.8235 -42.8232 -42.8232 -42.8229 -42.8229
   -42.8229 -42.8229 -42.8228 -42.8228 -42.8225 -42.8225 -42.8224 -42.8224
   -42.8223 -42.8223 -42.8222 -42.8222 -42.8218 -42.8218 -42.8218 -42.8218
   -42.8217 -42.8217 -42.8217 -42.8217 -42.8213 -42.8213 -42.8212 -42.8212
   -42.8211 -42.8211 -42.8205 -42.8204 -42.8198 -42.8198 -42.8195 -42.8195
     3.4234   3.4234   3.7129   3.7129   4.0757   4.0757   4.1087   4.1087
     4.1234   4.1234   4.1705   4.1705   4.1892   4.1892   4.2186   4.2186
     4.2384   4.2384   4.2427   4.2427   4.2438   4.2438   4.2464   4.2464
     4.2502   4.2502   4.2706   4.2706   4.2983   4.2983   4.3243   4.3243
     4.3393   4.3393   4.3414   4.3414   4.3462   4.3462   4.3491   4.3491
     4.3631   4.3631   4.4664   4.4664   4.5038   4.5038   4.5085   4.5085
     4.5533   4.5533   4.5534   4.5534   4.5585   4.5585   4.5856   4.5856
     4.6612   4.6612   4.6624   4.6624   4.6868   4.6868   4.7053   4.7053
     4.7272   4.7272   4.7332   4.7332   4.7711   4.7711   4.7741   4.7741
     4.7747   4.7747   4.7868   4.7868   4.8001   4.8001   4.8173   4.8173
     4.8174   4.8174   4.8201   4.8201   4.8289   4.8289   4.8310   4.8310
     4.8575   4.8575   4.8664   4.8664   4.8676   4.8676   4.8718   4.8718
     4.9104   4.9104   4.9121   4.9121   4.9489   4.9489   4.9517   4.9517
     4.9525   4.9525   4.9627   4.9627   4.9691   4.9691   4.9710   4.9710
     4.9873   4.9873   4.9919   4.9919   5.0328   5.0328   5.0444   5.0444
     5.1249   5.1249   5.1343   5.1343   5.1911   5.1911   5.2068   5.2068
     5.2091   5.2091   5.2327   5.2327   5.2600   5.2600   5.2666   5.2666
     5.2698   5.2698   5.2722   5.2722   5.2939   5.2939   5.3066   5.3066
     5.3067   5.3067   5.3232   5.3232   5.3251   5.3251   5.3291   5.3291
     5.3350   5.3350   5.3362   5.3362   5.3378   5.3378   5.3394   5.3394
     5.3575   5.3575   5.3665   5.3665   5.6461   5.6461   5.8979   5.8979
     5.9439   5.9439   6.2427   6.2427   6.8824   6.8824   7.1543   7.1543
     7.5864   7.5864   7.8732   7.8732   8.3506   8.3506   8.6775   8.6775
     8.6944   8.6944   8.9845   8.9845   9.0616   9.0616   9.4049   9.4049
     9.4511   9.4511   9.7342   9.7342   9.7566   9.7566   9.8351   9.8351
    10.3862  10.3862  10.4340  10.4340  11.5028  11.5028  11.5314  11.5314
    11.7121  11.7121  11.8988  11.8988  12.2941  12.2941  12.5050  12.5052
    12.5471  12.5471

          k = 0.0414-0.3725-0.3725 ( 72896 PWs)   bands (ev):

   -77.0735 -77.0735 -77.0735 -77.0735 -77.0731 -77.0731 -77.0731 -77.0731
   -77.0731 -77.0731 -77.0731 -77.0731 -77.0729 -77.0729 -77.0729 -77.0729
   -77.0729 -77.0729 -77.0729 -77.0729 -77.0729 -77.0729 -77.0729 -77.0729
   -77.0728 -77.0728 -77.0728 -77.0728 -77.0728 -77.0728 -77.0728 -77.0727
   -42.8316 -42.8316 -42.8316 -42.8315 -42.8315 -42.8315 -42.8315 -42.8315
   -42.8307 -42.8307 -42.8306 -42.8306 -42.8306 -42.8306 -42.8306 -42.8306
   -42.8305 -42.8305 -42.8305 -42.8305 -42.8300 -42.8300 -42.8300 -42.8300
   -42.8294 -42.8294 -42.8294 -42.8294 -42.8277 -42.8277 -42.8276 -42.8276
   -42.8252 -42.8252 -42.8252 -42.8252 -42.8252 -42.8252 -42.8252 -42.8252
   -42.8251 -42.8251 -42.8251 -42.8251 -42.8251 -42.8250 -42.8250 -42.8250
   -42.8239 -42.8239 -42.8239 -42.8239 -42.8237 -42.8237 -42.8237 -42.8237
   -42.8237 -42.8237 -42.8237 -42.8237 -42.8236 -42.8236 -42.8236 -42.8236
   -42.8227 -42.8227 -42.8227 -42.8227 -42.8227 -42.8227 -42.8227 -42.8227
   -42.8221 -42.8221 -42.8221 -42.8221 -42.8218 -42.8218 -42.8218 -42.8218
   -42.8215 -42.8215 -42.8215 -42.8215 -42.8214 -42.8214 -42.8214 -42.8214
   -42.8208 -42.8208 -42.8208 -42.8208 -42.8196 -42.8196 -42.8196 -42.8196
     3.5562   3.5562   3.5562   3.5562   4.0872   4.0872   4.0872   4.0872
     4.1420   4.1420   4.1420   4.1420   4.2123   4.2123   4.2123   4.2123
     4.2680   4.2681   4.2681   4.2681   4.2681   4.2681   4.2681   4.2681
     4.2920   4.2920   4.2920   4.2920   4.2920   4.2920   4.2920   4.2920
     4.3018   4.3018   4.3018   4.3018   4.3018   4.3018   4.3018   4.3018
     4.4070   4.4070   4.4070   4.4070   4.5275   4.5275   4.5275   4.5275
     4.5275   4.5275   4.5275   4.5275   4.5767   4.5767   4.5768   4.5768
     4.6697   4.6697   4.6697   4.6697   4.6962   4.6962   4.6962   4.6962
     4.7827   4.7827   4.7827   4.7827   4.7896   4.7896   4.7896   4.7896
     4.7984   4.7984   4.7984   4.7984   4.8167   4.8167   4.8167   4.8167
     4.8287   4.8287   4.8287   4.8287   4.8411   4.8411   4.8411   4.8411
     4.8842   4.8842   4.8842   4.8842   4.8842   4.8843   4.8843   4.8843
     4.9214   4.9214   4.9214   4.9214   4.9214   4.9214   4.9214   4.9214
     4.9244   4.9244   4.9244   4.9244   4.9244   4.9244   4.9244   4.9244
     4.9788   4.9788   4.9788   4.9788   4.9855   4.9855   4.9855   4.9855
     5.1597   5.1597   5.1597   5.1597   5.1748   5.1748   5.1748   5.1748
     5.2449   5.2449   5.2449   5.2449   5.2449   5.2449   5.2449   5.2449
     5.2949   5.2949   5.2949   5.2949   5.3135   5.3135   5.3135   5.3135
     5.3135   5.3135   5.3135   5.3135   5.3286   5.3286   5.3286   5.3286
     5.3411   5.3411   5.3411   5.3411   5.3411   5.3411   5.3411   5.3412
     5.3413   5.3413   5.3413   5.3413   5.7426   5.7426   5.7426   5.7426
     6.0695   6.0695   6.0695   6.0695   7.3564   7.3564   7.3564   7.3564
     7.3564   7.3564   7.3564   7.3565   8.8451   8.8451   8.8451   8.8452
     8.8452   8.8452   8.8452   8.8452   9.2128   9.2128   9.2128   9.2129
     9.2129   9.2129   9.2129   9.2129   9.9218   9.9218   9.9218   9.9218
    10.2986  10.2986  10.2986  10.2986  11.5326  11.5326  11.5326  11.5326
    12.0233  12.0233  12.0233  12.0233  12.3929  12.3929  12.3929  12.3929
    12.7828  12.7828

          k = 0.1242 0.1242 0.1242 ( 72909 PWs)   bands (ev):

   -77.0737 -77.0733 -77.0733 -77.0733 -77.0731 -77.0731 -77.0731 -77.0731
   -77.0731 -77.0731 -77.0730 -77.0730 -77.0730 -77.0730 -77.0730 -77.0730
   -77.0730 -77.0730 -77.0730 -77.0729 -77.0729 -77.0729 -77.0729 -77.0728
   -77.0728 -77.0728 -77.0728 -77.0728 -77.0727 -77.0727 -77.0727 -77.0727
   -42.8331 -42.8331 -42.8331 -42.8325 -42.8323 -42.8323 -42.8323 -42.8303
   -42.8303 -42.8303 -42.8300 -42.8300 -42.8300 -42.8300 -42.8300 -42.8300
   -42.8299 -42.8299 -42.8299 -42.8299 -42.8299 -42.8299 -42.8287 -42.8287
   -42.8287 -42.8282 -42.8282 -42.8282 -42.8277 -42.8277 -42.8277 -42.8277
   -42.8277 -42.8277 -42.8265 -42.8265 -42.8265 -42.8252 -42.8252 -42.8251
   -42.8250 -42.8250 -42.8249 -42.8249 -42.8249 -42.8249 -42.8248 -42.8248
   -42.8248 -42.8247 -42.8247 -42.8247 -42.8245 -42.8245 -42.8244 -42.8244
   -42.8244 -42.8244 -42.8233 -42.8233 -42.8233 -42.8228 -42.8227 -42.8227
   -42.8226 -42.8226 -42.8226 -42.8223 -42.8223 -42.8223 -42.8221 -42.8221
   -42.8221 -42.8218 -42.8218 -42.8218 -42.8218 -42.8218 -42.8218 -42.8217
   -42.8217 -42.8217 -42.8213 -42.8213 -42.8211 -42.8211 -42.8211 -42.8210
   -42.8210 -42.8210 -42.8207 -42.8207 -42.8207 -42.8201 -42.8191 -42.8191
     2.9498   3.8612   3.8612   3.8612   3.9835   4.0347   4.0348   4.0348
     4.0824   4.0824   4.0825   4.1337   4.1337   4.1337   4.2076   4.2076
     4.2076   4.2497   4.2497   4.2497   4.3269   4.3269   4.3269   4.3535
     4.3536   4.3536   4.3536   4.3536   4.3536   4.3593   4.3593   4.3593
     4.3735   4.3735   4.3735   4.3736   4.3736   4.3736   4.4605   4.4605
     4.4605   4.4605   4.4605   4.4605   4.4645   4.4645   4.4645   4.5814
     4.5814   4.5814   4.5814   4.5814   4.5814   4.5980   4.5980   4.5980
     4.6113   4.6113   4.6113   4.6448   4.6448   4.6448   4.6531   4.6832
     4.6832   4.6920   4.6920   4.7005   4.7005   4.7005   4.7005   4.7005
     4.7005   4.7113   4.7113   4.7113   4.7444   4.7444   4.7444   4.7444
     4.7444   4.7444   4.7952   4.7952   4.7952   4.8008   4.8008   4.8008
     4.8246   4.8246   4.8246   4.8629   4.8629   4.8629   4.8937   4.8937
     4.8937   4.9514   4.9514   4.9514   4.9791   4.9791   4.9791   4.9792
     4.9792   4.9792   4.9817   4.9817   4.9817   5.0390   5.0390   5.0390
     5.0584   5.0584   5.0622   5.0622   5.0622   5.0799   5.0799   5.0799
     5.1079   5.1079   5.1079   5.1079   5.1079   5.1079   5.1786   5.1786
     5.1786   5.1786   5.1786   5.1786   5.1844   5.1844   5.1844   5.2061
     5.2061   5.2061   5.2412   5.2412   5.2412   5.2784   5.2784   5.2784
     5.3171   5.3171   5.3171   5.3283   5.3283   5.3527   5.3528   5.3528
     5.3693   5.3693   5.3693   5.4099   5.4099   5.4099   5.4099   5.4099
     5.4099   5.4221   5.4221   5.4221   5.6625   5.6625   5.6625   5.9322
     5.9322   5.9322   6.6478   6.8425   6.8425   6.8425   6.8425   6.8425
     6.8425   7.7354   7.7354   7.7354   7.8407   7.8407   7.8407   8.5568
     8.5568   8.5568   8.9603   8.9603   8.9603   9.7436   9.7436   9.7436
     9.7436   9.7436   9.7436  10.0083  10.8474  10.8474  10.8474  10.8474
    10.8474  10.8474  10.9772  10.9772  10.9772  11.0363  11.0363  11.0363
    12.0399  12.0399  12.0399  12.0399  12.0455  12.0479  12.0486  12.0487
    12.0487  12.0487

          k = 0.1242 0.1242 0.2070 ( 72917 PWs)   bands (ev):

   -77.0737 -77.0734 -77.0733 -77.0733 -77.0732 -77.0732 -77.0731 -77.0731
   -77.0731 -77.0731 -77.0730 -77.0730 -77.0730 -77.0730 -77.0730 -77.0730
   -77.0730 -77.0729 -77.0729 -77.0729 -77.0729 -77.0728 -77.0728 -77.0728
   -77.0728 -77.0728 -77.0728 -77.0728 -77.0728 -77.0728 -77.0727 -77.0727
   -42.8329 -42.8328 -42.8328 -42.8321 -42.8321 -42.8320 -42.8319 -42.8309
   -42.8305 -42.8305 -42.8304 -42.8304 -42.8303 -42.8303 -42.8302 -42.8302
   -42.8301 -42.8301 -42.8298 -42.8298 -42.8297 -42.8297 -42.8293 -42.8292
   -42.8284 -42.8284 -42.8281 -42.8281 -42.8278 -42.8278 -42.8274 -42.8274
   -42.8272 -42.8272 -42.8270 -42.8270 -42.8257 -42.8255 -42.8255 -42.8254
   -42.8254 -42.8253 -42.8253 -42.8249 -42.8246 -42.8246 -42.8245 -42.8245
   -42.8245 -42.8245 -42.8245 -42.8244 -42.8244 -42.8241 -42.8241 -42.8241
   -42.8241 -42.8237 -42.8234 -42.8231 -42.8229 -42.8229 -42.8229 -42.8228
   -42.8228 -42.8226 -42.8226 -42.8226 -42.8225 -42.8225 -42.8223 -42.8223
   -42.8223 -42.8223 -42.8223 -42.8219 -42.8218 -42.8218 -42.8218 -42.8218
   -42.8218 -42.8218 -42.8213 -42.8213 -42.8213 -42.8212 -42.8208 -42.8208
   -42.8208 -42.8206 -42.8206 -42.8205 -42.8205 -42.8205 -42.8193 -42.8192
     3.0258   3.6583   3.9078   3.9078   3.9932   4.0614   4.0614   4.0759
     4.1007   4.1055   4.1055   4.1502   4.1645   4.1645   4.1741   4.1907
     4.1907   4.2076   4.2286   4.2286   4.2837   4.2907   4.2907   4.2973
     4.2973   4.3102   4.3493   4.3493   4.3497   4.3497   4.3518   4.3518
     4.3603   4.3603   4.3725   4.3725   4.3921   4.3921   4.3995   4.3995
     4.4650   4.4650   4.4825   4.4825   4.4835   4.4835   4.5093   4.5544
     4.5545   4.5801   4.5955   4.5955   4.5969   4.5969   4.6038   4.6038
     4.6112   4.6112   4.6269   4.6294   4.6294   4.6373   4.6373   4.6413
     4.6600   4.6733   4.6733   4.6889   4.6926   4.7056   4.7078   4.7229
     4.7229   4.7323   4.7323   4.7383   4.7481   4.7481   4.7746   4.7746
     4.7786   4.7786   4.7854   4.7854   4.7925   4.7926   4.8151   4.8155
     4.8442   4.8539   4.8539   4.8660   4.8660   4.8779   4.8835   4.8835
     4.8884   4.9037   4.9037   4.9070   4.9347   4.9347   4.9807   4.9807
     5.0007   5.0007   5.0120   5.0224   5.0224   5.0319   5.0319   5.0425
     5.0456   5.0456   5.0670   5.0690   5.0946   5.0946   5.0962   5.1080
     5.1080   5.1128   5.1128   5.1194   5.1473   5.1473   5.1551   5.1816
     5.1816   5.1829   5.1972   5.1972   5.2171   5.2171   5.2279   5.2279
     5.2330   5.2330   5.2385   5.2385   5.2448   5.2738   5.2738   5.2839
     5.2839   5.2951   5.2957   5.3072   5.3089   5.3098   5.3098   5.3209
     5.3619   5.3665   5.3665   5.3850   5.3850   5.3859   5.3859   5.4078
     5.4104   5.4105   5.4185   5.4185   5.7235   5.7235   5.7833   5.7833
     5.9507   6.0206   6.3851   6.5753   6.5753   6.9033   6.9033   7.2411
     7.2411   7.5025   7.5025   7.9179   7.9998   8.1478   8.2404   8.2404
     8.6764   8.6764   8.7234   9.2083   9.2083   9.3629   9.3629   9.5152
     9.5152   9.7315   9.7315  10.4116  10.4378  10.4482  10.4482  10.7682
    10.7682  10.9615  10.9615  10.9798  10.9798  10.9999  10.9999  11.4365
    11.4365  11.6610  11.7526  11.7526  12.1242  12.1242  12.1501  12.1501
    12.4381  12.4382

          k = 0.1242 0.1242 0.2898 ( 72932 PWs)   bands (ev):

   -77.0736 -77.0735 -77.0733 -77.0733 -77.0732 -77.0732 -77.0731 -77.0731
   -77.0731 -77.0731 -77.0730 -77.0730 -77.0730 -77.0730 -77.0730 -77.0730
   -77.0729 -77.0729 -77.0729 -77.0729 -77.0729 -77.0728 -77.0728 -77.0728
   -77.0728 -77.0728 -77.0728 -77.0728 -77.0728 -77.0728 -77.0727 -77.0727
   -42.8326 -42.8323 -42.8323 -42.8317 -42.8317 -42.8316 -42.8315 -42.8313
   -42.8312 -42.8312 -42.8309 -42.8309 -42.8304 -42.8304 -42.8302 -42.8302
   -42.8302 -42.8302 -42.8300 -42.8300 -42.8299 -42.8299 -42.8294 -42.8294
   -42.8288 -42.8288 -42.8278 -42.8278 -42.8274 -42.8274 -42.8274 -42.8274
   -42.8270 -42.8270 -42.8267 -42.8267 -42.8260 -42.8260 -42.8260 -42.8260
   -42.8258 -42.8258 -42.8248 -42.8247 -42.8246 -42.8246 -42.8245 -42.8245
   -42.8242 -42.8240 -42.8240 -42.8238 -42.8238 -42.8237 -42.8237 -42.8237
   -42.8237 -42.8237 -42.8235 -42.8233 -42.8232 -42.8232 -42.8229 -42.8229
   -42.8228 -42.8227 -42.8227 -42.8227 -42.8227 -42.8224 -42.8223 -42.8223
   -42.8223 -42.8223 -42.8222 -42.8220 -42.8220 -42.8220 -42.8218 -42.8218
   -42.8218 -42.8218 -42.8216 -42.8216 -42.8216 -42.8211 -42.8210 -42.8208
   -42.8207 -42.8207 -42.8205 -42.8205 -42.8202 -42.8201 -42.8195 -42.8194
     3.1382   3.4608   3.9718   3.9718   4.0170   4.1009   4.1010   4.1080
     4.1215   4.1215   4.1260   4.1270   4.1396   4.1397   4.1744   4.1852
     4.2086   4.2086   4.2165   4.2165   4.2380   4.2380   4.2429   4.2490
     4.2561   4.2561   4.3208   4.3208   4.3258   4.3258   4.3443   4.3443
     4.3453   4.3453   4.3958   4.3958   4.4105   4.4105   4.4144   4.4144
     4.4732   4.4732   4.5116   4.5116   4.5124   4.5124   4.5203   4.5203
     4.5489   4.5489   4.5510   4.5775   4.5775   4.5808   4.5810   4.5810
     4.6065   4.6065   4.6086   4.6187   4.6279   4.6279   4.6666   4.6666
     4.6680   4.6680   4.6803   4.6907   4.6982   4.6982   4.7111   4.7305
     4.7314   4.7503   4.7503   4.7527   4.7527   4.7617   4.7617   4.7643
     4.7643   4.7656   4.7656   4.7729   4.7734   4.7947   4.8001   4.8173
     4.8173   4.8241   4.8241   4.8596   4.8704   4.8704   4.8774   4.8774
     4.9444   4.9444   4.9609   4.9682   4.9682   4.9907   5.0144   5.0145
     5.0145   5.0164   5.0164   5.0216   5.0367   5.0367   5.0505   5.0505
     5.0594   5.0594   5.0741   5.0741   5.0845   5.1021   5.1021   5.1036
     5.1036   5.1068   5.1068   5.1154   5.1282   5.1462   5.1525   5.1737
     5.1867   5.1867   5.1930   5.1930   5.2233   5.2233   5.2457   5.2537
     5.2639   5.2722   5.2722   5.2731   5.2731   5.2748   5.2757   5.2757
     5.2767   5.2768   5.2822   5.2823   5.2837   5.3017   5.3017   5.3379
     5.3444   5.3510   5.3510   5.3520   5.3520   5.3533   5.3533   5.3881
     5.4114   5.4115   5.4153   5.4154   5.5538   5.5538   5.9407   5.9407
     5.9887   6.1891   6.3372   6.3372   6.4468   6.9977   6.9977   7.2970
     7.2970   7.4480   7.6823   7.6823   8.0322   8.3197   8.6683   8.6683
     8.6736   8.6736   8.8039   8.8436   8.8436   9.2757   9.2757   9.5184
     9.5184   9.8212   9.8212   9.8217  10.2794  10.2794  10.5385  10.5385
    10.8624  10.8624  10.9043  11.0284  11.0284  11.0463  11.0463  11.1044
    11.1044  11.5002  11.5002  11.9423  12.2716  12.2716  12.3130  12.3130
    12.6115  12.6117

          k = 0.1242 0.1242-0.3725 ( 72984 PWs)   bands (ev):

   -77.0736 -77.0736 -77.0733 -77.0733 -77.0733 -77.0733 -77.0731 -77.0731
   -77.0731 -77.0730 -77.0730 -77.0730 -77.0730 -77.0730 -77.0730 -77.0730
   -77.0729 -77.0729 -77.0729 -77.0729 -77.0728 -77.0728 -77.0728 -77.0728
   -77.0728 -77.0728 -77.0728 -77.0728 -77.0728 -77.0728 -77.0727 -77.0727
   -42.8322 -42.8322 -42.8318 -42.8317 -42.8317 -42.8317 -42.8314 -42.8314
   -42.8314 -42.8314 -42.8309 -42.8309 -42.8307 -42.8307 -42.8303 -42.8303
   -42.8303 -42.8303 -42.8300 -42.8300 -42.8300 -42.8300 -42.8292 -42.8292
   -42.8292 -42.8292 -42.8277 -42.8277 -42.8277 -42.8277 -42.8267 -42.8267
   -42.8267 -42.8267 -42.8265 -42.8265 -42.8265 -42.8265 -42.8262 -42.8262
   -42.8262 -42.8262 -42.8246 -42.8246 -42.8245 -42.8245 -42.8243 -42.8243
   -42.8240 -42.8240 -42.8239 -42.8239 -42.8236 -42.8236 -42.8235 -42.8235
   -42.8233 -42.8233 -42.8233 -42.8233 -42.8232 -42.8232 -42.8232 -42.8232
   -42.8232 -42.8232 -42.8232 -42.8232 -42.8222 -42.8222 -42.8221 -42.8221
   -42.8221 -42.8221 -42.8219 -42.8219 -42.8219 -42.8219 -42.8219 -42.8219
   -42.8219 -42.8219 -42.8218 -42.8218 -42.8218 -42.8218 -42.8210 -42.8210
   -42.8206 -42.8206 -42.8206 -42.8206 -42.8199 -42.8199 -42.8197 -42.8197
     3.2847   3.2847   4.0460   4.0460   4.0460   4.0460   4.0553   4.0553
     4.1529   4.1529   4.1529   4.1529   4.1555   4.1555   4.1843   4.1843
     4.1843   4.1843   4.1858   4.1858   4.2058   4.2058   4.2634   4.2634
     4.2634   4.2634   4.2876   4.2876   4.2876   4.2876   4.3431   4.3431
     4.3431   4.3431   4.4134   4.4134   4.4134   4.4134   4.4750   4.4750
     4.4750   4.4750   4.4902   4.4902   4.4902   4.4902   4.5463   4.5463
     4.5463   4.5463   4.5464   4.5464   4.5464   4.5464   4.5880   4.5880
     4.5921   4.5921   4.6174   4.6174   4.6174   4.6174   4.6771   4.6771
     4.6771   4.6771   4.6883   4.6883   4.7370   4.7370   4.7370   4.7370
     4.7383   4.7383   4.7479   4.7479   4.7479   4.7479   4.7581   4.7581
     4.7581   4.7581   4.7623   4.7623   4.7626   4.7626   4.7966   4.7966
     4.7966   4.7966   4.8140   4.8140   4.8733   4.8733   4.8733   4.8733
     5.0006   5.0006   5.0225   5.0225   5.0225   5.0225   5.0278   5.0278
     5.0278   5.0278   5.0408   5.0408   5.0468   5.0468   5.0468   5.0468
     5.0784   5.0784   5.0784   5.0784   5.0814   5.0814   5.0814   5.0814
     5.0864   5.0864   5.0864   5.0864   5.1044   5.1044   5.1428   5.1428
     5.2056   5.2056   5.2160   5.2160   5.2226   5.2226   5.2376   5.2376
     5.2377   5.2377   5.2502   5.2502   5.2502   5.2502   5.3145   5.3145
     5.3145   5.3145   5.3150   5.3150   5.3150   5.3150   5.3178   5.3178
     5.3224   5.3224   5.3224   5.3224   5.3645   5.3645   5.4130   5.4130
     5.4130   5.4130   5.4151   5.4151   5.4151   5.4151   6.0614   6.0614
     6.1261   6.1261   6.1261   6.1261   6.9263   6.9263   7.1283   7.1283
     7.1283   7.1283   8.1617   8.1617   8.1617   8.1617   8.1784   8.1784
     9.0473   9.0473   9.0473   9.0473   9.1110   9.1110   9.1110   9.1110
     9.2731   9.2731  10.3227  10.3227  10.3227  10.3227  10.3599  10.3599
    10.3599  10.3599  11.0516  11.0516  11.0516  11.0516  11.2837  11.2837
    11.2837  11.2837  11.4063  11.4063  12.4241  12.4241  12.4241  12.4241
    12.6085  12.6085

          k = 0.1242 0.2070 0.2070 ( 72921 PWs)   bands (ev):

   -77.0736 -77.0734 -77.0734 -77.0733 -77.0732 -77.0732 -77.0732 -77.0731
   -77.0731 -77.0730 -77.0730 -77.0730 -77.0730 -77.0730 -77.0729 -77.0729
   -77.0729 -77.0729 -77.0729 -77.0729 -77.0729 -77.0729 -77.0728 -77.0728
   -77.0728 -77.0728 -77.0728 -77.0728 -77.0728 -77.0728 -77.0728 -77.0727
   -42.8327 -42.8327 -42.8324 -42.8319 -42.8318 -42.8318 -42.8314 -42.8309
   -42.8309 -42.8308 -42.8308 -42.8304 -42.8304 -42.8303 -42.8303 -42.8302
   -42.8302 -42.8302 -42.8302 -42.8302 -42.8301 -42.8301 -42.8294 -42.8294
   -42.8287 -42.8286 -42.8286 -42.8275 -42.8275 -42.8274 -42.8274 -42.8273
   -42.8273 -42.8269 -42.8269 -42.8261 -42.8261 -42.8259 -42.8258 -42.8252
   -42.8252 -42.8250 -42.8250 -42.8250 -42.8250 -42.8246 -42.8245 -42.8244
   -42.8242 -42.8242 -42.8241 -42.8241 -42.8241 -42.8241 -42.8240 -42.8240
   -42.8239 -42.8238 -42.8235 -42.8235 -42.8230 -42.8230 -42.8229 -42.8229
   -42.8229 -42.8229 -42.8226 -42.8226 -42.8226 -42.8224 -42.8224 -42.8223
   -42.8223 -42.8223 -42.8223 -42.8223 -42.8223 -42.8220 -42.8220 -42.8219
   -42.8219 -42.8218 -42.8212 -42.8211 -42.8211 -42.8211 -42.8209 -42.8208
   -42.8208 -42.8206 -42.8206 -42.8204 -42.8204 -42.8203 -42.8194 -42.8193
[...]
     6.8616   6.8616   6.8616   6.8616   7.5007   7.5007   7.5007   7.5007
     7.5007   7.5007   7.5007   7.5007   8.2701   8.2701   8.2701   8.2701
     8.2701   8.2701   8.2701   8.2701   8.8913   8.8913   8.8913   8.8913
     9.9823   9.9823   9.9823   9.9823   9.9823   9.9823   9.9823   9.9823
    10.5453  10.5453  10.5453  10.5453  11.3838  11.3838  11.3838  11.3838
    11.8889  11.8889  11.8889  11.8889  11.8889  11.8889  11.8889  11.8889
    12.6619  12.6619

          k = 0.2898 0.2898 0.2898 ( 72987 PWs)   bands (ev):

   -77.0735 -77.0734 -77.0734 -77.0734 -77.0733 -77.0733 -77.0733 -77.0732
   -77.0729 -77.0729 -77.0729 -77.0729 -77.0729 -77.0729 -77.0729 -77.0729
   -77.0729 -77.0729 -77.0729 -77.0729 -77.0728 -77.0728 -77.0728 -77.0728
   -77.0728 -77.0728 -77.0728 -77.0728 -77.0728 -77.0728 -77.0728 -77.0728
   -42.8317 -42.8317 -42.8317 -42.8312 -42.8312 -42.8312 -42.8312 -42.8312
   -42.8312 -42.8310 -42.8310 -42.8310 -42.8310 -42.8310 -42.8310 -42.8309
   -42.8309 -42.8309 -42.8309 -42.8309 -42.8309 -42.8306 -42.8306 -42.8306
   -42.8286 -42.8271 -42.8271 -42.8271 -42.8261 -42.8261 -42.8261 -42.8261
   -42.8261 -42.8261 -42.8259 -42.8259 -42.8259 -42.8257 -42.8257 -42.8257
   -42.8254 -42.8254 -42.8254 -42.8246 -42.8246 -42.8246 -42.8246 -42.8246
   -42.8246 -42.8243 -42.8243 -42.8243 -42.8241 -42.8241 -42.8241 -42.8239
   -42.8239 -42.8239 -42.8237 -42.8236 -42.8236 -42.8236 -42.8235 -42.8235
   -42.8235 -42.8233 -42.8233 -42.8233 -42.8232 -42.8232 -42.8232 -42.8229
   -42.8229 -42.8229 -42.8229 -42.8229 -42.8229 -42.8228 -42.8227 -42.8227
   -42.8208 -42.8208 -42.8208 -42.8204 -42.8204 -42.8204 -42.8204 -42.8204
   -42.8201 -42.8201 -42.8201 -42.8201 -42.8200 -42.8200 -42.8197 -42.8197
     3.4748   3.7286   3.7286   3.7286   3.8908   3.8908   3.8908   3.9417
     4.1912   4.1912   4.1912   4.2090   4.2090   4.2090   4.2204   4.2204
     4.2204   4.2474   4.2474   4.2474   4.2474   4.2474   4.2474   4.2482
     4.2482   4.2482   4.2482   4.2482   4.2482   4.2561   4.2561   4.2561
     4.3498   4.3498   4.3499   4.4356   4.4356   4.4356   4.4617   4.4617
     4.4617   4.4617   4.4617   4.4617   4.5380   4.5380   4.5380   4.5380
     4.5380   4.5380   4.5409   4.5409   4.5409   4.5801   4.5801   4.5801
     4.6549   4.6639   4.6639   4.6639   4.7240   4.7240   4.7240   4.7320
     4.7320   4.7494   4.7494   4.7616   4.7616   4.7616   4.7717   4.7717
     4.7717   4.7743   4.7743   4.7743   4.8093   4.8093   4.8093   4.8093
     4.8093   4.8093   4.8480   4.8480   4.8480   4.8672   4.8672   4.8672
     4.8767   4.8767   4.8767   4.8767   4.8767   4.8767   4.8837   4.8837
     4.8837   4.9002   4.9002   4.9002   4.9091   4.9091   4.9091   4.9789
     4.9789   4.9789   4.9865   4.9865   4.9865   4.9865   4.9865   4.9865
     5.0287   5.0287   5.0287   5.0296   5.0296   5.0296   5.0710   5.0710
     5.0744   5.0744   5.0744   5.0744   5.0744   5.0744   5.0873   5.0873
     5.0873   5.0883   5.0883   5.0883   5.1262   5.1262   5.1262   5.1468
     5.1469   5.1469   5.1864   5.1913   5.1913   5.2614   5.2614   5.2614
     5.3566   5.3566   5.3566   5.3676   5.3676   5.3676   5.3676   5.3676
     5.3676   5.3753   5.3753   5.3753   5.3753   5.3753   5.3753   5.3799
     5.3799   5.3799   5.3806   5.3806   5.3806   5.3961   5.3961   5.3961
     6.9711   6.9711   6.9711   7.3626   7.3626   7.3626   7.3626   7.3626
     7.3627   7.7262   7.7262   7.7262   7.9773   7.9773   7.9773   8.3798
     8.3798   8.3798   8.3798   8.3798   8.3798   8.7602   8.7602   8.7602
     9.7793   9.7793   9.7793  10.1514  10.1514  10.1514  10.7426  10.7426
    10.7426  10.7426  10.7426  10.7426  11.1597  11.1597  11.1597  11.1597
    11.1597  11.1597  11.5887  11.5887  11.5887  12.1122  12.1122  12.1122
    12.6985  13.2480

          k = 0.2898 0.2898-0.3725 ( 73066 PWs)   bands (ev):

   -77.0735 -77.0734 -77.0734 -77.0734 -77.0734 -77.0734 -77.0733 -77.0733
   -77.0729 -77.0729 -77.0729 -77.0729 -77.0729 -77.0729 -77.0729 -77.0729
   -77.0729 -77.0729 -77.0729 -77.0729 -77.0729 -77.0729 -77.0729 -77.0729
   -77.0728 -77.0728 -77.0728 -77.0728 -77.0728 -77.0728 -77.0728 -77.0728
   -42.8315 -42.8315 -42.8314 -42.8314 -42.8313 -42.8313 -42.8311 -42.8311
   -42.8311 -42.8311 -42.8311 -42.8311 -42.8311 -42.8311 -42.8310 -42.8310
   -42.8310 -42.8310 -42.8309 -42.8309 -42.8308 -42.8308 -42.8308 -42.8308
   -42.8280 -42.8280 -42.8262 -42.8262 -42.8262 -42.8262 -42.8260 -42.8260
   -42.8260 -42.8260 -42.8259 -42.8259 -42.8259 -42.8259 -42.8253 -42.8253
   -42.8253 -42.8253 -42.8250 -42.8250 -42.8250 -42.8250 -42.8245 -42.8245
   -42.8244 -42.8244 -42.8244 -42.8244 -42.8243 -42.8243 -42.8243 -42.8243
   -42.8237 -42.8237 -42.8237 -42.8237 -42.8236 -42.8236 -42.8234 -42.8234
   -42.8233 -42.8233 -42.8233 -42.8233 -42.8233 -42.8233 -42.8231 -42.8231
   -42.8231 -42.8231 -42.8230 -42.8230 -42.8228 -42.8228 -42.8228 -42.8228
   -42.8206 -42.8206 -42.8205 -42.8205 -42.8205 -42.8205 -42.8203 -42.8203
   -42.8201 -42.8201 -42.8201 -42.8201 -42.8201 -42.8201 -42.8199 -42.8199
     3.5932   3.5932   3.8070   3.8070   3.8070   3.8070   3.9138   3.9138
     4.2071   4.2071   4.2145   4.2145   4.2145   4.2145   4.2251   4.2251
     4.2251   4.2251   4.2301   4.2301   4.2301   4.2301   4.2370   4.2370
     4.2484   4.2484   4.2484   4.2484   4.2512   4.2512   4.2512   4.2512
     4.3887   4.3887   4.4070   4.4070   4.4070   4.4070   4.4925   4.4925
     4.4925   4.4925   4.4962   4.4962   4.4962   4.4962   4.5065   4.5065
     4.5065   4.5065   4.5576   4.5576   4.5661   4.5661   4.5661   4.5661
     4.6665   4.6665   4.7131   4.7131   4.7131   4.7131   4.7377   4.7377
     4.7429   4.7429   4.7578   4.7578   4.7600   4.7600   4.7639   4.7639
     4.7639   4.7639   4.7913   4.7913   4.7913   4.7913   4.8414   4.8414
     4.8414   4.8414   4.8497   4.8497   4.8497   4.8497   4.8555   4.8555
     4.8555   4.8555   4.8729   4.8729   4.8729   4.8729   4.8800   4.8800
     4.9297   4.9297   4.9297   4.9297   4.9304   4.9304   4.9559   4.9559
     4.9559   4.9559   4.9730   4.9730   4.9886   4.9886   5.0020   5.0020
     5.0020   5.0020   5.0208   5.0208   5.0208   5.0208   5.0319   5.0319
     5.0319   5.0319   5.0646   5.0646   5.0783   5.0783   5.0916   5.0916
     5.0916   5.0916   5.0976   5.0976   5.0976   5.0976   5.1071   5.1071
     5.1405   5.1405   5.1845   5.1845   5.1845   5.1845   5.2291   5.2291
     5.3691   5.3691   5.3691   5.3691   5.3724   5.3724   5.3751   5.3751
     5.3751   5.3751   5.3792   5.3792   5.3792   5.3792   5.3797   5.3797
     5.3797   5.3797   5.3881   5.3881   5.3881   5.3881   5.3921   5.3921
     7.1499   7.1499   7.1499   7.1499   7.4552   7.4552   7.5259   7.5259
     7.5259   7.5259   7.8551   7.8551   7.8551   7.8551   8.1626   8.1626
     8.1626   8.1626   8.2335   8.2335   8.5536   8.5536   8.5536   8.5536
     9.9377   9.9377  10.2466  10.2466  10.2466  10.2466  10.6394  10.6394
    10.6394  10.6394  10.9317  10.9317  10.9317  10.9317  11.1653  11.1653
    11.1653  11.1653  11.6233  11.6233  11.6233  11.6233  11.8464  11.8464
    13.1960  13.1968

          k = 0.2898-0.3725-0.3725 ( 73040 PWs)   bands (ev):

   -77.0734 -77.0734 -77.0734 -77.0734 -77.0733 -77.0733 -77.0733 -77.0733
   -77.0729 -77.0729 -77.0729 -77.0729 -77.0729 -77.0729 -77.0729 -77.0729
   -77.0729 -77.0729 -77.0729 -77.0729 -77.0729 -77.0729 -77.0729 -77.0729
   -77.0729 -77.0728 -77.0728 -77.0728 -77.0728 -77.0728 -77.0728 -77.0728
   -42.8313 -42.8313 -42.8313 -42.8313 -42.8313 -42.8313 -42.8313 -42.8313
   -42.8311 -42.8311 -42.8311 -42.8311 -42.8311 -42.8311 -42.8311 -42.8310
   -42.8310 -42.8310 -42.8310 -42.8310 -42.8310 -42.8310 -42.8310 -42.8310
   -42.8270 -42.8270 -42.8270 -42.8270 -42.8260 -42.8260 -42.8260 -42.8260
   -42.8253 -42.8253 -42.8253 -42.8253 -42.8252 -42.8252 -42.8252 -42.8252
   -42.8252 -42.8252 -42.8252 -42.8252 -42.8252 -42.8252 -42.8252 -42.8251
   -42.8251 -42.8251 -42.8251 -42.8251 -42.8244 -42.8244 -42.8244 -42.8244
   -42.8235 -42.8235 -42.8235 -42.8235 -42.8235 -42.8235 -42.8235 -42.8235
   -42.8234 -42.8234 -42.8234 -42.8234 -42.8231 -42.8231 -42.8231 -42.8231
   -42.8231 -42.8231 -42.8231 -42.8231 -42.8230 -42.8230 -42.8230 -42.8230
   -42.8204 -42.8204 -42.8204 -42.8204 -42.8203 -42.8203 -42.8203 -42.8203
   -42.8202 -42.8202 -42.8202 -42.8202 -42.8199 -42.8199 -42.8199 -42.8199
     3.6946   3.6946   3.6946   3.6946   3.8587   3.8587   3.8587   3.8587
     4.2242   4.2242   4.2242   4.2242   4.2245   4.2245   4.2245   4.2245
     4.2245   4.2245   4.2245   4.2245   4.2267   4.2267   4.2267   4.2267
     4.2410   4.2410   4.2410   4.2410   4.2410   4.2410   4.2410   4.2410
     4.4456   4.4456   4.4456   4.4456   4.4456   4.4456   4.4456   4.4456
     4.4602   4.4602   4.4602   4.4602   4.5337   4.5337   4.5337   4.5337
     4.5337   4.5337   4.5337   4.5337   4.5382   4.5382   4.5382   4.5382
     4.7034   4.7034   4.7034   4.7034   4.7410   4.7410   4.7410   4.7410
     4.7516   4.7516   4.7516   4.7516   4.7570   4.7570   4.7570   4.7570
     4.7665   4.7665   4.7665   4.7665   4.8520   4.8520   4.8520   4.8520
     4.8585   4.8585   4.8586   4.8586   4.8586   4.8586   4.8586   4.8586
     4.8715   4.8715   4.8715   4.8715   4.9071   4.9071   4.9071   4.9071
     4.9071   4.9071   4.9071   4.9071   4.9197   4.9198   4.9198   4.9198
     4.9539   4.9539   4.9539   4.9539   4.9744   4.9745   4.9745   4.9745
     4.9745   4.9745   4.9745   4.9745   5.0509   5.0509   5.0509   5.0509
     5.0509   5.0509   5.0509   5.0509   5.0512   5.0512   5.0513   5.0513
     5.0735   5.0735   5.0735   5.0735   5.1330   5.1330   5.1330   5.1330
     5.1415   5.1415   5.1415   5.1415   5.1659   5.1659   5.1659   5.1659
     5.3784   5.3784   5.3785   5.3785   5.3785   5.3785   5.3785   5.3785
     5.3815   5.3815   5.3815   5.3815   5.3853   5.3853   5.3853   5.3853
     5.3874   5.3874   5.3875   5.3875   5.3875   5.3875   5.3875   5.3875
     7.3198   7.3198   7.3199   7.3199   7.6385   7.6385   7.6385   7.6385
     7.6385   7.6385   7.6385   7.6385   8.0261   8.0261   8.0261   8.0261
     8.0261   8.0261   8.0261   8.0261   8.3416   8.3416   8.3416   8.3416
    10.4197  10.4197  10.4197  10.4197  10.4197  10.4197  10.4197  10.4197
    10.6968  10.6968  10.6968  10.6968  11.1167  11.1167  11.1167  11.1167
    11.3802  11.3802  11.3802  11.3802  11.3802  11.3802  11.3802  11.3802
    13.4020  13.4021

          k =-0.3725-0.3725-0.3725 ( 72888 PWs)   bands (ev):

   -77.0734 -77.0734 -77.0734 -77.0734 -77.0734 -77.0734 -77.0734 -77.0734
   -77.0729 -77.0729 -77.0729 -77.0729 -77.0729 -77.0729 -77.0729 -77.0729
   -77.0729 -77.0729 -77.0729 -77.0729 -77.0729 -77.0729 -77.0729 -77.0729
   -77.0729 -77.0728 -77.0728 -77.0728 -77.0728 -77.0728 -77.0728 -77.0728
   -42.8311 -42.8311 -42.8311 -42.8311 -42.8311 -42.8311 -42.8311 -42.8311
   -42.8311 -42.8311 -42.8311 -42.8311 -42.8311 -42.8311 -42.8311 -42.8311
   -42.8311 -42.8311 -42.8311 -42.8311 -42.8311 -42.8311 -42.8311 -42.8311
   -42.8262 -42.8262 -42.8262 -42.8262 -42.8261 -42.8261 -42.8261 -42.8261
   -42.8252 -42.8252 -42.8252 -42.8252 -42.8252 -42.8251 -42.8251 -42.8251
   -42.8251 -42.8251 -42.8251 -42.8251 -42.8251 -42.8251 -42.8251 -42.8251
   -42.8251 -42.8251 -42.8251 -42.8251 -42.8251 -42.8251 -42.8251 -42.8251
   -42.8233 -42.8233 -42.8233 -42.8233 -42.8233 -42.8233 -42.8233 -42.8233
   -42.8233 -42.8233 -42.8233 -42.8233 -42.8233 -42.8233 -42.8233 -42.8233
   -42.8233 -42.8233 -42.8233 -42.8232 -42.8232 -42.8232 -42.8232 -42.8232
   -42.8201 -42.8201 -42.8201 -42.8201 -42.8201 -42.8201 -42.8201 -42.8201
   -42.8201 -42.8201 -42.8201 -42.8201 -42.8201 -42.8201 -42.8201 -42.8201
     3.7737   3.7737   3.7737   3.7737   3.7737   3.7737   3.7737   3.7737
     4.2288   4.2288   4.2288   4.2288   4.2288   4.2288   4.2288   4.2288
     4.2288   4.2288   4.2288   4.2288   4.2288   4.2288   4.2288   4.2288
     4.2288   4.2288   4.2288   4.2288   4.2288   4.2288   4.2288   4.2288
     4.4957   4.4957   4.4957   4.4957   4.4957   4.4957   4.4957   4.4957
     4.4957   4.4957   4.4957   4.4957   4.4957   4.4957   4.4957   4.4957
     4.4957   4.4957   4.4957   4.4957   4.4957   4.4957   4.4957   4.4957
     4.7510   4.7510   4.7510   4.7510   4.7510   4.7510   4.7510   4.7510
     4.7510   4.7510   4.7510   4.7510   4.7510   4.7510   4.7510   4.7510
     4.7931   4.7931   4.7931   4.7931   4.7931   4.7931   4.7931   4.7931
     4.8853   4.8853   4.8853   4.8853   4.8853   4.8853   4.8853   4.8853
     4.8853   4.8853   4.8853   4.8853   4.8853   4.8853   4.8853   4.8853
     4.8853   4.8853   4.8853   4.8853   4.8853   4.8853   4.8853   4.8853
     5.0025   5.0025   5.0025   5.0025   5.0025   5.0025   5.0025   5.0025
     5.0025   5.0025   5.0025   5.0025   5.0025   5.0025   5.0025   5.0025
     5.0025   5.0025   5.0025   5.0025   5.0025   5.0025   5.0025   5.0025
     5.1191   5.1191   5.1191   5.1191   5.1191   5.1191   5.1191   5.1191
     5.1191   5.1191   5.1191   5.1191   5.1191   5.1191   5.1191   5.1191
     5.3875   5.3875   5.3875   5.3875   5.3875   5.3875   5.3875   5.3875
     5.3875   5.3875   5.3875   5.3875   5.3875   5.3875   5.3875   5.3875
     5.3875   5.3875   5.3875   5.3875   5.3875   5.3875   5.3875   5.3875
     7.8148   7.8148   7.8148   7.8148   7.8148   7.8148   7.8148   7.8148
     7.8148   7.8148   7.8148   7.8148   7.8148   7.8148   7.8148   7.8148
     7.8148   7.8148   7.8148   7.8148   7.8148   7.8148   7.8148   7.8148
    10.8872  10.8872  10.8872  10.8872  10.8872  10.8872  10.8872  10.8872
    10.8872  10.8872  10.8872  10.8872  10.8872  10.8872  10.8872  10.8872
    10.8872  10.8872  10.8872  10.8872  10.8872  10.8872  10.8872  10.8872
    14.1839  14.1846

     the Fermi energy is     5.5439 ev

!    total energy              =  -16379.99208507 Ry

     total all-electron energy =   -322940.845792 Ry
     estimated scf accuracy    <       0.00000024 Ry
     smearing contrib. (-TS)   =       0.70386905 Ry
     internal energy E=F+TS    =  -16380.69595412 Ry

     The total energy is F=E-TS. E is the sum of the following terms:
     one-electron contribution =   -4941.82770481 Ry
     hartree contribution      =    2627.49146362 Ry
     xc contribution           =    -980.22365332 Ry
     ewald contribution        =   -4919.28730775 Ry
     one-center paw contrib.   =   -8166.84875186 Ry

     convergence has been achieved in  18 iterations

     Forces acting on atoms (cartesian axes, Ry/au):

     atom    1 type  1   force =     0.00000000    0.00000000    0.00000000
     atom    2 type  1   force =    -0.00000006   -0.00000006    0.00000000
     atom    3 type  1   force =    -0.00000006   -0.00000000   -0.00000006
     atom    4 type  1   force =     0.00000000   -0.00000006   -0.00000006
     atom    5 type  1   force =     0.00000000    0.00000000    0.00000000
     atom    6 type  1   force =    -0.00000651   -0.00000651    0.00000000
     atom    7 type  1   force =    -0.00000006    0.00000000    0.00000006
     atom    8 type  1   force =     0.00000000   -0.00000006    0.00000006
     atom    9 type  1   force =     0.00000000    0.00000000    0.00000000
     atom   10 type  1   force =    -0.00000006    0.00000006    0.00000000
     atom   11 type  1   force =    -0.00000651    0.00000000   -0.00000651
     atom   12 type  1   force =     0.00000000    0.00000006   -0.00000006
     atom   13 type  1   force =     0.00000000    0.00000000    0.00000000
     atom   14 type  1   force =    -0.00000651    0.00000651   -0.00000000
     atom   15 type  1   force =    -0.00000651   -0.00000000    0.00000651
     atom   16 type  1   force =     0.00000000    0.00000006    0.00000006
     atom   17 type  1   force =     0.00000000    0.00000000    0.00000000
     atom   18 type  1   force =     0.00000006   -0.00000006    0.00000000
     atom   19 type  1   force =     0.00000006    0.00000000   -0.00000006
     atom   20 type  1   force =     0.00000000   -0.00000651   -0.00000651
     atom   21 type  1   force =     0.00000000    0.00000000    0.00000000
     atom   22 type  1   force =     0.00000651   -0.00000651    0.00000000
     atom   23 type  1   force =     0.00000006   -0.00000000    0.00000006
     atom   24 type  1   force =    -0.00000000   -0.00000651    0.00000651
     atom   25 type  1   force =     0.00000000    0.00000000    0.00000000
     atom   26 type  1   force =     0.00000006    0.00000006    0.00000000
     atom   27 type  1   force =     0.00000651   -0.00000000   -0.00000651
     atom   28 type  1   force =     0.00000000    0.00000651   -0.00000651
     atom   29 type  1   force =     0.00000000    0.00000000    0.00000000
     atom   30 type  1   force =     0.00000651    0.00000651   -0.00000000
     atom   31 type  1   force =     0.00000651   -0.00000000    0.00000651
     atom   32 type  1   force =    -0.00000000    0.00000651    0.00000651

     Total force =     0.000032     Total SCF correction =     0.000090
     SCF correction compared to forces is large: reduce conv_thr to get better values


     Computing stress (Cartesian axis) and pressure

          total   stress  (Ry/bohr**3)                   (kbar)     P=     -156.61
  -0.00106463   0.00000000   0.00000000         -156.61        0.00        0.00
   0.00000000  -0.00106463   0.00000000            0.00     -156.61        0.00
   0.00000000   0.00000000  -0.00106463            0.00        0.00     -156.61


     Writing output data file /scratch/zhwzgnzADTrepulT.save/
 
     init_run     :     25.93s CPU     26.47s WALL (       1 calls)
     electrons    :   1262.36s CPU   1280.49s WALL (       1 calls)
     forces       :      8.79s CPU      8.89s WALL (       1 calls)
     stress       :    104.99s CPU    105.62s WALL (       1 calls)

     Called by init_run:
     wfcinit      :     24.41s CPU     24.84s WALL (       1 calls)
     potinit      :      0.16s CPU      0.18s WALL (       1 calls)
     hinit0       :      0.58s CPU      0.58s WALL (       1 calls)

     Called by electrons:
     c_bands      :   1125.63s CPU   1141.02s WALL (      18 calls)
     sum_band     :    133.09s CPU    135.25s WALL (      18 calls)
     v_of_rho     :      0.47s CPU      0.52s WALL (      19 calls)
     newd         :      1.02s CPU      1.45s WALL (      19 calls)
     PAW_pot      :      1.63s CPU      1.73s WALL (      19 calls)
     mix_rho      :      0.16s CPU      0.18s WALL (      18 calls)

     Called by c_bands:
     init_us_2    :      7.16s CPU      7.24s WALL (    1365 calls)
     cegterg      :   1102.14s CPU   1116.98s WALL (     630 calls)

     Called by *egterg:
     cdiaghg      :     83.81s CPU     85.72s WALL (    1960 calls)
     h_psi        :    559.07s CPU    566.63s WALL (    1995 calls)
     s_psi        :     49.71s CPU     50.06s WALL (    1995 calls)
     g_psi        :      1.86s CPU      1.90s WALL (    1330 calls)

     Called by h_psi:
     h_psi:calbec :     77.01s CPU     77.79s WALL (    1995 calls)
     vloc_psi     :    428.19s CPU    434.24s WALL (    1995 calls)
     add_vuspsi   :     49.83s CPU     50.39s WALL (    1995 calls)

     General routines
     calbec       :    123.75s CPU    124.89s WALL (    2800 calls)
     fft          :      0.62s CPU      0.64s WALL (     270 calls)
     ffts         :      0.19s CPU      0.20s WALL (      37 calls)
     fftw         :    500.28s CPU    507.15s WALL ( 1224790 calls)
     interpolate  :      0.34s CPU      0.36s WALL (      19 calls)
 
     Parallel routines
     fft_scatt_xy :     35.87s CPU     36.30s WALL ( 1225097 calls)
     fft_scatt_yz :    395.26s CPU    400.98s WALL ( 1225097 calls)
 
     PWSCF        :  23m36.45s CPU  24m 0.25s WALL

 
   This run was terminated on:  21:13:35  26Nov2021            

=------------------------------------------------------------------------------=
   JOB DONE.
=------------------------------------------------------------------------------=
