
     Program PWSCF v.6.7MaX starts on 26Nov2021 at 20:13:11 

     This program is part of the open-source Quantum ESPRESSO suite
     for quantum simulation of materials; please cite
         "P. Giannozzi et al., J. Phys.:Condens. Matter 21 395502 (2009);
         "P. Giannozzi et al., J. Phys.:Condens. Matter 29 465901 (2017);
          URL http://www.quantum-espresso.org", 
     in publications or presentations arising from this work. More details at
     http://www.quantum-espresso.org/quote

     Parallel version (MPI & OpenMP), running on      72 processor cores
     Number of MPI processes:                72
     Threads/MPI process:                     1

     MPI processes distributed on     1 nodes
     R & G space division:  proc/nbgrp/npool/nimage =      72
     Reading input from fcc_8.in
Warning: card &CELL ignored
Warning: card CELL_DYNAMICS = 'BFGS', ignored
Warning: card CELL_FACTOR = 2.0, ignored
Warning: card PRESS = 0.0, ignored
Warning: card / ignored

     Current dimensions of program PWSCF are:
     Max number of different atomic species (ntypx) = 10
     Max number of k-points (npk) =  40000
     Max angular momentum in pseudopotentials (lmaxx) =  3
     file Pd.pbe-spn-kjpaw_psl.1.0.0.UPF: wavefunction(s)  4S 5S 4D renormalized

     Subspace diagonalization in iterative solution of the eigenvalue problem:
     one sub-group per band group will be used
     ELPA distributed-memory algorithm (size of sub-group:  8*  8 procs)

     Found symmetry operation: I + (  0.2500  0.2500  0.0000)
     This is a supercell, fractional translations are disabled
     Message from routine setup:
     using ibrav=0 with symmetry is DISCOURAGED, use correct ibrav instead
 
     Parallelization info
     --------------------
     sticks:   dense  smooth     PW     G-vecs:    dense   smooth      PW
     Min         144      95     25                11078     5939     828
     Max         145      96     27                11085     5946     832
     Sum       10405    6861   1861               797863   427793   59757
 


     bravais-lattice index     =            0
     lattice parameter (alat)  =      14.4000  a.u.
     unit-cell volume          =    5296.7586 (a.u.)^3
     number of atoms/cell      =           32
     number of atomic types    =            1
     number of electrons       =       576.00
     number of Kohn-Sham states=          346
     kinetic-energy cutoff     =      71.0000  Ry
     charge density cutoff     =     430.0000  Ry
     scf convergence threshold =      1.0E-06
     mixing beta               =       0.1000
     number of iterations used =           10  TF        mixing
     Exchange-correlation= SLA  PW   PBX  PBC
                           (   1   4   3   4   0   0   0)

     celldm(1)=  14.400000  celldm(2)=   0.000000  celldm(3)=   0.000000
     celldm(4)=   0.000000  celldm(5)=   0.000000  celldm(6)=   0.000000

     crystal axes: (cart. coord. in units of alat)
               a(1) = (   1.210526   0.000000   0.000000 )  
               a(2) = (   0.000000   1.210526   0.000000 )  
               a(3) = (   0.000000   0.000000   1.210526 )  

     reciprocal axes: (cart. coord. in units 2 pi/alat)
               b(1) = (  0.826087  0.000000  0.000000 )  
               b(2) = (  0.000000  0.826087  0.000000 )  
               b(3) = (  0.000000  0.000000  0.826087 )  


     PseudoPot. # 1 for Pd read from file:
     /rds/homes/b/bxp912/pp/Pd.pbe-spn-kjpaw_psl.1.0.0.UPF
     MD5 check sum: 790f2ebce206edfd9790dcb9844eca51
     Pseudo is Projector augmented-wave + core cor, Zval = 18.0
     Generated using &quot;atomic&quot; code by A. Dal Corso  v.6.3
     Shape of augmentation charge: PSQ
     Using radial grid of 1235 points,  6 beta functions with: 
                l(1) =   0
                l(2) =   0
                l(3) =   1
                l(4) =   1
                l(5) =   2
                l(6) =   2
     Q(r) pseudized with 0 coefficients 


     atomic species   valence    mass     pseudopotential
        Pd            18.00   106.42000     Pd( 1.00)

     48 Sym. Ops., with inversion, found



   Cartesian axes

     site n.     atom                  positions (alat units)
         1           Pd  tau(   1) = (   0.0000000   0.0000000   0.0000000  )
         2           Pd  tau(   2) = (   0.3026316   0.3026316   0.0000000  )
         3           Pd  tau(   3) = (   0.3026316   0.0000000   0.3026316  )
         4           Pd  tau(   4) = (   0.0000000   0.3026316   0.3026316  )
         5           Pd  tau(   5) = (   0.0000000   0.0000000   0.6052632  )
         6           Pd  tau(   6) = (   0.3026316   0.3026316   0.6052632  )
         7           Pd  tau(   7) = (   0.3026316   0.0000000   0.9078947  )
         8           Pd  tau(   8) = (   0.0000000   0.3026316   0.9078947  )
         9           Pd  tau(   9) = (   0.0000000   0.6052632   0.0000000  )
        10           Pd  tau(  10) = (   0.3026316   0.9078947   0.0000000  )
        11           Pd  tau(  11) = (   0.3026316   0.6052632   0.3026316  )
        12           Pd  tau(  12) = (   0.0000000   0.9078947   0.3026316  )
        13           Pd  tau(  13) = (   0.0000000   0.6052632   0.6052632  )
        14           Pd  tau(  14) = (   0.3026316   0.9078947   0.6052632  )
        15           Pd  tau(  15) = (   0.3026316   0.6052632   0.9078947  )
        16           Pd  tau(  16) = (   0.0000000   0.9078947   0.9078947  )
        17           Pd  tau(  17) = (   0.6052632   0.0000000   0.0000000  )
        18           Pd  tau(  18) = (   0.9078947   0.3026316   0.0000000  )
        19           Pd  tau(  19) = (   0.9078947   0.0000000   0.3026316  )
        20           Pd  tau(  20) = (   0.6052632   0.3026316   0.3026316  )
        21           Pd  tau(  21) = (   0.6052632   0.0000000   0.6052632  )
        22           Pd  tau(  22) = (   0.9078947   0.3026316   0.6052632  )
        23           Pd  tau(  23) = (   0.9078947   0.0000000   0.9078947  )
        24           Pd  tau(  24) = (   0.6052632   0.3026316   0.9078947  )
        25           Pd  tau(  25) = (   0.6052632   0.6052632   0.0000000  )
        26           Pd  tau(  26) = (   0.9078947   0.9078947   0.0000000  )
        27           Pd  tau(  27) = (   0.9078947   0.6052632   0.3026316  )
        28           Pd  tau(  28) = (   0.6052632   0.9078947   0.3026316  )
        29           Pd  tau(  29) = (   0.6052632   0.6052632   0.6052632  )
        30           Pd  tau(  30) = (   0.9078947   0.9078947   0.6052632  )
        31           Pd  tau(  31) = (   0.9078947   0.6052632   0.9078947  )
        32           Pd  tau(  32) = (   0.6052632   0.9078947   0.9078947  )

     number of k points=    35  Marzari-Vanderbilt smearing, width (Ry)=  0.0400
                       cart. coord. in units 2pi/alat
        k(    1) = (   0.0458937   0.0458937   0.0458937), wk =   0.0219479
        k(    2) = (   0.0458937   0.0458937   0.1376812), wk =   0.0658436
        k(    3) = (   0.0458937   0.0458937   0.2294686), wk =   0.0658436
        k(    4) = (   0.0458937   0.0458937   0.3212560), wk =   0.0658436
        k(    5) = (   0.0458937   0.0458937  -0.4130435), wk =   0.0329218
        k(    6) = (   0.0458937   0.1376812   0.1376812), wk =   0.0658436
        k(    7) = (   0.0458937   0.1376812   0.2294686), wk =   0.1316872
        k(    8) = (   0.0458937   0.1376812   0.3212560), wk =   0.1316872
        k(    9) = (   0.0458937   0.1376812  -0.4130435), wk =   0.0658436
        k(   10) = (   0.0458937   0.2294686   0.2294686), wk =   0.0658436
        k(   11) = (   0.0458937   0.2294686   0.3212560), wk =   0.1316872
        k(   12) = (   0.0458937   0.2294686  -0.4130435), wk =   0.0658436
        k(   13) = (   0.0458937   0.3212560   0.3212560), wk =   0.0658436
        k(   14) = (   0.0458937   0.3212560  -0.4130435), wk =   0.0658436
        k(   15) = (   0.0458937  -0.4130435  -0.4130435), wk =   0.0164609
        k(   16) = (   0.1376812   0.1376812   0.1376812), wk =   0.0219479
        k(   17) = (   0.1376812   0.1376812   0.2294686), wk =   0.0658436
        k(   18) = (   0.1376812   0.1376812   0.3212560), wk =   0.0658436
        k(   19) = (   0.1376812   0.1376812  -0.4130435), wk =   0.0329218
        k(   20) = (   0.1376812   0.2294686   0.2294686), wk =   0.0658436
        k(   21) = (   0.1376812   0.2294686   0.3212560), wk =   0.1316872
        k(   22) = (   0.1376812   0.2294686  -0.4130435), wk =   0.0658436
        k(   23) = (   0.1376812   0.3212560   0.3212560), wk =   0.0658436
        k(   24) = (   0.1376812   0.3212560  -0.4130435), wk =   0.0658436
        k(   25) = (   0.1376812  -0.4130435  -0.4130435), wk =   0.0164609
        k(   26) = (   0.2294686   0.2294686   0.2294686), wk =   0.0219479
        k(   27) = (   0.2294686   0.2294686   0.3212560), wk =   0.0658436
        k(   28) = (   0.2294686   0.2294686  -0.4130435), wk =   0.0329218
        k(   29) = (   0.2294686   0.3212560   0.3212560), wk =   0.0658436
        k(   30) = (   0.2294686   0.3212560  -0.4130435), wk =   0.0658436
        k(   31) = (   0.2294686  -0.4130435  -0.4130435), wk =   0.0164609
        k(   32) = (   0.3212560   0.3212560   0.3212560), wk =   0.0219479
        k(   33) = (   0.3212560   0.3212560  -0.4130435), wk =   0.0329218
        k(   34) = (   0.3212560  -0.4130435  -0.4130435), wk =   0.0164609
        k(   35) = (  -0.4130435  -0.4130435  -0.4130435), wk =   0.0027435

     Dense  grid:   797863 G-vectors     FFT dimensions: ( 120, 120, 120)

     Smooth grid:   427793 G-vectors     FFT dimensions: (  96,  96,  96)

     Estimated max dynamical RAM per process >     204.18 MB

     Estimated total dynamical RAM >      14.36 GB

     Check: negative core charge=   -0.000001

     Initial potential from superposition of free atoms

     starting charge  575.98776, renormalised to  576.00000
     Starting wfcs are  320 randomized atomic wfcs +   26 random wfcs
     Checking if some PAW data can be deallocated... 

     total cpu time spent up to now is       20.3 secs

     Self-consistent Calculation

     iteration #  1     ecut=    71.00 Ry     beta= 0.10
     Davidson diagonalization with overlap
     ethr =  1.00E-02,  avg # of iterations =  3.1

     Threshold (ethr) on eigenvalues was too large:
     Diagonalizing with lowered threshold

     Davidson diagonalization with overlap
     ethr =  9.58E-04,  avg # of iterations =  1.0

     total cpu time spent up to now is      125.0 secs

     total energy              =  -16383.19747480 Ry
     estimated scf accuracy    <       5.40942374 Ry

     iteration #  2     ecut=    71.00 Ry     beta= 0.10
     Davidson diagonalization with overlap
     ethr =  9.39E-04,  avg # of iterations =  1.0

     total cpu time spent up to now is      175.4 secs

     total energy              =  -16381.88721069 Ry
     estimated scf accuracy    <       3.54381521 Ry

     iteration #  3     ecut=    71.00 Ry     beta= 0.10
     Davidson diagonalization with overlap
     ethr =  6.15E-04,  avg # of iterations =  2.0

     total cpu time spent up to now is      238.8 secs

     total energy              =  -16382.43064591 Ry
     estimated scf accuracy    <       0.10722085 Ry

     iteration #  4     ecut=    71.00 Ry     beta= 0.10
     Davidson diagonalization with overlap
     ethr =  1.86E-05,  avg # of iterations =  3.6

     total cpu time spent up to now is      294.8 secs

     total energy              =  -16382.40515708 Ry
     estimated scf accuracy    <       0.04927353 Ry

     iteration #  5     ecut=    71.00 Ry     beta= 0.10
     Davidson diagonalization with overlap
     ethr =  8.55E-06,  avg # of iterations =  3.0

     total cpu time spent up to now is      365.4 secs

     total energy              =  -16382.41171129 Ry
     estimated scf accuracy    <       0.00552021 Ry

     iteration #  6     ecut=    71.00 Ry     beta= 0.10
     Davidson diagonalization with overlap
     c_bands:  1 eigenvalues not converged
     ethr =  9.58E-07,  avg # of iterations =  4.3

     total cpu time spent up to now is      416.3 secs

     total energy              =  -16382.41245696 Ry
     estimated scf accuracy    <       0.00303155 Ry

     iteration #  7     ecut=    71.00 Ry     beta= 0.10
     Davidson diagonalization with overlap
     ethr =  5.26E-07,  avg # of iterations =  1.0

     total cpu time spent up to now is      457.6 secs

     total energy              =  -16382.41325411 Ry
     estimated scf accuracy    <       0.00153360 Ry

     iteration #  8     ecut=    71.00 Ry     beta= 0.10
     Davidson diagonalization with overlap
     ethr =  2.66E-07,  avg # of iterations =  2.0

     total cpu time spent up to now is      510.7 secs

     total energy              =  -16382.41333410 Ry
     estimated scf accuracy    <       0.00035277 Ry

     iteration #  9     ecut=    71.00 Ry     beta= 0.10
     Davidson diagonalization with overlap
     ethr =  6.12E-08,  avg # of iterations =  2.0

     total cpu time spent up to now is      582.8 secs

     total energy              =  -16382.41341906 Ry
     estimated scf accuracy    <       0.00034627 Ry

     iteration # 10     ecut=    71.00 Ry     beta= 0.10
     Davidson diagonalization with overlap
     ethr =  6.01E-08,  avg # of iterations =  2.0

     total cpu time spent up to now is      634.9 secs

     total energy              =  -16382.41345703 Ry
     estimated scf accuracy    <       0.00005184 Ry

     iteration # 11     ecut=    71.00 Ry     beta= 0.10
     Davidson diagonalization with overlap
     ethr =  9.00E-09,  avg # of iterations =  2.0

     total cpu time spent up to now is      702.5 secs

     total energy              =  -16382.41347736 Ry
     estimated scf accuracy    <       0.00001850 Ry

     iteration # 12     ecut=    71.00 Ry     beta= 0.10
     Davidson diagonalization with overlap
     ethr =  3.21E-09,  avg # of iterations =  1.5

     total cpu time spent up to now is      746.3 secs

     total energy              =  -16382.41348262 Ry
     estimated scf accuracy    <       0.00001383 Ry

     iteration # 13     ecut=    71.00 Ry     beta= 0.10
     Davidson diagonalization with overlap
     ethr =  2.40E-09,  avg # of iterations =  2.0

     total cpu time spent up to now is      806.4 secs

     total energy              =  -16382.41348906 Ry
     estimated scf accuracy    <       0.00000142 Ry

     iteration # 14     ecut=    71.00 Ry     beta= 0.10
     Davidson diagonalization with overlap
     ethr =  2.47E-10,  avg # of iterations =  2.3

     total cpu time spent up to now is      865.9 secs

     End of self-consistent calculation

          k = 0.0459 0.0459 0.0459 ( 53577 PWs)   bands (ev):

   -73.5501 -73.5475 -73.5475 -73.5475 -73.5470 -73.5470 -73.5470 -73.5461
   -73.5461 -73.5461 -73.5459 -73.5458 -73.5458 -73.5458 -73.5458 -73.5458
   -73.5458 -73.5458 -73.5458 -73.5458 -73.5456 -73.5456 -73.5456 -73.5444
   -73.5444 -73.5444 -73.5444 -73.5444 -73.5444 -73.5444 -73.5444 -73.5444
   -39.3006 -39.3006 -39.3006 -39.3003 -39.2979 -39.2979 -39.2979 -39.2860
   -39.2860 -39.2860 -39.2853 -39.2853 -39.2853 -39.2853 -39.2853 -39.2853
   -39.2840 -39.2840 -39.2840 -39.2838 -39.2838 -39.2838 -39.2838 -39.2837
   -39.2837 -39.2811 -39.2811 -39.2811 -39.2811 -39.2811 -39.2811 -39.2743
   -39.2743 -39.2743 -39.2713 -39.2713 -39.2713 -39.2695 -39.2695 -39.2695
   -39.2691 -39.2691 -39.2691 -39.2690 -39.2690 -39.2690 -39.2671 -39.2671
   -39.2671 -39.2668 -39.2668 -39.2668 -39.2668 -39.2668 -39.2668 -39.2668
   -39.2668 -39.2668 -39.2667 -39.2667 -39.2666 -39.2570 -39.2570 -39.2570
   -39.2569 -39.2569 -39.2569 -39.2551 -39.2551 -39.2551 -39.2549 -39.2549
   -39.2549 -39.2548 -39.2548 -39.2548 -39.2541 -39.2541 -39.2541 -39.2539
   -39.2539 -39.2539 -39.2539 -39.2539 -39.2539 -39.2539 -39.2539 -39.2539
   -39.2537 -39.2537 -39.2528 -39.2528 -39.2528 -39.2452 -39.2450 -39.2450
     5.5002   6.9727   6.9727   6.9727   7.0010   7.0097   7.0097   7.0097
     7.0774   7.0774   7.0774   7.1549   7.1549   7.1549   7.1872   7.1872
     7.1872   7.5977   7.5977   7.5977   7.5978   7.5978   7.5978   7.6126
     7.6126   7.6126   7.6428   7.6428   7.6429   7.6929   7.6929   7.6929
     7.6929   7.6929   7.6929   7.6976   7.6976   7.6976   7.6982   7.6982
     7.6982   7.8966   7.8966   7.8966   7.8966   7.8966   7.8966   7.9411
     7.9411   7.9411   7.9523   7.9523   7.9523   7.9523   7.9523   7.9523
     7.9844   7.9844   7.9844   8.0686   8.0686   8.0686   8.0686   8.0686
     8.0686   8.1609   8.1609   8.1609   8.1673   8.1692   8.1692   8.1728
     8.1728   8.1728   8.1729   8.1729   8.1729   8.1743   8.1743   8.1743
     8.1756   8.1756   8.1805   8.1805   8.1805   8.2149   8.2149   8.2149
     8.5888   8.5888   8.5888   8.5922   8.5922   8.5922   8.6296   8.6296
     8.6296   8.6297   8.6297   8.6297   8.6297   8.6297   8.6297   8.6814
     8.6814   8.6814   8.7027   8.7027   8.7027   8.7650   8.7650   8.7650
     8.7917   8.7917   8.7917   8.8130   8.8130   8.8130   8.8566   8.8566
     8.8700   8.8700   8.8700   8.8700   8.8700   8.8700   8.8787   8.8787
     8.8787   8.8787   8.8788   8.8788   8.9260   8.9260   8.9260   8.9269
     8.9269   8.9269   9.0834   9.0834   9.0834   9.1284   9.1284   9.1284
     9.3335   9.3335   9.3335   9.3483   9.3483   9.3483   9.3613   9.3613
     9.3696   9.3696   9.3696   9.4762   9.4762   9.4762   9.4909   9.4909
     9.4909   9.4909   9.4909   9.4909   9.4922   9.4922   9.4922  10.5904
    10.5904  10.5904  10.9581  10.9581  10.9581  10.9581  10.9581  10.9581
    11.2316  11.3454  11.3454  11.3454  11.4327  11.4327  11.4327  12.8551
    12.8551  12.8551  13.7244  13.7244  13.7244  13.9039  15.6225  15.6225
    15.6225  15.6225  15.6225  15.6225  16.0701  16.0701  16.0701  16.0701
    16.0701  16.0701  16.0931  16.0931  16.0931  16.5739  16.5739  16.5739
    16.5739  16.5739  16.5739  17.7198  17.7198  17.7198  18.0390  18.0391
    18.0391  18.0391

          k = 0.0459 0.0459 0.1377 ( 53498 PWs)   bands (ev):

   -73.5500 -73.5480 -73.5475 -73.5475 -73.5470 -73.5470 -73.5465 -73.5464
   -73.5463 -73.5461 -73.5460 -73.5460 -73.5459 -73.5458 -73.5458 -73.5458
   -73.5458 -73.5458 -73.5456 -73.5455 -73.5455 -73.5454 -73.5454 -73.5445
   -73.5444 -73.5444 -73.5444 -73.5444 -73.5444 -73.5444 -73.5444 -73.5444
   -39.3001 -39.2999 -39.2999 -39.2994 -39.2975 -39.2975 -39.2972 -39.2877
   -39.2868 -39.2868 -39.2864 -39.2864 -39.2863 -39.2863 -39.2861 -39.2861
   -39.2855 -39.2844 -39.2844 -39.2842 -39.2841 -39.2836 -39.2836 -39.2824
   -39.2824 -39.2815 -39.2815 -39.2806 -39.2806 -39.2788 -39.2784 -39.2784
   -39.2750 -39.2750 -39.2736 -39.2735 -39.2712 -39.2712 -39.2705 -39.2705
   -39.2695 -39.2677 -39.2676 -39.2674 -39.2673 -39.2668 -39.2668 -39.2668
   -39.2667 -39.2667 -39.2667 -39.2667 -39.2664 -39.2661 -39.2660 -39.2659
   -39.2659 -39.2652 -39.2649 -39.2645 -39.2645 -39.2588 -39.2588 -39.2573
   -39.2573 -39.2564 -39.2564 -39.2559 -39.2559 -39.2554 -39.2554 -39.2553
   -39.2553 -39.2549 -39.2547 -39.2546 -39.2545 -39.2544 -39.2544 -39.2540
   -39.2540 -39.2539 -39.2539 -39.2539 -39.2539 -39.2536 -39.2535 -39.2535
   -39.2532 -39.2531 -39.2527 -39.2520 -39.2520 -39.2461 -39.2453 -39.2452
     5.5496   6.7282   7.0061   7.0061   7.0141   7.0315   7.0316   7.0400
     7.0927   7.1014   7.1014   7.1865   7.1865   7.2008   7.2075   7.2075
     7.2498   7.5266   7.5296   7.5536   7.5536   7.5770   7.5770   7.5779
     7.5779   7.6010   7.6127   7.6127   7.6173   7.6173   7.6252   7.6252
     7.6713   7.6713   7.6978   7.6978   7.7089   7.7089   7.7356   7.7356
     7.7428   7.7428   7.7839   7.8912   7.8912   7.8978   7.8978   7.9128
     7.9128   7.9175   7.9176   7.9507   7.9507   8.0017   8.0051   8.0051
     8.0123   8.0123   8.0294   8.0534   8.0534   8.0709   8.0709   8.1020
     8.1020   8.1332   8.1332   8.1442   8.1442   8.1457   8.1523   8.1529
     8.1529   8.1703   8.1800   8.1897   8.1909   8.1912   8.1912   8.1952
     8.2139   8.2139   8.2554   8.2554   8.2626   8.2626   8.2855   8.2905
     8.4892   8.4892   8.5257   8.5298   8.5672   8.5672   8.5709   8.5709
     8.5724   8.5774   8.6054   8.6054   8.6633   8.6723   8.6723   8.6725
     8.6725   8.6754   8.6754   8.6953   8.6953   8.7687   8.7687   8.7841
     8.7841   8.8404   8.8513   8.8513   8.8518   8.8590   8.8590   8.8640
     8.8679   8.8679   8.8723   8.8724   8.8852   8.9052   8.9111   8.9112
     8.9465   8.9465   8.9605   8.9605   8.9845   8.9908   8.9908   9.0263
     9.0263   9.0397   9.1080   9.1080   9.1734   9.1805   9.1805   9.1925
     9.2527   9.2651   9.2651   9.3249   9.3252   9.3252   9.3339   9.3386
     9.3586   9.3596   9.3596   9.4012   9.4012   9.4488   9.4621   9.4621
     9.4625   9.4625   9.4674   9.4908   9.4908   9.4909   9.4909  10.2719
    10.2719  10.5958  10.6144  10.6144  10.9711  10.9712  11.0262  11.3641
    11.3691  11.3691  11.3803  11.3803  11.5698  11.7811  11.7811  12.4686
    12.9752  12.9752  13.7380  13.9227  13.9227  14.2277  14.9676  14.9676
    15.1855  15.1855  15.3330  15.3330  15.7800  15.7800  16.0988  16.0988
    16.1918  16.1918  16.2047  16.2047  16.5673  16.8673  16.8673  16.8839
    16.8840  16.9393  16.9479  16.9479  17.3342  17.3342  17.3620  17.3620
    17.7482  17.7482

          k = 0.0459 0.0459 0.2295 ( 53512 PWs)   bands (ev):

   -73.5499 -73.5485 -73.5474 -73.5474 -73.5469 -73.5469 -73.5466 -73.5466
   -73.5463 -73.5462 -73.5461 -73.5460 -73.5459 -73.5458 -73.5458 -73.5458
   -73.5458 -73.5457 -73.5456 -73.5453 -73.5453 -73.5451 -73.5451 -73.5447
   -73.5445 -73.5445 -73.5445 -73.5445 -73.5444 -73.5444 -73.5444 -73.5444
   -39.2991 -39.2986 -39.2986 -39.2978 -39.2966 -39.2966 -39.2956 -39.2902
   -39.2893 -39.2892 -39.2890 -39.2890 -39.2879 -39.2865 -39.2865 -39.2863
   -39.2863 -39.2852 -39.2852 -39.2837 -39.2837 -39.2829 -39.2828 -39.2828
   -39.2817 -39.2816 -39.2806 -39.2806 -39.2797 -39.2797 -39.2762 -39.2762
   -39.2759 -39.2759 -39.2757 -39.2757 -39.2733 -39.2733 -39.2721 -39.2721
   -39.2685 -39.2685 -39.2668 -39.2668 -39.2668 -39.2668 -39.2667 -39.2661
   -39.2659 -39.2650 -39.2649 -39.2647 -39.2647 -39.2646 -39.2645 -39.2645
   -39.2645 -39.2631 -39.2624 -39.2624 -39.2607 -39.2606 -39.2606 -39.2581
   -39.2581 -39.2573 -39.2573 -39.2570 -39.2570 -39.2564 -39.2561 -39.2561
   -39.2558 -39.2558 -39.2556 -39.2556 -39.2548 -39.2546 -39.2542 -39.2539
   -39.2539 -39.2539 -39.2539 -39.2535 -39.2535 -39.2534 -39.2534 -39.2534
   -39.2528 -39.2518 -39.2518 -39.2513 -39.2512 -39.2480 -39.2459 -39.2457
     5.6475   6.4628   7.0492   7.0705   7.0705   7.0750   7.0750   7.0913
     7.1218   7.1480   7.1480   7.2277   7.2473   7.2473   7.2481   7.2481
     7.2708   7.3982   7.4472   7.4473   7.4517   7.4777   7.4777   7.4786
     7.4912   7.4912   7.6071   7.6071   7.6190   7.6190   7.6391   7.6391
     7.6501   7.6502   7.6551   7.6551   7.6985   7.6985   7.7298   7.7298
     7.7743   7.7743   7.8596   7.8596   7.8670   7.8824   7.8824   7.8853
     7.8853   7.8983   7.8983   7.9298   7.9298   7.9995   7.9995   8.0219
     8.0284   8.0284   8.0347   8.0347   8.0488   8.0488   8.0746   8.0746
     8.0850   8.1008   8.1008   8.1150   8.1150   8.1203   8.1245   8.1391
     8.1391   8.1645   8.2004   8.2004   8.2064   8.2203   8.2212   8.2230
     8.2230   8.2311   8.3897   8.3897   8.4085   8.4085   8.4360   8.4360
     8.4404   8.4458   8.4514   8.4550   8.4550   8.4711   8.4822   8.4949
     8.5020   8.5021   8.6350   8.6445   8.6445   8.6724   8.6724   8.7264
     8.7264   8.7298   8.7298   8.7546   8.7546   8.7614   8.7614   8.7804
     8.7804   8.8092   8.8488   8.8488   8.8616   8.8616   8.8735   8.8735
     8.8786   8.9005   8.9005   8.9758   8.9815   8.9816   8.9907   8.9985
     9.0181   9.0270   9.0270   9.0340   9.0341   9.0527   9.0527   9.0640
     9.0697   9.0697   9.1309   9.1489   9.1489   9.1973   9.1973   9.2177
     9.2198   9.2509   9.2509   9.2886   9.2933   9.2933   9.3181   9.3258
     9.3258   9.3286   9.3450   9.3450   9.3957   9.4079   9.4079   9.4085
     9.4085   9.4211   9.4906   9.4906   9.4908   9.4908   9.5912   9.9954
     9.9954  10.3080  10.3080  10.6083  10.8592  10.9981  10.9981  11.2745
    11.2745  11.4010  11.6108  11.8591  11.8591  11.8969  12.2676  12.2676
    13.1995  13.1995  13.9648  14.2796  14.2796  14.2805  14.2805  14.6568
    14.6773  14.6773  14.7273  14.7273  15.8952  15.8952  16.1103  16.1103
    16.1974  16.1974  16.2026  16.3482  16.3482  16.6297  16.6297  16.9738
    16.9738  17.0369  17.0369  17.0635  17.2282  17.2282  17.3151  17.3317
    17.3947  17.3947

          k = 0.0459 0.0459 0.3213 ( 53488 PWs)   bands (ev):

   -73.5496 -73.5489 -73.5472 -73.5472 -73.5468 -73.5468 -73.5468 -73.5468
   -73.5465 -73.5464 -73.5460 -73.5460 -73.5458 -73.5458 -73.5458 -73.5458
   -73.5457 -73.5456 -73.5456 -73.5451 -73.5450 -73.5449 -73.5449 -73.5449
   -73.5447 -73.5447 -73.5446 -73.5446 -73.5444 -73.5444 -73.5444 -73.5444
   -39.2975 -39.2968 -39.2968 -39.2958 -39.2952 -39.2952 -39.2933 -39.2928
   -39.2919 -39.2919 -39.2914 -39.2914 -39.2907 -39.2870 -39.2866 -39.2866
   -39.2859 -39.2859 -39.2859 -39.2859 -39.2845 -39.2845 -39.2813 -39.2813
   -39.2808 -39.2808 -39.2785 -39.2785 -39.2785 -39.2785 -39.2778 -39.2778
   -39.2777 -39.2777 -39.2753 -39.2753 -39.2741 -39.2741 -39.2736 -39.2736
   -39.2698 -39.2698 -39.2668 -39.2667 -39.2667 -39.2667 -39.2651 -39.2649
   -39.2639 -39.2628 -39.2628 -39.2627 -39.2627 -39.2625 -39.2625 -39.2623
   -39.2623 -39.2622 -39.2622 -39.2606 -39.2605 -39.2604 -39.2593 -39.2593
   -39.2589 -39.2589 -39.2588 -39.2588 -39.2585 -39.2575 -39.2575 -39.2572
   -39.2572 -39.2567 -39.2563 -39.2548 -39.2548 -39.2545 -39.2543 -39.2539
   -39.2539 -39.2539 -39.2539 -39.2536 -39.2536 -39.2532 -39.2530 -39.2527
   -39.2527 -39.2518 -39.2518 -39.2505 -39.2497 -39.2496 -39.2470 -39.2468
     5.7924   6.2077   7.1059   7.1394   7.1395   7.1611   7.1611   7.1617
     7.1628   7.2144   7.2144   7.2483   7.2674   7.2820   7.3091   7.3091
     7.3276   7.3276   7.3324   7.3324   7.3595   7.3808   7.3847   7.3847
     7.3871   7.3872   7.4894   7.4894   7.5347   7.5347   7.6689   7.6689
     7.6873   7.6873   7.6982   7.6982   7.7084   7.7084   7.7599   7.7599
     7.7957   7.7957   7.7994   7.7994   7.8401   7.8401   7.8873   7.8873
     7.8884   7.8884   7.8933   7.8933   7.9447   7.9576   7.9576   7.9997
     7.9997   8.0036   8.0036   8.0457   8.0738   8.0750   8.0750   8.0783
     8.0783   8.0845   8.0845   8.0993   8.1149   8.1205   8.1205   8.1461
     8.1461   8.1528   8.2074   8.2074   8.2477   8.2657   8.2661   8.2690
     8.2691   8.2812   8.3059   8.3059   8.3161   8.3161   8.3696   8.3952
     8.3953   8.3958   8.3976   8.4162   8.6248   8.6248   8.6293   8.6417
     8.6631   8.6631   8.6649   8.6650   8.6655   8.6699   8.6699   8.7590
     8.7590   8.7658   8.7762   8.7762   8.7823   8.7823   8.7847   8.7847
     8.8142   8.8142   8.8475   8.8475   8.8678   8.8678   8.8817   8.8817
     8.8826   8.8826   8.9000   8.9607   8.9794   8.9889   8.9889   8.9941
     8.9941   9.0558   9.0657   9.0658   9.0670   9.0752   9.0752   9.1146
     9.1221   9.1221   9.1249   9.1450   9.1495   9.1495   9.1575   9.1576
     9.2271   9.2271   9.2271   9.2611   9.2723   9.2724   9.2814   9.2818
     9.3199   9.3340   9.3340   9.3341   9.3341   9.3504   9.3504   9.3618
     9.4906   9.4906   9.4907   9.4907   9.5523   9.5523   9.7529   9.7529
    10.0324  10.0324  10.0927  10.6317  10.7442  11.0407  11.0407  11.1801
    11.1801  11.2750  11.4541  11.5795  12.3931  12.3932  12.8048  12.8048
    13.5057  13.5057  13.6109  13.6109  14.0179  14.0179  14.2848  14.2848
    14.3698  14.7548  14.7549  15.1673  15.5186  15.9447  15.9447  16.0920
    16.0920  16.1277  16.1277  16.1759  16.1759  16.3791  16.5429  16.5429
    16.6416  16.6416  17.0728  17.0728  17.1900  17.1900  17.4460  17.4460
    17.5844  17.5844

          k = 0.0459 0.0459-0.4130 ( 53468 PWs)   bands (ev):

   -73.5493 -73.5493 -73.5471 -73.5471 -73.5471 -73.5470 -73.5466 -73.5466
   -73.5466 -73.5466 -73.5460 -73.5460 -73.5458 -73.5458 -73.5458 -73.5458
   -73.5457 -73.5457 -73.5452 -73.5452 -73.5449 -73.5448 -73.5448 -73.5448
   -73.5448 -73.5448 -73.5448 -73.5448 -73.5444 -73.5444 -73.5444 -73.5444
   -39.2953 -39.2953 -39.2945 -39.2945 -39.2945 -39.2945 -39.2935 -39.2935
   -39.2935 -39.2935 -39.2934 -39.2934 -39.2904 -39.2904 -39.2864 -39.2864
   -39.2864 -39.2864 -39.2853 -39.2853 -39.2853 -39.2853 -39.2796 -39.2795
   -39.2795 -39.2795 -39.2794 -39.2794 -39.2794 -39.2794 -39.2770 -39.2770
   -39.2770 -39.2770 -39.2763 -39.2763 -39.2762 -39.2762 -39.2716 -39.2716
   -39.2716 -39.2716 -39.2668 -39.2668 -39.2667 -39.2667 -39.2638 -39.2638
   -39.2636 -39.2636 -39.2610 -39.2610 -39.2609 -39.2609 -39.2609 -39.2609
   -39.2608 -39.2608 -39.2608 -39.2608 -39.2608 -39.2607 -39.2607 -39.2607
   -39.2597 -39.2597 -39.2596 -39.2596 -39.2587 -39.2587 -39.2587 -39.2587
   -39.2582 -39.2582 -39.2544 -39.2544 -39.2540 -39.2540 -39.2540 -39.2540
   -39.2539 -39.2539 -39.2539 -39.2539 -39.2534 -39.2534 -39.2531 -39.2531
   -39.2521 -39.2521 -39.2521 -39.2521 -39.2482 -39.2482 -39.2481 -39.2480
     5.9809   5.9809   7.1839   7.1839   7.2068   7.2068   7.2241   7.2241
     7.2241   7.2241   7.2529   7.2529   7.2698   7.2698   7.2698   7.2698
     7.2962   7.2962   7.2962   7.2962   7.3189   7.3189   7.3898   7.3898
     7.3898   7.3898   7.4329   7.4330   7.4330   7.4330   7.6904   7.6904
     7.6904   7.6904   7.7362   7.7362   7.7362   7.7362   7.7688   7.7688
     7.7688   7.7688   7.7976   7.7976   7.7976   7.7976   7.8796   7.8796
     7.8796   7.8796   7.9123   7.9124   7.9124   7.9124   7.9921   7.9921
     7.9921   7.9921   8.0145   8.0145   8.0722   8.0722   8.0810   8.0810
     8.0811   8.0811   8.0987   8.0987   8.0987   8.0987   8.1362   8.1362
     8.2171   8.2171   8.2171   8.2171   8.2436   8.2436   8.2436   8.2436
     8.3027   8.3027   8.3249   8.3249   8.3252   8.3252   8.3278   8.3278
     8.3278   8.3278   8.3437   8.3437   8.6683   8.6683   8.6683   8.6683
     8.7151   8.7151   8.7706   8.7706   8.7706   8.7706   8.8088   8.8088
     8.8138   8.8138   8.8138   8.8138   8.8219   8.8219   8.8219   8.8219
     8.8371   8.8371   8.8371   8.8372   8.8494   8.8494   8.8494   8.8494
     8.8549   8.8549   8.8732   8.8732   8.8732   8.8732   8.9276   8.9276
     8.9362   8.9362   8.9362   8.9362   9.1505   9.1505   9.1506   9.1506
     9.1522   9.1522   9.2031   9.2031   9.2032   9.2032   9.2173   9.2173
     9.2190   9.2190   9.2250   9.2250   9.2454   9.2454   9.2454   9.2455
     9.2480   9.2481   9.2481   9.2481   9.3067   9.3067   9.4906   9.4906
     9.4907   9.4907   9.5385   9.5385   9.5385   9.5385   9.7817   9.7817
     9.7817   9.7817  10.6629  10.6629  10.6731  10.6731  11.1010  11.1010
    11.1010  11.1010  11.5180  11.5180  12.9790  12.9790  12.9790  12.9790
    13.3901  13.3901  13.3901  13.3901  13.8730  13.8730  13.8730  13.8730
    14.9004  14.9004  15.3158  15.3158  15.3158  15.3158  15.7446  15.7446
    16.1504  16.1504  16.1504  16.1504  16.3446  16.3446  16.3446  16.3446
    16.7867  16.7867  16.7867  16.7867  17.3672  17.3672  17.3672  17.3672
    17.6681  17.6681

          k = 0.0459 0.1377 0.1377 ( 53523 PWs)   bands (ev):

   -73.5499 -73.5479 -73.5479 -73.5474 -73.5469 -73.5467 -73.5465 -73.5465
   -73.5463 -73.5463 -73.5460 -73.5460 -73.5460 -73.5459 -73.5457 -73.5457
   -73.5457 -73.5457 -73.5456 -73.5455 -73.5454 -73.5454 -73.5452 -73.5445
   -73.5445 -73.5445 -73.5445 -73.5444 -73.5444 -73.5444 -73.5444 -73.5444
   -39.2998 -39.2998 -39.2990 -39.2982 -39.2970 -39.2968 -39.2968 -39.2881
   -39.2881 -39.2877 -39.2877 -39.2868 -39.2868 -39.2861 -39.2861 -39.2861
   -39.2857 -39.2856 -39.2855 -39.2855 -39.2849 -39.2849 -39.2839 -39.2839
   -39.2803 -39.2802 -39.2802 -39.2793 -39.2793 -39.2792 -39.2792 -39.2781
   -39.2780 -39.2759 -39.2757 -39.2715 -39.2715 -39.2715 -39.2695 -39.2695
   -39.2689 -39.2688 -39.2685 -39.2673 -39.2673 -39.2665 -39.2665 -39.2664
   -39.2661 -39.2661 -39.2661 -39.2661 -39.2659 -39.2659 -39.2653 -39.2653
   -39.2653 -39.2653 -39.2632 -39.2632 -39.2623 -39.2592 -39.2592 -39.2584
   -39.2584 -39.2569 -39.2568 -39.2568 -39.2558 -39.2558 -39.2557 -39.2557
   -39.2553 -39.2553 -39.2551 -39.2551 -39.2548 -39.2547 -39.2544 -39.2544
   -39.2543 -39.2542 -39.2536 -39.2535 -39.2535 -39.2535 -39.2534 -39.2534
   -39.2524 -39.2524 -39.2521 -39.2521 -39.2509 -39.2474 -39.2456 -39.2451
     5.5985   6.7643   6.7643   7.0177   7.0342   7.0442   7.0694   7.0694
     7.1168   7.1169   7.1221   7.2110   7.2209   7.2209   7.2302   7.2800
     7.2800   7.4657   7.4702   7.4702   7.5440   7.5440   7.5454   7.5455
     7.5593   7.5593   7.5737   7.5737   7.6222   7.6222   7.6251   7.6251
     7.6317   7.6317   7.6437   7.6599   7.7246   7.7449   7.7449   7.7485
     7.7485   7.7561   7.7561   7.7926   7.7926   7.8780   7.8780   7.9095
     7.9095   7.9156   7.9776   7.9776   7.9820   7.9820   8.0209   8.0209
     8.0295   8.0295   8.0371   8.0371   8.0444   8.0722   8.0722   8.1287
     8.1287   8.1452   8.1473   8.1503   8.1743   8.1859   8.1859   8.1908
     8.1966   8.2047   8.2063   8.2125   8.2125   8.2182   8.2182   8.2282
     8.2282   8.2526   8.2526   8.2546   8.2546   8.2609   8.2673   8.2673
     8.4411   8.4560   8.4560   8.5082   8.5296   8.5296   8.5733   8.5733
     8.5754   8.5951   8.5951   8.6176   8.6176   8.6332   8.6332   8.6360
     8.6925   8.7017   8.7017   8.7065   8.7325   8.7391   8.7391   8.7510
     8.7510   8.8363   8.8548   8.8548   8.8606   8.8658   8.8658   8.8968
     8.8968   8.9050   8.9050   8.9175   8.9175   8.9382   8.9382   8.9459
     8.9459   8.9559   9.0246   9.0246   9.0372   9.0443   9.0443   9.0542
     9.0542   9.1116   9.1603   9.1603   9.1655   9.1669   9.1670   9.1689
     9.1958   9.2724   9.3039   9.3039   9.3044   9.3434   9.3438   9.3639
     9.3640   9.3681   9.3749   9.3750   9.3838   9.3838   9.4386   9.4386
     9.4618   9.4618   9.4629   9.4629   9.4668   9.4668   9.4753   9.9841
    10.2717  10.2717  10.6234  10.6234  10.7250  11.0178  11.0178  11.1546
    11.4022  11.4022  11.6959  11.6960  11.8068  11.8068  12.2247  12.5829
    12.5829  13.0908  13.7512  13.7512  14.2522  14.5712  14.5712  14.6253
    15.0108  15.0108  15.2514  15.2514  15.5227  15.5227  15.7379  15.7379
    16.1031  16.5390  16.5390  16.5510  16.5510  16.5777  16.5777  16.8588
    16.8588  16.9397  16.9689  16.9689  17.1289  17.1289  17.4503  17.4503
    17.8198  17.8249

          k = 0.0459 0.1377 0.2295 ( 53534 PWs)   bands (ev):

   -73.5498 -73.5484 -73.5478 -73.5473 -73.5470 -73.5469 -73.5466 -73.5464
   -73.5463 -73.5462 -73.5461 -73.5460 -73.5460 -73.5459 -73.5459 -73.5457
   -73.5456 -73.5456 -73.5454 -73.5454 -73.5453 -73.5452 -73.5450 -73.5446
   -73.5446 -73.5446 -73.5445 -73.5445 -73.5445 -73.5445 -73.5444 -73.5444
   -39.2990 -39.2988 -39.2975 -39.2965 -39.2961 -39.2959 -39.2952 -39.2907
   -39.2901 -39.2891 -39.2886 -39.2882 -39.2881 -39.2879 -39.2871 -39.2865
   -39.2863 -39.2861 -39.2859 -39.2857 -39.2854 -39.2847 -39.2842 -39.2832
   -39.2819 -39.2804 -39.2802 -39.2796 -39.2788 -39.2781 -39.2780 -39.2772
   -39.2771 -39.2769 -39.2755 -39.2735 -39.2732 -39.2716 -39.2709 -39.2696
   -39.2686 -39.2682 -39.2680 -39.2669 -39.2666 -39.2666 -39.2664 -39.2661
   -39.2661 -39.2658 -39.2658 -39.2649 -39.2644 -39.2641 -39.2640 -39.2634
   -39.2631 -39.2619 -39.2613 -39.2612 -39.2611 -39.2603 -39.2603 -39.2601
   -39.2580 -39.2577 -39.2576 -39.2574 -39.2572 -39.2571 -39.2570 -39.2569
   -39.2560 -39.2557 -39.2555 -39.2553 -39.2552 -39.2552 -39.2547 -39.2546
   -39.2542 -39.2542 -39.2541 -39.2539 -39.2535 -39.2535 -39.2532 -39.2522
   -39.2518 -39.2517 -39.2516 -39.2506 -39.2504 -39.2495 -39.2463 -39.2456
     5.6956   6.5022   6.8347   7.0425   7.0780   7.0875   7.1191   7.1267
     7.1463   7.1625   7.1638   7.2474   7.2568   7.2611   7.2754   7.2994
     7.3363   7.3383   7.3506   7.4042   7.4171   7.4676   7.4749   7.4967
     7.4990   7.5026   7.5130   7.5686   7.5728   7.6130   7.6155   7.6296
     7.6359   7.6439   7.6563   7.6687   7.6732   7.6818   7.6977   7.7564
     7.7595   7.7849   7.7864   7.8092   7.8474   7.8517   7.8527   7.8737
     7.9039   7.9238   7.9264   7.9398   7.9469   7.9865   7.9999   8.0024
     8.0042   8.0246   8.0410   8.0743   8.0769   8.0995   8.0996   8.1059
     8.1110   8.1184   8.1232   8.1429   8.1611   8.1652   8.1753   8.1792
     8.2122   8.2133   8.2226   8.2282   8.2328   8.2355   8.2463   8.2566
     8.2596   8.2715   8.3193   8.3619   8.3675   8.3679   8.3849   8.4079
     8.4170   8.4197   8.4312   8.4473   8.4621   8.4798   8.5214   8.5353
     8.5436   8.5523   8.5598   8.5714   8.5825   8.6127   8.6271   8.6778
     8.6789   8.6804   8.7015   8.7042   8.7392   8.7876   8.8102   8.8136
     8.8225   8.8462   8.8511   8.8586   8.8619   8.8729   8.8915   8.8927
     8.9247   8.9495   8.9544   8.9597   8.9719   8.9909   9.0065   9.0094
     9.0099   9.0389   9.0429   9.0440   9.0462   9.0781   9.0990   9.1060
     9.1071   9.1071   9.1156   9.1179   9.1293   9.1385   9.1715   9.1832
     9.1973   9.2167   9.2253   9.2585   9.2660   9.3082   9.3082   9.3470
     9.3489   9.3496   9.3504   9.3528   9.3940   9.3945   9.4077   9.4095
     9.4234   9.4616   9.4634   9.4659   9.4669   9.5995   9.7414   9.7459
     9.9914  10.2731  10.3147  10.5032  10.6434  10.6880  10.9698  11.4456
    11.4839  11.7175  11.8556  11.8903  11.9266  12.0088  12.3011  12.7138
    12.7941  13.3079  13.7818  13.8886  13.9836  14.1721  14.3421  14.6852
    14.7319  14.8074  15.0661  15.0955  15.2190  15.4456  15.6146  15.8122
    15.9699  16.1107  16.1976  16.2329  16.5655  16.5982  16.6123  16.6725
    16.7630  16.9030  16.9727  17.0936  17.3253  17.4763  17.4767  17.5341
    17.5397  17.7519

          k = 0.0459 0.1377 0.3213 ( 53511 PWs)   bands (ev):

   -73.5495 -73.5488 -73.5477 -73.5472 -73.5472 -73.5468 -73.5467 -73.5464
   -73.5463 -73.5463 -73.5461 -73.5461 -73.5460 -73.5459 -73.5456 -73.5456
   -73.5456 -73.5456 -73.5454 -73.5452 -73.5451 -73.5450 -73.5449 -73.5448
   -73.5447 -73.5447 -73.5447 -73.5446 -73.5445 -73.5445 -73.5444 -73.5444
   -39.2976 -39.2972 -39.2955 -39.2948 -39.2946 -39.2943 -39.2933 -39.2931
   -39.2927 -39.2912 -39.2909 -39.2906 -39.2890 -39.2882 -39.2880 -39.2874
   -39.2872 -39.2872 -39.2871 -39.2866 -39.2852 -39.2847 -39.2837 -39.2825
   -39.2814 -39.2813 -39.2800 -39.2798 -39.2788 -39.2784 -39.2771 -39.2761
   -39.2755 -39.2754 -39.2753 -39.2747 -39.2736 -39.2732 -39.2729 -39.2710
   -39.2704 -39.2695 -39.2663 -39.2662 -39.2660 -39.2658 -39.2656 -39.2655
   -39.2648 -39.2646 -39.2641 -39.2632 -39.2628 -39.2627 -39.2625 -39.2624
   -39.2620 -39.2615 -39.2613 -39.2608 -39.2598 -39.2595 -39.2594 -39.2590
   -39.2589 -39.2589 -39.2588 -39.2587 -39.2586 -39.2584 -39.2581 -39.2569
   -39.2566 -39.2565 -39.2556 -39.2555 -39.2553 -39.2553 -39.2552 -39.2551
   -39.2550 -39.2548 -39.2539 -39.2537 -39.2536 -39.2529 -39.2529 -39.2524
   -39.2520 -39.2519 -39.2508 -39.2502 -39.2500 -39.2490 -39.2473 -39.2464
     5.8391   6.2501   6.9352   7.0888   7.1329   7.1602   7.1867   7.1884
     7.1968   7.2023   7.2208   7.2306   7.2441   7.2753   7.2865   7.3035
     7.3174   7.3215   7.3275   7.3417   7.3806   7.3820   7.3980   7.3996
     7.4049   7.4202   7.4478   7.4997   7.5260   7.5792   7.6073   7.6154
     7.6165   7.6659   7.6694   7.6790   7.7213   7.7219   7.7409   7.7559
     7.7754   7.7844   7.8047   7.8146   7.8308   7.8320   7.8398   7.8497
     7.8565   7.8836   7.9003   7.9181   7.9411   7.9495   7.9614   7.9794
     8.0070   8.0244   8.0676   8.0746   8.0795   8.0874   8.0987   8.1163
     8.1240   8.1291   8.1297   8.1316   8.1445   8.1473   8.1715   8.1914
     8.1917   8.2075   8.2350   8.2492   8.2663   8.2740   8.2746   8.2779
     8.2963   8.3048   8.3086   8.3143   8.3289   8.3594   8.3798   8.3839
     8.3842   8.3965   8.4303   8.4531   8.5654   8.5710   8.5713   8.5804
     8.5825   8.5883   8.5944   8.5979   8.6216   8.6497   8.6519   8.6853
     8.6867   8.7036   8.7369   8.7623   8.7698   8.7861   8.7907   8.8255
     8.8413   8.8577   8.8688   8.8768   8.8870   8.8959   8.8969   8.8973
     8.9006   8.9230   8.9248   8.9637   8.9791   8.9795   8.9874   9.0016
     9.0136   9.0250   9.0470   9.0529   9.0542   9.0767   9.0849   9.0990
     9.1188   9.1373   9.1477   9.1734   9.1878   9.1878   9.1879   9.1906
     9.1920   9.2073   9.2115   9.2371   9.2401   9.2765   9.2967   9.2995
     9.3108   9.3136   9.3341   9.3346   9.3352   9.3358   9.3404   9.3722
     9.4617   9.4636   9.4639   9.4650   9.5347   9.5605   9.7468   9.8436
    10.0384  10.2275  10.2812  10.3710  10.3854  10.6792  10.8317  11.3894
    11.5086  11.6654  11.9206  12.0092  12.0104  12.4335  12.8466  13.0782
    13.2216  13.2489  13.6062  13.6681  13.7823  14.0580  14.0770  14.3712
    14.3948  14.4422  15.1319  15.1977  15.3762  15.5488  15.6276  15.6403
    15.7887  15.8809  16.0857  16.1186  16.2177  16.2941  16.4100  16.6271
    16.6856  16.8519  16.9770  16.9948  17.2484  17.3096  17.5093  17.7643
    17.9084  17.9652

          k = 0.0459 0.1377-0.4130 ( 53518 PWs)   bands (ev):

   -73.5492 -73.5492 -73.5475 -73.5475 -73.5470 -73.5470 -73.5466 -73.5466
   -73.5462 -73.5462 -73.5462 -73.5462 -73.5460 -73.5460 -73.5456 -73.5456
   -73.5455 -73.5455 -73.5452 -73.5452 -73.5449 -73.5449 -73.5449 -73.5449
   -73.5448 -73.5448 -73.5447 -73.5447 -73.5445 -73.5445 -73.5444 -73.5444
   -39.2956 -39.2956 -39.2951 -39.2951 -39.2932 -39.2932 -39.2930 -39.2930
   -39.2930 -39.2930 -39.2917 -39.2917 -39.2904 -39.2904 -39.2879 -39.2879
   -39.2874 -39.2874 -39.2874 -39.2874 -39.2846 -39.2846 -39.2825 -39.2825
   -39.2813 -39.2813 -39.2806 -39.2806 -39.2775 -39.2775 -39.2770 -39.2770
   -39.2754 -39.2754 -39.2746 -39.2746 -39.2729 -39.2729 -39.2728 -39.2728
   -39.2712 -39.2712 -39.2663 -39.2662 -39.2659 -39.2659 -39.2643 -39.2643
   -39.2635 -39.2635 -39.2628 -39.2628 -39.2625 -39.2625 -39.2614 -39.2614
   -39.2612 -39.2612 -39.2609 -39.2609 -39.2606 -39.2606 -39.2605 -39.2605
   -39.2599 -39.2599 -39.2585 -39.2585 -39.2578 -39.2578 -39.2570 -39.2570
   -39.2567 -39.2567 -39.2562 -39.2562 -39.2553 -39.2553 -39.2550 -39.2550
   -39.2548 -39.2548 -39.2542 -39.2542 -39.2537 -39.2537 -39.2526 -39.2526
   -39.2523 -39.2523 -39.2504 -39.2504 -39.2486 -39.2486 -39.2476 -39.2476
     6.0258   6.0258   7.0591   7.0591   7.1562   7.1562   7.2083   7.2083
     7.2327   7.2327   7.2435   7.2435   7.2761   7.2761   7.2943   7.2943
     7.2951   7.2951   7.3130   7.3130   7.3371   7.3371   7.3839   7.3839
     7.4014   7.4014   7.4266   7.4266   7.5173   7.5173   7.5913   7.5913
     7.6767   7.6767   7.6820   7.6820   7.7368   7.7368   7.7695   7.7695
     7.7864   7.7864   7.7980   7.7980   7.8214   7.8214   7.8574   7.8574
     7.8581   7.8581   7.8685   7.8685   7.8918   7.8918   8.0174   8.0174
     8.0356   8.0356   8.0470   8.0470   8.0516   8.0516   8.1045   8.1045
     8.1168   8.1168   8.1594   8.1594   8.1617   8.1617   8.2149   8.2149
     8.2171   8.2171   8.2398   8.2398   8.2411   8.2411   8.2918   8.2918
     8.2990   8.2990   8.3247   8.3247   8.3264   8.3264   8.3318   8.3318
     8.3712   8.3712   8.3804   8.3804   8.5749   8.5749   8.5851   8.5851
     8.6707   8.6707   8.7239   8.7239   8.7357   8.7357   8.7432   8.7432
     8.7465   8.7465   8.7505   8.7505   8.7874   8.7874   8.8097   8.8097
     8.8101   8.8101   8.8269   8.8269   8.8352   8.8352   8.8529   8.8529
     8.8777   8.8777   8.9104   8.9104   8.9266   8.9266   8.9441   8.9441
     9.0313   9.0313   9.0514   9.0514   9.0937   9.0937   9.1344   9.1344
     9.1497   9.1497   9.1624   9.1624   9.2173   9.2173   9.2264   9.2264
     9.2459   9.2459   9.2548   9.2548   9.2581   9.2581   9.2583   9.2583
     9.2644   9.2644   9.2647   9.2647   9.3239   9.3239   9.3580   9.3580
     9.4622   9.4622   9.4644   9.4644   9.5309   9.5309   9.7884   9.7884
    10.1051  10.1051  10.3070  10.3070  10.7383  10.7383  10.7847  10.7847
    11.5862  11.5862  11.9848  11.9848  12.5920  12.5920  13.0282  13.0282
    13.4133  13.4133  13.4406  13.4406  13.8275  13.8275  13.9660  13.9660
    14.5324  14.5324  14.9291  14.9291  15.6047  15.6047  15.7757  15.7757
    15.9054  15.9054  16.0179  16.0179  16.1182  16.1182  16.2148  16.2148
    16.6602  16.6602  17.1296  17.1296  17.2241  17.2241  17.6436  17.6437
    18.0325  18.0329

          k = 0.0459 0.2295 0.2295 ( 53479 PWs)   bands (ev):

   -73.5496 -73.5483 -73.5483 -73.5473 -73.5472 -73.5468 -73.5465 -73.5465
   -73.5462 -73.5462 -73.5462 -73.5460 -73.5460 -73.5460 -73.5456 -73.5456
   -73.5456 -73.5456 -73.5453 -73.5453 -73.5452 -73.5452 -73.5449 -73.5446
   -73.5446 -73.5446 -73.5446 -73.5446 -73.5446 -73.5445 -73.5445 -73.5444
   -39.2983 -39.2983 -39.2959 -39.2952 -39.2946 -39.2945 -39.2945 -39.2907
   -39.2907 -39.2905 -39.2905 -39.2890 -39.2890 -39.2878 -39.2878 -39.2875
   -39.2874 -39.2864 -39.2864 -39.2863 -39.2863 -39.2852 -39.2843 -39.2843
   -39.2838 -39.2838 -39.2802 -39.2786 -39.2784 -39.2783 -39.2773 -39.2773
   -39.2752 -39.2749 -39.2748 -39.2748 -39.2709 -39.2705 -39.2705 -39.2689
   -39.2689 -39.2687 -39.2686 -39.2675 -39.2674 -39.2656 -39.2656 -39.2655
   -39.2649 -39.2649 -39.2644 -39.2644 -39.2641 -39.2641 -39.2630 -39.2630
   -39.2619 -39.2619 -39.2614 -39.2614 -39.2597 -39.2597 -39.2594 -39.2594
   -39.2590 -39.2589 -39.2588 -39.2583 -39.2572 -39.2572 -39.2571 -39.2571
   -39.2568 -39.2568 -39.2567 -39.2563 -39.2553 -39.2553 -39.2549 -39.2546
   -39.2545 -39.2543 -39.2538 -39.2536 -39.2536 -39.2534 -39.2524 -39.2524
   -39.2520 -39.2520 -39.2516 -39.2499 -39.2499 -39.2494 -39.2469 -39.2456
     5.7909   6.5794   6.5794   7.0556   7.1008   7.1190   7.1664   7.1805
     7.1805   7.1928   7.1939   7.1939   7.2745   7.2869   7.2869   7.3033
     7.3033   7.3272   7.3546   7.3546   7.3869   7.3869   7.4753   7.4753
     7.4998   7.4998   7.5333   7.5333   7.5518   7.5518   7.5541   7.5541
     7.5739   7.6324   7.6324   7.6866   7.6866   7.6881   7.6882   7.7078
     7.7078   7.7442   7.8043   7.8043   7.8101   7.8249   7.8249   7.8859
     7.8859   7.9176   7.9400   7.9400   7.9402   7.9402   7.9836   8.0329
     8.0329   8.0683   8.0683   8.1039   8.1070   8.1070   8.1277   8.1277
     8.1356   8.1356   8.1414   8.1782   8.2037   8.2037   8.2358   8.2370
     8.2379   8.2562   8.2634   8.2705   8.2705   8.3046   8.3046   8.3114
     8.3119   8.3119   8.3270   8.3527   8.3570   8.3570   8.3660   8.3660
     8.3872   8.3872   8.4308   8.4308   8.4740   8.4740   8.4792   8.4792
     8.5382   8.5382   8.5441   8.5617   8.6026   8.6026   8.6218   8.6218
     8.6416   8.6426   8.6656   8.6656   8.7188   8.7188   8.7793   8.7990
     8.8286   8.8286   8.8760   8.8924   8.8924   8.9234   8.9234   8.9521
     8.9521   8.9533   8.9739   8.9739   9.0014   9.0014   9.0054   9.0054
     9.0376   9.0376   9.0498   9.0509   9.0509   9.0725   9.0725   9.1234
     9.1234   9.1259   9.1422   9.1543   9.1588   9.1776   9.1776   9.1791
     9.1791   9.2036   9.2036   9.2152   9.2242   9.3040   9.3040   9.3177
     9.3512   9.3512   9.3566   9.3682   9.3683   9.4085   9.4085   9.4108
     9.4108   9.4202   9.4202   9.4260   9.4409   9.5340   9.9730   9.9730
     9.9858   9.9858  10.2353  10.3315  10.3315  10.7234  11.1375  11.1375
    11.9504  11.9504  12.1347  12.1347  12.2126  12.2126  12.3630  12.3630
    13.2003  13.5083  13.5083  13.5133  13.8110  13.8111  14.4644  14.4644
    14.8842  14.8842  14.9596  14.9597  15.1591  15.4589  15.4590  15.4872
    15.4872  15.5891  15.8742  15.8742  16.1070  16.1744  16.8414  16.8414
    17.0868  17.0868  17.2894  17.3425  17.3425  17.5948  17.5948  17.7864
    17.7867  18.0415

          k = 0.0459 0.2295 0.3213 ( 53558 PWs)   bands (ev):

   -73.5494 -73.5487 -73.5481 -73.5476 -73.5471 -73.5468 -73.5467 -73.5465
   -73.5464 -73.5463 -73.5462 -73.5460 -73.5459 -73.5457 -73.5456 -73.5455
   -73.5455 -73.5454 -73.5453 -73.5453 -73.5451 -73.5450 -73.5449 -73.5448
   -73.5448 -73.5447 -73.5447 -73.5446 -73.5446 -73.5445 -73.5444 -73.5444
   -39.2972 -39.2970 -39.2939 -39.2939 -39.2936 -39.2933 -39.2929 -39.2927
   -39.2923 -39.2908 -39.2905 -39.2904 -39.2901 -39.2889 -39.2889 -39.2888
   -39.2888 -39.2874 -39.2873 -39.2870 -39.2867 -39.2858 -39.2848 -39.2845
   -39.2845 -39.2820 -39.2815 -39.2805 -39.2799 -39.2772 -39.2763 -39.2757
   -39.2752 -39.2737 -39.2726 -39.2725 -39.2723 -39.2723 -39.2709 -39.2706
   -39.2688 -39.2672 -39.2666 -39.2666 -39.2665 -39.2661 -39.2655 -39.2651
   -39.2650 -39.2646 -39.2645 -39.2637 -39.2634 -39.2632 -39.2628 -39.2617
   -39.2617 -39.2616 -39.2614 -39.2609 -39.2603 -39.2600 -39.2599 -39.2594
   -39.2594 -39.2590 -39.2585 -39.2584 -39.2579 -39.2577 -39.2575 -39.2575
   -39.2567 -39.2566 -39.2565 -39.2559 -39.2559 -39.2558 -39.2555 -39.2554
   -39.2545 -39.2544 -39.2542 -39.2540 -39.2538 -39.2535 -39.2534 -39.2531
   -39.2523 -39.2522 -39.2507 -39.2492 -39.2490 -39.2483 -39.2480 -39.2462
     5.9316   6.3336   6.6912   6.9941   7.0885   7.1433   7.1604   7.2135
     7.2353   7.2401   7.2516   7.2553   7.2575   7.2616   7.2869   7.2984
     7.3248   7.3276   7.3461   7.3564   7.3839   7.3995   7.4322   7.4329
     7.4387   7.4407   7.4483   7.4836   7.5206   7.5316   7.5492   7.5838
     7.5858   7.5956   7.6120   7.6177   7.6589   7.6812   7.6829   7.7127
     7.7136   7.7532   7.7622   7.7690   7.7946   7.8346   7.8744   7.8864
     7.8901   7.9006   7.9113   7.9207   7.9570   7.9592   7.9664   8.0288
     8.0337   8.0698   8.0748   8.0957   8.0998   8.1222   8.1372   8.1524
     8.1671   8.1682   8.1758   8.1799   8.1950   8.2098   8.2636   8.2707
     8.2738   8.2769   8.2772   8.2820   8.2900   8.3034   8.3058   8.3106
     8.3243   8.3533   8.3537   8.3560   8.3628   8.3651   8.3683   8.3975
     8.4032   8.4416   8.4823   8.4870   8.4872   8.4889   8.4897   8.4920
     8.5142   8.5278   8.5400   8.5495   8.5556   8.5604   8.6021   8.6209
     8.6580   8.6659   8.6850   8.7056   8.7226   8.7685   8.7843   8.7876
     8.7927   8.7927   8.7943   8.7994   8.8307   8.8818   8.8982   8.9215
     8.9452   8.9504   8.9522   8.9812   8.9827   8.9977   9.0033   9.0175
     9.0271   9.0315   9.0724   9.0858   9.0878   9.1093   9.1130   9.1163
     9.1201   9.1516   9.1634   9.1699   9.1782   9.1993   9.2074   9.2373
     9.2389   9.2416   9.2440   9.2453   9.2616   9.2734   9.2760   9.3286
     9.3298   9.3318   9.3324   9.3332   9.3346   9.3374   9.3403   9.3624
     9.3638   9.4106   9.4124   9.4168   9.4242   9.5967   9.7379   9.9852
    10.0559  10.0745  10.2327  10.3660  10.4460  10.5455  10.8153  11.5935
    11.6527  12.0330  12.1811  12.4178  12.4391  12.4826  12.5100  12.8498
    12.9224  13.1425  13.7275  13.7768  13.7982  13.8658  14.1002  14.1867
    14.5381  14.6427  14.7857  14.8741  15.0520  15.1442  15.1924  15.2083
    15.5555  15.6924  15.8072  15.8091  16.0849  16.1335  16.8600  16.8960
    16.9148  17.0944  17.2770  17.3576  17.3629  17.3800  17.5377  17.9557
    18.1334  18.1345

          k = 0.0459 0.2295-0.4130 ( 53544 PWs)   bands (ev):

   -73.5491 -73.5491 -73.5479 -73.5479 -73.5470 -73.5469 -73.5465 -73.5465
   -73.5464 -73.5464 -73.5461 -73.5461 -73.5458 -73.5458 -73.5454 -73.5454
   -73.5454 -73.5454 -73.5452 -73.5452 -73.5450 -73.5450 -73.5449 -73.5449
   -73.5449 -73.5449 -73.5446 -73.5446 -73.5446 -73.5446 -73.5444 -73.5444
   -39.2955 -39.2955 -39.2952 -39.2952 -39.2923 -39.2923 -39.2922 -39.2922
   -39.2914 -39.2914 -39.2902 -39.2902 -39.2899 -39.2899 -39.2898 -39.2898
   -39.2897 -39.2897 -39.2883 -39.2883 -39.2855 -39.2855 -39.2852 -39.2852
   -39.2825 -39.2825 -39.2812 -39.2812 -39.2796 -39.2796 -39.2744 -39.2744
   -39.2740 -39.2740 -39.2730 -39.2730 -39.2722 -39.2722 -39.2704 -39.2704
   -39.2694 -39.2694 -39.2654 -39.2654 -39.2652 -39.2652 -39.2647 -39.2647
   -39.2647 -39.2647 -39.2641 -39.2641 -39.2634 -39.2634 -39.2632 -39.2632
   -39.2615 -39.2615 -39.2613 -39.2613 -39.2602 -39.2601 -39.2601 -39.2601
   -39.2586 -39.2586 -39.2584 -39.2584 -39.2575 -39.2575 -39.2570 -39.2570
   -39.2565 -39.2565 -39.2564 -39.2564 -39.2562 -39.2562 -39.2558 -39.2558
   -39.2548 -39.2548 -39.2546 -39.2546 -39.2540 -39.2540 -39.2527 -39.2527
   -39.2526 -39.2526 -39.2492 -39.2492 -39.2489 -39.2489 -39.2470 -39.2470
     6.1144   6.1144   6.8321   6.8321   7.1413   7.1413   7.2055   7.2055
     7.2071   7.2071   7.2828   7.2828   7.3042   7.3042   7.3263   7.3263
     7.3390   7.3390   7.3452   7.3452   7.3480   7.3480   7.3739   7.3739
     7.4245   7.4245   7.4877   7.4877   7.5019   7.5019   7.5238   7.5238
     7.6189   7.6189   7.6382   7.6382   7.6424   7.6424   7.6707   7.6707
     7.7002   7.7002   7.8105   7.8105   7.8305   7.8305   7.8329   7.8329
     7.9138   7.9139   7.9477   7.9477   7.9910   7.9910   7.9918   7.9918
     7.9987   7.9987   8.0194   8.0194   8.1308   8.1308   8.1779   8.1779
     8.1881   8.1881   8.2119   8.2119   8.2184   8.2184   8.2321   8.2321
     8.2534   8.2534   8.3148   8.3148   8.3195   8.3195   8.3281   8.3281
     8.3305   8.3305   8.3337   8.3337   8.3514   8.3514   8.3621   8.3621
     8.4282   8.4282   8.4353   8.4353   8.4929   8.4929   8.5045   8.5045
     8.5759   8.5759   8.6180   8.6180   8.6462   8.6462   8.6561   8.6561
     8.6818   8.6818   8.6953   8.6953   8.7285   8.7285   8.7311   8.7311
     8.7437   8.7437   8.7489   8.7489   8.8087   8.8087   8.8803   8.8803
     8.9228   8.9229   8.9345   8.9345   8.9829   8.9829   8.9887   8.9887
     9.0684   9.0684   9.1027   9.1027   9.1146   9.1146   9.1687   9.1687
     9.1718   9.1718   9.1912   9.1912   9.2072   9.2072   9.2204   9.2204
     9.2490   9.2490   9.2675   9.2675   9.2676   9.2676   9.2887   9.2887
     9.2903   9.2903   9.2942   9.2942   9.2979   9.2979   9.3117   9.3117
     9.4143   9.4143   9.4152   9.4152   9.5210   9.5210   9.8115   9.8115
    10.0046  10.0046  10.4315  10.4315  10.5142  10.5142  10.9944  10.9944
    12.1225  12.1225  12.2267  12.2267  12.4894  12.4894  12.7975  12.7975
    13.1207  13.1207  13.5314  13.5314  14.1451  14.1451  14.2216  14.2216
    14.2915  14.2915  14.5870  14.5870  14.8708  14.8708  15.2798  15.2798
    15.4808  15.4808  16.0063  16.0063  16.2792  16.2792  16.7258  16.7258
    16.9508  16.9508  17.1315  17.1315  17.3496  17.3496  17.6562  17.6562
    18.4495  18.4496

          k = 0.0459 0.3213 0.3213 ( 53499 PWs)   bands (ev):

   -73.5491 -73.5485 -73.5485 -73.5479 -73.5470 -73.5467 -73.5467 -73.5466
   -73.5464 -73.5463 -73.5463 -73.5462 -73.5455 -73.5455 -73.5454 -73.5454
   -73.5453 -73.5453 -73.5452 -73.5452 -73.5451 -73.5451 -73.5449 -73.5449
   -73.5448 -73.5448 -73.5448 -73.5448 -73.5446 -73.5445 -73.5445 -73.5444
   -39.2961 -39.2961 -39.2928 -39.2928 -39.2926 -39.2926 -39.2925 -39.2920
   -39.2920 -39.2917 -39.2905 -39.2904 -39.2900 -39.2900 -39.2899 -39.2889
   -39.2889 -39.2875 -39.2875 -39.2875 -39.2875 -39.2869 -39.2869 -39.2858
   -39.2847 -39.2847 -39.2825 -39.2811 -39.2796 -39.2780 -39.2780 -39.2744
   -39.2730 -39.2730 -39.2714 -39.2714 -39.2692 -39.2690 -39.2690 -39.2684
   -39.2684 -39.2682 -39.2681 -39.2678 -39.2677 -39.2649 -39.2649 -39.2644
   -39.2644 -39.2642 -39.2636 -39.2636 -39.2632 -39.2632 -39.2631 -39.2631
   -39.2630 -39.2630 -39.2611 -39.2611 -39.2608 -39.2607 -39.2606 -39.2598
   -39.2598 -39.2582 -39.2582 -39.2581 -39.2581 -39.2580 -39.2580 -39.2568
   -39.2567 -39.2566 -39.2565 -39.2563 -39.2563 -39.2559 -39.2555 -39.2550
   -39.2547 -39.2543 -39.2542 -39.2542 -39.2541 -39.2539 -39.2535 -39.2526
   -39.2526 -39.2517 -39.2517 -39.2490 -39.2482 -39.2479 -39.2479 -39.2463
     6.0680   6.4556   6.4556   6.7944   7.1054   7.1645   7.1710   7.1903
     7.1903   7.2757   7.2780   7.2780   7.2839   7.3044   7.3044   7.3275
     7.3275   7.3824   7.3824   7.3985   7.3985   7.4012   7.4012   7.4718
     7.4760   7.4848   7.4848   7.4863   7.4863   7.5056   7.5056   7.5066
     7.5066   7.5527   7.5527   7.5828   7.5828   7.6427   7.6427   7.6556
     7.6557   7.6611   7.6611   7.8027   7.8027   7.8333   7.9056   7.9056
     7.9058   7.9058   7.9473   7.9543   7.9626   7.9626   7.9866   7.9866
     8.0086   8.0508   8.1409   8.1420   8.1420   8.1862   8.1920   8.1920
     8.2497   8.2503   8.2552   8.2552   8.2607   8.2607   8.2637   8.2637
     8.2927   8.2927   8.2977   8.3037   8.3127   8.3417   8.3461   8.3568
     8.3568   8.3964   8.3964   8.4050   8.4050   8.4130   8.4228   8.4228
     8.4291   8.4291   8.4318   8.4318   8.4585   8.4585   8.4611   8.4742
     8.4752   8.4752   8.5387   8.5732   8.5732   8.5855   8.5855   8.6019
     8.6019   8.6109   8.6109   8.6336   8.6573   8.6721   8.6721   8.7050
     8.7050   8.7064   8.7286   8.7287   8.7509   8.8464   8.8464   8.8765
     8.8850   8.9212   8.9889   8.9889   9.0234   9.0234   9.0293   9.0293
     9.0878   9.0878   9.1010   9.1010   9.1190   9.1358   9.1358   9.1637
     9.1637   9.2005   9.2234   9.2247   9.2247   9.2275   9.2275   9.2303
     9.2304   9.2376   9.2630   9.2820   9.2820   9.2843   9.2852   9.2852
     9.3262   9.3262   9.3348   9.3348   9.3349   9.3407   9.3407   9.3490
     9.3490   9.3529   9.3529   9.3714   9.3889   9.6981   9.7361   9.7361
     9.8702  10.0973  10.0973  10.3282  10.7100  10.7100  11.3172  11.3172
    11.8583  11.8583  12.4960  12.4960  12.6104  12.6104  12.6770  12.6770
    13.0049  13.0049  13.9005  13.9005  13.9174  13.9174  14.0674  14.2396
    14.3901  14.3901  14.4838  14.4838  14.7741  14.7741  14.8773  14.8773
    15.3322  15.3322  15.4267  15.9781  16.2358  16.6839  16.7960  16.7960
    16.9344  17.0893  17.4592  17.4592  17.7347  17.7347  17.9122  17.9122
    18.1484  18.1484

          k = 0.0459 0.3213-0.4130 ( 53528 PWs)   bands (ev):

   -73.5489 -73.5489 -73.5482 -73.5482 -73.5469 -73.5468 -73.5466 -73.5466
   -73.5465 -73.5465 -73.5462 -73.5462 -73.5454 -73.5454 -73.5453 -73.5453
   -73.5452 -73.5452 -73.5451 -73.5451 -73.5450 -73.5450 -73.5450 -73.5450
   -73.5450 -73.5450 -73.5448 -73.5448 -73.5446 -73.5446 -73.5445 -73.5445
   -39.2948 -39.2948 -39.2946 -39.2946 -39.2918 -39.2918 -39.2918 -39.2918
   -39.2911 -39.2911 -39.2909 -39.2909 -39.2900 -39.2900 -39.2894 -39.2894
   -39.2890 -39.2890 -39.2876 -39.2876 -39.2874 -39.2874 -39.2874 -39.2874
   -39.2847 -39.2847 -39.2821 -39.2821 -39.2797 -39.2797 -39.2762 -39.2762
   -39.2710 -39.2710 -39.2705 -39.2705 -39.2700 -39.2700 -39.2694 -39.2694
   -39.2665 -39.2665 -39.2665 -39.2665 -39.2661 -39.2660 -39.2660 -39.2660
   -39.2656 -39.2656 -39.2640 -39.2640 -39.2636 -39.2636 -39.2628 -39.2628
   -39.2619 -39.2619 -39.2618 -39.2618 -39.2604 -39.2604 -39.2597 -39.2597
   -39.2595 -39.2595 -39.2594 -39.2594 -39.2575 -39.2575 -39.2574 -39.2574
   -39.2571 -39.2571 -39.2566 -39.2566 -39.2552 -39.2552 -39.2551 -39.2551
   -39.2548 -39.2548 -39.2547 -39.2547 -39.2532 -39.2532 -39.2531 -39.2531
   -39.2530 -39.2530 -39.2503 -39.2503 -39.2478 -39.2478 -39.2469 -39.2469
     6.2446   6.2446   6.6115   6.6115   7.1396   7.1396   7.1741   7.1741
     7.2159   7.2159   7.2768   7.2768   7.3286   7.3286   7.3537   7.3537
     7.3893   7.3893   7.4110   7.4110   7.4135   7.4135   7.4275   7.4275
     7.4298   7.4298   7.4591   7.4591   7.4888   7.4888   7.5358   7.5358
     7.5604   7.5604   7.5655   7.5655   7.5708   7.5708   7.5761   7.5761
     7.5981   7.5981   7.7460   7.7460   7.8479   7.8479   7.8518   7.8518
     7.9421   7.9421   7.9443   7.9443   7.9609   7.9609   8.0141   8.0141
     8.0826   8.0826   8.1431   8.1431   8.1496   8.1496   8.1918   8.1918
     8.2193   8.2193   8.2207   8.2207   8.3319   8.3319   8.3383   8.3383
     8.3422   8.3422   8.3439   8.3439   8.3498   8.3498   8.3516   8.3516
     8.3574   8.3574   8.3816   8.3816   8.4247   8.4247   8.4273   8.4273
     8.4375   8.4375   8.4681   8.4681   8.4876   8.4876   8.4967   8.4967
     8.5038   8.5038   8.5042   8.5042   8.5122   8.5122   8.5534   8.5534
     8.5605   8.5605   8.6512   8.6512   8.6568   8.6568   8.6649   8.6649
     8.6825   8.6825   8.7229   8.7229   8.7335   8.7335   8.7353   8.7353
     8.9402   8.9402   8.9664   8.9664   9.0574   9.0574   9.0684   9.0684
     9.0747   9.0747   9.1119   9.1119   9.1664   9.1664   9.1834   9.1834
     9.1836   9.1836   9.1895   9.1895   9.2346   9.2346   9.2551   9.2551
     9.2598   9.2598   9.2870   9.2870   9.2886   9.2886   9.3003   9.3003
     9.3100   9.3100   9.3116   9.3116   9.3161   9.3161   9.3186   9.3186
     9.3455   9.3455   9.3642   9.3642   9.5277   9.5277   9.7661   9.7661
     9.8717   9.8717  10.1817  10.1817  11.0025  11.0025  11.2585  11.2585
    11.8816  11.8816  12.1633  12.1633  12.6996  12.6996  12.9884  12.9884
    13.2362  13.2362  13.5976  13.5976  14.0091  14.0091  14.2464  14.2464
    14.2970  14.2970  14.3982  14.3982  14.6067  14.6067  14.7733  14.7733
    15.0867  15.0867  15.7210  15.7210  16.8256  16.8256  16.8298  16.8298
    16.8450  16.8450  17.2774  17.2774  18.0035  18.0035  18.0426  18.0426
    18.0848  18.0849

          k = 0.0459-0.4130-0.4130 ( 53536 PWs)   bands (ev):

   -73.5486 -73.5486 -73.5486 -73.5486 -73.5467 -73.5467 -73.5467 -73.5467
   -73.5464 -73.5464 -73.5464 -73.5464 -73.5451 -73.5451 -73.5451 -73.5451
   -73.5451 -73.5451 -73.5451 -73.5451 -73.5451 -73.5451 -73.5451 -73.5451
   -73.5451 -73.5451 -73.5451 -73.5451 -73.5445 -73.5445 -73.5445 -73.5445
   -39.2936 -39.2936 -39.2936 -39.2936 -39.2936 -39.2935 -39.2935 -39.2935
   -39.2895 -39.2895 -39.2895 -39.2895 -39.2895 -39.2895 -39.2895 -39.2895
   -39.2893 -39.2893 -39.2893 -39.2893 -39.2871 -39.2871 -39.2871 -39.2871
   -39.2848 -39.2848 -39.2848 -39.2848 -39.2779 -39.2779 -39.2779 -39.2779
   -39.2682 -39.2682 -39.2682 -39.2682 -39.2682 -39.2682 -39.2682 -39.2681
   -39.2681 -39.2681 -39.2681 -39.2681 -39.2681 -39.2681 -39.2681 -39.2680
   -39.2628 -39.2628 -39.2628 -39.2628 -39.2626 -39.2626 -39.2626 -39.2626
   -39.2624 -39.2623 -39.2623 -39.2623 -39.2623 -39.2623 -39.2623 -39.2623
   -39.2586 -39.2586 -39.2586 -39.2586 -39.2586 -39.2586 -39.2586 -39.2586
   -39.2560 -39.2560 -39.2560 -39.2560 -39.2555 -39.2555 -39.2555 -39.2555
   -39.2541 -39.2541 -39.2541 -39.2541 -39.2538 -39.2538 -39.2538 -39.2538
   -39.2515 -39.2515 -39.2515 -39.2515 -39.2472 -39.2472 -39.2472 -39.2472
     6.4124   6.4124   6.4124   6.4124   7.1508   7.1508   7.1508   7.1508
     7.2397   7.2397   7.2397   7.2397   7.3696   7.3696   7.3696   7.3696
     7.4398   7.4398   7.4398   7.4398   7.4398   7.4398   7.4398   7.4398
     7.4899   7.4899   7.4899   7.4899   7.4899   7.4899   7.4899   7.4899
     7.5052   7.5052   7.5052   7.5052   7.5052   7.5052   7.5052   7.5052
     7.6541   7.6541   7.6541   7.6541   7.8930   7.8930   7.8930   7.8931
     7.8931   7.8931   7.8931   7.8931   7.9952   7.9952   7.9952   7.9952
     8.1459   8.1459   8.1459   8.1459   8.2063   8.2063   8.2063   8.2063
     8.3060   8.3060   8.3060   8.3060   8.3276   8.3276   8.3276   8.3276
     8.3483   8.3483   8.3483   8.3483   8.3737   8.3737   8.3737   8.3737
     8.3852   8.3852   8.3852   8.3852   8.4358   8.4358   8.4358   8.4358
     8.4440   8.4440   8.4440   8.4440   8.4440   8.4440   8.4440   8.4440
     8.5417   8.5417   8.5417   8.5417   8.5417   8.5417   8.5417   8.5417
     8.5828   8.5829   8.5829   8.5829   8.5829   8.5829   8.5829   8.5829
     8.6317   8.6317   8.6317   8.6317   8.7003   8.7003   8.7003   8.7003
     9.0018   9.0018   9.0018   9.0018   9.0268   9.0268   9.0269   9.0269
     9.1369   9.1370   9.1370   9.1370   9.1370   9.1370   9.1370   9.1370
     9.2447   9.2447   9.2447   9.2447   9.2667   9.2667   9.2667   9.2667
     9.2667   9.2667   9.2667   9.2667   9.3035   9.3035   9.3035   9.3035
     9.3206   9.3206   9.3206   9.3206   9.3215   9.3215   9.3215   9.3215
     9.3215   9.3215   9.3215   9.3215   9.6001   9.6001   9.6001   9.6001
     9.9930   9.9930   9.9930   9.9930  11.5575  11.5575  11.5575  11.5575
    11.5575  11.5575  11.5575  11.5575  13.2804  13.2804  13.2804  13.2804
    13.2804  13.2804  13.2805  13.2805  14.0946  14.0946  14.0946  14.0946
    14.0946  14.0946  14.0946  14.0946  14.7106  14.7106  14.7106  14.7106
    15.2795  15.2795  15.2795  15.2795  16.7783  16.7783  16.7783  16.7783
    17.4139  17.4139  17.4139  17.4139  17.8690  17.8690  17.8690  17.8690
    18.5000  18.5000

          k = 0.1377 0.1377 0.1377 ( 53532 PWs)   bands (ev):

   -73.5499 -73.5479 -73.5479 -73.5479 -73.5466 -73.5466 -73.5466 -73.5465
   -73.5464 -73.5464 -73.5461 -73.5457 -73.5457 -73.5457 -73.5457 -73.5457
   -73.5457 -73.5457 -73.5457 -73.5457 -73.5452 -73.5452 -73.5452 -73.5445
   -73.5445 -73.5445 -73.5445 -73.5445 -73.5445 -73.5445 -73.5445 -73.5445
   -39.2993 -39.2992 -39.2992 -39.2968 -39.2963 -39.2963 -39.2963 -39.2883
   -39.2883 -39.2883 -39.2870 -39.2870 -39.2870 -39.2870 -39.2870 -39.2870
   -39.2867 -39.2867 -39.2867 -39.2867 -39.2867 -39.2867 -39.2818 -39.2818
   -39.2818 -39.2798 -39.2798 -39.2798 -39.2784 -39.2784 -39.2784 -39.2784
   -39.2784 -39.2784 -39.2735 -39.2735 -39.2735 -39.2681 -39.2680 -39.2680
   -39.2675 -39.2675 -39.2675 -39.2674 -39.2674 -39.2674 -39.2672 -39.2672
   -39.2672 -39.2661 -39.2661 -39.2661 -39.2653 -39.2653 -39.2653 -39.2653
   -39.2653 -39.2653 -39.2612 -39.2612 -39.2612 -39.2590 -39.2590 -39.2590
   -39.2586 -39.2586 -39.2586 -39.2566 -39.2566 -39.2566 -39.2560 -39.2560
   -39.2560 -39.2551 -39.2551 -39.2551 -39.2551 -39.2551 -39.2551 -39.2547
   -39.2547 -39.2546 -39.2532 -39.2532 -39.2531 -39.2531 -39.2531 -39.2526
   -39.2526 -39.2526 -39.2510 -39.2510 -39.2510 -39.2487 -39.2454 -39.2454
     5.6470   6.7969   6.7969   6.7969   7.0109   7.0896   7.0896   7.0896
     7.1374   7.1374   7.1374   7.2437   7.2437   7.2437   7.3018   7.3018
     7.3018   7.3815   7.3815   7.3815   7.5651   7.5651   7.5652   7.5771
     7.5771   7.5771   7.5771   7.5771   7.5771   7.6077   7.6077   7.6077
     7.6077   7.6077   7.6077   7.6102   7.6102   7.6102   7.7596   7.7596
     7.7596   7.7596   7.7596   7.7596   7.8055   7.8055   7.8055   7.9868
     7.9869   7.9869   7.9969   7.9969   7.9969   7.9969   7.9969   7.9969
     8.0252   8.0252   8.0252   8.1158   8.1158   8.1158   8.1159   8.1159
     8.1159   8.1198   8.1199   8.1199   8.1400   8.1910   8.1910   8.2098
     8.2098   8.2313   8.2313   8.2313   8.2313   8.2313   8.2313   8.2370
     8.2370   8.2370   8.2746   8.2746   8.2746   8.2888   8.2888   8.2888
     8.4216   8.4216   8.4216   8.4946   8.4946   8.4946   8.5452   8.5452
     8.5452   8.6304   8.6304   8.6304   8.6409   8.6409   8.6409   8.6713
     8.6713   8.6713   8.6713   8.6713   8.6713   8.7967   8.7967   8.7967
     8.8087   8.8087   8.8087   8.8320   8.8320   8.8320   8.8454   8.8454
     8.9065   8.9065   8.9065   8.9066   8.9066   8.9066   9.0291   9.0291
     9.0291   9.0291   9.0291   9.0291   9.0590   9.0590   9.0590   9.0852
     9.0852   9.0852   9.0924   9.0924   9.0924   9.2191   9.2192   9.2192
     9.2847   9.2847   9.2847   9.3014   9.3014   9.3130   9.3130   9.3130
     9.3737   9.3737   9.3737   9.4391   9.4391   9.4391   9.4391   9.4391
     9.4391   9.4624   9.4624   9.4624   9.4645   9.4645   9.4645   9.9771
     9.9771   9.9771  10.3566  11.0376  11.0376  11.0376  11.0376  11.0376
    11.0376  11.6081  11.6081  11.6081  12.2555  12.2555  12.2555  12.6921
    12.6921  12.6921  13.9603  13.9603  13.9603  14.6372  14.6372  14.6372
    14.6372  14.6372  14.6372  15.0623  15.8819  15.8819  15.8819  15.8819
    15.8819  15.8819  16.1651  16.1651  16.1651  16.5854  16.5854  16.5854
    17.4114  17.4114  17.4114  17.4114  17.4114  17.4115  17.4198  17.4198
    17.4198  17.4198

          k = 0.1377 0.1377 0.2295 ( 53538 PWs)   bands (ev):

   -73.5497 -73.5483 -73.5478 -73.5478 -73.5469 -73.5469 -73.5466 -73.5464
   -73.5464 -73.5462 -73.5460 -73.5459 -73.5459 -73.5457 -73.5457 -73.5457
   -73.5457 -73.5456 -73.5454 -73.5454 -73.5452 -73.5450 -73.5450 -73.5446
   -73.5446 -73.5446 -73.5445 -73.5445 -73.5445 -73.5445 -73.5445 -73.5445
   -39.2987 -39.2980 -39.2979 -39.2955 -39.2955 -39.2949 -39.2949 -39.2909
   -39.2892 -39.2892 -39.2889 -39.2889 -39.2881 -39.2881 -39.2878 -39.2878
   -39.2875 -39.2875 -39.2868 -39.2868 -39.2860 -39.2860 -39.2842 -39.2836
   -39.2808 -39.2808 -39.2795 -39.2795 -39.2788 -39.2788 -39.2770 -39.2770
   -39.2762 -39.2762 -39.2753 -39.2753 -39.2703 -39.2696 -39.2696 -39.2692
   -39.2692 -39.2691 -39.2691 -39.2672 -39.2658 -39.2657 -39.2655 -39.2655
   -39.2654 -39.2653 -39.2653 -39.2653 -39.2652 -39.2643 -39.2642 -39.2640
   -39.2640 -39.2632 -39.2611 -39.2602 -39.2597 -39.2596 -39.2594 -39.2593
   -39.2593 -39.2581 -39.2580 -39.2580 -39.2578 -39.2578 -39.2570 -39.2570
   -39.2568 -39.2568 -39.2565 -39.2553 -39.2553 -39.2552 -39.2551 -39.2551
   -39.2549 -39.2549 -39.2536 -39.2536 -39.2535 -39.2527 -39.2519 -39.2519
   -39.2513 -39.2513 -39.2509 -39.2507 -39.2505 -39.2505 -39.2461 -39.2458
     5.7431   6.5391   6.8596   6.8596   7.0245   7.1298   7.1298   7.1525
     7.1666   7.1775   7.1775   7.2704   7.2795   7.2795   7.2798   7.2890
     7.2890   7.3192   7.3422   7.3422   7.4790   7.4790   7.4902   7.4902
     7.4907   7.5239   7.5682   7.5682   7.5812   7.5812   7.5983   7.5983
     7.6087   7.6087   7.6103   7.6103   7.6458   7.6458   7.6552   7.6553
     7.7668   7.7668   7.7845   7.7845   7.8311   7.8311   7.8840   7.9427
     7.9427   7.9709   7.9709   7.9723   7.9982   7.9982   8.0034   8.0034
     8.0228   8.0229   8.0505   8.0505   8.0806   8.0806   8.0849   8.1049
     8.1049   8.1177   8.1328   8.1943   8.1943   8.2002   8.2069   8.2319
     8.2358   8.2365   8.2365   8.2619   8.2619   8.2704   8.2704   8.2722
     8.2722   8.2820   8.2828   8.2828   8.3692   8.3692   8.3877   8.4115
     8.4144   8.4144   8.4156   8.4156   8.4622   8.4952   8.4952   8.5035
     8.5035   8.5282   8.5282   8.5658   8.5864   8.5864   8.6901   8.6901
     8.7102   8.7102   8.7251   8.7465   8.7465   8.7798   8.7798   8.7798
     8.8006   8.8006   8.8164   8.8632   8.8669   8.8669   8.8839   8.8839
     8.8955   8.9045   8.9045   8.9312   8.9722   8.9727   8.9727   8.9753
     8.9753   9.0092   9.0560   9.0560   9.0962   9.0962   9.1165   9.1165
     9.1237   9.1237   9.1412   9.1412   9.1528   9.1742   9.1742   9.2188
     9.2188   9.2420   9.2428   9.2454   9.2534   9.2565   9.2565   9.2713
     9.3604   9.3682   9.3682   9.3952   9.3953   9.3966   9.3966   9.4383
     9.4402   9.4403   9.4559   9.4559   9.6494   9.6494   9.7305   9.7305
     9.8563   9.9645  10.0967  10.7075  10.7075  11.0784  11.0784  11.4774
    11.4774  11.5147  11.5147  12.0323  12.1144  12.3121  12.7511  12.7511
    12.8952  12.8952  13.7939  13.9523  13.9523  14.2439  14.2439  14.3299
    14.3299  14.7581  14.7581  15.2053  15.2054  15.4270  15.5553  15.8114
    15.8114  16.0268  16.0268  16.2266  16.2266  16.5979  16.5979  16.6898
    16.6898  17.0568  17.0568  17.3285  17.3996  17.3996  17.5719  17.5719
    17.9052  17.9057

          k = 0.1377 0.1377 0.3213 ( 53525 PWs)   bands (ev):

   -73.5495 -73.5488 -73.5476 -73.5476 -73.5472 -73.5472 -73.5465 -73.5463
   -73.5463 -73.5463 -73.5460 -73.5460 -73.5457 -73.5457 -73.5457 -73.5457
   -73.5456 -73.5455 -73.5453 -73.5452 -73.5452 -73.5449 -73.5449 -73.5449
   -73.5447 -73.5447 -73.5446 -73.5446 -73.5445 -73.5445 -73.5445 -73.5445
   -39.2976 -39.2962 -39.2962 -39.2943 -39.2943 -39.2935 -39.2929 -39.2925
   -39.2917 -39.2916 -39.2909 -39.2909 -39.2883 -39.2883 -39.2882 -39.2882
   -39.2878 -39.2878 -39.2872 -39.2869 -39.2869 -39.2869 -39.2848 -39.2848
   -39.2820 -39.2820 -39.2787 -39.2787 -39.2769 -39.2769 -39.2769 -39.2769
   -39.2754 -39.2754 -39.2742 -39.2742 -39.2716 -39.2716 -39.2716 -39.2716
   -39.2705 -39.2705 -39.2670 -39.2661 -39.2656 -39.2656 -39.2654 -39.2654
   -39.2645 -39.2637 -39.2637 -39.2630 -39.2628 -39.2628 -39.2628 -39.2627
   -39.2624 -39.2624 -39.2618 -39.2607 -39.2606 -39.2606 -39.2595 -39.2592
   -39.2592 -39.2589 -39.2589 -39.2584 -39.2584 -39.2575 -39.2575 -39.2573
   -39.2571 -39.2571 -39.2562 -39.2557 -39.2557 -39.2555 -39.2551 -39.2551
   -39.2550 -39.2550 -39.2546 -39.2546 -39.2542 -39.2534 -39.2522 -39.2515
   -39.2511 -39.2511 -39.2504 -39.2504 -39.2497 -39.2490 -39.2471 -39.2465
     5.8850   6.2908   6.9476   6.9476   7.0587   7.1676   7.1676   7.1879
     7.1896   7.1896   7.2064   7.2312   7.2354   7.2354   7.2943   7.3098
     7.3554   7.3554   7.3652   7.3652   7.3954   7.3954   7.3962   7.3962
     7.4219   7.4231   7.5144   7.5144   7.5386   7.5386   7.5840   7.5840
     7.5903   7.5903   7.6517   7.6517   7.6763   7.6763   7.6829   7.6829
     7.7804   7.7804   7.8246   7.8246   7.8684   7.8684   7.8711   7.8711
     7.8779   7.8779   7.9298   7.9298   7.9573   7.9634   7.9634   7.9854
     8.0435   8.0435   8.0481   8.0772   8.0838   8.0838   8.0860   8.0860
     8.1340   8.1340   8.1506   8.1506   8.1790   8.2020   8.2382   8.2421
     8.2421   8.2524   8.2524   8.2722   8.2746   8.2754   8.2754   8.3210
     8.3210   8.3211   8.3211   8.3400   8.3434   8.3674   8.3674   8.3773
     8.3886   8.3969   8.3969   8.4856   8.5036   8.5036   8.5178   8.5178
     8.5490   8.5490   8.5584   8.5846   8.6113   8.6113   8.7088   8.7410
     8.7410   8.7473   8.7473   8.7775   8.7821   8.7821   8.8011   8.8011
     8.8121   8.8121   8.8258   8.8258   8.8407   8.8488   8.8488   8.8703
     8.8704   8.8894   8.8915   8.8915   8.9264   8.9635   8.9932   9.0028
     9.0028   9.0263   9.0559   9.0559   9.0678   9.0981   9.0981   9.1672
     9.1700   9.1874   9.1886   9.1887   9.1971   9.1971   9.1971   9.1971
     9.2036   9.2036   9.2054   9.2054   9.2116   9.2116   9.2212   9.3205
     9.3290   9.3375   9.3375   9.3385   9.3385   9.3389   9.3389   9.4053
     9.4422   9.4422   9.4499   9.4499   9.5219   9.5219   9.8774   9.8774
     9.9504   9.9746  10.3389  10.4067  10.4067  11.1422  11.1422  11.3450
    11.3450  11.4952  12.0513  12.0513  12.3260  12.3790  13.1706  13.1706
    13.2793  13.2793  13.2939  13.2939  13.8495  13.8598  13.8598  14.5041
    14.5041  14.7560  14.8119  14.8119  14.9811  14.9811  15.4917  15.4917
    16.0059  16.0059  16.0999  16.2149  16.2149  16.4758  16.4758  16.6063
    16.6063  16.7329  16.7329  17.3308  17.5083  17.5083  17.7214  17.7214
    18.1118  18.1118

          k = 0.1377 0.1377-0.4130 ( 53536 PWs)   bands (ev):

   -73.5491 -73.5491 -73.5474 -73.5474 -73.5474 -73.5474 -73.5464 -73.5464
   -73.5462 -73.5462 -73.5462 -73.5462 -73.5457 -73.5457 -73.5457 -73.5457
   -73.5454 -73.5454 -73.5452 -73.5452 -73.5449 -73.5449 -73.5449 -73.5449
   -73.5447 -73.5447 -73.5447 -73.5447 -73.5445 -73.5445 -73.5445 -73.5445
   -39.2958 -39.2958 -39.2941 -39.2941 -39.2940 -39.2940 -39.2927 -39.2927
   -39.2927 -39.2927 -39.2904 -39.2904 -39.2898 -39.2898 -39.2884 -39.2884
   -39.2884 -39.2884 -39.2874 -39.2874 -39.2873 -39.2873 -39.2834 -39.2834
   -39.2834 -39.2834 -39.2781 -39.2781 -39.2781 -39.2781 -39.2742 -39.2742
   -39.2742 -39.2742 -39.2735 -39.2735 -39.2735 -39.2735 -39.2722 -39.2722
   -39.2722 -39.2722 -39.2655 -39.2655 -39.2654 -39.2654 -39.2647 -39.2647
   -39.2638 -39.2638 -39.2633 -39.2633 -39.2620 -39.2620 -39.2620 -39.2620
   -39.2610 -39.2609 -39.2609 -39.2609 -39.2607 -39.2607 -39.2607 -39.2607
   -39.2604 -39.2604 -39.2604 -39.2604 -39.2563 -39.2563 -39.2563 -39.2563
   -39.2562 -39.2562 -39.2560 -39.2560 -39.2559 -39.2559 -39.2559 -39.2559
   -39.2556 -39.2556 -39.2550 -39.2550 -39.2550 -39.2550 -39.2518 -39.2518
   -39.2506 -39.2506 -39.2506 -39.2506 -39.2483 -39.2483 -39.2476 -39.2476
     6.0694   6.0694   7.0535   7.0535   7.0535   7.0535   7.1134   7.1134
     7.2518   7.2518   7.2683   7.2683   7.2683   7.2683   7.3093   7.3093
     7.3093   7.3093   7.3229   7.3229   7.3609   7.3609   7.4402   7.4402
     7.4402   7.4402   7.4548   7.4548   7.4548   7.4548   7.5862   7.5862
     7.5862   7.5862   7.6826   7.6826   7.6826   7.6826   7.7675   7.7675
     7.7675   7.7676   7.8118   7.8118   7.8118   7.8118   7.8761   7.8761
     7.8761   7.8761   7.9146   7.9146   7.9146   7.9146   8.0132   8.0132
     8.0226   8.0226   8.0649   8.0649   8.0649   8.0649   8.1104   8.1104
     8.1104   8.1104   8.1961   8.1961   8.2417   8.2417   8.2417   8.2417
     8.2471   8.2471   8.2471   8.2471   8.2841   8.2841   8.2881   8.2881
     8.2881   8.2881   8.3242   8.3242   8.3258   8.3258   8.3776   8.3776
     8.3776   8.3776   8.4088   8.4088   8.5102   8.5102   8.5103   8.5103
     8.6670   8.6670   8.6670   8.6670   8.7017   8.7017   8.7362   8.7362
     8.7639   8.7639   8.7639   8.7639   8.8022   8.8022   8.8022   8.8022
     8.8104   8.8104   8.8104   8.8104   8.8276   8.8276   8.8392   8.8392
     8.8392   8.8392   8.8614   8.8614   8.8614   8.8614   8.9231   8.9231
     9.0572   9.0572   9.0858   9.0858   9.1131   9.1131   9.1350   9.1350
     9.1350   9.1350   9.1454   9.1454   9.1455   9.1455   9.2714   9.2714
     9.2714   9.2714   9.2724   9.2724   9.2724   9.2724   9.2816   9.2816
     9.2850   9.2850   9.2850   9.2850   9.3441   9.3441   9.3441   9.3441
     9.3655   9.3655   9.4453   9.4453   9.4453   9.4453   9.9449   9.9449
    10.1307  10.1307  10.1307  10.1307  10.8930  10.8930  11.2310  11.2310
    11.2310  11.2310  12.4150  12.4150  12.6420  12.6420  12.6420  12.6420
    13.4976  13.4976  13.4976  13.4976  13.8818  13.8818  13.8818  13.8818
    14.1977  14.1977  15.2107  15.2107  15.2107  15.2107  15.3763  15.3763
    15.3763  15.3763  16.4511  16.4511  16.4511  16.4511  16.5853  16.5853
    16.5853  16.5853  16.6927  16.6927  17.7941  17.7941  17.7941  17.8971
    17.8973  17.8973

          k = 0.1377 0.2295 0.2295 ( 53511 PWs)   bands (ev):

   -73.5495 -73.5482 -73.5482 -73.5477 -73.5473 -73.5469 -73.5469 -73.5464
   -73.5463 -73.5459 -73.5459 -73.5459 -73.5459 -73.5458 -73.5456 -73.5456
   -73.5456 -73.5456 -73.5455 -73.5454 -73.5451 -73.5451 -73.5449 -73.5446
   -73.5446 -73.5446 -73.5446 -73.5446 -73.5446 -73.5445 -73.5445 -73.5445
   -39.2977 -39.2977 -39.2966 -39.2947 -39.2943 -39.2943 -39.2927 -39.2908
   -39.2908 -39.2899 -39.2899 -39.2891 -39.2891 -39.2885 -39.2885 -39.2882
   -39.2881 -39.2880 -39.2880 -39.2879 -39.2874 -39.2874 -39.2842 -39.2842
   -39.2820 -39.2818 -39.2818 -39.2772 -39.2771 -39.2769 -39.2767 -39.2766
   -39.2766 -39.2750 -39.2750 -39.2719 -39.2719 -39.2713 -39.2704 -39.2682
   -39.2682 -39.2676 -39.2675 -39.2674 -39.2674 -39.2654 -39.2654 -39.2653
   -39.2651 -39.2651 -39.2643 -39.2643 -39.2640 -39.2640 -39.2636 -39.2636
   -39.2632 -39.2631 -39.2617 -39.2617 -39.2599 -39.2599 -39.2592 -39.2591
   -39.2591 -39.2587 -39.2581 -39.2576 -39.2576 -39.2575 -39.2575 -39.2573
   -39.2572 -39.2572 -39.2571 -39.2568 -39.2568 -39.2557 -39.2556 -39.2553
   -39.2553 -39.2553 -39.2530 -39.2530 -39.2529 -39.2525 -39.2522 -39.2518
   -39.2518 -39.2507 -39.2507 -39.2501 -39.2501 -39.2495 -39.2467 -39.2460
     5.8371   6.6111   6.6111   6.9067   7.0246   7.1369   7.1587   7.1961
     7.1961   7.2046   7.2046   7.2059   7.2060   7.2067   7.3161   7.3161
     7.3415   7.3522   7.3561   7.3561   7.4527   7.4528   7.4858   7.4858
     7.5180   7.5180   7.5348   7.5348   7.5356   7.5356   7.5377   7.5377
     7.5561   7.5991   7.5991   7.6015   7.6015   7.6671   7.6671   7.6762
     7.6971   7.6971   7.7865   7.7865   7.8751   7.9036   7.9036   7.9173
     7.9173   7.9474   7.9474   7.9571   7.9596   7.9596   7.9988   8.0506
     8.0506   8.0632   8.0633   8.0769   8.0769   8.0988   8.1063   8.1355
     8.1355   8.1717   8.1717   8.2079   8.2214   8.2214   8.2257   8.2329
     8.2329   8.2462   8.2560   8.2914   8.3040   8.3182   8.3224   8.3224
     8.3282   8.3282   8.3398   8.3593   8.3593   8.3776   8.3776   8.3792
     8.3792   8.4062   8.4062   8.4219   8.4219   8.4347   8.4519   8.4519
     8.4645   8.4890   8.6112   8.6112   8.6165   8.6165   8.6352   8.6352
     8.6554   8.6554   8.7270   8.7313   8.7350   8.7704   8.7704   8.7932
     8.7933   8.8119   8.8539   8.8599   8.8599   8.8623   8.8654   8.8655
[...]
    10.9685  10.9685  10.9685  10.9685  11.7499  11.7499  11.7499  11.7499
    11.7499  11.7499  11.7499  11.7499  12.7068  12.7068  12.7068  12.7068
    12.7068  12.7068  12.7069  12.7069  13.4915  13.4915  13.4915  13.4915
    14.8918  14.8918  14.8918  14.8918  14.8918  14.8918  14.8918  14.8918
    15.5257  15.5257  15.5257  15.5257  16.6107  16.6107  16.6107  16.6107
    17.2152  17.2152  17.2152  17.2152  17.2152  17.2152  17.2152  17.2152
    18.1797  18.1797

          k = 0.3213 0.3213 0.3213 ( 53511 PWs)   bands (ev):

   -73.5487 -73.5482 -73.5481 -73.5481 -73.5477 -73.5476 -73.5476 -73.5472
   -73.5454 -73.5454 -73.5454 -73.5454 -73.5454 -73.5454 -73.5454 -73.5453
   -73.5453 -73.5453 -73.5453 -73.5453 -73.5449 -73.5449 -73.5449 -73.5449
   -73.5449 -73.5449 -73.5449 -73.5448 -73.5448 -73.5448 -73.5448 -73.5448
   -39.2938 -39.2938 -39.2938 -39.2921 -39.2921 -39.2921 -39.2916 -39.2916
   -39.2916 -39.2910 -39.2910 -39.2910 -39.2910 -39.2910 -39.2910 -39.2909
   -39.2909 -39.2909 -39.2909 -39.2909 -39.2909 -39.2891 -39.2891 -39.2891
   -39.2820 -39.2759 -39.2759 -39.2759 -39.2717 -39.2716 -39.2716 -39.2716
   -39.2716 -39.2716 -39.2712 -39.2712 -39.2712 -39.2701 -39.2700 -39.2700
   -39.2696 -39.2696 -39.2696 -39.2658 -39.2658 -39.2658 -39.2658 -39.2658
   -39.2658 -39.2648 -39.2648 -39.2648 -39.2642 -39.2642 -39.2642 -39.2632
   -39.2627 -39.2627 -39.2626 -39.2615 -39.2615 -39.2615 -39.2615 -39.2615
   -39.2615 -39.2604 -39.2604 -39.2604 -39.2597 -39.2597 -39.2597 -39.2592
   -39.2592 -39.2592 -39.2592 -39.2592 -39.2592 -39.2581 -39.2581 -39.2581
   -39.2518 -39.2518 -39.2517 -39.2508 -39.2508 -39.2500 -39.2500 -39.2500
   -39.2492 -39.2492 -39.2492 -39.2489 -39.2489 -39.2489 -39.2478 -39.2478
     6.3089   6.6331   6.6331   6.6331   6.8535   6.8535   6.8536   6.9349
     7.3303   7.3303   7.3303   7.3598   7.3598   7.3598   7.3743   7.3743
     7.3743   7.4196   7.4196   7.4196   7.4196   7.4196   7.4196   7.4257
     7.4257   7.4257   7.4257   7.4257   7.4257   7.4414   7.4414   7.4414
     7.5706   7.5706   7.5706   7.7092   7.7092   7.7092   7.7485   7.7485
     7.7485   7.7486   7.7486   7.7486   7.8818   7.8818   7.8818   7.8851
     7.8851   7.8851   7.8851   7.8851   7.8851   7.9743   7.9743   7.9743
     8.0970   8.0970   8.0970   8.1023   8.2191   8.2191   8.2191   8.2750
     8.2750   8.3056   8.3056   8.3258   8.3258   8.3258   8.3320   8.3320
     8.3320   8.3348   8.3348   8.3348   8.3348   8.3348   8.3348   8.3422
     8.3422   8.3422   8.3522   8.3522   8.3522   8.4248   8.4248   8.4248
     8.4505   8.4505   8.4505   8.4505   8.4505   8.4505   8.4703   8.4703
     8.4703   8.4984   8.4984   8.4984   8.5271   8.5271   8.5271   8.6751
     8.6887   8.6887   8.6887   8.6925   8.6925   8.6925   8.6926   8.6926
     8.6926   8.7068   8.7068   8.7068   8.7756   8.7756   8.7756   8.8467
     8.8467   8.8467   8.8467   8.8467   8.8467   8.8606   8.8606   8.8647
     8.8647   8.8647   8.8847   8.8847   8.8847   8.9442   8.9442   8.9442
     8.9904   8.9904   8.9904   9.0630   9.0630   9.1393   9.1393   9.1393
     9.3497   9.3497   9.3497   9.3682   9.3682   9.3682   9.3683   9.3683
     9.3683   9.3818   9.3818   9.3818   9.3818   9.3818   9.3818   9.3921
     9.3921   9.3921   9.3943   9.3943   9.3943   9.4198   9.4198   9.4198
    11.0983  11.0983  11.0984  11.6024  11.6024  11.6024  11.6024  11.6024
    11.6024  12.0016  12.0016  12.0016  12.3088  12.3088  12.3088  12.8660
    12.8660  12.8660  12.8660  12.8660  12.8660  13.3355  13.3355  13.3355
    14.6099  14.6099  14.6099  15.1266  15.1266  15.1266  15.7778  15.7778
    15.7778  15.7778  15.7778  15.7778  16.3205  16.3205  16.3205  16.3205
    16.3205  16.3205  16.8719  16.8720  16.8720  17.4807  17.4807  17.4807
    18.2485  18.8566

          k = 0.3213 0.3213-0.4130 ( 53432 PWs)   bands (ev):

   -73.5485 -73.5485 -73.5479 -73.5479 -73.5479 -73.5479 -73.5475 -73.5475
   -73.5454 -73.5454 -73.5454 -73.5454 -73.5454 -73.5454 -73.5453 -73.5453
   -73.5451 -73.5451 -73.5451 -73.5451 -73.5451 -73.5451 -73.5451 -73.5451
   -73.5449 -73.5449 -73.5449 -73.5449 -73.5449 -73.5449 -73.5448 -73.5448
   -39.2932 -39.2932 -39.2924 -39.2924 -39.2924 -39.2924 -39.2915 -39.2915
   -39.2915 -39.2915 -39.2913 -39.2913 -39.2913 -39.2913 -39.2912 -39.2912
   -39.2912 -39.2912 -39.2906 -39.2906 -39.2900 -39.2900 -39.2900 -39.2900
   -39.2789 -39.2789 -39.2727 -39.2727 -39.2727 -39.2727 -39.2715 -39.2715
   -39.2715 -39.2715 -39.2708 -39.2708 -39.2708 -39.2708 -39.2687 -39.2687
   -39.2687 -39.2687 -39.2676 -39.2676 -39.2675 -39.2675 -39.2663 -39.2663
   -39.2652 -39.2652 -39.2652 -39.2652 -39.2649 -39.2649 -39.2648 -39.2648
   -39.2620 -39.2620 -39.2619 -39.2619 -39.2616 -39.2616 -39.2605 -39.2605
   -39.2605 -39.2605 -39.2605 -39.2605 -39.2605 -39.2604 -39.2598 -39.2598
   -39.2598 -39.2598 -39.2590 -39.2590 -39.2587 -39.2587 -39.2587 -39.2587
   -39.2509 -39.2509 -39.2506 -39.2506 -39.2506 -39.2506 -39.2499 -39.2499
   -39.2490 -39.2490 -39.2490 -39.2490 -39.2488 -39.2488 -39.2481 -39.2481
     6.4590   6.4590   6.7377   6.7377   6.7377   6.7377   6.8905   6.8905
     7.3553   7.3553   7.3702   7.3702   7.3702   7.3702   7.3850   7.3850
     7.3851   7.3851   7.3915   7.3915   7.3915   7.3915   7.4075   7.4075
     7.4283   7.4283   7.4283   7.4283   7.4288   7.4288   7.4288   7.4288
     7.6334   7.6334   7.6606   7.6606   7.6606   7.6606   7.8035   7.8035
     7.8035   7.8035   7.8096   7.8096   7.8096   7.8096   7.8217   7.8217
     7.8217   7.8217   7.9226   7.9226   7.9407   7.9407   7.9407   7.9407
     8.1086   8.1086   8.1705   8.1705   8.1705   8.1705   8.2823   8.2823
     8.2939   8.2939   8.3185   8.3186   8.3193   8.3193   8.3274   8.3274
     8.3274   8.3274   8.3318   8.3318   8.3318   8.3318   8.3907   8.3907
     8.3907   8.3907   8.3952   8.3952   8.3952   8.3952   8.4110   8.4110
     8.4110   8.4110   8.4391   8.4391   8.4391   8.4391   8.4418   8.4418
     8.4685   8.4685   8.5824   8.5824   8.5824   8.5824   8.5990   8.5990
     8.5990   8.5990   8.6062   8.6062   8.6075   8.6075   8.7254   8.7254
     8.7254   8.7254   8.7586   8.7586   8.7586   8.7586   8.7718   8.7718
     8.7718   8.7718   8.8447   8.8447   8.8610   8.8610   8.8822   8.8822
     8.8822   8.8822   8.8907   8.8907   8.8907   8.8907   8.9223   8.9223
     8.9749   8.9749   9.0391   9.0391   9.0391   9.0391   9.0927   9.0927
     9.3716   9.3716   9.3716   9.3716   9.3782   9.3782   9.3817   9.3817
     9.3818   9.3818   9.3906   9.3906   9.3906   9.3906   9.3914   9.3914
     9.3914   9.3914   9.4052   9.4052   9.4052   9.4052   9.4137   9.4137
    11.3314  11.3314  11.3314  11.3314  11.6825  11.6825  11.7844  11.7844
    11.7844  11.7844  12.2137  12.2137  12.2137  12.2137  12.5692  12.5692
    12.5692  12.5692  12.6492  12.6492  13.0874  13.0874  13.0874  13.0875
    14.8434  14.8434  15.1665  15.1665  15.1665  15.1665  15.6976  15.6976
    15.6976  15.6976  16.0248  16.0248  16.0248  16.0248  16.3134  16.3134
    16.3134  16.3134  16.8820  16.8820  16.8820  16.8820  17.1589  17.1589
    18.8424  18.8427

          k = 0.3213-0.4130-0.4130 ( 53432 PWs)   bands (ev):

   -73.5482 -73.5482 -73.5482 -73.5482 -73.5477 -73.5477 -73.5477 -73.5477
   -73.5454 -73.5454 -73.5454 -73.5454 -73.5451 -73.5451 -73.5451 -73.5451
   -73.5451 -73.5451 -73.5451 -73.5451 -73.5451 -73.5451 -73.5451 -73.5451
   -73.5451 -73.5451 -73.5451 -73.5451 -73.5449 -73.5449 -73.5449 -73.5449
   -39.2923 -39.2922 -39.2922 -39.2922 -39.2922 -39.2922 -39.2922 -39.2922
   -39.2914 -39.2914 -39.2914 -39.2914 -39.2912 -39.2912 -39.2912 -39.2912
   -39.2909 -39.2909 -39.2909 -39.2909 -39.2908 -39.2908 -39.2908 -39.2908
   -39.2758 -39.2758 -39.2758 -39.2758 -39.2712 -39.2712 -39.2712 -39.2712
   -39.2695 -39.2695 -39.2694 -39.2694 -39.2681 -39.2681 -39.2681 -39.2681
   -39.2681 -39.2681 -39.2681 -39.2681 -39.2681 -39.2680 -39.2680 -39.2680
   -39.2680 -39.2680 -39.2680 -39.2680 -39.2649 -39.2649 -39.2649 -39.2649
   -39.2613 -39.2613 -39.2613 -39.2613 -39.2610 -39.2610 -39.2610 -39.2610
   -39.2610 -39.2610 -39.2610 -39.2610 -39.2598 -39.2598 -39.2598 -39.2597
   -39.2597 -39.2597 -39.2597 -39.2597 -39.2594 -39.2594 -39.2594 -39.2594
   -39.2503 -39.2503 -39.2503 -39.2503 -39.2496 -39.2495 -39.2495 -39.2495
   -39.2495 -39.2495 -39.2495 -39.2495 -39.2484 -39.2484 -39.2484 -39.2484
     6.5895   6.5895   6.5895   6.5895   6.8103   6.8103   6.8103   6.8103
     7.3834   7.3834   7.3834   7.3834   7.3853   7.3853   7.3853   7.3853
     7.3853   7.3853   7.3853   7.3853   7.3923   7.3923   7.3923   7.3923
     7.4137   7.4137   7.4137   7.4137   7.4137   7.4137   7.4137   7.4137
     7.7248   7.7248   7.7248   7.7248   7.7248   7.7248   7.7248   7.7248
     7.7454   7.7454   7.7454   7.7454   7.8753   7.8753   7.8753   7.8753
     7.8754   7.8754   7.8754   7.8754   7.8842   7.8842   7.8842   7.8842
     8.1497   8.1497   8.1497   8.1497   8.2765   8.2765   8.2765   8.2765
     8.3085   8.3085   8.3085   8.3085   8.3184   8.3184   8.3184   8.3184
     8.3210   8.3210   8.3210   8.3210   8.3442   8.3442   8.3442   8.3442
     8.3985   8.3985   8.3985   8.3985   8.4129   8.4129   8.4129   8.4129
     8.4129   8.4129   8.4129   8.4129   8.4986   8.4986   8.4986   8.4986
     8.4986   8.4986   8.4986   8.4986   8.5171   8.5171   8.5172   8.5172
     8.6469   8.6469   8.6469   8.6469   8.6780   8.6780   8.6780   8.6780
     8.6780   8.6780   8.6780   8.6780   8.8094   8.8094   8.8094   8.8094
     8.8094   8.8094   8.8094   8.8094   8.8135   8.8135   8.8135   8.8135
     8.8619   8.8619   8.8619   8.8619   8.9573   8.9573   8.9573   8.9573
     8.9613   8.9613   8.9613   8.9613   9.0209   9.0209   9.0209   9.0209
     9.3887   9.3887   9.3887   9.3887   9.3887   9.3887   9.3887   9.3887
     9.3938   9.3938   9.3938   9.3938   9.4020   9.4020   9.4020   9.4020
     9.4047   9.4047   9.4047   9.4047   9.4047   9.4047   9.4048   9.4048
    11.5381  11.5381  11.5382  11.5382  11.9299  11.9299  11.9299  11.9299
    11.9299  11.9299  11.9299  11.9299  12.4162  12.4162  12.4162  12.4162
    12.4162  12.4162  12.4162  12.4162  12.8102  12.8102  12.8102  12.8102
    15.4071  15.4071  15.4071  15.4071  15.4072  15.4072  15.4072  15.4072
    15.7215  15.7215  15.7215  15.7215  16.2682  16.2682  16.2682  16.2682
    16.5753  16.5753  16.5753  16.5753  16.5753  16.5753  16.5753  16.5753
    19.0869  19.0870

          k =-0.4130-0.4130-0.4130 ( 53264 PWs)   bands (ev):

   -73.5480 -73.5480 -73.5480 -73.5480 -73.5480 -73.5480 -73.5480 -73.5480
   -73.5452 -73.5451 -73.5451 -73.5451 -73.5451 -73.5451 -73.5451 -73.5451
   -73.5451 -73.5451 -73.5451 -73.5451 -73.5451 -73.5451 -73.5451 -73.5451
   -73.5451 -73.5451 -73.5451 -73.5451 -73.5451 -73.5451 -73.5451 -73.5451
   -39.2916 -39.2915 -39.2915 -39.2915 -39.2915 -39.2915 -39.2915 -39.2915
   -39.2915 -39.2915 -39.2915 -39.2915 -39.2915 -39.2915 -39.2915 -39.2915
   -39.2915 -39.2915 -39.2915 -39.2915 -39.2915 -39.2915 -39.2915 -39.2915
   -39.2726 -39.2726 -39.2726 -39.2726 -39.2726 -39.2726 -39.2726 -39.2726
   -39.2681 -39.2681 -39.2681 -39.2681 -39.2681 -39.2681 -39.2681 -39.2681
   -39.2681 -39.2681 -39.2681 -39.2681 -39.2680 -39.2680 -39.2680 -39.2680
   -39.2680 -39.2680 -39.2680 -39.2680 -39.2680 -39.2680 -39.2680 -39.2680
   -39.2604 -39.2604 -39.2604 -39.2604 -39.2604 -39.2604 -39.2604 -39.2604
   -39.2603 -39.2603 -39.2603 -39.2603 -39.2603 -39.2603 -39.2603 -39.2603
   -39.2603 -39.2603 -39.2603 -39.2603 -39.2603 -39.2603 -39.2603 -39.2603
   -39.2492 -39.2492 -39.2492 -39.2492 -39.2492 -39.2492 -39.2492 -39.2492
   -39.2492 -39.2492 -39.2492 -39.2492 -39.2492 -39.2492 -39.2492 -39.2492
     6.6941   6.6941   6.6941   6.6941   6.6941   6.6941   6.6941   6.6941
     7.3938   7.3938   7.3938   7.3938   7.3938   7.3938   7.3938   7.3938
     7.3938   7.3938   7.3938   7.3938   7.3938   7.3938   7.3938   7.3938
     7.3938   7.3938   7.3938   7.3938   7.3938   7.3938   7.3938   7.3938
     7.8077   7.8077   7.8077   7.8077   7.8078   7.8078   7.8078   7.8078
     7.8078   7.8078   7.8078   7.8078   7.8078   7.8078   7.8078   7.8078
     7.8078   7.8078   7.8078   7.8078   7.8078   7.8078   7.8078   7.8078
     8.2410   8.2410   8.2410   8.2410   8.2410   8.2410   8.2410   8.2410
     8.3080   8.3080   8.3080   8.3080   8.3080   8.3081   8.3081   8.3081
     8.3081   8.3081   8.3081   8.3081   8.3081   8.3081   8.3081   8.3081
     8.4572   8.4572   8.4572   8.4572   8.4572   8.4572   8.4572   8.4572
     8.4572   8.4572   8.4572   8.4572   8.4572   8.4572   8.4572   8.4572
     8.4572   8.4572   8.4572   8.4572   8.4572   8.4572   8.4572   8.4572
     8.7298   8.7298   8.7298   8.7298   8.7298   8.7298   8.7298   8.7298
     8.7298   8.7298   8.7298   8.7298   8.7298   8.7298   8.7298   8.7298
     8.7298   8.7298   8.7298   8.7298   8.7298   8.7298   8.7298   8.7299
     8.9401   8.9401   8.9401   8.9401   8.9401   8.9401   8.9401   8.9401
     8.9401   8.9401   8.9401   8.9401   8.9401   8.9401   8.9401   8.9401
     9.4051   9.4051   9.4051   9.4051   9.4051   9.4051   9.4051   9.4051
     9.4051   9.4051   9.4052   9.4052   9.4052   9.4052   9.4052   9.4052
     9.4052   9.4052   9.4052   9.4052   9.4052   9.4052   9.4052   9.4052
    12.1546  12.1546  12.1546  12.1546  12.1546  12.1546  12.1546  12.1546
    12.1546  12.1546  12.1546  12.1546  12.1546  12.1546  12.1546  12.1546
    12.1546  12.1546  12.1546  12.1546  12.1546  12.1546  12.1546  12.1546
    15.9703  15.9703  15.9703  15.9703  15.9703  15.9703  15.9703  15.9703
    15.9703  15.9703  15.9703  15.9703  15.9703  15.9703  15.9703  15.9703
    15.9703  15.9703  15.9703  15.9703  15.9703  15.9703  15.9703  15.9703
    20.0187  20.0189

     the Fermi energy is     9.5158 ev

!    total energy              =  -16382.41349997 Ry

     total all-electron energy =   -322943.267207 Ry
     estimated scf accuracy    <       0.00000017 Ry
     smearing contrib. (-TS)   =       0.34959223 Ry
     internal energy E=F+TS    =  -16382.76309220 Ry

     The total energy is F=E-TS. E is the sum of the following terms:
     one-electron contribution =   -4026.61899843 Ry
     hartree contribution      =    2245.37159074 Ry
     xc contribution           =    -980.50582991 Ry
     ewald contribution        =   -5453.99244990 Ry
     one-center paw contrib.   =   -8167.01740470 Ry

     convergence has been achieved in  14 iterations

     Forces acting on atoms (cartesian axes, Ry/au):

     atom    1 type  1   force =     0.00000000    0.00000000    0.00000000
     atom    2 type  1   force =     0.00000350    0.00000350   -0.00000000
     atom    3 type  1   force =     0.00000350    0.00000000    0.00000350
     atom    4 type  1   force =     0.00000000    0.00000350    0.00000350
     atom    5 type  1   force =     0.00000000    0.00000000    0.00000000
     atom    6 type  1   force =    -0.00001006   -0.00001006    0.00000000
     atom    7 type  1   force =     0.00000350    0.00000000   -0.00000350
     atom    8 type  1   force =     0.00000000    0.00000350   -0.00000350
     atom    9 type  1   force =     0.00000000    0.00000000    0.00000000
     atom   10 type  1   force =     0.00000350   -0.00000350    0.00000000
     atom   11 type  1   force =    -0.00001006    0.00000000   -0.00001006
     atom   12 type  1   force =    -0.00000000   -0.00000350    0.00000350
     atom   13 type  1   force =     0.00000000    0.00000000    0.00000000
     atom   14 type  1   force =    -0.00001006    0.00001006    0.00000000
     atom   15 type  1   force =    -0.00001006    0.00000000    0.00001006
     atom   16 type  1   force =     0.00000000   -0.00000350   -0.00000350
     atom   17 type  1   force =     0.00000000    0.00000000    0.00000000
     atom   18 type  1   force =    -0.00000350    0.00000350    0.00000000
     atom   19 type  1   force =    -0.00000350   -0.00000000    0.00000350
     atom   20 type  1   force =     0.00000000   -0.00001006   -0.00001006
     atom   21 type  1   force =     0.00000000    0.00000000    0.00000000
     atom   22 type  1   force =     0.00001006   -0.00001006    0.00000000
     atom   23 type  1   force =    -0.00000350    0.00000000   -0.00000350
     atom   24 type  1   force =    -0.00000000   -0.00001006    0.00001006
     atom   25 type  1   force =     0.00000000    0.00000000    0.00000000
     atom   26 type  1   force =    -0.00000350   -0.00000350   -0.00000000
     atom   27 type  1   force =     0.00001006    0.00000000   -0.00001006
     atom   28 type  1   force =     0.00000000    0.00001006   -0.00001006
     atom   29 type  1   force =     0.00000000    0.00000000    0.00000000
     atom   30 type  1   force =     0.00001006    0.00001006    0.00000000
     atom   31 type  1   force =     0.00001006   -0.00000000    0.00001006
     atom   32 type  1   force =    -0.00000000    0.00001006    0.00001006

     Total force =     0.000052     Total SCF correction =     0.000216
     SCF correction compared to forces is large: reduce conv_thr to get better values


     Computing stress (Cartesian axis) and pressure

          total   stress  (Ry/bohr**3)                   (kbar)     P=     -228.45
  -0.00155297   0.00000000   0.00000000         -228.45        0.00        0.00
   0.00000000  -0.00155297   0.00000000            0.00     -228.45        0.00
   0.00000000   0.00000000  -0.00155297            0.00        0.00     -228.45


     Writing output data file /scratch/bZZNXYNbZzSdwLWS.save/
 
     init_run     :     17.40s CPU     17.83s WALL (       1 calls)
     electrons    :    834.33s CPU    845.65s WALL (       1 calls)
     forces       :      7.97s CPU      8.08s WALL (       1 calls)
     stress       :     74.78s CPU     75.30s WALL (       1 calls)

     Called by init_run:
     wfcinit      :     16.33s CPU     16.65s WALL (       1 calls)
     potinit      :      0.14s CPU      0.17s WALL (       1 calls)
     hinit0       :      0.50s CPU      0.51s WALL (       1 calls)

     Called by electrons:
     c_bands      :    743.26s CPU    752.98s WALL (      15 calls)
     sum_band     :     88.06s CPU     89.28s WALL (      15 calls)
     v_of_rho     :      0.35s CPU      0.40s WALL (      15 calls)
     newd         :      0.75s CPU      0.99s WALL (      15 calls)
     PAW_pot      :      1.37s CPU      1.46s WALL (      15 calls)
     mix_rho      :      0.12s CPU      0.14s WALL (      15 calls)

     Called by c_bands:
     init_us_2    :      4.32s CPU      4.37s WALL (    1155 calls)
     cegterg      :    728.49s CPU    738.01s WALL (     525 calls)

     Called by *egterg:
     cdiaghg      :     61.93s CPU     62.93s WALL (    1640 calls)
     h_psi        :    376.14s CPU    381.51s WALL (    1710 calls)
     s_psi        :     32.58s CPU     32.82s WALL (    1710 calls)
     g_psi        :      1.04s CPU      1.05s WALL (    1150 calls)

     Called by h_psi:
     h_psi:calbec :     53.06s CPU     53.56s WALL (    1710 calls)
     vloc_psi     :    288.20s CPU    292.61s WALL (    1710 calls)
     add_vuspsi   :     32.38s CPU     32.80s WALL (    1710 calls)

     General routines
     calbec       :     83.31s CPU     84.09s WALL (    2410 calls)
     fft          :      0.57s CPU      0.61s WALL (     219 calls)
     ffts         :      0.12s CPU      0.13s WALL (      30 calls)
     fftw         :    336.42s CPU    341.30s WALL ( 1040678 calls)
     interpolate  :      0.28s CPU      0.29s WALL (      15 calls)
 
     Parallel routines
     fft_scatt_xy :     29.84s CPU     30.23s WALL ( 1040927 calls)
     fft_scatt_yz :    266.54s CPU    270.63s WALL ( 1040927 calls)
 
     PWSCF        :  15m48.22s CPU  16m 3.63s WALL

 
   This run was terminated on:  20:29:14  26Nov2021            

=------------------------------------------------------------------------------=
   JOB DONE.
=------------------------------------------------------------------------------=
