
     Program PWSCF v.6.7MaX starts on 26Nov2021 at 19:44:21 

     This program is part of the open-source Quantum ESPRESSO suite
     for quantum simulation of materials; please cite
         "P. Giannozzi et al., J. Phys.:Condens. Matter 21 395502 (2009);
         "P. Giannozzi et al., J. Phys.:Condens. Matter 29 465901 (2017);
          URL http://www.quantum-espresso.org", 
     in publications or presentations arising from this work. More details at
     http://www.quantum-espresso.org/quote

     Parallel version (MPI & OpenMP), running on      72 processor cores
     Number of MPI processes:                72
     Threads/MPI process:                     1

     MPI processes distributed on     1 nodes
     R & G space division:  proc/nbgrp/npool/nimage =      72
     Reading input from fcc_6.in
Warning: card &CELL ignored
Warning: card CELL_DYNAMICS = 'BFGS', ignored
Warning: card CELL_FACTOR = 2.0, ignored
Warning: card PRESS = 0.0, ignored
Warning: card / ignored

     Current dimensions of program PWSCF are:
     Max number of different atomic species (ntypx) = 10
     Max number of k-points (npk) =  40000
     Max angular momentum in pseudopotentials (lmaxx) =  3
     file Pd.pbe-spn-kjpaw_psl.1.0.0.UPF: wavefunction(s)  4S 5S 4D renormalized

     Subspace diagonalization in iterative solution of the eigenvalue problem:
     one sub-group per band group will be used
     ELPA distributed-memory algorithm (size of sub-group:  8*  8 procs)

     Found symmetry operation: I + (  0.2500  0.2500  0.0000)
     This is a supercell, fractional translations are disabled
     Message from routine setup:
     using ibrav=0 with symmetry is DISCOURAGED, use correct ibrav instead
 
     Parallelization info
     --------------------
     sticks:   dense  smooth     PW     G-vecs:    dense   smooth      PW
     Min         114      75     20                 7842     4205     594
     Max         115      76     21                 7849     4210     599
     Sum        8277    5449   1481               564875   302947   42931
 


     bravais-lattice index     =            0
     lattice parameter (alat)  =      14.4000  a.u.
     unit-cell volume          =    3750.4921 (a.u.)^3
     number of atoms/cell      =           32
     number of atomic types    =            1
     number of electrons       =       576.00
     number of Kohn-Sham states=          346
     kinetic-energy cutoff     =      71.0000  Ry
     charge density cutoff     =     430.0000  Ry
     scf convergence threshold =      1.0E-06
     mixing beta               =       0.1000
     number of iterations used =           10  TF        mixing
     Exchange-correlation= SLA  PW   PBX  PBC
                           (   1   4   3   4   0   0   0)

     celldm(1)=  14.400000  celldm(2)=   0.000000  celldm(3)=   0.000000
     celldm(4)=   0.000000  celldm(5)=   0.000000  celldm(6)=   0.000000

     crystal axes: (cart. coord. in units of alat)
               a(1) = (   1.078947   0.000000   0.000000 )  
               a(2) = (   0.000000   1.078947   0.000000 )  
               a(3) = (   0.000000   0.000000   1.078947 )  

     reciprocal axes: (cart. coord. in units 2 pi/alat)
               b(1) = (  0.926829  0.000000  0.000000 )  
               b(2) = (  0.000000  0.926829  0.000000 )  
               b(3) = (  0.000000  0.000000  0.926829 )  


     PseudoPot. # 1 for Pd read from file:
     /rds/homes/b/bxp912/pp/Pd.pbe-spn-kjpaw_psl.1.0.0.UPF
     MD5 check sum: 790f2ebce206edfd9790dcb9844eca51
     Pseudo is Projector augmented-wave + core cor, Zval = 18.0
     Generated using &quot;atomic&quot; code by A. Dal Corso  v.6.3
     Shape of augmentation charge: PSQ
     Using radial grid of 1235 points,  6 beta functions with: 
                l(1) =   0
                l(2) =   0
                l(3) =   1
                l(4) =   1
                l(5) =   2
                l(6) =   2
     Q(r) pseudized with 0 coefficients 


     atomic species   valence    mass     pseudopotential
        Pd            18.00   106.42000     Pd( 1.00)

     48 Sym. Ops., with inversion, found



   Cartesian axes

     site n.     atom                  positions (alat units)
         1           Pd  tau(   1) = (   0.0000000   0.0000000   0.0000000  )
         2           Pd  tau(   2) = (   0.2697368   0.2697368   0.0000000  )
         3           Pd  tau(   3) = (   0.2697368   0.0000000   0.2697368  )
         4           Pd  tau(   4) = (   0.0000000   0.2697368   0.2697368  )
         5           Pd  tau(   5) = (   0.0000000   0.0000000   0.5394737  )
         6           Pd  tau(   6) = (   0.2697368   0.2697368   0.5394737  )
         7           Pd  tau(   7) = (   0.2697368   0.0000000   0.8092105  )
         8           Pd  tau(   8) = (   0.0000000   0.2697368   0.8092105  )
         9           Pd  tau(   9) = (   0.0000000   0.5394737   0.0000000  )
        10           Pd  tau(  10) = (   0.2697368   0.8092105   0.0000000  )
        11           Pd  tau(  11) = (   0.2697368   0.5394737   0.2697368  )
        12           Pd  tau(  12) = (   0.0000000   0.8092105   0.2697368  )
        13           Pd  tau(  13) = (   0.0000000   0.5394737   0.5394737  )
        14           Pd  tau(  14) = (   0.2697368   0.8092105   0.5394737  )
        15           Pd  tau(  15) = (   0.2697368   0.5394737   0.8092105  )
        16           Pd  tau(  16) = (   0.0000000   0.8092105   0.8092105  )
        17           Pd  tau(  17) = (   0.5394737   0.0000000   0.0000000  )
        18           Pd  tau(  18) = (   0.8092105   0.2697368   0.0000000  )
        19           Pd  tau(  19) = (   0.8092105   0.0000000   0.2697368  )
        20           Pd  tau(  20) = (   0.5394737   0.2697368   0.2697368  )
        21           Pd  tau(  21) = (   0.5394737   0.0000000   0.5394737  )
        22           Pd  tau(  22) = (   0.8092105   0.2697368   0.5394737  )
        23           Pd  tau(  23) = (   0.8092105   0.0000000   0.8092105  )
        24           Pd  tau(  24) = (   0.5394737   0.2697368   0.8092105  )
        25           Pd  tau(  25) = (   0.5394737   0.5394737   0.0000000  )
        26           Pd  tau(  26) = (   0.8092105   0.8092105   0.0000000  )
        27           Pd  tau(  27) = (   0.8092105   0.5394737   0.2697368  )
        28           Pd  tau(  28) = (   0.5394737   0.8092105   0.2697368  )
        29           Pd  tau(  29) = (   0.5394737   0.5394737   0.5394737  )
        30           Pd  tau(  30) = (   0.8092105   0.8092105   0.5394737  )
        31           Pd  tau(  31) = (   0.8092105   0.5394737   0.8092105  )
        32           Pd  tau(  32) = (   0.5394737   0.8092105   0.8092105  )

     number of k points=    35  Marzari-Vanderbilt smearing, width (Ry)=  0.0400
                       cart. coord. in units 2pi/alat
        k(    1) = (   0.0514905   0.0514905   0.0514905), wk =   0.0219479
        k(    2) = (   0.0514905   0.0514905   0.1544715), wk =   0.0658436
        k(    3) = (   0.0514905   0.0514905   0.2574526), wk =   0.0658436
        k(    4) = (   0.0514905   0.0514905   0.3604336), wk =   0.0658436
        k(    5) = (   0.0514905   0.0514905  -0.4634146), wk =   0.0329218
        k(    6) = (   0.0514905   0.1544715   0.1544715), wk =   0.0658436
        k(    7) = (   0.0514905   0.1544715   0.2574526), wk =   0.1316872
        k(    8) = (   0.0514905   0.1544715   0.3604336), wk =   0.1316872
        k(    9) = (   0.0514905   0.1544715  -0.4634146), wk =   0.0658436
        k(   10) = (   0.0514905   0.2574526   0.2574526), wk =   0.0658436
        k(   11) = (   0.0514905   0.2574526   0.3604336), wk =   0.1316872
        k(   12) = (   0.0514905   0.2574526  -0.4634146), wk =   0.0658436
        k(   13) = (   0.0514905   0.3604336   0.3604336), wk =   0.0658436
        k(   14) = (   0.0514905   0.3604336  -0.4634146), wk =   0.0658436
        k(   15) = (   0.0514905  -0.4634146  -0.4634146), wk =   0.0164609
        k(   16) = (   0.1544715   0.1544715   0.1544715), wk =   0.0219479
        k(   17) = (   0.1544715   0.1544715   0.2574526), wk =   0.0658436
        k(   18) = (   0.1544715   0.1544715   0.3604336), wk =   0.0658436
        k(   19) = (   0.1544715   0.1544715  -0.4634146), wk =   0.0329218
        k(   20) = (   0.1544715   0.2574526   0.2574526), wk =   0.0658436
        k(   21) = (   0.1544715   0.2574526   0.3604336), wk =   0.1316872
        k(   22) = (   0.1544715   0.2574526  -0.4634146), wk =   0.0658436
        k(   23) = (   0.1544715   0.3604336   0.3604336), wk =   0.0658436
        k(   24) = (   0.1544715   0.3604336  -0.4634146), wk =   0.0658436
        k(   25) = (   0.1544715  -0.4634146  -0.4634146), wk =   0.0164609
        k(   26) = (   0.2574526   0.2574526   0.2574526), wk =   0.0219479
        k(   27) = (   0.2574526   0.2574526   0.3604336), wk =   0.0658436
        k(   28) = (   0.2574526   0.2574526  -0.4634146), wk =   0.0329218
        k(   29) = (   0.2574526   0.3604336   0.3604336), wk =   0.0658436
        k(   30) = (   0.2574526   0.3604336  -0.4634146), wk =   0.0658436
        k(   31) = (   0.2574526  -0.4634146  -0.4634146), wk =   0.0164609
        k(   32) = (   0.3604336   0.3604336   0.3604336), wk =   0.0219479
        k(   33) = (   0.3604336   0.3604336  -0.4634146), wk =   0.0329218
        k(   34) = (   0.3604336  -0.4634146  -0.4634146), wk =   0.0164609
        k(   35) = (  -0.4634146  -0.4634146  -0.4634146), wk =   0.0027435

     Dense  grid:   564875 G-vectors     FFT dimensions: ( 108, 108, 108)

     Smooth grid:   302947 G-vectors     FFT dimensions: (  90,  90,  90)

     Estimated max dynamical RAM per process >     145.30 MB

     Estimated total dynamical RAM >      10.22 GB

     Check: negative core charge=   -0.000002

     Initial potential from superposition of free atoms

     starting charge  575.98776, renormalised to  576.00000
     Starting wfcs are  320 randomized atomic wfcs +   26 random wfcs
     Checking if some PAW data can be deallocated... 

     total cpu time spent up to now is       18.8 secs

     Self-consistent Calculation

     iteration #  1     ecut=    71.00 Ry     beta= 0.10
     Davidson diagonalization with overlap
     ethr =  1.00E-02,  avg # of iterations =  3.0

     Threshold (ethr) on eigenvalues was too large:
     Diagonalizing with lowered threshold

     Davidson diagonalization with overlap
     ethr =  2.04E-04,  avg # of iterations =  2.4

     total cpu time spent up to now is      125.1 secs

     total energy              =  -16384.87700288 Ry
     estimated scf accuracy    <       1.12910212 Ry

     iteration #  2     ecut=    71.00 Ry     beta= 0.10
     Davidson diagonalization with overlap
     ethr =  1.96E-04,  avg # of iterations =  1.0

     total cpu time spent up to now is      168.0 secs

     total energy              =  -16384.57214586 Ry
     estimated scf accuracy    <       0.78147847 Ry

     iteration #  3     ecut=    71.00 Ry     beta= 0.10
     Davidson diagonalization with overlap
     ethr =  1.36E-04,  avg # of iterations =  2.1

     total cpu time spent up to now is      220.1 secs

     total energy              =  -16384.68486863 Ry
     estimated scf accuracy    <       0.03535539 Ry

     iteration #  4     ecut=    71.00 Ry     beta= 0.10
     Davidson diagonalization with overlap
     ethr =  6.14E-06,  avg # of iterations =  4.7

     total cpu time spent up to now is      283.3 secs

     total energy              =  -16384.66518465 Ry
     estimated scf accuracy    <       0.04380689 Ry

     iteration #  5     ecut=    71.00 Ry     beta= 0.10
     Davidson diagonalization with overlap
     ethr =  6.14E-06,  avg # of iterations =  2.0

     total cpu time spent up to now is      339.3 secs

     total energy              =  -16384.68387012 Ry
     estimated scf accuracy    <       0.02647906 Ry

     iteration #  6     ecut=    71.00 Ry     beta= 0.10
     Davidson diagonalization with overlap
     ethr =  4.60E-06,  avg # of iterations =  1.3

     total cpu time spent up to now is      378.5 secs

     total energy              =  -16384.68235492 Ry
     estimated scf accuracy    <       0.00896424 Ry

     iteration #  7     ecut=    71.00 Ry     beta= 0.10
     Davidson diagonalization with overlap
     ethr =  1.56E-06,  avg # of iterations =  2.3

     total cpu time spent up to now is      416.2 secs

     total energy              =  -16384.68324969 Ry
     estimated scf accuracy    <       0.00230422 Ry

     iteration #  8     ecut=    71.00 Ry     beta= 0.10
     Davidson diagonalization with overlap
     ethr =  4.00E-07,  avg # of iterations =  1.0

     total cpu time spent up to now is      456.0 secs

     total energy              =  -16384.68172682 Ry
     estimated scf accuracy    <       0.00245411 Ry

     iteration #  9     ecut=    71.00 Ry     beta= 0.10
     Davidson diagonalization with overlap
     ethr =  4.00E-07,  avg # of iterations =  2.0

     total cpu time spent up to now is      509.9 secs

     total energy              =  -16384.68269015 Ry
     estimated scf accuracy    <       0.00040571 Ry

     iteration # 10     ecut=    71.00 Ry     beta= 0.10
     Davidson diagonalization with overlap
     ethr =  7.04E-08,  avg # of iterations =  1.0

     total cpu time spent up to now is      545.2 secs

     total energy              =  -16384.68263324 Ry
     estimated scf accuracy    <       0.00042875 Ry

     iteration # 11     ecut=    71.00 Ry     beta= 0.10
     Davidson diagonalization with overlap
     ethr =  7.04E-08,  avg # of iterations =  1.3

     total cpu time spent up to now is      583.8 secs

     total energy              =  -16384.68257023 Ry
     estimated scf accuracy    <       0.00019961 Ry

     iteration # 12     ecut=    71.00 Ry     beta= 0.10
     Davidson diagonalization with overlap
     ethr =  3.47E-08,  avg # of iterations =  2.3

     total cpu time spent up to now is      637.3 secs

     total energy              =  -16384.68259482 Ry
     estimated scf accuracy    <       0.00000630 Ry

     iteration # 13     ecut=    71.00 Ry     beta= 0.10
     Davidson diagonalization with overlap
     ethr =  1.09E-09,  avg # of iterations =  2.0

     total cpu time spent up to now is      691.8 secs

     End of self-consistent calculation

          k = 0.0515 0.0515 0.0515 ( 37896 PWs)   bands (ev):

   -67.8273 -67.8122 -67.8122 -67.8122 -67.8093 -67.8093 -67.8093 -67.8039
   -67.8039 -67.8039 -67.8026 -67.8023 -67.8023 -67.8023 -67.8023 -67.8023
   -67.8023 -67.8023 -67.8023 -67.8023 -67.8010 -67.8010 -67.8010 -67.7941
   -67.7941 -67.7941 -67.7941 -67.7941 -67.7941 -67.7941 -67.7941 -67.7941
   -33.6387 -33.6387 -33.6387 -33.6378 -33.6271 -33.6271 -33.6271 -33.5804
   -33.5804 -33.5804 -33.5778 -33.5778 -33.5778 -33.5778 -33.5778 -33.5778
   -33.5730 -33.5730 -33.5730 -33.5707 -33.5707 -33.5707 -33.5707 -33.5707
   -33.5707 -33.5598 -33.5598 -33.5598 -33.5597 -33.5597 -33.5597 -33.5342
   -33.5342 -33.5342 -33.5207 -33.5207 -33.5207 -33.5160 -33.5160 -33.5160
   -33.5115 -33.5115 -33.5115 -33.5114 -33.5114 -33.5114 -33.5025 -33.5025
   -33.5025 -33.5022 -33.5022 -33.5021 -33.5021 -33.5021 -33.5021 -33.5020
   -33.5020 -33.5020 -33.5011 -33.5010 -33.5010 -33.4630 -33.4630 -33.4630
   -33.4629 -33.4629 -33.4629 -33.4556 -33.4556 -33.4556 -33.4555 -33.4555
   -33.4555 -33.4536 -33.4536 -33.4536 -33.4508 -33.4508 -33.4508 -33.4505
   -33.4505 -33.4505 -33.4505 -33.4505 -33.4505 -33.4501 -33.4501 -33.4501
   -33.4495 -33.4495 -33.4462 -33.4462 -33.4462 -33.4189 -33.4175 -33.4175
     9.9388  11.7276  11.7324  11.7324  11.7324  11.7399  11.7399  11.7399
    11.8016  11.8016  11.8016  11.9508  11.9508  11.9508  12.0079  12.0079
    12.0079  12.5740  12.5740  12.5740  12.5740  12.5740  12.5740  12.6794
    12.6795  12.6795  12.7480  12.7480  12.7480  12.8276  12.8276  12.8276
    12.8276  12.8276  12.8276  12.8300  12.8300  12.8300  12.8383  12.8383
    12.8383  13.1416  13.1416  13.1416  13.1416  13.1416  13.1416  13.2277
    13.2277  13.2277  13.2466  13.2466  13.2466  13.2466  13.2466  13.2466
    13.2958  13.2958  13.2958  13.4314  13.4314  13.4314  13.4314  13.4314
    13.4314  13.5375  13.5375  13.5375  13.5418  13.5418  13.5418  13.5418
    13.5418  13.5418  13.6276  13.6276  13.6276  13.6542  13.6542  13.6542
    13.6703  13.6703  13.6790  13.6790  13.6790  13.6847  13.7002  13.7002
    14.3572  14.3572  14.3572  14.4033  14.4033  14.4033  14.4628  14.4628
    14.4628  14.4628  14.4628  14.4628  14.4671  14.4671  14.4671  14.5161
    14.5161  14.5161  14.5779  14.5779  14.5779  14.6795  14.6795  14.6795
    14.7732  14.7732  14.7732  14.8188  14.8188  14.8188  14.8901  14.8901
    14.8901  14.8902  14.8902  14.8902  14.9067  14.9067  14.9067  14.9201
    14.9201  14.9365  14.9365  14.9365  14.9365  14.9365  14.9365  15.0229
    15.0229  15.0229  15.3231  15.3231  15.3231  15.4039  15.4039  15.4039
    15.7348  15.7348  15.7348  15.8041  15.8041  15.8041  15.8258  15.8258
    15.8415  15.8415  15.8415  16.0270  16.0270  16.0270  16.0645  16.0645
    16.0645  16.0645  16.0645  16.0645  16.0669  16.0669  16.0669  17.0901
    17.3351  17.3351  17.3351  17.4093  17.4093  17.4093  17.8682  17.8682
    17.8682  17.8682  17.8682  17.8682  18.3486  18.3486  18.3486  19.2544
    19.2544  19.2544  22.0270  22.0270  22.0270  22.1854  23.4647  23.4647
    23.4647  23.4647  23.4647  23.4647  24.0932  24.0932  24.0932  24.0932
    24.0932  24.0932  25.1286  25.1286  25.1286  25.1790  25.1790  25.1790
    25.1790  25.1790  25.1790  26.3220  26.3220  26.3221  26.4456  26.4456
    26.4456  26.4456

          k = 0.0515 0.0515 0.1545 ( 37901 PWs)   bands (ev):

   -67.8268 -67.8150 -67.8119 -67.8119 -67.8090 -67.8090 -67.8064 -67.8055
   -67.8055 -67.8039 -67.8036 -67.8036 -67.8028 -67.8023 -67.8023 -67.8023
   -67.8023 -67.8020 -67.8010 -67.8008 -67.8008 -67.7997 -67.7997 -67.7946
   -67.7944 -67.7944 -67.7943 -67.7943 -67.7941 -67.7941 -67.7941 -67.7941
   -33.6371 -33.6362 -33.6362 -33.6343 -33.6253 -33.6253 -33.6243 -33.5873
   -33.5841 -33.5841 -33.5817 -33.5817 -33.5814 -33.5814 -33.5809 -33.5809
   -33.5793 -33.5737 -33.5737 -33.5729 -33.5729 -33.5700 -33.5700 -33.5669
   -33.5669 -33.5614 -33.5614 -33.5577 -33.5577 -33.5520 -33.5491 -33.5491
   -33.5370 -33.5370 -33.5297 -33.5297 -33.5203 -33.5203 -33.5197 -33.5197
   -33.5133 -33.5050 -33.5050 -33.5045 -33.5045 -33.5023 -33.5023 -33.5019
   -33.5019 -33.5010 -33.5010 -33.5008 -33.4999 -33.4989 -33.4989 -33.4986
   -33.4986 -33.4979 -33.4966 -33.4936 -33.4936 -33.4704 -33.4702 -33.4646
   -33.4646 -33.4612 -33.4612 -33.4580 -33.4580 -33.4571 -33.4571 -33.4560
   -33.4560 -33.4546 -33.4535 -33.4535 -33.4535 -33.4531 -33.4531 -33.4508
   -33.4508 -33.4504 -33.4504 -33.4504 -33.4504 -33.4489 -33.4487 -33.4487
   -33.4483 -33.4480 -33.4463 -33.4434 -33.4434 -33.4224 -33.4188 -33.4184
    10.0040  11.5103  11.7498  11.7592  11.7710  11.7710  11.7744  11.7744
    11.7864  11.8469  11.8469  11.9737  11.9848  11.9848  12.0529  12.0529
    12.1027  12.5027  12.5027  12.5348  12.5622  12.6023  12.6023  12.6080
    12.6080  12.6378  12.6379  12.6480  12.6480  12.6761  12.7004  12.7004
    12.7857  12.7857  12.8373  12.8373  12.8476  12.8476  12.8827  12.8827
    12.8967  12.8967  12.9823  13.1300  13.1300  13.1439  13.1439  13.1783
    13.1783  13.1878  13.1878  13.2408  13.2408  13.3165  13.3165  13.3305
    13.3623  13.3623  13.3946  13.4054  13.4054  13.4190  13.4190  13.4353
    13.4353  13.4858  13.4858  13.5137  13.5137  13.6232  13.6374  13.6374
    13.6564  13.6579  13.6579  13.6711  13.6774  13.6774  13.6890  13.7082
    13.7082  13.7147  13.7172  13.7217  13.7243  13.7263  13.7479  13.7479
    14.2006  14.2006  14.2892  14.2919  14.3138  14.3138  14.3546  14.3546
    14.3685  14.3953  14.4230  14.4230  14.5140  14.5296  14.5296  14.5393
    14.5393  14.5667  14.5667  14.5714  14.5714  14.7372  14.7372  14.7584
    14.7584  14.7819  14.8231  14.8231  14.8832  14.8832  14.8868  14.8868
    14.8889  14.8942  14.8942  14.9331  14.9458  14.9660  14.9660  14.9762
    15.0552  15.0552  15.0714  15.0714  15.0828  15.0829  15.1267  15.1400
    15.1400  15.2062  15.2449  15.3606  15.3606  15.4654  15.4654  15.4852
    15.5157  15.5529  15.5529  15.7071  15.7576  15.7576  15.7739  15.7859
    15.8203  15.8211  15.8211  15.8577  15.8577  15.9735  16.0092  16.0092
    16.0099  16.0099  16.0193  16.0641  16.0642  16.0644  16.0644  16.9973
    16.9993  16.9993  17.3918  17.4197  17.4197  17.4304  17.4304  17.6312
    17.8575  17.8575  18.3426  18.3860  18.3860  18.8814  18.8814  18.8922
    19.4792  19.4792  22.0316  22.1936  22.1936  22.4870  22.7736  22.7736
    22.8194  22.8194  23.3183  23.3183  23.5748  23.5748  24.2009  24.2009
    24.6550  24.6550  25.1235  25.1235  25.2394  25.2394  25.4078  25.4946
    25.4946  25.5812  25.5812  25.5872  25.8287  25.8287  25.9212  25.9212
    26.3481  26.3482

          k = 0.0515 0.0515 0.2575 ( 37894 PWs)   bands (ev):

   -67.8258 -67.8178 -67.8114 -67.8114 -67.8086 -67.8086 -67.8070 -67.8070
   -67.8049 -67.8049 -67.8038 -67.8037 -67.8030 -67.8023 -67.8023 -67.8023
   -67.8023 -67.8018 -67.8011 -67.7993 -67.7993 -67.7985 -67.7984 -67.7956
   -67.7949 -67.7949 -67.7948 -67.7948 -67.7941 -67.7941 -67.7941 -67.7941
   -33.6330 -33.6313 -33.6313 -33.6284 -33.6216 -33.6216 -33.6184 -33.5974
   -33.5940 -33.5940 -33.5915 -33.5915 -33.5890 -33.5826 -33.5826 -33.5814
   -33.5814 -33.5760 -33.5760 -33.5704 -33.5704 -33.5691 -33.5684 -33.5683
   -33.5619 -33.5619 -33.5596 -33.5596 -33.5542 -33.5542 -33.5421 -33.5421
   -33.5388 -33.5388 -33.5383 -33.5383 -33.5287 -33.5287 -33.5261 -33.5261
   -33.5084 -33.5084 -33.5024 -33.5018 -33.5018 -33.5011 -33.5011 -33.4983
   -33.4975 -33.4950 -33.4950 -33.4936 -33.4936 -33.4934 -33.4934 -33.4927
   -33.4927 -33.4874 -33.4851 -33.4851 -33.4804 -33.4776 -33.4772 -33.4678
   -33.4678 -33.4637 -33.4637 -33.4627 -33.4627 -33.4609 -33.4602 -33.4602
   -33.4582 -33.4582 -33.4581 -33.4581 -33.4545 -33.4533 -33.4515 -33.4504
   -33.4504 -33.4504 -33.4504 -33.4502 -33.4502 -33.4484 -33.4484 -33.4483
   -33.4466 -33.4421 -33.4421 -33.4414 -33.4410 -33.4288 -33.4211 -33.4206
    10.1331  11.1828  11.8064  11.8108  11.8428  11.8428  11.8461  11.8461
    11.8662  11.9347  11.9347  12.0190  12.0528  12.0528  12.1028  12.1401
    12.1401  12.3593  12.3803  12.3803  12.4001  12.4308  12.4308  12.4781
    12.5199  12.5199  12.6543  12.6543  12.6549  12.6549  12.6744  12.6744
    12.6959  12.6959  12.7418  12.7418  12.8325  12.8325  12.8819  12.8819
    12.9595  12.9595  13.0847  13.0847  13.1133  13.1133  13.1294  13.1295
    13.1315  13.1454  13.1454  13.1826  13.1826  13.2732  13.2732  13.3235
    13.3235  13.3615  13.3616  13.3701  13.4278  13.4278  13.4411  13.4411
    13.4500  13.4500  13.5006  13.5233  13.5233  13.5797  13.5965  13.6083
    13.6083  13.6575  13.6690  13.6690  13.7346  13.7629  13.7629  13.7765
    13.7767  13.7783  13.9349  13.9349  13.9533  13.9908  14.0351  14.0351
    14.0895  14.0895  14.0958  14.0958  14.1503  14.2071  14.2216  14.2216
    14.2291  14.2339  14.4750  14.4915  14.4915  14.5612  14.5612  14.6258
    14.6258  14.6388  14.6388  14.6867  14.6867  14.7022  14.7022  14.7510
    14.7510  14.8287  14.8679  14.8679  14.8759  14.8759  14.8957  14.8957
    14.9020  14.9020  14.9588  15.0714  15.0971  15.0971  15.1092  15.1187
    15.1187  15.1713  15.1803  15.2127  15.2128  15.2354  15.2490  15.2491
    15.2708  15.2744  15.2744  15.2824  15.2824  15.4103  15.4825  15.4825
    15.5516  15.5516  15.5652  15.6383  15.6648  15.6648  15.6864  15.6864
    15.6883  15.7469  15.7550  15.7550  15.7635  15.8701  15.9060  15.9060
    15.9070  15.9070  15.9312  16.0638  16.0638  16.0642  16.0642  16.6280
    16.6280  17.0258  17.0258  17.0416  17.3560  17.5378  17.5378  17.8342
    17.8342  17.8953  18.2979  18.3261  18.9703  18.9703  19.4744  19.4745
    19.8712  19.8712  21.9458  21.9458  22.1740  22.1740  22.2155  22.4656
    22.4656  22.5190  22.5190  22.9142  23.7861  23.7861  24.4033  24.4033
    24.5533  24.9725  24.9725  25.0679  25.0679  25.1136  25.1136  25.3460
    25.3460  25.5201  25.5201  25.5939  25.6687  25.6687  25.8525  25.8525
    25.8874  25.8874

          k = 0.0515 0.0515 0.3604 ( 37876 PWs)   bands (ev):

   -67.8244 -67.8203 -67.8106 -67.8106 -67.8083 -67.8083 -67.8079 -67.8079
   -67.8060 -67.8060 -67.8036 -67.8033 -67.8023 -67.8023 -67.8023 -67.8023
   -67.8016 -67.8013 -67.8012 -67.7979 -67.7979 -67.7973 -67.7973 -67.7971
   -67.7957 -67.7957 -67.7954 -67.7954 -67.7941 -67.7941 -67.7941 -67.7941
   -33.6266 -33.6241 -33.6241 -33.6204 -33.6162 -33.6162 -33.6096 -33.6082
   -33.6047 -33.6047 -33.6009 -33.6009 -33.6000 -33.5846 -33.5827 -33.5827
   -33.5797 -33.5797 -33.5791 -33.5791 -33.5734 -33.5734 -33.5622 -33.5622
   -33.5586 -33.5586 -33.5514 -33.5514 -33.5495 -33.5495 -33.5485 -33.5485
   -33.5462 -33.5462 -33.5365 -33.5365 -33.5340 -33.5340 -33.5294 -33.5294
   -33.5139 -33.5139 -33.5016 -33.5016 -33.5011 -33.5011 -33.4947 -33.4939
   -33.4906 -33.4863 -33.4862 -33.4855 -33.4855 -33.4854 -33.4854 -33.4843
   -33.4843 -33.4841 -33.4835 -33.4775 -33.4774 -33.4773 -33.4724 -33.4724
   -33.4704 -33.4704 -33.4702 -33.4702 -33.4693 -33.4653 -33.4652 -33.4646
   -33.4646 -33.4643 -33.4605 -33.4549 -33.4549 -33.4529 -33.4520 -33.4504
   -33.4504 -33.4504 -33.4504 -33.4496 -33.4496 -33.4477 -33.4468 -33.4468
   -33.4468 -33.4425 -33.4425 -33.4383 -33.4350 -33.4345 -33.4248 -33.4242
    10.3230  10.8601  11.8823  11.8971  11.9445  11.9445  11.9535  11.9535
    11.9780  12.0460  12.0585  12.0585  12.0859  12.1546  12.1546  12.1761
    12.2338  12.2338  12.2414  12.2414  12.2630  12.2630  12.2785  12.2883
    12.3681  12.3681  12.4564  12.4564  12.5630  12.5630  12.7218  12.7218
    12.7698  12.7698  12.8030  12.8030  12.8193  12.8193  12.9311  12.9311
    12.9794  12.9794  12.9856  12.9856  13.0609  13.0609  13.0926  13.0926
    13.1047  13.1047  13.1378  13.1378  13.1876  13.1876  13.2725  13.2926
    13.2926  13.3163  13.3163  13.4179  13.4463  13.4463  13.4475  13.4475
    13.4771  13.4771  13.5098  13.5277  13.5559  13.5694  13.5694  13.5988
    13.5988  13.6320  13.7043  13.7043  13.8060  13.8423  13.8423  13.8546
    13.8556  13.8628  13.8912  13.8912  13.8968  13.8968  14.0178  14.0563
    14.0563  14.0786  14.0824  14.0969  14.2802  14.2802  14.2835  14.2927
    14.4513  14.4513  14.5400  14.5400  14.5447  14.5565  14.5565  14.6985
    14.6985  14.7324  14.7324  14.7353  14.7353  14.7424  14.7424  14.7444
    14.7828  14.7828  14.8507  14.8507  14.8840  14.8840  14.8858  14.8858
    14.9054  14.9054  14.9269  14.9487  14.9487  14.9966  15.0389  15.0712
    15.0712  15.1042  15.2005  15.2005  15.2558  15.2558  15.2760  15.3233
    15.3737  15.3737  15.3766  15.4197  15.4254  15.4254  15.4419  15.4419
    15.5647  15.5647  15.5730  15.6436  15.6533  15.6533  15.6742  15.6759
    15.7010  15.7010  15.7231  15.7667  15.7667  15.7673  15.7673  15.8218
    15.9584  15.9584  16.0638  16.0638  16.0640  16.0641  16.2166  16.2882
    16.2882  16.6472  16.6472  17.1337  17.3006  17.6019  17.6480  17.6480
    17.7947  17.7947  18.0916  18.2895  19.6238  19.6238  20.1320  20.1320
    20.3699  20.3699  21.1235  21.1235  21.5416  21.5416  21.6356  21.6356
    22.5814  22.9888  22.9888  23.4518  23.7797  24.0861  24.0861  24.2830
    24.2830  24.6894  24.6894  24.8045  24.8838  24.8838  25.0515  25.0515
    25.0995  25.0995  25.4484  25.4484  25.8198  25.8198  26.0629  26.0629
    26.2225  26.2227

          k = 0.0515 0.0515-0.4634 ( 37916 PWs)   bands (ev):

   -67.8225 -67.8225 -67.8096 -67.8096 -67.8095 -67.8095 -67.8071 -67.8071
   -67.8071 -67.8070 -67.8035 -67.8035 -67.8023 -67.8023 -67.8023 -67.8023
   -67.8014 -67.8014 -67.7989 -67.7989 -67.7967 -67.7967 -67.7967 -67.7967
   -67.7963 -67.7963 -67.7963 -67.7963 -67.7941 -67.7941 -67.7941 -67.7941
   -33.6181 -33.6181 -33.6151 -33.6151 -33.6151 -33.6150 -33.6108 -33.6108
   -33.6093 -33.6093 -33.6092 -33.6092 -33.5982 -33.5982 -33.5815 -33.5815
   -33.5815 -33.5815 -33.5770 -33.5770 -33.5770 -33.5769 -33.5554 -33.5554
   -33.5554 -33.5554 -33.5532 -33.5532 -33.5532 -33.5532 -33.5435 -33.5435
   -33.5435 -33.5435 -33.5427 -33.5427 -33.5427 -33.5427 -33.5210 -33.5210
   -33.5210 -33.5210 -33.5014 -33.5014 -33.5014 -33.5013 -33.4899 -33.4899
   -33.4891 -33.4891 -33.4793 -33.4793 -33.4784 -33.4784 -33.4784 -33.4784
   -33.4782 -33.4782 -33.4782 -33.4782 -33.4778 -33.4778 -33.4778 -33.4778
   -33.4742 -33.4741 -33.4741 -33.4741 -33.4704 -33.4704 -33.4704 -33.4704
   -33.4685 -33.4685 -33.4525 -33.4525 -33.4519 -33.4519 -33.4519 -33.4519
   -33.4505 -33.4504 -33.4504 -33.4504 -33.4502 -33.4502 -33.4472 -33.4472
   -33.4441 -33.4441 -33.4441 -33.4441 -33.4294 -33.4294 -33.4289 -33.4289
    10.5684  10.5684  11.9653  11.9653  12.0209  12.0209  12.0780  12.0780
    12.0781  12.0781  12.0862  12.0862  12.0863  12.0863  12.1198  12.1198
    12.1730  12.1730  12.2081  12.2081  12.2081  12.2081  12.2895  12.2895
    12.2895  12.2895  12.4101  12.4101  12.4101  12.4101  12.7832  12.7832
    12.7832  12.7832  12.8829  12.8829  12.8829  12.8829  12.8864  12.8864
    12.8864  12.8864  12.9923  12.9923  12.9923  12.9923  13.1102  13.1102
    13.1102  13.1102  13.1243  13.1243  13.1243  13.1243  13.2910  13.2910
    13.2910  13.2910  13.4003  13.4003  13.4487  13.4487  13.4487  13.4487
    13.4720  13.4720  13.5244  13.5244  13.5244  13.5245  13.5976  13.5976
    13.7279  13.7279  13.7279  13.7279  13.7789  13.7789  13.7789  13.7789
    13.9014  13.9014  13.9438  13.9438  13.9438  13.9438  13.9565  13.9565
    13.9573  13.9573  13.9709  13.9709  14.5522  14.5522  14.5522  14.5523
    14.6081  14.6081  14.6081  14.6081  14.6086  14.6086  14.6449  14.6449
    14.6535  14.6535  14.7292  14.7292  14.7292  14.7292  14.8041  14.8041
    14.8041  14.8041  14.8156  14.8156  14.8156  14.8156  14.8259  14.8259
    14.8259  14.8259  14.8487  14.8487  14.8487  14.8487  14.9878  14.9878
    14.9879  14.9879  15.0455  15.0455  15.4176  15.4176  15.4176  15.4176
    15.4333  15.4333  15.5236  15.5236  15.5237  15.5237  15.5394  15.5394
    15.5502  15.5502  15.5573  15.5573  15.6018  15.6018  15.6018  15.6018
    15.6078  15.6078  15.6078  15.6078  15.7245  15.7245  15.9773  15.9773
    15.9773  15.9773  16.0639  16.0639  16.0639  16.0639  16.2908  16.2908
    16.2908  16.2908  16.8890  16.8890  17.2253  17.2253  17.7340  17.7340
    17.7340  17.7340  18.2178  18.2178  20.3442  20.3442  20.3442  20.3442
    20.8540  20.8540  20.8540  20.8540  20.9348  20.9348  20.9348  20.9348
    23.1125  23.1125  23.5836  23.5836  23.5836  23.5836  24.0862  24.0862
    24.4579  24.4580  24.4580  24.4580  25.0436  25.0436  25.0436  25.0436
    25.0808  25.0808  25.0808  25.0808  25.9979  25.9979  25.9979  25.9979
    26.2924  26.2924

          k = 0.0515 0.1545 0.1545 ( 37890 PWs)   bands (ev):

   -67.8263 -67.8147 -67.8147 -67.8116 -67.8088 -67.8073 -67.8062 -67.8062
   -67.8054 -67.8054 -67.8036 -67.8036 -67.8033 -67.8025 -67.8018 -67.8018
   -67.8018 -67.8018 -67.8008 -67.8008 -67.7998 -67.7998 -67.7986 -67.7946
   -67.7946 -67.7946 -67.7946 -67.7944 -67.7944 -67.7943 -67.7943 -67.7941
   -33.6356 -33.6355 -33.6328 -33.6299 -33.6234 -33.6226 -33.6226 -33.5889
   -33.5889 -33.5874 -33.5874 -33.5824 -33.5824 -33.5810 -33.5800 -33.5800
   -33.5796 -33.5796 -33.5789 -33.5789 -33.5749 -33.5749 -33.5728 -33.5728
   -33.5587 -33.5561 -33.5561 -33.5540 -33.5540 -33.5521 -33.5521 -33.5474
   -33.5474 -33.5401 -33.5390 -33.5235 -33.5217 -33.5216 -33.5134 -33.5133
   -33.5109 -33.5109 -33.5081 -33.5032 -33.5031 -33.5024 -33.5024 -33.4998
   -33.4997 -33.4994 -33.4991 -33.4991 -33.4982 -33.4982 -33.4967 -33.4967
   -33.4960 -33.4960 -33.4883 -33.4883 -33.4850 -33.4721 -33.4721 -33.4688
   -33.4688 -33.4630 -33.4623 -33.4614 -33.4578 -33.4578 -33.4578 -33.4578
   -33.4558 -33.4558 -33.4553 -33.4553 -33.4551 -33.4547 -33.4526 -33.4522
   -33.4521 -33.4514 -33.4497 -33.4497 -33.4494 -33.4489 -33.4489 -33.4488
   -33.4460 -33.4460 -33.4436 -33.4436 -33.4395 -33.4270 -33.4199 -33.4181
    10.0685  11.5576  11.5576  11.7584  11.7956  11.7981  11.7981  11.8056
    11.8314  11.8314  11.8842  12.0073  12.0073  12.0215  12.0875  12.1476
    12.1476  12.4794  12.4794  12.4886  12.5199  12.5199  12.5372  12.5372
    12.5588  12.5588  12.5871  12.5871  12.6356  12.6357  12.7090  12.7090
    12.7113  12.7113  12.7301  12.7702  12.8728  12.8923  12.8923  12.8959
    12.8959  12.8979  12.8979  12.9963  12.9963  13.1092  13.1092  13.1717
    13.1718  13.1867  13.2782  13.2782  13.2886  13.2886  13.3467  13.3467
    13.3492  13.3799  13.3799  13.3861  13.3861  13.4357  13.4357  13.5210
    13.5727  13.5727  13.5892  13.5892  13.6087  13.6087  13.6313  13.6414
    13.6781  13.7002  13.7002  13.7005  13.7005  13.7023  13.7023  13.7086
    13.7348  13.7363  13.7429  13.7429  13.7499  13.7530  13.7544  13.7544
    14.1200  14.1644  14.1644  14.2102  14.2925  14.2925  14.3788  14.3879
    14.3879  14.3979  14.3979  14.4447  14.4447  14.4642  14.4642  14.4979
    14.5220  14.5220  14.5779  14.6265  14.6408  14.6408  14.6622  14.6623
    14.6683  14.8804  14.8829  14.8829  14.8866  14.8866  14.9258  14.9555
    14.9555  14.9586  14.9586  14.9747  14.9765  14.9765  15.0320  15.0320
    15.0524  15.0524  15.1950  15.1950  15.2250  15.2351  15.2351  15.2680
    15.2680  15.2720  15.3256  15.3257  15.3543  15.3543  15.3722  15.3996
    15.4695  15.5999  15.6190  15.6190  15.7088  15.7088  15.7180  15.7270
    15.7929  15.8304  15.8304  15.8305  15.8305  15.8388  15.9643  15.9643
    16.0087  16.0087  16.0106  16.0106  16.0183  16.0183  16.0355  16.6222
    16.7109  16.9780  16.9780  17.2866  17.4174  17.4174  17.8682  17.8682
    17.9266  17.9266  18.3853  18.3853  18.8825  18.8825  19.1141  19.1141
    19.4223  19.6866  22.0356  22.0356  22.2107  22.2107  22.5000  22.8627
    22.8627  22.8910  22.9351  22.9351  23.4129  23.4129  23.8387  23.8387
    24.7866  24.7866  24.9239  24.9239  25.1159  25.3109  25.4325  25.4325
    25.4392  25.4392  25.5864  25.5864  25.6903  25.6903  26.1516  26.1516
    26.4664  26.4853

          k = 0.0515 0.1545 0.2575 ( 37900 PWs)   bands (ev):

   -67.8254 -67.8174 -67.8141 -67.8111 -67.8090 -67.8084 -67.8068 -67.8059
   -67.8052 -67.8048 -67.8038 -67.8035 -67.8035 -67.8028 -67.8028 -67.8016
   -67.8013 -67.8009 -67.8001 -67.7999 -67.7994 -67.7986 -67.7976 -67.7956
   -67.7951 -67.7950 -67.7950 -67.7947 -67.7946 -67.7945 -67.7942 -67.7941
   -33.6324 -33.6316 -33.6272 -33.6233 -33.6198 -33.6192 -33.6170 -33.5992
   -33.5971 -33.5917 -33.5900 -33.5892 -33.5890 -33.5889 -33.5840 -33.5826
   -33.5825 -33.5800 -33.5792 -33.5782 -33.5773 -33.5758 -33.5738 -33.5702
   -33.5653 -33.5576 -33.5568 -33.5531 -33.5501 -33.5496 -33.5476 -33.5456
   -33.5441 -33.5428 -33.5373 -33.5303 -33.5296 -33.5215 -33.5191 -33.5128
   -33.5100 -33.5098 -33.5070 -33.5030 -33.5019 -33.5005 -33.4997 -33.4994
   -33.4984 -33.4980 -33.4971 -33.4940 -33.4922 -33.4912 -33.4907 -33.4889
   -33.4880 -33.4856 -33.4806 -33.4801 -33.4792 -33.4768 -33.4760 -33.4753
   -33.4662 -33.4660 -33.4656 -33.4649 -33.4634 -33.4633 -33.4628 -33.4623
   -33.4594 -33.4577 -33.4574 -33.4560 -33.4559 -33.4556 -33.4536 -33.4533
   -33.4527 -33.4518 -33.4514 -33.4511 -33.4491 -33.4487 -33.4478 -33.4441
   -33.4427 -33.4425 -33.4425 -33.4387 -33.4371 -33.4343 -33.4223 -33.4194
    10.1962  11.2335  11.6496  11.8005  11.8500  11.8502  11.8731  11.8737
    11.9087  11.9197  11.9549  12.0520  12.0746  12.0945  12.1467  12.1525
    12.2348  12.2920  12.3111  12.3850  12.3854  12.3868  12.4130  12.4267
    12.5081  12.5188  12.5302  12.5497  12.6049  12.6067  12.6681  12.6861
    12.6912  12.7008  12.7120  12.7412  12.7860  12.7907  12.8050  12.9109
    12.9235  12.9326  12.9549  13.0230  13.0467  13.0617  13.0678  13.1419
    13.1635  13.1702  13.1759  13.1988  13.2155  13.2894  13.2951  13.3143
    13.3229  13.3293  13.4061  13.4405  13.4792  13.4800  13.5303  13.5317
    13.5429  13.5496  13.5502  13.5766  13.5908  13.6147  13.6203  13.6561
    13.6779  13.6799  13.7317  13.7477  13.7809  13.7855  13.7901  13.7958
    13.7979  13.8206  13.8256  13.8623  13.8692  13.9548  13.9976  14.0300
    14.0398  14.0478  14.0756  14.1332  14.1553  14.2250  14.2470  14.2563
    14.3122  14.3275  14.3326  14.3847  14.3945  14.4555  14.4575  14.5488
    14.5556  14.5706  14.5838  14.6155  14.6604  14.7252  14.7745  14.7825
    14.7891  14.8298  14.8571  14.8694  14.8871  14.9321  14.9471  14.9498
    14.9874  15.0500  15.0583  15.0642  15.0679  15.0709  15.0801  15.0807
    15.1117  15.1390  15.1613  15.1836  15.2114  15.2343  15.3274  15.3284
    15.3375  15.3386  15.3441  15.3455  15.3456  15.3648  15.3689  15.4584
    15.4617  15.4699  15.5466  15.6091  15.6403  15.6420  15.7044  15.7147
    15.7758  15.7980  15.7984  15.8018  15.8800  15.8807  15.9061  15.9087
    15.9359  15.9407  15.9657  16.0084  16.0114  16.0163  16.0194  16.2882
    16.6051  16.6433  16.9353  17.0125  17.2450  17.3917  17.4943  18.0764
    18.2696  18.3799  18.4953  18.5212  18.8764  18.9819  19.4847  19.4952
    20.0170  20.0556  21.4222  21.6374  22.0163  22.0490  22.2226  22.2976
    22.5127  22.9317  22.9808  23.0804  23.1630  23.3901  23.5951  24.0740
    24.3234  24.4696  24.5767  24.8013  24.9763  24.9908  25.0982  25.2606
    25.4333  25.5376  25.5843  25.6187  25.8559  26.0913  26.1549  26.1865
    26.3753  26.4682

          k = 0.0515 0.1545 0.3604 ( 37854 PWs)   bands (ev):

   -67.8239 -67.8199 -67.8132 -67.8106 -67.8103 -67.8082 -67.8077 -67.8059
   -67.8053 -67.8049 -67.8042 -67.8038 -67.8034 -67.8030 -67.8014 -67.8011
   -67.8010 -67.8009 -67.8002 -67.7985 -67.7980 -67.7975 -67.7970 -67.7967
   -67.7960 -67.7959 -67.7957 -67.7952 -67.7946 -67.7945 -67.7942 -67.7942
   -33.6269 -33.6253 -33.6194 -33.6147 -33.6144 -33.6142 -33.6097 -33.6086
   -33.6075 -33.6002 -33.5995 -33.5992 -33.5935 -33.5890 -33.5879 -33.5851
   -33.5850 -33.5848 -33.5842 -33.5820 -33.5764 -33.5742 -33.5717 -33.5671
   -33.5622 -33.5608 -33.5567 -33.5552 -33.5524 -33.5487 -33.5436 -33.5398
   -33.5394 -33.5386 -33.5368 -33.5338 -33.5294 -33.5278 -33.5267 -33.5194
   -33.5186 -33.5125 -33.4995 -33.4994 -33.4977 -33.4977 -33.4972 -33.4965
   -33.4936 -33.4933 -33.4916 -33.4872 -33.4857 -33.4852 -33.4847 -33.4841
   -33.4827 -33.4816 -33.4801 -33.4785 -33.4741 -33.4734 -33.4715 -33.4714
   -33.4711 -33.4710 -33.4699 -33.4698 -33.4698 -33.4697 -33.4693 -33.4631
   -33.4619 -33.4618 -33.4576 -33.4570 -33.4567 -33.4565 -33.4558 -33.4552
   -33.4547 -33.4541 -33.4505 -33.4501 -33.4494 -33.4478 -33.4466 -33.4447
   -33.4442 -33.4430 -33.4394 -33.4363 -33.4363 -33.4322 -33.4259 -33.4223
    10.3839  10.9146  11.7809  11.8760  11.9224  11.9373  11.9708  11.9819
    12.0171  12.0374  12.0516  12.0885  12.1179  12.1240  12.1247  12.1753
    12.2020  12.2068  12.2371  12.2395  12.2647  12.2780  12.3074  12.3198
    12.3486  12.3584  12.4336  12.4734  12.5054  12.5856  12.6642  12.6650
    12.6788  12.7026  12.7452  12.7704  12.7945  12.8623  12.8837  12.9004
    12.9331  12.9374  12.9927  12.9996  13.0089  13.0262  13.0333  13.0432
    13.0592  13.1066  13.1395  13.1609  13.1855  13.2150  13.2793  13.2904
    13.3400  13.3775  13.4532  13.4652  13.4890  13.5065  13.5091  13.5153
    13.5229  13.5249  13.5598  13.5899  13.6044  13.6120  13.6134  13.6348
    13.6677  13.7050  13.7118  13.8100  13.8226  13.8558  13.8589  13.8683
    13.8750  13.8777  13.9103  13.9200  13.9385  13.9901  13.9954  14.0103
    14.0552  14.0806  14.0865  14.1521  14.2072  14.2119  14.2483  14.2572
    14.3714  14.3807  14.3848  14.4020  14.4263  14.4271  14.5085  14.5800
    14.5808  14.5997  14.6534  14.6930  14.7297  14.7513  14.7520  14.7867
    14.7946  14.8117  14.8227  14.8374  14.8668  14.8897  14.8920  14.9369
    14.9376  14.9602  14.9845  14.9877  15.0409  15.0716  15.0863  15.1078
    15.1140  15.1224  15.1425  15.2324  15.2442  15.2541  15.2722  15.2832
    15.3584  15.3905  15.4202  15.4611  15.4727  15.4930  15.4948  15.5022
    15.5031  15.5059  15.5277  15.5768  15.5809  15.6567  15.6754  15.6817
    15.6978  15.7291  15.7314  15.7678  15.7682  15.7685  15.7714  15.8392
    15.9446  15.9896  16.0086  16.0123  16.0127  16.0146  16.2649  16.3042
    16.5017  16.6346  16.7029  16.8719  17.0821  17.2645  17.3541  17.8351
    18.2261  18.3613  18.5713  18.8444  19.1379  19.6493  19.9719  20.1527
    20.5334  20.6182  20.6712  21.0640  21.1782  21.6754  21.6779  22.1602
    22.2691  22.5938  23.3201  23.3379  23.4727  23.4757  23.8009  23.8547
    23.9741  24.0483  24.3142  24.5562  24.7297  24.8287  25.0610  25.2689
    25.3648  25.4937  25.5260  25.5786  25.6411  25.9537  25.9996  26.1916
    26.2629  26.3799

          k = 0.0515 0.1545-0.4634 ( 37898 PWs)   bands (ev):

   -67.8221 -67.8221 -67.8120 -67.8120 -67.8093 -67.8093 -67.8069 -67.8069
   -67.8046 -67.8046 -67.8046 -67.8046 -67.8032 -67.8032 -67.8012 -67.8012
   -67.8005 -67.8005 -67.7989 -67.7989 -67.7971 -67.7971 -67.7969 -67.7969
   -67.7965 -67.7965 -67.7959 -67.7959 -67.7945 -67.7945 -67.7942 -67.7942
   -33.6191 -33.6191 -33.6171 -33.6171 -33.6100 -33.6100 -33.6078 -33.6078
   -33.6075 -33.6075 -33.6045 -33.6045 -33.5978 -33.5978 -33.5874 -33.5874
   -33.5856 -33.5856 -33.5854 -33.5854 -33.5738 -33.5737 -33.5671 -33.5671
   -33.5606 -33.5606 -33.5598 -33.5598 -33.5477 -33.5477 -33.5433 -33.5433
   -33.5368 -33.5368 -33.5336 -33.5336 -33.5295 -33.5295 -33.5257 -33.5257
   -33.5195 -33.5195 -33.4995 -33.4995 -33.4975 -33.4975 -33.4916 -33.4916
   -33.4885 -33.4885 -33.4863 -33.4863 -33.4851 -33.4851 -33.4807 -33.4807
   -33.4793 -33.4793 -33.4782 -33.4781 -33.4773 -33.4773 -33.4769 -33.4769
   -33.4752 -33.4752 -33.4696 -33.4696 -33.4671 -33.4671 -33.4633 -33.4633
   -33.4626 -33.4626 -33.4601 -33.4601 -33.4560 -33.4560 -33.4558 -33.4558
   -33.4547 -33.4547 -33.4526 -33.4525 -33.4499 -33.4499 -33.4456 -33.4456
   -33.4448 -33.4448 -33.4372 -33.4372 -33.4306 -33.4306 -33.4267 -33.4267
    10.6264  10.6264  11.9433  11.9433  11.9843  11.9843  12.0064  12.0064
    12.0567  12.0567  12.0943  12.0943  12.1156  12.1156  12.1549  12.1549
    12.1634  12.1634  12.1818  12.1818  12.2036  12.2036  12.3086  12.3086
    12.3372  12.3372  12.3407  12.3407  12.5079  12.5079  12.6234  12.6234
    12.7760  12.7760  12.7798  12.7798  12.8230  12.8230  12.9115  12.9115
    12.9383  12.9383  12.9717  12.9717  13.0091  13.0091  13.0366  13.0366
    13.0797  13.0797  13.0995  13.0995  13.1001  13.1001  13.3995  13.3995
    13.4006  13.4006  13.4034  13.4034  13.4322  13.4323  13.4751  13.4751
    13.5585  13.5585  13.5690  13.5690  13.6464  13.6464  13.6803  13.6803
    13.7256  13.7256  13.7589  13.7589  13.7737  13.7737  13.8662  13.8662
    13.8961  13.8961  13.9508  13.9508  13.9559  13.9559  13.9582  13.9582
    14.0173  14.0173  14.0341  14.0341  14.3912  14.3912  14.4012  14.4012
    14.4891  14.4891  14.4944  14.4944  14.5153  14.5153  14.5478  14.5478
    14.5693  14.5693  14.6606  14.6606  14.6739  14.6739  14.7435  14.7435
    14.7464  14.7464  14.7793  14.7793  14.7866  14.7866  14.8318  14.8318
    14.9156  14.9156  14.9546  14.9546  15.0089  15.0089  15.0420  15.0420
    15.1645  15.1645  15.2040  15.2040  15.2700  15.2700  15.3876  15.3876
    15.4171  15.4171  15.4341  15.4341  15.5378  15.5378  15.5566  15.5566
    15.6017  15.6017  15.6217  15.6217  15.6257  15.6257  15.6293  15.6293
    15.6371  15.6371  15.6389  15.6389  15.7251  15.7251  15.7481  15.7481
    15.9533  15.9533  16.0098  16.0098  16.0133  16.0133  16.2788  16.2788
    16.6858  16.6858  16.7909  16.7909  17.1425  17.1425  17.3083  17.3083
    18.3160  18.3160  18.7554  18.7554  19.8494  19.8494  20.3841  20.3841
    20.5032  20.5032  20.8857  20.8857  21.0816  21.0816  21.3865  21.3866
    22.7031  22.7031  23.1300  23.1300  23.6672  23.6672  23.8664  23.8664
    24.1093  24.1093  24.1791  24.1791  24.6350  24.6350  24.9684  24.9684
    25.5600  25.5600  25.6101  25.6101  25.7756  25.7756  25.8102  25.8102
    26.6679  26.6679

          k = 0.0515 0.2575 0.2575 ( 37861 PWs)   bands (ev):

   -67.8244 -67.8167 -67.8167 -67.8109 -67.8106 -67.8080 -67.8066 -67.8066
   -67.8046 -67.8046 -67.8045 -67.8033 -67.8032 -67.8032 -67.8009 -67.8009
   -67.8009 -67.8009 -67.7995 -67.7995 -67.7988 -67.7988 -67.7968 -67.7956
   -67.7955 -67.7955 -67.7955 -67.7952 -67.7952 -67.7945 -67.7945 -67.7942
   -33.6294 -33.6294 -33.6209 -33.6161 -33.6161 -33.6142 -33.6142 -33.5993
   -33.5993 -33.5983 -33.5983 -33.5916 -33.5916 -33.5868 -33.5868 -33.5853
   -33.5853 -33.5826 -33.5826 -33.5816 -33.5816 -33.5764 -33.5746 -33.5746
   -33.5722 -33.5722 -33.5560 -33.5516 -33.5485 -33.5485 -33.5442 -33.5442
   -33.5388 -33.5375 -33.5341 -33.5341 -33.5185 -33.5171 -33.5171 -33.5109
   -33.5109 -33.5099 -33.5099 -33.5042 -33.5042 -33.4969 -33.4969 -33.4958
   -33.4947 -33.4947 -33.4942 -33.4942 -33.4920 -33.4920 -33.4871 -33.4870
   -33.4825 -33.4825 -33.4813 -33.4813 -33.4739 -33.4739 -33.4734 -33.4734
   -33.4706 -33.4706 -33.4695 -33.4688 -33.4640 -33.4640 -33.4627 -33.4626
   -33.4626 -33.4618 -33.4618 -33.4610 -33.4560 -33.4560 -33.4550 -33.4543
   -33.4533 -33.4531 -33.4500 -33.4493 -33.4493 -33.4489 -33.4456 -33.4456
   -33.4432 -33.4432 -33.4427 -33.4355 -33.4355 -33.4336 -33.4247 -33.4195
    10.3209  11.3327  11.3327  11.8256  11.8881  11.9268  11.9268  11.9277
    11.9925  12.0025  12.0025  12.0876  12.1179  12.1179  12.1752  12.1762
    12.2269  12.2269  12.2320  12.2320  12.3398  12.3399  12.4025  12.4025
    12.4767  12.4767  12.4802  12.4802  12.5897  12.5897  12.5920  12.5920
    12.6119  12.6958  12.6958  12.7457  12.7457  12.7617  12.7617  12.8158
    12.8158  12.8866  12.9829  12.9829  12.9866  12.9866  13.0064  13.1604
    13.1604  13.1976  13.2008  13.2008  13.2105  13.2105  13.2188  13.3982
    13.3982  13.4678  13.4678  13.5351  13.5351  13.5408  13.5408  13.5611
    13.5663  13.5663  13.6013  13.6013  13.6091  13.6817  13.7091  13.7287
    13.7287  13.7901  13.7972  13.7972  13.8075  13.8349  13.8373  13.8757
    13.8850  13.8850  13.9032  13.9032  13.9244  13.9244  13.9279  13.9559
    14.0459  14.0459  14.0517  14.0517  14.1882  14.1882  14.2243  14.2243
    14.2983  14.2983  14.3360  14.3660  14.4167  14.4167  14.4424  14.4424
    14.4643  14.4643  14.5054  14.5060  14.6240  14.6240  14.7334  14.8077
    14.8167  14.8167  14.8454  14.8455  14.8921  14.9136  14.9136  14.9504
    15.0449  15.0449  15.0631  15.0851  15.0851  15.1273  15.1273  15.1511
    15.1511  15.2316  15.2316  15.2377  15.2377  15.2610  15.2610  15.2854
    15.2856  15.3177  15.3177  15.4172  15.4476  15.4744  15.4744  15.4811
    15.4811  15.4909  15.4909  15.5588  15.5623  15.6527  15.6938  15.6938
    15.7443  15.8055  15.8055  15.8173  15.8318  15.8318  15.9079  15.9079
    15.9110  15.9110  15.9290  15.9290  15.9712  15.9938  16.3524  16.3524
    16.4087  16.5603  16.5603  16.9881  16.9881  17.0485  18.0413  18.0413
    18.6009  18.6009  18.8942  18.8942  18.9977  18.9977  19.4907  19.4907
    20.3916  20.6067  20.8948  20.8948  22.0603  22.0603  22.0804  22.0804
    22.5337  22.5337  22.8147  22.8147  23.4370  23.5110  23.5110  23.6312
    23.6312  23.9378  24.1220  24.1220  24.2655  25.0512  25.4548  25.4548
    25.5225  25.5226  25.9386  26.1755  26.2076  26.2076  26.3720  26.3720
    26.3737  26.3737

          k = 0.0515 0.2575 0.3604 ( 37890 PWs)   bands (ev):

   -67.8230 -67.8191 -67.8157 -67.8127 -67.8099 -67.8078 -67.8074 -67.8062
   -67.8057 -67.8051 -67.8044 -67.8037 -67.8028 -67.8016 -67.8008 -67.8005
   -67.8002 -67.7998 -67.7992 -67.7991 -67.7983 -67.7978 -67.7969 -67.7962
   -67.7962 -67.7961 -67.7961 -67.7955 -67.7953 -67.7949 -67.7944 -67.7942
   -33.6249 -33.6242 -33.6128 -33.6108 -33.6101 -33.6093 -33.6081 -33.6069
   -33.6067 -33.5987 -33.5978 -33.5978 -33.5959 -33.5929 -33.5911 -33.5910
   -33.5905 -33.5862 -33.5856 -33.5855 -33.5824 -33.5798 -33.5753 -33.5748
   -33.5746 -33.5656 -33.5613 -33.5592 -33.5548 -33.5464 -33.5403 -33.5380
   -33.5357 -33.5296 -33.5275 -33.5250 -33.5248 -33.5243 -33.5190 -33.5173
   -33.5097 -33.5046 -33.5041 -33.5014 -33.5002 -33.4994 -33.4964 -33.4954
   -33.4939 -33.4927 -33.4921 -33.4892 -33.4883 -33.4875 -33.4856 -33.4818
   -33.4815 -33.4811 -33.4802 -33.4791 -33.4787 -33.4752 -33.4739 -33.4731
   -33.4725 -33.4713 -33.4686 -33.4685 -33.4672 -33.4660 -33.4658 -33.4655
   -33.4616 -33.4615 -33.4609 -33.4591 -33.4583 -33.4581 -33.4575 -33.4574
   -33.4532 -33.4531 -33.4523 -33.4510 -33.4501 -33.4498 -33.4497 -33.4473
   -33.4443 -33.4440 -33.4390 -33.4329 -33.4317 -33.4294 -33.4285 -33.4212
    10.5042  11.0218  11.4761  11.8647  11.8817  11.9567  12.0004  12.0101
    12.0364  12.0429  12.0847  12.1132  12.1220  12.1632  12.1710  12.1817
    12.1839  12.2094  12.2164  12.2528  12.2900  12.2940  12.3241  12.3534
    12.3652  12.4109  12.4230  12.4302  12.5073  12.5327  12.5611  12.5664
    12.5928  12.6568  12.6596  12.6818  12.7375  12.7621  12.7721  12.8151
    12.8158  12.8599  12.8845  12.9078  12.9416  13.0252  13.0835  13.0958
    13.1042  13.1289  13.1823  13.2074  13.2453  13.2638  13.2891  13.3886
    13.3963  13.3986  13.4560  13.4967  13.5015  13.5622  13.5968  13.5974
    13.6212  13.6244  13.6293  13.6578  13.6820  13.7056  13.7275  13.7903
    13.8050  13.8287  13.8393  13.8429  13.8491  13.8692  13.8882  13.8939
    13.9047  13.9138  13.9368  13.9870  13.9971  14.0036  14.0077  14.0235
    14.0416  14.0827  14.1028  14.1183  14.1609  14.1756  14.2230  14.2302
    14.2575  14.2790  14.2867  14.3047  14.3075  14.3395  14.3734  14.4337
    14.5287  14.5294  14.5577  14.5919  14.6005  14.6102  14.6166  14.6344
    14.7034  14.7205  14.7387  14.7483  14.7520  14.8262  14.9703  14.9887
    14.9900  15.0167  15.0237  15.0265  15.1263  15.1340  15.1341  15.1410
    15.1505  15.1855  15.2659  15.2852  15.2875  15.3060  15.3408  15.3429
    15.3451  15.4133  15.4251  15.4572  15.4577  15.5124  15.5219  15.5840
    15.5888  15.5894  15.5975  15.5988  15.6142  15.6262  15.6361  15.6512
    15.7370  15.7607  15.7653  15.7664  15.7686  15.7722  15.7727  15.7808
    15.8209  15.9125  15.9138  15.9224  15.9374  15.9395  16.2203  16.3659
    16.4964  16.6146  16.7576  16.8910  16.9553  16.9588  17.6024  18.2085
    18.6673  18.8360  19.0004  19.0402  19.3495  19.4580  19.6870  20.1163
    20.1692  20.3674  20.8374  21.2499  21.2512  21.6527  21.9298  22.0911
    22.2873  22.6307  22.6905  22.8875  22.9097  23.0335  23.2297  23.3612
    23.7079  23.7544  24.0248  24.0366  24.5522  24.9031  25.4177  25.4219
    25.5164  25.6923  25.7512  25.8125  25.9599  25.9646  26.3451  26.5424
    26.6618  26.7686

          k = 0.0515 0.2575-0.4634 ( 37888 PWs)   bands (ev):

   -67.8212 -67.8212 -67.8143 -67.8143 -67.8089 -67.8089 -67.8066 -67.8066
   -67.8057 -67.8057 -67.8041 -67.8041 -67.8023 -67.8023 -67.8001 -67.8001
   -67.7997 -67.7997 -67.7987 -67.7987 -67.7975 -67.7975 -67.7972 -67.7972
   -67.7969 -67.7969 -67.7955 -67.7955 -67.7954 -67.7954 -67.7943 -67.7943
   -33.6181 -33.6181 -33.6169 -33.6169 -33.6049 -33.6049 -33.6040 -33.6040
   -33.6033 -33.6033 -33.5972 -33.5971 -33.5965 -33.5965 -33.5953 -33.5953
   -33.5948 -33.5948 -33.5892 -33.5892 -33.5775 -33.5775 -33.5774 -33.5774
   -33.5673 -33.5673 -33.5600 -33.5600 -33.5561 -33.5561 -33.5324 -33.5324
   -33.5312 -33.5312 -33.5273 -33.5273 -33.5240 -33.5240 -33.5166 -33.5166
   -33.5159 -33.5159 -33.4959 -33.4959 -33.4952 -33.4952 -33.4938 -33.4938
   -33.4928 -33.4928 -33.4916 -33.4916 -33.4884 -33.4884 -33.4875 -33.4875
   -33.4807 -33.4807 -33.4793 -33.4793 -33.4754 -33.4754 -33.4751 -33.4751
   -33.4699 -33.4699 -33.4685 -33.4685 -33.4654 -33.4654 -33.4652 -33.4652
   -33.4619 -33.4619 -33.4601 -33.4601 -33.4597 -33.4597 -33.4587 -33.4587
   -33.4551 -33.4551 -33.4538 -33.4538 -33.4511 -33.4511 -33.4463 -33.4463
   -33.4456 -33.4456 -33.4333 -33.4333 -33.4315 -33.4315 -33.4246 -33.4246
    10.7408  10.7408  11.6567  11.6567  11.9686  11.9686  12.0556  12.0556
    12.0864  12.0864  12.1011  12.1011  12.1195  12.1195  12.1722  12.1722
    12.2497  12.2497  12.2501  12.2501  12.2639  12.2639  12.2648  12.2648
    12.3468  12.3468  12.4322  12.4322  12.4729  12.4729  12.5009  12.5009
    12.6705  12.6705  12.6717  12.6717  12.7269  12.7269  12.7730  12.7730
    12.7969  12.7969  12.9637  12.9637  12.9781  12.9781  12.9968  12.9968
    13.1990  13.1990  13.2005  13.2005  13.2848  13.2848  13.3116  13.3116
    13.3286  13.3286  13.4033  13.4034  13.5811  13.5811  13.6436  13.6436
    13.6610  13.6610  13.6760  13.6760  13.7195  13.7195  13.7225  13.7225
    13.7630  13.7630  13.8798  13.8798  13.9243  13.9243  13.9254  13.9254
    13.9432  13.9432  13.9606  13.9606  13.9636  13.9636  13.9831  13.9831
    14.1116  14.1116  14.1288  14.1288  14.2495  14.2495  14.2601  14.2601
    14.2851  14.2851  14.3583  14.3583  14.3602  14.3602  14.3724  14.3724
    14.3824  14.3824  14.5905  14.5905  14.6101  14.6101  14.6401  14.6401
    14.6638  14.6638  14.6736  14.6736  14.7030  14.7030  14.9157  14.9157
    14.9338  14.9338  15.0523  15.0523  15.0945  15.0945  15.0992  15.0992
    15.2325  15.2325  15.3289  15.3289  15.3292  15.3292  15.4299  15.4299
    15.4451  15.4451  15.4798  15.4798  15.5155  15.5155  15.5170  15.5170
    15.6064  15.6064  15.6316  15.6316  15.6466  15.6466  15.6841  15.6841
    15.6861  15.6861  15.6968  15.6968  15.7016  15.7016  15.7171  15.7171
    15.9083  15.9083  15.9175  15.9175  15.9218  15.9218  16.2649  16.2649
    16.4223  16.4223  16.9386  16.9386  17.1748  17.1748  17.5231  17.5231
    18.9599  18.9599  19.3273  19.3273  19.3642  19.3642  19.8479  19.8479
    20.4420  20.4420  20.9034  20.9034  21.3583  21.3583  21.9493  21.9493
    22.3748  22.3748  22.7334  22.7334  22.8817  22.8817  23.2850  23.2850
    23.3413  23.3413  24.5376  24.5376  24.6875  24.6875  25.2293  25.2293
    25.4655  25.4655  25.6134  25.6134  26.1543  26.1543  26.2375  26.2375
    26.9644  26.9652

          k = 0.0515 0.3604 0.3604 ( 37894 PWs)   bands (ev):

   -67.8217 -67.8180 -67.8180 -67.8147 -67.8092 -67.8073 -67.8073 -67.8068
   -67.8060 -67.8053 -67.8053 -67.8043 -67.8005 -67.8005 -67.7997 -67.7996
   -67.7996 -67.7996 -67.7986 -67.7986 -67.7983 -67.7983 -67.7968 -67.7968
   -67.7968 -67.7968 -67.7964 -67.7964 -67.7956 -67.7947 -67.7947 -67.7944
   -33.6207 -33.6207 -33.6071 -33.6071 -33.6066 -33.6066 -33.6056 -33.6045
   -33.6041 -33.6041 -33.5976 -33.5976 -33.5976 -33.5961 -33.5961 -33.5911
   -33.5911 -33.5867 -33.5867 -33.5862 -33.5862 -33.5850 -33.5850 -33.5786
   -33.5762 -33.5762 -33.5675 -33.5598 -33.5560 -33.5474 -33.5474 -33.5322
   -33.5273 -33.5273 -33.5205 -33.5205 -33.5149 -33.5114 -33.5114 -33.5086
   -33.5086 -33.5079 -33.5079 -33.5056 -33.5056 -33.4943 -33.4943 -33.4919
   -33.4919 -33.4907 -33.4901 -33.4901 -33.4896 -33.4896 -33.4880 -33.4880
   -33.4865 -33.4865 -33.4791 -33.4790 -33.4776 -33.4776 -33.4772 -33.4744
   -33.4744 -33.4682 -33.4682 -33.4670 -33.4670 -33.4668 -33.4668 -33.4640
   -33.4616 -33.4616 -33.4615 -33.4606 -33.4606 -33.4593 -33.4574 -33.4551
   -33.4545 -33.4532 -33.4523 -33.4523 -33.4519 -33.4508 -33.4495 -33.4455
   -33.4455 -33.4431 -33.4431 -33.4323 -33.4287 -33.4276 -33.4276 -33.4216
    10.6808  11.1779  11.1779  11.6100  11.9144  12.0026  12.0387  12.0579
    12.0579  12.0755  12.1121  12.1122  12.1725  12.1725  12.1856  12.2305
    12.2305  12.2772  12.2772  12.2877  12.2877  12.2887  12.2887  12.4070
    12.4070  12.4101  12.4264  12.4525  12.4525  12.5117  12.5117  12.5128
    12.5128  12.5584  12.5584  12.5936  12.5936  12.7081  12.7081  12.7176
    12.7176  12.7256  12.7256  12.9486  12.9486  12.9797  13.1416  13.1416
    13.1458  13.1458  13.2078  13.2578  13.2945  13.2945  13.3051  13.3051
    13.3075  13.4583  13.5667  13.5667  13.5986  13.6909  13.7005  13.7005
    13.7335  13.7335  13.7383  13.7383  13.7478  13.7478  13.7637  13.7638
    13.7851  13.7981  13.9081  13.9110  13.9302  13.9500  13.9500  13.9606
    13.9729  13.9974  13.9975  14.0046  14.0046  14.0105  14.0963  14.0963
    14.1001  14.1001  14.1022  14.1022  14.1180  14.1181  14.1950  14.1955
    14.1955  14.2106  14.2879  14.2879  14.3121  14.3226  14.3705  14.3705
    14.3890  14.3890  14.4049  14.4050  14.4092  14.4099  14.4099  14.5330
    14.6175  14.6175  14.6399  14.6399  14.7144  14.7904  14.7904  14.8203
    14.9257  15.0260  15.1159  15.1159  15.1560  15.1560  15.2102  15.2102
    15.2819  15.2819  15.3179  15.3179  15.3615  15.3676  15.3676  15.4429
    15.4429  15.5218  15.5301  15.5444  15.5444  15.5469  15.5469  15.5516
    15.5516  15.5914  15.5931  15.6453  15.6729  15.6729  15.6771  15.6772
    15.6825  15.7543  15.7543  15.7735  15.7735  15.7772  15.7779  15.7779
    15.7981  15.7981  15.8003  15.8003  15.8741  16.0301  16.1510  16.1610
    16.1610  16.6013  16.6013  16.7376  17.3153  17.3153  18.2073  18.2073
    18.6505  18.6505  19.4211  19.4211  19.6175  19.6176  19.7043  19.7043
    20.1152  20.1152  21.1943  21.1943  21.2493  21.8745  22.1171  22.1171
    22.2833  22.2833  22.4448  22.4448  22.5655  22.5655  22.9709  22.9709
    23.2208  23.2845  23.2845  24.4656  24.6408  25.1845  25.4380  25.4380
    25.4457  25.6034  26.0513  26.0513  26.3196  26.3197  26.6051  26.6051
    27.0935  27.0954

          k = 0.0515 0.3604-0.4634 ( 37834 PWs)   bands (ev):

   -67.8200 -67.8200 -67.8165 -67.8165 -67.8084 -67.8084 -67.8067 -67.8067
   -67.8061 -67.8061 -67.8049 -67.8048 -67.8001 -67.8001 -67.7991 -67.7991
   -67.7989 -67.7989 -67.7985 -67.7985 -67.7979 -67.7979 -67.7976 -67.7976
   -67.7975 -67.7975 -67.7966 -67.7966 -67.7951 -67.7951 -67.7945 -67.7945
   -33.6149 -33.6149 -33.6145 -33.6145 -33.6031 -33.6031 -33.6031 -33.6031
   -33.6004 -33.6004 -33.5989 -33.5989 -33.5960 -33.5960 -33.5951 -33.5951
   -33.5921 -33.5921 -33.5872 -33.5872 -33.5866 -33.5866 -33.5850 -33.5850
   -33.5764 -33.5764 -33.5662 -33.5662 -33.5541 -33.5541 -33.5398 -33.5398
   -33.5191 -33.5191 -33.5171 -33.5171 -33.5150 -33.5150 -33.5124 -33.5124
   -33.5022 -33.5022 -33.5009 -33.5009 -33.5003 -33.5003 -33.4990 -33.4990
   -33.4973 -33.4973 -33.4907 -33.4907 -33.4881 -33.4881 -33.4860 -33.4860
   -33.4824 -33.4824 -33.4813 -33.4813 -33.4766 -33.4766 -33.4764 -33.4764
   -33.4726 -33.4726 -33.4724 -33.4724 -33.4646 -33.4646 -33.4645 -33.4644
   -33.4641 -33.4640 -33.4618 -33.4618 -33.4562 -33.4562 -33.4556 -33.4556
   -33.4548 -33.4548 -33.4539 -33.4539 -33.4484 -33.4484 -33.4483 -33.4483
   -33.4476 -33.4476 -33.4372 -33.4372 -33.4273 -33.4273 -33.4238 -33.4238
    10.9082  10.9082  11.3769  11.3769  11.9737  11.9737  12.0429  12.0429
    12.0748  12.0748  12.1682  12.1682  12.1730  12.1730  12.2008  12.2008
    12.2508  12.2508  12.3450  12.3450  12.3566  12.3566  12.3614  12.3614
    12.3653  12.3653  12.4036  12.4036  12.4332  12.4332  12.5026  12.5026
    12.5531  12.5531  12.5702  12.5702  12.6137  12.6138  12.6217  12.6217
    12.6282  12.6282  12.8413  12.8413  13.0349  13.0349  13.0388  13.0389
    13.2162  13.2162  13.2219  13.2219  13.2864  13.2864  13.3891  13.3891
    13.4110  13.4110  13.5208  13.5208  13.5936  13.5936  13.6982  13.6982
    13.7291  13.7291  13.7480  13.7480  13.8463  13.8463  13.8752  13.8752
    13.9320  13.9320  13.9703  13.9703  13.9716  13.9717  13.9801  13.9801
    13.9879  13.9879  13.9912  13.9912  14.0553  14.0553  14.0917  14.0917
    14.0933  14.0933  14.1314  14.1314  14.1433  14.1433  14.1586  14.1586
    14.1664  14.1664  14.2054  14.2054  14.2453  14.2453  14.2487  14.2487
    14.2786  14.2786  14.4390  14.4390  14.5145  14.5145  14.5263  14.5263
    14.5692  14.5692  14.5789  14.5789  14.5865  14.5865  14.6588  14.6588
    15.0269  15.0269  15.1030  15.1030  15.2411  15.2411  15.2449  15.2449
    15.2592  15.2592  15.3434  15.3434  15.4294  15.4294  15.4609  15.4609
    15.4650  15.4650  15.4825  15.4825  15.5687  15.5687  15.6166  15.6167
    15.6231  15.6231  15.6706  15.6706  15.6870  15.6870  15.7032  15.7032
    15.7248  15.7248  15.7273  15.7273  15.7379  15.7379  15.7416  15.7416
    15.7866  15.7866  15.8276  15.8276  15.8556  15.8556  16.1103  16.1103
    16.2816  16.2816  16.6267  16.6267  17.7562  17.7562  17.9568  17.9568
    18.8859  18.8859  19.1260  19.1260  19.6399  19.6399  19.8799  19.8799
    20.4551  20.4551  20.7602  20.7602  21.7394  21.7394  22.1788  22.1788
    22.3441  22.3441  22.4147  22.4147  22.5296  22.5296  22.6465  22.6465
    22.7486  22.7486  23.8784  23.8784  25.3176  25.3176  25.4056  25.4056
    25.5008  25.5009  25.8696  25.8696  26.6874  26.6874  26.7298  26.7298
    26.7875  26.7875

          k = 0.0515-0.4634-0.4634 ( 37840 PWs)   bands (ev):

   -67.8184 -67.8184 -67.8184 -67.8184 -67.8076 -67.8076 -67.8076 -67.8076
   -67.8056 -67.8056 -67.8055 -67.8055 -67.7982 -67.7982 -67.7982 -67.7982
   -67.7982 -67.7982 -67.7982 -67.7982 -67.7982 -67.7982 -67.7982 -67.7982
   -67.7982 -67.7982 -67.7982 -67.7981 -67.7948 -67.7948 -67.7948 -67.7948
   -33.6098 -33.6098 -33.6098 -33.6098 -33.6098 -33.6098 -33.6098 -33.6098
   -33.5943 -33.5943 -33.5943 -33.5943 -33.5943 -33.5943 -33.5943 -33.5943
   -33.5924 -33.5924 -33.5924 -33.5924 -33.5859 -33.5859 -33.5859 -33.5859
   -33.5769 -33.5769 -33.5769 -33.5769 -33.5472 -33.5472 -33.5471 -33.5471
   -33.5077 -33.5076 -33.5076 -33.5076 -33.5076 -33.5076 -33.5076 -33.5076
   -33.5071 -33.5071 -33.5071 -33.5071 -33.5071 -33.5071 -33.5071 -33.5070
   -33.4888 -33.4888 -33.4888 -33.4888 -33.4844 -33.4844 -33.4844 -33.4844
   -33.4843 -33.4842 -33.4842 -33.4842 -33.4842 -33.4842 -33.4842 -33.4842
   -33.4689 -33.4689 -33.4689 -33.4689 -33.4689 -33.4689 -33.4689 -33.4688
   -33.4596 -33.4596 -33.4596 -33.4596 -33.4573 -33.4573 -33.4573 -33.4573
   -33.4520 -33.4520 -33.4520 -33.4520 -33.4506 -33.4506 -33.4506 -33.4506
   -33.4421 -33.4421 -33.4421 -33.4421 -33.4246 -33.4246 -33.4246 -33.4246
    11.1232  11.1232  11.1232  11.1232  11.9990  11.9990  11.9990  11.9990
    12.1140  12.1140  12.1140  12.1140  12.2432  12.2432  12.2432  12.2432
    12.3425  12.3425  12.3426  12.3426  12.3426  12.3426  12.3426  12.3426
    12.4786  12.4786  12.4786  12.4786  12.4786  12.4786  12.4786  12.4787
    12.4851  12.4851  12.4851  12.4851  12.4851  12.4851  12.4851  12.4851
    12.6937  12.6937  12.6937  12.6937  13.1213  13.1213  13.1213  13.1213
    13.1213  13.1213  13.1213  13.1214  13.3509  13.3509  13.3509  13.3509
    13.5659  13.5659  13.5659  13.5659  13.7135  13.7135  13.7135  13.7135
    13.8044  13.8044  13.8044  13.8044  13.8090  13.8090  13.8090  13.8090
    13.9814  13.9814  13.9814  13.9814  14.0289  14.0289  14.0289  14.0289
    14.0289  14.0289  14.0289  14.0289  14.0428  14.0428  14.0429  14.0429
    14.0525  14.0525  14.0525  14.0525  14.1396  14.1396  14.1396  14.1396
    14.2490  14.2490  14.2490  14.2490  14.2490  14.2490  14.2490  14.2490
    14.3837  14.3837  14.3837  14.3837  14.3837  14.3837  14.3837  14.3837
    14.3866  14.3866  14.3866  14.3866  14.6163  14.6163  14.6163  14.6163
    15.1414  15.1414  15.1414  15.1414  15.2031  15.2031  15.2031  15.2031
    15.3713  15.3713  15.3713  15.3713  15.3713  15.3713  15.3713  15.3713
    15.6100  15.6100  15.6100  15.6100  15.6359  15.6359  15.6359  15.6359
    15.6359  15.6359  15.6359  15.6359  15.7194  15.7194  15.7194  15.7194
    15.7469  15.7469  15.7469  15.7469  15.7472  15.7472  15.7472  15.7472
    15.7472  15.7472  15.7472  15.7472  15.8820  15.8820  15.8820  15.8820
    16.3943  16.3943  16.3943  16.3943  18.4151  18.4151  18.4151  18.4151
    18.4151  18.4151  18.4151  18.4151  20.2937  20.2937  20.2937  20.2937
    20.2937  20.2937  20.2937  20.2937  22.1981  22.1981  22.1981  22.1981
    22.2322  22.2322  22.2322  22.2322  22.2322  22.2322  22.2322  22.2322
    23.2046  23.2046  23.2046  23.2046  25.4309  25.4309  25.4309  25.4309
    25.9990  25.9990  25.9990  25.9990  26.5559  26.5559  26.5559  26.5559
    27.2223  27.2223

          k = 0.1545 0.1545 0.1545 ( 37896 PWs)   bands (ev):

   -67.8258 -67.8144 -67.8144 -67.8144 -67.8071 -67.8071 -67.8071 -67.8060
   -67.8060 -67.8060 -67.8041 -67.8018 -67.8018 -67.8018 -67.8018 -67.8018
   -67.8018 -67.8018 -67.8018 -67.8018 -67.7988 -67.7988 -67.7988 -67.7946
   -67.7946 -67.7946 -67.7946 -67.7946 -67.7946 -67.7946 -67.7946 -67.7946
   -33.6332 -33.6332 -33.6332 -33.6247 -33.6208 -33.6208 -33.6208 -33.5893
   -33.5893 -33.5893 -33.5847 -33.5847 -33.5847 -33.5847 -33.5847 -33.5847
   -33.5823 -33.5823 -33.5823 -33.5823 -33.5823 -33.5823 -33.5647 -33.5647
   -33.5647 -33.5562 -33.5562 -33.5562 -33.5487 -33.5487 -33.5487 -33.5487
   -33.5487 -33.5487 -33.5296 -33.5296 -33.5296 -33.5070 -33.5070 -33.5070
   -33.5065 -33.5065 -33.5065 -33.5052 -33.5052 -33.5052 -33.5052 -33.5052
   -33.5052 -33.4981 -33.4981 -33.4981 -33.4959 -33.4959 -33.4959 -33.4959
   -33.4959 -33.4959 -33.4802 -33.4802 -33.4802 -33.4714 -33.4714 -33.4714
   -33.4693 -33.4693 -33.4693 -33.4611 -33.4611 -33.4611 -33.4590 -33.4590
   -33.4590 -33.4553 -33.4553 -33.4553 -33.4553 -33.4553 -33.4553 -33.4533
   -33.4532 -33.4532 -33.4481 -33.4481 -33.4481 -33.4476 -33.4476 -33.4466
   -33.4466 -33.4466 -33.4398 -33.4398 -33.4398 -33.4318 -33.4193 -33.4193
    10.1322  11.5990  11.5990  11.5990  11.7527  11.8325  11.8325  11.8326
    11.8631  11.8631  11.8631  12.0440  12.0440  12.0440  12.1804  12.1804
    12.1804  12.3564  12.3564  12.3564  12.5517  12.5517  12.5517  12.5517
    12.5517  12.5517  12.5925  12.5925  12.5925  12.6778  12.6778  12.6778
    12.6778  12.6778  12.6778  12.6873  12.6873  12.6873  12.9030  12.9030
    12.9030  12.9030  12.9030  12.9030  13.0168  13.0168  13.0168  13.2666
    13.2666  13.2666  13.3354  13.3354  13.3354  13.3354  13.3354  13.3354
    13.3710  13.3710  13.3710  13.4550  13.4550  13.4550  13.4550  13.4550
    13.4550  13.5707  13.5707  13.5707  13.6296  13.7072  13.7072  13.7072
    13.7072  13.7072  13.7072  13.7094  13.7094  13.7270  13.7270  13.7270
    13.7588  13.7588  13.7801  13.7801  13.7801  13.7873  13.7873  13.7873
    14.1036  14.1036  14.1036  14.2396  14.2396  14.2396  14.3387  14.3387
    14.3387  14.3967  14.3967  14.3967  14.4883  14.4883  14.4883  14.5278
    14.5278  14.5278  14.5278  14.5278  14.5278  14.7560  14.7560  14.7560
    14.7851  14.7851  14.7851  14.8455  14.8455  14.8455  14.8965  14.8965
    14.9573  14.9573  14.9573  14.9573  14.9573  14.9573  15.1747  15.1747
    15.1747  15.1954  15.1954  15.1954  15.1954  15.1954  15.1954  15.2775
    15.2775  15.2775  15.3112  15.3112  15.3112  15.5669  15.5669  15.5669
    15.6517  15.6517  15.6517  15.6663  15.6663  15.6663  15.6802  15.6802
    15.6802  15.7131  15.7131  15.8490  15.8490  15.8490  15.9654  15.9654
    15.9654  15.9654  15.9654  15.9654  16.0117  16.0117  16.0117  16.2278
    16.5964  16.5965  16.5965  17.8767  17.8767  17.8767  17.9260  17.9260
    17.9260  17.9260  17.9260  17.9260  19.3161  19.3161  19.3161  19.4271
    19.4271  19.4271  22.2087  22.2087  22.2087  22.3089  22.3089  22.3089
    22.3089  22.3089  22.3089  23.3640  23.9355  23.9355  23.9355  23.9355
    23.9355  23.9355  24.4408  24.4408  24.4408  25.5807  25.5807  25.5807
    25.9698  25.9698  25.9698  25.9698  26.0917  26.0918  26.0923  26.0923
    26.0923  26.0923

          k = 0.1545 0.1545 0.2575 ( 37889 PWs)   bands (ev):

   -67.8249 -67.8171 -67.8138 -67.8138 -67.8088 -67.8088 -67.8069 -67.8057
   -67.8057 -67.8048 -67.8034 -67.8028 -67.8028 -67.8018 -67.8018 -67.8018
   -67.8018 -67.8011 -67.8002 -67.8001 -67.7990 -67.7978 -67.7978 -67.7956
   -67.7952 -67.7952 -67.7950 -67.7949 -67.7946 -67.7946 -67.7946 -67.7946
   -33.6309 -33.6285 -33.6285 -33.6175 -33.6175 -33.6172 -33.6156 -33.5999
   -33.5936 -33.5936 -33.5908 -33.5908 -33.5885 -33.5885 -33.5880 -33.5880
   -33.5854 -33.5854 -33.5824 -33.5824 -33.5808 -33.5808 -33.5744 -33.5715
   -33.5602 -33.5602 -33.5554 -33.5554 -33.5501 -33.5501 -33.5431 -33.5431
   -33.5400 -33.5400 -33.5368 -33.5368 -33.5166 -33.5148 -33.5148 -33.5135
   -33.5135 -33.5111 -33.5111 -33.5036 -33.4972 -33.4972 -33.4971 -33.4971
   -33.4962 -33.4962 -33.4960 -33.4959 -33.4958 -33.4915 -33.4915 -33.4908
   -33.4905 -33.4905 -33.4794 -33.4761 -33.4737 -33.4737 -33.4728 -33.4725
   -33.4725 -33.4675 -33.4671 -33.4671 -33.4655 -33.4655 -33.4626 -33.4626
   -33.4626 -33.4626 -33.4604 -33.4560 -33.4560 -33.4553 -33.4553 -33.4550
   -33.4544 -33.4544 -33.4502 -33.4502 -33.4487 -33.4457 -33.4435 -33.4435
   -33.4414 -33.4404 -33.4397 -33.4389 -33.4375 -33.4375 -33.4217 -33.4202
    10.2582  11.2800  11.6788  11.6788  11.7791  11.8843  11.8998  11.8999
    11.9262  11.9262  11.9592  12.0886  12.1169  12.1169  12.1784  12.1958
    12.2192  12.2192  12.2421  12.2421  12.4153  12.4153  12.4631  12.4747
    12.4747  12.5458  12.5751  12.5751  12.6085  12.6085  12.6124  12.6124
    12.6614  12.6614  12.6620  12.6620  12.7062  12.7062  12.7466  12.7466
    12.9129  12.9129  12.9302  12.9302  13.0571  13.0571  13.1577  13.2078
    13.2078  13.2218  13.2218  13.2562  13.2688  13.2688  13.3290  13.3290
    13.3730  13.3730  13.4281  13.4282  13.4346  13.4346  13.5001  13.5392
    13.5392  13.5823  13.5866  13.6450  13.6450  13.7149  13.7149  13.7225
    13.7225  13.7250  13.7268  13.7268  13.7373  13.7966  13.8036  13.8061
    13.8061  13.8483  13.8483  13.8647  13.8863  13.9583  14.0119  14.0119
    14.0223  14.0223  14.0964  14.0993  14.1901  14.1901  14.1941  14.2411
    14.2411  14.3083  14.3083  14.3574  14.3746  14.3746  14.5749  14.5749
    14.6002  14.6002  14.6326  14.6484  14.6601  14.6601  14.7488  14.7488
    14.7851  14.7851  14.8406  14.8555  14.8555  14.9175  14.9175  14.9282
    14.9375  14.9383  14.9383  14.9517  14.9517  14.9629  15.0239  15.0841
    15.0841  15.1881  15.2347  15.2347  15.3330  15.3330  15.3574  15.3574
    15.3665  15.3665  15.3959  15.3959  15.4136  15.4137  15.4346  15.4537
    15.5353  15.5353  15.5483  15.6030  15.6052  15.6137  15.6137  15.6618
    15.8234  15.8372  15.8372  15.8827  15.8827  15.8846  15.8846  15.9657
    15.9657  15.9672  15.9676  15.9677  15.9994  15.9994  16.1250  16.1302
    16.2609  16.2609  16.5449  17.4958  17.4958  17.8899  17.8899  17.9244
    17.9244  18.4358  18.5101  18.5101  18.7190  19.4219  19.6714  19.6714
    20.0270  20.0270  21.5029  21.5029  21.7453  21.7453  22.0512  22.4757
    22.4757  22.5441  22.5441  23.0937  23.0937  23.6065  23.9100  23.9831
    23.9831  24.1175  24.1175  24.4416  24.4416  25.1156  25.1156  25.5066
    25.5066  25.5620  25.5620  26.0276  26.0276  26.2711  26.2711  26.3632
    26.5402  26.5404

          k = 0.1545 0.1545 0.3604 ( 37869 PWs)   bands (ev):

   -67.8235 -67.8195 -67.8129 -67.8129 -67.8104 -67.8104 -67.8065 -67.8054
   -67.8052 -67.8052 -67.8037 -67.8037 -67.8018 -67.8018 -67.8018 -67.8018
   -67.8010 -67.8004 -67.7994 -67.7986 -67.7986 -67.7970 -67.7969 -67.7969
   -67.7961 -67.7961 -67.7955 -67.7955 -67.7946 -67.7946 -67.7946 -67.7946
   -33.6263 -33.6217 -33.6217 -33.6127 -33.6127 -33.6103 -33.6078 -33.6077
   -33.6036 -33.6036 -33.5990 -33.5990 -33.5897 -33.5897 -33.5881 -33.5881
   -33.5869 -33.5869 -33.5857 -33.5855 -33.5832 -33.5832 -33.5760 -33.5760
   -33.5653 -33.5652 -33.5499 -33.5499 -33.5453 -33.5453 -33.5430 -33.5430
   -33.5365 -33.5365 -33.5315 -33.5315 -33.5245 -33.5244 -33.5215 -33.5215
   -33.5168 -33.5167 -33.5029 -33.4991 -33.4964 -33.4964 -33.4960 -33.4960
   -33.4922 -33.4899 -33.4899 -33.4869 -33.4862 -33.4862 -33.4855 -33.4855
   -33.4840 -33.4840 -33.4822 -33.4779 -33.4779 -33.4778 -33.4755 -33.4709
   -33.4709 -33.4705 -33.4705 -33.4687 -33.4687 -33.4656 -33.4656 -33.4649
   -33.4638 -33.4638 -33.4594 -33.4579 -33.4579 -33.4568 -33.4552 -33.4552
   -33.4549 -33.4549 -33.4542 -33.4542 -33.4523 -33.4498 -33.4441 -33.4414
   -33.4403 -33.4403 -33.4370 -33.4370 -33.4352 -33.4323 -33.4253 -33.4227
    10.4434  10.9662  11.7909  11.7909  11.8379  11.9558  11.9971  11.9972
    12.0200  12.0201  12.0491  12.0728  12.0728  12.0810  12.1202  12.1546
    12.2242  12.2242  12.2637  12.2637  12.2958  12.2958  12.3250  12.3250
    12.3446  12.3836  12.5180  12.5180  12.5249  12.5249  12.5992  12.5992
    12.6397  12.6397  12.6926  12.6926  12.7669  12.7669  12.7822  12.7822
    12.9300  12.9300  12.9813  12.9813  13.0692  13.0692  13.0802  13.0802
    13.1152  13.1152  13.1442  13.1442  13.2629  13.2629  13.2906  13.2919
    13.4121  13.4121  13.4249  13.4503  13.4503  13.4994  13.4994  13.5108
    13.5709  13.5709  13.5790  13.5790  13.6792  13.7221  13.7221  13.7260
    13.7264  13.7264  13.7918  13.8224  13.8224  13.8647  13.8703  13.9251
    13.9251  13.9326  13.9326  13.9647  13.9678  13.9678  13.9751  13.9827
    13.9827  14.0418  14.0667  14.1680  14.2005  14.2175  14.2582  14.2582
    14.2588  14.2588  14.2891  14.2891  14.3612  14.3612  14.6211  14.6617
    14.6617  14.6622  14.6622  14.6759  14.6759  14.6937  14.7468  14.7468
    14.7647  14.7751  14.7751  14.7782  14.7782  14.8557  14.8557  14.8741
    14.8741  14.9156  14.9258  14.9258  14.9746  14.9984  15.0657  15.0657
    15.1064  15.1408  15.1970  15.2345  15.2345  15.3034  15.3034  15.3786
    15.4671  15.4675  15.4676  15.4787  15.4787  15.4957  15.5090  15.5090
    15.5140  15.5140  15.5302  15.5302  15.5313  15.5313  15.5613  15.7515
    15.7639  15.7749  15.7749  15.7760  15.7760  15.7768  15.7768  15.9067
    15.9623  15.9623  15.9716  15.9716  15.9872  15.9872  16.2452  16.3217
    16.3217  16.4677  16.6932  17.0874  17.0874  17.9033  17.9033  17.9207
    17.9207  18.0322  18.9027  19.1693  19.1693  19.3712  20.1250  20.1250
    20.6825  20.6825  20.6867  20.6867  21.1837  21.1837  22.0834  22.1615
    22.1616  22.8508  22.8508  22.8906  23.0234  23.0234  23.5551  23.5551
    24.3287  24.3287  24.3765  24.3765  24.5236  24.9171  24.9171  25.0814
    25.0814  25.4998  25.4998  25.9358  26.0085  26.0085  26.4212  26.4212
    26.4325  26.4325

          k = 0.1545 0.1545-0.4634 ( 37852 PWs)   bands (ev):

   -67.8217 -67.8217 -67.8118 -67.8118 -67.8117 -67.8117 -67.8060 -67.8060
   -67.8045 -67.8045 -67.8045 -67.8045 -67.8018 -67.8018 -67.8018 -67.8018
   -67.7999 -67.7999 -67.7988 -67.7988 -67.7973 -67.7973 -67.7972 -67.7972
   -67.7961 -67.7961 -67.7961 -67.7961 -67.7946 -67.7946 -67.7946 -67.7946
   -33.6192 -33.6192 -33.6133 -33.6133 -33.6133 -33.6133 -33.6064 -33.6064
   -33.6064 -33.6064 -33.5976 -33.5976 -33.5971 -33.5971 -33.5897 -33.5897
   -33.5897 -33.5897 -33.5848 -33.5848 -33.5848 -33.5848 -33.5707 -33.5707
   -33.5707 -33.5707 -33.5475 -33.5475 -33.5475 -33.5475 -33.5348 -33.5348
   -33.5348 -33.5348 -33.5293 -33.5293 -33.5293 -33.5293 -33.5236 -33.5236
   -33.5236 -33.5236 -33.4961 -33.4961 -33.4960 -33.4960 -33.4935 -33.4935
   -33.4897 -33.4897 -33.4877 -33.4877 -33.4834 -33.4834 -33.4833 -33.4833
   -33.4783 -33.4783 -33.4783 -33.4783 -33.4773 -33.4773 -33.4772 -33.4772
   -33.4769 -33.4769 -33.4768 -33.4768 -33.4616 -33.4616 -33.4606 -33.4606
   -33.4606 -33.4606 -33.4593 -33.4593 -33.4593 -33.4593 -33.4582 -33.4581
   -33.4578 -33.4578 -33.4551 -33.4551 -33.4551 -33.4551 -33.4426 -33.4426
   -33.4380 -33.4380 -33.4380 -33.4380 -33.4298 -33.4298 -33.4267 -33.4267
    10.6824  10.6824  11.9261  11.9261  11.9261  11.9261  11.9284  11.9284
    12.0389  12.0389  12.1204  12.1204  12.1205  12.1205  12.1437  12.1437
    12.1437  12.1437  12.2247  12.2247  12.2407  12.2407  12.3621  12.3621
    12.3621  12.3621  12.4200  12.4200  12.4200  12.4200  12.6201  12.6201
    12.6201  12.6201  12.7644  12.7644  12.7644  12.7644  12.9085  12.9085
    12.9085  12.9085  12.9715  12.9715  12.9715  12.9715  13.0566  13.0566
    13.0566  13.0566  13.1868  13.1868  13.1868  13.1868  13.3524  13.3524
    13.4101  13.4101  13.4555  13.4555  13.4555  13.4555  13.5013  13.5013
    13.5013  13.5013  13.7127  13.7127  13.7260  13.7260  13.7260  13.7260
    13.7598  13.7598  13.7598  13.7598  13.8602  13.8602  13.8602  13.8602
    13.8716  13.8716  13.9528  13.9528  13.9583  13.9583  14.0258  14.0258
    14.0258  14.0258  14.0840  14.0840  14.2740  14.2740  14.2740  14.2740
    14.3830  14.3830  14.3830  14.3830  14.4470  14.4470  14.5575  14.5575
    14.6824  14.6824  14.7088  14.7088  14.7089  14.7089  14.7135  14.7135
    14.7135  14.7135  14.7733  14.7733  14.7733  14.7733  14.8314  14.8314
    14.8314  14.8314  14.8688  14.8688  14.8688  14.8688  15.0345  15.0346
    15.1646  15.1646  15.3111  15.3111  15.3570  15.3570  15.3838  15.3838
    15.3838  15.3838  15.3862  15.3862  15.3862  15.3862  15.6489  15.6489
    15.6489  15.6489  15.6545  15.6545  15.6545  15.6545  15.6711  15.6711
    15.6711  15.6711  15.6744  15.6744  15.6983  15.6983  15.6983  15.6983
    15.8339  15.8339  15.9779  15.9779  15.9779  15.9779  16.3661  16.3661
    16.6965  16.6965  16.6965  16.6965  17.3399  17.3399  17.9138  17.9138
    17.9138  17.9138  19.2164  19.2164  19.8975  19.8975  19.8975  19.8975
    20.6377  20.6377  20.6377  20.6377  21.4050  21.4050  21.4051  21.4051
    22.3627  22.3627  23.1675  23.1675  23.1675  23.1675  23.6252  23.6252
    23.6252  23.6252  24.7015  24.7015  24.7015  24.7015  25.2004  25.2004
    25.3028  25.3028  25.3028  25.3028  26.1100  26.1100  26.1100  26.1100
    26.5999  26.5999

          k = 0.1545 0.2575 0.2575 ( 37843 PWs)   bands (ev):

   -67.8239 -67.8164 -67.8164 -67.8132 -67.8107 -67.8085 -67.8085 -67.8057
   -67.8054 -67.8031 -67.8031 -67.8027 -67.8027 -67.8020 -67.8009 -67.8009
   -67.8009 -67.8009 -67.8002 -67.8002 -67.7981 -67.7981 -67.7971 -67.7956
   -67.7955 -67.7955 -67.7955 -67.7953 -67.7953 -67.7949 -67.7949 -67.7946
   -33.6273 -33.6273 -33.6234 -33.6143 -33.6130 -33.6129 -33.6089 -33.5993
   -33.5993 -33.5964 -33.5964 -33.5919 -33.5919 -33.5893 -33.5893 -33.5890
   -33.5890 -33.5881 -33.5881 -33.5875 -33.5861 -33.5861 -33.5739 -33.5739
   -33.5650 -33.5650 -33.5649 -33.5447 -33.5438 -33.5438 -33.5428 -33.5412
   -33.5412 -33.5350 -33.5350 -33.5230 -33.5230 -33.5229 -33.5164 -33.5077
   -33.5077 -33.5056 -33.5056 -33.5046 -33.5046 -33.4994 -33.4994 -33.4946
   -33.4946 -33.4946 -33.4920 -33.4920 -33.4905 -33.4905 -33.4897 -33.4897
   -33.4872 -33.4871 -33.4818 -33.4818 -33.4743 -33.4743 -33.4724 -33.4715
   -33.4715 -33.4688 -33.4677 -33.4660 -33.4660 -33.4650 -33.4646 -33.4646
   -33.4639 -33.4639 -33.4633 -33.4622 -33.4622 -33.4572 -33.4572 -33.4563
   -33.4563 -33.4562 -33.4481 -33.4476 -33.4468 -33.4451 -33.4446 -33.4433
   -33.4433 -33.4384 -33.4384 -33.4364 -33.4364 -33.4342 -33.4235 -33.4206
    10.3808  11.3707  11.3707  11.7344  11.7869  11.9508  11.9509  11.9530
    11.9722  12.0266  12.0266  12.0344  12.0974  12.0974  12.1615  12.1615
    12.1984  12.2386  12.2386  12.2598  12.4238  12.4238  12.4304  12.4304
    12.4682  12.4682  12.5367  12.5367  12.5565  12.5565  12.5607  12.5607
    12.5853  12.6183  12.6184  12.6477  12.6477  12.7376  12.7376  12.7645
    12.7769  12.7769  12.9294  12.9294  13.1250  13.1347  13.1347  13.1866
    13.1875  13.1875  13.1989  13.1989  13.2429  13.2429  13.3251  13.3966
    13.3966  13.4553  13.4553  13.4676  13.4676  13.5237  13.5618  13.5649
    13.5649  13.5895  13.5895  13.6768  13.6768  13.6884  13.6884  13.7387
    13.7715  13.7925  13.8218  13.8376  13.8439  13.8439  13.8812  13.9045
    13.9158  13.9158  13.9278  13.9278  13.9348  13.9348  13.9598  14.0048
    14.0048  14.0338  14.0338  14.0745  14.1056  14.1056  14.1761  14.1761
    14.1932  14.2395  14.4038  14.4038  14.4260  14.4260  14.4461  14.4461
    14.5000  14.5000  14.6496  14.6568  14.6729  14.7115  14.7115  14.7185
    14.7333  14.7333  14.7457  14.7457  14.8307  14.8828  14.8828  14.9242
    14.9346  14.9346  14.9596  14.9596  15.0051  15.0292  15.0292  15.0793
    15.0793  15.2138  15.2218  15.2218  15.2236  15.2653  15.2653  15.3342
    15.3987  15.3987  15.4271  15.4271  15.4881  15.5052  15.5052  15.5064
    15.5232  15.5232  15.5467  15.5467  15.6416  15.6637  15.6642  15.6642
[...]
    17.6640  17.6640  17.6640  17.6640  18.6688  18.6688  18.6688  18.6688
    18.6688  18.6689  18.6689  18.6689  19.8156  19.8156  19.8156  19.8156
    19.8156  19.8156  19.8156  19.8156  20.8462  20.8462  20.8462  20.8462
    22.9322  22.9322  22.9322  22.9322  22.9322  22.9322  22.9322  22.9322
    23.4953  23.4953  23.4953  23.4953  24.9742  24.9742  24.9742  24.9742
    25.5765  25.5765  25.5765  25.5765  25.5765  25.5765  25.5765  25.5765
    26.9927  26.9927

          k = 0.3604 0.3604 0.3604 ( 37911 PWs)   bands (ev):

   -67.8193 -67.8159 -67.8159 -67.8159 -67.8130 -67.8130 -67.8130 -67.8107
   -67.8002 -67.8002 -67.8001 -67.7997 -67.7997 -67.7997 -67.7996 -67.7996
   -67.7996 -67.7996 -67.7996 -67.7996 -67.7973 -67.7973 -67.7973 -67.7968
   -67.7968 -67.7968 -67.7968 -67.7968 -67.7968 -67.7968 -67.7968 -67.7967
   -33.6115 -33.6115 -33.6115 -33.6039 -33.6039 -33.6039 -33.6021 -33.6021
   -33.6021 -33.6001 -33.6001 -33.6001 -33.6001 -33.6001 -33.6001 -33.5999
   -33.5999 -33.5999 -33.5999 -33.5999 -33.5999 -33.5933 -33.5933 -33.5933
   -33.5667 -33.5420 -33.5420 -33.5420 -33.5218 -33.5218 -33.5218 -33.5218
   -33.5218 -33.5218 -33.5198 -33.5198 -33.5198 -33.5168 -33.5168 -33.5168
   -33.5151 -33.5151 -33.5151 -33.4982 -33.4982 -33.4982 -33.4982 -33.4982
   -33.4982 -33.4944 -33.4944 -33.4944 -33.4918 -33.4918 -33.4917 -33.4904
   -33.4845 -33.4845 -33.4845 -33.4804 -33.4804 -33.4803 -33.4803 -33.4803
   -33.4803 -33.4762 -33.4762 -33.4762 -33.4728 -33.4728 -33.4728 -33.4715
   -33.4715 -33.4715 -33.4715 -33.4715 -33.4715 -33.4669 -33.4669 -33.4669
   -33.4428 -33.4428 -33.4428 -33.4388 -33.4388 -33.4362 -33.4362 -33.4362
   -33.4329 -33.4329 -33.4329 -33.4318 -33.4318 -33.4318 -33.4277 -33.4277
    10.9816  11.3832  11.3832  11.3832  11.6415  11.6416  11.6416  11.7121
    12.1813  12.1813  12.1813  12.2718  12.2718  12.2718  12.2731  12.2731
    12.2731  12.3500  12.3500  12.3500  12.3500  12.3500  12.3500  12.3574
    12.3574  12.3574  12.3574  12.3574  12.3574  12.3920  12.3920  12.3920
    12.5619  12.5619  12.5619  12.7917  12.7917  12.7917  12.8483  12.8483
    12.8483  12.8483  12.8483  12.8483  13.0703  13.0703  13.0703  13.0818
    13.0818  13.0818  13.0818  13.0818  13.0818  13.2542  13.2542  13.2542
    13.4902  13.4902  13.4902  13.5199  13.6794  13.6794  13.6794  13.8617
    13.8617  13.8865  13.8865  13.8865  13.8865  13.8865  13.8865  13.9227
    13.9227  13.9396  13.9396  13.9396  13.9525  13.9525  13.9525  13.9535
    13.9535  13.9535  13.9840  13.9840  13.9840  14.0244  14.0244  14.0244
    14.0809  14.0809  14.0809  14.0809  14.0809  14.0809  14.0851  14.0851
    14.0851  14.1624  14.1624  14.1624  14.2379  14.2941  14.2941  14.2941
    14.5172  14.5172  14.5172  14.5780  14.5780  14.5780  14.5787  14.5787
    14.5787  14.5787  14.5787  14.5787  14.7396  14.7396  14.7396  14.8548
    14.8548  14.8548  14.8548  14.8548  14.8548  14.8957  14.8957  14.8957
    14.9114  14.9114  14.9461  14.9461  14.9461  15.0424  15.0424  15.0424
    15.1461  15.1461  15.1461  15.2722  15.2722  15.3801  15.3801  15.3801
    15.8019  15.8019  15.8019  15.8336  15.8336  15.8336  15.8336  15.8336
    15.8336  15.8609  15.8609  15.8609  15.8609  15.8609  15.8609  15.8833
    15.8833  15.8833  15.8885  15.8885  15.8885  15.9347  15.9347  15.9347
    17.8334  17.8334  17.8334  18.5037  18.5037  18.5037  18.5037  18.5037
    18.5037  18.9020  18.9020  18.9021  19.3271  19.3271  19.3271  20.0936
    20.0936  20.0936  20.0936  20.0936  20.0936  20.5678  20.5678  20.5678
    22.5912  22.5912  22.5912  23.2453  23.2453  23.2453  23.8399  23.8399
    23.8399  23.8399  23.8399  23.8399  24.5830  24.5830  24.5830  24.5830
    24.5830  24.5830  25.1308  25.1308  25.1308  25.9289  25.9289  25.9289
    27.0221  27.7926

          k = 0.3604 0.3604-0.4634 ( 37954 PWs)   bands (ev):

   -67.8177 -67.8177 -67.8146 -67.8146 -67.8146 -67.8146 -67.8119 -67.8119
   -67.7999 -67.7999 -67.7999 -67.7999 -67.7996 -67.7996 -67.7996 -67.7996
   -67.7984 -67.7984 -67.7983 -67.7983 -67.7981 -67.7981 -67.7981 -67.7981
   -67.7970 -67.7970 -67.7970 -67.7970 -67.7968 -67.7968 -67.7968 -67.7968
   -33.6089 -33.6089 -33.6061 -33.6061 -33.6061 -33.6061 -33.6019 -33.6019
   -33.6019 -33.6019 -33.6010 -33.6010 -33.6010 -33.6010 -33.6010 -33.6010
   -33.6010 -33.6010 -33.5985 -33.5985 -33.5968 -33.5968 -33.5968 -33.5968
   -33.5544 -33.5544 -33.5293 -33.5293 -33.5293 -33.5293 -33.5212 -33.5212
   -33.5212 -33.5212 -33.5187 -33.5187 -33.5187 -33.5187 -33.5101 -33.5101
   -33.5101 -33.5100 -33.5054 -33.5054 -33.5053 -33.5053 -33.5033 -33.5033
   -33.4959 -33.4959 -33.4959 -33.4959 -33.4945 -33.4945 -33.4945 -33.4945
   -33.4823 -33.4823 -33.4823 -33.4823 -33.4808 -33.4808 -33.4765 -33.4765
   -33.4764 -33.4764 -33.4764 -33.4764 -33.4764 -33.4764 -33.4739 -33.4739
   -33.4739 -33.4739 -33.4701 -33.4701 -33.4694 -33.4694 -33.4694 -33.4694
   -33.4399 -33.4399 -33.4385 -33.4385 -33.4385 -33.4385 -33.4356 -33.4356
   -33.4320 -33.4320 -33.4320 -33.4320 -33.4316 -33.4316 -33.4288 -33.4288
    11.1679  11.1679  11.5050  11.5050  11.5050  11.5050  11.6705  11.6705
    12.2310  12.2310  12.2530  12.2530  12.2530  12.2530  12.3060  12.3060
    12.3060  12.3060  12.3083  12.3083  12.3083  12.3083  12.3432  12.3432
    12.3627  12.3627  12.3627  12.3627  12.3636  12.3636  12.3636  12.3636
    12.6653  12.6653  12.7055  12.7055  12.7055  12.7055  12.9441  12.9441
    12.9441  12.9441  12.9510  12.9511  12.9511  12.9511  12.9675  12.9675
    12.9675  12.9675  13.1505  13.1505  13.1836  13.1836  13.1836  13.1836
    13.5187  13.5187  13.5949  13.5949  13.5949  13.5949  13.8655  13.8655
    13.8957  13.8957  13.9391  13.9391  13.9391  13.9391  13.9407  13.9407
    13.9454  13.9454  13.9617  13.9617  13.9617  13.9617  13.9748  13.9748
    13.9748  13.9748  13.9803  13.9803  13.9803  13.9803  13.9906  13.9906
    14.0165  14.0165  14.0165  14.0165  14.0469  14.0469  14.0557  14.0557
    14.0557  14.0557  14.3043  14.3043  14.3043  14.3043  14.3454  14.3454
    14.4176  14.4176  14.4176  14.4176  14.4326  14.4326  14.6449  14.6449
    14.6449  14.6449  14.7014  14.7014  14.7014  14.7014  14.7198  14.7198
    14.7198  14.7198  14.8765  14.8765  14.8924  14.8924  14.9353  14.9353
    14.9353  14.9353  14.9402  14.9402  14.9402  14.9402  15.0228  15.0228
    15.1105  15.1105  15.2220  15.2220  15.2220  15.2220  15.3097  15.3097
    15.8428  15.8428  15.8428  15.8428  15.8562  15.8562  15.8605  15.8605
    15.8605  15.8605  15.8793  15.8793  15.8793  15.8793  15.8811  15.8811
    15.8811  15.8811  15.9062  15.9062  15.9062  15.9062  15.9241  15.9241
    18.1480  18.1480  18.1480  18.1481  18.5623  18.5623  18.6900  18.6900
    18.6900  18.6900  19.2772  19.2772  19.2772  19.2772  19.6949  19.6949
    19.6949  19.6949  19.7229  19.7229  20.3441  20.3441  20.3441  20.3441
    22.8812  22.8812  23.1509  23.1509  23.1509  23.1509  23.8718  23.8718
    23.8718  23.8718  24.1813  24.1813  24.1813  24.1813  24.4604  24.4604
    24.4604  24.4604  25.2303  25.2303  25.2303  25.2303  25.5005  25.5005
    27.7052  27.7054

          k = 0.3604-0.4634-0.4634 ( 37916 PWs)   bands (ev):

   -67.8163 -67.8163 -67.8163 -67.8163 -67.8134 -67.8134 -67.8134 -67.8134
   -67.7998 -67.7998 -67.7998 -67.7998 -67.7982 -67.7982 -67.7982 -67.7982
   -67.7982 -67.7982 -67.7982 -67.7982 -67.7982 -67.7982 -67.7982 -67.7982
   -67.7982 -67.7982 -67.7982 -67.7981 -67.7969 -67.7969 -67.7969 -67.7969
   -33.6051 -33.6051 -33.6051 -33.6051 -33.6051 -33.6051 -33.6051 -33.6051
   -33.6016 -33.6016 -33.6016 -33.6016 -33.6014 -33.6014 -33.6014 -33.6014
   -33.5998 -33.5998 -33.5998 -33.5998 -33.5998 -33.5998 -33.5998 -33.5998
   -33.5418 -33.5418 -33.5418 -33.5418 -33.5203 -33.5203 -33.5203 -33.5203
   -33.5161 -33.5161 -33.5161 -33.5161 -33.5077 -33.5077 -33.5077 -33.5077
   -33.5077 -33.5077 -33.5077 -33.5077 -33.5076 -33.5076 -33.5076 -33.5076
   -33.5076 -33.5076 -33.5076 -33.5076 -33.4948 -33.4948 -33.4948 -33.4948
   -33.4791 -33.4791 -33.4791 -33.4791 -33.4784 -33.4784 -33.4784 -33.4784
   -33.4784 -33.4784 -33.4784 -33.4784 -33.4733 -33.4733 -33.4733 -33.4733
   -33.4733 -33.4733 -33.4733 -33.4732 -33.4718 -33.4718 -33.4718 -33.4718
   -33.4373 -33.4373 -33.4372 -33.4372 -33.4345 -33.4345 -33.4345 -33.4344
   -33.4341 -33.4341 -33.4341 -33.4341 -33.4299 -33.4299 -33.4299 -33.4299
    11.3256  11.3256  11.3256  11.3256  11.5819  11.5819  11.5819  11.5819
    12.2864  12.2864  12.2864  12.2864  12.2864  12.2864  12.2864  12.2864
    12.2968  12.2968  12.2968  12.2968  12.2996  12.2996  12.2997  12.2997
    12.3466  12.3466  12.3466  12.3466  12.3466  12.3466  12.3466  12.3466
    12.8118  12.8118  12.8118  12.8118  12.8118  12.8118  12.8118  12.8118
    12.8418  12.8418  12.8418  12.8418  13.0628  13.0628  13.0628  13.0628
    13.0628  13.0628  13.0628  13.0629  13.0795  13.0796  13.0796  13.0796
    13.5699  13.5699  13.5699  13.5699  13.7751  13.7751  13.7751  13.7751
    13.9181  13.9181  13.9181  13.9181  13.9230  13.9230  13.9230  13.9230
    13.9413  13.9413  13.9413  13.9413  13.9430  13.9430  13.9430  13.9430
    13.9884  13.9884  13.9884  13.9884  14.0094  14.0094  14.0094  14.0094
    14.0094  14.0094  14.0094  14.0094  14.1621  14.1621  14.1621  14.1621
    14.1621  14.1621  14.1621  14.1621  14.1894  14.1894  14.1894  14.1894
    14.5079  14.5079  14.5079  14.5079  14.5578  14.5578  14.5578  14.5578
    14.5578  14.5578  14.5578  14.5578  14.7941  14.7941  14.7941  14.7941
    14.7941  14.7942  14.7942  14.7942  14.8034  14.8034  14.8034  14.8034
    14.9084  14.9084  14.9084  14.9084  15.0673  15.0673  15.0673  15.0673
    15.0881  15.0881  15.0881  15.0881  15.1978  15.1978  15.1978  15.1978
    15.8757  15.8757  15.8757  15.8757  15.8757  15.8757  15.8757  15.8757
    15.8853  15.8853  15.8853  15.8853  15.9024  15.9024  15.9024  15.9025
    15.9059  15.9059  15.9059  15.9059  15.9059  15.9059  15.9059  15.9059
    18.3985  18.3985  18.3985  18.3985  18.9025  18.9025  18.9025  18.9025
    18.9025  18.9025  18.9025  18.9025  19.4974  19.4974  19.4974  19.4974
    19.4974  19.4974  19.4974  19.4974  20.0098  20.0098  20.0098  20.0098
    23.4809  23.4809  23.4809  23.4809  23.4809  23.4809  23.4809  23.4809
    23.7682  23.7682  23.7682  23.7682  24.5187  24.5187  24.5187  24.5187
    24.8149  24.8149  24.8149  24.8149  24.8149  24.8149  24.8149  24.8149
    28.0370  28.0370

          k =-0.4634-0.4634-0.4634 ( 37752 PWs)   bands (ev):

   -67.8150 -67.8150 -67.8150 -67.8150 -67.8150 -67.8150 -67.8150 -67.8149
   -67.7982 -67.7982 -67.7982 -67.7982 -67.7982 -67.7982 -67.7982 -67.7982
   -67.7982 -67.7982 -67.7982 -67.7982 -67.7982 -67.7982 -67.7982 -67.7982
   -67.7982 -67.7982 -67.7982 -67.7982 -67.7982 -67.7982 -67.7982 -67.7981
   -33.6024 -33.6024 -33.6024 -33.6024 -33.6024 -33.6024 -33.6024 -33.6024
   -33.6024 -33.6024 -33.6024 -33.6024 -33.6024 -33.6024 -33.6024 -33.6024
   -33.6024 -33.6024 -33.6024 -33.6024 -33.6024 -33.6024 -33.6024 -33.6024
   -33.5288 -33.5288 -33.5288 -33.5288 -33.5288 -33.5288 -33.5288 -33.5288
   -33.5076 -33.5076 -33.5076 -33.5076 -33.5076 -33.5076 -33.5076 -33.5076
   -33.5076 -33.5076 -33.5076 -33.5076 -33.5076 -33.5076 -33.5076 -33.5076
   -33.5076 -33.5076 -33.5076 -33.5076 -33.5076 -33.5075 -33.5075 -33.5075
   -33.4758 -33.4758 -33.4758 -33.4757 -33.4757 -33.4757 -33.4757 -33.4757
   -33.4757 -33.4757 -33.4757 -33.4757 -33.4757 -33.4757 -33.4757 -33.4757
   -33.4757 -33.4757 -33.4757 -33.4757 -33.4757 -33.4757 -33.4757 -33.4757
   -33.4332 -33.4332 -33.4332 -33.4332 -33.4332 -33.4332 -33.4332 -33.4332
   -33.4332 -33.4332 -33.4332 -33.4332 -33.4332 -33.4332 -33.4332 -33.4332
    11.4461  11.4461  11.4462  11.4462  11.4462  11.4462  11.4462  11.4462
    12.3075  12.3075  12.3075  12.3075  12.3075  12.3075  12.3075  12.3075
    12.3075  12.3075  12.3075  12.3075  12.3075  12.3075  12.3075  12.3075
    12.3075  12.3075  12.3075  12.3075  12.3075  12.3075  12.3075  12.3075
    12.9472  12.9472  12.9472  12.9472  12.9472  12.9472  12.9472  12.9472
    12.9472  12.9472  12.9472  12.9472  12.9472  12.9472  12.9472  12.9472
    12.9472  12.9472  12.9472  12.9472  12.9472  12.9472  12.9472  12.9473
    13.6878  13.6878  13.6878  13.6878  13.6878  13.6878  13.6878  13.6878
    13.9236  13.9236  13.9236  13.9236  13.9236  13.9236  13.9236  13.9236
    13.9236  13.9236  13.9236  13.9236  13.9236  13.9236  13.9236  13.9236
    14.0876  14.0876  14.0876  14.0876  14.0876  14.0876  14.0876  14.0876
    14.0876  14.0876  14.0876  14.0876  14.0876  14.0876  14.0876  14.0876
    14.0876  14.0876  14.0876  14.0876  14.0876  14.0876  14.0876  14.0876
    14.6544  14.6544  14.6544  14.6544  14.6544  14.6544  14.6544  14.6544
    14.6544  14.6544  14.6544  14.6544  14.6544  14.6544  14.6544  14.6544
    14.6544  14.6544  14.6544  14.6544  14.6544  14.6544  14.6544  14.6544
    15.0504  15.0504  15.0504  15.0504  15.0504  15.0504  15.0504  15.0504
    15.0504  15.0504  15.0504  15.0504  15.0504  15.0504  15.0504  15.0504
    15.9075  15.9075  15.9075  15.9075  15.9075  15.9075  15.9075  15.9075
    15.9075  15.9075  15.9075  15.9075  15.9075  15.9075  15.9075  15.9075
    15.9075  15.9075  15.9075  15.9075  15.9075  15.9075  15.9075  15.9075
    19.1853  19.1853  19.1853  19.1853  19.1853  19.1853  19.1853  19.1853
    19.1853  19.1853  19.1853  19.1853  19.1853  19.1853  19.1853  19.1853
    19.1853  19.1853  19.1853  19.1853  19.1853  19.1853  19.1853  19.1853
    24.1131  24.1131  24.1131  24.1131  24.1131  24.1131  24.1131  24.1131
    24.1131  24.1131  24.1131  24.1131  24.1131  24.1131  24.1131  24.1131
    24.1131  24.1131  24.1131  24.1131  24.1131  24.1131  24.1131  24.1131
    29.0381  29.0381

     the Fermi energy is    15.9592 ev

!    total energy              =  -16384.68260476 Ry

     total all-electron energy =   -322945.536312 Ry
     estimated scf accuracy    <       0.00000019 Ry
     smearing contrib. (-TS)   =       0.09090191 Ry
     internal energy E=F+TS    =  -16384.77350667 Ry

     The total energy is F=E-TS. E is the sum of the following terms:
     one-electron contribution =   -2938.12470837 Ry
     hartree contribution      =    1823.56506051 Ry
     xc contribution           =    -983.81621170 Ry
     ewald contribution        =   -6119.11348038 Ry
     one-center paw contrib.   =   -8167.28416673 Ry

     convergence has been achieved in  13 iterations

     Forces acting on atoms (cartesian axes, Ry/au):

     atom    1 type  1   force =     0.00000000    0.00000000    0.00000000
     atom    2 type  1   force =     0.00000125    0.00000125    0.00000000
     atom    3 type  1   force =     0.00000125   -0.00000000    0.00000125
     atom    4 type  1   force =     0.00000000    0.00000125    0.00000125
     atom    5 type  1   force =     0.00000000    0.00000000    0.00000000
     atom    6 type  1   force =     0.00002350    0.00002350    0.00000000
     atom    7 type  1   force =     0.00000125    0.00000000   -0.00000125
     atom    8 type  1   force =     0.00000000    0.00000125   -0.00000125
     atom    9 type  1   force =     0.00000000    0.00000000    0.00000000
     atom   10 type  1   force =     0.00000125   -0.00000125   -0.00000000
     atom   11 type  1   force =     0.00002350    0.00000000    0.00002350
     atom   12 type  1   force =     0.00000000   -0.00000125    0.00000125
     atom   13 type  1   force =     0.00000000    0.00000000    0.00000000
     atom   14 type  1   force =     0.00002350   -0.00002350   -0.00000000
     atom   15 type  1   force =     0.00002350    0.00000000   -0.00002350
     atom   16 type  1   force =     0.00000000   -0.00000125   -0.00000125
     atom   17 type  1   force =     0.00000000    0.00000000    0.00000000
     atom   18 type  1   force =    -0.00000125    0.00000125    0.00000000
     atom   19 type  1   force =    -0.00000125   -0.00000000    0.00000125
     atom   20 type  1   force =     0.00000000    0.00002350    0.00002350
     atom   21 type  1   force =     0.00000000    0.00000000    0.00000000
     atom   22 type  1   force =    -0.00002350    0.00002350   -0.00000000
     atom   23 type  1   force =    -0.00000125   -0.00000000   -0.00000125
     atom   24 type  1   force =     0.00000000    0.00002350   -0.00002350
     atom   25 type  1   force =     0.00000000    0.00000000    0.00000000
     atom   26 type  1   force =    -0.00000125   -0.00000125    0.00000000
     atom   27 type  1   force =    -0.00002350    0.00000000    0.00002350
     atom   28 type  1   force =    -0.00000000   -0.00002350    0.00002350
     atom   29 type  1   force =     0.00000000    0.00000000    0.00000000
     atom   30 type  1   force =    -0.00002350   -0.00002350    0.00000000
     atom   31 type  1   force =    -0.00002350   -0.00000000   -0.00002350
     atom   32 type  1   force =    -0.00000000   -0.00002350   -0.00002350

     Total force =     0.000115     Total SCF correction =     0.000445
     SCF correction compared to forces is large: reduce conv_thr to get better values


     Computing stress (Cartesian axis) and pressure

          total   stress  (Ry/bohr**3)                   (kbar)     P=     -169.43
  -0.00115175   0.00000000   0.00000000         -169.43        0.00        0.00
   0.00000000  -0.00115175   0.00000000            0.00     -169.43        0.00
   0.00000000   0.00000000  -0.00115175            0.00        0.00     -169.43


     Writing output data file /scratch/cEQChaLuwvbTXvoS.save/
 
     init_run     :     15.75s CPU     16.13s WALL (       1 calls)
     electrons    :    664.72s CPU    673.02s WALL (       1 calls)
     forces       :      6.16s CPU      6.23s WALL (       1 calls)
     stress       :     49.85s CPU     50.22s WALL (       1 calls)

     Called by init_run:
     wfcinit      :     15.16s CPU     15.45s WALL (       1 calls)
     potinit      :      0.15s CPU      0.16s WALL (       1 calls)
     hinit0       :      0.09s CPU      0.10s WALL (       1 calls)

     Called by electrons:
     c_bands      :    587.56s CPU    594.29s WALL (      14 calls)
     sum_band     :     75.40s CPU     76.66s WALL (      14 calls)
     v_of_rho     :      0.23s CPU      0.26s WALL (      14 calls)
     newd         :      0.36s CPU      0.54s WALL (      14 calls)
     PAW_pot      :      1.15s CPU      1.22s WALL (      14 calls)
     mix_rho      :      0.07s CPU      0.09s WALL (      14 calls)

     Called by c_bands:
     init_us_2    :      2.67s CPU      2.72s WALL (    1085 calls)
     cegterg      :    577.63s CPU    584.17s WALL (     490 calls)

     Called by *egterg:
     cdiaghg      :     58.78s CPU     59.91s WALL (    1451 calls)
     h_psi        :    311.78s CPU    315.77s WALL (    1521 calls)
     s_psi        :     22.04s CPU     22.15s WALL (    1521 calls)
     g_psi        :      0.63s CPU      0.65s WALL (     996 calls)

     Called by h_psi:
     h_psi:calbec :     40.39s CPU     40.67s WALL (    1521 calls)
     vloc_psi     :    247.47s CPU    250.83s WALL (    1521 calls)
     add_vuspsi   :     22.27s CPU     22.59s WALL (    1521 calls)

     General routines
     calbec       :     62.89s CPU     63.29s WALL (    2186 calls)
     fft          :      0.26s CPU      0.29s WALL (     206 calls)
     ffts         :      0.02s CPU      0.02s WALL (      28 calls)
     fftw         :    292.10s CPU    296.21s WALL (  961566 calls)
     interpolate  :      0.03s CPU      0.04s WALL (      14 calls)
 
     Parallel routines
     fft_scatt_xy :     22.66s CPU     22.96s WALL (  961800 calls)
     fft_scatt_yz :    223.10s CPU    226.36s WALL (  961800 calls)
 
     PWSCF        :  12m28.01s CPU  12m39.48s WALL

 
   This run was terminated on:  19:57: 0  26Nov2021            

=------------------------------------------------------------------------------=
   JOB DONE.
=------------------------------------------------------------------------------=
