
     Program PWSCF v.6.7MaX starts on 27Nov2021 at  0:50:20 

     This program is part of the open-source Quantum ESPRESSO suite
     for quantum simulation of materials; please cite
         "P. Giannozzi et al., J. Phys.:Condens. Matter 21 395502 (2009);
         "P. Giannozzi et al., J. Phys.:Condens. Matter 29 465901 (2017);
          URL http://www.quantum-espresso.org", 
     in publications or presentations arising from this work. More details at
     http://www.quantum-espresso.org/quote

     Parallel version (MPI & OpenMP), running on      72 processor cores
     Number of MPI processes:                72
     Threads/MPI process:                     1

     MPI processes distributed on     1 nodes
     R & G space division:  proc/nbgrp/npool/nimage =      72
     Reading input from fcc_16.in
Warning: card &CELL ignored
Warning: card CELL_DYNAMICS = 'BFGS', ignored
Warning: card CELL_FACTOR = 2.0, ignored
Warning: card PRESS = 0.0, ignored
Warning: card / ignored

     Current dimensions of program PWSCF are:
     Max number of different atomic species (ntypx) = 10
     Max number of k-points (npk) =  40000
     Max angular momentum in pseudopotentials (lmaxx) =  3
     file Pd.pbe-spn-kjpaw_psl.1.0.0.UPF: wavefunction(s)  4S 5S 4D renormalized

     Subspace diagonalization in iterative solution of the eigenvalue problem:
     one sub-group per band group will be used
     ELPA distributed-memory algorithm (size of sub-group:  8*  8 procs)

     Found symmetry operation: I + (  0.2500  0.2500  0.0000)
     This is a supercell, fractional translations are disabled
     Message from routine setup:
     using ibrav=0 with symmetry is DISCOURAGED, use correct ibrav instead
 
     Parallelization info
     --------------------
     sticks:   dense  smooth     PW     G-vecs:    dense   smooth      PW
     Min         297     196     51                32722    17552    2365
     Max         299     197     52                32728    17558    2374
     Sum       21409   14121   3713              2356157  1263983  170589
 


     bravais-lattice index     =            0
     lattice parameter (alat)  =      14.4000  a.u.
     unit-cell volume          =   15644.7452 (a.u.)^3
     number of atoms/cell      =           32
     number of atomic types    =            1
     number of electrons       =       576.00
     number of Kohn-Sham states=          346
     kinetic-energy cutoff     =      71.0000  Ry
     charge density cutoff     =     430.0000  Ry
     scf convergence threshold =      1.0E-06
     mixing beta               =       0.1000
     number of iterations used =           10  TF        mixing
     Exchange-correlation= SLA  PW   PBX  PBC
                           (   1   4   3   4   0   0   0)

     celldm(1)=  14.400000  celldm(2)=   0.000000  celldm(3)=   0.000000
     celldm(4)=   0.000000  celldm(5)=   0.000000  celldm(6)=   0.000000

     crystal axes: (cart. coord. in units of alat)
               a(1) = (   1.736842   0.000000   0.000000 )  
               a(2) = (   0.000000   1.736842   0.000000 )  
               a(3) = (   0.000000   0.000000   1.736842 )  

     reciprocal axes: (cart. coord. in units 2 pi/alat)
               b(1) = (  0.575758  0.000000  0.000000 )  
               b(2) = (  0.000000  0.575758  0.000000 )  
               b(3) = (  0.000000  0.000000  0.575758 )  


     PseudoPot. # 1 for Pd read from file:
     /rds/homes/b/bxp912/pp/Pd.pbe-spn-kjpaw_psl.1.0.0.UPF
     MD5 check sum: 790f2ebce206edfd9790dcb9844eca51
     Pseudo is Projector augmented-wave + core cor, Zval = 18.0
     Generated using &quot;atomic&quot; code by A. Dal Corso  v.6.3
     Shape of augmentation charge: PSQ
     Using radial grid of 1235 points,  6 beta functions with: 
                l(1) =   0
                l(2) =   0
                l(3) =   1
                l(4) =   1
                l(5) =   2
                l(6) =   2
     Q(r) pseudized with 0 coefficients 


     atomic species   valence    mass     pseudopotential
        Pd            18.00   106.42000     Pd( 1.00)

     48 Sym. Ops., with inversion, found



   Cartesian axes

     site n.     atom                  positions (alat units)
         1           Pd  tau(   1) = (   0.0000000   0.0000000   0.0000000  )
         2           Pd  tau(   2) = (   0.4342105   0.4342105   0.0000000  )
         3           Pd  tau(   3) = (   0.4342105   0.0000000   0.4342105  )
         4           Pd  tau(   4) = (   0.0000000   0.4342105   0.4342105  )
         5           Pd  tau(   5) = (   0.0000000   0.0000000   0.8684211  )
         6           Pd  tau(   6) = (   0.4342105   0.4342105   0.8684211  )
         7           Pd  tau(   7) = (   0.4342105   0.0000000   1.3026316  )
         8           Pd  tau(   8) = (   0.0000000   0.4342105   1.3026316  )
         9           Pd  tau(   9) = (   0.0000000   0.8684211   0.0000000  )
        10           Pd  tau(  10) = (   0.4342105   1.3026316   0.0000000  )
        11           Pd  tau(  11) = (   0.4342105   0.8684211   0.4342105  )
        12           Pd  tau(  12) = (   0.0000000   1.3026316   0.4342105  )
        13           Pd  tau(  13) = (   0.0000000   0.8684211   0.8684211  )
        14           Pd  tau(  14) = (   0.4342105   1.3026316   0.8684211  )
        15           Pd  tau(  15) = (   0.4342105   0.8684211   1.3026316  )
        16           Pd  tau(  16) = (   0.0000000   1.3026316   1.3026316  )
        17           Pd  tau(  17) = (   0.8684211   0.0000000   0.0000000  )
        18           Pd  tau(  18) = (   1.3026316   0.4342105   0.0000000  )
        19           Pd  tau(  19) = (   1.3026316   0.0000000   0.4342105  )
        20           Pd  tau(  20) = (   0.8684211   0.4342105   0.4342105  )
        21           Pd  tau(  21) = (   0.8684211   0.0000000   0.8684211  )
        22           Pd  tau(  22) = (   1.3026316   0.4342105   0.8684211  )
        23           Pd  tau(  23) = (   1.3026316   0.0000000   1.3026316  )
        24           Pd  tau(  24) = (   0.8684211   0.4342105   1.3026316  )
        25           Pd  tau(  25) = (   0.8684211   0.8684211   0.0000000  )
        26           Pd  tau(  26) = (   1.3026316   1.3026316   0.0000000  )
        27           Pd  tau(  27) = (   1.3026316   0.8684211   0.4342105  )
        28           Pd  tau(  28) = (   0.8684211   1.3026316   0.4342105  )
        29           Pd  tau(  29) = (   0.8684211   0.8684211   0.8684211  )
        30           Pd  tau(  30) = (   1.3026316   1.3026316   0.8684211  )
        31           Pd  tau(  31) = (   1.3026316   0.8684211   1.3026316  )
        32           Pd  tau(  32) = (   0.8684211   1.3026316   1.3026316  )

     number of k points=    35  Marzari-Vanderbilt smearing, width (Ry)=  0.0400
                       cart. coord. in units 2pi/alat
        k(    1) = (   0.0319865   0.0319865   0.0319865), wk =   0.0219479
        k(    2) = (   0.0319865   0.0319865   0.0959596), wk =   0.0658436
        k(    3) = (   0.0319865   0.0319865   0.1599327), wk =   0.0658436
        k(    4) = (   0.0319865   0.0319865   0.2239057), wk =   0.0658436
        k(    5) = (   0.0319865   0.0319865  -0.2878788), wk =   0.0329218
        k(    6) = (   0.0319865   0.0959596   0.0959596), wk =   0.0658436
        k(    7) = (   0.0319865   0.0959596   0.1599327), wk =   0.1316872
        k(    8) = (   0.0319865   0.0959596   0.2239057), wk =   0.1316872
        k(    9) = (   0.0319865   0.0959596  -0.2878788), wk =   0.0658436
        k(   10) = (   0.0319865   0.1599327   0.1599327), wk =   0.0658436
        k(   11) = (   0.0319865   0.1599327   0.2239057), wk =   0.1316872
        k(   12) = (   0.0319865   0.1599327  -0.2878788), wk =   0.0658436
        k(   13) = (   0.0319865   0.2239057   0.2239057), wk =   0.0658436
        k(   14) = (   0.0319865   0.2239057  -0.2878788), wk =   0.0658436
        k(   15) = (   0.0319865  -0.2878788  -0.2878788), wk =   0.0164609
        k(   16) = (   0.0959596   0.0959596   0.0959596), wk =   0.0219479
        k(   17) = (   0.0959596   0.0959596   0.1599327), wk =   0.0658436
        k(   18) = (   0.0959596   0.0959596   0.2239057), wk =   0.0658436
        k(   19) = (   0.0959596   0.0959596  -0.2878788), wk =   0.0329218
        k(   20) = (   0.0959596   0.1599327   0.1599327), wk =   0.0658436
        k(   21) = (   0.0959596   0.1599327   0.2239057), wk =   0.1316872
        k(   22) = (   0.0959596   0.1599327  -0.2878788), wk =   0.0658436
        k(   23) = (   0.0959596   0.2239057   0.2239057), wk =   0.0658436
        k(   24) = (   0.0959596   0.2239057  -0.2878788), wk =   0.0658436
        k(   25) = (   0.0959596  -0.2878788  -0.2878788), wk =   0.0164609
        k(   26) = (   0.1599327   0.1599327   0.1599327), wk =   0.0219479
        k(   27) = (   0.1599327   0.1599327   0.2239057), wk =   0.0658436
        k(   28) = (   0.1599327   0.1599327  -0.2878788), wk =   0.0329218
        k(   29) = (   0.1599327   0.2239057   0.2239057), wk =   0.0658436
        k(   30) = (   0.1599327   0.2239057  -0.2878788), wk =   0.0658436
        k(   31) = (   0.1599327  -0.2878788  -0.2878788), wk =   0.0164609
        k(   32) = (   0.2239057   0.2239057   0.2239057), wk =   0.0219479
        k(   33) = (   0.2239057   0.2239057  -0.2878788), wk =   0.0329218
        k(   34) = (   0.2239057  -0.2878788  -0.2878788), wk =   0.0164609
        k(   35) = (  -0.2878788  -0.2878788  -0.2878788), wk =   0.0027435

     Dense  grid:  2356157 G-vectors     FFT dimensions: ( 180, 180, 180)

     Smooth grid:  1263983 G-vectors     FFT dimensions: ( 135, 135, 135)

     Estimated max dynamical RAM per process >     600.50 MB

     Estimated total dynamical RAM >      42.22 GB

     Initial potential from superposition of free atoms

     starting charge  575.98776, renormalised to  576.00000
     Starting wfcs are  320 randomized atomic wfcs +   26 random wfcs
     Checking if some PAW data can be deallocated... 

     total cpu time spent up to now is       50.8 secs

     Self-consistent Calculation

     iteration #  1     ecut=    71.00 Ry     beta= 0.10
     Davidson diagonalization with overlap
     ethr =  1.00E-02,  avg # of iterations =  5.6

     total cpu time spent up to now is      191.4 secs

     total energy              =  -16381.36356270 Ry
     estimated scf accuracy    <      24.43208723 Ry

     iteration #  2     ecut=    71.00 Ry     beta= 0.10
     Davidson diagonalization with overlap
     ethr =  4.24E-03,  avg # of iterations =  1.0

     total cpu time spent up to now is      291.5 secs

     total energy              =  -16373.31162387 Ry
     estimated scf accuracy    <      18.26984993 Ry

     iteration #  3     ecut=    71.00 Ry     beta= 0.10
     Davidson diagonalization with overlap
     ethr =  3.17E-03,  avg # of iterations =  2.0

     total cpu time spent up to now is      433.2 secs

     total energy              =  -16376.57122326 Ry
     estimated scf accuracy    <       3.76478101 Ry

     iteration #  4     ecut=    71.00 Ry     beta= 0.10
     Davidson diagonalization with overlap
     ethr =  6.54E-04,  avg # of iterations =  4.1

     total cpu time spent up to now is      558.3 secs

     total energy              =  -16376.55534792 Ry
     estimated scf accuracy    <       1.78976881 Ry

     iteration #  5     ecut=    71.00 Ry     beta= 0.10
     Davidson diagonalization with overlap
     c_bands:  1 eigenvalues not converged
     ethr =  3.11E-04,  avg # of iterations =  4.1

     total cpu time spent up to now is      666.0 secs

     total energy              =  -16376.32708014 Ry
     estimated scf accuracy    <       0.77455894 Ry

     iteration #  6     ecut=    71.00 Ry     beta= 0.10
     Davidson diagonalization with overlap
     ethr =  1.34E-04,  avg # of iterations =  4.7

     total cpu time spent up to now is      827.0 secs

     total energy              =  -16377.04081816 Ry
     estimated scf accuracy    <      19.68221279 Ry

     iteration #  7     ecut=    71.00 Ry     beta= 0.10
     Davidson diagonalization with overlap
     c_bands:  2 eigenvalues not converged
     ethr =  1.34E-04,  avg # of iterations =  2.8

     total cpu time spent up to now is      941.4 secs

     total energy              =  -16376.85069850 Ry
     estimated scf accuracy    <       9.48938161 Ry

     iteration #  8     ecut=    71.00 Ry     beta= 0.10
     Davidson diagonalization with overlap
     ethr =  1.34E-04,  avg # of iterations =  1.1

     total cpu time spent up to now is     1034.8 secs

     total energy              =  -16376.97403228 Ry
     estimated scf accuracy    <       4.48414719 Ry

     iteration #  9     ecut=    71.00 Ry     beta= 0.10
     Davidson diagonalization with overlap
     ethr =  1.34E-04,  avg # of iterations =  1.2

     total cpu time spent up to now is     1131.9 secs

     total energy              =  -16376.88509821 Ry
     estimated scf accuracy    <       4.08933856 Ry

     iteration # 10     ecut=    71.00 Ry     beta= 0.10
     Davidson diagonalization with overlap
     ethr =  1.34E-04,  avg # of iterations =  1.6

     total cpu time spent up to now is     1233.0 secs

     total energy              =  -16376.84742639 Ry
     estimated scf accuracy    <       3.69427555 Ry

     iteration # 11     ecut=    71.00 Ry     beta= 0.10
     Davidson diagonalization with overlap
     ethr =  1.34E-04,  avg # of iterations =  1.0

     total cpu time spent up to now is     1324.7 secs

     total energy              =  -16377.24925421 Ry
     estimated scf accuracy    <       3.70272858 Ry

     iteration # 12     ecut=    71.00 Ry     beta= 0.10
     Davidson diagonalization with overlap
     ethr =  1.34E-04,  avg # of iterations =  1.7

     total cpu time spent up to now is     1421.3 secs

     total energy              =  -16375.60745876 Ry
     estimated scf accuracy    <       5.28517500 Ry

     iteration # 13     ecut=    71.00 Ry     beta= 0.10
     Davidson diagonalization with overlap
     ethr =  1.34E-04,  avg # of iterations =  2.6

     total cpu time spent up to now is     1556.2 secs

     total energy              =  -16376.19517139 Ry
     estimated scf accuracy    <       0.80567514 Ry

     iteration # 14     ecut=    71.00 Ry     beta= 0.10
     Davidson diagonalization with overlap
     ethr =  1.34E-04,  avg # of iterations =  2.0

     total cpu time spent up to now is     1669.1 secs

     total energy              =  -16376.45106010 Ry
     estimated scf accuracy    <       2.77934746 Ry

     iteration # 15     ecut=    71.00 Ry     beta= 0.10
     Davidson diagonalization with overlap
     ethr =  1.34E-04,  avg # of iterations =  2.1

     total cpu time spent up to now is     1784.3 secs

     total energy              =  -16376.19834080 Ry
     estimated scf accuracy    <      48.06901401 Ry

     iteration # 16     ecut=    71.00 Ry     beta= 0.10
     Davidson diagonalization with overlap
     ethr =  1.34E-04,  avg # of iterations =  2.0

     total cpu time spent up to now is     1895.4 secs

     total energy              =  -16376.34183111 Ry
     estimated scf accuracy    <       4.39790803 Ry

     iteration # 17     ecut=    71.00 Ry     beta= 0.10
     Davidson diagonalization with overlap
     ethr =  1.34E-04,  avg # of iterations =  1.1

     total cpu time spent up to now is     1987.0 secs

     total energy              =  -16376.19273343 Ry
     estimated scf accuracy    <       4.69024830 Ry

     iteration # 18     ecut=    71.00 Ry     beta= 0.10
     Davidson diagonalization with overlap
     ethr =  1.34E-04,  avg # of iterations =  1.3

     total cpu time spent up to now is     2083.3 secs

     total energy              =  -16376.24654158 Ry
     estimated scf accuracy    <       0.12427256 Ry

     iteration # 19     ecut=    71.00 Ry     beta= 0.10
     Davidson diagonalization with overlap
     c_bands:  1 eigenvalues not converged
     c_bands:  2 eigenvalues not converged
     ethr =  2.16E-05,  avg # of iterations =  4.7

     total cpu time spent up to now is     2200.5 secs

     total energy              =  -16376.10558177 Ry
     estimated scf accuracy    <       2.86990068 Ry

     iteration # 20     ecut=    71.00 Ry     beta= 0.10
     Davidson diagonalization with overlap
     c_bands:  2 eigenvalues not converged
     ethr =  2.16E-05,  avg # of iterations =  3.1

     total cpu time spent up to now is     2334.1 secs

     total energy              =  -16376.23707306 Ry
     estimated scf accuracy    <       0.68198566 Ry

     iteration # 21     ecut=    71.00 Ry     beta= 0.10
     Davidson diagonalization with overlap
     ethr =  2.16E-05,  avg # of iterations =  1.3

     total cpu time spent up to now is     2428.8 secs

     total energy              =  -16376.24468948 Ry
     estimated scf accuracy    <       0.46885391 Ry

     iteration # 22     ecut=    71.00 Ry     beta= 0.10
     Davidson diagonalization with overlap
     ethr =  2.16E-05,  avg # of iterations =  1.0

     total cpu time spent up to now is     2524.9 secs

     total energy              =  -16376.23842392 Ry
     estimated scf accuracy    <       0.55892679 Ry

     iteration # 23     ecut=    71.00 Ry     beta= 0.10
     Davidson diagonalization with overlap
     ethr =  2.16E-05,  avg # of iterations =  1.2

     total cpu time spent up to now is     2621.4 secs

     total energy              =  -16376.24037012 Ry
     estimated scf accuracy    <       0.31931137 Ry

     iteration # 24     ecut=    71.00 Ry     beta= 0.10
     Davidson diagonalization with overlap
     ethr =  2.16E-05,  avg # of iterations =  1.0

     total cpu time spent up to now is     2714.0 secs

     total energy              =  -16376.23913232 Ry
     estimated scf accuracy    <       0.42542916 Ry

     iteration # 25     ecut=    71.00 Ry     beta= 0.10
     Davidson diagonalization with overlap
     ethr =  2.16E-05,  avg # of iterations =  1.0

     total cpu time spent up to now is     2808.7 secs

     total energy              =  -16376.23317911 Ry
     estimated scf accuracy    <       0.32053537 Ry

     iteration # 26     ecut=    71.00 Ry     beta= 0.10
     Davidson diagonalization with overlap
     ethr =  2.16E-05,  avg # of iterations =  1.0

     total cpu time spent up to now is     2902.2 secs

     total energy              =  -16376.23665312 Ry
     estimated scf accuracy    <       0.01768597 Ry

     iteration # 27     ecut=    71.00 Ry     beta= 0.10
     Davidson diagonalization with overlap
     ethr =  3.07E-06,  avg # of iterations =  3.0

     total cpu time spent up to now is     3002.9 secs

     total energy              =  -16376.23145014 Ry
     estimated scf accuracy    <       0.16709530 Ry

     iteration # 28     ecut=    71.00 Ry     beta= 0.10
     Davidson diagonalization with overlap
     ethr =  3.07E-06,  avg # of iterations =  2.0

     total cpu time spent up to now is     3111.9 secs

     total energy              =  -16376.23660367 Ry
     estimated scf accuracy    <       0.13318388 Ry

     iteration # 29     ecut=    71.00 Ry     beta= 0.10
     Davidson diagonalization with overlap
     ethr =  3.07E-06,  avg # of iterations =  1.0

     total cpu time spent up to now is     3206.1 secs

     total energy              =  -16376.23933328 Ry
     estimated scf accuracy    <       0.11096155 Ry

     iteration # 30     ecut=    71.00 Ry     beta= 0.10
     Davidson diagonalization with overlap
     ethr =  3.07E-06,  avg # of iterations =  1.0

     total cpu time spent up to now is     3300.2 secs

     total energy              =  -16376.23852259 Ry
     estimated scf accuracy    <       0.76340024 Ry

     iteration # 31     ecut=    71.00 Ry     beta= 0.10
     Davidson diagonalization with overlap
     ethr =  3.07E-06,  avg # of iterations =  1.0

     total cpu time spent up to now is     3394.6 secs

     total energy              =  -16376.23380197 Ry
     estimated scf accuracy    <       0.38964701 Ry

     iteration # 32     ecut=    71.00 Ry     beta= 0.10
     Davidson diagonalization with overlap
     ethr =  3.07E-06,  avg # of iterations =  1.0

     total cpu time spent up to now is     3486.0 secs

     total energy              =  -16376.23612344 Ry
     estimated scf accuracy    <       0.01009397 Ry

     iteration # 33     ecut=    71.00 Ry     beta= 0.10
     Davidson diagonalization with overlap
     c_bands:  2 eigenvalues not converged
     ethr =  1.75E-06,  avg # of iterations =  1.5

     total cpu time spent up to now is     3582.5 secs

     total energy              =  -16376.23592088 Ry
     estimated scf accuracy    <       0.01335332 Ry

     iteration # 34     ecut=    71.00 Ry     beta= 0.10
     Davidson diagonalization with overlap
     ethr =  1.75E-06,  avg # of iterations =  1.3

     total cpu time spent up to now is     3676.5 secs

     total energy              =  -16376.23603202 Ry
     estimated scf accuracy    <       0.00011302 Ry

     iteration # 35     ecut=    71.00 Ry     beta= 0.10
     Davidson diagonalization with overlap
     ethr =  1.96E-08,  avg # of iterations =  1.0

     total cpu time spent up to now is     3772.0 secs

     total energy              =  -16376.23602921 Ry
     estimated scf accuracy    <       0.00056434 Ry

     iteration # 36     ecut=    71.00 Ry     beta= 0.10
     Davidson diagonalization with overlap
     ethr =  1.96E-08,  avg # of iterations =  1.0

     total cpu time spent up to now is     3863.0 secs

     total energy              =  -16376.23604259 Ry
     estimated scf accuracy    <       0.00002860 Ry

     iteration # 37     ecut=    71.00 Ry     beta= 0.10
     Davidson diagonalization with overlap
     ethr =  4.97E-09,  avg # of iterations =  2.0

     total cpu time spent up to now is     3972.0 secs

     total energy              =  -16376.23604524 Ry
     estimated scf accuracy    <       0.00007822 Ry

     iteration # 38     ecut=    71.00 Ry     beta= 0.10
     Davidson diagonalization with overlap
     ethr =  4.97E-09,  avg # of iterations =  2.0

     total cpu time spent up to now is     4082.6 secs

     total energy              =  -16376.23604738 Ry
     estimated scf accuracy    <       0.00008306 Ry

     iteration # 39     ecut=    71.00 Ry     beta= 0.10
     Davidson diagonalization with overlap
     ethr =  4.97E-09,  avg # of iterations =  1.0

     total cpu time spent up to now is     4175.7 secs

     total energy              =  -16376.23605004 Ry
     estimated scf accuracy    <       0.00001958 Ry

     iteration # 40     ecut=    71.00 Ry     beta= 0.10
     Davidson diagonalization with overlap
     ethr =  3.40E-09,  avg # of iterations =  2.0

     total cpu time spent up to now is     4286.5 secs

     total energy              =  -16376.23605525 Ry
     estimated scf accuracy    <       0.00002067 Ry

     iteration # 41     ecut=    71.00 Ry     beta= 0.10
     Davidson diagonalization with overlap
     ethr =  3.40E-09,  avg # of iterations =  2.0

     total cpu time spent up to now is     4400.1 secs

     total energy              =  -16376.23605739 Ry
     estimated scf accuracy    <       0.00000127 Ry

     iteration # 42     ecut=    71.00 Ry     beta= 0.10
     Davidson diagonalization with overlap
     ethr =  2.21E-10,  avg # of iterations =  2.6

     total cpu time spent up to now is     4511.6 secs

     total energy              =  -16376.23605719 Ry
     estimated scf accuracy    <       0.00001068 Ry

     iteration # 43     ecut=    71.00 Ry     beta= 0.10
     Davidson diagonalization with overlap
     ethr =  2.21E-10,  avg # of iterations =  2.0

     total cpu time spent up to now is     4619.6 secs

     End of self-consistent calculation

          k = 0.0320 0.0320 0.0320 (158073 PWs)   bands (ev):

   -81.6981 -81.6978 -81.6978 -81.6978 -81.6977 -81.6977 -81.6977 -81.6977
   -81.6977 -81.6977 -81.6977 -81.6977 -81.6977 -81.6977 -81.6977 -81.6977
   -81.6977 -81.6977 -81.6977 -81.6977 -81.6977 -81.6977 -81.6977 -81.6977
   -81.6977 -81.6977 -81.6977 -81.6977 -81.6977 -81.6977 -81.6977 -81.6975
   -47.5190 -47.5190 -47.5190 -47.5189 -47.5189 -47.5189 -47.5189 -47.5189
   -47.5189 -47.5189 -47.5188 -47.5188 -47.5188 -47.5188 -47.5188 -47.5188
   -47.5188 -47.5188 -47.5188 -47.5188 -47.5188 -47.5188 -47.5188 -47.5188
   -47.5188 -47.5188 -47.5188 -47.5188 -47.5188 -47.5188 -47.5188 -47.5188
   -47.5188 -47.5188 -47.5187 -47.5187 -47.5187 -47.5187 -47.5187 -47.5187
   -47.5187 -47.5187 -47.5187 -47.5187 -47.5187 -47.5187 -47.5187 -47.5187
   -47.5187 -47.5187 -47.5187 -47.5187 -47.5187 -47.5187 -47.5187 -47.5187
   -47.5187 -47.5187 -47.5187 -47.5187 -47.5187 -47.5187 -47.5187 -47.5186
   -47.5186 -47.5186 -47.5186 -47.5186 -47.5186 -47.5186 -47.5186 -47.5186
   -47.5186 -47.5186 -47.5186 -47.5186 -47.5186 -47.5186 -47.5186 -47.5186
   -47.5186 -47.5186 -47.5186 -47.5186 -47.5186 -47.5186 -47.5186 -47.5186
   -47.5186 -47.5186 -47.5186 -47.5185 -47.5185 -47.5185 -47.5185 -47.5185
    -0.5977  -0.3020  -0.3007  -0.3007  -0.3007  -0.2915  -0.2915  -0.2915
    -0.2867  -0.2867  -0.2867  -0.2329  -0.2329  -0.2329  -0.2216  -0.2216
    -0.2216  -0.2057  -0.2057  -0.2057  -0.2042  -0.2042  -0.2042  -0.2042
    -0.2042  -0.2042  -0.2018  -0.2018  -0.2018  -0.1962  -0.1962  -0.1962
    -0.1947  -0.1947  -0.1947  -0.1947  -0.1947  -0.1947  -0.1919  -0.1919
    -0.1919  -0.1693  -0.1693  -0.1693  -0.1689  -0.1689  -0.1689  -0.1689
    -0.1689  -0.1689  -0.1662  -0.1662  -0.1662  -0.1662  -0.1662  -0.1662
    -0.1629  -0.1619  -0.1619  -0.1616  -0.1616  -0.1616  -0.1607  -0.1607
    -0.1598  -0.1598  -0.1598  -0.1578  -0.1578  -0.1578  -0.1423  -0.1423
    -0.1423  -0.1423  -0.1423  -0.1423  -0.1034  -0.1034  -0.1034  -0.1034
    -0.1034  -0.1034  -0.0984  -0.0984  -0.0984  -0.0922  -0.0922  -0.0922
    -0.0898  -0.0898  -0.0898  -0.0852  -0.0852  -0.0852  -0.0839  -0.0839
    -0.0839  -0.0823  -0.0823  -0.0823  -0.0785  -0.0785  -0.0785  -0.0785
    -0.0785  -0.0785  -0.0709  -0.0709  -0.0690  -0.0690  -0.0690  -0.0686
    -0.0686  -0.0686  -0.0680  -0.0680  -0.0680  -0.0592  -0.0592  -0.0592
    -0.0592  -0.0592  -0.0591  -0.0571  -0.0571  -0.0571  -0.0571  -0.0571
    -0.0571  -0.0532  -0.0532  -0.0532  -0.0375  -0.0375  -0.0375  -0.0309
    -0.0309  -0.0309   0.0002   0.0002   0.0002   0.0037   0.0037   0.0037
     0.0049   0.0049   0.0060   0.0060   0.0060   0.0237   0.0237   0.0238
     0.0246   0.0246   0.0246   0.0246   0.0246   0.0246   0.0248   0.0248
     0.0248   0.2297   0.2297   0.2297   0.4151   0.4151   0.4151   0.9872
     0.9872   0.9872   1.1590   1.1590   1.1591   1.1591   1.1591   1.1591
     1.3243   1.3243   1.3243   1.5715   1.6297   1.6297   1.6297   2.3589
     2.3589   2.3589   2.4360   2.4360   2.4360   2.4360   2.4360   2.4360
     2.9442   2.9442   2.9442   3.0033   3.5292   3.5292   3.5292   4.4248
     4.4248   4.4248   4.4249   4.4249   4.4249   4.5813   4.5813   4.5814
     4.6389   4.6389   4.6389   4.6390   4.6390   4.6392   4.7368   4.7368
     4.7368   4.7369

          k = 0.0320 0.0320 0.0960 (158122 PWs)   bands (ev):

   -81.6981 -81.6978 -81.6978 -81.6978 -81.6977 -81.6977 -81.6977 -81.6977
   -81.6977 -81.6977 -81.6977 -81.6977 -81.6977 -81.6977 -81.6977 -81.6977
   -81.6977 -81.6977 -81.6977 -81.6977 -81.6977 -81.6977 -81.6977 -81.6977
   -81.6977 -81.6977 -81.6977 -81.6977 -81.6977 -81.6977 -81.6977 -81.6975
   -47.5190 -47.5190 -47.5190 -47.5189 -47.5189 -47.5189 -47.5189 -47.5189
   -47.5189 -47.5189 -47.5189 -47.5188 -47.5188 -47.5188 -47.5188 -47.5188
   -47.5188 -47.5188 -47.5188 -47.5188 -47.5188 -47.5188 -47.5188 -47.5188
   -47.5188 -47.5188 -47.5188 -47.5188 -47.5188 -47.5188 -47.5188 -47.5188
   -47.5188 -47.5188 -47.5188 -47.5187 -47.5187 -47.5187 -47.5187 -47.5187
   -47.5187 -47.5187 -47.5187 -47.5187 -47.5187 -47.5187 -47.5187 -47.5187
   -47.5187 -47.5187 -47.5187 -47.5187 -47.5187 -47.5187 -47.5187 -47.5187
   -47.5187 -47.5187 -47.5187 -47.5187 -47.5186 -47.5186 -47.5186 -47.5186
   -47.5186 -47.5186 -47.5186 -47.5186 -47.5186 -47.5186 -47.5186 -47.5186
   -47.5186 -47.5186 -47.5186 -47.5186 -47.5186 -47.5186 -47.5186 -47.5186
   -47.5186 -47.5186 -47.5186 -47.5186 -47.5186 -47.5186 -47.5186 -47.5186
   -47.5186 -47.5186 -47.5186 -47.5186 -47.5186 -47.5185 -47.5185 -47.5185
    -0.5766  -0.2989  -0.2964  -0.2964  -0.2952  -0.2896  -0.2882  -0.2882
    -0.2837  -0.2823  -0.2823  -0.2440  -0.2307  -0.2307  -0.2199  -0.2199
    -0.2186  -0.2117  -0.2117  -0.2106  -0.2086  -0.2067  -0.2066  -0.2064
    -0.2055  -0.2055  -0.2050  -0.2050  -0.2026  -0.2026  -0.2009  -0.2009
    -0.1968  -0.1959  -0.1959  -0.1933  -0.1933  -0.1909  -0.1909  -0.1885
    -0.1885  -0.1872  -0.1872  -0.1741  -0.1741  -0.1728  -0.1728  -0.1688
    -0.1688  -0.1673  -0.1673  -0.1665  -0.1665  -0.1663  -0.1649  -0.1649
    -0.1646  -0.1631  -0.1629  -0.1622  -0.1622  -0.1603  -0.1596  -0.1594
    -0.1591  -0.1573  -0.1573  -0.1566  -0.1517  -0.1517  -0.1430  -0.1430
    -0.1418  -0.1418  -0.1172  -0.1172  -0.1147  -0.1147  -0.1141  -0.1141
    -0.1082  -0.1066  -0.1066  -0.1060  -0.1060  -0.1034  -0.1034  -0.1011
    -0.1007  -0.0993  -0.0961  -0.0961  -0.0846  -0.0846  -0.0814  -0.0814
    -0.0803  -0.0803  -0.0800  -0.0800  -0.0784  -0.0753  -0.0753  -0.0729
    -0.0714  -0.0711  -0.0711  -0.0708  -0.0708  -0.0708  -0.0708  -0.0698
    -0.0685  -0.0685  -0.0588  -0.0586  -0.0586  -0.0574  -0.0574  -0.0565
    -0.0565  -0.0521  -0.0520  -0.0518  -0.0518  -0.0486  -0.0486  -0.0471
    -0.0471  -0.0449  -0.0438  -0.0438  -0.0438  -0.0357  -0.0357  -0.0283
    -0.0283  -0.0242  -0.0024  -0.0024  -0.0011  -0.0010  -0.0010  -0.0006
     0.0013   0.0029   0.0046   0.0050   0.0050   0.0176   0.0176   0.0205
     0.0210   0.0210   0.0211   0.0211   0.0217   0.0246   0.0246   0.0246
     0.0246   0.0743   0.2548   0.2548   0.4394   0.4394   0.6239   0.8300
     0.8300   1.0064   1.0064   1.0079   1.1790   1.1790   1.3429   1.3433
     1.3434   1.4823   1.4993   1.4993   1.5854   1.5855   1.6429   2.1763
     2.3632   2.3632   2.3760   2.3760   2.3924   2.3924   2.4310   2.4310
     2.9716   3.0298   3.0298   3.1347   3.5563   3.5563   3.7412   4.2410
     4.2410   4.3359   4.3625   4.3625   4.3992   4.3992   4.4522   4.4522
     4.4979   4.4979   4.5889   4.5889   4.5915   4.5915   4.6730   4.6918
     4.6918   4.8498

          k = 0.0320 0.0320 0.1599 (158159 PWs)   bands (ev):

   -81.6981 -81.6978 -81.6978 -81.6978 -81.6977 -81.6977 -81.6977 -81.6977
   -81.6977 -81.6977 -81.6977 -81.6977 -81.6977 -81.6977 -81.6977 -81.6977
   -81.6977 -81.6977 -81.6977 -81.6977 -81.6977 -81.6977 -81.6977 -81.6977
   -81.6977 -81.6977 -81.6977 -81.6977 -81.6977 -81.6977 -81.6977 -81.6975
   -47.5190 -47.5190 -47.5190 -47.5189 -47.5189 -47.5189 -47.5189 -47.5189
   -47.5189 -47.5189 -47.5189 -47.5189 -47.5188 -47.5188 -47.5188 -47.5188
   -47.5188 -47.5188 -47.5188 -47.5188 -47.5188 -47.5188 -47.5188 -47.5188
   -47.5188 -47.5188 -47.5188 -47.5188 -47.5188 -47.5188 -47.5188 -47.5188
   -47.5188 -47.5188 -47.5187 -47.5187 -47.5187 -47.5187 -47.5187 -47.5187
   -47.5187 -47.5187 -47.5187 -47.5187 -47.5187 -47.5187 -47.5187 -47.5187
   -47.5187 -47.5187 -47.5187 -47.5187 -47.5187 -47.5187 -47.5187 -47.5187
   -47.5187 -47.5187 -47.5187 -47.5187 -47.5187 -47.5186 -47.5186 -47.5186
   -47.5186 -47.5186 -47.5186 -47.5186 -47.5186 -47.5186 -47.5186 -47.5186
   -47.5186 -47.5186 -47.5186 -47.5186 -47.5186 -47.5186 -47.5186 -47.5186
   -47.5186 -47.5186 -47.5186 -47.5186 -47.5186 -47.5186 -47.5186 -47.5186
   -47.5186 -47.5186 -47.5186 -47.5186 -47.5186 -47.5185 -47.5185 -47.5185
    -0.5347  -0.2914  -0.2879  -0.2879  -0.2857  -0.2856  -0.2815  -0.2815
    -0.2778  -0.2740  -0.2740  -0.2545  -0.2325  -0.2276  -0.2264  -0.2264
    -0.2259  -0.2251  -0.2251  -0.2227  -0.2227  -0.2220  -0.2162  -0.2162
    -0.2146  -0.2146  -0.2093  -0.2093  -0.2065  -0.2064  -0.2000  -0.2000
    -0.1997  -0.1958  -0.1958  -0.1919  -0.1919  -0.1914  -0.1913  -0.1896
    -0.1896  -0.1811  -0.1811  -0.1707  -0.1707  -0.1687  -0.1687  -0.1685
    -0.1684  -0.1684  -0.1674  -0.1674  -0.1671  -0.1652  -0.1652  -0.1645
    -0.1642  -0.1631  -0.1631  -0.1620  -0.1620  -0.1603  -0.1552  -0.1546
    -0.1546  -0.1525  -0.1525  -0.1512  -0.1482  -0.1482  -0.1437  -0.1437
    -0.1408  -0.1408  -0.1324  -0.1324  -0.1246  -0.1246  -0.1201  -0.1201
    -0.1199  -0.1160  -0.1160  -0.1154  -0.1154  -0.1151  -0.1137  -0.1126
    -0.1126  -0.1120  -0.0974  -0.0974  -0.0870  -0.0870  -0.0851  -0.0850
    -0.0835  -0.0835  -0.0763  -0.0733  -0.0733  -0.0703  -0.0703  -0.0690
    -0.0690  -0.0677  -0.0640  -0.0640  -0.0623  -0.0621  -0.0621  -0.0618
    -0.0618  -0.0581  -0.0581  -0.0557  -0.0557  -0.0552  -0.0505  -0.0505
    -0.0499  -0.0463  -0.0429  -0.0429  -0.0369  -0.0361  -0.0361  -0.0358
    -0.0358  -0.0357  -0.0341  -0.0338  -0.0338  -0.0324  -0.0323  -0.0323
    -0.0274  -0.0274  -0.0176  -0.0085  -0.0085  -0.0079  -0.0076  -0.0075
    -0.0046  -0.0036  -0.0025   0.0008   0.0013   0.0013   0.0055   0.0055
     0.0141   0.0142   0.0142   0.0143   0.0143   0.0158   0.0246   0.0246
     0.0246   0.0246   0.3029   0.3029   0.4864   0.4864   0.6891   0.6891
     0.8532   0.8684   0.8684   1.0488   1.2181   1.2181   1.3789   1.3802
     1.5123   1.5124   1.5367   1.5367   1.6132   1.6798   1.6798   1.9170
     2.2628   2.2628   2.3066   2.3066   2.3715   2.3715   2.4217   2.4217
     3.0831   3.1855   3.1855   3.3203   3.6101   3.6101   4.0415   4.0588
     4.0718   4.0718   4.2037   4.2037   4.3091   4.3091   4.3341   4.3341
     4.3530   4.3530   4.3781   4.4672   4.4672   4.6009   4.6009   4.7609
     4.7609   5.0164

          k = 0.0320 0.0320 0.2239 (158065 PWs)   bands (ev):

   -81.6981 -81.6978 -81.6978 -81.6978 -81.6977 -81.6977 -81.6977 -81.6977
   -81.6977 -81.6977 -81.6977 -81.6977 -81.6977 -81.6977 -81.6977 -81.6977
   -81.6977 -81.6977 -81.6977 -81.6977 -81.6977 -81.6977 -81.6977 -81.6977
   -81.6977 -81.6977 -81.6977 -81.6977 -81.6977 -81.6977 -81.6977 -81.6975
   -47.5190 -47.5190 -47.5190 -47.5189 -47.5189 -47.5189 -47.5189 -47.5189
   -47.5189 -47.5189 -47.5189 -47.5189 -47.5189 -47.5189 -47.5188 -47.5188
   -47.5188 -47.5188 -47.5188 -47.5188 -47.5188 -47.5188 -47.5188 -47.5188
   -47.5188 -47.5188 -47.5188 -47.5188 -47.5188 -47.5188 -47.5188 -47.5187
   -47.5187 -47.5187 -47.5187 -47.5187 -47.5187 -47.5187 -47.5187 -47.5187
   -47.5187 -47.5187 -47.5187 -47.5187 -47.5187 -47.5187 -47.5187 -47.5187
   -47.5187 -47.5187 -47.5187 -47.5187 -47.5187 -47.5187 -47.5187 -47.5187
   -47.5187 -47.5187 -47.5186 -47.5186 -47.5186 -47.5186 -47.5186 -47.5186
   -47.5186 -47.5186 -47.5186 -47.5186 -47.5186 -47.5186 -47.5186 -47.5186
   -47.5186 -47.5186 -47.5186 -47.5186 -47.5186 -47.5186 -47.5186 -47.5186
   -47.5186 -47.5186 -47.5186 -47.5186 -47.5186 -47.5186 -47.5186 -47.5186
   -47.5186 -47.5186 -47.5186 -47.5186 -47.5185 -47.5185 -47.5185 -47.5185
    -0.4728  -0.3034  -0.2801  -0.2798  -0.2755  -0.2755  -0.2725  -0.2713
    -0.2713  -0.2694  -0.2643  -0.2625  -0.2625  -0.2462  -0.2460  -0.2417
    -0.2417  -0.2417  -0.2417  -0.2391  -0.2325  -0.2325  -0.2199  -0.2199
    -0.2107  -0.2107  -0.2102  -0.2102  -0.2082  -0.2082  -0.2016  -0.2016
    -0.1973  -0.1972  -0.1962  -0.1962  -0.1953  -0.1953  -0.1900  -0.1796
    -0.1796  -0.1741  -0.1686  -0.1686  -0.1682  -0.1682  -0.1682  -0.1667
    -0.1667  -0.1665  -0.1665  -0.1661  -0.1643  -0.1643  -0.1627  -0.1614
    -0.1614  -0.1608  -0.1559  -0.1559  -0.1551  -0.1551  -0.1491  -0.1475
    -0.1475  -0.1474  -0.1471  -0.1471  -0.1471  -0.1455  -0.1455  -0.1437
    -0.1429  -0.1429  -0.1390  -0.1390  -0.1352  -0.1352  -0.1334  -0.1334
    -0.1310  -0.1299  -0.1299  -0.1271  -0.1271  -0.1267  -0.1266  -0.1264
    -0.1264  -0.1236  -0.1167  -0.1167  -0.0856  -0.0856  -0.0853  -0.0853
    -0.0803  -0.0748  -0.0704  -0.0704  -0.0696  -0.0696  -0.0670  -0.0670
    -0.0645  -0.0602  -0.0602  -0.0597  -0.0597  -0.0591  -0.0591  -0.0555
    -0.0554  -0.0554  -0.0525  -0.0525  -0.0464  -0.0464  -0.0458  -0.0416
    -0.0416  -0.0388  -0.0388  -0.0384  -0.0339  -0.0324  -0.0324  -0.0294
    -0.0294  -0.0242  -0.0242  -0.0236  -0.0232  -0.0205  -0.0202  -0.0202
    -0.0197  -0.0197  -0.0188  -0.0188  -0.0180  -0.0165  -0.0165  -0.0126
    -0.0113  -0.0105  -0.0102  -0.0102  -0.0076  -0.0053  -0.0050  -0.0050
     0.0046   0.0046   0.0047   0.0047   0.0049   0.0075   0.0246   0.0246
     0.0246   0.0246   0.3716   0.3716   0.5543   0.5543   0.5654   0.5654
     0.7464   0.7464   1.1008   1.1091   1.2749   1.2749   1.2789   1.4284
     1.4284   1.4300   1.5571   1.6392   1.7340   1.7340   1.8597   1.8597
     2.1087   2.1087   2.1834   2.1834   2.3828   2.3828   2.4095   2.4095
     3.2622   3.3930   3.3930   3.5460   3.6898   3.6898   3.7541   3.9116
     3.9116   3.9222   3.9222   4.0825   4.2784   4.2784   4.2879   4.2879
     4.2917   4.2917   4.3745   4.3745   4.4218   4.6620   4.6620   4.8453
     4.8454   4.8741

          k = 0.0320 0.0320-0.2879 (158072 PWs)   bands (ev):

   -81.6981 -81.6978 -81.6978 -81.6978 -81.6977 -81.6977 -81.6977 -81.6977
   -81.6977 -81.6977 -81.6977 -81.6977 -81.6977 -81.6977 -81.6977 -81.6977
   -81.6977 -81.6977 -81.6977 -81.6977 -81.6977 -81.6977 -81.6977 -81.6977
   -81.6977 -81.6977 -81.6977 -81.6977 -81.6977 -81.6977 -81.6977 -81.6975
   -47.5190 -47.5190 -47.5190 -47.5189 -47.5189 -47.5189 -47.5189 -47.5189
   -47.5189 -47.5189 -47.5189 -47.5189 -47.5189 -47.5189 -47.5189 -47.5189
   -47.5189 -47.5188 -47.5188 -47.5188 -47.5188 -47.5188 -47.5188 -47.5188
   -47.5188 -47.5188 -47.5188 -47.5188 -47.5188 -47.5188 -47.5187 -47.5187
   -47.5187 -47.5187 -47.5187 -47.5187 -47.5187 -47.5187 -47.5187 -47.5187
   -47.5187 -47.5187 -47.5187 -47.5187 -47.5187 -47.5187 -47.5187 -47.5187
   -47.5187 -47.5187 -47.5187 -47.5187 -47.5187 -47.5187 -47.5187 -47.5187
   -47.5186 -47.5186 -47.5186 -47.5186 -47.5186 -47.5186 -47.5186 -47.5186
   -47.5186 -47.5186 -47.5186 -47.5186 -47.5186 -47.5186 -47.5186 -47.5186
   -47.5186 -47.5186 -47.5186 -47.5186 -47.5186 -47.5186 -47.5186 -47.5186
   -47.5186 -47.5186 -47.5186 -47.5186 -47.5186 -47.5186 -47.5186 -47.5186
   -47.5186 -47.5186 -47.5186 -47.5185 -47.5185 -47.5185 -47.5185 -47.5184
    -0.3933  -0.3933  -0.2729  -0.2729  -0.2644  -0.2644  -0.2598  -0.2598
    -0.2598  -0.2598  -0.2586  -0.2586  -0.2578  -0.2578  -0.2578  -0.2578
    -0.2566  -0.2566  -0.2485  -0.2485  -0.2485  -0.2485  -0.2114  -0.2114
    -0.2114  -0.2114  -0.2096  -0.2096  -0.2096  -0.2096  -0.2038  -0.2038
    -0.2038  -0.2038  -0.1955  -0.1955  -0.1955  -0.1955  -0.1814  -0.1814
    -0.1679  -0.1679  -0.1679  -0.1679  -0.1675  -0.1675  -0.1655  -0.1655
    -0.1655  -0.1655  -0.1651  -0.1651  -0.1651  -0.1651  -0.1616  -0.1616
    -0.1551  -0.1551  -0.1551  -0.1551  -0.1501  -0.1501  -0.1501  -0.1501
    -0.1439  -0.1439  -0.1439  -0.1439  -0.1409  -0.1409  -0.1396  -0.1396
    -0.1396  -0.1396  -0.1380  -0.1380  -0.1376  -0.1376  -0.1367  -0.1367
    -0.1367  -0.1367  -0.1356  -0.1356  -0.1356  -0.1356  -0.1351  -0.1351
    -0.1351  -0.1351  -0.1343  -0.1343  -0.0858  -0.0858  -0.0858  -0.0858
    -0.0824  -0.0824  -0.0701  -0.0701  -0.0701  -0.0701  -0.0625  -0.0625
    -0.0625  -0.0625  -0.0604  -0.0604  -0.0564  -0.0564  -0.0564  -0.0564
    -0.0445  -0.0445  -0.0445  -0.0445  -0.0356  -0.0356  -0.0356  -0.0356
    -0.0344  -0.0344  -0.0344  -0.0344  -0.0316  -0.0316  -0.0316  -0.0316
    -0.0308  -0.0308  -0.0234  -0.0234  -0.0225  -0.0225  -0.0219  -0.0219
    -0.0219  -0.0219  -0.0137  -0.0137  -0.0136  -0.0136  -0.0136  -0.0136
    -0.0135  -0.0135  -0.0071  -0.0071  -0.0071  -0.0071  -0.0070  -0.0070
    -0.0070  -0.0070  -0.0068  -0.0068  -0.0020  -0.0020   0.0246   0.0246
     0.0246   0.0246   0.4593   0.4594   0.4594   0.4594   0.6414   0.6414
     0.6414   0.6414   1.1868   1.1868   1.3466   1.3466   1.3466   1.3466
     1.3642   1.3643   1.4919   1.4919   1.9281   1.9281   1.9281   1.9281
     2.0309   2.0309   2.0309   2.0309   2.3959   2.3960   2.3960   2.3960
     3.4905   3.4905   3.6383   3.6383   3.6383   3.6383   3.7943   3.7943
     3.7943   3.7943   3.8024   3.8024   4.2618   4.2618   4.2618   4.2618
     4.3146   4.3146   4.3146   4.3146   4.7551   4.7551   4.7551   4.7552
     4.9483   4.9485

          k = 0.0320 0.0960 0.0960 (158155 PWs)   bands (ev):

   -81.6981 -81.6978 -81.6978 -81.6978 -81.6977 -81.6977 -81.6977 -81.6977
   -81.6977 -81.6977 -81.6977 -81.6977 -81.6977 -81.6977 -81.6977 -81.6977
   -81.6977 -81.6977 -81.6977 -81.6977 -81.6977 -81.6977 -81.6977 -81.6977
   -81.6977 -81.6977 -81.6977 -81.6977 -81.6977 -81.6977 -81.6977 -81.6975
   -47.5190 -47.5190 -47.5190 -47.5189 -47.5189 -47.5189 -47.5189 -47.5189
   -47.5189 -47.5189 -47.5189 -47.5189 -47.5189 -47.5189 -47.5188 -47.5188
   -47.5188 -47.5188 -47.5188 -47.5188 -47.5188 -47.5188 -47.5188 -47.5188
   -47.5188 -47.5188 -47.5188 -47.5188 -47.5188 -47.5188 -47.5188 -47.5188
   -47.5188 -47.5188 -47.5188 -47.5188 -47.5187 -47.5187 -47.5187 -47.5187
   -47.5187 -47.5187 -47.5187 -47.5187 -47.5187 -47.5187 -47.5187 -47.5187
   -47.5187 -47.5187 -47.5187 -47.5187 -47.5187 -47.5187 -47.5187 -47.5187
   -47.5187 -47.5186 -47.5186 -47.5186 -47.5186 -47.5186 -47.5186 -47.5186
   -47.5186 -47.5186 -47.5186 -47.5186 -47.5186 -47.5186 -47.5186 -47.5186
   -47.5186 -47.5186 -47.5186 -47.5186 -47.5186 -47.5186 -47.5186 -47.5186
   -47.5186 -47.5186 -47.5186 -47.5186 -47.5186 -47.5186 -47.5186 -47.5186
   -47.5186 -47.5186 -47.5186 -47.5186 -47.5186 -47.5185 -47.5185 -47.5185
    -0.5557  -0.2972  -0.2934  -0.2899  -0.2898  -0.2868  -0.2863  -0.2863
    -0.2794  -0.2794  -0.2762  -0.2415  -0.2415  -0.2305  -0.2208  -0.2161
    -0.2161  -0.2150  -0.2141  -0.2141  -0.2110  -0.2110  -0.2097  -0.2097
    -0.2093  -0.2093  -0.2072  -0.2072  -0.2041  -0.2041  -0.2036  -0.2036
    -0.2032  -0.2032  -0.1948  -0.1925  -0.1925  -0.1904  -0.1904  -0.1891
    -0.1857  -0.1857  -0.1855  -0.1855  -0.1836  -0.1765  -0.1765  -0.1723
    -0.1697  -0.1697  -0.1693  -0.1693  -0.1690  -0.1690  -0.1654  -0.1654
    -0.1648  -0.1645  -0.1645  -0.1623  -0.1602  -0.1602  -0.1598  -0.1587
    -0.1575  -0.1570  -0.1550  -0.1531  -0.1531  -0.1406  -0.1398  -0.1398
    -0.1278  -0.1278  -0.1183  -0.1183  -0.1149  -0.1149  -0.1134  -0.1134
    -0.1118  -0.1118  -0.1111  -0.1111  -0.1076  -0.1076  -0.1046  -0.1019
    -0.1007  -0.0999  -0.0999  -0.0984  -0.0984  -0.0913  -0.0841  -0.0830
    -0.0829  -0.0824  -0.0824  -0.0817  -0.0775  -0.0774  -0.0774  -0.0770
    -0.0770  -0.0758  -0.0758  -0.0732  -0.0701  -0.0641  -0.0641  -0.0611
    -0.0611  -0.0574  -0.0574  -0.0572  -0.0572  -0.0527  -0.0527  -0.0523
    -0.0523  -0.0502  -0.0502  -0.0465  -0.0465  -0.0446  -0.0446  -0.0430
    -0.0430  -0.0377  -0.0371  -0.0371  -0.0363  -0.0362  -0.0324  -0.0244
    -0.0209  -0.0209  -0.0072  -0.0069  -0.0069  -0.0048  -0.0043  -0.0043
    -0.0037   0.0025   0.0053   0.0053   0.0057   0.0135   0.0150   0.0150
     0.0180   0.0180   0.0210   0.0210   0.0211   0.0211   0.0216   0.0216
     0.0224   0.0994   0.0994   0.2788   0.4631   0.6472   0.6472   0.6702
     0.8510   0.8510   1.0271   1.0271   1.1975   1.1975   1.3617   1.3617
     1.3642   1.4975   1.5154   1.5154   1.6563   1.6563   1.6617   2.1857
     2.1857   2.3413   2.3413   2.3524   2.3524   2.3668   2.4010   2.4011
     2.9986   2.9986   3.1598   3.2958   3.5832   3.7613   3.7613   4.2020
     4.2020   4.2470   4.2470   4.2481   4.2481   4.2545   4.2545   4.3440
     4.3487   4.3487   4.6846   4.6846   4.7004   4.7004   4.7501   4.7502
     4.7698   4.7702

          k = 0.0320 0.0960 0.1599 (158098 PWs)   bands (ev):

   -81.6981 -81.6978 -81.6978 -81.6978 -81.6977 -81.6977 -81.6977 -81.6977
   -81.6977 -81.6977 -81.6977 -81.6977 -81.6977 -81.6977 -81.6977 -81.6977
   -81.6977 -81.6977 -81.6977 -81.6977 -81.6977 -81.6977 -81.6977 -81.6977
   -81.6977 -81.6977 -81.6977 -81.6977 -81.6977 -81.6977 -81.6977 -81.6975
   -47.5190 -47.5190 -47.5190 -47.5189 -47.5189 -47.5189 -47.5189 -47.5189
   -47.5189 -47.5189 -47.5189 -47.5189 -47.5189 -47.5188 -47.5188 -47.5188
   -47.5188 -47.5188 -47.5188 -47.5188 -47.5188 -47.5188 -47.5188 -47.5188
   -47.5188 -47.5188 -47.5188 -47.5188 -47.5188 -47.5188 -47.5188 -47.5188
   -47.5188 -47.5187 -47.5187 -47.5187 -47.5187 -47.5187 -47.5187 -47.5187
   -47.5187 -47.5187 -47.5187 -47.5187 -47.5187 -47.5187 -47.5187 -47.5187
   -47.5187 -47.5187 -47.5187 -47.5187 -47.5187 -47.5187 -47.5187 -47.5187
   -47.5187 -47.5186 -47.5186 -47.5186 -47.5186 -47.5186 -47.5186 -47.5186
   -47.5186 -47.5186 -47.5186 -47.5186 -47.5186 -47.5186 -47.5186 -47.5186
   -47.5186 -47.5186 -47.5186 -47.5186 -47.5186 -47.5186 -47.5186 -47.5186
   -47.5186 -47.5186 -47.5186 -47.5186 -47.5186 -47.5186 -47.5186 -47.5186
   -47.5186 -47.5186 -47.5186 -47.5186 -47.5186 -47.5185 -47.5185 -47.5185
    -0.5143  -0.2911  -0.2863  -0.2824  -0.2822  -0.2807  -0.2797  -0.2795
    -0.2736  -0.2712  -0.2662  -0.2518  -0.2366  -0.2319  -0.2289  -0.2282
    -0.2282  -0.2237  -0.2229  -0.2214  -0.2209  -0.2208  -0.2207  -0.2205
    -0.2182  -0.2130  -0.2118  -0.2090  -0.2072  -0.2071  -0.2056  -0.2047
    -0.2046  -0.2036  -0.2005  -0.2000  -0.1966  -0.1949  -0.1910  -0.1901
    -0.1844  -0.1843  -0.1798  -0.1798  -0.1751  -0.1738  -0.1735  -0.1720
    -0.1716  -0.1715  -0.1690  -0.1677  -0.1676  -0.1675  -0.1669  -0.1665
    -0.1664  -0.1644  -0.1626  -0.1623  -0.1617  -0.1598  -0.1592  -0.1546
    -0.1543  -0.1521  -0.1507  -0.1471  -0.1467  -0.1410  -0.1364  -0.1358
    -0.1344  -0.1338  -0.1243  -0.1243  -0.1238  -0.1219  -0.1212  -0.1175
    -0.1171  -0.1153  -0.1150  -0.1145  -0.1142  -0.1131  -0.1094  -0.1085
    -0.1061  -0.1034  -0.1004  -0.0984  -0.0939  -0.0936  -0.0924  -0.0876
    -0.0869  -0.0818  -0.0801  -0.0798  -0.0796  -0.0761  -0.0756  -0.0747
    -0.0717  -0.0707  -0.0702  -0.0699  -0.0681  -0.0638  -0.0593  -0.0577
    -0.0566  -0.0546  -0.0532  -0.0527  -0.0508  -0.0492  -0.0491  -0.0480
    -0.0446  -0.0442  -0.0426  -0.0406  -0.0404  -0.0375  -0.0364  -0.0335
    -0.0310  -0.0304  -0.0289  -0.0262  -0.0260  -0.0260  -0.0257  -0.0217
    -0.0194  -0.0164  -0.0161  -0.0154  -0.0135  -0.0116  -0.0116  -0.0113
    -0.0098  -0.0084  -0.0006   0.0026   0.0032   0.0038   0.0038   0.0051
     0.0099   0.0122   0.0123   0.0141   0.0145   0.0159   0.0209   0.0212
     0.0214   0.0215   0.1468   0.3256   0.5093   0.5281   0.6926   0.7102
     0.8753   0.8895   0.8928   1.0644   1.0679   1.2449   1.3967   1.3973
     1.4005   1.5459   1.5523   1.6277   1.6829   1.6917   1.8252   1.9307
     2.2036   2.2109   2.2419   2.2705   2.3233   2.3401   2.3734   2.4026
     3.0528   3.1087   3.3436   3.4992   3.6366   3.8009   3.9110   4.0579
     4.0699   4.0926   4.1004   4.1287   4.1324   4.1421   4.2283   4.2685
     4.2686   4.2696   4.3931   4.5719   4.5779   4.6063   4.8358   4.8561
     4.8603   4.8931

          k = 0.0320 0.0960 0.2239 (158051 PWs)   bands (ev):

   -81.6981 -81.6978 -81.6978 -81.6978 -81.6977 -81.6977 -81.6977 -81.6977
   -81.6977 -81.6977 -81.6977 -81.6977 -81.6977 -81.6977 -81.6977 -81.6977
   -81.6977 -81.6977 -81.6977 -81.6977 -81.6977 -81.6977 -81.6977 -81.6977
   -81.6977 -81.6977 -81.6977 -81.6977 -81.6977 -81.6977 -81.6977 -81.6975
   -47.5190 -47.5190 -47.5190 -47.5189 -47.5189 -47.5189 -47.5189 -47.5189
   -47.5189 -47.5189 -47.5189 -47.5189 -47.5189 -47.5189 -47.5188 -47.5188
   -47.5188 -47.5188 -47.5188 -47.5188 -47.5188 -47.5188 -47.5188 -47.5188
   -47.5188 -47.5188 -47.5188 -47.5188 -47.5188 -47.5188 -47.5187 -47.5187
   -47.5187 -47.5187 -47.5187 -47.5187 -47.5187 -47.5187 -47.5187 -47.5187
   -47.5187 -47.5187 -47.5187 -47.5187 -47.5187 -47.5187 -47.5187 -47.5187
   -47.5187 -47.5187 -47.5187 -47.5187 -47.5187 -47.5187 -47.5187 -47.5187
   -47.5187 -47.5186 -47.5186 -47.5186 -47.5186 -47.5186 -47.5186 -47.5186
   -47.5186 -47.5186 -47.5186 -47.5186 -47.5186 -47.5186 -47.5186 -47.5186
   -47.5186 -47.5186 -47.5186 -47.5186 -47.5186 -47.5186 -47.5186 -47.5186
   -47.5186 -47.5186 -47.5186 -47.5186 -47.5186 -47.5186 -47.5186 -47.5186
   -47.5186 -47.5186 -47.5185 -47.5185 -47.5185 -47.5185 -47.5185 -47.5185
    -0.4535  -0.2903  -0.2807  -0.2769  -0.2753  -0.2740  -0.2694  -0.2682
    -0.2665  -0.2651  -0.2614  -0.2597  -0.2532  -0.2485  -0.2481  -0.2432
    -0.2419  -0.2399  -0.2356  -0.2352  -0.2301  -0.2292  -0.2254  -0.2239
    -0.2236  -0.2210  -0.2192  -0.2134  -0.2123  -0.2111  -0.2079  -0.2068
    -0.2029  -0.1985  -0.1968  -0.1962  -0.1939  -0.1931  -0.1888  -0.1881
    -0.1861  -0.1835  -0.1785  -0.1778  -0.1730  -0.1718  -0.1712  -0.1706
    -0.1691  -0.1690  -0.1686  -0.1685  -0.1672  -0.1669  -0.1650  -0.1631
    -0.1629  -0.1615  -0.1599  -0.1589  -0.1571  -0.1554  -0.1553  -0.1490
    -0.1475  -0.1447  -0.1442  -0.1395  -0.1391  -0.1389  -0.1384  -0.1377
    -0.1351  -0.1341  -0.1323  -0.1318  -0.1310  -0.1302  -0.1277  -0.1275
    -0.1273  -0.1269  -0.1263  -0.1209  -0.1199  -0.1194  -0.1189  -0.1174
    -0.1163  -0.1162  -0.1117  -0.1019  -0.1008  -0.0987  -0.0949  -0.0930
    -0.0813  -0.0807  -0.0796  -0.0733  -0.0686  -0.0683  -0.0670  -0.0663
    -0.0650  -0.0646  -0.0625  -0.0613  -0.0590  -0.0577  -0.0566  -0.0563
    -0.0551  -0.0542  -0.0534  -0.0526  -0.0492  -0.0486  -0.0483  -0.0463
    -0.0415  -0.0355  -0.0342  -0.0325  -0.0314  -0.0305  -0.0291  -0.0286
    -0.0280  -0.0278  -0.0263  -0.0245  -0.0219  -0.0218  -0.0216  -0.0211
    -0.0199  -0.0187  -0.0183  -0.0181  -0.0165  -0.0155  -0.0154  -0.0152
    -0.0148  -0.0128  -0.0069  -0.0064  -0.0063  -0.0013  -0.0009  -0.0003
     0.0022   0.0042   0.0044   0.0046   0.0050   0.0086   0.0209   0.0211
     0.0213   0.0214   0.2139   0.3933   0.4046   0.5765   0.5864   0.7586
     0.7677   0.9459   0.9548   1.1216   1.1278   1.1336   1.2964   1.4478
     1.5728   1.5870   1.6113   1.6561   1.6694   1.7449   1.8647   1.9829
     2.0282   2.1015   2.1637   2.2286   2.2477   2.2911   2.3820   2.3986
     3.1881   3.2858   3.5675   3.6336   3.7157   3.7354   3.7732   3.8595
     3.9457   4.0274   4.0366   4.0476   4.0911   4.1000   4.1412   4.2303
     4.2559   4.2812   4.3160   4.4223   4.4853   4.5374   4.6990   4.9474
     5.0436   5.0559

          k = 0.0320 0.0960-0.2879 (158062 PWs)   bands (ev):

   -81.6981 -81.6978 -81.6978 -81.6978 -81.6977 -81.6977 -81.6977 -81.6977
   -81.6977 -81.6977 -81.6977 -81.6977 -81.6977 -81.6977 -81.6977 -81.6977
   -81.6977 -81.6977 -81.6977 -81.6977 -81.6977 -81.6977 -81.6977 -81.6977
   -81.6977 -81.6977 -81.6977 -81.6977 -81.6977 -81.6977 -81.6977 -81.6975
   -47.5190 -47.5190 -47.5190 -47.5189 -47.5189 -47.5189 -47.5189 -47.5189
   -47.5189 -47.5189 -47.5189 -47.5189 -47.5189 -47.5189 -47.5189 -47.5188
   -47.5188 -47.5188 -47.5188 -47.5188 -47.5188 -47.5188 -47.5188 -47.5188
   -47.5188 -47.5188 -47.5188 -47.5188 -47.5188 -47.5187 -47.5187 -47.5187
   -47.5187 -47.5187 -47.5187 -47.5187 -47.5187 -47.5187 -47.5187 -47.5187
   -47.5187 -47.5187 -47.5187 -47.5187 -47.5187 -47.5187 -47.5187 -47.5187
   -47.5187 -47.5187 -47.5187 -47.5187 -47.5187 -47.5187 -47.5187 -47.5187
   -47.5187 -47.5187 -47.5187 -47.5187 -47.5186 -47.5186 -47.5186 -47.5186
   -47.5186 -47.5186 -47.5186 -47.5186 -47.5186 -47.5186 -47.5186 -47.5186
   -47.5186 -47.5186 -47.5186 -47.5186 -47.5186 -47.5186 -47.5186 -47.5186
   -47.5186 -47.5186 -47.5186 -47.5186 -47.5186 -47.5186 -47.5186 -47.5186
   -47.5186 -47.5186 -47.5186 -47.5185 -47.5185 -47.5185 -47.5185 -47.5184
    -0.3760  -0.3760  -0.2698  -0.2698  -0.2663  -0.2663  -0.2625  -0.2625
    -0.2607  -0.2607  -0.2560  -0.2560  -0.2544  -0.2544  -0.2528  -0.2528
    -0.2512  -0.2512  -0.2458  -0.2458  -0.2379  -0.2379  -0.2248  -0.2248
    -0.2201  -0.2200  -0.2195  -0.2195  -0.2161  -0.2160  -0.2092  -0.2092
    -0.1979  -0.1979  -0.1945  -0.1945  -0.1917  -0.1916  -0.1863  -0.1863
    -0.1805  -0.1805  -0.1802  -0.1801  -0.1799  -0.1799  -0.1706  -0.1706
    -0.1704  -0.1704  -0.1653  -0.1653  -0.1644  -0.1644  -0.1639  -0.1639
    -0.1591  -0.1591  -0.1579  -0.1579  -0.1499  -0.1499  -0.1448  -0.1448
    -0.1416  -0.1416  -0.1411  -0.1411  -0.1382  -0.1382  -0.1366  -0.1366
    -0.1359  -0.1359  -0.1356  -0.1356  -0.1326  -0.1326  -0.1324  -0.1324
    -0.1295  -0.1295  -0.1285  -0.1285  -0.1263  -0.1263  -0.1221  -0.1221
    -0.1200  -0.1200  -0.1178  -0.1178  -0.1005  -0.1005  -0.0949  -0.0949
    -0.0813  -0.0813  -0.0804  -0.0804  -0.0673  -0.0673  -0.0623  -0.0623
    -0.0618  -0.0618  -0.0597  -0.0597  -0.0562  -0.0562  -0.0542  -0.0541
    -0.0462  -0.0462  -0.0437  -0.0437  -0.0417  -0.0417  -0.0415  -0.0415
    -0.0394  -0.0394  -0.0370  -0.0370  -0.0353  -0.0353  -0.0343  -0.0343
    -0.0256  -0.0256  -0.0251  -0.0251  -0.0240  -0.0240  -0.0239  -0.0239
    -0.0177  -0.0177  -0.0164  -0.0164  -0.0085  -0.0085  -0.0084  -0.0084
    -0.0080  -0.0080  -0.0068  -0.0068  -0.0067  -0.0067  -0.0065  -0.0065
    -0.0052  -0.0052  -0.0050  -0.0050   0.0010   0.0010   0.0210   0.0210
     0.0213   0.0214   0.2998   0.2998   0.4806   0.4806   0.6630   0.6631
     0.8435   0.8435   1.0357   1.0358   1.2050   1.2051   1.3834   1.3834
     1.5088   1.5088   1.6320   1.6320   1.8237   1.8237   1.9316   1.9316
     2.0255   2.0255   2.1266   2.1266   2.2586   2.2586   2.3910   2.3910
     3.3876   3.3876   3.5119   3.5119   3.8193   3.8193   3.8221   3.8221
     3.9356   3.9356   3.9980   3.9980   4.0171   4.0171   4.0931   4.0931
     4.2301   4.2301   4.3882   4.3882   4.5933   4.5933   4.7930   4.7930
     5.0516   5.0516

          k = 0.0320 0.1599 0.1599 (158063 PWs)   bands (ev):

   -81.6981 -81.6978 -81.6978 -81.6978 -81.6977 -81.6977 -81.6977 -81.6977
   -81.6977 -81.6977 -81.6977 -81.6977 -81.6977 -81.6977 -81.6977 -81.6977
   -81.6977 -81.6977 -81.6977 -81.6977 -81.6977 -81.6977 -81.6977 -81.6977
   -81.6977 -81.6977 -81.6977 -81.6977 -81.6977 -81.6977 -81.6977 -81.6975
   -47.5190 -47.5190 -47.5190 -47.5189 -47.5189 -47.5189 -47.5189 -47.5189
   -47.5189 -47.5189 -47.5189 -47.5189 -47.5189 -47.5189 -47.5188 -47.5188
   -47.5188 -47.5188 -47.5188 -47.5188 -47.5188 -47.5188 -47.5188 -47.5188
   -47.5188 -47.5188 -47.5188 -47.5188 -47.5188 -47.5188 -47.5188 -47.5187
   -47.5187 -47.5187 -47.5187 -47.5187 -47.5187 -47.5187 -47.5187 -47.5187
   -47.5187 -47.5187 -47.5187 -47.5187 -47.5187 -47.5187 -47.5187 -47.5187
   -47.5187 -47.5187 -47.5187 -47.5187 -47.5187 -47.5187 -47.5187 -47.5187
   -47.5187 -47.5186 -47.5186 -47.5186 -47.5186 -47.5186 -47.5186 -47.5186
   -47.5186 -47.5186 -47.5186 -47.5186 -47.5186 -47.5186 -47.5186 -47.5186
   -47.5186 -47.5186 -47.5186 -47.5186 -47.5186 -47.5186 -47.5186 -47.5186
   -47.5186 -47.5186 -47.5186 -47.5186 -47.5186 -47.5186 -47.5186 -47.5186
   -47.5186 -47.5186 -47.5186 -47.5186 -47.5186 -47.5185 -47.5185 -47.5185
    -0.4742  -0.2866  -0.2810  -0.2797  -0.2758  -0.2758  -0.2705  -0.2705
    -0.2655  -0.2655  -0.2548  -0.2464  -0.2464  -0.2366  -0.2366  -0.2313
    -0.2298  -0.2298  -0.2294  -0.2258  -0.2258  -0.2258  -0.2200  -0.2200
    -0.2189  -0.2189  -0.2184  -0.2184  -0.2125  -0.2125  -0.2123  -0.2123
    -0.2094  -0.2094  -0.2011  -0.2011  -0.1995  -0.1995  -0.1922  -0.1905
    -0.1905  -0.1900  -0.1900  -0.1781  -0.1781  -0.1777  -0.1777  -0.1735
    -0.1735  -0.1727  -0.1718  -0.1698  -0.1698  -0.1697  -0.1697  -0.1682
    -0.1626  -0.1626  -0.1623  -0.1587  -0.1585  -0.1585  -0.1580  -0.1526
    -0.1508  -0.1471  -0.1466  -0.1402  -0.1402  -0.1396  -0.1396  -0.1330
    -0.1269  -0.1269  -0.1265  -0.1265  -0.1222  -0.1221  -0.1198  -0.1189
    -0.1189  -0.1146  -0.1146  -0.1123  -0.1075  -0.1047  -0.1047  -0.1030
    -0.1028  -0.1013  -0.1013  -0.0987  -0.0987  -0.0935  -0.0912  -0.0891
    -0.0891  -0.0864  -0.0814  -0.0814  -0.0791  -0.0791  -0.0783  -0.0783
    -0.0774  -0.0757  -0.0757  -0.0707  -0.0668  -0.0668  -0.0667  -0.0618
    -0.0618  -0.0547  -0.0547  -0.0470  -0.0470  -0.0448  -0.0448  -0.0372
    -0.0372  -0.0369  -0.0369  -0.0351  -0.0351  -0.0306  -0.0306  -0.0273
    -0.0259  -0.0259  -0.0254  -0.0243  -0.0243  -0.0232  -0.0215  -0.0186
    -0.0186  -0.0177  -0.0176  -0.0167  -0.0167  -0.0166  -0.0142  -0.0120
    -0.0120  -0.0054  -0.0011   0.0033   0.0033   0.0038   0.0038   0.0041
     0.0086   0.0086   0.0141   0.0141   0.0147   0.0147   0.0156   0.0156
     0.0177   0.0291   0.0291   0.3706   0.3868   0.5544   0.7522   0.7522
     0.9187   0.9187   0.9312   0.9312   1.1158   1.2746   1.2746   1.2796
     1.5817   1.5817   1.7103   1.7103   1.7127   1.7127   1.9575   1.9575
     1.9668   2.1544   2.1544   2.1959   2.1959   2.3625   2.3625   2.3765
     3.1056   3.1056   3.5437   3.6892   3.7128   3.8182   3.8182   3.9451
     3.9452   3.9716   3.9716   4.0911   4.0911   4.1305   4.1305   4.2180
     4.2311   4.2311   4.6062   4.6063   4.6638   4.6639   4.6799   4.7648
     4.7650   4.8003

          k = 0.0320 0.1599 0.2239 (158037 PWs)   bands (ev):

   -81.6981 -81.6978 -81.6978 -81.6978 -81.6977 -81.6977 -81.6977 -81.6977
   -81.6977 -81.6977 -81.6977 -81.6977 -81.6977 -81.6977 -81.6977 -81.6977
   -81.6977 -81.6977 -81.6977 -81.6977 -81.6977 -81.6977 -81.6977 -81.6977
   -81.6977 -81.6977 -81.6977 -81.6977 -81.6977 -81.6977 -81.6977 -81.6975
   -47.5190 -47.5190 -47.5190 -47.5189 -47.5189 -47.5189 -47.5189 -47.5189
   -47.5189 -47.5189 -47.5189 -47.5189 -47.5189 -47.5189 -47.5189 -47.5188
   -47.5188 -47.5188 -47.5188 -47.5188 -47.5188 -47.5188 -47.5188 -47.5188
   -47.5188 -47.5188 -47.5188 -47.5188 -47.5188 -47.5188 -47.5187 -47.5187
   -47.5187 -47.5187 -47.5187 -47.5187 -47.5187 -47.5187 -47.5187 -47.5187
   -47.5187 -47.5187 -47.5187 -47.5187 -47.5187 -47.5187 -47.5187 -47.5187
   -47.5187 -47.5187 -47.5187 -47.5187 -47.5187 -47.5187 -47.5187 -47.5187
   -47.5186 -47.5186 -47.5186 -47.5186 -47.5186 -47.5186 -47.5186 -47.5186
   -47.5186 -47.5186 -47.5186 -47.5186 -47.5186 -47.5186 -47.5186 -47.5186
   -47.5186 -47.5186 -47.5186 -47.5186 -47.5186 -47.5186 -47.5186 -47.5186
   -47.5186 -47.5186 -47.5186 -47.5186 -47.5186 -47.5186 -47.5186 -47.5186
   -47.5186 -47.5186 -47.5186 -47.5185 -47.5185 -47.5185 -47.5185 -47.5185
    -0.4158  -0.2780  -0.2736  -0.2719  -0.2704  -0.2673  -0.2658  -0.2583
    -0.2578  -0.2571  -0.2555  -0.2541  -0.2516  -0.2490  -0.2437  -0.2406
    -0.2389  -0.2383  -0.2365  -0.2353  -0.2338  -0.2321  -0.2306  -0.2297
    -0.2291  -0.2286  -0.2279  -0.2252  -0.2146  -0.2145  -0.2141  -0.2086
    -0.2074  -0.2051  -0.2048  -0.2047  -0.2044  -0.2033  -0.1963  -0.1951
    -0.1875  -0.1846  -0.1840  -0.1839  -0.1815  -0.1815  -0.1788  -0.1775
    -0.1761  -0.1743  -0.1730  -0.1728  -0.1727  -0.1727  -0.1717  -0.1620
    -0.1619  -0.1605  -0.1578  -0.1573  -0.1561  -0.1534  -0.1469  -0.1458
    -0.1457  -0.1457  -0.1406  -0.1395  -0.1326  -0.1308  -0.1305  -0.1303
    -0.1278  -0.1274  -0.1274  -0.1271  -0.1260  -0.1244  -0.1223  -0.1222
    -0.1185  -0.1159  -0.1148  -0.1147  -0.1126  -0.1117  -0.1096  -0.1083
    -0.1063  -0.1054  -0.1048  -0.1033  -0.0966  -0.0946  -0.0930  -0.0917
    -0.0899  -0.0870  -0.0825  -0.0802  -0.0791  -0.0774  -0.0755  -0.0703
    -0.0686  -0.0679  -0.0667  -0.0658  -0.0655  -0.0637  -0.0636  -0.0633
    -0.0623  -0.0611  -0.0526  -0.0512  -0.0406  -0.0404  -0.0385  -0.0377
    -0.0376  -0.0376  -0.0376  -0.0351  -0.0344  -0.0340  -0.0337  -0.0288
    -0.0281  -0.0257  -0.0247  -0.0234  -0.0222  -0.0222  -0.0219  -0.0188
    -0.0188  -0.0187  -0.0151  -0.0143  -0.0138  -0.0130  -0.0097  -0.0097
    -0.0089  -0.0085  -0.0053  -0.0049  -0.0049  -0.0009   0.0014   0.0014
     0.0020   0.0035   0.0037   0.0049   0.0053   0.0081   0.0142   0.0149
     0.0154   0.0156   0.0878   0.2660   0.4367   0.6204   0.6286   0.8101
     0.8150   0.9820   0.9929   0.9988   1.1616   1.1625   1.1699   1.4957
     1.6212   1.6891   1.6990   1.7372   1.7510   1.7641   1.8707   1.9467
     1.9957   2.0823   2.0973   2.0973   2.1192   2.2987   2.3750   2.3793
     3.1852   3.2375   3.5587   3.6736   3.7670   3.7709   3.7766   3.8452
     3.8717   3.8770   3.9548   3.9914   4.1206   4.1740   4.1931   4.2002
     4.3147   4.3478   4.4213   4.5045   4.5306   4.5578   4.6133   4.8100
     4.8397   4.9361

          k = 0.0320 0.1599-0.2879 (158016 PWs)   bands (ev):

   -81.6981 -81.6978 -81.6978 -81.6978 -81.6977 -81.6977 -81.6977 -81.6977
   -81.6977 -81.6977 -81.6977 -81.6977 -81.6977 -81.6977 -81.6977 -81.6977
   -81.6977 -81.6977 -81.6977 -81.6977 -81.6977 -81.6977 -81.6977 -81.6977
   -81.6977 -81.6977 -81.6977 -81.6977 -81.6977 -81.6977 -81.6977 -81.6975
   -47.5190 -47.5190 -47.5190 -47.5189 -47.5189 -47.5189 -47.5189 -47.5189
   -47.5189 -47.5189 -47.5189 -47.5189 -47.5189 -47.5189 -47.5189 -47.5188
   -47.5188 -47.5188 -47.5188 -47.5188 -47.5188 -47.5188 -47.5188 -47.5188
   -47.5188 -47.5188 -47.5188 -47.5188 -47.5188 -47.5188 -47.5188 -47.5187
   -47.5187 -47.5187 -47.5187 -47.5187 -47.5187 -47.5187 -47.5187 -47.5187
   -47.5187 -47.5187 -47.5187 -47.5187 -47.5187 -47.5187 -47.5187 -47.5187
   -47.5187 -47.5187 -47.5187 -47.5187 -47.5187 -47.5187 -47.5187 -47.5186
   -47.5186 -47.5186 -47.5186 -47.5186 -47.5186 -47.5186 -47.5186 -47.5186
   -47.5186 -47.5186 -47.5186 -47.5186 -47.5186 -47.5186 -47.5186 -47.5186
   -47.5186 -47.5186 -47.5186 -47.5186 -47.5186 -47.5186 -47.5186 -47.5186
   -47.5186 -47.5186 -47.5186 -47.5186 -47.5186 -47.5186 -47.5186 -47.5186
   -47.5186 -47.5185 -47.5185 -47.5185 -47.5185 -47.5185 -47.5185 -47.5184
    -0.3432  -0.3431  -0.2653  -0.2653  -0.2642  -0.2642  -0.2636  -0.2636
    -0.2593  -0.2593  -0.2526  -0.2526  -0.2464  -0.2464  -0.2439  -0.2439
    -0.2436  -0.2436  -0.2403  -0.2403  -0.2385  -0.2385  -0.2310  -0.2310
    -0.2306  -0.2306  -0.2276  -0.2276  -0.2245  -0.2245  -0.2098  -0.2098
    -0.2093  -0.2093  -0.1992  -0.1992  -0.1968  -0.1968  -0.1951  -0.1951
    -0.1945  -0.1945  -0.1902  -0.1902  -0.1775  -0.1775  -0.1765  -0.1765
    -0.1756  -0.1755  -0.1754  -0.1754  -0.1746  -0.1746  -0.1618  -0.1618
    -0.1609  -0.1609  -0.1572  -0.1572  -0.1530  -0.1530  -0.1465  -0.1465
    -0.1391  -0.1391  -0.1382  -0.1382  -0.1329  -0.1329  -0.1308  -0.1308
    -0.1252  -0.1252  -0.1235  -0.1235  -0.1226  -0.1226  -0.1200  -0.1200
    -0.1199  -0.1199  -0.1196  -0.1196  -0.1133  -0.1133  -0.1110  -0.1110
    -0.1081  -0.1081  -0.1053  -0.1053  -0.1037  -0.1037  -0.0962  -0.0962
    -0.0940  -0.0939  -0.0798  -0.0797  -0.0756  -0.0756  -0.0709  -0.0709
    -0.0694  -0.0694  -0.0568  -0.0568  -0.0552  -0.0552  -0.0545  -0.0545
    -0.0541  -0.0541  -0.0525  -0.0525  -0.0510  -0.0510  -0.0478  -0.0478
    -0.0405  -0.0405  -0.0395  -0.0395  -0.0387  -0.0387  -0.0350  -0.0350
    -0.0282  -0.0282  -0.0247  -0.0247  -0.0183  -0.0183  -0.0152  -0.0152
    -0.0147  -0.0147  -0.0120  -0.0120  -0.0096  -0.0096  -0.0062  -0.0062
    -0.0053  -0.0053  -0.0043  -0.0043  -0.0032  -0.0032  -0.0026  -0.0026
    -0.0022  -0.0022  -0.0021  -0.0021   0.0010   0.0010   0.0146   0.0147
     0.0151   0.0151   0.1664   0.1664   0.5231   0.5231   0.7060   0.7061
     0.8977   0.8977   1.0635   1.0635   1.0732   1.0732   1.4209   1.4209
     1.6640   1.6640   1.7226   1.7226   1.7549   1.7549   1.9348   1.9348
     2.0094   2.0094   2.0433   2.0433   2.2097   2.2097   2.3796   2.3797
     3.3417   3.3417   3.4326   3.4326   3.7778   3.7778   3.8459   3.8460
     3.8685   3.8686   4.0355   4.0355   4.1555   4.1556   4.1978   4.1978
     4.2203   4.2203   4.4751   4.4751   4.4944   4.4944   4.7637   4.7638
     4.9941   4.9941

          k = 0.0320 0.2239 0.2239 (158056 PWs)   bands (ev):

   -81.6981 -81.6978 -81.6978 -81.6978 -81.6977 -81.6977 -81.6977 -81.6977
   -81.6977 -81.6977 -81.6977 -81.6977 -81.6977 -81.6977 -81.6977 -81.6977
   -81.6977 -81.6977 -81.6977 -81.6977 -81.6977 -81.6977 -81.6977 -81.6977
   -81.6977 -81.6977 -81.6977 -81.6977 -81.6977 -81.6977 -81.6977 -81.6975
   -47.5190 -47.5190 -47.5190 -47.5189 -47.5189 -47.5189 -47.5189 -47.5189
   -47.5189 -47.5189 -47.5189 -47.5189 -47.5189 -47.5189 -47.5188 -47.5188
   -47.5188 -47.5188 -47.5188 -47.5188 -47.5188 -47.5188 -47.5188 -47.5188
   -47.5188 -47.5188 -47.5188 -47.5188 -47.5188 -47.5188 -47.5187 -47.5187
   -47.5187 -47.5187 -47.5187 -47.5187 -47.5187 -47.5187 -47.5187 -47.5187
   -47.5187 -47.5187 -47.5187 -47.5187 -47.5187 -47.5187 -47.5187 -47.5187
   -47.5187 -47.5187 -47.5187 -47.5187 -47.5187 -47.5187 -47.5187 -47.5187
   -47.5187 -47.5186 -47.5186 -47.5186 -47.5186 -47.5186 -47.5186 -47.5186
   -47.5186 -47.5186 -47.5186 -47.5186 -47.5186 -47.5186 -47.5186 -47.5186
   -47.5186 -47.5186 -47.5186 -47.5186 -47.5186 -47.5186 -47.5186 -47.5186
   -47.5186 -47.5186 -47.5186 -47.5186 -47.5186 -47.5186 -47.5186 -47.5186
   -47.5186 -47.5186 -47.5185 -47.5185 -47.5185 -47.5185 -47.5185 -47.5185
    -0.3623  -0.2715  -0.2698  -0.2653  -0.2607  -0.2607  -0.2521  -0.2521
    -0.2474  -0.2474  -0.2467  -0.2467  -0.2466  -0.2466  -0.2458  -0.2458
    -0.2440  -0.2431  -0.2431  -0.2408  -0.2408  -0.2375  -0.2374  -0.2321
    -0.2320  -0.2257  -0.2226  -0.2226  -0.2225  -0.2225  -0.2209  -0.2209
    -0.2191  -0.2191  -0.2175  -0.2175  -0.2042  -0.2042  -0.2035  -0.1951
    -0.1951  -0.1922  -0.1922  -0.1872  -0.1872  -0.1832  -0.1832  -0.1802
    -0.1802  -0.1787  -0.1787  -0.1766  -0.1766  -0.1743  -0.1722  -0.1604
    -0.1600  -0.1572  -0.1572  -0.1565  -0.1537  -0.1537  -0.1532  -0.1447
    -0.1437  -0.1410  -0.1351  -0.1313  -0.1275  -0.1275  -0.1269  -0.1269
    -0.1210  -0.1210  -0.1203  -0.1203  -0.1202  -0.1202  -0.1197  -0.1159
    -0.1152  -0.1152  -0.1144  -0.1103  -0.1063  -0.1048  -0.1048  -0.1004
    -0.1004  -0.0974  -0.0973  -0.0953  -0.0928  -0.0894  -0.0894  -0.0878
    -0.0851  -0.0851  -0.0828  -0.0797  -0.0797  -0.0780  -0.0780  -0.0765
    -0.0765  -0.0750  -0.0750  -0.0745  -0.0745  -0.0725  -0.0725  -0.0682
    -0.0682  -0.0566  -0.0549  -0.0545  -0.0507  -0.0507  -0.0477  -0.0459
    -0.0459  -0.0427  -0.0427  -0.0307  -0.0296  -0.0296  -0.0269  -0.0239
    -0.0239  -0.0232  -0.0232  -0.0181  -0.0180  -0.0180  -0.0161  -0.0161
    -0.0101  -0.0094  -0.0091  -0.0091  -0.0074  -0.0074  -0.0062  -0.0062
    -0.0058  -0.0043  -0.0043  -0.0035  -0.0035   0.0010   0.0020   0.0020
     0.0022   0.0022   0.0038   0.0038   0.0057   0.0057   0.0058   0.0058
     0.0071   0.0071   0.0106   0.1519   0.5015   0.6852   0.6918   0.6918
     0.8729   0.8729   0.8785   1.0549   1.2221   1.2221   1.3907   1.3907
     1.7369   1.7370   1.7857   1.7858   1.7930   1.7930   1.8686   1.8686
     1.8693   1.8694   2.0424   2.0424   2.1967   2.3354   2.3354   2.3726
     3.2617   3.2617   3.5400   3.5400   3.6216   3.6217   3.7021   3.7021
     3.8426   4.0137   4.0551   4.0551   4.1772   4.1996   4.3786   4.3787
     4.4157   4.4157   4.4792   4.5517   4.5518   4.6239   4.6239   4.7493
     4.7493   4.7502

          k = 0.0320 0.2239-0.2879 (157988 PWs)   bands (ev):

   -81.6981 -81.6978 -81.6978 -81.6978 -81.6977 -81.6977 -81.6977 -81.6977
   -81.6977 -81.6977 -81.6977 -81.6977 -81.6977 -81.6977 -81.6977 -81.6977
   -81.6977 -81.6977 -81.6977 -81.6977 -81.6977 -81.6977 -81.6977 -81.6977
   -81.6977 -81.6977 -81.6977 -81.6977 -81.6977 -81.6977 -81.6977 -81.6975
   -47.5190 -47.5190 -47.5190 -47.5189 -47.5189 -47.5189 -47.5189 -47.5189
   -47.5189 -47.5189 -47.5189 -47.5189 -47.5189 -47.5188 -47.5188 -47.5188
   -47.5188 -47.5188 -47.5188 -47.5188 -47.5188 -47.5188 -47.5188 -47.5188
   -47.5188 -47.5188 -47.5188 -47.5188 -47.5188 -47.5188 -47.5187 -47.5187
   -47.5187 -47.5187 -47.5187 -47.5187 -47.5187 -47.5187 -47.5187 -47.5187
   -47.5187 -47.5187 -47.5187 -47.5187 -47.5187 -47.5187 -47.5187 -47.5187
   -47.5187 -47.5187 -47.5187 -47.5187 -47.5187 -47.5187 -47.5187 -47.5187
   -47.5187 -47.5186 -47.5186 -47.5186 -47.5186 -47.5186 -47.5186 -47.5186
   -47.5186 -47.5186 -47.5186 -47.5186 -47.5186 -47.5186 -47.5186 -47.5186
   -47.5186 -47.5186 -47.5186 -47.5186 -47.5186 -47.5186 -47.5186 -47.5186
   -47.5186 -47.5186 -47.5186 -47.5186 -47.5186 -47.5186 -47.5186 -47.5186
   -47.5186 -47.5185 -47.5185 -47.5185 -47.5185 -47.5185 -47.5185 -47.5185
    -0.2994  -0.2994  -0.2626  -0.2626  -0.2612  -0.2612  -0.2555  -0.2555
    -0.2543  -0.2543  -0.2496  -0.2496  -0.2478  -0.2478  -0.2436  -0.2436
    -0.2411  -0.2411  -0.2352  -0.2352  -0.2351  -0.2351  -0.2341  -0.2341
    -0.2335  -0.2335  -0.2322  -0.2322  -0.2268  -0.2268  -0.2185  -0.2185
    -0.2139  -0.2139  -0.2100  -0.2100  -0.2092  -0.2092  -0.2091  -0.2091
    -0.2074  -0.2074  -0.1877  -0.1877  -0.1833  -0.1833  -0.1803  -0.1803
    -0.1791  -0.1791  -0.1764  -0.1764  -0.1761  -0.1761  -0.1754  -0.1754
    -0.1587  -0.1587  -0.1550  -0.1550  -0.1529  -0.1529  -0.1490  -0.1490
    -0.1368  -0.1368  -0.1348  -0.1348  -0.1280  -0.1280  -0.1247  -0.1247
    -0.1227  -0.1227  -0.1220  -0.1220  -0.1157  -0.1157  -0.1092  -0.1092
    -0.1092  -0.1091  -0.1088  -0.1088  -0.1022  -0.1022  -0.0990  -0.0990
    -0.0971  -0.0971  -0.0969  -0.0969  -0.0940  -0.0940  -0.0912  -0.0912
    -0.0859  -0.0859  -0.0834  -0.0834  -0.0831  -0.0831  -0.0809  -0.0809
    -0.0760  -0.0760  -0.0705  -0.0705  -0.0669  -0.0669  -0.0646  -0.0646
    -0.0640  -0.0640  -0.0633  -0.0633  -0.0587  -0.0587  -0.0492  -0.0492
    -0.0473  -0.0473  -0.0371  -0.0371  -0.0343  -0.0343  -0.0252  -0.0252
    -0.0247  -0.0247  -0.0164  -0.0164  -0.0140  -0.0140  -0.0119  -0.0119
    -0.0117  -0.0117  -0.0102  -0.0102  -0.0077  -0.0077  -0.0052  -0.0052
    -0.0029  -0.0029  -0.0025  -0.0025  -0.0011  -0.0011  -0.0004  -0.0004
    -0.0002  -0.0002  -0.0000  -0.0000   0.0003   0.0003   0.0064   0.0064
     0.0074   0.0074   0.0644   0.0644   0.5869   0.5869   0.7698   0.7698
     0.7755   0.7755   0.9550   0.9550   1.2988   1.2988   1.4755   1.4756
     1.6288   1.6288   1.7976   1.7976   1.8000   1.8000   1.8479   1.8479
     1.9297   1.9297   1.9727   1.9727   2.2765   2.2765   2.3591   2.3591
     3.3648   3.3648   3.4123   3.4123   3.5869   3.5869   3.6281   3.6281
     3.9401   3.9402   4.1257   4.1257   4.2738   4.2738   4.4020   4.4021
     4.4659   4.4659   4.5039   4.5039   4.5653   4.5653   4.7157   4.7161
     4.7774   4.7774

          k = 0.0320-0.2879-0.2879 (157956 PWs)   bands (ev):

   -81.6981 -81.6978 -81.6978 -81.6978 -81.6977 -81.6977 -81.6977 -81.6977
   -81.6977 -81.6977 -81.6977 -81.6977 -81.6977 -81.6977 -81.6977 -81.6977
   -81.6977 -81.6977 -81.6977 -81.6977 -81.6977 -81.6977 -81.6977 -81.6977
   -81.6977 -81.6977 -81.6977 -81.6977 -81.6977 -81.6977 -81.6977 -81.6975
   -47.5190 -47.5190 -47.5190 -47.5189 -47.5189 -47.5189 -47.5189 -47.5189
   -47.5189 -47.5189 -47.5189 -47.5188 -47.5188 -47.5188 -47.5188 -47.5188
   -47.5188 -47.5188 -47.5188 -47.5188 -47.5188 -47.5188 -47.5188 -47.5188
   -47.5188 -47.5188 -47.5188 -47.5188 -47.5188 -47.5188 -47.5188 -47.5188
   -47.5187 -47.5187 -47.5187 -47.5187 -47.5187 -47.5187 -47.5187 -47.5187
   -47.5187 -47.5187 -47.5187 -47.5187 -47.5187 -47.5187 -47.5187 -47.5187
   -47.5187 -47.5187 -47.5187 -47.5187 -47.5187 -47.5187 -47.5187 -47.5187
   -47.5186 -47.5186 -47.5186 -47.5186 -47.5186 -47.5186 -47.5186 -47.5186
   -47.5186 -47.5186 -47.5186 -47.5186 -47.5186 -47.5186 -47.5186 -47.5186
   -47.5186 -47.5186 -47.5186 -47.5186 -47.5186 -47.5186 -47.5186 -47.5186
   -47.5186 -47.5186 -47.5186 -47.5186 -47.5186 -47.5186 -47.5186 -47.5185
   -47.5185 -47.5185 -47.5185 -47.5185 -47.5185 -47.5185 -47.5185 -47.5185
    -0.2577  -0.2577  -0.2577  -0.2577  -0.2541  -0.2541  -0.2541  -0.2540
    -0.2539  -0.2539  -0.2539  -0.2539  -0.2495  -0.2495  -0.2495  -0.2494
    -0.2419  -0.2419  -0.2419  -0.2419  -0.2419  -0.2419  -0.2419  -0.2419
    -0.2228  -0.2228  -0.2228  -0.2228  -0.2228  -0.2228  -0.2227  -0.2227
    -0.2217  -0.2217  -0.2217  -0.2217  -0.2217  -0.2217  -0.2217  -0.2217
    -0.1927  -0.1927  -0.1927  -0.1927  -0.1837  -0.1837  -0.1837  -0.1837
    -0.1836  -0.1836  -0.1836  -0.1836  -0.1750  -0.1750  -0.1750  -0.1750
    -0.1554  -0.1554  -0.1554  -0.1553  -0.1521  -0.1521  -0.1521  -0.1521
    -0.1325  -0.1325  -0.1325  -0.1325  -0.1291  -0.1291  -0.1291  -0.1291
    -0.1213  -0.1213  -0.1213  -0.1213  -0.1105  -0.1105  -0.1105  -0.1105
    -0.0976  -0.0976  -0.0976  -0.0976  -0.0976  -0.0976  -0.0976  -0.0976
    -0.0884  -0.0884  -0.0884  -0.0883  -0.0866  -0.0866  -0.0866  -0.0866
    -0.0803  -0.0803  -0.0803  -0.0803  -0.0801  -0.0801  -0.0801  -0.0801
    -0.0801  -0.0801  -0.0801  -0.0801  -0.0774  -0.0774  -0.0774  -0.0774
    -0.0774  -0.0774  -0.0774  -0.0774  -0.0591  -0.0591  -0.0591  -0.0591
    -0.0415  -0.0415  -0.0415  -0.0414  -0.0167  -0.0167  -0.0167  -0.0167
    -0.0167  -0.0167  -0.0167  -0.0167  -0.0115  -0.0115  -0.0115  -0.0115
    -0.0036  -0.0036  -0.0036  -0.0036  -0.0036  -0.0036  -0.0036  -0.0036
    -0.0035  -0.0035  -0.0035  -0.0035  -0.0015  -0.0015  -0.0015  -0.0015
     0.0008   0.0008   0.0008   0.0008   0.0008   0.0008   0.0008   0.0008
     0.0013   0.0013   0.0013   0.0013   0.6714   0.6714   0.6714   0.6714
     0.8532   0.8533   0.8533   0.8533   1.5455   1.5456   1.5456   1.5456
     1.5456   1.5456   1.5456   1.5456   1.9046   1.9047   1.9047   1.9047
     1.9047   1.9047   1.9047   1.9047   2.3257   2.3258   2.3258   2.3258
     3.4624   3.4624   3.4624   3.4624   3.4625   3.4625   3.4625   3.4625
     4.0298   4.0298   4.0298   4.0298   4.5328   4.5328   4.5329   4.5329
     4.6087   4.6087   4.6087   4.6087   4.6483   4.6483   4.7297   4.7305
     4.7311   4.7313

          k = 0.0960 0.0960 0.0960 (158130 PWs)   bands (ev):

   -81.6981 -81.6978 -81.6978 -81.6978 -81.6977 -81.6977 -81.6977 -81.6977
   -81.6977 -81.6977 -81.6977 -81.6977 -81.6977 -81.6977 -81.6977 -81.6977
   -81.6977 -81.6977 -81.6977 -81.6977 -81.6977 -81.6977 -81.6977 -81.6977
   -81.6977 -81.6977 -81.6977 -81.6977 -81.6977 -81.6977 -81.6977 -81.6975
   -47.5190 -47.5190 -47.5190 -47.5189 -47.5189 -47.5189 -47.5189 -47.5189
   -47.5189 -47.5189 -47.5189 -47.5189 -47.5189 -47.5188 -47.5188 -47.5188
   -47.5188 -47.5188 -47.5188 -47.5188 -47.5188 -47.5188 -47.5188 -47.5188
   -47.5188 -47.5188 -47.5188 -47.5188 -47.5188 -47.5188 -47.5188 -47.5188
   -47.5188 -47.5188 -47.5187 -47.5187 -47.5187 -47.5187 -47.5187 -47.5187
   -47.5187 -47.5187 -47.5187 -47.5187 -47.5187 -47.5187 -47.5187 -47.5187
   -47.5187 -47.5187 -47.5187 -47.5187 -47.5187 -47.5187 -47.5187 -47.5187
   -47.5187 -47.5187 -47.5186 -47.5186 -47.5186 -47.5186 -47.5186 -47.5186
   -47.5186 -47.5186 -47.5186 -47.5186 -47.5186 -47.5186 -47.5186 -47.5186
   -47.5186 -47.5186 -47.5186 -47.5186 -47.5186 -47.5186 -47.5186 -47.5186
   -47.5186 -47.5186 -47.5186 -47.5186 -47.5186 -47.5186 -47.5186 -47.5186
   -47.5186 -47.5186 -47.5186 -47.5186 -47.5186 -47.5185 -47.5185 -47.5185
    -0.5351  -0.2968  -0.2860  -0.2860  -0.2860  -0.2848  -0.2848  -0.2848
    -0.2734  -0.2734  -0.2734  -0.2406  -0.2406  -0.2406  -0.2176  -0.2176
    -0.2176  -0.2141  -0.2141  -0.2141  -0.2141  -0.2141  -0.2141  -0.2138
    -0.2138  -0.2138  -0.2098  -0.2098  -0.2098  -0.2086  -0.2086  -0.2086
    -0.2005  -0.2005  -0.2005  -0.2005  -0.2005  -0.2005  -0.1854  -0.1854
    -0.1854  -0.1854  -0.1854  -0.1854  -0.1798  -0.1797  -0.1797  -0.1736
    -0.1736  -0.1736  -0.1736  -0.1736  -0.1736  -0.1651  -0.1651  -0.1651
    -0.1640  -0.1627  -0.1627  -0.1627  -0.1577  -0.1577  -0.1566  -0.1566
    -0.1520  -0.1520  -0.1520  -0.1503  -0.1503  -0.1503  -0.1186  -0.1186
    -0.1186  -0.1186  -0.1186  -0.1186  -0.1176  -0.1176  -0.1176  -0.1176
    -0.1176  -0.1176  -0.1162  -0.1162  -0.1162  -0.1137  -0.1137  -0.1137
    -0.1047  -0.1047  -0.1047  -0.0911  -0.0911  -0.0911  -0.0904  -0.0904
    -0.0904  -0.0720  -0.0720  -0.0720  -0.0720  -0.0719  -0.0719  -0.0719
    -0.0719  -0.0713  -0.0713  -0.0713  -0.0708  -0.0708  -0.0708  -0.0653
    -0.0653  -0.0653  -0.0637  -0.0637  -0.0637  -0.0517  -0.0517  -0.0517
    -0.0517  -0.0517  -0.0517  -0.0402  -0.0402  -0.0402  -0.0334  -0.0334
    -0.0334  -0.0334  -0.0334  -0.0334  -0.0311  -0.0311  -0.0311  -0.0165
    -0.0165  -0.0165  -0.0134  -0.0134  -0.0134  -0.0071  -0.0070  -0.0070
    -0.0031  -0.0031   0.0065   0.0065   0.0065   0.0102   0.0102   0.0102
     0.0181   0.0181   0.0181   0.0181   0.0181   0.0181   0.0205   0.0205
     0.0205   0.1225   0.1225   0.1225   0.6701   0.6701   0.6701   0.6911
     0.6911   0.6911   1.2171   1.2172   1.2172   1.2172   1.2172   1.2172
     1.2278   1.6138   1.6138   1.6138   1.6738   1.6739   1.6739   2.1943
     2.1944   2.1944   2.3310   2.3310   2.3310   2.3310   2.3310   2.3310
     3.0820   3.0820   3.0820   3.4762   3.7805   3.7805   3.7805   4.0856
     4.0856   4.0856   4.1943   4.1943   4.1943   4.1943   4.1943   4.1943
     4.5212   4.5212   4.5212   4.5212   4.5212   4.5212   4.8409   4.8409
     4.8409   4.8410

          k = 0.0960 0.0960 0.1599 (158079 PWs)   bands (ev):

   -81.6981 -81.6978 -81.6978 -81.6978 -81.6977 -81.6977 -81.6977 -81.6977
   -81.6977 -81.6977 -81.6977 -81.6977 -81.6977 -81.6977 -81.6977 -81.6977
   -81.6977 -81.6977 -81.6977 -81.6977 -81.6977 -81.6977 -81.6977 -81.6977
   -81.6977 -81.6977 -81.6977 -81.6977 -81.6977 -81.6977 -81.6977 -81.6975
   -47.5190 -47.5190 -47.5190 -47.5189 -47.5189 -47.5189 -47.5189 -47.5189
   -47.5189 -47.5189 -47.5189 -47.5189 -47.5189 -47.5189 -47.5189 -47.5188
   -47.5188 -47.5188 -47.5188 -47.5188 -47.5188 -47.5188 -47.5188 -47.5188
   -47.5188 -47.5188 -47.5188 -47.5188 -47.5188 -47.5188 -47.5188 -47.5188
   -47.5187 -47.5187 -47.5187 -47.5187 -47.5187 -47.5187 -47.5187 -47.5187
   -47.5187 -47.5187 -47.5187 -47.5187 -47.5187 -47.5187 -47.5187 -47.5187
   -47.5187 -47.5187 -47.5187 -47.5187 -47.5187 -47.5187 -47.5187 -47.5187
   -47.5187 -47.5186 -47.5186 -47.5186 -47.5186 -47.5186 -47.5186 -47.5186
   -47.5186 -47.5186 -47.5186 -47.5186 -47.5186 -47.5186 -47.5186 -47.5186
   -47.5186 -47.5186 -47.5186 -47.5186 -47.5186 -47.5186 -47.5186 -47.5186
   -47.5186 -47.5186 -47.5186 -47.5186 -47.5186 -47.5186 -47.5186 -47.5186
   -47.5186 -47.5186 -47.5186 -47.5186 -47.5186 -47.5185 -47.5185 -47.5185
    -0.4944  -0.2920  -0.2808  -0.2801  -0.2801  -0.2784  -0.2784  -0.2754
    -0.2679  -0.2635  -0.2635  -0.2505  -0.2380  -0.2380  -0.2317  -0.2301
    -0.2301  -0.2240  -0.2239  -0.2229  -0.2221  -0.2221  -0.2189  -0.2189
    -0.2186  -0.2186  -0.2164  -0.2164  -0.2120  -0.2120  -0.2102  -0.2102
    -0.2071  -0.2071  -0.2019  -0.2019  -0.1988  -0.1988  -0.1974  -0.1974
    -0.1854  -0.1848  -0.1848  -0.1786  -0.1786  -0.1760  -0.1760  -0.1719
    -0.1719  -0.1678  -0.1670  -0.1670  -0.1661  -0.1661  -0.1658  -0.1653
    -0.1653  -0.1627  -0.1602  -0.1602  -0.1579  -0.1562  -0.1555  -0.1525
    -0.1524  -0.1482  -0.1482  -0.1449  -0.1449  -0.1434  -0.1298  -0.1298
    -0.1267  -0.1267  -0.1253  -0.1243  -0.1243  -0.1241  -0.1219  -0.1219
    -0.1171  -0.1162  -0.1162  -0.1162  -0.1162  -0.1132  -0.1132  -0.1071
    -0.1070  -0.1013  -0.0997  -0.0997  -0.0926  -0.0926  -0.0859  -0.0859
    -0.0826  -0.0826  -0.0823  -0.0823  -0.0751  -0.0751  -0.0745  -0.0745
    -0.0698  -0.0698  -0.0692  -0.0650  -0.0650  -0.0644  -0.0644  -0.0626
    -0.0626  -0.0576  -0.0549  -0.0549  -0.0542  -0.0507  -0.0507  -0.0504
    -0.0482  -0.0475  -0.0425  -0.0425  -0.0392  -0.0392  -0.0273  -0.0273
    -0.0236  -0.0236  -0.0232  -0.0232  -0.0231  -0.0231  -0.0220  -0.0220
    -0.0212  -0.0212  -0.0135  -0.0135  -0.0134  -0.0134  -0.0115  -0.0108
    -0.0087  -0.0059   0.0005   0.0005   0.0036   0.0049   0.0056   0.0060
     0.0060   0.0123   0.0123   0.0126   0.0126   0.0168   0.0182   0.0182
     0.0196   0.0196   0.1678   0.1678   0.5487   0.5487   0.7150   0.7150
     0.7330   0.8972   1.0848   1.0848   1.0977   1.2557   1.2558   1.4183
     1.4183   1.5433   1.5433   1.6956   1.6969   1.8309   1.8309   1.9441
     2.2016   2.2016   2.2109   2.2109   2.2854   2.2854   2.3121   2.3121
     3.0788   3.2342   3.2342   3.6913   3.7997   3.8183   3.8183   4.0048
[...]
     1.2603   1.2603   1.2603   1.2603   1.5952   1.5952   1.5952   1.5952
     1.5952   1.5952   1.5952   1.5952   1.8242   1.8242   1.8242   1.8242
     1.8242   1.8242   1.8243   1.8243   2.1009   2.1009   2.1009   2.1009
     3.6452   3.6452   3.6452   3.6452   3.6452   3.6452   3.6452   3.6452
     3.9323   3.9323   3.9323   3.9323   4.2075   4.2075   4.2075   4.2075
     4.3921   4.3921   4.3921   4.3921   4.3921   4.3921   4.3921   4.3921
     5.1080   5.1082

          k = 0.2239 0.2239 0.2239 (158057 PWs)   bands (ev):

   -81.6981 -81.6978 -81.6978 -81.6978 -81.6977 -81.6977 -81.6977 -81.6977
   -81.6977 -81.6977 -81.6977 -81.6977 -81.6977 -81.6977 -81.6977 -81.6977
   -81.6977 -81.6977 -81.6977 -81.6977 -81.6977 -81.6977 -81.6977 -81.6977
   -81.6977 -81.6977 -81.6977 -81.6977 -81.6977 -81.6977 -81.6977 -81.6975
   -47.5190 -47.5190 -47.5190 -47.5189 -47.5189 -47.5189 -47.5189 -47.5189
   -47.5189 -47.5189 -47.5189 -47.5189 -47.5189 -47.5189 -47.5188 -47.5188
   -47.5188 -47.5188 -47.5188 -47.5188 -47.5188 -47.5188 -47.5188 -47.5188
   -47.5188 -47.5188 -47.5188 -47.5187 -47.5187 -47.5187 -47.5187 -47.5187
   -47.5187 -47.5187 -47.5187 -47.5187 -47.5187 -47.5187 -47.5187 -47.5187
   -47.5187 -47.5187 -47.5187 -47.5187 -47.5187 -47.5187 -47.5187 -47.5187
   -47.5187 -47.5187 -47.5187 -47.5187 -47.5187 -47.5187 -47.5187 -47.5187
   -47.5187 -47.5186 -47.5186 -47.5186 -47.5186 -47.5186 -47.5186 -47.5186
   -47.5186 -47.5186 -47.5186 -47.5186 -47.5186 -47.5186 -47.5186 -47.5186
   -47.5186 -47.5186 -47.5186 -47.5186 -47.5186 -47.5186 -47.5186 -47.5186
   -47.5186 -47.5186 -47.5186 -47.5186 -47.5186 -47.5186 -47.5186 -47.5186
   -47.5186 -47.5186 -47.5186 -47.5186 -47.5185 -47.5185 -47.5185 -47.5185
    -0.3030  -0.2767  -0.2623  -0.2623  -0.2623  -0.2613  -0.2613  -0.2613
    -0.2607  -0.2607  -0.2607  -0.2500  -0.2500  -0.2500  -0.2469  -0.2469
    -0.2469  -0.2457  -0.2457  -0.2457  -0.2457  -0.2457  -0.2457  -0.2428
    -0.2428  -0.2428  -0.2405  -0.2405  -0.2405  -0.2405  -0.2405  -0.2405
    -0.2114  -0.2114  -0.2114  -0.1910  -0.1910  -0.1910  -0.1832  -0.1832
    -0.1832  -0.1832  -0.1832  -0.1832  -0.1718  -0.1718  -0.1718  -0.1718
    -0.1718  -0.1718  -0.1672  -0.1672  -0.1672  -0.1648  -0.1648  -0.1648
    -0.1464  -0.1464  -0.1444  -0.1444  -0.1444  -0.1436  -0.1436  -0.1436
    -0.1423  -0.1423  -0.1394  -0.1394  -0.1394  -0.1363  -0.1363  -0.1363
    -0.1072  -0.1072  -0.1072  -0.1031  -0.1030  -0.1030  -0.1030  -0.1030
    -0.1030  -0.0875  -0.0875  -0.0875  -0.0871  -0.0871  -0.0871  -0.0871
    -0.0871  -0.0871  -0.0870  -0.0840  -0.0840  -0.0840  -0.0839  -0.0839
    -0.0839  -0.0755  -0.0755  -0.0755  -0.0740  -0.0740  -0.0740  -0.0740
    -0.0740  -0.0740  -0.0738  -0.0738  -0.0738  -0.0724  -0.0724  -0.0724
    -0.0666  -0.0666  -0.0605  -0.0605  -0.0605  -0.0567  -0.0567  -0.0567
    -0.0567  -0.0567  -0.0567  -0.0496  -0.0496  -0.0496  -0.0494  -0.0494
    -0.0494  -0.0494  -0.0494  -0.0494  -0.0479  -0.0479  -0.0479  -0.0358
    -0.0358   0.0041   0.0041   0.0041   0.0068   0.0068   0.0068   0.0068
     0.0068   0.0068   0.0087   0.0087   0.0087   0.0087   0.0087   0.0087
     0.0090   0.0090   0.0090   0.0091   0.0091   0.0091   0.0132   0.0132
     0.0132   0.0762   0.0762   0.0762   0.2576   0.2576   0.2576   0.4449
     1.3374   1.3374   1.3374   1.4953   1.4954   1.4954   1.4954   1.4954
     1.4954   1.6290   1.6290   1.6290   1.8219   1.8219   1.8219   1.9254
     1.9255   1.9255   1.9255   1.9255   1.9255   1.9661   1.9661   1.9661
     3.6507   3.6507   3.6507   3.6514   3.6514   3.6514   3.9658   3.9658
     3.9658   3.9658   3.9658   3.9658   4.1075   4.1075   4.1075   4.1075
     4.1076   4.1076   4.2228   4.2228   4.2228   4.5325   4.5325   4.5325
     4.9024   5.4622

          k = 0.2239 0.2239-0.2879 (158062 PWs)   bands (ev):

   -81.6981 -81.6978 -81.6978 -81.6978 -81.6977 -81.6977 -81.6977 -81.6977
   -81.6977 -81.6977 -81.6977 -81.6977 -81.6977 -81.6977 -81.6977 -81.6977
   -81.6977 -81.6977 -81.6977 -81.6977 -81.6977 -81.6977 -81.6977 -81.6977
   -81.6977 -81.6977 -81.6977 -81.6977 -81.6977 -81.6977 -81.6977 -81.6975
   -47.5190 -47.5190 -47.5190 -47.5189 -47.5189 -47.5189 -47.5189 -47.5189
   -47.5189 -47.5189 -47.5189 -47.5189 -47.5189 -47.5188 -47.5188 -47.5188
   -47.5188 -47.5188 -47.5188 -47.5188 -47.5188 -47.5188 -47.5188 -47.5188
   -47.5188 -47.5188 -47.5188 -47.5188 -47.5188 -47.5188 -47.5187 -47.5187
   -47.5187 -47.5187 -47.5187 -47.5187 -47.5187 -47.5187 -47.5187 -47.5187
   -47.5187 -47.5187 -47.5187 -47.5187 -47.5187 -47.5187 -47.5187 -47.5187
   -47.5187 -47.5187 -47.5187 -47.5187 -47.5187 -47.5187 -47.5187 -47.5187
   -47.5187 -47.5187 -47.5186 -47.5186 -47.5186 -47.5186 -47.5186 -47.5186
   -47.5186 -47.5186 -47.5186 -47.5186 -47.5186 -47.5186 -47.5186 -47.5186
   -47.5186 -47.5186 -47.5186 -47.5186 -47.5186 -47.5186 -47.5186 -47.5186
   -47.5186 -47.5186 -47.5186 -47.5186 -47.5186 -47.5186 -47.5186 -47.5186
   -47.5186 -47.5186 -47.5186 -47.5186 -47.5186 -47.5185 -47.5185 -47.5185
    -0.2802  -0.2802  -0.2713  -0.2713  -0.2632  -0.2632  -0.2632  -0.2632
    -0.2555  -0.2555  -0.2548  -0.2548  -0.2548  -0.2548  -0.2466  -0.2466
    -0.2466  -0.2465  -0.2456  -0.2456  -0.2456  -0.2456  -0.2447  -0.2446
    -0.2446  -0.2446  -0.2439  -0.2439  -0.2428  -0.2428  -0.2428  -0.2428
    -0.2021  -0.2021  -0.1966  -0.1966  -0.1966  -0.1966  -0.1793  -0.1793
    -0.1793  -0.1793  -0.1777  -0.1777  -0.1777  -0.1777  -0.1722  -0.1722
    -0.1721  -0.1721  -0.1677  -0.1677  -0.1677  -0.1677  -0.1665  -0.1665
    -0.1445  -0.1445  -0.1439  -0.1439  -0.1433  -0.1433  -0.1433  -0.1433
    -0.1427  -0.1427  -0.1400  -0.1400  -0.1385  -0.1385  -0.1385  -0.1385
    -0.1004  -0.1004  -0.1004  -0.1004  -0.0957  -0.0957  -0.0955  -0.0955
    -0.0955  -0.0955  -0.0903  -0.0903  -0.0903  -0.0903  -0.0857  -0.0857
    -0.0857  -0.0857  -0.0816  -0.0816  -0.0816  -0.0816  -0.0805  -0.0805
    -0.0776  -0.0776  -0.0735  -0.0735  -0.0735  -0.0735  -0.0712  -0.0712
    -0.0712  -0.0712  -0.0711  -0.0711  -0.0711  -0.0711  -0.0686  -0.0686
    -0.0686  -0.0686  -0.0651  -0.0651  -0.0651  -0.0651  -0.0610  -0.0610
    -0.0606  -0.0606  -0.0577  -0.0577  -0.0524  -0.0524  -0.0524  -0.0524
    -0.0485  -0.0484  -0.0484  -0.0484  -0.0480  -0.0480  -0.0394  -0.0394
    -0.0176  -0.0176   0.0070   0.0070   0.0070   0.0070   0.0075   0.0075
     0.0085   0.0085   0.0085   0.0085   0.0090   0.0090   0.0090   0.0090
     0.0091   0.0091   0.0091   0.0092   0.0115   0.0115   0.0115   0.0115
     0.0120   0.0120   0.1542   0.1542   0.1542   0.1542   0.3395   0.3396
     1.4098   1.4098   1.4098   1.4098   1.5585   1.5585   1.5585   1.5585
     1.5786   1.5786   1.7145   1.7145   1.7145   1.7145   1.8101   1.8101
     1.8716   1.8716   1.8716   1.8716   1.9505   1.9505   1.9505   1.9505
     3.6197   3.6197   3.7942   3.7943   3.7943   3.7943   3.8681   3.8681
     3.8681   3.8681   4.0181   4.0181   4.0181   4.0181   4.0983   4.0983
     4.0983   4.0983   4.3170   4.3170   4.3170   4.3170   4.3752   4.3752
     5.1774   5.1774

          k = 0.2239-0.2879-0.2879 (158052 PWs)   bands (ev):

   -81.6981 -81.6978 -81.6978 -81.6978 -81.6977 -81.6977 -81.6977 -81.6977
   -81.6977 -81.6977 -81.6977 -81.6977 -81.6977 -81.6977 -81.6977 -81.6977
   -81.6977 -81.6977 -81.6977 -81.6977 -81.6977 -81.6977 -81.6977 -81.6977
   -81.6977 -81.6977 -81.6977 -81.6977 -81.6977 -81.6977 -81.6977 -81.6975
   -47.5190 -47.5190 -47.5190 -47.5189 -47.5189 -47.5189 -47.5189 -47.5189
   -47.5189 -47.5189 -47.5189 -47.5189 -47.5189 -47.5188 -47.5188 -47.5188
   -47.5188 -47.5188 -47.5188 -47.5188 -47.5188 -47.5188 -47.5188 -47.5188
   -47.5188 -47.5188 -47.5188 -47.5187 -47.5187 -47.5187 -47.5187 -47.5187
   -47.5187 -47.5187 -47.5187 -47.5187 -47.5187 -47.5187 -47.5187 -47.5187
   -47.5187 -47.5187 -47.5187 -47.5187 -47.5187 -47.5187 -47.5187 -47.5187
   -47.5187 -47.5187 -47.5187 -47.5187 -47.5187 -47.5187 -47.5187 -47.5187
   -47.5186 -47.5186 -47.5186 -47.5186 -47.5186 -47.5186 -47.5186 -47.5186
   -47.5186 -47.5186 -47.5186 -47.5186 -47.5186 -47.5186 -47.5186 -47.5186
   -47.5186 -47.5186 -47.5186 -47.5186 -47.5186 -47.5186 -47.5186 -47.5186
   -47.5186 -47.5186 -47.5186 -47.5186 -47.5186 -47.5186 -47.5186 -47.5186
   -47.5186 -47.5186 -47.5186 -47.5186 -47.5186 -47.5185 -47.5185 -47.5185
    -0.2717  -0.2717  -0.2717  -0.2717  -0.2693  -0.2693  -0.2693  -0.2693
    -0.2517  -0.2517  -0.2517  -0.2517  -0.2506  -0.2506  -0.2506  -0.2506
    -0.2506  -0.2506  -0.2506  -0.2506  -0.2467  -0.2467  -0.2467  -0.2467
    -0.2445  -0.2445  -0.2445  -0.2445  -0.2445  -0.2445  -0.2445  -0.2445
    -0.1886  -0.1886  -0.1886  -0.1886  -0.1886  -0.1886  -0.1886  -0.1886
    -0.1831  -0.1831  -0.1831  -0.1831  -0.1709  -0.1709  -0.1709  -0.1709
    -0.1700  -0.1700  -0.1700  -0.1700  -0.1700  -0.1700  -0.1700  -0.1700
    -0.1437  -0.1437  -0.1437  -0.1437  -0.1417  -0.1417  -0.1417  -0.1417
    -0.1415  -0.1415  -0.1415  -0.1415  -0.1406  -0.1406  -0.1406  -0.1406
    -0.0918  -0.0918  -0.0918  -0.0918  -0.0918  -0.0918  -0.0918  -0.0918
    -0.0903  -0.0903  -0.0903  -0.0903  -0.0854  -0.0854  -0.0854  -0.0854
    -0.0794  -0.0794  -0.0794  -0.0794  -0.0794  -0.0794  -0.0794  -0.0794
    -0.0785  -0.0785  -0.0785  -0.0785  -0.0785  -0.0785  -0.0785  -0.0785
    -0.0725  -0.0725  -0.0725  -0.0725  -0.0668  -0.0668  -0.0668  -0.0668
    -0.0649  -0.0649  -0.0649  -0.0649  -0.0625  -0.0625  -0.0625  -0.0625
    -0.0625  -0.0625  -0.0625  -0.0625  -0.0588  -0.0588  -0.0588  -0.0588
    -0.0573  -0.0573  -0.0573  -0.0573  -0.0425  -0.0425  -0.0425  -0.0425
     0.0090   0.0090   0.0090   0.0090   0.0090   0.0090   0.0090   0.0090
     0.0098   0.0098   0.0098   0.0098   0.0102   0.0102   0.0102   0.0102
     0.0111   0.0111   0.0111   0.0111   0.0111   0.0111   0.0111   0.0111
     0.0535   0.0536   0.0536   0.0536   0.2345   0.2345   0.2345   0.2346
     1.4787   1.4787   1.4787   1.4787   1.6418   1.6418   1.6418   1.6419
     1.6419   1.6419   1.6419   1.6419   1.7623   1.7624   1.7624   1.7624
     1.7624   1.7624   1.7624   1.7624   1.9117   1.9117   1.9117   1.9117
     3.8060   3.8060   3.8060   3.8060   3.8060   3.8060   3.8060   3.8061
     3.9416   3.9416   3.9416   3.9416   4.0853   4.0853   4.0853   4.0853
     4.1966   4.1966   4.1966   4.1966   4.1966   4.1966   4.1967   4.1967
     5.4534   5.4536

          k =-0.2879-0.2879-0.2879 (158408 PWs)   bands (ev):

   -81.6981 -81.6978 -81.6978 -81.6978 -81.6977 -81.6977 -81.6977 -81.6977
   -81.6977 -81.6977 -81.6977 -81.6977 -81.6977 -81.6977 -81.6977 -81.6977
   -81.6977 -81.6977 -81.6977 -81.6977 -81.6977 -81.6977 -81.6977 -81.6977
   -81.6977 -81.6977 -81.6977 -81.6977 -81.6977 -81.6977 -81.6977 -81.6975
   -47.5190 -47.5190 -47.5190 -47.5189 -47.5189 -47.5189 -47.5189 -47.5189
   -47.5189 -47.5189 -47.5189 -47.5189 -47.5189 -47.5189 -47.5189 -47.5189
   -47.5189 -47.5189 -47.5189 -47.5189 -47.5189 -47.5188 -47.5188 -47.5188
   -47.5188 -47.5188 -47.5188 -47.5188 -47.5187 -47.5187 -47.5187 -47.5187
   -47.5187 -47.5187 -47.5187 -47.5187 -47.5187 -47.5187 -47.5187 -47.5187
   -47.5187 -47.5187 -47.5187 -47.5187 -47.5187 -47.5187 -47.5187 -47.5187
   -47.5187 -47.5187 -47.5187 -47.5187 -47.5187 -47.5187 -47.5187 -47.5187
   -47.5187 -47.5187 -47.5187 -47.5187 -47.5187 -47.5187 -47.5187 -47.5187
   -47.5187 -47.5187 -47.5187 -47.5187 -47.5187 -47.5187 -47.5187 -47.5187
   -47.5187 -47.5187 -47.5187 -47.5187 -47.5187 -47.5186 -47.5186 -47.5186
   -47.5186 -47.5186 -47.5186 -47.5186 -47.5186 -47.5186 -47.5186 -47.5186
   -47.5186 -47.5186 -47.5186 -47.5186 -47.5186 -47.5185 -47.5185 -47.5185
    -0.2719  -0.2719  -0.2719  -0.2719  -0.2719  -0.2719  -0.2719  -0.2719
    -0.2489  -0.2489  -0.2489  -0.2489  -0.2489  -0.2489  -0.2489  -0.2489
    -0.2489  -0.2489  -0.2489  -0.2489  -0.2489  -0.2489  -0.2489  -0.2489
    -0.2489  -0.2489  -0.2489  -0.2489  -0.2489  -0.2489  -0.2489  -0.2489
    -0.1773  -0.1773  -0.1773  -0.1773  -0.1773  -0.1773  -0.1773  -0.1773
    -0.1773  -0.1773  -0.1773  -0.1773  -0.1773  -0.1773  -0.1773  -0.1773
    -0.1773  -0.1773  -0.1773  -0.1773  -0.1773  -0.1773  -0.1773  -0.1773
    -0.1419  -0.1419  -0.1419  -0.1419  -0.1419  -0.1419  -0.1419  -0.1419
    -0.1419  -0.1419  -0.1419  -0.1419  -0.1419  -0.1419  -0.1419  -0.1419
    -0.0793  -0.0793  -0.0793  -0.0793  -0.0793  -0.0793  -0.0793  -0.0793
    -0.0793  -0.0793  -0.0793  -0.0793  -0.0793  -0.0793  -0.0793  -0.0793
    -0.0793  -0.0793  -0.0793  -0.0793  -0.0793  -0.0793  -0.0793  -0.0793
    -0.0785  -0.0785  -0.0785  -0.0785  -0.0785  -0.0785  -0.0785  -0.0785
    -0.0785  -0.0785  -0.0785  -0.0785  -0.0785  -0.0785  -0.0785  -0.0785
    -0.0785  -0.0785  -0.0785  -0.0785  -0.0785  -0.0785  -0.0785  -0.0785
    -0.0539  -0.0539  -0.0539  -0.0538  -0.0538  -0.0538  -0.0538  -0.0538
    -0.0538  -0.0538  -0.0538  -0.0538  -0.0538  -0.0538  -0.0538  -0.0538
     0.0109   0.0109   0.0109   0.0109   0.0109   0.0109   0.0109   0.0109
     0.0109   0.0109   0.0109   0.0109   0.0109   0.0109   0.0109   0.0109
     0.0109   0.0109   0.0109   0.0109   0.0109   0.0110   0.0110   0.0110
     0.1303   0.1303   0.1303   0.1303   0.1304   0.1304   0.1304   0.1304
     1.6991   1.6992   1.6992   1.6992   1.6992   1.6992   1.6992   1.6992
     1.6992   1.6992   1.6992   1.6992   1.6992   1.6992   1.6992   1.6992
     1.6992   1.6992   1.6992   1.6992   1.6992   1.6992   1.6992   1.6992
     3.9948   3.9948   3.9948   3.9948   3.9948   3.9948   3.9949   3.9949
     3.9949   3.9949   3.9949   3.9949   3.9949   3.9949   3.9949   3.9949
     3.9949   3.9949   3.9949   3.9949   3.9949   3.9949   3.9949   3.9949
     5.7311   5.7324

     the Fermi energy is     0.3614 ev

!    total energy              =  -16376.23605941 Ry

     total all-electron energy =   -322937.089767 Ry
     estimated scf accuracy    <       0.00000097 Ry
     smearing contrib. (-TS)   =       0.74789257 Ry
     internal energy E=F+TS    =  -16376.98395198 Ry

     The total energy is F=E-TS. E is the sum of the following terms:
     one-electron contribution =   -6965.25920693 Ry
     hartree contribution      =    3540.04870766 Ry
     xc contribution           =    -983.91582721 Ry
     ewald contribution        =   -3801.26746509 Ry
     one-center paw contrib.   =   -8166.59016041 Ry

     convergence has been achieved in  43 iterations

     Forces acting on atoms (cartesian axes, Ry/au):

     atom    1 type  1   force =     0.00000000    0.00000000    0.00000000
     atom    2 type  1   force =     0.00002464    0.00002464   -0.00000000
     atom    3 type  1   force =     0.00002464   -0.00000000    0.00002464
     atom    4 type  1   force =    -0.00000000    0.00002464    0.00002464
     atom    5 type  1   force =     0.00000000    0.00000000    0.00000000
     atom    6 type  1   force =     0.00001708    0.00001708    0.00000000
     atom    7 type  1   force =     0.00002464    0.00000000   -0.00002464
     atom    8 type  1   force =    -0.00000000    0.00002464   -0.00002464
     atom    9 type  1   force =     0.00000000    0.00000000    0.00000000
     atom   10 type  1   force =     0.00002464   -0.00002464    0.00000000
     atom   11 type  1   force =     0.00001708    0.00000000    0.00001708
     atom   12 type  1   force =    -0.00000000   -0.00002464    0.00002464
     atom   13 type  1   force =     0.00000000    0.00000000    0.00000000
     atom   14 type  1   force =     0.00001708   -0.00001708   -0.00000000
     atom   15 type  1   force =     0.00001708   -0.00000000   -0.00001708
     atom   16 type  1   force =    -0.00000000   -0.00002464   -0.00002464
     atom   17 type  1   force =     0.00000000    0.00000000    0.00000000
     atom   18 type  1   force =    -0.00002464    0.00002464    0.00000000
     atom   19 type  1   force =    -0.00002464    0.00000000    0.00002464
     atom   20 type  1   force =     0.00000000    0.00001708    0.00001708
     atom   21 type  1   force =     0.00000000    0.00000000    0.00000000
     atom   22 type  1   force =    -0.00001708    0.00001708   -0.00000000
     atom   23 type  1   force =    -0.00002464   -0.00000000   -0.00002464
     atom   24 type  1   force =    -0.00000000    0.00001708   -0.00001708
     atom   25 type  1   force =     0.00000000    0.00000000    0.00000000
     atom   26 type  1   force =    -0.00002464   -0.00002464   -0.00000000
     atom   27 type  1   force =    -0.00001708    0.00000000    0.00001708
     atom   28 type  1   force =     0.00000000   -0.00001708    0.00001708
     atom   29 type  1   force =     0.00000000    0.00000000    0.00000000
     atom   30 type  1   force =    -0.00001708   -0.00001708    0.00000000
     atom   31 type  1   force =    -0.00001708   -0.00000000   -0.00001708
     atom   32 type  1   force =    -0.00000000   -0.00001708   -0.00001708

     Total force =     0.000147     Total SCF correction =     0.001333
     SCF correction compared to forces is large: reduce conv_thr to get better values


     Computing stress (Cartesian axis) and pressure

          total   stress  (Ry/bohr**3)                   (kbar)     P=      -25.63
  -0.00017420   0.00000000   0.00000000          -25.63        0.00        0.00
   0.00000000  -0.00017420   0.00000000            0.00      -25.63        0.00
   0.00000000   0.00000000  -0.00017420            0.00        0.00      -25.63


     Writing output data file /scratch/OLuwfqRtnDrhDGwj.save/
 
     init_run     :     47.13s CPU     48.18s WALL (       1 calls)
     electrons    :   4517.19s CPU   4568.84s WALL (       1 calls)
     forces       :     15.25s CPU     15.43s WALL (       1 calls)
     stress       :    235.73s CPU    236.97s WALL (       1 calls)

     Called by init_run:
     wfcinit      :     45.37s CPU     46.27s WALL (       1 calls)
     potinit      :      0.26s CPU      0.28s WALL (       1 calls)
     hinit0       :      0.14s CPU      0.15s WALL (       1 calls)

     Called by electrons:
     c_bands      :   3973.51s CPU   4013.85s WALL (      43 calls)
     sum_band     :    528.68s CPU    537.15s WALL (      43 calls)
     v_of_rho     :      3.43s CPU      3.81s WALL (      44 calls)
     newd         :      5.60s CPU      7.78s WALL (      44 calls)
     PAW_pot      :      4.12s CPU      4.30s WALL (      44 calls)
     mix_rho      :      1.08s CPU      1.19s WALL (      43 calls)

     Called by c_bands:
     init_us_2    :     30.79s CPU     31.07s WALL (    3115 calls)
     cegterg      :   3856.43s CPU   3895.08s WALL (    1505 calls)

     Called by *egterg:
     cdiaghg      :    153.87s CPU    155.03s WALL (    4439 calls)
     h_psi        :   1980.38s CPU   2002.29s WALL (    4474 calls)
     s_psi        :    222.35s CPU    224.04s WALL (    4474 calls)
     g_psi        :      8.91s CPU      9.02s WALL (    2934 calls)

     Called by h_psi:
     h_psi:calbec :    286.78s CPU    288.84s WALL (    4474 calls)
     vloc_psi     :   1451.28s CPU   1468.87s WALL (    4474 calls)
     add_vuspsi   :    222.92s CPU    224.48s WALL (    4474 calls)

     General routines
     calbec       :    438.97s CPU    442.01s WALL (    6154 calls)
     fft          :      3.23s CPU      3.34s WALL (     595 calls)
     ffts         :      0.48s CPU      0.49s WALL (      87 calls)
     fftw         :   1727.62s CPU   1748.71s WALL ( 2699030 calls)
     interpolate  :      0.60s CPU      0.62s WALL (      44 calls)
 
     Parallel routines
     fft_scatt_xy :    158.79s CPU    160.26s WALL ( 2699712 calls)
     fft_scatt_yz :   1077.97s CPU   1093.03s WALL ( 2699712 calls)
 
     PWSCF        :      1h20m CPU      1h21m WALL

 
   This run was terminated on:   2:12: 3  27Nov2021            

=------------------------------------------------------------------------------=
   JOB DONE.
=------------------------------------------------------------------------------=
