
     Program PWSCF v.6.7MaX starts on 26Nov2021 at 19: 6:47 

     This program is part of the open-source Quantum ESPRESSO suite
     for quantum simulation of materials; please cite
         "P. Giannozzi et al., J. Phys.:Condens. Matter 21 395502 (2009);
         "P. Giannozzi et al., J. Phys.:Condens. Matter 29 465901 (2017);
          URL http://www.quantum-espresso.org", 
     in publications or presentations arising from this work. More details at
     http://www.quantum-espresso.org/quote

     Parallel version (MPI & OpenMP), running on      72 processor cores
     Number of MPI processes:                72
     Threads/MPI process:                     1

     MPI processes distributed on     1 nodes
     R & G space division:  proc/nbgrp/npool/nimage =      72
     Reading input from fcc_2.in
Warning: card &CELL ignored
Warning: card CELL_DYNAMICS = 'BFGS', ignored
Warning: card CELL_FACTOR = 2.0, ignored
Warning: card PRESS = 0.0, ignored
Warning: card / ignored

     Current dimensions of program PWSCF are:
     Max number of different atomic species (ntypx) = 10
     Max number of k-points (npk) =  40000
     Max angular momentum in pseudopotentials (lmaxx) =  3
     file Pd.pbe-spn-kjpaw_psl.1.0.0.UPF: wavefunction(s)  4S 5S 4D renormalized

     Subspace diagonalization in iterative solution of the eigenvalue problem:
     one sub-group per band group will be used
     ELPA distributed-memory algorithm (size of sub-group:  8*  8 procs)

     Found symmetry operation: I + (  0.2500  0.2500  0.0000)
     This is a supercell, fractional translations are disabled
     Message from routine setup:
     using ibrav=0 with symmetry is DISCOURAGED, use correct ibrav instead
 
     Parallelization info
     --------------------
     sticks:   dense  smooth     PW     G-vecs:    dense   smooth      PW
     Min          65      43     12                 3385     1819     266
     Max          66      44     13                 3392     1824     270
     Sum        4709    3125    869               244017   131155   19309
 


     bravais-lattice index     =            0
     lattice parameter (alat)  =      14.4000  a.u.
     unit-cell volume          =    1621.1447 (a.u.)^3
     number of atoms/cell      =           32
     number of atomic types    =            1
     number of electrons       =       576.00
     number of Kohn-Sham states=          346
     kinetic-energy cutoff     =      71.0000  Ry
     charge density cutoff     =     430.0000  Ry
     scf convergence threshold =      1.0E-06
     mixing beta               =       0.1000
     number of iterations used =           10  TF        mixing
     Exchange-correlation= SLA  PW   PBX  PBC
                           (   1   4   3   4   0   0   0)

     celldm(1)=  14.400000  celldm(2)=   0.000000  celldm(3)=   0.000000
     celldm(4)=   0.000000  celldm(5)=   0.000000  celldm(6)=   0.000000

     crystal axes: (cart. coord. in units of alat)
               a(1) = (   0.815789   0.000000   0.000000 )  
               a(2) = (   0.000000   0.815789   0.000000 )  
               a(3) = (   0.000000   0.000000   0.815789 )  

     reciprocal axes: (cart. coord. in units 2 pi/alat)
               b(1) = (  1.225806  0.000000  0.000000 )  
               b(2) = (  0.000000  1.225806  0.000000 )  
               b(3) = (  0.000000  0.000000  1.225806 )  


     PseudoPot. # 1 for Pd read from file:
     /rds/homes/b/bxp912/pp/Pd.pbe-spn-kjpaw_psl.1.0.0.UPF
     MD5 check sum: 790f2ebce206edfd9790dcb9844eca51
     Pseudo is Projector augmented-wave + core cor, Zval = 18.0
     Generated using &quot;atomic&quot; code by A. Dal Corso  v.6.3
     Shape of augmentation charge: PSQ
     Using radial grid of 1235 points,  6 beta functions with: 
                l(1) =   0
                l(2) =   0
                l(3) =   1
                l(4) =   1
                l(5) =   2
                l(6) =   2
     Q(r) pseudized with 0 coefficients 


     atomic species   valence    mass     pseudopotential
        Pd            18.00   106.42000     Pd( 1.00)

     48 Sym. Ops., with inversion, found



   Cartesian axes

     site n.     atom                  positions (alat units)
         1           Pd  tau(   1) = (   0.0000000   0.0000000   0.0000000  )
         2           Pd  tau(   2) = (   0.2039474   0.2039474   0.0000000  )
         3           Pd  tau(   3) = (   0.2039474   0.0000000   0.2039474  )
         4           Pd  tau(   4) = (   0.0000000   0.2039474   0.2039474  )
         5           Pd  tau(   5) = (   0.0000000   0.0000000   0.4078947  )
         6           Pd  tau(   6) = (   0.2039474   0.2039474   0.4078947  )
         7           Pd  tau(   7) = (   0.2039474   0.0000000   0.6118421  )
         8           Pd  tau(   8) = (   0.0000000   0.2039474   0.6118421  )
         9           Pd  tau(   9) = (   0.0000000   0.4078947   0.0000000  )
        10           Pd  tau(  10) = (   0.2039474   0.6118421   0.0000000  )
        11           Pd  tau(  11) = (   0.2039474   0.4078947   0.2039474  )
        12           Pd  tau(  12) = (   0.0000000   0.6118421   0.2039474  )
        13           Pd  tau(  13) = (   0.0000000   0.4078947   0.4078947  )
        14           Pd  tau(  14) = (   0.2039474   0.6118421   0.4078947  )
        15           Pd  tau(  15) = (   0.2039474   0.4078947   0.6118421  )
        16           Pd  tau(  16) = (   0.0000000   0.6118421   0.6118421  )
        17           Pd  tau(  17) = (   0.4078947   0.0000000   0.0000000  )
        18           Pd  tau(  18) = (   0.6118421   0.2039474   0.0000000  )
        19           Pd  tau(  19) = (   0.6118421   0.0000000   0.2039474  )
        20           Pd  tau(  20) = (   0.4078947   0.2039474   0.2039474  )
        21           Pd  tau(  21) = (   0.4078947   0.0000000   0.4078947  )
        22           Pd  tau(  22) = (   0.6118421   0.2039474   0.4078947  )
        23           Pd  tau(  23) = (   0.6118421   0.0000000   0.6118421  )
        24           Pd  tau(  24) = (   0.4078947   0.2039474   0.6118421  )
        25           Pd  tau(  25) = (   0.4078947   0.4078947   0.0000000  )
        26           Pd  tau(  26) = (   0.6118421   0.6118421   0.0000000  )
        27           Pd  tau(  27) = (   0.6118421   0.4078947   0.2039474  )
        28           Pd  tau(  28) = (   0.4078947   0.6118421   0.2039474  )
        29           Pd  tau(  29) = (   0.4078947   0.4078947   0.4078947  )
        30           Pd  tau(  30) = (   0.6118421   0.6118421   0.4078947  )
        31           Pd  tau(  31) = (   0.6118421   0.4078947   0.6118421  )
        32           Pd  tau(  32) = (   0.4078947   0.6118421   0.6118421  )

     number of k points=    35  Marzari-Vanderbilt smearing, width (Ry)=  0.0400
                       cart. coord. in units 2pi/alat
        k(    1) = (   0.0681004   0.0681004   0.0681004), wk =   0.0219479
        k(    2) = (   0.0681004   0.0681004   0.2043011), wk =   0.0658436
        k(    3) = (   0.0681004   0.0681004   0.3405018), wk =   0.0658436
        k(    4) = (   0.0681004   0.0681004   0.4767025), wk =   0.0658436
        k(    5) = (   0.0681004   0.0681004  -0.6129032), wk =   0.0329218
        k(    6) = (   0.0681004   0.2043011   0.2043011), wk =   0.0658436
        k(    7) = (   0.0681004   0.2043011   0.3405018), wk =   0.1316872
        k(    8) = (   0.0681004   0.2043011   0.4767025), wk =   0.1316872
        k(    9) = (   0.0681004   0.2043011  -0.6129032), wk =   0.0658436
        k(   10) = (   0.0681004   0.3405018   0.3405018), wk =   0.0658436
        k(   11) = (   0.0681004   0.3405018   0.4767025), wk =   0.1316872
        k(   12) = (   0.0681004   0.3405018  -0.6129032), wk =   0.0658436
        k(   13) = (   0.0681004   0.4767025   0.4767025), wk =   0.0658436
        k(   14) = (   0.0681004   0.4767025  -0.6129032), wk =   0.0658436
        k(   15) = (   0.0681004  -0.6129032  -0.6129032), wk =   0.0164609
        k(   16) = (   0.2043011   0.2043011   0.2043011), wk =   0.0219479
        k(   17) = (   0.2043011   0.2043011   0.3405018), wk =   0.0658436
        k(   18) = (   0.2043011   0.2043011   0.4767025), wk =   0.0658436
        k(   19) = (   0.2043011   0.2043011  -0.6129032), wk =   0.0329218
        k(   20) = (   0.2043011   0.3405018   0.3405018), wk =   0.0658436
        k(   21) = (   0.2043011   0.3405018   0.4767025), wk =   0.1316872
        k(   22) = (   0.2043011   0.3405018  -0.6129032), wk =   0.0658436
        k(   23) = (   0.2043011   0.4767025   0.4767025), wk =   0.0658436
        k(   24) = (   0.2043011   0.4767025  -0.6129032), wk =   0.0658436
        k(   25) = (   0.2043011  -0.6129032  -0.6129032), wk =   0.0164609
        k(   26) = (   0.3405018   0.3405018   0.3405018), wk =   0.0219479
        k(   27) = (   0.3405018   0.3405018   0.4767025), wk =   0.0658436
        k(   28) = (   0.3405018   0.3405018  -0.6129032), wk =   0.0329218
        k(   29) = (   0.3405018   0.4767025   0.4767025), wk =   0.0658436
        k(   30) = (   0.3405018   0.4767025  -0.6129032), wk =   0.0658436
        k(   31) = (   0.3405018  -0.6129032  -0.6129032), wk =   0.0164609
        k(   32) = (   0.4767025   0.4767025   0.4767025), wk =   0.0219479
        k(   33) = (   0.4767025   0.4767025  -0.6129032), wk =   0.0329218
        k(   34) = (   0.4767025  -0.6129032  -0.6129032), wk =   0.0164609
        k(   35) = (  -0.6129032  -0.6129032  -0.6129032), wk =   0.0027435

     Dense  grid:   244017 G-vectors     FFT dimensions: (  80,  80,  80)

     Smooth grid:   131155 G-vectors     FFT dimensions: (  64,  64,  64)

     Estimated max dynamical RAM per process >      63.93 MB

     Estimated total dynamical RAM >       4.50 GB

     Check: negative core charge=   -0.000002

     Initial potential from superposition of free atoms

     starting charge  575.98776, renormalised to  576.00000
     Starting wfcs are  320 randomized atomic wfcs +   26 random wfcs
     Checking if some PAW data can be deallocated... 

     total cpu time spent up to now is       12.3 secs

     Self-consistent Calculation

     iteration #  1     ecut=    71.00 Ry     beta= 0.10
     Davidson diagonalization with overlap
     ethr =  1.00E-02,  avg # of iterations =  5.8

     Threshold (ethr) on eigenvalues was too large:
     Diagonalizing with lowered threshold

     Davidson diagonalization with overlap
     c_bands:  1 eigenvalues not converged
     c_bands:  1 eigenvalues not converged
     c_bands:  2 eigenvalues not converged
     c_bands:  1 eigenvalues not converged
     c_bands:  1 eigenvalues not converged
     c_bands:  2 eigenvalues not converged
     ethr =  2.95E-05,  avg # of iterations = 12.6

     total cpu time spent up to now is      126.7 secs

     total energy              =  -16363.17285844 Ry
     estimated scf accuracy    <       0.13563759 Ry

     iteration #  2     ecut=    71.00 Ry     beta= 0.10
     Davidson diagonalization with overlap
     c_bands:  2 eigenvalues not converged
     ethr =  2.35E-05,  avg # of iterations =  2.0

     total cpu time spent up to now is      159.0 secs

     total energy              =  -16363.10236857 Ry
     estimated scf accuracy    <       0.10171662 Ry

     iteration #  3     ecut=    71.00 Ry     beta= 0.10
     Davidson diagonalization with overlap
     ethr =  1.77E-05,  avg # of iterations =  2.8

     total cpu time spent up to now is      201.6 secs

     total energy              =  -16363.11915382 Ry
     estimated scf accuracy    <       0.00750336 Ry

     iteration #  4     ecut=    71.00 Ry     beta= 0.10
     Davidson diagonalization with overlap
     c_bands:  2 eigenvalues not converged
     ethr =  1.30E-06,  avg # of iterations =  7.1

     total cpu time spent up to now is      255.3 secs

     total energy              =  -16363.11662808 Ry
     estimated scf accuracy    <       0.00673662 Ry

     iteration #  5     ecut=    71.00 Ry     beta= 0.10
     Davidson diagonalization with overlap
     ethr =  1.17E-06,  avg # of iterations =  2.1

     total cpu time spent up to now is      290.9 secs

     total energy              =  -16363.11785731 Ry
     estimated scf accuracy    <       0.00027191 Ry

     iteration #  6     ecut=    71.00 Ry     beta= 0.10
     Davidson diagonalization with overlap
     ethr =  4.72E-08,  avg # of iterations =  2.7

     total cpu time spent up to now is      335.6 secs

     total energy              =  -16363.11786039 Ry
     estimated scf accuracy    <       0.00057061 Ry

     iteration #  7     ecut=    71.00 Ry     beta= 0.10
     Davidson diagonalization with overlap
     ethr =  4.72E-08,  avg # of iterations =  2.0

     total cpu time spent up to now is      367.9 secs

     total energy              =  -16363.11780810 Ry
     estimated scf accuracy    <       0.00014954 Ry

     iteration #  8     ecut=    71.00 Ry     beta= 0.10
     Davidson diagonalization with overlap
     ethr =  2.60E-08,  avg # of iterations =  2.0

     total cpu time spent up to now is      402.7 secs

     total energy              =  -16363.11783291 Ry
     estimated scf accuracy    <       0.00000917 Ry

     iteration #  9     ecut=    71.00 Ry     beta= 0.10
     Davidson diagonalization with overlap
     ethr =  1.59E-09,  avg # of iterations =  2.0

     total cpu time spent up to now is      435.8 secs

     total energy              =  -16363.11783490 Ry
     estimated scf accuracy    <       0.00000115 Ry

     iteration # 10     ecut=    71.00 Ry     beta= 0.10
     Davidson diagonalization with overlap
     ethr =  1.99E-10,  avg # of iterations =  3.1

     total cpu time spent up to now is      473.2 secs

     End of self-consistent calculation

          k = 0.0681 0.0681 0.0681 ( 16387 PWs)   bands (ev):

   -42.2385 -41.7084 -41.7084 -41.7084 -41.6038 -41.6038 -41.6038 -41.4019
   -41.4019 -41.4019 -41.3441 -41.3431 -41.3431 -41.3431 -41.3431 -41.3431
   -41.3431 -41.3346 -41.3346 -41.3346 -41.2935 -41.2935 -41.2935 -41.0416
   -41.0416 -41.0416 -41.0367 -41.0366 -41.0366 -41.0366 -41.0366 -41.0366
    -9.6275  -9.6275  -9.6275  -9.6126  -9.3513  -9.3513  -9.3513  -8.6537
    -8.6537  -8.6537  -8.6095  -8.6095  -8.6095  -8.6095  -8.6095  -8.6095
    -8.5334  -8.5334  -8.5334  -8.4302  -8.4302  -8.4302  -8.4302  -8.4302
    -8.4302  -8.2402  -8.2402  -8.2402  -8.2402  -8.2402  -8.2402  -7.8732
    -7.8732  -7.8732  -7.6097  -7.6097  -7.6097  -7.5731  -7.5731  -7.5731
    -7.4523  -7.4523  -7.4523  -7.4523  -7.4523  -7.4523  -7.3004  -7.3004
    -7.3004  -7.2620  -7.2620  -7.2620  -7.2620  -7.2620  -7.2620  -7.1931
    -7.1931  -7.1931  -7.1747  -7.1747  -7.1747  -6.5903  -6.5903  -6.5903
    -6.5874  -6.5874  -6.5874  -6.4713  -6.4713  -6.4713  -6.4712  -6.4712
    -6.4712  -6.3890  -6.3890  -6.3890  -6.3399  -6.3399  -6.3399  -6.3399
    -6.3399  -6.3399  -6.3399  -6.3399  -6.3399  -6.3269  -6.3269  -6.3269
    -6.3165  -6.3165  -6.2703  -6.2703  -6.2703  -5.8729  -5.8451  -5.8451
    31.2501  31.2502  31.2502  31.8405  31.8405  31.8405  32.6779  32.7041
    32.7041  32.7041  33.0258  33.9335  33.9335  33.9335  33.9335  33.9335
    33.9335  34.0546  34.0546  34.0546  34.5501  34.5501  34.5501  34.6246
    34.6246  34.6246  35.0933  35.0933  35.0933  35.4135  35.4135  35.4135
    35.7755  35.7755  35.7755  35.7755  35.7755  35.7755  35.9619  35.9619
    35.9619  36.4106  36.4106  36.4106  36.4106  36.4106  36.4106  36.5117
    36.5117  36.5117  36.5513  36.5513  36.5513  36.5513  36.5513  36.5513
    36.8356  36.8356  36.8356  37.4459  37.4459  37.4459  37.4459  37.4459
    37.4459  37.4798  37.4798  37.4798  37.5511  37.5511  37.5808  37.5808
    37.5808  37.7862  37.8454  37.8454  38.1782  38.1782  38.1782  38.1782
    38.1782  38.1782  38.3029  38.3029  38.3029  38.3624  38.3624  38.3624
    40.0450  40.0450  40.0450  40.2843  40.2843  40.2843  40.3258  40.3258
    40.3258  40.3258  40.3258  40.3258  40.6149  40.6149  40.6149  41.0102
    41.0103  41.0103  41.3498  41.3498  41.3498  41.7042  41.7042  41.7042
    41.7211  41.7211  41.7211  41.7263  41.7263  41.7263  41.7663  41.7663
    41.7663  41.7663  41.7663  41.7663  42.1610  42.1610  42.1610  42.1610
    42.1610  42.1610  42.4466  42.4466  42.4882  42.4882  42.4882  42.6443
    42.6443  42.6443  43.9504  43.9504  43.9504  44.2690  44.2690  44.2690
    45.1878  45.1878  45.1878  45.9488  45.9488  45.9488  45.9835  45.9835
    46.0583  46.0583  46.0583  46.1881  46.7982  46.7982  46.7982  47.0178
    47.0178  47.0178  47.0178  47.0178  47.0178  47.0252  47.0252  47.0252
    47.1901  47.1901  47.1901  50.4137  50.4137  50.4137  51.1015  51.1015
    51.1015  51.3996  51.3996  51.3996  51.3996  51.3996  51.3996  52.3129
    52.3129  52.3129  60.3239  60.3239  60.3239  60.3239  60.3239  60.3239
    60.4056  60.6791  60.6791  60.6791  60.8156  61.1017  61.1017  61.1017
    61.1017  61.1017  61.1017  61.9653  61.9653  61.9653  62.3606  63.0999
    63.0999  63.0999  63.2925  63.2925  63.2925  63.7233  63.7233  63.7233
    63.7234  63.7234

          k = 0.0681 0.0681 0.2043 ( 16389 PWs)   bands (ev):

   -42.2212 -41.8105 -41.6982 -41.6982 -41.5951 -41.5951 -41.4999 -41.4598
   -41.4598 -41.3998 -41.3922 -41.3922 -41.3540 -41.3426 -41.3426 -41.3351
   -41.3351 -41.3258 -41.2946 -41.2852 -41.2852 -41.2447 -41.2447 -41.0608
   -41.0468 -41.0468 -41.0451 -41.0451 -41.0413 -41.0413 -41.0369 -41.0369
    -9.6007  -9.5864  -9.5864  -9.5571  -9.3217  -9.3217  -9.3039  -8.7703
    -8.7189  -8.7189  -8.6717  -8.6717  -8.6589  -8.6589  -8.6402  -8.6098
    -8.6098  -8.5411  -8.5411  -8.4721  -8.4721  -8.4327  -8.4327  -8.4208
    -8.4208  -8.2741  -8.2741  -8.2068  -8.2068  -8.1632  -8.0536  -8.0536
    -7.9210  -7.9210  -7.7623  -7.7623  -7.6354  -7.6354  -7.6001  -7.6001
    -7.4808  -7.3371  -7.3371  -7.2949  -7.2949  -7.2710  -7.2556  -7.2556
    -7.2362  -7.2362  -7.2027  -7.2027  -7.1950  -7.1950  -7.1938  -7.1736
    -7.1736  -7.1732  -7.1555  -7.1487  -7.1487  -6.7063  -6.7006  -6.6191
    -6.6191  -6.5573  -6.5573  -6.5000  -6.5000  -6.4635  -6.4635  -6.4343
    -6.4343  -6.4342  -6.4342  -6.4107  -6.3866  -6.3837  -6.3837  -6.3559
    -6.3527  -6.3414  -6.3394  -6.3394  -6.3379  -6.3313  -6.3313  -6.3167
    -6.3167  -6.3070  -6.2715  -6.2276  -6.2276  -5.9415  -5.8665  -5.8583
    31.3649  31.3692  31.3692  31.9064  31.9810  31.9810  32.7651  32.8160
    32.8160  32.8419  33.1768  33.5926  33.6993  33.6993  33.9877  33.9877
    34.0223  34.0223  34.0457  34.1404  34.1404  34.6212  34.6212  34.7625
    34.7625  35.0657  35.0968  35.0968  35.2327  35.2327  35.2374  35.3301
    35.3979  35.4041  35.4041  35.4638  35.4638  35.5591  35.5591  35.9889
    35.9889  35.9923  35.9923  36.4094  36.4094  36.4198  36.4198  36.4324
    36.4324  36.5028  36.5028  36.5516  36.5580  36.5580  36.5865  36.5865
    36.7137  37.0310  37.0310  37.3383  37.3952  37.3952  37.3973  37.3973
    37.4620  37.4620  37.5463  37.6122  37.6623  37.6817  37.6817  37.7006
    37.7157  37.7157  37.8335  37.8335  37.9309  37.9395  38.0838  38.0838
    38.1194  38.1194  38.5537  38.5537  38.7452  38.7452  38.9125  38.9263
    39.6546  39.9396  39.9396  39.9410  39.9698  39.9698  40.0555  40.1995
    40.1995  40.3473  40.5739  40.5739  40.5859  40.5859  40.6912  40.6912
    40.7952  40.7952  40.9650  40.9650  41.0206  41.4082  41.4082  41.6723
    41.6723  41.7736  41.7736  41.8104  41.8104  41.9819  41.9819  42.0848
    42.0848  42.1758  42.1790  42.2641  42.2641  42.2902  42.4820  42.4932
    42.6178  42.6178  42.7477  42.7477  42.8927  42.9566  42.9566  43.1812
    43.1812  43.6477  43.7393  44.0961  44.0961  44.2900  44.4191  44.4191
    44.5155  44.5155  44.5960  44.9889  45.7036  45.7036  45.7326  45.8622
    45.9501  45.9501  45.9512  46.0081  46.0081  46.5464  46.7514  46.7514
    46.7550  46.7550  46.8016  46.9372  47.0120  47.0120  47.0171  47.0172
    47.8391  47.8391  48.2474  49.4115  49.4115  50.2867  50.4400  50.4400
    50.6576  51.2761  51.2761  51.9473  51.9473  52.1913  52.3838  52.3838
    53.2020  53.2020  59.3664  59.3664  59.3701  59.3701  59.9361  59.9361
    60.3083  60.6748  60.6748  60.6771  60.6771  60.9887  61.0946  61.4275
    61.4275  61.6673  61.6673  61.8635  62.2978  62.2978  62.9004  62.9004
    62.9012  63.4633  63.4633  63.4650  63.5590  63.6536  63.7217  63.7217
    63.7375  63.9278

          k = 0.0681 0.0681 0.3405 ( 16376 PWs)   bands (ev):

   -42.1872 -41.9070 -41.6781 -41.6781 -41.5779 -41.5779 -41.5151 -41.5151
   -41.4390 -41.4390 -41.3997 -41.3956 -41.3639 -41.3417 -41.3417 -41.3361
   -41.3361 -41.3178 -41.2969 -41.2300 -41.2300 -41.1983 -41.1983 -41.0985
   -41.0669 -41.0669 -41.0619 -41.0619 -41.0407 -41.0407 -41.0375 -41.0375
    -9.5332  -9.5054  -9.5054  -9.4621  -9.2634  -9.2634  -9.2106  -8.9415
    -8.8857  -8.8857  -8.8072  -8.7791  -8.7791  -8.6808  -8.6808  -8.6631
    -8.6631  -8.5332  -8.5332  -8.4517  -8.4517  -8.4379  -8.4379  -8.4350
    -8.3110  -8.3110  -8.2862  -8.2862  -8.1505  -8.1505  -8.0060  -8.0060
    -7.9054  -7.9054  -7.8713  -7.8713  -7.7443  -7.7443  -7.7396  -7.7396
    -7.3101  -7.3101  -7.2859  -7.2445  -7.2445  -7.1818  -7.1818  -7.1592
    -7.1592  -7.1423  -7.1423  -7.1347  -7.1179  -7.0981  -7.0981  -7.0827
    -7.0827  -7.0283  -7.0019  -7.0019  -6.9758  -6.8162  -6.8076  -6.6778
    -6.6778  -6.5612  -6.5612  -6.5562  -6.5562  -6.5502  -6.5502  -6.5251
    -6.5046  -6.5046  -6.4756  -6.4756  -6.4123  -6.3822  -6.3752  -6.3752
    -6.3486  -6.3384  -6.3384  -6.3328  -6.3328  -6.3189  -6.3189  -6.2981
    -6.2742  -6.2444  -6.2386  -6.2124  -6.2124  -6.0624  -5.9087  -5.8977
    31.5917  31.6022  31.6022  32.0376  32.2591  32.2591  32.9652  33.0374
    33.0374  33.0865  33.1726  33.3009  33.3009  33.4434  33.4691  34.0904
    34.0904  34.1941  34.1941  34.3117  34.3117  34.6083  34.6083  34.7640
    34.7640  34.7765  34.8291  34.8291  34.8458  34.8513  34.8513  35.0308
    35.0308  35.2274  35.3157  35.3157  35.5014  35.5014  35.6021  35.6665
    35.6665  35.8019  35.8019  36.4337  36.4337  36.4471  36.4886  36.4886
    36.5221  36.5221  36.5711  36.5711  36.7909  36.7909  36.8478  36.8478
    36.8706  37.0865  37.0865  37.1439  37.1727  37.1727  37.2593  37.2593
    37.3209  37.3209  37.4063  37.4726  37.4901  37.4901  37.5394  37.5394
    37.6339  37.6339  37.7633  37.7954  37.7954  37.8666  37.8666  37.9083
    38.1203  38.1266  39.1746  39.2161  39.2161  39.2265  39.2265  39.4717
    39.6322  39.7213  39.7213  39.7282  39.7282  39.7436  39.7464  39.7480
    39.8259  39.8259  40.5684  40.5684  40.6777  40.9299  40.9299  40.9864
    40.9864  41.1277  41.1277  41.2454  41.2454  41.3208  41.3208  41.6363
    41.6363  41.7683  41.7683  41.8655  41.8655  41.9727  41.9727  41.9941
    42.4815  42.4815  42.5855  42.6442  42.6442  42.8213  43.0294  43.2460
    43.2460  43.2478  43.2478  43.2590  43.3678  43.3791  43.4273  43.4273
    43.4772  43.4882  43.4882  43.5446  43.5446  43.8913  44.5809  44.5809
    44.7742  44.7742  44.9241  44.9603  45.2505  45.2505  45.3266  45.3508
    45.3508  45.6248  45.6248  45.6728  45.6730  46.0762  46.2663  46.2663
    46.2725  46.2725  46.4069  47.0106  47.0106  47.0159  47.0159  47.7436
    48.3915  48.3915  48.6417  48.6417  49.2480  49.4296  49.4296  49.8449
    50.0298  51.0216  51.0216  51.9324  53.1457  53.1457  53.3925  53.3925
    54.1063  54.1063  58.1156  58.1156  58.2627  58.2627  58.6090  58.6090
    60.4289  60.7770  60.7770  61.1142  61.2864  61.2864  61.6399  62.0155
    62.0155  62.0310  62.0310  62.2853  62.7114  62.7114  62.8078  62.8605
    62.8605  62.9636  62.9702  62.9702  63.5403  63.6014  63.6014  63.7361
    63.7361  63.7607

          k = 0.0681 0.0681 0.4767 ( 16375 PWs)   bands (ev):

   -42.1372 -41.9952 -41.6488 -41.6488 -41.5660 -41.5660 -41.5529 -41.5529
   -41.4823 -41.4823 -41.3896 -41.3733 -41.3404 -41.3404 -41.3374 -41.3374
   -41.3108 -41.3066 -41.3004 -41.1791 -41.1791 -41.1556 -41.1556 -41.1534
   -41.0963 -41.0963 -41.0864 -41.0864 -41.0400 -41.0400 -41.0383 -41.0383
    -9.4272  -9.3877  -9.3877  -9.3319  -9.1777  -9.1777  -9.1215  -9.0733
    -9.0671  -9.0671  -8.9928  -8.9326  -8.9326  -8.6813  -8.6751  -8.6751
    -8.6286  -8.6286  -8.5951  -8.5951  -8.5017  -8.5017  -8.3461  -8.3461
    -8.2347  -8.2347  -8.1736  -8.1736  -8.1137  -8.1137  -8.0744  -8.0744
    -8.0349  -8.0349  -7.8801  -7.8801  -7.8671  -7.8671  -7.7001  -7.7001
    -7.4144  -7.4144  -7.2295  -7.2295  -7.1958  -7.1958  -7.0778  -7.0720
    -7.0623  -6.9997  -6.9997  -6.9668  -6.9668  -6.9629  -6.9629  -6.9488
    -6.9488  -6.9164  -6.9052  -6.8648  -6.8648  -6.8462  -6.7631  -6.7631
    -6.6982  -6.6822  -6.6822  -6.6792  -6.6787  -6.6787  -6.6378  -6.6378
    -6.6082  -6.6082  -6.5253  -6.4442  -6.4442  -6.3758  -6.3587  -6.3439
    -6.3439  -6.3372  -6.3372  -6.3342  -6.3342  -6.3123  -6.3123  -6.2903
    -6.2782  -6.2333  -6.2238  -6.2238  -6.1407  -6.1326  -5.9700  -5.9588
    31.9245  31.9383  31.9383  32.2329  32.6689  32.6689  32.7990  32.8291
    32.8291  32.8729  33.2750  33.3635  33.3635  33.4299  33.8520  33.8520
    33.8805  34.1947  34.2321  34.2321  34.2903  34.2903  34.3481  34.4365
    34.4365  34.5643  34.5643  34.6012  34.6012  34.8613  34.9735  34.9735
    35.0327  35.0327  35.2659  35.2659  35.4166  35.4166  35.5249  35.5249
    35.8831  35.8831  36.1187  36.4461  36.4461  36.4581  36.4581  36.4803
    36.4803  36.5288  36.5974  36.5974  36.7126  36.7126  36.8388  36.8388
    36.9226  36.9679  36.9679  37.0282  37.0466  37.0828  37.0828  37.2652
    37.2652  37.3471  37.3530  37.3530  37.4883  37.4883  37.4899  37.4899
    37.5244  37.5244  37.6277  37.6277  38.0019  38.1354  38.1354  38.1992
    38.4017  38.4047  38.5421  38.5421  38.7192  38.8859  38.8859  38.9074
    38.9074  38.9977  39.1941  39.2202  40.6077  40.6077  40.6277  40.7078
    40.7850  40.7857  40.7857  40.8904  40.8904  40.9571  40.9571  41.3357
    41.3357  41.4122  41.4122  41.5507  41.5507  41.5905  41.5905  41.5911
    41.5911  41.5946  41.7162  41.7162  41.8797  41.8797  42.2055  42.2055
    42.3210  42.3210  42.4602  42.5196  42.5196  42.7220  42.8028  42.9919
    42.9919  43.1169  43.3391  43.3391  43.5049  43.5122  43.5122  43.8773
    43.9170  43.9170  44.0300  44.1066  44.1622  44.1622  44.2172  44.2172
    44.7625  44.7625  44.7959  45.1482  45.1482  45.2487  45.2492  45.3216
    45.3915  45.3915  45.4403  45.6352  45.6352  45.6363  45.6363  45.9584
    46.2430  46.2430  46.2500  47.0112  47.0112  47.0143  47.0143  47.3637
    47.3637  48.3784  48.3784  48.4805  48.7723  49.4126  49.4126  49.6402
    50.1520  50.6258  50.6258  51.5129  54.4500  54.4500  54.4573  54.4573
    55.0724  55.0724  56.8305  56.8305  57.0512  57.0512  57.3224  57.3224
    60.7788  61.0507  61.0507  61.2456  62.0885  62.0885  62.0988  62.1044
    62.1866  62.1866  62.2490  62.2490  62.4292  62.5455  62.5455  62.7389
    62.7389  63.0478  63.5156  63.5156  63.5783  63.5784  63.6990  63.6993
    63.7020  63.7020

          k = 0.0681 0.0681-0.6129 ( 16388 PWs)   bands (ev):

   -42.0726 -42.0726 -41.6110 -41.6110 -41.6110 -41.6110 -41.5207 -41.5207
   -41.5206 -41.5206 -41.3821 -41.3821 -41.3389 -41.3389 -41.3389 -41.3389
   -41.3050 -41.3050 -41.2236 -41.2236 -41.1341 -41.1341 -41.1340 -41.1340
   -41.1179 -41.1179 -41.1179 -41.1179 -41.0391 -41.0391 -41.0391 -41.0391
    -9.2875  -9.2875  -9.2388  -9.2388  -9.2388  -9.2388  -9.1723  -9.1723
    -9.0666  -9.0666  -9.0666  -9.0666  -8.8956  -8.8956  -8.6452  -8.6452
    -8.6452  -8.6452  -8.5722  -8.5722  -8.5721  -8.5721  -8.2307  -8.2307
    -8.2307  -8.2307  -8.1466  -8.1466  -8.1466  -8.1466  -8.0272  -8.0272
    -8.0272  -8.0272  -7.9795  -7.9795  -7.9795  -7.9795  -7.5460  -7.5460
    -7.5460  -7.5460  -7.2126  -7.2126  -7.2126  -7.2126  -7.0044  -7.0044
    -6.9909  -6.9909  -6.8717  -6.8717  -6.8717  -6.8717  -6.8648  -6.8648
    -6.8242  -6.8242  -6.8242  -6.8242  -6.8105  -6.8105  -6.8105  -6.8105
    -6.7741  -6.7741  -6.7741  -6.7741  -6.7420  -6.7420  -6.7420  -6.7420
    -6.6732  -6.6732  -6.4475  -6.4475  -6.3877  -6.3877  -6.3877  -6.3877
    -6.3680  -6.3680  -6.3358  -6.3358  -6.3358  -6.3358  -6.2835  -6.2835
    -6.2589  -6.2589  -6.2589  -6.2589  -6.0482  -6.0482  -6.0381  -6.0381
    32.3531  32.3531  32.3579  32.3579  32.3579  32.3579  32.4909  32.4909
    33.2027  33.2027  33.2027  33.2027  33.6883  33.6883  33.7857  33.7857
    33.7857  33.7857  33.8586  33.8586  34.3696  34.3696  34.4036  34.4036
    34.4036  34.4036  34.7272  34.7272  34.7272  34.7272  34.8883  34.8884
    34.8884  34.8884  35.2354  35.2354  35.2354  35.2354  35.9022  35.9022
    35.9023  35.9023  36.3537  36.3537  36.3537  36.3537  36.4573  36.4573
    36.4573  36.4573  36.6087  36.6087  36.7053  36.7053  36.7673  36.7673
    36.7673  36.7673  36.8920  36.8920  36.8920  36.8920  37.1919  37.1919
    37.2675  37.2675  37.2675  37.2675  37.5632  37.5632  37.5632  37.5632
    37.9464  37.9464  37.9464  37.9464  38.1570  38.1570  38.1570  38.1570
    38.3232  38.3232  38.4813  38.4813  38.4813  38.4813  38.5663  38.5663
    38.7664  38.7664  38.7707  38.7707  40.8495  40.8495  40.8495  40.8495
    41.1551  41.1551  41.5282  41.5282  41.5283  41.5283  41.5395  41.5395
    41.5493  41.5493  41.5493  41.5493  41.5803  41.5803  41.5803  41.5803
    41.7361  41.7361  41.8003  41.8003  41.8003  41.8003  41.9617  41.9617
    41.9617  41.9617  42.2256  42.2256  42.2256  42.2256  42.6064  42.6064
    42.6064  42.6064  42.9003  42.9003  44.0720  44.0720  44.0720  44.0720
    44.1764  44.1764  44.5651  44.5651  44.5651  44.5651  44.6924  44.6924
    44.7129  44.7129  44.7478  44.7478  44.9139  44.9139  44.9139  44.9139
    44.9312  44.9312  44.9312  44.9312  45.5797  45.5797  46.3501  46.3501
    46.3501  46.3501  47.0125  47.0125  47.0126  47.0126  47.3060  47.3060
    47.3060  47.3061  47.5449  47.5449  49.1199  49.1199  50.0853  50.0853
    50.0853  50.0853  50.9171  50.9171  55.6019  55.6019  55.6019  55.6019
    55.7679  55.7679  55.7679  55.7679  56.1389  56.1389  56.1389  56.1389
    61.3494  61.3494  61.5251  61.5251  61.5251  61.5251  61.5628  61.5628
    62.4005  62.4005  62.4005  62.4005  62.9290  62.9290  62.9290  62.9290
    63.3572  63.3572  63.3572  63.3572  63.4340  63.4340  63.7500  63.7500
    63.7500  63.7500

          k = 0.0681 0.2043 0.2043 ( 16376 PWs)   bands (ev):

   -42.2042 -41.7989 -41.7989 -41.6883 -41.5867 -41.5264 -41.4926 -41.4926
   -41.4561 -41.4561 -41.3900 -41.3900 -41.3730 -41.3449 -41.3254 -41.3254
   -41.3170 -41.3170 -41.2864 -41.2864 -41.2475 -41.2475 -41.2050 -41.0602
   -41.0602 -41.0550 -41.0550 -41.0488 -41.0488 -41.0438 -41.0438 -41.0413
    -9.5744  -9.5744  -9.5319  -9.4872  -9.2924  -9.2770  -9.2770  -8.7951
    -8.7951  -8.7693  -8.7693  -8.6604  -8.6428  -8.6428  -8.6309  -8.6309
    -8.6237  -8.6237  -8.5871  -8.5871  -8.5356  -8.5356  -8.5118  -8.5118
    -8.3006  -8.1963  -8.1963  -8.1826  -8.1826  -8.1163  -8.1163  -8.0254
    -8.0254  -7.9730  -7.9185  -7.7014  -7.6206  -7.6206  -7.4785  -7.4785
    -7.4375  -7.4375  -7.3474  -7.3474  -7.3053  -7.2157  -7.2157  -7.2043
    -7.2043  -7.1940  -7.1940  -7.1823  -7.1823  -7.1538  -7.1538  -7.1460
    -7.1460  -7.1444  -7.0526  -7.0526  -7.0029  -6.7359  -6.7359  -6.6773
    -6.6773  -6.5956  -6.5734  -6.5167  -6.4673  -6.4673  -6.4606  -6.4595
    -6.4592  -6.4592  -6.4317  -6.4317  -6.4289  -6.4289  -6.3819  -6.3819
    -6.3786  -6.3604  -6.3604  -6.3501  -6.3193  -6.3182  -6.3182  -6.3121
    -6.3121  -6.3104  -6.2307  -6.2307  -6.1646  -6.0279  -5.8860  -5.8538
    31.4622  31.4837  31.4837  32.0462  32.0462  32.1431  32.8238  32.8964
    32.9727  32.9727  33.3214  33.6886  33.6886  33.7090  33.7090  33.8056
    33.8056  34.0784  34.0784  34.1661  34.1816  34.1816  34.6140  34.6951
    34.9506  35.0289  35.0289  35.1080  35.1080  35.3473  35.3473  35.3844
    35.3844  35.4011  35.4011  35.4413  35.4741  35.4741  35.4929  35.4929
    35.5843  35.5843  35.9530  35.9530  35.9602  36.1086  36.1086  36.2557
    36.2557  36.3669  36.3669  36.5746  36.5746  36.5878  36.5878  36.6996
    36.9171  36.9171  37.1846  37.1846  37.3584  37.3592  37.4193  37.4193
    37.4944  37.4944  37.5619  37.6025  37.6937  37.7840  37.8419  37.8419
    37.9609  38.0266  38.0638  38.2629  38.2629  38.3400  38.4127  38.4127
    38.4477  38.4477  38.5441  38.5441  38.5895  38.5895  38.7483  38.7483
    39.5150  39.5150  39.6132  39.7722  39.7722  39.9701  40.2171  40.2392
    40.2392  40.2571  40.2571  40.3112  40.3112  40.4276  40.4276  40.7014
    40.7072  40.9829  41.2291  41.2291  41.3177  41.3257  41.3257  41.5046
    41.5046  41.7870  41.7870  41.9671  41.9671  42.0597  42.0597  42.1637
    42.1637  42.2396  42.4209  42.4209  42.4451  42.5587  42.5587  42.6551
    42.6551  42.7988  43.1903  43.1903  43.2931  43.3358  43.3358  43.6600
    43.6600  43.7296  43.7296  43.8459  43.8855  44.1151  44.1151  44.1300
    44.5259  44.5856  45.0705  45.0705  45.4405  45.4405  45.4578  45.5146
    45.8307  45.9393  45.9393  45.9974  45.9974  46.0482  46.5046  46.5352
    46.5352  46.7480  46.7480  46.7585  46.7585  46.7980  46.7980  46.8762
    47.7839  48.3954  48.8883  48.8883  49.2863  49.2863  50.3204  50.3204
    51.4897  51.4897  51.4961  51.4961  52.2722  52.2722  52.6362  53.0908
    53.0908  53.9765  58.5848  58.5848  59.4851  59.4851  59.6906  59.6906
    60.1733  60.3696  60.3696  60.3751  60.3751  60.5463  61.2553  61.2553
    61.3642  61.7954  61.7954  61.9741  61.9741  62.3595  62.8659  63.2548
    63.2548  63.2833  63.2833  63.5593  63.5594  63.5689  63.7756  63.8074
    63.8074  63.9209

          k = 0.0681 0.2043 0.3405 ( 16366 PWs)   bands (ev):

   -42.1706 -41.8940 -41.7760 -41.6687 -41.5897 -41.5700 -41.5099 -41.4784
   -41.4488 -41.4354 -41.3940 -41.3916 -41.3859 -41.3638 -41.3546 -41.3092
   -41.3002 -41.2886 -41.2615 -41.2530 -41.2327 -41.2027 -41.1673 -41.0973
   -41.0745 -41.0722 -41.0711 -41.0590 -41.0572 -41.0510 -41.0427 -41.0413
    -9.5213  -9.5081  -9.4391  -9.3797  -9.2344  -9.2239  -9.1887  -8.9683
    -8.9334  -8.8031  -8.7932  -8.7904  -8.7835  -8.7537  -8.7002  -8.6786
    -8.6630  -8.6254  -8.6047  -8.5767  -8.5683  -8.5458  -8.5452  -8.4540
    -8.4091  -8.2561  -8.2080  -8.1490  -8.1356  -8.0820  -8.0649  -8.0631
    -7.9727  -7.9506  -7.8453  -7.8163  -7.7528  -7.6150  -7.5722  -7.4774
    -7.4126  -7.3981  -7.2928  -7.2887  -7.2794  -7.2008  -7.1752  -7.1665
    -7.1599  -7.1293  -7.1147  -7.1102  -7.0666  -7.0650  -7.0562  -7.0558
    -7.0470  -7.0356  -6.9171  -6.9023  -6.8620  -6.8472  -6.7970  -6.7903
    -6.6395  -6.6333  -6.5976  -6.5935  -6.5692  -6.5587  -6.5545  -6.5444
    -6.5246  -6.5108  -6.4511  -6.4444  -6.4401  -6.4356  -6.4263  -6.3967
    -6.3845  -6.3803  -6.3654  -6.3478  -6.3228  -6.3212  -6.2930  -6.2686
    -6.2501  -6.2372  -6.2180  -6.1955  -6.1628  -6.1298  -5.9284  -5.8751
    31.6546  31.7096  31.7163  32.1760  32.3225  32.4531  32.9935  33.0827
    33.2052  33.2283  33.2747  33.2757  33.4133  33.5798  33.6013  33.7401
    33.8810  34.0153  34.1831  34.2506  34.2546  34.3667  34.4452  34.6490
    34.6504  34.7121  34.7937  34.8006  34.8092  34.8315  34.9506  35.1987
    35.2080  35.2340  35.2841  35.2926  35.3088  35.4845  35.5490  35.6535
    35.6917  35.7310  35.7975  35.8134  35.8737  35.9082  36.0294  36.2046
    36.2048  36.2523  36.2968  36.3071  36.5176  36.7165  36.7658  36.8293
    36.9341  36.9797  37.1065  37.1741  37.2706  37.3050  37.3063  37.3400
    37.3907  37.5431  37.5599  37.6539  37.7508  37.8290  37.9638  38.0247
    38.0742  38.0854  38.0909  38.1164  38.1750  38.1825  38.1943  38.2038
    38.4932  38.5200  38.8828  38.9563  39.0101  39.0722  39.1125  39.2974
    39.4560  39.5189  39.5738  39.6649  39.6930  39.7199  39.8635  39.8978
    40.0079  40.0511  40.1230  40.2782  40.3666  40.5092  40.5390  40.6669
    40.7865  40.8789  41.0201  41.0303  41.1234  41.7082  41.7083  41.7235
    41.7826  41.7848  41.9889  41.9966  42.0267  42.1236  42.2678  42.3842
    42.5154  42.5898  42.6611  42.6841  42.7124  42.7474  42.8631  42.8649
    43.0524  43.1111  43.1935  43.2698  43.3891  43.4017  43.6286  43.7589
    43.7978  43.8144  43.8783  43.8885  43.9645  44.0013  44.0372  44.3981
    44.4856  44.4886  44.8096  44.9876  45.1358  45.1411  45.4134  45.4360
    45.7285  45.8311  45.8342  45.8496  45.9672  46.0977  46.1382  46.1423
    46.2648  46.2813  46.4328  46.7457  46.7619  46.7857  46.7979  46.9751
    47.3923  48.1459  48.2706  49.0364  49.3172  49.6526  49.9475  50.0797
    50.5117  50.6759  52.0342  52.5767  52.6793  52.8407  53.3041  53.7025
    54.0156  54.7606  57.4333  57.6051  58.2088  58.6148  58.6157  58.9579
    60.2868  60.3764  60.3890  60.6350  60.6382  60.8318  61.2085  61.4399
    61.8744  61.8914  62.0144  62.3148  62.3719  62.4865  62.5097  62.7935
    62.8963  62.9305  63.0426  63.0629  63.2148  63.5262  63.5868  63.9209
    63.9220  63.9230

          k = 0.0681 0.2043 0.4767 ( 16393 PWs)   bands (ev):

   -42.1212 -41.9811 -41.7425 -41.6480 -41.6401 -41.5594 -41.5457 -41.4773
   -41.4577 -41.4383 -41.4091 -41.3994 -41.3800 -41.3640 -41.3023 -41.3022
   -41.2920 -41.2851 -41.2613 -41.2025 -41.1833 -41.1615 -41.1514 -41.1327
   -41.1064 -41.1030 -41.0947 -41.0769 -41.0574 -41.0533 -41.0420 -41.0414
    -9.4290  -9.4048  -9.3122  -9.2391  -9.1492  -9.1457  -9.1440  -9.1075
    -9.0589  -8.9826  -8.9227  -8.9058  -8.8871  -8.7820  -8.7654  -8.7068
    -8.6930  -8.6876  -8.6851  -8.6493  -8.5710  -8.5035  -8.4974  -8.4310
    -8.3329  -8.2845  -8.2660  -8.1888  -8.1809  -8.0672  -7.9833  -7.9768
    -7.9591  -7.8986  -7.8734  -7.7914  -7.7442  -7.6960  -7.6756  -7.6374
    -7.5118  -7.3922  -7.1927  -7.1866  -7.1703  -7.1500  -7.1315  -7.1276
    -7.1162  -7.0883  -7.0574  -6.9864  -6.9497  -6.9384  -6.9363  -6.9273
    -6.9246  -6.8932  -6.8857  -6.8604  -6.7973  -6.7914  -6.7670  -6.7379
    -6.7307  -6.7152  -6.7133  -6.7001  -6.6919  -6.6718  -6.6683  -6.5848
    -6.5798  -6.5497  -6.5137  -6.4781  -6.4596  -6.4570  -6.4391  -6.4186
    -6.4055  -6.3958  -6.3508  -6.3394  -6.3392  -6.3290  -6.3257  -6.2750
    -6.2469  -6.2325  -6.1898  -6.1633  -6.1238  -6.0890  -5.9904  -5.9242
    31.9485  32.0404  32.0520  32.3701  32.7293  32.7926  32.8921  32.8932
    32.9426  33.0228  33.2727  33.3721  33.5334  33.5716  33.8084  33.9015
    33.9958  34.0832  34.1125  34.1415  34.1670  34.2380  34.3219  34.3228
    34.4097  34.4235  34.4331  34.5045  34.6513  34.7480  34.8219  34.9158
    34.9435  34.9852  35.0715  35.1036  35.1712  35.3610  35.6277  35.7263
    35.7278  35.8028  35.8194  35.9428  36.0685  36.1172  36.1326  36.1706
    36.2620  36.2848  36.2856  36.3276  36.4137  36.6740  36.7035  36.7446
    36.7507  36.8550  36.9386  37.0560  37.1481  37.2518  37.4089  37.4340
    37.4819  37.5238  37.6595  37.7057  37.8281  37.8414  37.8990  37.9666
    38.0277  38.0358  38.2174  38.2517  38.2570  38.3863  38.3865  38.4081
    38.4608  38.4717  38.4778  38.4964  38.6866  38.8683  38.8811  39.0816
    39.1489  39.1983  39.2425  39.4423  40.1850  40.2341  40.2476  40.3146
    40.3600  40.4081  40.4254  40.4961  40.6945  40.7172  40.8889  40.9475
    40.9837  40.9981  41.0549  41.2686  41.3809  41.5928  41.6166  41.7063
    41.7215  41.8741  42.0160  42.0486  42.0658  42.0680  42.1240  42.2978
    42.3241  42.3316  42.5705  42.6635  42.8865  42.9230  42.9760  43.0186
    43.1122  43.1708  43.2539  43.3306  43.3880  43.4522  43.6469  43.7421
    43.9649  44.0019  44.1544  44.3349  44.3905  44.4287  44.4421  44.4629
    44.4782  44.5998  44.6569  44.7946  44.8607  45.2749  45.2774  45.3125
    45.3396  45.4989  45.5058  45.6257  45.6306  45.6476  45.6493  46.0333
    46.1463  46.4134  46.7457  46.7644  46.7655  46.7762  47.1430  47.2225
    47.2474  47.6034  48.2743  48.6649  48.6968  49.4598  49.6041  49.7186
    50.4217  50.9313  51.6488  52.4095  53.7178  53.9607  54.4037  54.9216
    55.0117  55.6150  56.1747  56.4754  56.8725  57.3295  57.4307  57.7068
    60.6497  60.8780  60.9537  61.0187  61.2072  61.2710  61.2940  61.4612
    61.4673  61.8206  62.0340  62.0830  62.2243  62.3768  62.5204  62.6548
    62.7277  62.8483  62.9117  63.0454  63.1041  63.1795  63.8950  63.9729
    63.9888  64.2595

          k = 0.0681 0.2043-0.6129 ( 16372 PWs)   bands (ev):

   -42.0575 -42.0575 -41.6994 -41.6994 -41.6033 -41.6033 -41.5145 -41.5145
   -41.4310 -41.4310 -41.4248 -41.4248 -41.3725 -41.3725 -41.2966 -41.2966
   -41.2720 -41.2720 -41.2205 -41.2205 -41.1503 -41.1503 -41.1396 -41.1396
   -41.1251 -41.1251 -41.1023 -41.1023 -41.0554 -41.0554 -41.0416 -41.0416
    -9.3010  -9.3010  -9.2687  -9.2687  -9.1570  -9.1570  -9.0717  -9.0717
    -9.0445  -9.0445  -9.0387  -9.0387  -8.8907  -8.8907  -8.7459  -8.7459
    -8.7154  -8.7154  -8.7101  -8.7101  -8.5135  -8.5135  -8.4164  -8.4164
    -8.3067  -8.3067  -8.2788  -8.2788  -8.1129  -8.1129  -7.9791  -7.9791
    -7.8647  -7.8647  -7.8099  -7.8099  -7.8056  -7.8056  -7.6438  -7.6438
    -7.5227  -7.5227  -7.1821  -7.1821  -7.1356  -7.1356  -7.0403  -7.0403
    -6.9987  -6.9987  -6.9828  -6.9828  -6.9666  -6.9666  -6.8900  -6.8900
    -6.8458  -6.8458  -6.8124  -6.8124  -6.8083  -6.8083  -6.8062  -6.8062
    -6.7945  -6.7945  -6.6932  -6.6932  -6.6794  -6.6794  -6.6133  -6.6133
    -6.5844  -6.5844  -6.5528  -6.5528  -6.5253  -6.5253  -6.4238  -6.4238
    -6.4083  -6.4083  -6.3985  -6.3985  -6.3316  -6.3316  -6.2712  -6.2712
    -6.2596  -6.2596  -6.1450  -6.1450  -6.0695  -6.0695  -5.9970  -5.9970
    32.3355  32.3355  32.4610  32.4610  32.4715  32.4715  32.6321  32.6321
    33.2586  33.2586  33.4416  33.4416  33.6577  33.6577  33.7597  33.7597
    33.9289  33.9289  33.9481  33.9481  33.9830  33.9830  34.4664  34.4664
    34.4821  34.4821  34.5393  34.5393  34.6386  34.6386  34.7139  34.7139
    34.8043  34.8043  34.8971  34.8971  35.2893  35.2893  35.5451  35.5451
    35.7216  35.7216  35.9973  35.9973  36.2420  36.2420  36.3226  36.3226
    36.4325  36.4325  36.4408  36.4408  36.5192  36.5192  36.5236  36.5236
    36.6390  36.6390  36.8089  36.8089  37.0038  37.0038  37.3794  37.3794
    37.6368  37.6368  37.7942  37.7942  37.9688  37.9688  38.0424  38.0424
    38.1363  38.1363  38.2124  38.2124  38.3261  38.3261  38.3861  38.3861
    38.5397  38.5397  38.5848  38.5848  38.7481  38.7481  38.7636  38.7636
    38.7765  38.7765  38.8009  38.8009  40.2342  40.2342  40.3148  40.3148
    40.8724  40.8724  41.1586  41.1586  41.1833  41.1833  41.2198  41.2198
    41.2250  41.2250  41.3713  41.3713  41.3850  41.3850  41.5097  41.5097
    41.5551  41.5551  41.6710  41.6710  41.9203  41.9203  42.1117  42.1117
    42.2454  42.2454  42.2695  42.2695  42.6545  42.6545  42.8646  42.8646
    43.2546  43.2546  43.3884  43.3884  43.6898  43.6898  43.9512  43.9512
    44.1091  44.1091  44.1819  44.1819  44.6946  44.6946  44.7071  44.7071
    44.9208  44.9208  44.9830  44.9830  45.0153  45.0153  45.0322  45.0322
    45.0530  45.0530  45.0544  45.0544  45.4842  45.4842  45.6608  45.6608
    46.2364  46.2364  46.7505  46.7505  46.7699  46.7699  47.2086  47.2086
    48.1807  48.1807  48.3548  48.3548  48.3935  48.3935  49.2472  49.2472
    51.1053  51.1053  51.7692  51.7692  54.9211  54.9211  55.2445  55.2445
    55.5931  55.5931  56.1137  56.1137  56.1845  56.1845  56.5890  56.5890
    61.1413  61.1414  61.2460  61.2460  61.4116  61.4116  61.4952  61.4952
    61.5588  61.5588  61.7267  61.7267  62.1252  62.1252  62.1476  62.1476
    62.6798  62.6798  63.5629  63.5629  63.6269  63.6269  63.9039  63.9039
    64.0052  64.0052

          k = 0.0681 0.3405 0.3405 ( 16379 PWs)   bands (ev):

   -42.1378 -41.8686 -41.8686 -41.6606 -41.6501 -41.5544 -41.4997 -41.4997
   -41.4283 -41.4283 -41.4184 -41.3826 -41.3826 -41.3726 -41.2918 -41.2918
   -41.2839 -41.2839 -41.2381 -41.2381 -41.2114 -41.2114 -41.1380 -41.0950
   -41.0950 -41.0894 -41.0894 -41.0776 -41.0776 -41.0530 -41.0530 -41.0424
    -9.4702  -9.4702  -9.3372  -9.2618  -9.1772  -9.1456  -9.1456  -8.9654
    -8.9654  -8.9488  -8.9488  -8.7873  -8.7873  -8.7044  -8.7044  -8.7012
    -8.7012  -8.6970  -8.6970  -8.6590  -8.6590  -8.5727  -8.5690  -8.5690
    -8.4889  -8.4889  -8.2027  -8.1682  -8.0662  -8.0662  -7.9863  -7.9863
    -7.9701  -7.9404  -7.7956  -7.7956  -7.5368  -7.5368  -7.5110  -7.4279
    -7.4279  -7.4093  -7.4093  -7.2468  -7.2468  -7.2125  -7.2125  -7.1183
    -7.1183  -7.1166  -7.1166  -7.0855  -7.0524  -7.0524  -6.9788  -6.9788
    -6.9185  -6.9185  -6.9105  -6.9105  -6.7839  -6.7839  -6.7567  -6.7567
    -6.7272  -6.7040  -6.7040  -6.6478  -6.5932  -6.5831  -6.5831  -6.5468
    -6.5412  -6.5412  -6.5327  -6.5327  -6.4408  -6.4371  -6.4284  -6.4256
    -6.4256  -6.3836  -6.3333  -6.3306  -6.3306  -6.3202  -6.3197  -6.3197
    -6.3138  -6.2292  -6.2292  -6.1347  -6.1347  -6.0742  -5.9718  -5.8721
    31.7895  31.9411  31.9411  32.4492  32.4492  32.8033  33.1247  33.2224
    33.2692  33.2692  33.4601  33.4601  33.4810  33.4810  33.6354  33.6354
    33.8422  33.8422  33.8573  33.9744  34.2225  34.3647  34.3647  34.5564
    34.6472  34.6472  34.6694  34.6694  34.7296  34.7296  34.7652  34.7652
    35.0817  35.0817  35.1375  35.1375  35.2548  35.2548  35.4091  35.4091
    35.6020  35.6020  35.6834  35.8025  35.8025  35.8640  35.8640  35.8744
    36.0497  36.0497  36.1157  36.1157  36.2441  36.6738  36.6738  36.6829
    36.8949  36.8949  37.0394  37.2270  37.2815  37.3166  37.3166  37.5342
    37.5885  37.5885  37.8851  37.8851  37.9974  38.1512  38.1896  38.3579
    38.3655  38.3655  38.4650  38.4650  38.5060  38.5387  38.6676  38.6676
    38.7843  38.8953  38.8953  38.9423  38.9423  39.1705  39.1705  39.2098
    39.2098  39.2461  39.6149  39.6149  39.6179  39.6179  39.6904  39.6904
    39.9011  39.9896  39.9896  40.1910  40.2101  40.2101  40.4000  40.4000
    40.4906  40.6882  41.0766  41.0766  41.2753  41.2753  41.3080  41.6164
    41.6164  41.8718  42.1816  42.1816  42.2326  42.2326  42.3016  42.4728
    42.4728  42.4992  42.7941  42.7941  42.8322  42.8750  42.8750  43.1541
    43.1541  43.4270  43.4270  43.5053  43.5053  43.5801  43.5801  43.8297
    43.8516  43.8605  43.8605  44.0882  44.3491  44.3491  44.3669  44.3669
    44.4104  44.5717  44.5717  44.7714  44.8790  45.0056  45.3926  45.3926
    45.6126  45.8634  45.8634  45.9082  45.9082  45.9530  46.2711  46.2711
    46.2922  46.2922  46.3878  46.3878  46.4342  46.5014  46.5687  47.1359
    47.1359  47.8899  48.0322  48.0322  49.0962  49.0962  50.7200  50.7200
    51.6455  51.6455  51.8400  51.8400  53.0997  53.0997  53.7877  53.7877
    54.6267  55.4211  56.5533  56.5533  58.0039  58.0039  59.0765  59.0765
    59.4996  59.4996  60.0579  60.0579  60.3854  60.7228  61.1305  61.2706
    61.2706  62.0036  62.0036  62.3721  62.3721  62.3835  62.5461  62.5461
    62.7940  62.7940  62.9942  62.9942  63.0836  63.2052  63.2052  63.6609
    63.6609  64.2443

          k = 0.0681 0.3405 0.4767 ( 16366 PWs)   bands (ev):

   -42.0898 -41.9533 -41.8313 -41.7258 -41.6230 -41.5466 -41.5316 -41.4848
   -41.4675 -41.4435 -41.4180 -41.3896 -41.3661 -41.3199 -41.2936 -41.2692
   -41.2609 -41.2461 -41.2252 -41.2242 -41.1916 -41.1731 -41.1474 -41.1163
   -41.1161 -41.1113 -41.1112 -41.0917 -41.0827 -41.0682 -41.0495 -41.0442
    -9.3929  -9.3821  -9.2037  -9.1334  -9.1130  -9.1126  -9.0930  -9.0821
    -9.0302  -8.9336  -8.9314  -8.9007  -8.8716  -8.8532  -8.8048  -8.7957
    -8.7832  -8.7542  -8.7234  -8.6985  -8.6354  -8.6248  -8.5723  -8.5335
    -8.5302  -8.4190  -8.2973  -8.2964  -8.1854  -8.0935  -7.9199  -7.8819
    -7.8414  -7.7796  -7.7244  -7.6568  -7.6384  -7.6282  -7.5636  -7.5288
    -7.3910  -7.3486  -7.3063  -7.2564  -7.2231  -7.1857  -7.1220  -7.1197
    -7.0574  -7.0526  -7.0438  -7.0150  -7.0054  -7.0023  -6.9565  -6.9323
    -6.8837  -6.8778  -6.8766  -6.8701  -6.8484  -6.8108  -6.7659  -6.7284
    -6.7242  -6.7130  -6.6756  -6.6505  -6.6473  -6.6390  -6.6379  -6.6204
    -6.6016  -6.5215  -6.5152  -6.5022  -6.5008  -6.5003  -6.4887  -6.4639
    -6.4621  -6.3992  -6.3942  -6.3755  -6.3648  -6.3619  -6.3423  -6.2941
    -6.2496  -6.2458  -6.2120  -6.0824  -6.0483  -6.0351  -6.0343  -5.8989
    32.0255  32.2690  32.2759  32.6398  32.7888  32.8503  33.1012  33.1667
    33.2747  33.2949  33.3202  33.3592  33.4554  33.6673  33.7769  33.7885
    33.7910  33.9619  34.0002  34.1273  34.1870  34.2139  34.2187  34.2612
    34.4706  34.5002  34.5117  34.5188  34.5277  34.5828  34.6255  34.6264
    34.6930  34.7111  34.8482  34.8647  35.0976  35.1682  35.1970  35.2118
    35.4542  35.5529  35.5712  35.7810  35.8105  35.9070  35.9121  35.9511
    36.0000  36.0972  36.1625  36.2611  36.3751  36.3970  36.5520  36.5760
    36.7751  36.9509  36.9801  37.0318  37.1578  37.4030  37.5043  37.5114
    37.9388  38.1353  38.1963  38.1965  38.2086  38.2317  38.2538  38.4029
    38.4043  38.4167  38.5318  38.5713  38.6464  38.6761  38.7260  38.7318
    38.7586  38.7621  38.7899  38.9030  38.9068  38.9469  38.9506  39.1749
    39.3847  39.4787  39.5841  39.6742  39.6744  39.7896  39.8997  39.9573
    39.9942  40.0583  40.0715  40.1072  40.1570  40.2669  40.4210  40.6127
    40.6171  40.7401  40.7849  41.0978  41.2454  41.3551  41.4249  41.4370
    41.4395  41.4725  41.5877  41.6685  41.8088  41.8766  42.2811  42.6323
    42.6332  42.6468  42.6852  42.9305  42.9368  43.0796  43.0879  43.1094
    43.1935  43.2276  43.5733  43.5747  43.5863  43.8237  43.8604  43.9151
    44.0256  44.1885  44.2407  44.2919  44.2975  44.5368  44.6171  44.8299
    44.8395  44.8773  44.8875  44.8991  45.0559  45.0693  45.1244  45.1327
    45.5296  45.6027  45.6090  45.6556  45.6668  45.6775  45.6872  45.6960
    45.9236  45.9867  46.2909  46.3057  46.3489  46.4180  46.7713  47.0206
    47.6849  48.0306  48.0755  48.3128  48.3248  48.7782  50.6096  50.7569
    51.4997  51.7570  52.7385  52.8356  53.0914  53.3512  54.2464  54.8124
    55.3349  55.5041  55.7371  56.1584  56.7832  57.0834  58.0547  58.1006
    59.6412  60.1896  60.2063  60.4757  60.5080  60.7330  61.0497  61.0631
    61.1439  61.3510  61.4068  61.6827  61.7779  62.0968  62.1770  62.3497
    62.9841  63.0964  63.2216  63.3125  63.3141  63.3662  63.4027  63.4797
    64.1754  64.4025

          k = 0.0681 0.3405-0.6129 ( 16370 PWs)   bands (ev):

   -42.0277 -42.0277 -41.7832 -41.7832 -41.5881 -41.5881 -41.5023 -41.5023
   -41.4658 -41.4658 -41.4050 -41.4050 -41.3450 -41.3450 -41.2565 -41.2565
   -41.2408 -41.2408 -41.2143 -41.2143 -41.1661 -41.1661 -41.1505 -41.1505
   -41.1394 -41.1394 -41.0878 -41.0878 -41.0875 -41.0875 -41.0465 -41.0465
    -9.2789  -9.2789  -9.2607  -9.2607  -9.0453  -9.0453  -8.9998  -8.9998
    -8.9840  -8.9840  -8.9405  -8.9405  -8.8827  -8.8827  -8.8802  -8.8802
    -8.8756  -8.8756  -8.7639  -8.7639  -8.5810  -8.5810  -8.5601  -8.5601
    -8.4360  -8.4360  -8.2811  -8.2811  -8.2573  -8.2573  -7.7758  -7.7758
    -7.7719  -7.7719  -7.7010  -7.7010  -7.6347  -7.6347  -7.5837  -7.5837
    -7.4774  -7.4774  -7.1223  -7.1223  -7.1192  -7.1192  -7.1078  -7.1078
    -7.0820  -7.0820  -7.0443  -7.0443  -7.0250  -7.0250  -6.9697  -6.9697
    -6.8722  -6.8722  -6.8204  -6.8204  -6.7708  -6.7708  -6.7623  -6.7623
    -6.7168  -6.7168  -6.7160  -6.7160  -6.6656  -6.6656  -6.6219  -6.6219
    -6.5805  -6.5805  -6.5060  -6.5060  -6.4957  -6.4957  -6.4919  -6.4919
    -6.4893  -6.4893  -6.4199  -6.4199  -6.3576  -6.3576  -6.2955  -6.2955
    -6.2675  -6.2675  -6.1161  -6.1161  -6.0517  -6.0517  -5.9542  -5.9542
    32.3634  32.3634  32.6804  32.6804  32.6953  32.6953  32.9026  32.9026
    33.3706  33.3706  33.4499  33.4499  33.6949  33.6949  33.7787  33.7787
    33.8396  33.8396  34.1641  34.1641  34.1709  34.1709  34.1987  34.1987
    34.3642  34.3642  34.3821  34.3821  34.5333  34.5333  34.6250  34.6250
    34.6524  34.6524  34.6706  34.6706  34.9491  34.9491  35.0041  35.0041
    35.5377  35.5377  35.6960  35.6960  35.8692  35.8692  36.0643  36.0643
    36.1266  36.1266  36.1326  36.1326  36.3463  36.3463  36.6471  36.6471
    36.6758  36.6758  37.0721  37.0721  37.3157  37.3157  37.4684  37.4684
    38.0976  38.0976  38.3366  38.3366  38.3622  38.3622  38.3905  38.3905
    38.4738  38.4738  38.5405  38.5405  38.5764  38.5764  38.7054  38.7054
    38.7381  38.7381  38.8018  38.8018  39.1055  39.1055  39.1330  39.1330
    39.1590  39.1590  39.2637  39.2637  39.7010  39.7010  39.7933  39.7933
    40.2459  40.2459  40.5694  40.5694  40.6959  40.6959  40.7515  40.7515
    40.8970  40.8970  40.9688  40.9688  41.0104  41.0104  41.1413  41.1413
    41.2649  41.2649  41.4354  41.4354  41.8627  41.8627  42.0087  42.0087
    42.5344  42.5344  42.8674  42.8674  42.8748  42.8748  42.9589  42.9589
    43.4850  43.4850  43.7121  43.7121  43.8705  43.8705  44.2512  44.2512
    44.2738  44.2738  44.3773  44.3773  44.6105  44.6105  44.7070  44.7070
    44.9478  44.9478  45.0427  45.0427  45.0853  45.0853  45.2431  45.2431
    45.2555  45.2555  45.3328  45.3328  45.3550  45.3550  45.4960  45.4960
    46.0166  46.0166  46.3233  46.3233  46.3342  46.3342  47.0319  47.0319
    47.2481  47.2481  48.3949  48.3949  49.4930  49.4930  49.5485  49.5485
    52.1969  52.1969  52.6637  52.6637  54.0747  54.0747  54.3327  54.3327
    55.4840  55.4840  55.9283  55.9283  56.9205  56.9205  57.0282  57.0282
    60.0147  60.0147  60.7662  60.7662  61.0425  61.0425  61.1110  61.1111
    61.1652  61.1652  61.2649  61.2649  61.3165  61.3165  61.6046  61.6046
    63.1754  63.1754  63.6395  63.6395  63.7749  63.7749  63.9234  63.9234
    64.0017  64.0018

          k = 0.0681 0.4767 0.4767 ( 16387 PWs)   bands (ev):

   -42.0436 -41.9125 -41.9125 -41.7971 -41.5980 -41.5278 -41.5278 -41.5110
   -41.4754 -41.4533 -41.4533 -41.4136 -41.2811 -41.2811 -41.2463 -41.2463
   -41.2389 -41.2389 -41.2038 -41.2038 -41.1902 -41.1902 -41.1416 -41.1416
   -41.1354 -41.1354 -41.1258 -41.1258 -41.0917 -41.0604 -41.0604 -41.0483
    -9.3206  -9.3206  -9.0908  -9.0908  -9.0822  -9.0822  -9.0667  -9.0106
    -8.9875  -8.9875  -8.9591  -8.9207  -8.9207  -8.8632  -8.8632  -8.7768
    -8.7768  -8.7389  -8.7389  -8.7278  -8.7278  -8.7114  -8.7114  -8.5995
    -8.5995  -8.5802  -8.4403  -8.2809  -8.2573  -8.0550  -8.0550  -7.7757
    -7.6997  -7.6997  -7.5677  -7.5601  -7.5601  -7.4309  -7.4309  -7.3716
    -7.3716  -7.3693  -7.3692  -7.2855  -7.2855  -7.1474  -7.1474  -7.1099
    -7.1099  -7.0459  -7.0459  -7.0223  -7.0223  -7.0165  -7.0165  -7.0016
    -6.9400  -6.9400  -6.8386  -6.8386  -6.8067  -6.8067  -6.7765  -6.7636
    -6.7636  -6.6949  -6.6815  -6.6815  -6.6184  -6.6184  -6.6162  -6.6162
    -6.5728  -6.5505  -6.5505  -6.5231  -6.5231  -6.5105  -6.4827  -6.4814
    -6.4243  -6.4142  -6.4068  -6.3853  -6.3853  -6.3562  -6.3427  -6.2832
    -6.2832  -6.2748  -6.2748  -6.1006  -6.0009  -5.9956  -5.9956  -5.9014
    32.2013  32.6018  32.6018  32.8630  32.8630  33.0333  33.0333  33.3025
    33.4219  33.4219  33.4945  33.4945  33.5354  33.6131  33.6729  33.6729
    33.7687  34.0793  34.0793  34.1465  34.1465  34.1485  34.1485  34.1523
    34.1523  34.1684  34.3415  34.3486  34.3486  34.5334  34.6579  34.6579
    34.6598  34.6598  34.7536  34.7536  34.8631  34.8631  34.9564  34.9564
    35.3029  35.3029  35.5070  35.5070  35.5416  35.5416  35.7171  35.7171
    35.7238  36.0616  36.0616  36.0617  36.3633  36.3633  36.4875  36.6153
    36.9112  37.0545  37.0545  37.1439  37.2841  37.5172  37.5172  37.5179
    38.3717  38.4398  38.5262  38.6260  38.6260  38.6627  38.6961  38.7184
    38.7307  38.7307  38.7846  38.8202  38.8202  38.8282  38.8282  38.8596
    38.8596  39.1378  39.1378  39.1834  39.1834  39.3121  39.3121  39.4515
    39.4515  39.4674  39.5547  39.5547  39.5876  39.5914  39.6502  39.6502
    39.7643  39.7643  39.9825  40.1140  40.1140  40.2827  40.2827  40.4877
    40.4877  40.5891  40.6410  40.7126  40.7126  40.8315  40.8315  41.0083
    41.0254  41.0254  41.0577  41.0577  41.4181  42.0340  42.0340  42.0647
    42.2888  42.7591  42.8139  42.8139  43.1772  43.1772  43.4912  43.4912
    43.6069  43.6069  43.8131  43.8131  43.8710  43.9507  43.9507  44.2779
    44.2779  44.6853  44.6853  44.7240  44.7263  44.7639  44.7645  44.7645
    44.7754  44.7754  44.8432  45.2043  45.2043  45.2264  45.2264  45.2275
    45.3450  45.5506  45.5506  45.6889  45.6889  45.6949  45.6949  45.7629
    45.7629  45.7783  45.8088  45.8088  46.0549  46.1118  46.1589  46.6986
    46.6986  47.5758  47.8105  47.8105  49.5219  49.5219  51.8217  51.8217
    51.9854  51.9854  52.5900  52.5900  53.9071  53.9071  54.3282  54.3282
    54.3548  54.3548  56.2798  56.2798  56.7492  56.7778  58.3837  58.3837
    59.1555  59.1555  59.7012  60.1044  60.1044  60.8012  60.8012  60.8206
    60.8206  61.0518  61.1003  61.1003  61.1517  61.3691  62.3484  62.3484
    62.6371  62.6371  63.4546  63.5256  63.5256  63.7331  63.7626  64.0102
    64.0102  64.1283

          k = 0.0681 0.4767-0.6129 ( 16398 PWs)   bands (ev):

   -41.9840 -41.9840 -41.8600 -41.8600 -41.5660 -41.5660 -41.5038 -41.5038
   -41.4846 -41.4846 -41.4351 -41.4351 -41.2652 -41.2652 -41.2197 -41.2197
   -41.2123 -41.2123 -41.2055 -41.2055 -41.1809 -41.1809 -41.1666 -41.1666
   -41.1604 -41.1604 -41.1343 -41.1343 -41.0746 -41.0746 -41.0537 -41.0537
    -9.2221  -9.2221  -9.2152  -9.2152  -9.0184  -9.0184  -9.0175  -9.0175
    -8.9316  -8.9316  -8.9086  -8.9086  -8.9040  -8.9040  -8.8635  -8.8635
    -8.8066  -8.8066  -8.7846  -8.7846  -8.7224  -8.7224  -8.6812  -8.6812
    -8.5919  -8.5919  -8.4305  -8.4305  -8.1814  -8.1814  -7.9163  -7.9163
    -7.5620  -7.5620  -7.5279  -7.5279  -7.4738  -7.4738  -7.4120  -7.4120
    -7.3546  -7.3546  -7.2303  -7.2303  -7.2137  -7.2137  -7.2052  -7.2052
    -7.1826  -7.1826  -7.0359  -7.0359  -6.9624  -6.9624  -6.9510  -6.9510
    -6.9129  -6.9129  -6.9003  -6.9003  -6.8493  -6.8493  -6.8018  -6.8018
    -6.7186  -6.7186  -6.7144  -6.7144  -6.6103  -6.6103  -6.5757  -6.5757
    -6.5748  -6.5748  -6.5620  -6.5620  -6.4739  -6.4739  -6.4499  -6.4499
    -6.4376  -6.4376  -6.4108  -6.4108  -6.3740  -6.3740  -6.3315  -6.3315
    -6.3081  -6.3081  -6.1841  -6.1841  -5.9835  -5.9835  -5.9342  -5.9342
    32.4829  32.4829  33.0076  33.0076  33.0212  33.0212  33.0329  33.0329
    33.2891  33.2891  33.5400  33.5400  33.8007  33.8007  33.8444  33.8444
    33.8451  33.8451  33.9089  33.9089  34.1341  34.1341  34.1373  34.1373
    34.2212  34.2212  34.3409  34.3409  34.3529  34.3529  34.4054  34.4054
    34.4408  34.4408  34.7703  34.7703  34.9121  34.9121  35.0204  35.0204
    35.2638  35.2638  35.5009  35.5009  35.5186  35.5186  35.5278  35.5278
    35.7628  35.7628  35.7981  35.7981  36.4429  36.4429  36.6746  36.6746
    36.9541  36.9541  37.1117  37.1117  37.5211  37.5211  37.5480  37.5480
    38.5694  38.5694  38.6829  38.6829  38.7043  38.7043  38.7905  38.7905
    38.8314  38.8314  38.8526  38.8526  38.9526  38.9526  39.0005  39.0005
    39.1091  39.1091  39.2413  39.2413  39.2689  39.2689  39.3550  39.3550
    39.5470  39.5470  39.6033  39.6033  39.6753  39.6753  39.7129  39.7129
    39.8720  39.8720  40.1069  40.1069  40.1170  40.1170  40.2059  40.2059
    40.2207  40.2207  40.5679  40.5679  40.6426  40.6426  40.8258  40.8258
    40.8678  40.8678  41.1729  41.1729  41.3793  41.3793  41.4477  41.4477
    42.4660  42.4660  43.0602  43.0602  43.3665  43.3665  43.4856  43.4856
    43.5899  43.5899  44.0253  44.0253  44.2451  44.2451  44.3588  44.3588
    44.4141  44.4141  44.4664  44.4664  44.7782  44.7782  44.9987  44.9987
    45.0631  45.0631  45.2596  45.2596  45.2644  45.2644  45.4023  45.4023
    45.4254  45.4254  45.4381  45.4381  45.5096  45.5096  45.5271  45.5271
    45.7149  45.7149  45.7376  45.7376  45.8964  45.8964  46.3243  46.3243
    46.8465  46.8465  47.5644  47.5644  50.7051  50.7051  50.7649  50.7649
    53.0754  53.0754  53.1952  53.1952  53.3407  53.3407  53.5867  53.5867
    55.1259  55.1259  55.3817  55.3817  57.5281  57.5281  57.8302  57.8302
    59.0800  59.0800  60.1004  60.1004  60.3138  60.3138  60.5095  60.5095
    60.6364  60.6364  60.7905  60.7905  61.6010  61.6010  61.9091  61.9091
    62.8059  62.8059  63.1122  63.1122  63.7966  63.7966  64.0695  64.0695
    64.8551  64.8551

          k = 0.0681-0.6129-0.6129 ( 16424 PWs)   bands (ev):

   -41.9275 -41.9275 -41.9275 -41.9275 -41.5376 -41.5376 -41.5376 -41.5376
   -41.4619 -41.4619 -41.4619 -41.4619 -41.1942 -41.1942 -41.1942 -41.1942
   -41.1942 -41.1942 -41.1942 -41.1942 -41.1874 -41.1874 -41.1874 -41.1874
   -41.1874 -41.1874 -41.1874 -41.1874 -41.0632 -41.0632 -41.0632 -41.0632
    -9.1334  -9.1334  -9.1334  -9.1334  -9.1334  -9.1334  -9.1334  -9.1334
    -8.8395  -8.8395  -8.8395  -8.8395  -8.8395  -8.8395  -8.8395  -8.8395
    -8.8013  -8.8013  -8.8013  -8.8013  -8.7541  -8.7541  -8.7541  -8.7541
    -8.6111  -8.6111  -8.6111  -8.6111  -8.0542  -8.0542  -8.0542  -8.0542
    -7.3630  -7.3630  -7.3630  -7.3630  -7.3630  -7.3630  -7.3630  -7.3630
    -7.3289  -7.3289  -7.3289  -7.3289  -7.3289  -7.3289  -7.3289  -7.3289
    -7.1285  -7.1285  -7.1285  -7.1285  -6.9274  -6.9274  -6.9274  -6.9274
    -6.9274  -6.9274  -6.9274  -6.9274  -6.8966  -6.8966  -6.8966  -6.8966
    -6.6516  -6.6516  -6.6516  -6.6516  -6.6516  -6.6516  -6.6516  -6.6516
    -6.5338  -6.5338  -6.5338  -6.5338  -6.4679  -6.4679  -6.4679  -6.4679
    -6.3845  -6.3845  -6.3845  -6.3845  -6.3736  -6.3736  -6.3736  -6.3736
    -6.2711  -6.2711  -6.2711  -6.2711  -5.9437  -5.9437  -5.9437  -5.9437
    32.7065  32.7065  32.7065  32.7065  33.4279  33.4279  33.4279  33.4279
    33.4279  33.4279  33.4279  33.4279  33.7774  33.7774  33.7774  33.7774
    33.7774  33.7774  33.7774  33.7774  33.9612  33.9612  33.9612  33.9612
    33.9761  33.9761  33.9761  33.9761  34.7054  34.7054  34.7054  34.7054
    34.7054  34.7054  34.7054  34.7054  34.9080  34.9080  34.9080  34.9080
    35.2199  35.2199  35.2199  35.2199  35.4885  35.4885  35.4885  35.4885
    35.4885  35.4885  35.4885  35.4885  36.5939  36.5939  36.5939  36.5939
    37.0942  37.0942  37.0942  37.0942  37.5612  37.5612  37.5612  37.5612
    38.8982  38.8982  38.8982  38.8982  38.9608  38.9608  38.9608  38.9608
    38.9868  38.9868  38.9868  38.9868  39.2055  39.2055  39.2055  39.2055
    39.2876  39.2876  39.2876  39.2876  39.3159  39.3159  39.3159  39.3159
    39.6016  39.6016  39.6016  39.6016  39.6016  39.6016  39.6016  39.6016
    40.1241  40.1241  40.1241  40.1241  40.1241  40.1241  40.1241  40.1241
    40.2704  40.2704  40.2704  40.2704  40.2704  40.2704  40.2704  40.2704
    40.8535  40.8535  40.8535  40.8535  40.9613  40.9613  40.9613  40.9613
    42.9390  42.9390  42.9390  42.9390  43.4610  43.4610  43.4610  43.4610
    44.0309  44.0309  44.0309  44.0309  44.0309  44.0309  44.0309  44.0309
    45.0442  45.0442  45.0442  45.0442  45.0924  45.0924  45.0924  45.0924
    45.0924  45.0924  45.0924  45.0924  45.5275  45.5275  45.5275  45.5275
    45.5329  45.5329  45.5329  45.5329  45.5378  45.5378  45.5378  45.5378
    45.5378  45.5378  45.5378  45.5378  45.5575  45.5575  45.5575  45.5575
    46.9350  46.9350  46.9350  46.9350  51.9577  51.9577  51.9577  51.9577
    51.9577  51.9577  51.9577  51.9577  54.4566  54.4566  54.4566  54.4566
    54.4566  54.4566  54.4566  54.4566  58.1046  58.1046  58.1046  58.1046
    59.0641  59.0641  59.0641  59.0641  60.3928  60.3928  60.3928  60.3928
    60.3928  60.3928  60.3928  60.3928  62.1056  62.1056  62.1056  62.1056
    62.4193  62.4193  62.4193  62.4193  64.4570  64.4571  64.4571  64.4571
    64.4571  64.4571

          k = 0.2043 0.2043 0.2043 ( 16425 PWs)   bands (ev):

   -42.1874 -41.7875 -41.7875 -41.7875 -41.5211 -41.5211 -41.5211 -41.4857
   -41.4857 -41.4857 -41.4011 -41.3249 -41.3249 -41.3249 -41.3249 -41.3249
   -41.3249 -41.3175 -41.3175 -41.3175 -41.2095 -41.2095 -41.2095 -41.0599
   -41.0599 -41.0599 -41.0553 -41.0553 -41.0553 -41.0553 -41.0553 -41.0553
    -9.5349  -9.5349  -9.5349  -9.4028  -9.2507  -9.2507  -9.2507  -8.7985
    -8.7985  -8.7985  -8.7218  -8.7218  -8.7218  -8.7218  -8.7218  -8.7218
    -8.6318  -8.6318  -8.6318  -8.6318  -8.6318  -8.6318  -8.4031  -8.4031
    -8.4031  -8.2335  -8.2335  -8.2335  -8.0561  -8.0561  -8.0561  -8.0561
    -8.0561  -8.0561  -7.7561  -7.7561  -7.7561  -7.4263  -7.4263  -7.4262
    -7.3352  -7.3352  -7.3352  -7.3352  -7.3352  -7.3352  -7.2818  -7.2818
    -7.2818  -7.1409  -7.1409  -7.1409  -7.1409  -7.1409  -7.1409  -7.1258
    -7.1258  -7.1258  -6.9139  -6.9139  -6.9139  -6.7299  -6.7299  -6.7299
    -6.6834  -6.6834  -6.6834  -6.5110  -6.5110  -6.5110  -6.4916  -6.4916
    -6.4916  -6.4278  -6.4278  -6.4278  -6.4278  -6.4278  -6.4278  -6.3809
    -6.3809  -6.3809  -6.3486  -6.3486  -6.3486  -6.3266  -6.3266  -6.3266
    -6.2895  -6.2895  -6.1695  -6.1695  -6.1695  -6.1180  -5.8745  -5.8745
    31.5741  31.5741  31.5741  32.2096  32.2096  32.2096  32.8579  33.0689
    33.0689  33.0689  33.4571  33.7282  33.7282  33.7282  33.8130  33.8130
    33.8130  33.8130  33.8130  33.8130  34.3647  34.3647  34.3647  34.6799
    34.6799  34.6799  35.0231  35.0231  35.0231  35.2930  35.2930  35.2930
    35.4541  35.4541  35.4541  35.4541  35.4541  35.4541  35.5947  35.5947
    35.5947  35.5947  35.5947  35.5947  35.7394  35.7394  35.7394  36.1656
    36.1656  36.1656  36.1656  36.1656  36.1656  36.7954  36.7954  36.7954
    37.0997  37.0997  37.0997  37.1535  37.1535  37.1535  37.5660  37.6935
    37.6935  37.9622  37.9622  37.9622  38.0055  38.0055  38.0055  38.0055
    38.0055  38.0055  38.0426  38.0426  38.4344  38.4344  38.4344  38.4344
    38.4344  38.4344  38.7523  38.7523  38.7523  38.7701  38.7701  38.7701
    39.2460  39.2460  39.2460  39.4968  39.4968  39.4968  40.1293  40.1293
    40.1293  40.3892  40.3892  40.3892  40.7442  40.7442  40.7442  40.7442
    40.7442  40.7442  40.9610  40.9610  40.9610  41.5588  41.5588  41.5588
    41.9305  41.9305  41.9305  41.9664  41.9664  41.9664  42.1046  42.1046
    42.1046  42.1046  42.1046  42.1046  42.2986  42.2986  43.1747  43.1747
    43.1747  43.2210  43.2210  43.2210  43.2210  43.2210  43.2210  43.6435
    43.6435  43.6435  43.7519  43.7519  43.7519  44.9290  44.9290  44.9290
    45.0235  45.0235  45.0235  45.0606  45.2129  45.2129  45.2129  45.3325
    45.3325  45.3325  45.4545  45.4545  46.0906  46.0906  46.0906  46.5400
    46.5400  46.5400  46.5400  46.5400  46.5400  46.7844  46.7844  46.7844
    48.2700  48.2700  48.2700  49.0628  49.0628  49.0628  51.3845  51.3845
    51.3845  51.3845  51.3845  51.3845  52.1634  52.1634  52.1634  53.8737
    53.8737  53.8737  58.8094  58.8094  58.8094  58.8094  58.8094  58.8094
    60.0270  60.6719  60.6719  60.6719  60.6719  60.6719  60.6719  61.0723
    61.0723  61.0723  61.6224  62.2925  62.2925  62.2925  62.7150  62.7150
    62.7150  62.9508  62.9508  62.9508  63.8100  63.8102  63.8105  63.8105
    63.8105  63.8105

          k = 0.2043 0.2043 0.3405 ( 16384 PWs)   bands (ev):

   -42.1542 -41.8814 -41.7651 -41.7651 -41.5830 -41.5830 -41.5107 -41.4720
   -41.4720 -41.4283 -41.3885 -41.3618 -41.3618 -41.3239 -41.3239 -41.3185
   -41.3185 -41.2919 -41.2626 -41.2626 -41.2183 -41.1734 -41.1734 -41.0964
   -41.0781 -41.0781 -41.0682 -41.0682 -41.0593 -41.0593 -41.0559 -41.0559
    -9.4965  -9.4578  -9.4578  -9.2818  -9.1983  -9.1983  -9.1678  -8.9780
    -8.8748  -8.8748  -8.7807  -8.7807  -8.7714  -8.7714  -8.7709  -8.7709
    -8.6921  -8.6921  -8.6547  -8.6547  -8.6401  -8.6401  -8.5692  -8.4768
    -8.3007  -8.3007  -8.2497  -8.2497  -8.0885  -8.0885  -7.9618  -7.9618
    -7.9034  -7.9034  -7.8787  -7.8787  -7.5606  -7.5606  -7.5293  -7.4729
    -7.4729  -7.3714  -7.3714  -7.2356  -7.1954  -7.1954  -7.1741  -7.1741
    -7.1547  -7.1320  -7.1320  -7.1105  -7.1105  -7.0890  -7.0621  -7.0621
    -7.0366  -7.0366  -6.8583  -6.7873  -6.7817  -6.7817  -6.7756  -6.7724
    -6.7724  -6.6469  -6.6469  -6.6454  -6.5860  -6.5860  -6.5585  -6.5585
    -6.5538  -6.5538  -6.4998  -6.4456  -6.4456  -6.4258  -6.4258  -6.4106
    -6.4011  -6.4011  -6.3889  -6.3889  -6.3144  -6.2697  -6.2697  -6.2609
    -6.2599  -6.2404  -6.2018  -6.1792  -6.1368  -6.1368  -5.9153  -5.8867
    31.7633  31.7633  31.7938  32.3433  32.5203  32.5203  33.0022  33.2599
    33.2599  33.3121  33.3298  33.3812  33.3812  33.7191  33.7726  33.8380
    33.8380  33.8411  33.8411  34.0177  34.0177  34.3877  34.3877  34.5941
    34.6531  34.6875  34.6875  34.8386  34.8386  34.8898  34.8898  34.9878
    34.9878  35.1037  35.1037  35.1942  35.2301  35.2301  35.4603  35.4603
    35.6113  35.6113  35.7323  35.7323  35.7867  35.7867  35.9449  36.1217
    36.1217  36.2729  36.2729  36.3150  36.3150  36.3945  36.8106  36.8106
    36.8138  36.9576  36.9576  37.3247  37.3247  37.3982  37.4098  37.7328
    37.7328  37.7496  37.7843  37.8633  37.8633  38.1749  38.1816  38.1816
    38.2052  38.2245  38.2552  38.2552  38.4492  38.4492  38.4724  38.4724
    38.6734  38.6734  38.6982  38.6982  38.8302  38.8302  39.0112  39.1159
    39.5051  39.5051  39.5085  39.5265  39.5964  39.5964  39.6110  39.9261
    40.0043  40.0043  40.2245  40.2245  40.2524  40.2525  40.7238  40.7238
    41.0534  41.0534  41.2341  41.2341  41.3275  41.4509  41.4509  41.7486
    41.7486  41.7699  41.9768  41.9768  42.0239  42.1456  42.1456  42.2442
    42.2636  42.2636  42.4154  42.4439  42.4439  42.4578  42.6322  42.6505
    42.6505  43.4012  43.4141  43.4141  43.8836  43.8836  43.9122  43.9122
    43.9447  43.9670  43.9670  44.0747  44.0747  44.1636  44.1987  44.1987
    44.7435  44.7435  44.7542  44.9465  44.9858  45.0196  45.0196  45.3273
    45.9571  45.9992  46.0259  46.0259  46.0628  46.0628  46.1501  46.1501
    46.1617  46.1617  46.2929  46.5508  46.5508  46.6091  46.7219  46.7219
    47.2692  47.2692  48.0215  49.4243  49.4243  50.3017  50.4177  50.4177
    51.1692  51.1692  51.3085  52.4976  52.4976  53.2017  53.2017  53.6224
    54.6740  54.6740  57.5751  57.5751  57.8774  57.8774  58.7014  58.7014
    59.9423  59.9423  60.1331  60.9323  60.9323  61.0504  61.0504  61.1679
    61.1679  61.3362  62.0805  62.1265  62.2201  62.2201  62.2857  62.5083
    62.5083  62.8153  62.9473  62.9473  63.0388  63.0388  63.3831  63.5295
    63.5295  63.7199

          k = 0.2043 0.2043 0.4767 ( 16370 PWs)   bands (ev):

   -42.1055 -41.9672 -41.7324 -41.7324 -41.6399 -41.6399 -41.4957 -41.4537
   -41.4520 -41.4520 -41.3960 -41.3960 -41.3226 -41.3226 -41.3198 -41.3197
   -41.2981 -41.2685 -41.2313 -41.2051 -41.2051 -41.1496 -41.1403 -41.1403
   -41.1114 -41.1114 -41.0870 -41.0870 -41.0585 -41.0585 -41.0567 -41.0567
    -9.4176  -9.3460  -9.3460  -9.1515  -9.1293  -9.1215  -9.1215  -9.0461
    -9.0437  -9.0437  -8.9044  -8.9044  -8.7900  -8.7900  -8.7604  -8.7460
    -8.7460  -8.7457  -8.7457  -8.6968  -8.6639  -8.6639  -8.5724  -8.5724
    -8.3868  -8.3868  -8.0930  -8.0930  -8.0807  -8.0807  -7.9814  -7.9814
    -7.8516  -7.8516  -7.7514  -7.7514  -7.7254  -7.7254  -7.6058  -7.6058
    -7.4813  -7.4813  -7.2877  -7.1680  -7.1213  -7.1213  -7.1068  -7.1068
    -7.0646  -7.0646  -7.0353  -6.9948  -6.9948  -6.9765  -6.9537  -6.9537
    -6.9153  -6.9153  -6.8950  -6.8823  -6.8485  -6.8485  -6.8347  -6.6893
    -6.6893  -6.6814  -6.6814  -6.6724  -6.6724  -6.6596  -6.6596  -6.6263
    -6.5906  -6.5906  -6.4837  -6.4821  -6.4821  -6.4597  -6.4597  -6.4406
    -6.4382  -6.4227  -6.4227  -6.4122  -6.4122  -6.3835  -6.2350  -6.2060
    -6.2060  -6.1937  -6.1400  -6.1333  -6.1333  -6.0906  -5.9746  -5.9286
    32.0545  32.0545  32.1104  32.5479  32.8971  32.8971  32.9092  32.9580
    32.9580  33.2438  33.2575  33.5433  33.5433  33.6606  33.8956  33.8956
    34.0437  34.0437  34.0868  34.0901  34.1363  34.1363  34.1615  34.1615
    34.3164  34.3164  34.3675  34.3675  34.3686  34.6972  34.6972  34.9477
    35.0106  35.0106  35.1133  35.1133  35.1312  35.1312  35.1542  35.1542
    35.6188  35.6188  35.6255  35.6255  36.0476  36.0476  36.0811  36.0811
    36.2443  36.3058  36.4216  36.4216  36.5382  36.5805  36.5805  36.6293
    36.6293  36.7831  36.7831  37.0999  37.3769  37.3769  37.5638  37.7376
    37.8352  37.8352  37.9649  37.9986  37.9986  38.0628  38.0628  38.0835
    38.0835  38.4224  38.4224  38.4273  38.4466  38.4825  38.4825  38.5172
    38.5172  38.5648  38.5844  38.6047  38.6047  38.9984  39.0750  39.0750
    39.1539  39.4022  39.4022  39.4363  39.7316  39.7316  39.9107  39.9107
    40.1734  40.1734  40.2548  40.5037  40.6475  40.6475  41.1103  41.1103
    41.1229  41.2982  41.2982  41.6177  41.6177  41.6234  41.6234  41.6395
    41.6395  41.6552  41.6552  41.6645  41.7329  41.7673  41.7673  42.1145
    42.1145  42.2335  42.2335  42.5880  42.5945  42.7443  42.9575  43.0346
    43.0346  43.0859  43.2951  43.3079  43.3079  43.7256  43.7256  44.1308
    44.3392  44.4453  44.4453  44.5059  44.5156  44.5156  44.5459  44.5459
    44.5635  44.5635  44.5804  44.5804  44.5990  44.5990  44.7198  45.6565
    45.6565  45.6627  45.6692  45.6692  45.7080  45.7192  45.7193  46.2932
    46.2932  46.3624  46.5705  46.5705  46.6226  46.6542  46.6542  47.1755
    47.1755  47.6132  47.6556  49.3801  49.3801  49.9084  49.9084  50.1954
    50.8402  50.8402  51.4452  53.1524  53.6778  53.6778  54.3877  54.3877
    55.5494  55.5494  56.2465  56.2465  56.7892  56.7892  57.6500  57.6500
    60.4273  60.4273  60.4944  61.1531  61.1761  61.1761  61.2397  61.2397
    61.4386  61.7893  61.7893  61.7967  61.7967  61.8963  61.9057  61.9057
    62.2747  62.2747  62.8540  63.0485  63.0485  63.0601  63.7125  63.7126
    63.8981  64.2881

          k = 0.2043 0.2043-0.6129 ( 16342 PWs)   bands (ev):

   -42.0426 -42.0426 -41.6902 -41.6902 -41.6902 -41.6902 -41.4764 -41.4764
   -41.4264 -41.4264 -41.4264 -41.4264 -41.3212 -41.3212 -41.3212 -41.3212
   -41.2482 -41.2482 -41.2176 -41.2176 -41.1542 -41.1542 -41.1541 -41.1541
   -41.1113 -41.1113 -41.1112 -41.1112 -41.0576 -41.0576 -41.0576 -41.0576
    -9.3009  -9.3009  -9.2052  -9.2052  -9.2052  -9.2052  -9.0226  -9.0226
    -9.0226  -9.0226  -8.9521  -8.9521  -8.8877  -8.8877  -8.7804  -8.7804
    -8.7803  -8.7803  -8.7031  -8.7031  -8.7031  -8.7031  -8.4805  -8.4805
    -8.4805  -8.4805  -8.0559  -8.0559  -8.0559  -8.0559  -7.9029  -7.9029
    -7.9029  -7.9029  -7.7322  -7.7322  -7.7322  -7.7322  -7.6090  -7.6090
    -7.6090  -7.6090  -7.1117  -7.1117  -7.1117  -7.1117  -7.0807  -7.0807
    -7.0517  -7.0517  -6.9656  -6.9656  -6.9475  -6.9475  -6.9475  -6.9475
    -6.8257  -6.8257  -6.8257  -6.8257  -6.8222  -6.8222  -6.8222  -6.8222
    -6.7935  -6.7935  -6.7935  -6.7935  -6.6546  -6.6546  -6.5511  -6.5511
    -6.5510  -6.5510  -6.5326  -6.5326  -6.5326  -6.5326  -6.4905  -6.4905
    -6.4628  -6.4628  -6.4185  -6.4185  -6.4185  -6.4185  -6.2125  -6.2125
    -6.1577  -6.1577  -6.1577  -6.1577  -6.0504  -6.0504  -5.9979  -5.9979
    32.4400  32.4400  32.4400  32.4400  32.4991  32.4991  32.8369  32.8369
    33.5032  33.5032  33.5032  33.5032  33.6218  33.6218  33.9147  33.9147
    33.9147  33.9147  33.9997  33.9997  33.9997  33.9997  34.0279  34.0279
    34.3337  34.3337  34.3337  34.3337  34.5217  34.5217  34.6963  34.6963
    34.6963  34.6963  35.0740  35.0740  35.0740  35.0740  35.6039  35.6039
    35.6039  35.6039  35.6278  35.6278  35.6278  35.6278  36.3235  36.3235
    36.3460  36.3460  36.3460  36.3460  36.5977  36.5977  36.5977  36.5977
    36.7199  36.7199  37.0637  37.0637  37.0637  37.0637  37.6715  37.6715
    37.9097  37.9097  37.9097  37.9097  38.1148  38.1148  38.1148  38.1148
    38.2331  38.2331  38.5605  38.5605  38.5605  38.5605  38.6298  38.6298
    38.6298  38.6298  38.7369  38.7369  38.7641  38.7641  38.8339  38.8339
    38.8339  38.8339  38.9738  38.9738  39.8250  39.8250  39.8250  39.8250
    40.8040  40.8040  40.8040  40.8040  40.9982  40.9982  41.3070  41.3070
    41.4724  41.4724  41.4724  41.4724  41.4790  41.4790  41.4790  41.4790
    41.5895  41.5895  41.8344  41.8344  41.8344  41.8344  41.9570  41.9570
    41.9570  41.9570  41.9617  41.9617  41.9617  41.9617  42.8129  42.8129
    43.3952  43.3952  43.6656  43.6656  43.9301  43.9301  43.9731  43.9731
    43.9731  43.9731  44.0903  44.0903  44.0903  44.0903  45.1120  45.1120
    45.1120  45.1120  45.1190  45.1190  45.1190  45.1190  45.2210  45.2210
    45.2210  45.2210  45.2368  45.2368  45.3665  45.3665  45.3665  45.3665
    46.0576  46.0576  46.6033  46.6033  46.6033  46.6033  47.1835  47.1835
    48.2912  48.2912  48.2912  48.2912  48.9353  48.9353  50.4070  50.4070
    50.4070  50.4070  52.4192  52.4192  54.9320  54.9320  54.9320  54.9320
    55.6067  55.6067  55.6067  55.6067  56.5414  56.5414  56.5414  56.5414
    61.0958  61.0958  61.1328  61.1328  61.1734  61.1734  61.1734  61.1734
    61.4530  61.4530  61.4530  61.4530  61.6536  61.6536  61.6536  61.6536
    62.4442  62.4442  62.4442  62.4442  63.7709  63.7709  64.0302  64.0302
    64.2620  64.2621

          k = 0.2043 0.3405 0.3405 ( 16386 PWs)   bands (ev):

   -42.1219 -41.8564 -41.8564 -41.7437 -41.6525 -41.5698 -41.5698 -41.4637
   -41.4593 -41.3777 -41.3777 -41.3578 -41.3578 -41.3278 -41.2913 -41.2913
   -41.2843 -41.2843 -41.2647 -41.2647 -41.1854 -41.1854 -41.1457 -41.0947
   -41.0947 -41.0897 -41.0897 -41.0819 -41.0819 -41.0656 -41.0656 -41.0598
    -9.4350  -9.4350  -9.3724  -9.1492  -9.1479  -9.1265  -9.1265  -8.9631
    -8.9631  -8.9133  -8.9133  -8.7955  -8.7955  -8.7949  -8.7949  -8.7578
    -8.7512  -8.7512  -8.7440  -8.7440  -8.7358  -8.7358  -8.5186  -8.5186
    -8.4145  -8.4145  -8.3803  -8.0715  -7.9828  -7.9826  -7.9826  -7.9348
    -7.9348  -7.8201  -7.8201  -7.7020  -7.6388  -7.6388  -7.4782  -7.3330
    -7.3330  -7.3189  -7.3189  -7.3170  -7.3170  -7.3046  -7.3046  -7.0731
    -7.0731  -7.0679  -7.0646  -7.0646  -7.0604  -7.0604  -7.0273  -7.0273
    -6.9777  -6.9777  -6.9050  -6.9050  -6.7592  -6.7592  -6.7545  -6.7215
    -6.7215  -6.6574  -6.6574  -6.6533  -6.6503  -6.6390  -6.5798  -6.5798
    -6.5773  -6.5709  -6.5709  -6.5441  -6.5441  -6.4478  -6.4478  -6.4466
    -6.4466  -6.4333  -6.4121  -6.3356  -6.2923  -6.2842  -6.2751  -6.2750
    -6.2561  -6.1516  -6.1516  -6.1506  -6.1506  -6.0829  -5.9455  -5.8915
    31.8925  31.9753  31.9753  32.6565  32.6565  32.8727  33.1147  33.3647
    33.3647  33.3923  33.4385  33.4385  33.5094  33.5094  33.5877  33.5877
    33.8548  33.9456  34.0139  34.0292  34.0292  34.0975  34.0975  34.3928
    34.3928  34.6182  34.6182  34.6567  34.6567  34.8094  34.9145  34.9145
    34.9208  34.9208  34.9665  34.9665  35.0665  35.1305  35.1305  35.1649
    35.1649  35.2035  35.7318  35.7318  35.8121  35.8121  35.8447  35.8447
    36.2991  36.2991  36.3885  36.3885  36.4239  36.4240  36.6301  36.6354
    36.6354  36.7735  36.8875  37.3373  37.3771  37.6348  37.6348  37.7813
    37.8764  37.8764  37.9312  38.2431  38.3347  38.3576  38.3576  38.3892
    38.4045  38.4045  38.4794  38.4794  38.5299  38.5299  38.5962  38.6786
    38.8491  38.8491  38.8504  38.8739  38.8739  39.1909  39.1909  39.3077
    39.3077  39.3594  39.3594  39.3800  39.4695  39.4695  39.5248  39.5248
    39.7434  39.8640  40.2644  40.2644  40.4367  40.4367  40.6691  40.6691
    40.9449  40.9449  41.0030  41.1282  41.2283  41.5949  41.5949  41.6156
    41.6156  41.7736  41.8290  41.8290  41.9040  41.9040  41.9584  42.1685
    42.1685  42.3687  42.4012  42.4012  42.4535  42.4535  42.6989  42.6989
    42.8149  43.3001  43.5186  43.5186  43.6316  43.7139  43.7139  43.9410
    44.0776  44.0776  44.1864  44.1864  44.3903  44.4956  44.4957  44.5226
    44.5454  44.5454  44.7296  44.7296  45.1391  45.2371  45.2973  45.2973
    45.3280  45.9467  45.9467  46.0149  46.0149  46.1372  46.1822  46.1822
    46.1987  46.1987  46.2977  46.3122  46.5798  46.5798  46.6011  47.0271
    47.0271  47.2376  47.2376  49.3268  50.2337  50.2337  50.7272  50.7272
    51.5824  51.5824  52.3066  52.3066  52.3271  52.3271  54.0763  54.4285
    54.4285  55.3418  56.7371  56.7371  57.6357  57.6357  58.2146  58.2146
    59.8319  59.8319  60.1588  60.1588  60.2173  61.0864  61.1762  61.1762
    61.4383  61.4383  61.4821  61.5680  61.5680  61.9681  62.5832  62.7116
    62.7116  62.8232  62.8232  62.8648  62.8648  62.9196  62.9196  63.2944
    63.2944  63.6245

[...]
    49.9616  49.9616  49.9616  49.9616  52.3401  52.3401  52.3401  52.3401
    52.3401  52.3401  52.3401  52.3401  54.0226  54.0226  54.0226  54.0226
    54.0226  54.0226  54.0226  54.0226  56.2159  56.2159  56.2159  56.2159
    59.7182  59.7182  59.7182  59.7182  60.5501  60.5501  60.5501  60.5501
    60.5501  60.5501  60.5501  60.5501  61.7807  61.7807  61.7807  61.7807
    62.5598  62.5598  62.5598  62.5598  62.6552  62.6552  62.6552  62.6552
    62.6552  62.6552

          k = 0.4767 0.4767 0.4767 ( 16353 PWs)   bands (ev):

   -41.9579 -41.8382 -41.8381 -41.8381 -41.7345 -41.7345 -41.7345 -41.6476
   -41.2653 -41.2653 -41.2653 -41.2439 -41.2439 -41.2439 -41.2439 -41.2439
   -41.2439 -41.2413 -41.2413 -41.2413 -41.1544 -41.1544 -41.1544 -41.1396
   -41.1396 -41.1396 -41.1374 -41.1374 -41.1374 -41.1374 -41.1374 -41.1374
    -9.1597  -9.1597  -9.1597  -9.0227  -9.0227  -9.0227  -8.9630  -8.9630
    -8.9630  -8.9609  -8.9609  -8.9609  -8.9609  -8.9609  -8.9609  -8.9395
    -8.9395  -8.9395  -8.9395  -8.9394  -8.9394  -8.8360  -8.8360  -8.8360
    -8.4559  -8.0376  -8.0376  -8.0376  -7.6106  -7.6106  -7.6106  -7.6101
    -7.6101  -7.6101  -7.6101  -7.6101  -7.6101  -7.5806  -7.5806  -7.5806
    -7.4837  -7.4837  -7.4837  -7.2028  -7.2028  -7.2028  -7.2028  -7.2027
    -7.2027  -7.1630  -7.1353  -7.1353  -7.1353  -7.0882  -7.0882  -7.0882
    -6.9073  -6.9073  -6.9073  -6.8416  -6.8416  -6.8416  -6.8416  -6.8416
    -6.8416  -6.7755  -6.7755  -6.7755  -6.7084  -6.7084  -6.7084  -6.6986
    -6.6986  -6.6986  -6.6986  -6.6986  -6.6986  -6.6135  -6.6135  -6.6135
    -6.2491  -6.2491  -6.2491  -6.1664  -6.1664  -6.1423  -6.1423  -6.1423
    -6.0702  -6.0702  -6.0702  -6.0639  -6.0639  -6.0639  -6.0028  -6.0028
    32.7241  32.7241  32.7241  33.3299  33.3299  33.3299  33.3299  33.3299
    33.3299  33.3427  33.3427  33.3427  33.6312  33.6312  33.6312  33.6704
    33.8114  33.8114  33.8114  33.8114  33.8114  33.8114  33.8170  33.8170
    33.8170  34.1833  34.1833  34.1833  34.2011  34.2011  34.2011  34.4416
    34.4696  34.4696  34.4696  34.8790  34.8790  34.8790  35.2235  35.2235
    35.2235  35.2235  35.2235  35.2235  35.7145  35.7145  35.7145  35.7145
    35.7146  35.7146  35.9788  35.9788  35.9788  36.1496  36.1496  36.1496
    37.8520  38.0523  38.0523  38.0523  38.2740  38.2740  38.3358  38.3358
    38.3358  38.5778  38.5778  38.5848  38.5848  38.5848  38.7233  38.7233
    38.7233  38.7994  38.7994  38.7994  39.1816  39.1816  39.1816  39.1816
    39.1816  39.1816  39.4841  39.4841  39.4841  39.6446  39.6446  39.6446
    39.7746  39.7746  39.7746  39.7834  39.7834  39.7834  39.7834  39.7834
    39.7834  39.8641  39.8641  39.8641  40.2046  40.2046  40.2046  40.7826
    40.7826  40.7826  40.9331  40.9331  40.9331  40.9331  40.9331  40.9331
    41.1828  41.3070  41.3070  41.3070  41.4685  41.4685  41.4685  41.9040
    41.9040  41.9040  41.9040  41.9040  41.9040  42.1482  42.1482  42.1482
    42.1816  42.1816  42.2139  42.2139  42.2139  42.5987  42.5987  42.5987
    43.1193  43.1193  43.1193  43.5494  43.5494  44.0750  44.0750  44.0750
    45.8173  45.8173  45.8173  45.9940  45.9940  45.9940  45.9940  45.9940
    45.9940  46.0854  46.0854  46.0854  46.0854  46.0854  46.0854  46.2413
    46.2413  46.2413  46.2998  46.2998  46.2998  46.4692  46.4692  46.4692
    50.4539  50.4539  50.4539  51.9309  51.9309  51.9309  51.9309  51.9309
    51.9309  52.2002  52.2002  52.2002  53.4891  53.4891  53.4891  54.9893
    54.9893  54.9893  54.9893  54.9893  54.9893  55.1409  55.1409  55.1409
    60.0186  60.0186  60.0186  60.5571  60.5571  60.5571  60.5571  60.5571
    60.5571  61.0538  61.1227  61.1227  61.1227  61.5731  61.5731  61.5731
    62.1437  62.1437  62.1437  62.1437  62.1437  62.1437  62.1684  62.1684
    62.1684  63.0202

          k = 0.4767 0.4767-0.6129 ( 16390 PWs)   bands (ev):

   -41.9034 -41.9034 -41.7910 -41.7910 -41.7909 -41.7909 -41.6949 -41.6949
   -41.2554 -41.2554 -41.2554 -41.2554 -41.2426 -41.2426 -41.2426 -41.2426
   -41.1971 -41.1971 -41.1940 -41.1940 -41.1861 -41.1861 -41.1861 -41.1860
   -41.1451 -41.1451 -41.1450 -41.1450 -41.1385 -41.1385 -41.1385 -41.1385
    -9.1106  -9.1106  -9.0648  -9.0648  -9.0648  -9.0648  -8.9813  -8.9813
    -8.9813  -8.9813  -8.9659  -8.9659  -8.9659  -8.9659  -8.9510  -8.9510
    -8.9510  -8.9510  -8.9124  -8.9124  -8.8992  -8.8992  -8.8991  -8.8991
    -8.2489  -8.2489  -7.8237  -7.8237  -7.8237  -7.8237  -7.6045  -7.6045
    -7.6044  -7.6044  -7.5522  -7.5522  -7.5522  -7.5522  -7.4066  -7.4066
    -7.4066  -7.4066  -7.3832  -7.3832  -7.3302  -7.3302  -7.3182  -7.3182
    -7.1634  -7.1634  -7.1633  -7.1633  -7.1392  -7.1392  -7.1392  -7.1392
    -6.8697  -6.8697  -6.8697  -6.8697  -6.8475  -6.8475  -6.7776  -6.7776
    -6.7775  -6.7775  -6.7701  -6.7701  -6.7701  -6.7701  -6.7378  -6.7378
    -6.7378  -6.7378  -6.6651  -6.6651  -6.6578  -6.6578  -6.6578  -6.6578
    -6.1904  -6.1904  -6.1785  -6.1785  -6.1785  -6.1785  -6.1141  -6.1141
    -6.0666  -6.0666  -6.0614  -6.0614  -6.0613  -6.0613  -6.0157  -6.0157
    32.9746  32.9746  32.9746  32.9746  33.0236  33.0236  33.4336  33.4336
    33.4336  33.4336  33.5290  33.5290  33.5290  33.5290  33.5777  33.5777
    33.5777  33.5777  33.7569  33.7569  33.7806  33.7806  33.7806  33.7806
    33.8866  33.8866  34.3020  34.3020  34.3020  34.3020  34.4485  34.4485
    34.4821  34.4821  34.7103  34.7103  34.7103  34.7103  35.3424  35.3424
    35.3424  35.3424  35.4271  35.4271  35.4271  35.4271  35.6432  35.6432
    35.6433  35.6433  35.9874  35.9874  35.9874  35.9874  36.0122  36.0122
    38.0491  38.0491  38.3554  38.3554  38.3554  38.3554  38.3689  38.3689
    38.3887  38.3887  38.6613  38.6613  38.6640  38.6640  38.6640  38.6640
    38.6688  38.6688  39.0340  39.0340  39.0340  39.0340  39.4648  39.4648
    39.4648  39.4648  39.4866  39.4866  39.4866  39.4867  39.6811  39.6811
    39.6812  39.6812  39.7277  39.7277  39.7419  39.7419  39.7420  39.7420
    40.2626  40.2626  40.2921  40.2921  40.2921  40.2921  40.3508  40.3508
    40.5754  40.5754  40.5754  40.5754  40.7717  40.7717  41.1356  41.1356
    41.1357  41.1357  41.2747  41.2747  41.2747  41.2747  41.4285  41.4285
    41.4285  41.4285  42.0171  42.0171  42.0318  42.0318  42.2131  42.2131
    42.2131  42.2131  42.2301  42.2301  42.2301  42.2301  42.6228  42.6228
    42.8787  42.8787  43.4292  43.4292  43.4292  43.4292  43.7436  43.7436
    46.0082  46.0082  46.0082  46.0082  46.0922  46.0922  46.1043  46.1043
    46.1043  46.1043  46.2294  46.2294  46.2294  46.2294  46.2360  46.2360
    46.2361  46.2361  46.3197  46.3197  46.3197  46.3197  46.4452  46.4452
    51.1575  51.1575  51.1575  51.1575  51.9896  51.9896  52.0444  52.0444
    52.0444  52.0444  53.4607  53.4607  53.4607  53.4607  53.7399  53.7399
    54.2539  54.2539  54.2539  54.2539  55.1509  55.1509  55.1509  55.1509
    60.1076  60.1076  60.1076  60.1076  60.5006  60.5006  60.9788  60.9788
    60.9788  60.9788  61.3593  61.3593  61.3593  61.3593  61.5023  61.5023
    61.5287  61.5287  61.5287  61.5287  62.4848  62.4848  62.4938  62.4939
    62.6735  62.6735

          k = 0.4767-0.6129-0.6129 ( 16384 PWs)   bands (ev):

   -41.8522 -41.8522 -41.8522 -41.8522 -41.7472 -41.7472 -41.7472 -41.7472
   -41.2495 -41.2495 -41.2495 -41.2495 -41.1920 -41.1920 -41.1919 -41.1919
   -41.1919 -41.1919 -41.1919 -41.1919 -41.1896 -41.1896 -41.1896 -41.1896
   -41.1896 -41.1896 -41.1896 -41.1896 -41.1414 -41.1414 -41.1414 -41.1414
    -9.0410  -9.0410  -9.0410  -9.0410  -9.0410  -9.0410  -9.0410  -9.0410
    -8.9841  -8.9841  -8.9841  -8.9841  -8.9648  -8.9648  -8.9648  -8.9648
    -8.9390  -8.9390  -8.9390  -8.9390  -8.9390  -8.9390  -8.9390  -8.9390
    -8.0370  -8.0370  -8.0370  -8.0370  -7.6016  -7.6016  -7.6016  -7.6016
    -7.5872  -7.5872  -7.5872  -7.5872  -7.3700  -7.3700  -7.3700  -7.3700
    -7.3700  -7.3700  -7.3700  -7.3700  -7.3631  -7.3631  -7.3631  -7.3631
    -7.3631  -7.3631  -7.3631  -7.3631  -7.1458  -7.1458  -7.1458  -7.1458
    -6.8142  -6.8142  -6.8142  -6.8142  -6.8101  -6.8101  -6.8101  -6.8101
    -6.8101  -6.8101  -6.8101  -6.8101  -6.7193  -6.7193  -6.7193  -6.7193
    -6.7193  -6.7193  -6.7193  -6.7193  -6.6989  -6.6989  -6.6989  -6.6989
    -6.1502  -6.1502  -6.1502  -6.1502  -6.1071  -6.1071  -6.1071  -6.1071
    -6.0995  -6.0995  -6.0995  -6.0995  -6.0305  -6.0305  -6.0304  -6.0304
    33.1522  33.1522  33.1522  33.1522  33.2485  33.2485  33.2485  33.2485
    33.2485  33.2485  33.2485  33.2485  33.6126  33.6126  33.6126  33.6126
    33.6258  33.6258  33.6258  33.6258  33.6258  33.6258  33.6258  33.6258
    34.0511  34.0511  34.0511  34.0511  34.3524  34.3524  34.3524  34.3524
    34.9799  34.9799  34.9799  34.9799  34.9799  34.9799  34.9799  34.9799
    35.2036  35.2036  35.2036  35.2036  35.7300  35.7300  35.7300  35.7300
    35.7749  35.7749  35.7749  35.7749  35.7749  35.7749  35.7749  35.7749
    38.3951  38.3951  38.3951  38.3951  38.4056  38.4056  38.4056  38.4056
    38.5366  38.5366  38.5366  38.5366  38.6037  38.6037  38.6037  38.6037
    38.8131  38.8131  38.8131  38.8131  39.5955  39.5955  39.5955  39.5955
    39.5955  39.5955  39.5955  39.5955  39.6179  39.6179  39.6179  39.6179
    39.7073  39.7073  39.7073  39.7073  40.1294  40.1294  40.1294  40.1294
    40.1294  40.1294  40.1294  40.1294  40.2260  40.2260  40.2260  40.2260
    40.5781  40.5781  40.5781  40.5781  40.7683  40.7683  40.7683  40.7683
    40.7683  40.7683  40.7683  40.7683  41.6503  41.6503  41.6503  41.6503
    41.6764  41.6764  41.6764  41.6764  41.6764  41.6764  41.6764  41.6764
    42.1056  42.1056  42.1056  42.1056  42.7521  42.7521  42.7521  42.7521
    42.8791  42.8791  42.8791  42.8791  43.2786  43.2786  43.2786  43.2786
    46.1843  46.1843  46.1843  46.1843  46.1843  46.1843  46.1843  46.1843
    46.2194  46.2194  46.2194  46.2194  46.3426  46.3426  46.3426  46.3426
    46.3426  46.3426  46.3426  46.3426  46.3471  46.3471  46.3471  46.3471
    51.5566  51.5566  51.5566  51.5566  52.7153  52.7153  52.7153  52.7153
    52.7153  52.7153  52.7153  52.7153  53.6250  53.6250  53.6250  53.6250
    53.6250  53.6250  53.6250  53.6250  54.7452  54.7452  54.7452  54.7452
    60.4116  60.4116  60.4116  60.4116  60.7984  60.7984  60.7984  60.7984
    60.7984  60.7984  60.7984  60.7984  61.8500  61.8500  61.8500  61.8500
    61.8500  61.8500  61.8500  61.8500  61.8910  61.8910  62.0184  62.0184
    62.0184  62.0184

          k =-0.6129-0.6129-0.6129 ( 16368 PWs)   bands (ev):

   -41.8043 -41.8043 -41.8043 -41.8043 -41.8043 -41.8043 -41.8043 -41.8043
   -41.1908 -41.1908 -41.1908 -41.1908 -41.1908 -41.1908 -41.1908 -41.1908
   -41.1908 -41.1908 -41.1908 -41.1908 -41.1908 -41.1908 -41.1908 -41.1908
   -41.1908 -41.1908 -41.1908 -41.1908 -41.1907 -41.1907 -41.1907 -41.1907
    -8.9905  -8.9905  -8.9905  -8.9905  -8.9905  -8.9905  -8.9905  -8.9905
    -8.9905  -8.9905  -8.9905  -8.9905  -8.9905  -8.9905  -8.9905  -8.9905
    -8.9905  -8.9905  -8.9905  -8.9904  -8.9904  -8.9904  -8.9904  -8.9904
    -7.8185  -7.8185  -7.8185  -7.8185  -7.8185  -7.8185  -7.8185  -7.8185
    -7.3691  -7.3690  -7.3690  -7.3690  -7.3690  -7.3690  -7.3690  -7.3690
    -7.3690  -7.3690  -7.3690  -7.3690  -7.3690  -7.3690  -7.3690  -7.3690
    -7.3690  -7.3690  -7.3690  -7.3690  -7.3690  -7.3690  -7.3690  -7.3689
    -6.7618  -6.7618  -6.7618  -6.7618  -6.7618  -6.7618  -6.7618  -6.7618
    -6.7618  -6.7618  -6.7618  -6.7618  -6.7618  -6.7617  -6.7617  -6.7617
    -6.7617  -6.7617  -6.7617  -6.7617  -6.7617  -6.7617  -6.7617  -6.7617
    -6.0852  -6.0852  -6.0852  -6.0852  -6.0852  -6.0852  -6.0852  -6.0852
    -6.0851  -6.0851  -6.0851  -6.0851  -6.0851  -6.0851  -6.0851  -6.0851
    33.3880  33.3880  33.3880  33.3880  33.3880  33.3880  33.3880  33.3880
    33.3880  33.3880  33.3880  33.3880  33.3880  33.3880  33.3880  33.3880
    33.3880  33.3880  33.3880  33.3881  33.3881  33.3881  33.3881  33.3881
    34.1663  34.1663  34.1663  34.1663  34.1663  34.1663  34.1663  34.1663
    35.4251  35.4251  35.4251  35.4251  35.4251  35.4251  35.4251  35.4251
    35.4251  35.4251  35.4251  35.4251  35.4251  35.4251  35.4251  35.4251
    35.4251  35.4251  35.4251  35.4251  35.4251  35.4251  35.4251  35.4251
    38.5369  38.5369  38.5369  38.5369  38.5369  38.5369  38.5369  38.5369
    38.5369  38.5369  38.5369  38.5369  38.5369  38.5369  38.5369  38.5369
    39.2611  39.2611  39.2611  39.2611  39.2611  39.2611  39.2611  39.2611
    39.9134  39.9134  39.9134  39.9134  39.9134  39.9134  39.9134  39.9134
    39.9134  39.9134  39.9134  39.9134  39.9134  39.9134  39.9134  39.9134
    39.9134  39.9134  39.9134  39.9134  39.9135  39.9135  39.9135  39.9135
    41.1045  41.1045  41.1045  41.1045  41.1045  41.1045  41.1045  41.1045
    41.1045  41.1045  41.1045  41.1045  41.1045  41.1045  41.1045  41.1045
    41.1045  41.1045  41.1045  41.1045  41.1045  41.1045  41.1045  41.1045
    42.6752  42.6752  42.6752  42.6752  42.6752  42.6752  42.6752  42.6752
    42.6752  42.6752  42.6752  42.6752  42.6752  42.6752  42.6752  42.6752
    46.3486  46.3486  46.3486  46.3487  46.3487  46.3487  46.3487  46.3487
    46.3487  46.3487  46.3487  46.3487  46.3487  46.3487  46.3487  46.3487
    46.3487  46.3487  46.3487  46.3487  46.3487  46.3487  46.3487  46.3487
    53.1662  53.1662  53.1662  53.1662  53.1663  53.1663  53.1663  53.1663
    53.1663  53.1663  53.1663  53.1663  53.1663  53.1663  53.1663  53.1663
    53.1663  53.1663  53.1663  53.1663  53.1663  53.1663  53.1663  53.1663
    61.2254  61.2254  61.2254  61.2254  61.2254  61.2254  61.2254  61.2254
    61.2254  61.2254  61.2254  61.2254  61.2254  61.2254  61.2254  61.2254
    61.2254  61.2254  61.2254  61.2254  61.2254  61.2254  61.2254  61.2254
    62.2135  62.2135

     the Fermi energy is    46.0994 ev

!    total energy              =  -16363.11784041 Ry

     total all-electron energy =   -322923.971548 Ry
     estimated scf accuracy    <       0.00000036 Ry
     smearing contrib. (-TS)   =      -0.00198384 Ry
     internal energy E=F+TS    =  -16363.11585657 Ry

     The total energy is F=E-TS. E is the sum of the following terms:
     one-electron contribution =      -1.45000339 Ry
     hartree contribution      =     921.56414366 Ry
     xc contribution           =   -1021.43683183 Ry
     ewald contribution        =   -8093.02105470 Ry
     one-center paw contrib.   =   -8168.77211031 Ry

     convergence has been achieved in  10 iterations

     Forces acting on atoms (cartesian axes, Ry/au):

     atom    1 type  1   force =     0.00000000    0.00000000    0.00000000
     atom    2 type  1   force =     0.00000058    0.00000058    0.00000000
     atom    3 type  1   force =     0.00000058   -0.00000000    0.00000058
     atom    4 type  1   force =    -0.00000000    0.00000058    0.00000058
     atom    5 type  1   force =     0.00000000    0.00000000    0.00000000
     atom    6 type  1   force =    -0.00000773   -0.00000773   -0.00000000
     atom    7 type  1   force =     0.00000058    0.00000000   -0.00000058
     atom    8 type  1   force =     0.00000000    0.00000058   -0.00000058
     atom    9 type  1   force =     0.00000000    0.00000000    0.00000000
     atom   10 type  1   force =     0.00000058   -0.00000058    0.00000000
     atom   11 type  1   force =    -0.00000773    0.00000000   -0.00000773
     atom   12 type  1   force =     0.00000000   -0.00000058    0.00000058
     atom   13 type  1   force =     0.00000000    0.00000000    0.00000000
     atom   14 type  1   force =    -0.00000773    0.00000773    0.00000000
     atom   15 type  1   force =    -0.00000773   -0.00000000    0.00000773
     atom   16 type  1   force =    -0.00000000   -0.00000058   -0.00000058
     atom   17 type  1   force =     0.00000000    0.00000000    0.00000000
     atom   18 type  1   force =    -0.00000058    0.00000058    0.00000000
     atom   19 type  1   force =    -0.00000058    0.00000000    0.00000058
     atom   20 type  1   force =    -0.00000000   -0.00000773   -0.00000773
     atom   21 type  1   force =     0.00000000    0.00000000    0.00000000
     atom   22 type  1   force =     0.00000773   -0.00000773   -0.00000000
     atom   23 type  1   force =    -0.00000058   -0.00000000   -0.00000058
     atom   24 type  1   force =    -0.00000000   -0.00000773    0.00000773
     atom   25 type  1   force =     0.00000000    0.00000000    0.00000000
     atom   26 type  1   force =    -0.00000058   -0.00000058    0.00000000
     atom   27 type  1   force =     0.00000773    0.00000000   -0.00000773
     atom   28 type  1   force =     0.00000000    0.00000773   -0.00000773
     atom   29 type  1   force =     0.00000000    0.00000000    0.00000000
     atom   30 type  1   force =     0.00000773    0.00000773    0.00000000
     atom   31 type  1   force =     0.00000773   -0.00000000    0.00000773
     atom   32 type  1   force =     0.00000000    0.00000773    0.00000773

     Total force =     0.000038     Total SCF correction =     0.000061
     SCF correction compared to forces is large: reduce conv_thr to get better values


     Computing stress (Cartesian axis) and pressure

          total   stress  (Ry/bohr**3)                   (kbar)     P=     7686.88
   0.05225435   0.00000000   0.00000000         7686.88        0.00        0.00
   0.00000000   0.05225435   0.00000000            0.00     7686.88        0.00
   0.00000000   0.00000000   0.05225435            0.00        0.00     7686.88


     Writing output data file /scratch/eAijRlAOqAxxzcIS.save/
 
     init_run     :      8.98s CPU      9.40s WALL (       1 calls)
     electrons    :    453.92s CPU    460.94s WALL (       1 calls)
     forces       :      4.73s CPU      4.78s WALL (       1 calls)
     stress       :     16.50s CPU     16.62s WALL (       1 calls)

     Called by init_run:
     wfcinit      :      8.72s CPU      9.08s WALL (       1 calls)
     potinit      :      0.12s CPU      0.13s WALL (       1 calls)
     hinit0       :      0.05s CPU      0.05s WALL (       1 calls)

     Called by electrons:
     c_bands      :    414.65s CPU    420.88s WALL (      11 calls)
     sum_band     :     37.77s CPU     38.39s WALL (      11 calls)
     v_of_rho     :      0.26s CPU      0.27s WALL (      11 calls)
     newd         :      0.14s CPU      0.20s WALL (      11 calls)
     PAW_pot      :      0.99s CPU      1.07s WALL (      11 calls)
     mix_rho      :      0.04s CPU      0.05s WALL (      11 calls)

     Called by c_bands:
     init_us_2    :      0.88s CPU      0.90s WALL (     875 calls)
     cegterg      :    411.03s CPU    417.08s WALL (     385 calls)

     Called by *egterg:
     cdiaghg      :     87.08s CPU     87.87s WALL (    1900 calls)
     h_psi        :    189.20s CPU    192.94s WALL (    1970 calls)
     s_psi        :      9.65s CPU      9.73s WALL (    1970 calls)
     g_psi        :      0.23s CPU      0.23s WALL (    1550 calls)

     Called by h_psi:
     h_psi:calbec :     25.29s CPU     25.54s WALL (    1970 calls)
     vloc_psi     :    153.53s CPU    156.60s WALL (    1970 calls)
     add_vuspsi   :      9.92s CPU     10.33s WALL (    1970 calls)

     General routines
     calbec       :     39.59s CPU     39.91s WALL (    2530 calls)
     fft          :      0.26s CPU      0.28s WALL (     167 calls)
     ffts         :      0.01s CPU      0.01s WALL (      22 calls)
     fftw         :    177.58s CPU    180.94s WALL (  839472 calls)
     interpolate  :      0.03s CPU      0.04s WALL (      11 calls)
 
     Parallel routines
     fft_scatt_xy :      7.31s CPU      7.44s WALL (  839661 calls)
     fft_scatt_yz :    163.15s CPU    166.32s WALL (  839661 calls)
 
     PWSCF        :   8m14.87s CPU   8m23.70s WALL

 
   This run was terminated on:  19:15:10  26Nov2021            

=------------------------------------------------------------------------------=
   JOB DONE.
=------------------------------------------------------------------------------=
