
     Program PWSCF v.6.7MaX starts on 26Nov2021 at 18:59: 1 

     This program is part of the open-source Quantum ESPRESSO suite
     for quantum simulation of materials; please cite
         "P. Giannozzi et al., J. Phys.:Condens. Matter 21 395502 (2009);
         "P. Giannozzi et al., J. Phys.:Condens. Matter 29 465901 (2017);
          URL http://www.quantum-espresso.org", 
     in publications or presentations arising from this work. More details at
     http://www.quantum-espresso.org/quote

     Parallel version (MPI & OpenMP), running on      72 processor cores
     Number of MPI processes:                72
     Threads/MPI process:                     1

     MPI processes distributed on     1 nodes
     R & G space division:  proc/nbgrp/npool/nimage =      72
     Reading input from fcc_1.in
Warning: card &CELL ignored
Warning: card CELL_DYNAMICS = 'BFGS', ignored
Warning: card CELL_FACTOR = 2.0, ignored
Warning: card PRESS = 0.0, ignored
Warning: card / ignored

     Current dimensions of program PWSCF are:
     Max number of different atomic species (ntypx) = 10
     Max number of k-points (npk) =  40000
     Max angular momentum in pseudopotentials (lmaxx) =  3
     file Pd.pbe-spn-kjpaw_psl.1.0.0.UPF: wavefunction(s)  4S 5S 4D renormalized

     Subspace diagonalization in iterative solution of the eigenvalue problem:
     one sub-group per band group will be used
     ELPA distributed-memory algorithm (size of sub-group:  8*  8 procs)

     Found symmetry operation: I + (  0.2500  0.2500  0.0000)
     This is a supercell, fractional translations are disabled
     Message from routine setup:
     using ibrav=0 with symmetry is DISCOURAGED, use correct ibrav instead
 
     Parallelization info
     --------------------
     sticks:   dense  smooth     PW     G-vecs:    dense   smooth      PW
     Min          55      36     10                 2635     1410     210
     Max          56      37     11                 2642     1417     213
     Sum        3993    2617    749               189935   101673   15203
 


     bravais-lattice index     =            0
     lattice parameter (alat)  =      14.4000  a.u.
     unit-cell volume          =    1259.7120 (a.u.)^3
     number of atoms/cell      =           32
     number of atomic types    =            1
     number of electrons       =       576.00
     number of Kohn-Sham states=          346
     kinetic-energy cutoff     =      71.0000  Ry
     charge density cutoff     =     430.0000  Ry
     scf convergence threshold =      1.0E-06
     mixing beta               =       0.1000
     number of iterations used =           10  TF        mixing
     Exchange-correlation= SLA  PW   PBX  PBC
                           (   1   4   3   4   0   0   0)

     celldm(1)=  14.400000  celldm(2)=   0.000000  celldm(3)=   0.000000
     celldm(4)=   0.000000  celldm(5)=   0.000000  celldm(6)=   0.000000

     crystal axes: (cart. coord. in units of alat)
               a(1) = (   0.750000   0.000000   0.000000 )  
               a(2) = (   0.000000   0.750000   0.000000 )  
               a(3) = (   0.000000   0.000000   0.750000 )  

     reciprocal axes: (cart. coord. in units 2 pi/alat)
               b(1) = (  1.333333  0.000000  0.000000 )  
               b(2) = (  0.000000  1.333333  0.000000 )  
               b(3) = (  0.000000  0.000000  1.333333 )  


     PseudoPot. # 1 for Pd read from file:
     /rds/homes/b/bxp912/pp/Pd.pbe-spn-kjpaw_psl.1.0.0.UPF
     MD5 check sum: 790f2ebce206edfd9790dcb9844eca51
     Pseudo is Projector augmented-wave + core cor, Zval = 18.0
     Generated using &quot;atomic&quot; code by A. Dal Corso  v.6.3
     Shape of augmentation charge: PSQ
     Using radial grid of 1235 points,  6 beta functions with: 
                l(1) =   0
                l(2) =   0
                l(3) =   1
                l(4) =   1
                l(5) =   2
                l(6) =   2
     Q(r) pseudized with 0 coefficients 


     atomic species   valence    mass     pseudopotential
        Pd            18.00   106.42000     Pd( 1.00)

     48 Sym. Ops., with inversion, found



   Cartesian axes

     site n.     atom                  positions (alat units)
         1           Pd  tau(   1) = (   0.0000000   0.0000000   0.0000000  )
         2           Pd  tau(   2) = (   0.1875000   0.1875000   0.0000000  )
         3           Pd  tau(   3) = (   0.1875000   0.0000000   0.1875000  )
         4           Pd  tau(   4) = (   0.0000000   0.1875000   0.1875000  )
         5           Pd  tau(   5) = (   0.0000000   0.0000000   0.3750000  )
         6           Pd  tau(   6) = (   0.1875000   0.1875000   0.3750000  )
         7           Pd  tau(   7) = (   0.1875000   0.0000000   0.5625000  )
         8           Pd  tau(   8) = (   0.0000000   0.1875000   0.5625000  )
         9           Pd  tau(   9) = (   0.0000000   0.3750000   0.0000000  )
        10           Pd  tau(  10) = (   0.1875000   0.5625000   0.0000000  )
        11           Pd  tau(  11) = (   0.1875000   0.3750000   0.1875000  )
        12           Pd  tau(  12) = (   0.0000000   0.5625000   0.1875000  )
        13           Pd  tau(  13) = (   0.0000000   0.3750000   0.3750000  )
        14           Pd  tau(  14) = (   0.1875000   0.5625000   0.3750000  )
        15           Pd  tau(  15) = (   0.1875000   0.3750000   0.5625000  )
        16           Pd  tau(  16) = (   0.0000000   0.5625000   0.5625000  )
        17           Pd  tau(  17) = (   0.3750000   0.0000000   0.0000000  )
        18           Pd  tau(  18) = (   0.5625000   0.1875000   0.0000000  )
        19           Pd  tau(  19) = (   0.5625000   0.0000000   0.1875000  )
        20           Pd  tau(  20) = (   0.3750000   0.1875000   0.1875000  )
        21           Pd  tau(  21) = (   0.3750000   0.0000000   0.3750000  )
        22           Pd  tau(  22) = (   0.5625000   0.1875000   0.3750000  )
        23           Pd  tau(  23) = (   0.5625000   0.0000000   0.5625000  )
        24           Pd  tau(  24) = (   0.3750000   0.1875000   0.5625000  )
        25           Pd  tau(  25) = (   0.3750000   0.3750000   0.0000000  )
        26           Pd  tau(  26) = (   0.5625000   0.5625000   0.0000000  )
        27           Pd  tau(  27) = (   0.5625000   0.3750000   0.1875000  )
        28           Pd  tau(  28) = (   0.3750000   0.5625000   0.1875000  )
        29           Pd  tau(  29) = (   0.3750000   0.3750000   0.3750000  )
        30           Pd  tau(  30) = (   0.5625000   0.5625000   0.3750000  )
        31           Pd  tau(  31) = (   0.5625000   0.3750000   0.5625000  )
        32           Pd  tau(  32) = (   0.3750000   0.5625000   0.5625000  )

     number of k points=    35  Marzari-Vanderbilt smearing, width (Ry)=  0.0400
                       cart. coord. in units 2pi/alat
        k(    1) = (   0.0740741   0.0740741   0.0740741), wk =   0.0219479
        k(    2) = (   0.0740741   0.0740741   0.2222222), wk =   0.0658436
        k(    3) = (   0.0740741   0.0740741   0.3703704), wk =   0.0658436
        k(    4) = (   0.0740741   0.0740741   0.5185185), wk =   0.0658436
        k(    5) = (   0.0740741   0.0740741  -0.6666667), wk =   0.0329218
        k(    6) = (   0.0740741   0.2222222   0.2222222), wk =   0.0658436
        k(    7) = (   0.0740741   0.2222222   0.3703704), wk =   0.1316872
        k(    8) = (   0.0740741   0.2222222   0.5185185), wk =   0.1316872
        k(    9) = (   0.0740741   0.2222222  -0.6666667), wk =   0.0658436
        k(   10) = (   0.0740741   0.3703704   0.3703704), wk =   0.0658436
        k(   11) = (   0.0740741   0.3703704   0.5185185), wk =   0.1316872
        k(   12) = (   0.0740741   0.3703704  -0.6666667), wk =   0.0658436
        k(   13) = (   0.0740741   0.5185185   0.5185185), wk =   0.0658436
        k(   14) = (   0.0740741   0.5185185  -0.6666667), wk =   0.0658436
        k(   15) = (   0.0740741  -0.6666667  -0.6666667), wk =   0.0164609
        k(   16) = (   0.2222222   0.2222222   0.2222222), wk =   0.0219479
        k(   17) = (   0.2222222   0.2222222   0.3703704), wk =   0.0658436
        k(   18) = (   0.2222222   0.2222222   0.5185185), wk =   0.0658436
        k(   19) = (   0.2222222   0.2222222  -0.6666667), wk =   0.0329218
        k(   20) = (   0.2222222   0.3703704   0.3703704), wk =   0.0658436
        k(   21) = (   0.2222222   0.3703704   0.5185185), wk =   0.1316872
        k(   22) = (   0.2222222   0.3703704  -0.6666667), wk =   0.0658436
        k(   23) = (   0.2222222   0.5185185   0.5185185), wk =   0.0658436
        k(   24) = (   0.2222222   0.5185185  -0.6666667), wk =   0.0658436
        k(   25) = (   0.2222222  -0.6666667  -0.6666667), wk =   0.0164609
        k(   26) = (   0.3703704   0.3703704   0.3703704), wk =   0.0219479
        k(   27) = (   0.3703704   0.3703704   0.5185185), wk =   0.0658436
        k(   28) = (   0.3703704   0.3703704  -0.6666667), wk =   0.0329218
        k(   29) = (   0.3703704   0.5185185   0.5185185), wk =   0.0658436
        k(   30) = (   0.3703704   0.5185185  -0.6666667), wk =   0.0658436
        k(   31) = (   0.3703704  -0.6666667  -0.6666667), wk =   0.0164609
        k(   32) = (   0.5185185   0.5185185   0.5185185), wk =   0.0219479
        k(   33) = (   0.5185185   0.5185185  -0.6666667), wk =   0.0329218
        k(   34) = (   0.5185185  -0.6666667  -0.6666667), wk =   0.0164609
        k(   35) = (  -0.6666667  -0.6666667  -0.6666667), wk =   0.0027435

     Dense  grid:   189935 G-vectors     FFT dimensions: (  72,  72,  72)

     Smooth grid:   101673 G-vectors     FFT dimensions: (  60,  60,  60)

     Estimated max dynamical RAM per process >      49.70 MB

     Estimated total dynamical RAM >       3.49 GB

     Check: negative core charge=   -0.000001

     Initial potential from superposition of free atoms

     starting charge  575.98776, renormalised to  576.00000
     Starting wfcs are  320 randomized atomic wfcs +   26 random wfcs
     Checking if some PAW data can be deallocated... 

     total cpu time spent up to now is       24.3 secs

     Self-consistent Calculation

     iteration #  1     ecut=    71.00 Ry     beta= 0.10
     Davidson diagonalization with overlap
     ethr =  1.00E-02,  avg # of iterations =  8.6

     Threshold (ethr) on eigenvalues was too large:
     Diagonalizing with lowered threshold

     Davidson diagonalization with overlap
     c_bands:  1 eigenvalues not converged
     ethr =  1.27E-04,  avg # of iterations =  7.1

     total cpu time spent up to now is      111.6 secs

     total energy              =  -16332.89554116 Ry
     estimated scf accuracy    <       0.62758431 Ry

     iteration #  2     ecut=    71.00 Ry     beta= 0.10
     Davidson diagonalization with overlap
     ethr =  1.09E-04,  avg # of iterations =  1.9

     total cpu time spent up to now is      133.1 secs

     total energy              =  -16332.53163765 Ry
     estimated scf accuracy    <       0.47249749 Ry

     iteration #  3     ecut=    71.00 Ry     beta= 0.10
     Davidson diagonalization with overlap
     ethr =  8.20E-05,  avg # of iterations =  2.9

     total cpu time spent up to now is      166.4 secs

     total energy              =  -16332.62930050 Ry
     estimated scf accuracy    <       0.01398495 Ry

     iteration #  4     ecut=    71.00 Ry     beta= 0.10
     Davidson diagonalization with overlap
     c_bands:  2 eigenvalues not converged
     c_bands:  2 eigenvalues not converged
     c_bands:  1 eigenvalues not converged
     ethr =  2.43E-06,  avg # of iterations =  9.5

     total cpu time spent up to now is      210.3 secs

     total energy              =  -16332.62155907 Ry
     estimated scf accuracy    <       0.01851591 Ry

     iteration #  5     ecut=    71.00 Ry     beta= 0.10
     Davidson diagonalization with overlap
     ethr =  2.43E-06,  avg # of iterations =  2.6

     total cpu time spent up to now is      243.7 secs

     total energy              =  -16332.62439167 Ry
     estimated scf accuracy    <       0.00080635 Ry

     iteration #  6     ecut=    71.00 Ry     beta= 0.10
     Davidson diagonalization with overlap
     ethr =  1.40E-07,  avg # of iterations =  2.5

     total cpu time spent up to now is      273.7 secs

     total energy              =  -16332.62463933 Ry
     estimated scf accuracy    <       0.00010229 Ry

     iteration #  7     ecut=    71.00 Ry     beta= 0.10
     Davidson diagonalization with overlap
     ethr =  1.78E-08,  avg # of iterations =  2.0

     total cpu time spent up to now is      300.3 secs

     total energy              =  -16332.62469163 Ry
     estimated scf accuracy    <       0.00003675 Ry

     iteration #  8     ecut=    71.00 Ry     beta= 0.10
     Davidson diagonalization with overlap
     ethr =  6.38E-09,  avg # of iterations =  2.0

     total cpu time spent up to now is      329.2 secs

     total energy              =  -16332.62463912 Ry
     estimated scf accuracy    <       0.00009617 Ry

     iteration #  9     ecut=    71.00 Ry     beta= 0.10
     Davidson diagonalization with overlap
     ethr =  6.38E-09,  avg # of iterations =  2.0

     total cpu time spent up to now is      355.8 secs

     total energy              =  -16332.62464633 Ry
     estimated scf accuracy    <       0.00000877 Ry

     iteration # 10     ecut=    71.00 Ry     beta= 0.10
     Davidson diagonalization with overlap
     ethr =  1.52E-09,  avg # of iterations =  1.0

     total cpu time spent up to now is      372.8 secs

     total energy              =  -16332.62464535 Ry
     estimated scf accuracy    <       0.00000428 Ry

     iteration # 11     ecut=    71.00 Ry     beta= 0.10
     Davidson diagonalization with overlap
     ethr =  7.43E-10,  avg # of iterations =  1.1

     total cpu time spent up to now is      389.2 secs

     total energy              =  -16332.62464610 Ry
     estimated scf accuracy    <       0.00000171 Ry

     iteration # 12     ecut=    71.00 Ry     beta= 0.10
     Davidson diagonalization with overlap
     ethr =  2.97E-10,  avg # of iterations =  1.0

     total cpu time spent up to now is      408.9 secs

     total energy              =  -16332.62464446 Ry
     estimated scf accuracy    <       0.00000163 Ry

     iteration # 13     ecut=    71.00 Ry     beta= 0.10
     Davidson diagonalization with overlap
     ethr =  2.84E-10,  avg # of iterations =  2.0

     total cpu time spent up to now is      435.7 secs

     End of self-consistent calculation

          k = 0.0741 0.0741 0.0741 ( 12764 PWs)   bands (ev):

   -30.9995 -29.7697 -29.7697 -29.7697 -29.5175 -29.5174 -29.5174 -29.0067
   -29.0067 -29.0067 -28.8583 -28.8581 -28.8581 -28.8581 -28.8581 -28.8581
   -28.8410 -28.8168 -28.8167 -28.8167 -28.7316 -28.7315 -28.7315 -28.0942
   -28.0941 -28.0941 -28.0738 -28.0737 -28.0737 -28.0737 -28.0737 -28.0737
     0.4049   0.4049   0.4050   0.4357   0.9963   0.9963   0.9963   2.3089
     2.3090   2.3090   2.4113   2.4113   2.4114   2.4114   2.4114   2.4114
     2.5739   2.5739   2.5739   2.7181   2.7181   2.7181   2.7181   2.7181
     2.7181   3.0886   3.0886   3.0886   3.0886   3.0886   3.0887   3.9468
     3.9468   3.9468   4.3035   4.3035   4.3035   4.5372   4.5372   4.5373
     4.6185   4.6185   4.6185   4.6186   4.6186   4.6186   4.9241   4.9241
     4.9241   5.0090   5.0090   5.0090   5.0091   5.0091   5.0091   5.2560
     5.2560   5.2560   5.2964   5.2964   5.2964   6.4306   6.4307   6.4307
     6.4374   6.4374   6.4374   6.6695   6.6696   6.6696   6.6696   6.6696
     6.6696   6.8804   6.8804   6.8804   6.9790   6.9791   6.9791   6.9791
     6.9791   6.9791   6.9877   6.9878   6.9878   7.0164   7.0164   7.0164
     7.0378   7.0378   7.1230   7.1230   7.1230   7.9051   7.9625   7.9625
    40.2664  40.2664  40.2664  40.8702  40.8702  40.8702  43.0202  43.0624
    43.0624  43.0625  43.7932  43.7932  43.7932  44.2491  44.2491  44.2491
    44.2491  44.2491  44.2491  44.4630  44.4630  44.4630  45.5028  45.5028
    45.5028  45.8245  45.8245  45.8245  46.3929  46.3929  46.3929  46.3929
    46.3929  46.3929  46.4986  46.5486  46.5486  46.5486  46.8363  46.8363
    46.8364  47.8656  47.8656  47.8656  47.8876  47.8876  47.8876  47.8877
    47.8877  47.8877  48.0793  48.0793  48.0794  48.0794  48.0794  48.0794
    48.5592  48.5593  48.5593  48.6096  48.6097  48.6097  48.6647  48.6647
    48.7083  48.7083  48.7083  49.0807  49.1637  49.1637  49.4076  49.4076
    49.4076  49.4076  49.4076  49.4076  51.1203  51.1203  51.1203  51.1203
    51.1203  51.1203  51.5011  51.5011  51.5011  51.7140  51.7140  51.7140
    52.1525  52.1525  52.1525  52.5241  52.5241  52.5241  52.8544  52.8544
    52.8545  52.8545  52.8545  52.8545  53.6081  53.6081  53.6081  53.7980
    53.7980  53.7980  54.4853  54.4853  54.4853  54.5984  54.5984  54.5984
    54.5985  54.5985  54.5985  54.6577  54.6578  54.6578  54.8253  54.8253
    54.8253  55.1586  55.1586  55.1586  55.1586  55.1586  55.1586  55.6079
    55.6079  55.6079  55.7854  55.7854  56.3118  56.3118  56.3118  57.8224
    57.8225  57.8225  57.9428  57.9428  57.9429  58.4117  58.4117  58.4117
    60.2117  60.2117  60.2117  60.9654  60.9654  60.9669  60.9669  60.9670
    61.0852  61.0852  61.0853  61.9119  62.3042  62.3043  62.3043  62.5541
    62.5541  62.5541  62.5542  62.5542  62.5542  62.5600  62.5600  62.5601
    62.8758  62.8758  62.8758  67.6076  67.6076  67.6076  68.6154  68.6154
    68.6154  68.8232  68.8232  68.8232  68.8232  68.8232  68.8232  69.8360
    69.8360  69.8360  72.7344  73.2904  73.5277  73.5277  73.5277  78.9441
    78.9441  78.9441  78.9441  78.9441  78.9441  79.4639  79.4639  79.4639
    79.4639  79.4639  79.4639  79.7523  79.7523  79.7523  79.9844  79.9844
    79.9844  80.1856  80.1856  80.1856  80.6938  80.6938  80.6938  80.6938
    80.6938  80.6938

          k = 0.0741 0.0741 0.2222 ( 12753 PWs)   bands (ev):

   -30.9607 -30.0125 -29.7446 -29.7446 -29.4956 -29.4955 -29.2631 -29.1523
   -29.1523 -29.0001 -28.9828 -28.9828 -28.8673 -28.8557 -28.8556 -28.8193
   -28.8192 -28.7953 -28.7332 -28.7112 -28.7112 -28.6070 -28.6069 -28.1448
   -28.1001 -28.1000 -28.0955 -28.0955 -28.0929 -28.0928 -28.0750 -28.0749
     0.4547   0.4846   0.4846   0.5455   1.0496   1.0496   1.0922   2.0732
     2.1884   2.1885   2.2589   2.2589   2.3014   2.3014   2.3550   2.3732
     2.3732   2.5615   2.5615   2.6325   2.6325   2.7321   2.7322   2.7842
     2.7842   3.0174   3.0174   3.1529   3.1529   3.3756   3.4578   3.4578
     3.8487   3.8487   4.0020   4.0020   4.3252   4.3252   4.4090   4.4090
     4.5745   4.8635   4.8636   4.9383   4.9383   5.0278   5.0279   5.1305
     5.1372   5.1372   5.1528   5.1557   5.1557   5.1596   5.1596   5.2333
     5.2333   5.2934   5.2936   5.2937   5.3327   6.2000   6.2137   6.3676
     6.3676   6.5009   6.5009   6.6068   6.6068   6.7262   6.7263   6.7496
     6.7496   6.7811   6.7812   6.8359   6.8856   6.8930   6.8930   6.9028
     6.9093   6.9807   6.9808   6.9828   6.9937   7.0065   7.0066   7.0224
     7.0225   7.0570   7.1207   7.2086   7.2087   7.7649   7.9170   7.9356
    40.4283  40.4372  40.4372  40.9561  41.0990  41.0990  43.1425  43.1748
    43.2237  43.2237  43.2651  43.8921  43.8921  43.9511  43.9511  44.2655
    44.2655  44.3353  44.3353  44.4659  44.6054  44.6054  45.1714  45.3494
    45.3494  45.6820  45.6820  45.7923  46.0004  46.0004  46.2621  46.2622
    46.4792  46.4792  46.4829  46.7002  46.7303  46.7303  47.0014  47.0014
    47.2043  47.2043  47.4422  47.4422  47.5081  47.6482  47.6482  47.7075
    47.7076  47.7680  47.9025  47.9025  47.9755  47.9755  48.0915  48.1590
    48.1591  48.3538  48.4364  48.4364  48.6584  48.7471  48.8525  48.8525
    48.8772  48.8939  48.9608  48.9608  49.2934  49.3047  49.3570  49.3570
    49.4382  49.4382  50.3220  50.3220  50.4695  50.4695  50.9753  50.9753
    51.0074  51.0074  51.0129  51.0129  51.4757  51.4757  51.5974  52.0308
    52.2517  52.3993  52.6493  52.6493  52.6528  52.7317  52.7317  52.8002
    52.8002  52.8418  53.0826  53.0826  53.5854  53.5854  53.6292  53.6292
    53.7317  53.7317  53.7561  53.7561  54.1051  54.1051  54.6287  54.6287
    54.6997  54.6997  54.7568  54.7568  54.9824  54.9825  55.0046  55.0820
    55.0820  55.1765  55.5314  55.7721  55.8485  55.8486  55.8511  55.9060
    56.0453  56.0453  56.2074  56.3027  56.3027  56.7949  56.7949  57.5015
    57.9984  57.9984  58.2467  58.2467  58.8980  59.1069  59.1070  59.1293
    59.2715  59.2715  59.4525  60.0422  60.5616  60.5943  60.5943  60.8285
    60.9087  60.9168  60.9168  61.3097  61.3098  61.9238  62.1361  62.1361
    62.1432  62.1432  62.2197  62.5395  62.5396  62.5526  62.5527  62.6017
    63.6682  63.6682  64.1420  66.3020  66.3020  67.4076  67.6606  67.6606
    68.1186  68.6276  68.6277  69.6235  69.6235  69.6490  69.9636  69.9636
    70.7365  70.7365  73.1284  73.3320  73.7737  73.7737  74.0123  77.7745
    77.7745  78.0216  78.0216  78.1226  78.1226  79.1767  79.4271  79.4271
    79.5861  79.5861  79.7018  79.7018  79.7648  79.7648  79.7689  79.7689
    79.9222  79.9222  80.2106  80.2561  80.2633  80.2633  80.3540  80.3540
    80.4777  81.0922

          k = 0.0741 0.0741 0.3704 ( 12739 PWs)   bands (ev):

   -30.8837 -30.2394 -29.6952 -29.6951 -29.4524 -29.4524 -29.2906 -29.2906
   -29.1018 -29.1017 -29.0146 -28.9874 -28.8946 -28.8510 -28.8509 -28.8240
   -28.8239 -28.7771 -28.7368 -28.5705 -28.5704 -28.4882 -28.4881 -28.2440
   -28.1519 -28.1519 -28.1385 -28.1384 -28.0906 -28.0905 -28.0773 -28.0772
     0.5834   0.6413   0.6413   0.7309   1.1554   1.1554   1.2818   1.7323
     1.8538   1.8539   2.0188   2.0526   2.0526   2.2465   2.2465   2.2629
     2.2629   2.5103   2.5103   2.6889   2.6889   2.7520   2.7521   2.8382
     2.9931   2.9931   3.0344   3.0344   3.2605   3.2605   3.6742   3.6742
     3.7225   3.7225   3.8244   3.8244   4.0515   4.0516   4.1866   4.1866
     4.9823   4.9980   4.9980   5.0631   5.0632   5.2396   5.2397   5.2525
     5.2525   5.2637   5.2638   5.3623   5.3623   5.3673   5.4001   5.4002
     5.4045   5.5064   5.5363   5.5363   5.7095   5.9839   6.0037   6.2392
     6.2392   6.4839   6.4839   6.5209   6.5209   6.5358   6.5359   6.5895
     6.6116   6.6117   6.6945   6.6945   6.8283   6.8764   6.8765   6.8955
     6.9707   6.9838   6.9839   7.0023   7.0023   7.0127   7.0127   7.0739
     7.1165   7.1297   7.1425   7.2356   7.2356   7.5220   7.8280   7.8533
    40.7498  40.7751  40.7751  41.1274  41.5463  41.5463  42.6173  43.2909
    43.2909  43.4269  43.4915  43.5399  43.5399  43.6162  44.2609  44.2609
    44.3045  44.3045  44.5009  44.5009  44.8828  44.8828  44.9749  44.9749
    45.1900  45.1900  45.6281  45.6483  45.6483  45.8371  45.8536  45.8536
    45.9012  46.0309  46.0309  46.6625  46.6625  46.8703  46.8703  47.0806
    47.0857  47.0857  47.4871  47.4871  47.5970  47.6194  47.6195  47.8090
    47.9286  47.9286  48.0807  48.0815  48.0815  48.1393  48.1393  48.1541
    48.1541  48.2058  48.2375  48.2376  48.5088  48.5518  48.9551  49.1089
    49.1089  49.1130  49.1130  49.1683  49.2977  49.2977  49.4956  49.4957
    49.5833  49.5844  49.6590  49.6590  49.9539  49.9539  50.1318  50.1318
    50.3645  50.3645  50.9214  51.1575  51.1576  51.3641  51.7811  51.7811
    51.8313  51.9719  52.6006  52.6006  52.6935  52.6936  53.2762  53.2762
    53.3040  53.3158  53.3158  53.4640  53.6639  53.6640  53.7117  53.7117
    54.0445  54.1564  54.1564  54.2039  54.2039  54.2686  54.2686  54.6596
    54.6596  54.6957  54.6957  54.8470  54.8470  55.0613  55.1825  55.1826
    55.9277  55.9277  55.9814  56.1168  56.7193  56.7193  56.7871  56.7871
    56.9258  57.0157  57.0737  57.0737  57.0764  57.0969  57.1980  57.1980
    57.6728  57.6728  57.9974  58.1179  58.1179  58.7325  59.2465  59.2465
    59.3917  59.6072  59.6072  59.9161  60.1100  60.1100  60.4056  60.4056
    60.4584  60.4603  60.4603  60.5291  61.1396  61.2254  61.3815  61.3815
    61.3963  61.3963  61.6286  62.5379  62.5380  62.5499  62.5500  63.6441
    64.7172  64.7172  64.9166  64.9166  65.4109  66.3544  66.3544  67.0044
    67.1913  68.2248  68.2249  69.2488  71.0741  71.0742  71.0833  71.0833
    71.6078  71.6078  73.6675  73.8938  74.2586  74.2586  74.7012  76.3009
    76.3009  76.4380  76.4380  77.0277  77.0277  77.7813  78.4343  78.4343
    78.9890  79.4991  79.4991  79.5542  79.5542  79.7323  79.7323  79.8381
    80.1711  80.1711  80.2842  80.2842  80.5707  80.5707  80.6917  80.6917
    81.1903  81.2610

          k = 0.0741 0.0741 0.5185 ( 12732 PWs)   bands (ev):

   -30.7702 -30.4444 -29.6227 -29.6227 -29.4175 -29.4175 -29.3893 -29.3893
   -29.2113 -29.2113 -28.9694 -28.9216 -28.8447 -28.8446 -28.8303 -28.8302
   -28.7803 -28.7624 -28.7426 -28.4403 -28.4402 -28.3872 -28.3788 -28.3788
   -28.2276 -28.2276 -28.2013 -28.2013 -28.0875 -28.0874 -28.0804 -28.0803
     0.7864   0.8691   0.8691   0.9847   1.3119   1.3119   1.3785   1.4953
     1.4954   1.5598   1.6500   1.7648   1.7648   2.2464   2.2464   2.3196
     2.3196   2.3487   2.3901   2.3902   2.5590   2.5590   2.9732   2.9733
     3.0907   3.0907   3.3146   3.3146   3.4057   3.4057   3.4532   3.4532
     3.4723   3.4723   3.8040   3.8040   3.9104   3.9104   4.1747   4.1747
     4.7738   4.7738   5.1107   5.1108   5.2181   5.2181   5.4298   5.4761
     5.5103   5.5507   5.5507   5.6447   5.6447   5.6543   5.6544   5.6899
     5.6899   5.7881   5.8134   5.8232   5.8232   5.8947   6.0543   6.0543
     6.2541   6.2541   6.2565   6.2604   6.2711   6.2711   6.3067   6.3067
     6.4094   6.4095   6.5835   6.7397   6.7397   6.9098   6.9485   6.9556
     6.9556   6.9882   6.9883   6.9978   6.9979   7.0122   7.0122   7.0884
     7.1097   7.1803   7.2066   7.2066   7.3431   7.3617   7.6991   7.7249
    41.2236  41.2670  41.2670  41.3849  42.1279  42.1966  42.1966  42.5853
    42.5853  42.6139  43.8639  43.9979  43.9979  44.0358  44.0358  44.0938
    44.3782  44.3782  44.6966  44.6966  44.7111  44.7111  44.7327  44.7327
    45.1129  45.2199  45.2261  45.2261  45.2806  45.2806  45.3206  45.3206
    45.9475  45.9475  46.3245  46.3245  46.5270  46.5270  46.6303  47.4247
    47.5453  47.5453  47.5793  47.5957  47.5957  47.6433  47.6433  47.7876
    47.9605  47.9635  47.9636  47.9830  47.9923  47.9923  48.0751  48.0751
    48.3740  48.4086  48.4203  48.4204  48.5656  48.5656  49.0289  49.0289
    49.2853  49.2882  49.2882  49.4907  49.4907  49.4996  49.4996  49.5757
    49.5767  49.5767  49.5923  49.5923  49.6752  49.6752  49.9198  49.9198
    49.9983  50.0088  50.2836  50.5531  50.5532  50.6956  50.7871  50.7871
    51.1506  51.2009  51.4604  51.4604  53.4237  53.4237  53.5805  53.5805
    53.6545  54.1975  54.1975  54.3968  54.3968  54.4295  54.4295  54.4315
    54.4315  54.4593  54.4598  54.6145  54.6145  54.6378  54.6378  54.7045
    54.7110  54.7110  54.8494  54.8494  54.9539  54.9539  55.7931  55.7932
    56.1746  56.2520  56.2520  56.7368  56.8329  56.8952  56.8952  56.9768
    56.9769  57.1291  57.1573  57.1573  57.3811  57.7879  57.7879  57.9558
    57.9558  58.0225  58.0912  58.1183  58.1848  58.1848  58.2290  58.2290
    59.0875  59.1519  59.1519  59.6632  59.6632  59.7839  59.8866  59.9912
    60.2995  60.4070  60.4070  60.4217  60.4217  60.5829  60.5829  60.9649
    61.9420  61.9420  62.5395  62.5396  62.5464  62.5465  62.8259  63.4773
    63.4773  64.6696  64.9372  64.9372  65.7886  65.7887  65.9336  66.3986
    66.6250  67.6041  67.6041  68.6045  72.2208  72.2209  72.5537  72.5537
    72.6682  72.6682  74.2989  74.8317  74.8318  74.9593  74.9593  74.9759
    74.9760  74.9920  75.5559  75.7126  75.7126  76.4036  77.0970  77.0970
    77.7177  78.0065  79.4937  79.4937  79.5946  79.5946  79.6553  79.6553
    80.2305  80.2305  80.5072  80.5072  80.8918  80.8918  81.1620  81.1620
    81.2657  81.2657

          k = 0.0741 0.0741-0.6667 ( 12714 PWs)   bands (ev):

   -30.6228 -30.6227 -29.5293 -29.5293 -29.5293 -29.5292 -29.3081 -29.3081
   -29.3081 -29.3081 -28.9470 -28.9470 -28.8375 -28.8375 -28.8374 -28.8374
   -28.7510 -28.7510 -28.5684 -28.5684 -28.3248 -28.3248 -28.3247 -28.3247
   -28.2822 -28.2822 -28.2822 -28.2822 -28.0840 -28.0840 -28.0839 -28.0839
     1.0557   1.0557   1.1587   1.1587   1.1587   1.1587   1.2966   1.2966
     1.5163   1.5163   1.5163   1.5163   1.9187   1.9187   2.2971   2.2971
     2.2971   2.2971   2.4231   2.4231   2.4231   2.4231   3.2125   3.2125
     3.2125   3.2125   3.2585   3.2585   3.2585   3.2585   3.5874   3.5874
     3.5874   3.5875   3.6122   3.6122   3.6122   3.6122   4.4955   4.4956
     4.4956   4.4956   5.1644   5.1644   5.1644   5.1644   5.6177   5.6177
     5.6477   5.6477   5.8216   5.8216   5.8216   5.8216   5.8663   5.8663
     5.9505   5.9505   5.9505   5.9505   5.9885   5.9885   5.9885   5.9885
     6.0550   6.0550   6.0550   6.0550   6.0834   6.0834   6.0834   6.0834
     6.2648   6.2648   6.7530   6.7530   6.8603   6.8603   6.8604   6.8604
     6.9278   6.9278   6.9930   6.9930   6.9931   6.9931   7.1003   7.1003
     7.1285   7.1285   7.1286   7.1286   7.5353   7.5353   7.5584   7.5584
    41.7096  41.7096  41.8587  41.8587  41.8860  41.8860  41.8860  41.8860
    43.0323  43.0323  43.0323  43.0323  44.4361  44.4361  44.5030  44.5030
    44.5030  44.5030  44.5745  44.5745  44.5745  44.5745  44.6566  44.6566
    45.0121  45.0121  45.0121  45.0121  45.2826  45.2826  45.2826  45.2826
    45.7740  45.7740  45.7740  45.7740  47.1192  47.1192  47.1192  47.1192
    47.3284  47.3284  47.5371  47.5371  47.7433  47.7433  47.7434  47.7434
    48.0111  48.0111  48.0111  48.0111  48.1135  48.1135  48.1633  48.1633
    48.2088  48.2088  48.2088  48.2088  48.7464  48.7464  48.7464  48.7464
    49.3767  49.3767  49.3767  49.3767  49.6937  49.6937  49.6938  49.6938
    49.7316  49.7316  49.9077  49.9077  49.9077  49.9077  49.9775  49.9775
    49.9776  49.9776  50.0900  50.0900  50.4305  50.4305  50.4305  50.4305
    50.5399  50.5399  50.5450  50.5450  53.4969  53.4969  53.4969  53.4969
    53.8918  53.8918  54.5008  54.5008  54.5008  54.5008  54.5176  54.5176
    54.5176  54.5176  54.9310  54.9310  54.9310  54.9310  55.5959  55.5959
    55.5959  55.5959  55.6470  55.6470  55.6519  55.6519  55.6520  55.6520
    56.0270  56.0270  56.1961  56.1961  56.1961  56.1961  56.4277  56.4277
    56.5084  56.5084  56.5084  56.5084  58.0889  58.0889  58.0890  58.0890
    58.1386  58.1386  58.7682  58.7682  58.7682  58.7682  58.9491  58.9491
    59.1505  59.1505  59.2323  59.2323  59.3230  59.3230  59.3230  59.3230
    59.3249  59.3249  59.3249  59.3249  60.3931  60.3931  62.0184  62.0184
    62.0184  62.0184  62.5427  62.5427  62.5428  62.5428  63.4516  63.4516
    63.4516  63.4516  64.4486  64.4486  65.6071  65.6071  66.7765  66.7765
    66.7765  66.7765  67.7146  67.7146  73.4642  73.4642  73.4642  73.4642
    73.6588  73.6588  73.6589  73.6589  74.2380  74.2380  74.2380  74.2380
    75.2194  75.2194  75.9251  75.9251  75.9251  75.9251  76.3777  76.3777
    76.5612  76.5612  79.5566  79.5566  79.5566  79.5566  79.9129  79.9129
    79.9129  79.9129  80.5619  80.5619  80.5619  80.5619  81.2121  81.2121
    81.2121  81.2121

          k = 0.0741 0.2222 0.2222 ( 12742 PWs)   bands (ev):

   -30.9222 -29.9845 -29.9845 -29.7201 -29.4742 -29.3178 -29.2446 -29.2445
   -29.1420 -29.1419 -28.9764 -28.9763 -28.9167 -28.8452 -28.8145 -28.8144
   -28.7742 -28.7741 -28.7129 -28.7129 -28.6130 -28.6129 -28.5049 -28.1428
   -28.1427 -28.1210 -28.1209 -28.1058 -28.1058 -28.0924 -28.0923 -28.0923
     0.5036   0.5036   0.5923   0.6841   1.1026   1.1406   1.1406   2.0106
     2.0106   2.0773   2.0773   2.2653   2.3320   2.3320   2.3527   2.3527
     2.3892   2.3893   2.4147   2.4148   2.5483   2.5483   2.5720   2.5720
     3.0520   3.2013   3.2013   3.3069   3.3069   3.3235   3.3235   3.5118
     3.5119   3.6948   3.7416   4.2726   4.2961   4.2961   4.5812   4.5812
     4.6543   4.6543   4.9730   4.9730   5.0051   5.1372   5.1372   5.1552
     5.1552   5.1911   5.1911   5.1989   5.1989   5.2609   5.2610   5.3313
     5.3314   5.3561   5.4417   5.4417   5.5309   6.1349   6.1350   6.2610
     6.2610   6.4144   6.4687   6.6195   6.6922   6.6943   6.7138   6.7139
     6.7353   6.7353   6.7865   6.7866   6.7874   6.7874   6.8457   6.8457
     6.9014   6.9459   6.9459   6.9661   6.9984   6.9985   7.0201   7.0201
     7.0291   7.0465   7.2025   7.2025   7.3384   7.5865   7.8760   7.9471
    40.5415  40.5974  40.5974  41.1847  41.1847  41.3861  43.2190  43.3327
    43.3450  43.3450  43.4543  43.4543  43.8261  43.8262  44.0182  44.0182
    44.0604  44.3599  44.3599  44.6449  44.6449  44.6970  44.7806  45.2949
    45.2949  45.3749  45.3749  45.8922  46.0001  46.0001  46.5197  46.5197
    46.5363  46.5364  46.5622  46.5622  46.6324  46.6324  46.7362  46.7362
    46.8738  46.9431  47.1983  47.2782  47.2783  47.4057  47.4057  47.5951
    47.5952  47.6916  47.6916  47.8756  47.8756  47.8897  47.8897  47.9496
    48.1291  48.1291  48.2954  48.2954  48.3735  48.6701  48.8288  48.8736
    49.0057  49.0844  49.0845  49.3188  49.4499  49.5111  49.5111  49.5734
    49.8359  49.8359  50.7959  50.7959  50.8124  50.8124  50.8926  51.0109
    51.0109  51.0949  51.0949  51.2101  51.2101  51.6256  51.6976  51.6976
    51.9607  51.9607  52.0221  52.4229  52.4965  52.4965  52.6902  52.6902
    52.7805  52.7805  53.0136  53.0136  53.1584  53.1739  53.1739  53.3325
    53.3957  53.4661  54.2110  54.3867  54.3867  54.6846  54.6846  54.7769
    54.7769  54.9551  54.9551  55.0572  55.0572  55.2583  55.2583  55.4447
    55.5346  55.5346  55.7670  55.8396  55.8396  55.8964  55.8964  55.9905
    55.9906  56.7292  56.7292  56.7795  56.8737  56.8737  57.5479  57.6475
    57.6475  58.2030  58.2968  58.2968  58.5337  58.7966  58.8432  58.8433
    59.1325  59.4342  60.2573  60.2574  60.2860  60.4517  60.4518  60.6447
    60.7243  60.9820  60.9821  61.0712  61.1604  61.1604  61.7948  61.7948
    62.1172  62.1289  62.1289  62.1496  62.1496  62.2135  62.2136  62.3159
    63.6368  64.9089  64.9204  64.9204  66.1069  66.1069  67.4704  67.4705
    68.9883  68.9884  69.1044  69.1044  69.7878  69.7878  70.4725  70.5763
    70.5763  71.3805  73.1974  73.5075  73.7912  74.4732  74.4732  77.2122
    77.2122  77.9581  77.9581  78.0504  78.0504  78.5788  78.5788  78.6335
    78.6335  78.7288  78.7288  78.9965  79.3205  79.3835  79.3835  80.0754
    80.0754  80.1182  80.1182  80.3221  80.3221  80.5402  80.5402  80.7232
    80.7232  80.9339

          k = 0.0741 0.2222 0.3704 ( 12747 PWs)   bands (ev):

   -30.8460 -30.2087 -29.9292 -29.6718 -29.4743 -29.4323 -29.2767 -29.2080
   -29.1217 -29.0916 -28.9995 -28.9659 -28.9638 -28.9134 -28.8721 -28.7562
   -28.7332 -28.7164 -28.6525 -28.6250 -28.5763 -28.4984 -28.4081 -28.2404
   -28.1710 -28.1665 -28.1621 -28.1388 -28.1265 -28.1125 -28.0916 -28.0904
     0.6022   0.6299   0.7739   0.8955   1.2079   1.2366   1.3207   1.6683
     1.7497   2.0027   2.0246   2.0287   2.0461   2.0991   2.2386   2.2703
     2.2707   2.3205   2.3642   2.4141   2.4895   2.5160   2.5589   2.7973
     2.8313   3.1338   3.1822   3.2934   3.3572   3.3996   3.4136   3.5518
     3.6132   3.6524   3.8745   4.0361   4.0373   4.3113   4.3885   4.7077
     4.7268   4.8010   4.9699   4.9787   5.0393   5.1547   5.2386   5.2765
     5.3064   5.3375   5.3810   5.4059   5.4399   5.4453   5.4537   5.4761
     5.4931   5.5254   5.7220   5.7654   5.8221   5.9154   6.0015   6.0368
     6.3207   6.3503   6.4355   6.4606   6.4955   6.5114   6.5351   6.5487
     6.5701   6.5831   6.7286   6.7482   6.7532   6.7683   6.7997   6.8303
     6.8953   6.9026   6.9262   6.9681   7.0054   7.0154   7.0773   7.0817
     7.1338   7.1902   7.2247   7.2383   7.3133   7.4074   7.7863   7.9046
    40.7912  40.9141  40.9328  41.3569  41.6306  41.9057  42.7967  43.1641
    43.4343  43.4548  43.5902  43.6731  43.6807  43.7531  43.7837  43.8172
    44.2660  44.2849  44.3287  44.4103  44.5419  44.8844  44.9930  45.0414
    45.2451  45.3656  45.5326  45.5640  45.7214  45.7720  45.8560  45.8647
    46.0020  46.1440  46.2030  46.2884  46.3185  46.3896  46.5980  46.9522
    46.9964  47.1062  47.1299  47.1912  47.1986  47.3453  47.4675  47.5063
    47.6266  47.6650  47.7158  47.7835  47.8359  47.8688  48.0523  48.0684
    48.2120  48.2439  48.3027  48.3647  48.3711  48.5286  48.6391  49.0645
    49.2653  49.4225  49.4322  49.5489  49.5807  49.5977  49.6461  49.7001
    49.7437  49.7714  50.2037  50.4515  50.5906  50.6280  50.7071  50.8264
    50.8914  51.0000  51.0107  51.1025  51.2482  51.3322  51.4262  51.6386
    51.7118  51.9169  52.3484  52.4811  52.4874  52.5932  52.6617  52.7078
    53.0305  53.0463  53.1071  53.1251  53.2022  53.2653  53.2831  53.3137
    53.4975  53.6561  53.7472  53.9628  54.4963  54.6283  54.7478  54.9882
    55.0460  55.0514  55.0561  55.2509  55.5056  55.6998  55.7848  55.8289
    55.8576  55.8623  55.9833  56.1630  56.1843  56.2912  56.9573  56.9578
    57.0761  57.1499  57.2570  57.2746  57.4515  57.4803  57.5686  57.6410
    57.6655  57.7005  57.7035  58.2710  58.2737  58.5082  58.5576  58.9778
    59.0741  59.3251  59.4859  59.6484  59.7386  60.1340  60.3349  60.3808
    60.7135  60.7494  60.7518  60.7913  61.1700  61.1801  61.3725  61.4142
    61.6776  61.8927  62.0574  62.1228  62.1553  62.1913  62.1921  62.7027
    63.4914  64.1559  64.7309  65.7189  65.9076  66.1781  66.2302  67.0883
    67.8024  68.1440  69.4108  70.2095  70.3048  70.5447  70.9382  71.4940
    71.7895  72.0187  73.3965  74.0877  74.2442  75.1173  75.3614  75.8888
    76.2989  76.4340  76.4793  76.5932  77.3225  77.4931  78.0307  78.0693
    78.5103  78.5347  78.9827  79.0838  79.1231  79.1565  79.2017  79.5137
    79.5326  79.9412  79.9544  80.1068  80.4007  80.6278  80.6970  80.7465
    80.7514  80.8334

          k = 0.0741 0.2222 0.5185 ( 12743 PWs)   bands (ev):

   -30.7337 -30.4115 -29.8481 -29.6175 -29.6009 -29.4005 -29.3709 -29.1979
   -29.1547 -29.0925 -29.0128 -29.0050 -28.9460 -28.8988 -28.7684 -28.7417
   -28.7221 -28.6974 -28.6431 -28.5020 -28.4501 -28.3931 -28.3813 -28.3195
   -28.2549 -28.2442 -28.2225 -28.1768 -28.1334 -28.1196 -28.0906 -28.0897
     0.7771   0.8287   1.0222   1.1714   1.3254   1.3637   1.3787   1.4066
     1.5846   1.6711   1.7876   1.8139   1.8656   2.0308   2.0478   2.2048
     2.2078   2.2160   2.2685   2.3329   2.4178   2.5611   2.6723   2.7967
     2.9819   3.0217   3.1230   3.1715   3.3130   3.4257   3.6049   3.6899
     3.7466   3.7556   3.8009   3.9743   4.0580   4.1471   4.2221   4.3846
     4.5568   4.8170   5.1860   5.1958   5.2688   5.2871   5.2907   5.3725
     5.3906   5.3981   5.5162   5.6011   5.7062   5.7085   5.7145   5.7283
     5.7414   5.8095   5.8351   5.8666   5.9851   6.0509   6.0761   6.0971
     6.1190   6.1582   6.1888   6.2102   6.2534   6.2774   6.2931   6.4240
     6.4609   6.5318   6.5596   6.6740   6.7078   6.7263   6.7789   6.8176
     6.8508   6.8685   6.9417   6.9588   6.9770   6.9841   7.0080   7.1175
     7.1719   7.1893   7.2661   7.2944   7.4151   7.4595   7.6557   7.8030
    41.2027  41.3732  41.4225  41.6234  42.2773  42.3107  42.4396  42.6138
    42.7355  42.8026  43.7344  43.8446  43.9891  44.0056  44.1020  44.1718
    44.2392  44.2808  44.4709  44.4912  44.6265  44.6284  44.7912  44.7967
    45.0309  45.1546  45.1670  45.1878  45.3918  45.4182  45.4873  45.5521
    45.6043  45.6283  45.8646  45.9392  46.6575  46.6669  46.7021  46.7081
    46.8236  46.9846  47.0341  47.2393  47.4007  47.4545  47.5201  47.5507
    47.5888  47.6726  47.7801  47.7982  47.8881  47.9210  48.0696  48.0945
    48.1867  48.2421  48.5140  48.5526  48.5769  48.5806  48.8923  49.1539
    49.3493  49.5936  49.6277  49.8342  49.8739  49.8903  49.9542  50.0218
    50.0313  50.0340  50.0710  50.0838  50.0918  50.1576  50.2596  50.2768
    50.3639  50.6105  50.7447  50.7873  50.8322  50.9646  50.9656  51.0086
    51.0788  51.1528  51.4574  52.2216  52.5606  52.6269  52.6920  52.9568
    53.4911  53.7961  53.8165  53.9001  53.9242  53.9299  53.9324  53.9852
    54.0557  54.1730  54.2462  54.3561  54.3596  54.4861  54.4878  54.7403
    54.8404  55.3403  55.4213  55.5132  55.6947  55.7056  55.8330  56.0735
    56.1443  56.2193  56.2563  56.7061  56.7229  56.8598  56.8729  56.8818
    56.9730  57.0655  57.0959  57.2452  57.3673  57.7595  58.0039  58.0408
    58.0805  58.0846  58.2105  58.3690  58.5844  58.5891  58.5957  58.5983
    58.8409  58.9050  59.1951  59.3733  59.4183  60.0247  60.0615  60.1083
    60.1774  60.2166  60.3719  60.3903  60.4133  60.4231  60.4497  61.1206
    61.8316  62.0712  62.1198  62.1420  62.1606  62.1767  63.3026  63.4296
    63.5730  63.7224  64.7795  64.9579  65.1476  66.4432  66.5189  66.8555
    66.9676  67.5075  68.8031  69.5752  71.6403  72.1131  72.1459  72.5026
    72.7806  73.2799  73.9343  74.4512  74.6750  74.9222  74.9805  75.0536
    75.0848  75.3020  75.9143  75.9547  76.2214  76.3595  76.6947  77.9475
    78.0174  78.2022  78.2229  78.4533  78.5638  79.1000  79.2836  79.5322
    79.7797  79.8277  79.9067  79.9568  80.0149  80.2906  80.6312  80.6378
    80.6996  81.0133

          k = 0.0741 0.2222-0.6667 ( 12722 PWs)   bands (ev):

   -30.5878 -30.5878 -29.7432 -29.7432 -29.5096 -29.5096 -29.2920 -29.2920
   -29.0863 -29.0863 -29.0557 -29.0556 -28.9239 -28.9239 -28.7304 -28.7304
   -28.6673 -28.6672 -28.5598 -28.5597 -28.3680 -28.3680 -28.3382 -28.3382
   -28.3002 -28.3002 -28.2417 -28.2417 -28.1268 -28.1268 -28.0899 -28.0899
     1.0218   1.0218   1.0921   1.0921   1.3268   1.3268   1.5005   1.5005
     1.5636   1.5636   1.5670   1.5670   1.9251   1.9252   2.0937   2.0937
     2.1400   2.1400   2.1894   2.1894   2.5290   2.5290   2.8458   2.8458
     2.9982   2.9983   3.0539   3.0539   3.4339   3.4339   3.5959   3.5959
     3.8230   3.8230   3.9348   3.9348   4.0378   4.0378   4.2787   4.2787
     4.5407   4.5407   5.2263   5.2263   5.3388   5.3388   5.5381   5.5381
     5.5678   5.5678   5.6555   5.6555   5.6603   5.6603   5.8150   5.8150
     5.9001   5.9001   5.9510   5.9510   5.9894   5.9894   6.0051   6.0051
     6.0223   6.0223   6.2220   6.2220   6.2236   6.2236   6.3462   6.3462
     6.4501   6.4501   6.5336   6.5336   6.5741   6.5741   6.8118   6.8118
     6.8381   6.8381   6.8405   6.8405   6.9976   6.9976   7.1029   7.1029
     7.1476   7.1476   7.3654   7.3654   7.4896   7.4896   7.6512   7.6512
    41.7640  41.7640  41.8728  41.8729  42.0392  42.0392  42.0761  42.0761
    43.1070  43.1070  43.4784  43.4784  43.8110  43.8110  44.3768  44.3768
    44.5173  44.5173  44.6131  44.6131  44.7810  44.7810  44.7952  44.7952
    44.8029  44.8029  45.0823  45.0823  45.0839  45.0839  45.0998  45.0998
    45.5307  45.5307  46.0818  46.0818  46.2569  46.2569  46.8409  46.8409
    47.2261  47.2261  47.2287  47.2287  47.3518  47.3518  47.4060  47.4060
    47.4324  47.4324  47.8701  47.8701  48.0374  48.0374  48.2073  48.2073
    48.4111  48.4111  48.4465  48.4465  48.4534  48.4534  49.2419  49.2419
    49.5387  49.5387  49.7515  49.7515  49.7755  49.7755  50.0733  50.0733
    50.0896  50.0896  50.1014  50.1014  50.4195  50.4195  50.4471  50.4471
    50.4478  50.4478  50.4922  50.4922  50.5584  50.5584  50.6116  50.6116
    50.8863  50.8863  51.0423  51.0423  52.5679  52.5679  52.8175  52.8175
    53.6650  53.6650  53.9973  53.9973  54.2140  54.2140  54.5759  54.5759
    54.5858  54.5858  54.6975  54.6975  55.0136  55.0136  55.0429  55.0429
    55.1400  55.1400  55.5958  55.5958  55.6450  55.6450  55.6737  55.6737
    55.7199  55.7199  56.0742  56.0742  56.3631  56.3631  56.4883  56.4883
    57.3763  57.3763  57.5019  57.5019  57.9004  57.9004  57.9153  57.9153
    58.1513  58.1513  58.3657  58.3657  59.0859  59.0859  59.1592  59.1592
    59.3549  59.3550  59.3765  59.3765  59.4466  59.4466  59.4680  59.4680
    59.4917  59.4917  59.5124  59.5124  60.5985  60.5985  60.6805  60.6805
    61.8539  61.8539  62.1237  62.1238  62.1671  62.1671  63.3158  63.3158
    64.4168  64.4168  64.9665  64.9665  65.3498  65.3498  65.7878  65.7878
    67.9686  67.9686  68.6556  68.6556  73.0214  73.0214  73.4672  73.4672
    73.6590  73.6590  73.6798  73.6798  73.7567  73.7567  74.7886  74.7886
    74.7991  74.7991  75.5519  75.5519  76.6368  76.6368  76.8559  76.8559
    77.3984  77.3984  78.0580  78.0580  78.9068  78.9068  79.3913  79.3913
    79.6495  79.6495  79.9330  79.9330  80.3709  80.3709  80.4226  80.4226
    81.1112  81.1112

          k = 0.0741 0.3704 0.3704 ( 12736 PWs)   bands (ev):

   -30.7714 -30.1482 -30.1481 -29.6476 -29.6256 -29.3926 -29.2496 -29.2495
   -29.0719 -29.0719 -29.0355 -28.9697 -28.9697 -28.9200 -28.7316 -28.7315
   -28.6935 -28.6934 -28.5880 -28.5880 -28.5188 -28.5187 -28.3328 -28.2333
   -28.2332 -28.2088 -28.2088 -28.1817 -28.1816 -28.1164 -28.1164 -28.0936
     0.6973   0.6973   0.9760   1.1286   1.3123   1.3977   1.3978   1.6640
     1.6640   1.7091   1.7092   2.0431   2.0431   2.1697   2.1698   2.1899
     2.1899   2.2499   2.2499   2.3292   2.3293   2.4117   2.5059   2.5059
     2.7223   2.7224   3.1428   3.3383   3.4093   3.4094   3.5909   3.5910
     3.7125   3.7818   3.9707   3.9708   4.4785   4.4785   4.5552   4.6996
     4.6997   4.7218   4.7219   5.1205   5.1206   5.2250   5.2250   5.3277
     5.3277   5.3909   5.3909   5.4720   5.4899   5.4900   5.6222   5.6222
     5.7358   5.7358   5.7772   5.7772   6.0112   6.0113   6.1009   6.1024
     6.1024   6.2102   6.2103   6.3519   6.4151   6.4551   6.4552   6.5276
     6.5634   6.5634   6.5745   6.5745   6.7392   6.7403   6.7887   6.8076
     6.8076   6.8915   6.9662   6.9662   6.9906   6.9907   6.9935   7.0062
     7.0177   7.2026   7.2026   7.3727   7.3727   7.5205   7.6940   7.9149
    40.9339  41.2439  41.2439  41.8008  41.8008  42.5015  43.0434  43.0434
    43.1509  43.1509  43.6272  43.7184  43.7184  43.7664  43.7873  44.0263
    44.0263  44.1384  44.1384  44.3725  44.6165  44.6165  44.9234  45.1404
    45.1404  45.3539  45.3539  45.5928  45.5928  45.6265  45.6265  45.8142
    45.8142  45.9764  45.9764  46.1745  46.1745  46.1906  46.1906  46.3248
    46.3248  46.7383  46.7738  46.7738  47.0152  47.4144  47.4180  47.4180
    47.4923  47.4923  47.5433  47.5433  47.7490  47.7490  47.7960  48.1812
    48.3297  48.3297  48.4410  48.6068  48.6130  48.6783  48.6783  49.3194
    49.3487  49.5431  49.6265  49.7827  49.7828  49.8500  49.8501  50.0487
    50.1430  50.1431  50.7359  50.7359  50.7952  50.7952  50.8019  50.8019
    51.2079  51.2989  51.4523  51.4771  51.4771  51.8135  51.8136  51.8425
    51.8425  51.9317  52.0060  52.0060  52.1151  52.5679  52.5861  52.5861
    52.6184  52.6184  52.7628  52.7802  52.7802  52.8201  52.8201  53.2113
    53.2113  53.2738  54.0441  54.4413  54.4414  54.5334  54.5335  54.7568
    54.7568  54.8516  55.7035  55.7036  55.8256  55.8369  55.8369  56.3387
    56.3387  56.3728  56.3728  56.4146  56.4617  56.4617  56.9063  56.9063
    57.1698  57.2169  57.2170  57.4386  57.4386  57.5013  57.5013  57.9585
    58.1972  58.1972  58.4339  58.4339  58.4643  58.4644  58.5516  58.6073
    58.8975  59.1488  59.2320  59.2320  59.3192  60.2990  60.2990  60.3854
    60.5986  60.7551  60.7551  60.7971  60.7972  60.9245  61.3743  61.3743
    61.4343  61.4343  61.5976  61.5976  61.8148  62.0893  62.1731  63.4693
    63.4693  63.9101  64.3665  64.3665  65.8319  65.8319  67.1894  67.1894
    69.2640  69.2641  69.5564  69.5564  70.6182  70.6182  71.1915  71.1915
    72.4568  72.9499  73.4767  74.2282  74.9259  75.1145  75.1145  76.1741
    76.1741  76.1871  76.1871  76.4064  76.4064  77.1270  77.1270  77.7357
    77.8721  77.8721  78.2874  78.2875  78.4678  78.4678  78.8186  79.3023
    79.7088  79.7088  79.8547  79.8547  79.9650  79.9650  80.1086  80.6395
    80.6396  80.7729

          k = 0.0741 0.3704 0.5185 ( 12721 PWs)   bands (ev):

   -30.6615 -30.3463 -30.0592 -29.8056 -29.5580 -29.3672 -29.3347 -29.2101
   -29.1717 -29.1010 -29.0434 -28.9658 -28.9263 -28.8052 -28.7453 -28.6585
   -28.6371 -28.6056 -28.5620 -28.5490 -28.4696 -28.4214 -28.3698 -28.2822
   -28.2771 -28.2642 -28.2642 -28.2232 -28.1967 -28.1547 -28.1081 -28.0969
     0.8418   0.8653   1.2398   1.3378   1.3872   1.4223   1.4665   1.5112
     1.6338   1.7185   1.7337   1.8371   1.8994   1.9108   1.9693   1.9825
     2.0577   2.1342   2.1929   2.3044   2.3167   2.4152   2.4941   2.5072
     2.6246   2.8100   2.9586   3.0725   3.1664   3.4698   3.7017   3.7977
     3.8788   4.0911   4.1079   4.2405   4.2833   4.3140   4.4294   4.4878
     4.8657   4.9016   4.9536   5.0393   5.1243   5.2390   5.3319   5.3691
     5.5159   5.5239   5.5245   5.5646   5.5719   5.5786   5.7264   5.7515
     5.8254   5.8434   5.8448   5.8763   5.9066   5.9603   6.0630   6.1482
     6.1885   6.1946   6.2378   6.3237   6.3240   6.3252   6.3370   6.3641
     6.3758   6.6052   6.6079   6.6130   6.6296   6.6301   6.6484   6.7268
     6.7291   6.8054   6.8465   6.9043   6.9072   6.9141   6.9684   7.0721
     7.1546   7.1695   7.1889   7.4887   7.5599   7.5711   7.5811   7.8613
    41.2435  41.6926  41.7290  42.0663  42.3347  42.4403  42.6718  43.0179
    43.0329  43.1704  43.2674  43.3824  43.6710  43.9428  44.0653  44.1372
    44.2342  44.5289  44.5559  44.5640  44.5709  44.7137  44.9099  44.9644
    44.9649  44.9980  45.0290  45.1396  45.1476  45.1694  45.2069  45.3221
    45.4186  45.5135  45.6089  45.6264  45.7813  45.9747  46.4389  46.4884
    46.6763  46.8272  46.9103  46.9215  47.0016  47.0391  47.0511  47.1279
    47.2827  47.3579  47.4201  47.6186  47.8589  47.9423  48.0893  48.2346
    48.3140  48.4327  48.5765  48.5883  48.5945  48.6791  48.8709  49.0322
    49.6236  49.9115  49.9356  50.1601  50.2932  50.3822  50.3845  50.4435
    50.4442  50.5319  50.5862  50.6269  50.6799  50.6887  50.7843  50.7956
    50.8354  50.9155  51.0826  51.2227  51.2543  51.4574  51.5421  51.6571
    51.7446  51.7738  51.7833  51.8577  52.1810  52.2509  52.4419  52.7036
    52.9324  53.0459  53.1423  53.1502  53.1710  53.3243  53.4208  53.4515
    53.5024  53.5790  54.1206  54.1862  54.1997  54.3306  54.4233  54.5092
    54.5726  55.2625  55.3277  55.3877  55.4089  55.4436  55.9317  56.0225
    56.3900  56.4012  56.5780  56.6168  56.6625  56.8226  56.8808  56.9786
    57.2915  57.3169  57.5324  57.5404  57.5835  58.0230  58.0451  58.2159
    58.3029  58.3232  58.4341  58.5778  58.6456  58.7598  59.1314  59.1631
    59.1819  59.2061  59.2666  59.5572  59.7424  59.8584  59.8904  60.1448
    60.3102  60.3269  60.4501  60.4542  60.4879  60.4919  60.5050  60.7309
    60.9535  61.3959  61.4572  61.5294  61.5768  61.7016  62.5240  62.9656
    63.8416  64.1787  64.4804  65.0108  65.1073  65.3363  67.9872  68.2300
    68.2439  68.4826  70.0516  70.5943  70.7435  71.1023  71.9094  72.2840
    73.0565  73.7151  73.9182  73.9940  74.3158  74.6978  74.8240  74.9308
    75.0274  75.8034  75.9051  76.4036  76.5771  77.0592  77.1430  77.2291
    77.2724  77.3279  78.0045  78.3463  78.5592  78.6705  78.7154  78.7921
    78.7972  79.1163  79.1584  79.5094  79.6219  79.7774  79.7850  80.3174
    80.5481  80.6446

          k = 0.0741 0.3704-0.6667 ( 12720 PWs)   bands (ev):

   -30.5188 -30.5187 -29.9440 -29.9440 -29.4710 -29.4710 -29.2603 -29.2603
   -29.1600 -29.1600 -29.0075 -29.0075 -28.8709 -28.8709 -28.6292 -28.6292
   -28.5887 -28.5887 -28.5428 -28.5428 -28.4105 -28.4105 -28.3649 -28.3649
   -28.3357 -28.3357 -28.2108 -28.2108 -28.2044 -28.2043 -28.1017 -28.1017
     1.0582   1.0582   1.0991   1.0991   1.5534   1.5534   1.6586   1.6586
     1.6675   1.6675   1.7637   1.7637   1.8217   1.8217   1.8273   1.8273
     1.9387   1.9387   2.1043   2.1043   2.4515   2.4515   2.5177   2.5177
     2.7873   2.7873   2.9789   2.9789   3.1374   3.1374   3.9961   3.9961
     4.0139   4.0139   4.1570   4.1570   4.2817   4.2817   4.4807   4.4807
     4.6287   4.6287   5.3289   5.3289   5.3474   5.3474   5.3908   5.3908
     5.4184   5.4184   5.5370   5.5370   5.5392   5.5392   5.6789   5.6789
     5.8450   5.8450   5.9917   5.9917   6.0667   6.0667   6.0902   6.0902
     6.1593   6.1593   6.1990   6.1990   6.2833   6.2833   6.3719   6.3719
     6.4388   6.4388   6.6019   6.6019   6.6138   6.6138   6.6595   6.6595
     6.6643   6.6643   6.7948   6.7948   6.9390   6.9390   7.0522   7.0522
     7.1260   7.1260   7.3893   7.3893   7.5588   7.5588   7.7472   7.7472
    41.7184  41.7184  42.2074  42.2074  42.3420  42.3420  42.4888  42.4888
    43.1261  43.1261  43.2573  43.2573  44.1628  44.1628  44.3419  44.3419
    44.3936  44.3936  44.4802  44.4802  44.6797  44.6797  44.8278  44.8278
    44.8412  44.8412  44.9657  44.9657  45.0944  45.0944  45.1401  45.1401
    45.2028  45.2028  45.2628  45.2628  45.7205  45.7205  46.6959  46.6959
    46.6996  46.6996  46.8329  46.8329  46.8501  46.8501  47.3397  47.3397
    47.3824  47.3824  47.7451  47.7451  47.7666  47.7666  47.9779  47.9779
    48.3636  48.3636  48.5178  48.5178  48.6580  48.6580  49.1089  49.1089
    50.0002  50.0002  50.3526  50.3526  50.3560  50.3560  50.4354  50.4354
    50.5685  50.5685  50.6547  50.6547  50.7744  50.7744  50.8513  50.8513
    50.9118  50.9118  50.9921  50.9921  50.9998  50.9998  51.2382  51.2382
    51.7317  51.7317  51.7627  51.7627  52.1043  52.1043  52.1896  52.1896
    52.7709  52.7709  53.7114  53.7114  53.9008  53.9008  53.9989  53.9989
    54.0459  54.0459  54.1195  54.1195  54.3099  54.3099  54.4150  54.4150
    54.6783  54.6783  54.9304  54.9304  55.0624  55.0624  55.7934  55.7935
    56.3764  56.3764  56.3874  56.3874  56.6595  56.6595  56.6822  56.6822
    57.5669  57.5670  57.6240  57.6240  58.1648  58.1648  58.6077  58.6077
    58.6544  58.6544  58.6848  58.6848  59.0674  59.0674  59.4156  59.4156
    59.4516  59.4516  59.5053  59.5053  59.6413  59.6413  59.7550  59.7550
    59.7925  59.7925  59.9067  59.9067  59.9698  59.9698  60.4068  60.4068
    61.4534  61.4534  61.4864  61.4864  61.5458  61.5458  63.0792  63.0792
    63.1957  63.1957  64.7434  64.7434  66.5441  66.5441  66.7273  66.7273
    69.2288  69.2288  69.6639  69.6639  72.2361  72.2361  72.6198  72.6198
    73.3207  73.3207  73.5396  73.5396  73.9037  73.9037  74.7070  74.7070
    75.4921  75.4921  75.6993  75.6993  76.7970  76.7970  77.1367  77.1367
    77.6400  77.6400  77.9341  77.9341  78.3747  78.3747  78.4388  78.4388
    79.0360  79.0360  79.3219  79.3219  79.3530  79.3530  80.3411  80.3411
    80.5379  80.5379

          k = 0.0741 0.5185 0.5185 ( 12711 PWs)   bands (ev):

   -30.5552 -30.2504 -30.2504 -29.9767 -29.4953 -29.3187 -29.3186 -29.2818
   -29.1832 -29.1338 -29.1337 -29.0288 -28.7117 -28.7116 -28.6183 -28.6183
   -28.5832 -28.5831 -28.4986 -28.4986 -28.4632 -28.4631 -28.3533 -28.3532
   -28.3254 -28.3253 -28.3085 -28.3084 -28.2143 -28.1355 -28.1354 -28.1065
     0.9780   0.9780   1.4144   1.4145   1.4379   1.4380   1.5131   1.6181
     1.7066   1.7067   1.7282   1.7412   1.7413   1.9193   1.9193   2.0517
     2.0517   2.1701   2.1701   2.2046   2.2047   2.2686   2.2686   2.4123
     2.4458   2.4458   2.7789   2.9753   3.1362   3.4225   3.4225   3.9933
     4.1636   4.1637   4.4460   4.4460   4.5087   4.7021   4.7022   4.8132
     4.8133   4.8292   4.8293   5.0243   5.0244   5.3428   5.3428   5.3673
     5.3673   5.5167   5.5168   5.5384   5.5384   5.5570   5.5571   5.6391
     5.7492   5.7493   5.9339   5.9339   5.9923   5.9923   6.0763   6.0764
     6.0908   6.2385   6.2388   6.2388   6.3937   6.3937   6.4028   6.4029
     6.4594   6.5105   6.5105   6.6000   6.6001   6.6084   6.6154   6.6645
     6.8006   6.8020   6.8071   6.8735   6.8735   6.9381   6.9599   7.0360
     7.0361   7.1028   7.1028   7.4205   7.6672   7.6680   7.6681   7.8604
    41.4483  42.1729  42.1729  42.3592  42.3592  42.6932  42.6932  42.8853
    43.2005  43.2005  43.4702  43.4702  43.6974  43.6974  44.0747  44.1580
    44.2271  44.4334  44.4334  44.5564  44.6392  44.6392  44.8072  44.8073
    44.9140  44.9140  44.9321  44.9467  44.9467  45.0381  45.0381  45.1099
    45.1099  45.1637  45.1637  45.8755  45.8755  45.9599  45.9599  46.0208
    46.0208  46.6316  46.6316  46.7911  46.7911  46.8258  46.8258  46.9654
    46.9654  47.0481  47.5964  47.7425  47.7571  48.0325  48.0325  48.0928
    48.3531  48.5818  48.5998  48.5998  48.6454  48.8169  48.8169  48.8654
    49.9704  50.0808  50.2920  50.7410  50.7410  50.7997  50.8219  50.8219
    50.9945  50.9945  51.0245  51.0245  51.0474  51.0474  51.0485  51.1940
    51.1941  51.2709  51.2710  51.3573  51.3789  51.4595  51.6745  51.9341
    51.9341  52.2307  52.3294  52.3294  52.4448  52.4448  52.5494  52.5494
    52.5963  52.5964  52.7117  52.7803  52.7803  52.8896  53.0892  53.0892
    53.7613  53.7613  53.9080  53.9080  53.9153  53.9153  53.9233  53.9233
    54.1382  54.1722  54.4786  54.4786  54.7471  55.1513  55.7093  55.7094
    56.2340  56.2390  56.2391  56.4568  57.1677  57.1677  57.4377  57.4377
    57.6888  57.6888  57.8027  57.9113  57.9113  58.1645  58.1645  58.5025
    58.5025  59.0640  59.1012  59.1860  59.1860  59.4135  59.4136  59.4163
    59.4163  59.4775  59.6942  59.6942  59.7537  59.7537  59.8336  59.9778
    60.1184  60.2164  60.2165  60.4588  60.4588  60.5388  60.5388  60.5528
    60.5529  60.6574  60.7440  60.7440  61.0807  61.8273  61.9263  62.4990
    62.4990  63.6824  64.0870  64.0870  66.6384  66.6384  69.5349  69.5349
    69.5550  69.5550  69.7732  69.7733  71.3901  71.3901  71.7228  71.7228
    72.6267  72.6267  73.5070  74.1147  74.1147  74.2643  75.0651  75.1959
    75.1959  75.4874  75.9766  75.9766  76.3890  76.7668  76.7771  76.7771
    77.2867  78.1129  78.3531  78.3531  78.3995  78.3995  78.4547  78.4547
    78.7146  78.8996  78.8996  79.1981  79.1981  79.2584  79.2584  79.8496
    79.8496  80.0369

          k = 0.0741 0.5185-0.6667 ( 12688 PWs)   bands (ev):

   -30.4171 -30.4171 -30.1262 -30.1262 -29.4147 -29.4147 -29.2566 -29.2566
   -29.2141 -29.2141 -29.0855 -29.0855 -28.6688 -28.6688 -28.5366 -28.5366
   -28.5182 -28.5182 -28.5175 -28.5174 -28.4507 -28.4507 -28.4042 -28.4042
   -28.3879 -28.3879 -28.3325 -28.3325 -28.1711 -28.1711 -28.1193 -28.1193
     1.1634   1.1634   1.1800   1.1800   1.5516   1.5516   1.5574   1.5574
     1.8021   1.8021   1.8151   1.8151   1.8294   1.8294   1.9607   1.9607
     2.0403   2.0403   2.0757   2.0757   2.2282   2.2282   2.2326   2.2326
     2.4695   2.4695   2.7860   2.7860   3.1678   3.1678   3.7027   3.7027
     4.4395   4.4395   4.5094   4.5094   4.6138   4.6138   4.7559   4.7559
     4.9306   4.9306   5.1105   5.1105   5.1492   5.1492   5.1809   5.1809
     5.2138   5.2138   5.5230   5.5230   5.7070   5.7070   5.7139   5.7139
     5.7917   5.7917   5.8047   5.8047   5.9414   5.9414   6.0024   6.0024
     6.1806   6.1806   6.1917   6.1917   6.3863   6.3863   6.4865   6.4865
     6.4906   6.4906   6.4953   6.4953   6.6714   6.6714   6.7348   6.7348
     6.7567   6.7567   6.8233   6.8233   6.8422   6.8422   6.9770   6.9770
     7.0346   7.0346   7.2436   7.2436   7.6994   7.6994   7.7946   7.7946
    41.8248  41.8248  42.5411  42.5411  42.7036  42.7037  42.7837  42.7837
    43.0767  43.0767  43.4877  43.4877  43.8748  43.8748  44.0283  44.0283
    44.3544  44.3544  44.4755  44.4755  44.4855  44.4855  44.6457  44.6457
    44.7077  44.7077  44.8966  44.8966  44.9887  44.9887  45.1312  45.1312
    45.2129  45.2130  45.4288  45.4288  45.4512  45.4512  46.2351  46.2351
    46.3553  46.3553  46.4753  46.4753  46.7094  46.7094  46.8495  46.8495
    47.0580  47.0580  47.3807  47.3807  48.0262  48.0262  48.0784  48.0784
    48.5346  48.5346  48.5934  48.5934  48.7164  48.7164  48.8680  48.8680
    50.3608  50.3608  50.4599  50.4599  50.7343  50.7343  51.0356  51.0356
    51.0588  51.0588  51.0862  51.0862  51.1597  51.1597  51.3135  51.3135
    51.6456  51.6456  51.6746  51.6746  51.7354  51.7354  51.7719  51.7719
    51.8730  51.8730  52.0117  52.0117  52.0396  52.0396  52.4858  52.4858
    53.0890  53.0890  53.1348  53.1348  53.2943  53.2943  53.3858  53.3858
    53.4263  53.4263  53.5721  53.5721  53.5827  53.5827  53.6072  53.6072
    53.8272  53.8272  54.1143  54.1143  54.8111  54.8111  55.2848  55.2848
    55.7362  55.7363  56.7291  56.7291  57.0582  57.0582  57.5893  57.5893
    57.6740  57.6740  58.3518  58.3518  58.6452  58.6452  58.7766  58.7766
    58.8499  58.8499  58.8959  58.8959  59.2854  59.2854  59.5156  59.5156
    59.7025  59.7026  59.7513  59.7513  60.0218  60.0218  60.0279  60.0279
    60.0521  60.0521  60.1533  60.1533  60.1666  60.1666  60.2064  60.2064
    60.6142  60.6142  60.7461  60.7461  61.1708  61.1708  61.9957  61.9957
    62.8606  62.8606  63.7240  63.7241  68.1552  68.1552  68.2517  68.2517
    70.5589  70.5589  70.7607  70.7607  71.1185  71.1185  71.2746  71.2746
    72.7975  72.7975  72.9500  72.9500  74.2111  74.2111  74.9630  74.9630
    75.5327  75.5327  75.7705  75.7705  76.4781  76.4781  77.0951  77.0951
    77.2978  77.2978  77.8288  77.8288  78.8321  78.8321  78.8342  78.8342
    78.8643  78.8643  78.9515  78.9515  79.2614  79.2614  79.6869  79.6869
    79.8416  79.8416

          k = 0.0741-0.6667-0.6667 ( 12648 PWs)   bands (ev):

   -30.2852 -30.2852 -30.2852 -30.2852 -29.3425 -29.3424 -29.3424 -29.3424
   -29.1552 -29.1552 -29.1552 -29.1552 -28.4872 -28.4872 -28.4871 -28.4871
   -28.4871 -28.4871 -28.4871 -28.4871 -28.4556 -28.4556 -28.4555 -28.4555
   -28.4554 -28.4554 -28.4554 -28.4554 -28.1426 -28.1426 -28.1425 -28.1425
     1.3327   1.3327   1.3328   1.3328   1.3328   1.3328   1.3328   1.3328
     1.9937   1.9937   1.9938   1.9938   1.9938   1.9938   1.9938   1.9938
     2.0052   2.0052   2.0053   2.0053   2.1410   2.1410   2.1410   2.1410
     2.4228   2.4228   2.4228   2.4228   3.4209   3.4209   3.4210   3.4210
     4.8452   4.8452   4.8452   4.8452   4.8453   4.8453   4.8453   4.8453
     4.9179   4.9179   4.9180   4.9180   4.9180   4.9180   4.9180   4.9180
     5.3763   5.3763   5.3764   5.3764   5.7448   5.7448   5.7449   5.7449
     5.7449   5.7449   5.7449   5.7449   5.8492   5.8492   5.8492   5.8492
     6.3255   6.3255   6.3255   6.3255   6.3255   6.3255   6.3255   6.3255
     6.5480   6.5480   6.5480   6.5480   6.7027   6.7027   6.7027   6.7027
     6.8710   6.8710   6.8711   6.8711   6.8851   6.8851   6.8851   6.8851
     7.0588   7.0588   7.0588   7.0588   7.7793   7.7793   7.7794   7.7794
    42.1004  42.1004  42.1004  42.1004  43.3310  43.3310  43.3310  43.3310
    43.3310  43.3310  43.3310  43.3310  43.8217  43.8217  43.8217  43.8217
    43.8217  43.8217  43.8217  43.8217  44.5247  44.5247  44.5248  44.5248
    44.6535  44.6535  44.6535  44.6535  45.4578  45.4578  45.4578  45.4578
    45.4578  45.4578  45.4578  45.4578  45.9030  45.9030  45.9030  45.9030
    46.2171  46.2171  46.2171  46.2171  46.2171  46.2171  46.2171  46.2171
    47.2876  47.2876  47.2876  47.2876  48.1190  48.1190  48.1190  48.1190
    48.6717  48.6717  48.6717  48.6717  48.6924  48.6924  48.6924  48.6924
    50.6695  50.6695  50.6696  50.6696  50.7781  50.7781  50.7781  50.7781
    51.2084  51.2084  51.2084  51.2084  51.2782  51.2783  51.2783  51.2783
    52.2479  52.2479  52.2479  52.2479  52.3052  52.3052  52.3052  52.3052
    52.3052  52.3052  52.3052  52.3052  52.5013  52.5013  52.5013  52.5013
    52.8710  52.8710  52.8710  52.8710  52.8710  52.8710  52.8710  52.8710
    53.2878  53.2878  53.2878  53.2878  53.2878  53.2878  53.2879  53.2879
    53.4403  53.4404  53.4404  53.4404  54.4892  54.4892  54.4892  54.4892
    56.4301  56.4302  56.4302  56.4302  57.4193  57.4193  57.4194  57.4194
    58.3658  58.3658  58.3658  58.3658  58.3658  58.3658  58.3658  58.3658
    59.5293  59.5293  59.5293  59.5293  59.6986  59.6986  59.6986  59.6986
    59.6986  59.6986  59.6987  59.6987  60.1591  60.1591  60.1591  60.1591
    60.2008  60.2008  60.2008  60.2008  60.2009  60.2009  60.2009  60.2009
    60.2874  60.2874  60.2874  60.2874  61.1195  61.1195  61.1195  61.1195
    62.9903  62.9903  62.9903  62.9903  69.7543  69.7543  69.7543  69.7543
    69.7543  69.7543  69.7543  69.7543  71.8710  71.8710  71.8710  71.8710
    71.8710  71.8710  71.8710  71.8710  74.7504  74.7504  74.7504  74.7504
    75.5632  75.5632  75.5632  75.5632  76.3834  76.3834  76.3834  76.3834
    78.3816  78.3816  78.3816  78.3816  78.5300  78.5300  78.5300  78.5300
    78.9811  78.9811  78.9811  78.9811  78.9811  78.9811  78.9811  78.9811
    79.7166  79.7166

          k = 0.2222 0.2222 0.2222 ( 12749 PWs)   bands (ev):

   -30.8841 -29.9571 -29.9570 -29.9570 -29.3038 -29.3037 -29.3037 -29.2267
   -29.2266 -29.2266 -28.9890 -28.8122 -28.8120 -28.8120 -28.8120 -28.8120
   -28.8120 -28.7767 -28.7765 -28.7765 -28.5153 -28.5152 -28.5152 -28.1416
   -28.1414 -28.1414 -28.1224 -28.1223 -28.1223 -28.1222 -28.1222 -28.1222
     0.5802   0.5802   0.5802   0.8522   1.1884   1.1884   1.1884   1.9902
     1.9903   1.9903   2.1880   2.1880   2.1880   2.1880   2.1881   2.1881
     2.3257   2.3257   2.3257   2.3257   2.3257   2.3257   2.8399   2.8399
     2.8399   3.2292   3.2292   3.2292   3.4456   3.4456   3.4456   3.4456
     3.4456   3.4456   4.0278   4.0278   4.0278   4.8100   4.8100   4.8100
     4.8724   4.8724   4.8724   4.8724   4.8724   4.8724   5.0503   5.0503
     5.0503   5.2784   5.2784   5.2784   5.2784   5.2784   5.2784   5.3914
     5.3914   5.3915   5.7255   5.7255   5.7255   6.1418   6.1419   6.1419
     6.2506   6.2506   6.2506   6.6315   6.6315   6.6315   6.6604   6.6605
     6.6605   6.7896   6.7896   6.7896   6.7897   6.7897   6.7897   6.9028
     6.9028   6.9028   6.9208   6.9208   6.9209   6.9657   6.9658   6.9658
     7.0897   7.0897   7.3284   7.3284   7.3285   7.4005   7.9032   7.9032
    40.6942  40.6942  40.6943  41.4772  41.4772  41.4772  43.2581  43.4629
    43.4629  43.4629  43.5836  43.5836  43.5836  43.9531  43.9531  43.9532
    43.9532  43.9532  43.9532  44.8321  44.8321  44.8321  44.8614  44.8614
    44.8614  45.3594  45.3594  45.3594  46.4868  46.4868  46.4868  46.5810
    46.5810  46.5810  46.5810  46.5810  46.5810  46.7467  46.7467  46.7467
    46.7467  46.7467  46.7467  46.8501  46.8501  46.8501  46.8501  46.8501
    46.8501  46.9885  47.9158  47.9158  47.9158  48.0111  48.0111  48.0111
    48.2836  48.2836  48.2836  48.7659  48.7660  48.7660  48.8666  48.8666
    48.8717  49.2600  49.2600  49.2600  49.4422  49.4422  50.4423  50.4423
    50.4423  50.4423  50.4423  50.4423  50.8393  50.8393  50.8393  50.8393
    50.8393  50.8393  51.3577  51.3577  51.3577  51.5934  51.5934  51.5934
    51.7999  51.7999  51.7999  52.2554  52.2554  52.2554  52.5116  52.5116
    52.5116  52.6977  52.6977  52.6978  53.6687  53.6687  53.6687  53.6687
    53.6687  53.6687  54.2901  54.2901  54.2902  54.4525  54.4526  54.4526
    55.1309  55.1309  55.1309  55.1839  55.1839  55.1839  55.1839  55.1839
    55.1839  55.5289  55.5289  56.1205  56.1205  56.1205  56.8888  56.8889
    56.8889  56.8889  56.8889  56.8889  57.3088  57.3088  57.3088  57.6221
    57.6222  57.6222  57.6413  57.6413  57.6413  59.4060  59.4060  59.4060
    60.0007  60.0007  60.0008  60.1266  60.1266  60.2938  60.2938  60.2938
    60.8114  60.8169  60.8169  60.8169  61.1340  61.1340  61.1341  61.8012
    61.8012  61.8012  61.8013  61.8013  61.8013  62.1930  62.1930  62.1930
    64.7153  64.7153  64.7153  65.1610  65.1610  65.1610  68.8151  68.8151
    68.8151  68.8151  68.8151  68.8151  69.9154  69.9154  69.9154  71.2539
    71.2539  71.2539  72.9393  73.8679  74.6702  74.6702  74.6702  77.4881
    77.4881  77.4881  77.4881  77.4881  77.4881  78.2405  78.2405  78.2405
    78.5418  78.5418  78.5418  78.5418  78.5418  78.5418  79.4964  79.4964
    79.4964  80.0823  80.0823  80.0823  80.0823  80.0824  80.0824  80.6963
    80.6963  80.6963

          k = 0.2222 0.2222 0.3704 ( 12736 PWs)   bands (ev):

   -30.8087 -30.1785 -29.9028 -29.9027 -29.4570 -29.4569 -29.2762 -29.1914
   -29.1913 -29.0595 -28.9850 -28.9073 -28.9072 -28.8075 -28.8074 -28.7812
   -28.7811 -28.7129 -28.6541 -28.6541 -28.5359 -28.4228 -28.4228 -28.2374
   -28.1812 -28.1812 -28.1548 -28.1547 -28.1390 -28.1390 -28.1248 -28.1247
     0.6485   0.7304   0.7304   1.0904   1.2829   1.2829   1.3579   1.6384
     1.8793   1.8793   2.0145   2.0146   2.0661   2.0661   2.0816   2.0816
     2.2078   2.2078   2.3005   2.3005   2.3372   2.3373   2.5028   2.7486
     3.0891   3.0892   3.1486   3.1486   3.3769   3.3770   3.6342   3.6342
     3.7478   3.7478   3.7869   3.7869   4.4919   4.5351   4.5351   4.5983
     4.5983   4.8534   4.8534   5.1404   5.1592   5.1592   5.2128   5.2129
     5.3097   5.3098   5.3396   5.4173   5.4173   5.4446   5.4446   5.4613
     5.5077   5.5077   5.8844   5.9995   5.9995   6.0264   6.0461   6.0502
     6.0502   6.3245   6.3245   6.3332   6.4765   6.4765   6.5165   6.5166
     6.5229   6.5229   6.6550   6.7470   6.7471   6.7954   6.7955   6.8327
     6.8327   6.8416   6.8582   6.8582   7.0323   7.0914   7.0914   7.1119
     7.1413   7.1469   7.2244   7.3092   7.3933   7.3933   7.8171   7.8807
    40.9377  40.9377  40.9924  41.6637  41.9987  41.9987  42.9107  43.3008
    43.3008  43.4563  43.7085  43.7085  43.8399  43.8399  43.8788  43.8788
    43.9071  43.9422  44.2038  44.2038  44.4032  44.4032  44.9000  45.2676
    45.2676  45.4919  45.4920  45.6131  45.6131  45.6994  45.9745  45.9745
    45.9793  45.9793  46.0254  46.1920  46.1920  46.3720  46.3720  46.6741
    46.6741  46.7613  46.7613  46.8983  46.8983  47.0757  47.0757  47.1415
    47.1415  47.1863  47.6383  47.8139  47.8139  48.0021  48.3419  48.3419
    48.5190  48.6028  48.6430  48.6430  48.7284  48.8708  48.8708  48.9520
    48.9862  49.5811  49.5811  49.6311  49.6763  49.6868  50.0529  50.0529
    50.1926  50.1926  50.5750  50.5750  50.6788  50.9203  50.9203  50.9392
    50.9393  51.0306  51.0571  51.0572  51.0644  51.0644  51.5118  51.5119
    51.7614  52.0352  52.1184  52.1184  52.3227  52.3227  52.3475  52.3475
    52.7959  53.1775  53.1775  53.2122  53.2122  53.3021  53.4019  53.4019
    54.0661  54.0662  54.2788  54.2788  54.3361  54.3361  54.8781  54.8781
    54.9448  55.0180  55.0180  55.0925  55.2820  55.3411  55.3411  55.5563
    55.6960  56.0310  56.0310  56.0735  56.4089  56.4090  56.6343  56.6343
    56.6986  57.1247  57.2981  57.2982  57.8486  57.8486  57.9170  57.9170
    57.9598  57.9598  58.0965  58.1009  58.1009  58.8163  58.8163  58.9487
    59.3313  59.3719  59.3720  59.4716  59.6443  59.6592  59.6592  60.0124
    60.9107  61.0390  61.0390  61.1834  61.1834  61.2123  61.2124  61.3788
    61.8164  61.8164  61.9470  61.9522  61.9522  62.0877  62.0877  62.5541
    63.3025  63.3025  64.3336  65.6867  65.6867  66.6593  67.6458  67.6459
    68.4594  68.4594  68.8980  70.1660  70.1660  70.9287  71.1912  71.1912
    71.9396  71.9396  73.0432  74.5665  75.0710  75.0710  75.7623  76.0758
    76.0758  76.5235  76.5235  76.6278  76.6278  76.8203  77.9841  77.9841
    78.4803  78.4803  78.5930  78.5930  78.8477  78.8477  79.0276  79.0277
    79.1264  79.1264  79.5968  79.6813  79.6813  79.8367  79.9642  79.9642
    80.4075  80.5906

          k = 0.2222 0.2222 0.5185 ( 12743 PWs)   bands (ev):

   -30.6977 -30.3789 -29.8232 -29.8231 -29.5972 -29.5971 -29.2363 -29.1399
   -29.1398 -29.1258 -28.9955 -28.9954 -28.8014 -28.8013 -28.7874 -28.7873
   -28.7573 -28.6559 -28.5665 -28.5075 -28.5075 -28.3761 -28.3384 -28.3383
   -28.2671 -28.2671 -28.2025 -28.2024 -28.1357 -28.1356 -28.1281 -28.1280
     0.7956   0.9483   0.9483   1.3025   1.3905   1.4222   1.4222   1.5430
     1.5430   1.6064   1.8200   1.8200   2.0343   2.0343   2.0763   2.0763
     2.1062   2.1062   2.1201   2.2434   2.2434   2.3109   2.5157   2.5157
     2.9092   2.9092   3.3674   3.3674   3.4878   3.4878   3.5859   3.5859
     3.8524   3.8524   4.0546   4.0546   4.2014   4.2014   4.3361   4.3362
     4.6172   4.6172   4.9892   5.2724   5.3484   5.3485   5.4126   5.4127
     5.4312   5.4312   5.5645   5.5910   5.5910   5.6494   5.6738   5.6739
     5.7716   5.7716   5.8483   5.8605   5.8875   5.8875   5.9334   6.2349
     6.2349   6.2555   6.2555   6.2733   6.2734   6.2749   6.2749   6.3501
     6.4399   6.4400   6.6672   6.6672   6.6801   6.6801   6.6890   6.7478
     6.7839   6.8041   6.8042   6.8320   6.8320   6.8796   7.1986   7.2315
     7.2316   7.2806   7.3479   7.3957   7.3957   7.4564   7.6924   7.7946
    41.3454  41.3454  41.4137  41.9618  42.3990  42.5786  42.5786  42.7041
    42.7041  43.0746  43.8129  43.8543  43.8543  44.0905  44.0905  44.0995
    44.0995  44.2188  44.2188  44.3536  44.5413  44.5413  44.5705  44.5705
    44.8988  44.9584  45.2460  45.2460  45.3069  45.3069  45.5926  45.5926
    45.6894  45.6894  45.8170  45.8170  46.1761  46.1761  46.6570  46.7200
    46.7200  46.7684  46.7684  46.9601  46.9601  47.0879  47.0879  47.3357
    47.3442  47.4461  47.5740  47.5740  47.6338  47.6338  48.4962  48.6157
    48.6158  48.7003  48.7364  48.9275  48.9275  48.9365  49.0478  49.0478
    49.2313  50.0224  50.0224  50.0481  50.0852  50.0898  50.0898  50.1107
    50.1297  50.2516  50.2516  50.3068  50.3068  50.3151  50.3151  50.4522
    50.4522  50.8233  51.0282  51.0282  51.0322  51.0322  51.0940  51.3004
    51.3004  51.3402  52.0227  52.0228  52.1788  52.1788  52.2140  52.2140
    53.5064  53.5065  53.7895  53.7895  53.7990  53.9473  53.9474  54.2108
    54.3597  54.3598  54.5557  54.5786  54.7344  54.7344  54.7389  54.7390
    54.8023  54.8023  54.9013  54.9013  55.4031  55.4031  55.5377  55.5377
    55.7555  55.9436  56.0641  56.0641  56.3268  56.6640  56.6726  57.0145
    57.0404  57.0405  57.2447  57.2447  57.4536  57.8544  57.8545  58.3971
    58.7358  58.7358  58.7565  58.7566  58.7589  58.7742  58.9266  58.9266
    58.9485  58.9597  58.9597  58.9835  58.9835  59.1895  59.1895  60.4069
    60.4069  60.4321  60.4589  60.4589  60.5805  60.5805  60.5940  61.5858
    61.8449  61.8450  61.8872  61.8872  61.9757  61.9758  62.2517  63.3894
    63.3894  63.7769  64.2954  66.3135  66.3135  66.4240  66.4240  67.5489
    67.9168  67.9168  68.0796  70.3025  71.5570  71.5570  72.6433  72.6433
    72.7568  72.7568  73.5134  74.5363  74.5363  75.0621  75.0621  75.4622
    75.4673  75.4673  75.5641  75.6875  75.6875  76.9641  77.6062  77.6062
    77.9951  77.9951  78.2110  78.4518  78.4518  78.6980  78.6980  78.8660
    78.8660  79.0071  79.4788  79.4788  79.8017  79.8017  80.0733  80.0733
    80.5100  80.6649

          k = 0.2222 0.2222-0.6667 ( 12740 PWs)   bands (ev):

   -30.5533 -30.5533 -29.7204 -29.7204 -29.7204 -29.7203 -29.1855 -29.1855
   -29.0739 -29.0739 -29.0738 -29.0738 -28.7944 -28.7944 -28.7943 -28.7943
   -28.6068 -28.6068 -28.5518 -28.5518 -28.3771 -28.3771 -28.3771 -28.3771
   -28.2642 -28.2642 -28.2642 -28.2642 -28.1319 -28.1319 -28.1318 -28.1318
     1.0164   1.0164   1.2242   1.2243   1.2243   1.2243   1.6028   1.6028
     1.6028   1.6028   1.7400   1.7400   1.9269   1.9269   2.0443   2.0443
     2.0444   2.0444   2.1605   2.1605   2.1605   2.1605   2.7116   2.7116
     2.7116   2.7116   3.4401   3.4401   3.4401   3.4401   3.8444   3.8444
     3.8444   3.8444   4.0872   4.0872   4.0872   4.0872   4.3480   4.3480
     4.3481   4.3481   5.3861   5.3861   5.3862   5.3862   5.4436   5.4436
     5.4788   5.4788   5.6774   5.6774   5.6774   5.6774   5.6986   5.6986
     5.9447   5.9447   5.9447   5.9447   5.9556   5.9556   5.9557   5.9557
     6.0350   6.0350   6.0350   6.0350   6.3223   6.3223   6.4850   6.4850
     6.4850   6.4850   6.5604   6.5604   6.5605   6.5605   6.6453   6.6453
     6.7326   6.7326   6.8157   6.8157   6.8158   6.8158   7.2435   7.2435
     7.3388   7.3389   7.3389   7.3389   7.5341   7.5341   7.6503   7.6503
    41.9031  41.9031  41.9043  41.9043  41.9043  41.9043  42.4164  42.4164
    43.5615  43.5615  43.5615  43.5615  43.9201  43.9201  43.9201  43.9201
    44.3194  44.3194  44.6073  44.6073  44.6073  44.6073  44.7123  44.7123
    44.7123  44.7123  44.7149  44.7149  45.0403  45.0403  45.0403  45.0403
    45.9311  45.9311  45.9311  45.9311  46.4342  46.4342  46.4342  46.4342
    46.7560  46.7560  46.7560  46.7560  47.1667  47.1667  47.2257  47.2258
    47.3224  47.3224  47.3225  47.3225  48.1552  48.1552  48.1552  48.1552
    48.5290  48.5290  48.8440  48.8440  49.4425  49.4425  49.4425  49.4425
    49.5994  49.5994  49.8247  49.8247  49.8247  49.8247  50.1372  50.1372
    50.1372  50.1372  50.5199  50.5199  50.5463  50.5463  50.5463  50.5463
    50.5876  50.5876  50.6871  50.6871  51.1268  51.1268  51.1268  51.1269
    51.1533  51.1533  51.1533  51.1533  52.0644  52.0644  52.0644  52.0644
    54.1365  54.1365  54.3183  54.3183  54.3183  54.3183  54.4428  54.4428
    54.4428  54.4428  54.5755  54.5755  54.5755  54.5755  54.7884  54.7884
    55.2697  55.2697  55.2697  55.2697  55.4661  55.4661  55.4661  55.4661
    55.5961  55.5961  55.5961  55.5961  55.9817  55.9817  56.2681  56.2681
    57.3794  57.3794  57.7620  57.7620  57.9230  57.9230  58.0574  58.0575
    58.0575  58.0575  58.4473  58.4473  58.4474  58.4474  59.5687  59.5687
    59.5687  59.5687  59.6259  59.6259  59.6259  59.6259  59.7545  59.7545
    59.8420  59.8420  59.8420  59.8420  60.4991  60.4991  60.4991  60.4991
    61.1269  61.1269  61.8949  61.8949  61.8950  61.8950  63.0699  63.0699
    64.8733  64.8733  64.8733  64.8733  65.9841  65.9841  67.2126  67.2126
    67.2126  67.2126  69.3315  69.3315  73.0141  73.0141  73.0141  73.0141
    73.7896  73.7896  73.7896  73.7896  74.1059  74.1059  74.1059  74.1059
    74.3333  74.3333  76.5335  76.5335  76.5335  76.5335  76.8065  76.8065
    78.1057  78.1057  78.2908  78.2908  78.2908  78.2908  78.5117  78.5117
    78.5117  78.5117  80.3223  80.3223  80.3223  80.3223  80.3567  80.3567
    80.3567  80.3568

          k = 0.2222 0.3704 0.3704 ( 12733 PWs)   bands (ev):

   -30.7350 -30.1190 -30.1189 -29.8506 -29.6271 -29.4228 -29.4228 -29.1585
   -29.1500 -28.9565 -28.9564 -28.8952 -28.8952 -28.8071 -28.7293 -28.7292
   -28.6958 -28.6957 -28.6575 -28.6575 -28.4519 -28.4519 -28.3518 -28.2319
   -28.2318 -28.2103 -28.2102 -28.1922 -28.1922 -28.1490 -28.1490 -28.1394
     0.7670   0.7670   0.8999   1.3527   1.3740   1.4313   1.4313   1.6597
     1.6597   1.7943   1.7943   2.0221   2.0221   2.0513   2.0513   2.0518
     2.0973   2.0973   2.0978   2.0978   2.1703   2.1704   2.6589   2.6589
     2.8130   2.8130   2.9230   3.5027   3.5798   3.5798   3.5810   3.6866
     3.6866   3.9148   3.9148   4.2458   4.2727   4.2728   4.6202   4.8842
     4.8843   4.9251   4.9251   4.9567   4.9568   5.0344   5.0344   5.4471
     5.4471   5.4488   5.4488   5.4893   5.4893   5.5058   5.5409   5.5409
     5.6305   5.6305   5.7820   5.7820   6.0822   6.1013   6.1013   6.1715
     6.1716   6.2658   6.2719   6.2719   6.3215   6.3701   6.4643   6.4644
     6.4730   6.5077   6.5077   6.5457   6.5457   6.7447   6.7447   6.7644
     6.7644   6.7902   6.8012   6.9536   7.0413   7.0667   7.0667   7.0942
     7.1527   7.3363   7.3364   7.3656   7.3656   7.5032   7.7544   7.8739
    41.0731  41.2232  41.2233  42.1895  42.1895  42.5967  43.1595  43.1595
    43.1721  43.1722  43.5702  43.5702  43.6066  43.8190  43.8738  43.9868
    44.1266  44.1266  44.1618  44.1618  44.3389  44.3389  44.5298  44.5298
    45.4541  45.4684  45.4685  45.5776  45.5776  45.6320  45.6320  45.7096
    45.7096  45.7412  45.9532  45.9532  46.0801  46.0801  46.2041  46.2041
    46.3793  46.4475  46.4475  46.5934  46.5935  47.0394  47.0394  47.1847
    47.2047  47.2047  47.4142  47.4143  47.7404  48.1110  48.1110  48.8404
    48.8488  48.8488  48.8808  48.9203  48.9730  48.9769  49.0274  49.0274
    49.2172  49.7095  49.8834  49.9616  50.0078  50.0079  50.1340  50.1340
    50.5702  50.5702  50.6280  50.6744  50.6744  50.7197  50.7197  50.8122
    50.8122  50.9544  50.9544  51.1983  51.6177  51.6177  51.6845  51.8568
    51.8568  51.9280  51.9783  52.3348  52.3348  52.3822  52.3823  52.5752
    52.5752  52.8201  52.8201  53.0275  53.2672  53.2672  53.5881  53.5881
    53.5998  53.6747  54.0372  54.3661  54.3661  54.8515  54.8515  54.9766
    55.0071  55.0072  55.2858  55.2858  55.3311  55.3311  55.6109  55.6940
    55.7560  55.7560  55.8176  55.8176  55.8348  55.8348  56.2164  56.2164
    57.3272  57.3533  57.3534  57.8997  57.9603  58.0945  58.0945  58.2242
[...]
    66.9056  66.9056  66.9056  66.9056  70.1025  70.1025  70.1026  70.1026
    70.1026  70.1026  70.1026  70.1026  71.5297  71.5297  71.5297  71.5297
    71.5297  71.5297  71.5297  71.5297  73.9932  73.9932  73.9932  73.9932
    74.6323  74.6323  74.6323  74.6323  76.3724  76.3724  76.3724  76.3724
    77.8014  77.8014  77.8014  77.8014  78.3425  78.3425  78.3425  78.3425
    78.7984  78.7984  78.7985  78.7985  78.7985  78.7985  78.7985  78.7985
    80.1308  80.1308

          k = 0.5185 0.5185 0.5185 ( 12709 PWs)   bands (ev):

   -30.3554 -30.0731 -30.0730 -30.0730 -29.8239 -29.8238 -29.8238 -29.6104
   -28.6666 -28.6665 -28.6665 -28.6070 -28.6069 -28.6069 -28.6068 -28.6068
   -28.6068 -28.5947 -28.5946 -28.5946 -28.3740 -28.3739 -28.3739 -28.3443
   -28.3441 -28.3441 -28.3346 -28.3345 -28.3345 -28.3344 -28.3344 -28.3344
     1.3068   1.3068   1.3069   1.5550   1.5551   1.5551   1.7170   1.7170
     1.7170   1.7170   1.7171   1.7171   1.7296   1.7296   1.7296   1.7425
     1.7425   1.7425   1.7425   1.7425   1.7425   1.9947   1.9947   1.9947
     2.7215   3.5513   3.5513   3.5513   4.3255   4.3255   4.3255   4.3256
     4.3256   4.3256   4.3876   4.3876   4.3876   4.3996   4.3996   4.3996
     4.5821   4.5822   4.5822   5.1596   5.1596   5.1597   5.1597   5.1597
     5.1597   5.2850   5.2931   5.2931   5.2931   5.3980   5.3981   5.3981
     5.8231   5.8231   5.8232   5.9449   5.9449   5.9449   5.9450   5.9450
     5.9450   6.0817   6.0817   6.0817   6.2277   6.2277   6.2277   6.2328
     6.2329   6.2329   6.2329   6.2329   6.2330   6.4186   6.4186   6.4186
     7.1359   7.1359   7.1359   7.3263   7.3263   7.3578   7.3578   7.3578
     7.5240   7.5240   7.5240   7.5259   7.5260   7.5260   7.6476   7.6476
    42.1894  42.1894  42.1894  43.0536  43.0536  43.0537  43.0537  43.0537
    43.0537  43.1291  43.1291  43.1291  43.4718  43.4718  43.4718  43.8980
    43.8980  43.8980  43.8980  43.8980  43.8980  44.0665  44.0665  44.0665
    44.4018  44.6052  44.6052  44.6052  45.1875  45.1875  45.1875  45.4787
    45.4787  45.4787  45.6935  45.6935  45.6935  46.1745  46.2399  46.2399
    46.2400  46.2400  46.2400  46.2400  46.6912  46.6912  46.6912  46.6912
    46.6912  46.6912  47.2580  47.2580  47.2580  47.4500  47.4500  47.4500
    49.7037  49.7037  49.8999  49.8999  49.8999  49.9724  49.9724  49.9724
    50.1183  50.1183  50.1183  50.1842  50.1842  50.5264  50.5264  50.5264
    51.3687  51.8228  51.8228  51.8228  51.8229  51.8229  51.8229  51.8702
    51.8702  51.8703  51.8863  51.8863  51.8863  52.7455  52.7455  52.7455
    52.7456  52.7456  52.7456  52.7465  52.7465  52.7465  53.0374  53.0374
    53.0374  53.3003  53.3003  53.3004  53.5363  53.5363  53.5363  53.6339
    53.6339  53.6339  53.8342  53.8342  53.8343  53.8343  53.8343  53.8343
    54.3318  54.3318  54.3318  55.0711  55.0711  55.0711  55.1257  55.1257
    55.1257  55.1257  55.1257  55.1257  55.2515  55.2515  55.2542  55.2542
    55.2542  55.6717  55.6717  55.6717  55.9415  55.9415  55.9416  56.3263
    56.6383  56.6383  56.6384  57.2327  57.2327  58.3878  58.3878  58.3878
    60.6545  60.6545  60.6545  61.0183  61.0183  61.0183  61.0184  61.0184
    61.0184  61.0859  61.0859  61.0859  61.0859  61.0859  61.0860  61.3638
    61.3638  61.3638  61.4887  61.4887  61.4887  61.7165  61.7165  61.7165
    67.6986  67.6986  67.6986  69.3715  69.3715  69.3715  69.4089  69.4089
    69.4089  69.4089  69.4089  69.4089  71.4528  71.4528  71.4528  72.5187
    72.5187  72.5187  72.9941  72.9941  72.9941  72.9941  72.9941  72.9941
    73.6985  75.0443  75.0443  75.0443  75.9280  75.9280  75.9280  76.1499
    78.3506  78.3507  78.3507  78.3773  78.3773  78.3773  78.3773  78.3773
    78.3773  78.6541  78.6541  78.6541  78.9690  78.9690  78.9690  79.2851
    79.2851  79.2851

          k = 0.5185 0.5185-0.6667 ( 12742 PWs)   bands (ev):

   -30.2273 -30.2273 -29.9598 -29.9598 -29.9598 -29.9598 -29.7266 -29.7266
   -28.6389 -28.6389 -28.6389 -28.6389 -28.6008 -28.6008 -28.6007 -28.6007
   -28.4923 -28.4923 -28.4747 -28.4747 -28.4593 -28.4593 -28.4593 -28.4593
   -28.3520 -28.3520 -28.3520 -28.3520 -28.3394 -28.3394 -28.3393 -28.3393
     1.3929   1.3929   1.5021   1.5021   1.5021   1.5021   1.6475   1.6475
     1.6475   1.6475   1.6985   1.6985   1.6985   1.6985   1.7376   1.7376
     1.7376   1.7376   1.8375   1.8375   1.8548   1.8548   1.8548   1.8548
     3.1308   3.1308   3.9751   3.9751   3.9751   3.9751   4.3368   4.3368
     4.3368   4.3368   4.4399   4.4399   4.4400   4.4400   4.7409   4.7409
     4.7409   4.7409   4.8478   4.8478   4.8989   4.8989   4.9188   4.9188
     5.2360   5.2360   5.2360   5.2361   5.2907   5.2907   5.2908   5.2908
     5.8962   5.8962   5.8962   5.8962   5.9404   5.9404   6.0734   6.0734
     6.0735   6.0735   6.0991   6.0991   6.0991   6.0991   6.1568   6.1568
     6.1569   6.1569   6.3148   6.3148   6.3240   6.3240   6.3240   6.3240
     7.2692   7.2692   7.2835   7.2835   7.2835   7.2835   7.4336   7.4336
     7.5146   7.5146   7.5373   7.5373   7.5374   7.5374   7.6250   7.6250
    42.5398  42.5398  42.5398  42.5398  42.6338  42.6338  43.1833  43.1833
    43.1833  43.1833  43.4335  43.4335  43.4335  43.4335  43.4619  43.4619
    43.4619  43.4619  43.7842  43.7842  43.9157  43.9157  43.9157  43.9157
    44.7265  44.7265  44.9813  44.9813  45.3934  45.3934  45.3935  45.3935
    45.4346  45.4346  45.4347  45.4347  45.9078  45.9078  46.1612  46.1612
    46.1612  46.1612  46.4327  46.4327  46.4327  46.4327  46.9163  46.9163
    46.9163  46.9163  47.0756  47.0756  47.0756  47.0756  47.3155  47.3155
    49.8532  49.8532  49.8654  49.8654  49.9593  49.9593  49.9593  49.9593
    50.0988  50.0988  50.3054  50.3054  50.3054  50.3054  50.3169  50.3170
    51.9560  51.9560  52.1496  52.1496  52.1496  52.1496  52.2529  52.2529
    52.2529  52.2529  52.5614  52.5614  52.6611  52.6611  52.6611  52.6611
    52.7932  52.7932  52.7932  52.7932  52.8506  52.8506  52.8739  52.8739
    52.8739  52.8739  52.9866  52.9866  52.9866  52.9866  53.9489  53.9489
    53.9490  53.9490  53.9894  53.9894  53.9894  53.9894  54.1074  54.1074
    54.1074  54.1074  54.3239  54.3239  54.4961  54.4961  54.4961  54.4961
    55.0000  55.0000  55.0892  55.0892  55.1312  55.1312  55.4873  55.4873
    55.4873  55.4873  55.5084  55.5084  55.5084  55.5084  55.9015  55.9015
    56.2332  56.2332  57.2734  57.2734  57.2734  57.2734  57.7550  57.7550
    60.9583  60.9583  60.9583  60.9583  61.1077  61.1077  61.1504  61.1504
    61.1504  61.1504  61.3572  61.3572  61.3572  61.3572  61.3923  61.3923
    61.3923  61.3923  61.4692  61.4692  61.4693  61.4693  61.7017  61.7017
    68.5166  68.5166  68.5166  68.5166  69.3662  69.3662  69.3662  69.3662
    69.6205  69.6205  71.1156  71.1156  71.2518  71.2518  71.2518  71.2518
    72.2662  72.2662  72.2662  72.2662  72.8201  72.8201  72.8201  72.8201
    74.2036  74.2036  75.3336  75.3336  75.3336  75.3336  75.9392  75.9392
    78.3415  78.3415  78.3415  78.3415  78.5447  78.5447  78.5447  78.5447
    78.6813  78.6813  78.6814  78.6814  78.7790  78.7790  79.0811  79.0811
    79.0811  79.0811

          k = 0.5185-0.6667-0.6667 ( 12728 PWs)   bands (ev):

   -30.1059 -30.1059 -30.1059 -30.1059 -29.8538 -29.8538 -29.8538 -29.8538
   -28.6211 -28.6210 -28.6210 -28.6210 -28.4769 -28.4769 -28.4768 -28.4768
   -28.4768 -28.4768 -28.4768 -28.4768 -28.4659 -28.4659 -28.4658 -28.4658
   -28.4658 -28.4658 -28.4658 -28.4658 -28.3447 -28.3447 -28.3446 -28.3446
     1.5393   1.5393   1.5393   1.5393   1.5393   1.5393   1.5393   1.5393
     1.6739   1.6739   1.6739   1.6739   1.6951   1.6951   1.6951   1.6951
     1.7689   1.7689   1.7689   1.7689   1.7690   1.7690   1.7690   1.7690
     3.5497   3.5497   3.5497   3.5497   4.3681   4.3681   4.3681   4.3681
     4.4137   4.4137   4.4137   4.4138   4.8154   4.8154   4.8155   4.8155
     4.8155   4.8155   4.8155   4.8155   4.8259   4.8259   4.8259   4.8259
     4.8260   4.8260   4.8260   4.8260   5.2729   5.2729   5.2729   5.2729
     6.0121   6.0121   6.0121   6.0121   6.0138   6.0138   6.0138   6.0138
     6.0138   6.0138   6.0139   6.0139   6.2007   6.2007   6.2007   6.2007
     6.2007   6.2007   6.2007   6.2007   6.2406   6.2406   6.2406   6.2406
     7.3508   7.3508   7.3509   7.3509   7.4320   7.4320   7.4320   7.4320
     7.4591   7.4591   7.4591   7.4591   7.5986   7.5986   7.5986   7.5986
    42.7781  42.7781  42.7781  42.7781  42.9656  42.9656  42.9656  42.9656
    42.9656  42.9656  42.9656  42.9656  43.5474  43.5474  43.5474  43.5474
    43.5474  43.5474  43.5474  43.5474  43.5980  43.5980  43.5980  43.5980
    44.9984  44.9984  44.9984  44.9984  45.6078  45.6078  45.6078  45.6078
    45.7480  45.7480  45.7480  45.7480  45.7480  45.7480  45.7480  45.7480
    46.2190  46.2190  46.2190  46.2190  46.7284  46.7284  46.7284  46.7284
    46.9711  46.9711  46.9711  46.9711  46.9711  46.9711  46.9711  46.9711
    49.8915  49.8915  49.8915  49.8915  50.1120  50.1120  50.1120  50.1120
    50.1711  50.1711  50.1711  50.1711  50.1825  50.1825  50.1825  50.1825
    52.4959  52.4959  52.4959  52.4959  52.4959  52.4959  52.4959  52.4959
    52.7082  52.7082  52.7082  52.7082  52.7328  52.7328  52.7328  52.7328
    53.0366  53.0366  53.0366  53.0366  53.2982  53.2982  53.2982  53.2982
    53.2982  53.2982  53.2982  53.2982  53.4686  53.4686  53.4686  53.4686
    53.4686  53.4686  53.4686  53.4686  53.5739  53.5739  53.5739  53.5739
    54.0474  54.0474  54.0474  54.0474  54.5601  54.5601  54.5601  54.5601
    54.7447  54.7447  54.7447  54.7447  54.7448  54.7448  54.7448  54.7448
    55.1111  55.1111  55.1111  55.1111  56.3601  56.3602  56.3602  56.3602
    56.3610  56.3610  56.3610  56.3610  56.8481  56.8481  56.8481  56.8481
    61.2606  61.2606  61.2607  61.2607  61.2607  61.2607  61.2607  61.2607
    61.3016  61.3016  61.3016  61.3016  61.5338  61.5338  61.5339  61.5339
    61.5339  61.5339  61.5339  61.5339  61.5466  61.5466  61.5466  61.5466
    68.8908  68.8908  68.8908  68.8908  70.4365  70.4365  70.4365  70.4365
    70.4366  70.4366  70.4366  70.4366  71.2101  71.2101  71.2101  71.2101
    71.2101  71.2101  71.2101  71.2101  72.6069  72.6069  72.6069  72.6069
    74.6049  74.6049  74.6049  74.6049  75.5003  75.5003  75.5003  75.5003
    78.2713  78.2713  78.2713  78.2713  78.7610  78.7610  78.7610  78.7610
    78.7610  78.7610  78.7610  78.7610  79.0437  79.0437  79.0437  79.0437
    79.3918  79.3918

          k =-0.6667-0.6667-0.6667 ( 12712 PWs)   bands (ev):

   -29.9914 -29.9914 -29.9913 -29.9913 -29.9913 -29.9913 -29.9913 -29.9913
   -28.4716 -28.4716 -28.4714 -28.4714 -28.4714 -28.4713 -28.4713 -28.4713
   -28.4713 -28.4713 -28.4713 -28.4713 -28.4713 -28.4713 -28.4713 -28.4713
   -28.4713 -28.4713 -28.4713 -28.4713 -28.4713 -28.4713 -28.4713 -28.4713
     1.6527   1.6527   1.6527   1.6527   1.6527   1.6527   1.6528   1.6528
     1.6528   1.6528   1.6528   1.6528   1.6528   1.6528   1.6528   1.6528
     1.6528   1.6528   1.6528   1.6528   1.6528   1.6528   1.6528   1.6528
     3.9813   3.9813   3.9813   3.9813   3.9813   3.9813   3.9813   3.9813
     4.8136   4.8136   4.8136   4.8137   4.8137   4.8137   4.8137   4.8138
     4.8138   4.8138   4.8138   4.8138   4.8138   4.8138   4.8138   4.8138
     4.8138   4.8138   4.8138   4.8138   4.8138   4.8138   4.8138   4.8138
     6.1160   6.1160   6.1160   6.1160   6.1160   6.1160   6.1160   6.1160
     6.1160   6.1160   6.1160   6.1161   6.1161   6.1161   6.1161   6.1161
     6.1161   6.1161   6.1161   6.1161   6.1161   6.1161   6.1161   6.1161
     7.4849   7.4849   7.4849   7.4849   7.4849   7.4849   7.4850   7.4850
     7.4850   7.4850   7.4850   7.4850   7.4850   7.4850   7.4850   7.4850
    43.1744  43.1744  43.1744  43.1744  43.1744  43.1744  43.1744  43.1744
    43.1744  43.1744  43.1744  43.1744  43.1744  43.1744  43.1744  43.1744
    43.1744  43.1744  43.1744  43.1744  43.1744  43.1744  43.1744  43.1744
    45.2464  45.2464  45.2464  45.2464  45.2464  45.2464  45.2464  45.2464
    46.4380  46.4380  46.4380  46.4380  46.4380  46.4380  46.4380  46.4380
    46.4380  46.4380  46.4380  46.4380  46.4380  46.4380  46.4380  46.4380
    46.4380  46.4380  46.4380  46.4380  46.4380  46.4380  46.4380  46.4380
    50.0998  50.0998  50.0998  50.0999  50.0999  50.0999  50.0999  50.0999
    50.0999  50.0999  50.0999  50.0999  50.0999  50.0999  50.0999  50.0999
    53.1246  53.1246  53.1246  53.1246  53.1246  53.1246  53.1247  53.1247
    53.1247  53.1247  53.1247  53.1247  53.1247  53.1247  53.1247  53.1247
    53.1247  53.1247  53.1247  53.1247  53.1247  53.1247  53.1247  53.1247
    53.7431  53.7431  53.7432  53.7432  53.7432  53.7432  53.7432  53.7432
    53.7827  53.7827  53.7827  53.7827  53.7827  53.7827  53.7827  53.7827
    53.7827  53.7827  53.7827  53.7827  53.7827  53.7827  53.7827  53.7827
    53.7827  53.7827  53.7827  53.7827  53.7827  53.7827  53.7827  53.7827
    55.9506  55.9506  55.9506  55.9506  55.9506  55.9506  55.9506  55.9506
    55.9506  55.9506  55.9506  55.9506  55.9506  55.9507  55.9507  55.9507
    61.5296  61.5296  61.5296  61.5296  61.5296  61.5296  61.5296  61.5296
    61.5296  61.5296  61.5296  61.5296  61.5296  61.5296  61.5296  61.5296
    61.5297  61.5297  61.5297  61.5297  61.5297  61.5297  61.5297  61.5297
    70.8273  70.8273  70.8273  70.8273  70.8273  70.8273  70.8273  70.8273
    70.8273  70.8273  70.8273  70.8273  70.8273  70.8273  70.8273  70.8273
    70.8273  70.8273  70.8273  70.8273  70.8273  70.8273  70.8273  70.8273
    74.8970  74.8970  74.8970  74.8970  74.8970  74.8970  74.8970  74.8970
    78.9323  78.9323  78.9323  78.9323  78.9323  78.9323  78.9323  78.9323
    78.9323  78.9323  78.9323  78.9323  78.9323  78.9323  78.9323  78.9323
    78.9323  78.9323

     the Fermi energy is    61.1738 ev

!    total energy              =  -16332.62464723 Ry

     total all-electron energy =   -322893.478354 Ry
     estimated scf accuracy    <       0.00000005 Ry
     smearing contrib. (-TS)   =       0.02164211 Ry
     internal energy E=F+TS    =  -16332.64628934 Ry

     The total energy is F=E-TS. E is the sum of the following terms:
     one-electron contribution =     979.46996484 Ry
     hartree contribution      =     706.38085337 Ry
     xc contribution           =   -1045.89835614 Ry
     ewald contribution        =   -8802.93518230 Ry
     one-center paw contrib.   =   -8169.66356911 Ry

     convergence has been achieved in  13 iterations

     Forces acting on atoms (cartesian axes, Ry/au):

     atom    1 type  1   force =     0.00000000    0.00000000    0.00000000
     atom    2 type  1   force =    -0.00001270   -0.00001270   -0.00000000
     atom    3 type  1   force =    -0.00001270    0.00000000   -0.00001270
     atom    4 type  1   force =     0.00000000   -0.00001270   -0.00001270
     atom    5 type  1   force =     0.00000000    0.00000000    0.00000000
     atom    6 type  1   force =     0.00000607    0.00000607   -0.00000000
     atom    7 type  1   force =    -0.00001270   -0.00000000    0.00001270
     atom    8 type  1   force =    -0.00000000   -0.00001270    0.00001270
     atom    9 type  1   force =     0.00000000    0.00000000    0.00000000
     atom   10 type  1   force =    -0.00001270    0.00001270   -0.00000000
     atom   11 type  1   force =     0.00000607    0.00000000    0.00000607
     atom   12 type  1   force =     0.00000000    0.00001270   -0.00001270
     atom   13 type  1   force =     0.00000000    0.00000000    0.00000000
     atom   14 type  1   force =     0.00000607   -0.00000607   -0.00000000
     atom   15 type  1   force =     0.00000607    0.00000000   -0.00000607
     atom   16 type  1   force =     0.00000000    0.00001270    0.00001270
     atom   17 type  1   force =     0.00000000    0.00000000    0.00000000
     atom   18 type  1   force =     0.00001270   -0.00001270   -0.00000000
     atom   19 type  1   force =     0.00001270    0.00000000   -0.00001270
     atom   20 type  1   force =    -0.00000000    0.00000607    0.00000607
     atom   21 type  1   force =     0.00000000    0.00000000    0.00000000
     atom   22 type  1   force =    -0.00000607    0.00000607    0.00000000
     atom   23 type  1   force =     0.00001270    0.00000000    0.00001270
     atom   24 type  1   force =    -0.00000000    0.00000607   -0.00000607
     atom   25 type  1   force =     0.00000000    0.00000000    0.00000000
     atom   26 type  1   force =     0.00001270    0.00001270    0.00000000
     atom   27 type  1   force =    -0.00000607    0.00000000    0.00000607
     atom   28 type  1   force =    -0.00000000   -0.00000607    0.00000607
     atom   29 type  1   force =     0.00000000    0.00000000    0.00000000
     atom   30 type  1   force =    -0.00000607   -0.00000607    0.00000000
     atom   31 type  1   force =    -0.00000607    0.00000000   -0.00000607
     atom   32 type  1   force =     0.00000000   -0.00000607   -0.00000607

     Total force =     0.000069     Total SCF correction =     0.000522
     SCF correction compared to forces is large: reduce conv_thr to get better values


     Computing stress (Cartesian axis) and pressure

          total   stress  (Ry/bohr**3)                   (kbar)     P=    18955.41
   0.12885624   0.00000000   0.00000000        18955.41        0.00        0.00
   0.00000000   0.12885624   0.00000000            0.00    18955.41        0.00
   0.00000000   0.00000000   0.12885624            0.00        0.00    18955.41


     Writing output data file /scratch/HcKEuQeDUOpJOfTF.save/
 
     init_run     :      5.65s CPU      6.03s WALL (       1 calls)
     electrons    :    404.88s CPU    411.45s WALL (       1 calls)
     forces       :      4.37s CPU      4.41s WALL (       1 calls)
     stress       :     12.38s CPU     12.45s WALL (       1 calls)

     Called by init_run:
     wfcinit      :      5.37s CPU      5.50s WALL (       1 calls)
     potinit      :      0.11s CPU      0.15s WALL (       1 calls)
     hinit0       :      0.04s CPU      0.20s WALL (       1 calls)

     Called by electrons:
     c_bands      :    372.01s CPU    377.76s WALL (      14 calls)
     sum_band     :     31.41s CPU     32.06s WALL (      14 calls)
     v_of_rho     :      0.07s CPU      0.09s WALL (      14 calls)
     newd         :      0.15s CPU      0.19s WALL (      14 calls)
     PAW_pot      :      1.23s CPU      1.31s WALL (      14 calls)
     mix_rho      :      0.04s CPU      0.05s WALL (      14 calls)

     Called by c_bands:
     init_us_2    :      0.93s CPU      0.97s WALL (    1085 calls)
     cegterg      :    368.18s CPU    373.82s WALL (     490 calls)

     Called by *egterg:
     cdiaghg      :     92.03s CPU     92.89s WALL (    2072 calls)
     h_psi        :    132.46s CPU    136.22s WALL (    2142 calls)
     s_psi        :     10.07s CPU     10.14s WALL (    2142 calls)
     g_psi        :      0.21s CPU      0.21s WALL (    1617 calls)

     Called by h_psi:
     h_psi:calbec :     27.52s CPU     27.78s WALL (    2142 calls)
     vloc_psi     :     94.22s CPU     97.13s WALL (    2142 calls)
     add_vuspsi   :     10.29s CPU     10.87s WALL (    2142 calls)

     General routines
     calbec       :     41.87s CPU     42.20s WALL (    2807 calls)
     fft          :      0.09s CPU      0.13s WALL (     206 calls)
     ffts         :      0.01s CPU      0.02s WALL (      28 calls)
     fftw         :    110.24s CPU    113.49s WALL ( 1049716 calls)
     interpolate  :      0.01s CPU      0.03s WALL (      14 calls)
 
     Parallel routines
     fft_scatt_xy :      5.69s CPU      5.90s WALL ( 1049950 calls)
     fft_scatt_yz :     94.86s CPU     97.64s WALL ( 1049950 calls)
 
     PWSCF        :   7m15.93s CPU   7m40.22s WALL

 
   This run was terminated on:  19: 6:42  26Nov2021            

=------------------------------------------------------------------------------=
   JOB DONE.
=------------------------------------------------------------------------------=
