
     Program PWSCF v.6.7MaX starts on 26Nov2021 at 21:13:41 

     This program is part of the open-source Quantum ESPRESSO suite
     for quantum simulation of materials; please cite
         "P. Giannozzi et al., J. Phys.:Condens. Matter 21 395502 (2009);
         "P. Giannozzi et al., J. Phys.:Condens. Matter 29 465901 (2017);
          URL http://www.quantum-espresso.org", 
     in publications or presentations arising from this work. More details at
     http://www.quantum-espresso.org/quote

     Parallel version (MPI & OpenMP), running on      72 processor cores
     Number of MPI processes:                72
     Threads/MPI process:                     1

     MPI processes distributed on     1 nodes
     R & G space division:  proc/nbgrp/npool/nimage =      72
     Reading input from fcc_11.in
Warning: card &CELL ignored
Warning: card CELL_DYNAMICS = 'BFGS', ignored
Warning: card CELL_FACTOR = 2.0, ignored
Warning: card PRESS = 0.0, ignored
Warning: card / ignored

     Current dimensions of program PWSCF are:
     Max number of different atomic species (ntypx) = 10
     Max number of k-points (npk) =  40000
     Max angular momentum in pseudopotentials (lmaxx) =  3
     file Pd.pbe-spn-kjpaw_psl.1.0.0.UPF: wavefunction(s)  4S 5S 4D renormalized

     Subspace diagonalization in iterative solution of the eigenvalue problem:
     one sub-group per band group will be used
     ELPA distributed-memory algorithm (size of sub-group:  8*  8 procs)

     Found symmetry operation: I + (  0.2500  0.2500  0.0000)
     This is a supercell, fractional translations are disabled
     Message from routine setup:
     using ibrav=0 with symmetry is DISCOURAGED, use correct ibrav instead
 
     Parallelization info
     --------------------
     sticks:   dense  smooth     PW     G-vecs:    dense   smooth      PW
     Min         195     128     34                17423     9344    1282
     Max         196     129     35                17428     9355    1289
     Sum       14053    9281   2469              1254689   673245   92469
 


     bravais-lattice index     =            0
     lattice parameter (alat)  =      14.4000  a.u.
     unit-cell volume          =    8332.9357 (a.u.)^3
     number of atoms/cell      =           32
     number of atomic types    =            1
     number of electrons       =       576.00
     number of Kohn-Sham states=          346
     kinetic-energy cutoff     =      71.0000  Ry
     charge density cutoff     =     430.0000  Ry
     scf convergence threshold =      1.0E-06
     mixing beta               =       0.1000
     number of iterations used =           10  TF        mixing
     Exchange-correlation= SLA  PW   PBX  PBC
                           (   1   4   3   4   0   0   0)

     celldm(1)=  14.400000  celldm(2)=   0.000000  celldm(3)=   0.000000
     celldm(4)=   0.000000  celldm(5)=   0.000000  celldm(6)=   0.000000

     crystal axes: (cart. coord. in units of alat)
               a(1) = (   1.407895   0.000000   0.000000 )  
               a(2) = (   0.000000   1.407895   0.000000 )  
               a(3) = (   0.000000   0.000000   1.407895 )  

     reciprocal axes: (cart. coord. in units 2 pi/alat)
               b(1) = (  0.710280  0.000000  0.000000 )  
               b(2) = (  0.000000  0.710280  0.000000 )  
               b(3) = (  0.000000  0.000000  0.710280 )  


     PseudoPot. # 1 for Pd read from file:
     /rds/homes/b/bxp912/pp/Pd.pbe-spn-kjpaw_psl.1.0.0.UPF
     MD5 check sum: 790f2ebce206edfd9790dcb9844eca51
     Pseudo is Projector augmented-wave + core cor, Zval = 18.0
     Generated using &quot;atomic&quot; code by A. Dal Corso  v.6.3
     Shape of augmentation charge: PSQ
     Using radial grid of 1235 points,  6 beta functions with: 
                l(1) =   0
                l(2) =   0
                l(3) =   1
                l(4) =   1
                l(5) =   2
                l(6) =   2
     Q(r) pseudized with 0 coefficients 


     atomic species   valence    mass     pseudopotential
        Pd            18.00   106.42000     Pd( 1.00)

     48 Sym. Ops., with inversion, found



   Cartesian axes

     site n.     atom                  positions (alat units)
         1           Pd  tau(   1) = (   0.0000000   0.0000000   0.0000000  )
         2           Pd  tau(   2) = (   0.3519737   0.3519737   0.0000000  )
         3           Pd  tau(   3) = (   0.3519737   0.0000000   0.3519737  )
         4           Pd  tau(   4) = (   0.0000000   0.3519737   0.3519737  )
         5           Pd  tau(   5) = (   0.0000000   0.0000000   0.7039474  )
         6           Pd  tau(   6) = (   0.3519737   0.3519737   0.7039474  )
         7           Pd  tau(   7) = (   0.3519737   0.0000000   1.0559211  )
         8           Pd  tau(   8) = (   0.0000000   0.3519737   1.0559211  )
         9           Pd  tau(   9) = (   0.0000000   0.7039474   0.0000000  )
        10           Pd  tau(  10) = (   0.3519737   1.0559211   0.0000000  )
        11           Pd  tau(  11) = (   0.3519737   0.7039474   0.3519737  )
        12           Pd  tau(  12) = (   0.0000000   1.0559211   0.3519737  )
        13           Pd  tau(  13) = (   0.0000000   0.7039474   0.7039474  )
        14           Pd  tau(  14) = (   0.3519737   1.0559211   0.7039474  )
        15           Pd  tau(  15) = (   0.3519737   0.7039474   1.0559211  )
        16           Pd  tau(  16) = (   0.0000000   1.0559211   1.0559211  )
        17           Pd  tau(  17) = (   0.7039474   0.0000000   0.0000000  )
        18           Pd  tau(  18) = (   1.0559211   0.3519737   0.0000000  )
        19           Pd  tau(  19) = (   1.0559211   0.0000000   0.3519737  )
        20           Pd  tau(  20) = (   0.7039474   0.3519737   0.3519737  )
        21           Pd  tau(  21) = (   0.7039474   0.0000000   0.7039474  )
        22           Pd  tau(  22) = (   1.0559211   0.3519737   0.7039474  )
        23           Pd  tau(  23) = (   1.0559211   0.0000000   1.0559211  )
        24           Pd  tau(  24) = (   0.7039474   0.3519737   1.0559211  )
        25           Pd  tau(  25) = (   0.7039474   0.7039474   0.0000000  )
        26           Pd  tau(  26) = (   1.0559211   1.0559211   0.0000000  )
        27           Pd  tau(  27) = (   1.0559211   0.7039474   0.3519737  )
        28           Pd  tau(  28) = (   0.7039474   1.0559211   0.3519737  )
        29           Pd  tau(  29) = (   0.7039474   0.7039474   0.7039474  )
        30           Pd  tau(  30) = (   1.0559211   1.0559211   0.7039474  )
        31           Pd  tau(  31) = (   1.0559211   0.7039474   1.0559211  )
        32           Pd  tau(  32) = (   0.7039474   1.0559211   1.0559211  )

     number of k points=    35  Marzari-Vanderbilt smearing, width (Ry)=  0.0400
                       cart. coord. in units 2pi/alat
        k(    1) = (   0.0394600   0.0394600   0.0394600), wk =   0.0219479
        k(    2) = (   0.0394600   0.0394600   0.1183801), wk =   0.0658436
        k(    3) = (   0.0394600   0.0394600   0.1973001), wk =   0.0658436
        k(    4) = (   0.0394600   0.0394600   0.2762201), wk =   0.0658436
        k(    5) = (   0.0394600   0.0394600  -0.3551402), wk =   0.0329218
        k(    6) = (   0.0394600   0.1183801   0.1183801), wk =   0.0658436
        k(    7) = (   0.0394600   0.1183801   0.1973001), wk =   0.1316872
        k(    8) = (   0.0394600   0.1183801   0.2762201), wk =   0.1316872
        k(    9) = (   0.0394600   0.1183801  -0.3551402), wk =   0.0658436
        k(   10) = (   0.0394600   0.1973001   0.1973001), wk =   0.0658436
        k(   11) = (   0.0394600   0.1973001   0.2762201), wk =   0.1316872
        k(   12) = (   0.0394600   0.1973001  -0.3551402), wk =   0.0658436
        k(   13) = (   0.0394600   0.2762201   0.2762201), wk =   0.0658436
        k(   14) = (   0.0394600   0.2762201  -0.3551402), wk =   0.0658436
        k(   15) = (   0.0394600  -0.3551402  -0.3551402), wk =   0.0164609
        k(   16) = (   0.1183801   0.1183801   0.1183801), wk =   0.0219479
        k(   17) = (   0.1183801   0.1183801   0.1973001), wk =   0.0658436
        k(   18) = (   0.1183801   0.1183801   0.2762201), wk =   0.0658436
        k(   19) = (   0.1183801   0.1183801  -0.3551402), wk =   0.0329218
        k(   20) = (   0.1183801   0.1973001   0.1973001), wk =   0.0658436
        k(   21) = (   0.1183801   0.1973001   0.2762201), wk =   0.1316872
        k(   22) = (   0.1183801   0.1973001  -0.3551402), wk =   0.0658436
        k(   23) = (   0.1183801   0.2762201   0.2762201), wk =   0.0658436
        k(   24) = (   0.1183801   0.2762201  -0.3551402), wk =   0.0658436
        k(   25) = (   0.1183801  -0.3551402  -0.3551402), wk =   0.0164609
        k(   26) = (   0.1973001   0.1973001   0.1973001), wk =   0.0219479
        k(   27) = (   0.1973001   0.1973001   0.2762201), wk =   0.0658436
        k(   28) = (   0.1973001   0.1973001  -0.3551402), wk =   0.0329218
        k(   29) = (   0.1973001   0.2762201   0.2762201), wk =   0.0658436
        k(   30) = (   0.1973001   0.2762201  -0.3551402), wk =   0.0658436
        k(   31) = (   0.1973001  -0.3551402  -0.3551402), wk =   0.0164609
        k(   32) = (   0.2762201   0.2762201   0.2762201), wk =   0.0219479
        k(   33) = (   0.2762201   0.2762201  -0.3551402), wk =   0.0329218
        k(   34) = (   0.2762201  -0.3551402  -0.3551402), wk =   0.0164609
        k(   35) = (  -0.3551402  -0.3551402  -0.3551402), wk =   0.0027435

     Dense  grid:  1254689 G-vectors     FFT dimensions: ( 135, 135, 135)

     Smooth grid:   673245 G-vectors     FFT dimensions: ( 120, 120, 120)

     Estimated max dynamical RAM per process >     319.59 MB

     Estimated total dynamical RAM >      22.47 GB

     Initial potential from superposition of free atoms

     starting charge  575.98776, renormalised to  576.00000
     Starting wfcs are  320 randomized atomic wfcs +   26 random wfcs
     Checking if some PAW data can be deallocated... 

     total cpu time spent up to now is       48.6 secs

     Self-consistent Calculation

     iteration #  1     ecut=    71.00 Ry     beta= 0.10
     Davidson diagonalization with overlap
     ethr =  1.00E-02,  avg # of iterations =  4.1

     total cpu time spent up to now is      151.3 secs

     total energy              =  -16381.26884256 Ry
     estimated scf accuracy    <      18.01241023 Ry

     iteration #  2     ecut=    71.00 Ry     beta= 0.10
     Davidson diagonalization with overlap
     ethr =  3.13E-03,  avg # of iterations =  1.0

     total cpu time spent up to now is      215.7 secs

     total energy              =  -16377.07109603 Ry
     estimated scf accuracy    <      11.67099783 Ry

     iteration #  3     ecut=    71.00 Ry     beta= 0.10
     Davidson diagonalization with overlap
     ethr =  2.03E-03,  avg # of iterations =  2.0

     total cpu time spent up to now is      311.4 secs

     total energy              =  -16379.10901544 Ry
     estimated scf accuracy    <       0.52143281 Ry

     iteration #  4     ecut=    71.00 Ry     beta= 0.10
     Davidson diagonalization with overlap
     ethr =  9.05E-05,  avg # of iterations =  2.4

     total cpu time spent up to now is      400.5 secs

     total energy              =  -16379.00758321 Ry
     estimated scf accuracy    <       0.28248258 Ry

     iteration #  5     ecut=    71.00 Ry     beta= 0.10
     Davidson diagonalization with overlap
     ethr =  4.90E-05,  avg # of iterations =  2.5

     total cpu time spent up to now is      543.6 secs

     total energy              =  -16379.06737637 Ry
     estimated scf accuracy    <       0.75525625 Ry

     iteration #  6     ecut=    71.00 Ry     beta= 0.10
     Davidson diagonalization with overlap
     ethr =  4.90E-05,  avg # of iterations =  1.0

     total cpu time spent up to now is      604.6 secs

     total energy              =  -16379.02854641 Ry
     estimated scf accuracy    <       0.46939358 Ry

     iteration #  7     ecut=    71.00 Ry     beta= 0.10
     Davidson diagonalization with overlap
     ethr =  4.90E-05,  avg # of iterations =  1.2

     total cpu time spent up to now is      667.8 secs

     total energy              =  -16379.03251480 Ry
     estimated scf accuracy    <       0.26717590 Ry

     iteration #  8     ecut=    71.00 Ry     beta= 0.10
     Davidson diagonalization with overlap
     ethr =  4.64E-05,  avg # of iterations =  1.0

     total cpu time spent up to now is      730.8 secs

     total energy              =  -16379.04047959 Ry
     estimated scf accuracy    <       0.26638043 Ry

     iteration #  9     ecut=    71.00 Ry     beta= 0.10
     Davidson diagonalization with overlap
     ethr =  4.62E-05,  avg # of iterations =  1.5

     total cpu time spent up to now is      790.7 secs

     total energy              =  -16379.02275128 Ry
     estimated scf accuracy    <       0.30726626 Ry

     iteration # 10     ecut=    71.00 Ry     beta= 0.10
     Davidson diagonalization with overlap
     ethr =  4.62E-05,  avg # of iterations =  1.3

     total cpu time spent up to now is      847.6 secs

     total energy              =  -16378.98638234 Ry
     estimated scf accuracy    <       0.20180795 Ry

     iteration # 11     ecut=    71.00 Ry     beta= 0.10
     Davidson diagonalization with overlap
     ethr =  3.50E-05,  avg # of iterations =  1.7

     total cpu time spent up to now is      909.6 secs

     total energy              =  -16378.99045940 Ry
     estimated scf accuracy    <       0.04946787 Ry

     iteration # 12     ecut=    71.00 Ry     beta= 0.10
     Davidson diagonalization with overlap
     ethr =  8.59E-06,  avg # of iterations =  1.7

     total cpu time spent up to now is      975.5 secs

     total energy              =  -16378.99130096 Ry
     estimated scf accuracy    <       0.02833892 Ry

     iteration # 13     ecut=    71.00 Ry     beta= 0.10
     Davidson diagonalization with overlap
     ethr =  4.92E-06,  avg # of iterations =  1.9

     total cpu time spent up to now is     1039.3 secs

     total energy              =  -16378.98948197 Ry
     estimated scf accuracy    <       0.02611788 Ry

     iteration # 14     ecut=    71.00 Ry     beta= 0.10
     Davidson diagonalization with overlap
     ethr =  4.53E-06,  avg # of iterations =  1.0

     total cpu time spent up to now is     1104.1 secs

     total energy              =  -16378.98842368 Ry
     estimated scf accuracy    <       0.01265786 Ry

     iteration # 15     ecut=    71.00 Ry     beta= 0.10
     Davidson diagonalization with overlap
     ethr =  2.20E-06,  avg # of iterations =  2.3

     total cpu time spent up to now is     1169.3 secs

     total energy              =  -16378.98881585 Ry
     estimated scf accuracy    <       0.00211376 Ry

     iteration # 16     ecut=    71.00 Ry     beta= 0.10
     Davidson diagonalization with overlap
     ethr =  3.67E-07,  avg # of iterations =  2.0

     total cpu time spent up to now is     1261.2 secs

     total energy              =  -16378.98905417 Ry
     estimated scf accuracy    <       0.00076051 Ry

     iteration # 17     ecut=    71.00 Ry     beta= 0.10
     Davidson diagonalization with overlap
     ethr =  1.32E-07,  avg # of iterations =  1.0

     total cpu time spent up to now is     1320.0 secs

     total energy              =  -16378.98882020 Ry
     estimated scf accuracy    <       0.00062606 Ry

     iteration # 18     ecut=    71.00 Ry     beta= 0.10
     Davidson diagonalization with overlap
     ethr =  1.09E-07,  avg # of iterations =  2.3

     total cpu time spent up to now is     1410.3 secs

     total energy              =  -16378.98909559 Ry
     estimated scf accuracy    <       0.00019440 Ry

     iteration # 19     ecut=    71.00 Ry     beta= 0.10
     Davidson diagonalization with overlap
     ethr =  3.38E-08,  avg # of iterations =  2.0

     total cpu time spent up to now is     1507.3 secs

     total energy              =  -16378.98913787 Ry
     estimated scf accuracy    <       0.00008694 Ry

     iteration # 20     ecut=    71.00 Ry     beta= 0.10
     Davidson diagonalization with overlap
     ethr =  1.51E-08,  avg # of iterations =  2.7

     total cpu time spent up to now is     1590.4 secs

     total energy              =  -16378.98908876 Ry
     estimated scf accuracy    <       0.00013396 Ry

     iteration # 21     ecut=    71.00 Ry     beta= 0.10
     Davidson diagonalization with overlap
     ethr =  1.51E-08,  avg # of iterations =  2.0

     total cpu time spent up to now is     1669.8 secs

     total energy              =  -16378.98912369 Ry
     estimated scf accuracy    <       0.00001908 Ry

     iteration # 22     ecut=    71.00 Ry     beta= 0.10
     Davidson diagonalization with overlap
     ethr =  3.31E-09,  avg # of iterations =  2.0

     total cpu time spent up to now is     1744.0 secs

     total energy              =  -16378.98912580 Ry
     estimated scf accuracy    <       0.00001432 Ry

     iteration # 23     ecut=    71.00 Ry     beta= 0.10
     Davidson diagonalization with overlap
     ethr =  2.49E-09,  avg # of iterations =  3.0

     total cpu time spent up to now is     1816.1 secs

     total energy              =  -16378.98912836 Ry
     estimated scf accuracy    <       0.00000264 Ry

     iteration # 24     ecut=    71.00 Ry     beta= 0.10
     Davidson diagonalization with overlap
     ethr =  4.58E-10,  avg # of iterations =  3.9

     total cpu time spent up to now is     1890.7 secs

     total energy              =  -16378.98912963 Ry
     estimated scf accuracy    <       0.00000151 Ry

     iteration # 25     ecut=    71.00 Ry     beta= 0.10
     Davidson diagonalization with overlap
     ethr =  2.63E-10,  avg # of iterations =  1.0

     total cpu time spent up to now is     1950.6 secs

     total energy              =  -16378.98913077 Ry
     estimated scf accuracy    <       0.00000107 Ry

     iteration # 26     ecut=    71.00 Ry     beta= 0.10
     Davidson diagonalization with overlap
     ethr =  1.86E-10,  avg # of iterations =  2.5

     total cpu time spent up to now is     2022.6 secs

     End of self-consistent calculation

          k = 0.0395 0.0395 0.0395 ( 84226 PWs)   bands (ev):

   -78.3141 -78.3139 -78.3139 -78.3139 -78.3138 -78.3138 -78.3138 -78.3138
   -78.3137 -78.3137 -78.3137 -78.3137 -78.3137 -78.3137 -78.3137 -78.3137
   -78.3137 -78.3136 -78.3136 -78.3136 -78.3136 -78.3136 -78.3136 -78.3136
   -78.3136 -78.3135 -78.3135 -78.3135 -78.3135 -78.3135 -78.3135 -78.3134
   -44.0842 -44.0842 -44.0842 -44.0842 -44.0839 -44.0839 -44.0839 -44.0825
   -44.0825 -44.0825 -44.0824 -44.0824 -44.0824 -44.0824 -44.0824 -44.0824
   -44.0822 -44.0822 -44.0822 -44.0822 -44.0822 -44.0822 -44.0822 -44.0821
   -44.0821 -44.0819 -44.0819 -44.0819 -44.0819 -44.0819 -44.0819 -44.0809
   -44.0809 -44.0809 -44.0807 -44.0807 -44.0807 -44.0804 -44.0804 -44.0804
   -44.0804 -44.0804 -44.0804 -44.0803 -44.0803 -44.0803 -44.0802 -44.0802
   -44.0802 -44.0801 -44.0801 -44.0801 -44.0801 -44.0801 -44.0801 -44.0800
   -44.0800 -44.0800 -44.0800 -44.0800 -44.0800 -44.0789 -44.0789 -44.0789
   -44.0789 -44.0789 -44.0789 -44.0786 -44.0786 -44.0786 -44.0786 -44.0786
   -44.0785 -44.0785 -44.0785 -44.0785 -44.0785 -44.0784 -44.0784 -44.0784
   -44.0784 -44.0784 -44.0784 -44.0784 -44.0784 -44.0784 -44.0784 -44.0784
   -44.0784 -44.0784 -44.0783 -44.0783 -44.0783 -44.0775 -44.0775 -44.0774
     1.9073   2.8762   2.8807   2.8807   2.8807   2.9342   2.9342   2.9342
     2.9354   2.9354   2.9354   2.9677   2.9677   2.9677   3.0274   3.0274
     3.0274   3.1636   3.1636   3.1636   3.1941   3.1941   3.1941   3.1941
     3.1941   3.1941   3.2020   3.2020   3.2020   3.2259   3.2259   3.2259
     3.2259   3.2259   3.2259   3.2358   3.2358   3.2358   3.2358   3.2358
     3.2358   3.3218   3.3218   3.3218   3.3218   3.3218   3.3218   3.3348
     3.3348   3.3348   3.3403   3.3403   3.3403   3.3403   3.3403   3.3403
     3.3590   3.3590   3.3590   3.4047   3.4047   3.4047   3.4047   3.4047
     3.4047   3.4062   3.4065   3.4065   3.4065   3.4097   3.4097   3.4099
     3.4099   3.4124   3.4124   3.4124   3.4926   3.4926   3.4926   3.4926
     3.4926   3.4926   3.5042   3.5042   3.5042   3.5122   3.5122   3.5122
     3.6058   3.6058   3.6058   3.6239   3.6239   3.6239   3.6289   3.6289
     3.6289   3.6291   3.6291   3.6291   3.6291   3.6291   3.6291   3.6480
     3.6480   3.6480   3.6853   3.6853   3.6853   3.6984   3.6984   3.6984
     3.7032   3.7032   3.7032   3.7117   3.7117   3.7334   3.7334   3.7334
     3.7334   3.7334   3.7334   3.7343   3.7343   3.7343   3.7343   3.7343
     3.7343   3.7541   3.7541   3.7541   3.7587   3.7587   3.7587   3.8160
     3.8160   3.8160   3.8364   3.8364   3.8365   3.9352   3.9352   3.9352
     3.9353   3.9353   3.9353   3.9378   3.9378   3.9378   3.9448   3.9448
     3.9484   3.9484   3.9484   4.0004   4.0004   4.0004   4.0048   4.0048
     4.0048   4.0048   4.0048   4.0048   4.0053   4.0053   4.0053   4.9917
     4.9917   4.9917   5.2803   5.2803   5.2803   5.2803   5.2803   5.2803
     5.5753   5.5753   5.5753   6.1585   6.4708   6.4708   6.4708   6.8576
     6.8576   6.8576   7.1673   7.4344   7.4344   7.4344   8.3704   8.3704
     8.3704   8.3704   8.3704   8.3704   8.4154   8.4154   8.4154   9.3271
     9.3271   9.3271   9.3271   9.3271   9.3271   9.6936   9.6936   9.6936
     9.6936   9.6936   9.6936  10.3034  10.3034  10.3034  10.5928  10.5928
    10.5929  10.5931

          k = 0.0395 0.0395 0.1184 ( 84208 PWs)   bands (ev):

   -78.3141 -78.3139 -78.3139 -78.3139 -78.3138 -78.3138 -78.3138 -78.3138
   -78.3137 -78.3137 -78.3137 -78.3137 -78.3137 -78.3137 -78.3137 -78.3137
   -78.3137 -78.3136 -78.3136 -78.3136 -78.3136 -78.3136 -78.3136 -78.3136
   -78.3136 -78.3135 -78.3135 -78.3135 -78.3135 -78.3135 -78.3135 -78.3134
   -44.0842 -44.0841 -44.0841 -44.0841 -44.0839 -44.0839 -44.0839 -44.0827
   -44.0826 -44.0825 -44.0825 -44.0825 -44.0825 -44.0825 -44.0825 -44.0825
   -44.0823 -44.0823 -44.0823 -44.0822 -44.0822 -44.0822 -44.0821 -44.0819
   -44.0819 -44.0819 -44.0819 -44.0818 -44.0818 -44.0816 -44.0815 -44.0815
   -44.0810 -44.0810 -44.0810 -44.0810 -44.0807 -44.0807 -44.0805 -44.0805
   -44.0804 -44.0803 -44.0802 -44.0802 -44.0802 -44.0801 -44.0801 -44.0801
   -44.0801 -44.0801 -44.0801 -44.0801 -44.0801 -44.0800 -44.0800 -44.0800
   -44.0800 -44.0799 -44.0798 -44.0798 -44.0797 -44.0791 -44.0791 -44.0789
   -44.0789 -44.0788 -44.0788 -44.0787 -44.0787 -44.0786 -44.0786 -44.0786
   -44.0786 -44.0786 -44.0785 -44.0785 -44.0785 -44.0785 -44.0785 -44.0784
   -44.0784 -44.0784 -44.0784 -44.0784 -44.0784 -44.0784 -44.0784 -44.0783
   -44.0783 -44.0783 -44.0783 -44.0782 -44.0782 -44.0776 -44.0775 -44.0775
     1.9421   2.7778   2.8836   2.8927   2.8927   2.8971   2.9433   2.9472
     2.9472   2.9543   2.9543   2.9741   2.9782   2.9782   3.0448   3.0448
     3.0583   3.1261   3.1637   3.1707   3.1707   3.1719   3.1719   3.1809
     3.1809   3.1853   3.1983   3.1983   3.2023   3.2023   3.2080   3.2080
     3.2127   3.2127   3.2185   3.2185   3.2401   3.2421   3.2421   3.2457
     3.2457   3.2468   3.2468   3.3222   3.3222   3.3224   3.3224   3.3232
     3.3232   3.3248   3.3248   3.3405   3.3405   3.3562   3.3562   3.3568
     3.3642   3.3734   3.3734   3.3990   3.3990   3.3999   3.4008   3.4036
     3.4036   3.4059   3.4059   3.4108   3.4149   3.4165   3.4171   3.4203
     3.4203   3.4222   3.4516   3.4516   3.4562   3.4562   3.4811   3.4811
     3.4907   3.4907   3.4932   3.4932   3.5360   3.5360   3.5550   3.5586
     3.5750   3.5785   3.5785   3.5845   3.5974   3.5999   3.6043   3.6043
     3.6178   3.6178   3.6298   3.6298   3.6453   3.6453   3.6460   3.6460
     3.6559   3.6559   3.6633   3.6633   3.6702   3.6843   3.6843   3.6955
     3.6955   3.7049   3.7151   3.7233   3.7233   3.7334   3.7334   3.7357
     3.7357   3.7359   3.7425   3.7497   3.7523   3.7523   3.7647   3.7647
     3.7709   3.7709   3.7805   3.7835   3.7835   3.7918   3.7918   3.7960
     3.8369   3.8369   3.8491   3.8491   3.8570   3.9153   3.9171   3.9171
     3.9259   3.9259   3.9310   3.9330   3.9350   3.9437   3.9446   3.9446
     3.9744   3.9744   3.9890   3.9926   3.9926   3.9928   3.9928   3.9948
     4.0047   4.0047   4.0048   4.0048   4.0076   4.0076   4.2098   4.7402
     4.7402   5.0163   5.0177   5.0177   5.3093   5.3093   5.6055   5.6055
     5.6075   5.8742   5.9026   5.9026   6.2036   6.2036   6.5206   6.8852
     6.9435   7.2001   7.2001   7.4898   7.4898   7.5248   8.0761   8.0761
     8.1906   8.1906   8.3303   8.3303   8.4270   8.4270   8.9674   9.0471
     9.0471   9.2653   9.2653   9.3669   9.3669   9.7298   9.7298   9.7489
     9.8358   9.8358  10.0281  10.0281  10.0446  10.0446  10.0537  10.0537
    10.3233  10.3234

          k = 0.0395 0.0395 0.1973 ( 84171 PWs)   bands (ev):

   -78.3140 -78.3140 -78.3139 -78.3139 -78.3138 -78.3138 -78.3138 -78.3138
   -78.3137 -78.3137 -78.3137 -78.3137 -78.3137 -78.3137 -78.3137 -78.3137
   -78.3137 -78.3136 -78.3136 -78.3136 -78.3136 -78.3136 -78.3136 -78.3136
   -78.3136 -78.3135 -78.3135 -78.3135 -78.3135 -78.3135 -78.3135 -78.3134
   -44.0840 -44.0839 -44.0839 -44.0838 -44.0838 -44.0838 -44.0836 -44.0830
   -44.0829 -44.0828 -44.0828 -44.0828 -44.0826 -44.0826 -44.0826 -44.0826
   -44.0826 -44.0824 -44.0824 -44.0822 -44.0822 -44.0820 -44.0820 -44.0820
   -44.0819 -44.0819 -44.0817 -44.0817 -44.0817 -44.0817 -44.0812 -44.0812
   -44.0812 -44.0812 -44.0811 -44.0811 -44.0809 -44.0809 -44.0807 -44.0807
   -44.0803 -44.0803 -44.0802 -44.0801 -44.0801 -44.0801 -44.0801 -44.0800
   -44.0800 -44.0799 -44.0799 -44.0799 -44.0799 -44.0799 -44.0798 -44.0798
   -44.0798 -44.0795 -44.0795 -44.0795 -44.0793 -44.0793 -44.0790 -44.0790
   -44.0790 -44.0789 -44.0789 -44.0788 -44.0788 -44.0788 -44.0788 -44.0787
   -44.0787 -44.0787 -44.0786 -44.0786 -44.0785 -44.0785 -44.0784 -44.0784
   -44.0784 -44.0784 -44.0784 -44.0784 -44.0784 -44.0783 -44.0783 -44.0783
   -44.0783 -44.0782 -44.0782 -44.0781 -44.0781 -44.0779 -44.0776 -44.0775
     2.0115   2.5926   2.9032   2.9163   2.9163   2.9247   2.9586   2.9702
     2.9702   2.9867   2.9924   2.9924   2.9993   2.9993   3.0531   3.0776
     3.0777   3.0905   3.0948   3.1152   3.1152   3.1269   3.1336   3.1336
     3.1803   3.1803   3.1850   3.1850   3.1903   3.1903   3.2047   3.2047
     3.2147   3.2147   3.2176   3.2176   3.2200   3.2200   3.2331   3.2331
     3.2557   3.2557   3.2767   3.3094   3.3094   3.3110   3.3110   3.3223
     3.3223   3.3261   3.3261   3.3352   3.3352   3.3595   3.3674   3.3674
     3.3798   3.3798   3.3819   3.3863   3.3902   3.3902   3.3931   3.3988
     3.3988   3.4081   3.4081   3.4092   3.4123   3.4123   3.4211   3.4211
     3.4272   3.4312   3.4316   3.4352   3.4352   3.4391   3.4486   3.4486
     3.4568   3.4568   3.5258   3.5258   3.5382   3.5480   3.5480   3.5505
     3.5554   3.5617   3.5621   3.5621   3.5855   3.5855   3.6254   3.6273
     3.6273   3.6344   3.6371   3.6375   3.6375   3.6439   3.6439   3.6736
     3.6736   3.6789   3.6789   3.6848   3.6848   3.6921   3.6932   3.6932
     3.6939   3.6939   3.7219   3.7293   3.7293   3.7307   3.7307   3.7369
     3.7369   3.7764   3.7771   3.7827   3.7827   3.7830   3.7830   3.7973
     3.7998   3.8041   3.8041   3.8128   3.8128   3.8157   3.8194   3.8194
     3.8258   3.8258   3.8773   3.8786   3.8821   3.8821   3.9057   3.9057
     3.9069   3.9135   3.9224   3.9264   3.9264   3.9309   3.9309   3.9309
     3.9405   3.9405   3.9669   3.9694   3.9694   3.9698   3.9698   3.9748
     4.0047   4.0047   4.0047   4.0047   4.1185   4.1185   4.5243   4.5243
     4.5590   4.7862   4.7862   5.0678   5.3688   5.3688   5.6299   5.6727
     5.9607   5.9607   5.9656   5.9656   6.2607   6.2607   6.2873   6.4093
     7.2697   7.5935   7.5935   7.5962   7.5962   7.6608   7.6608   7.8644
     7.8644   7.9192   8.2414   8.2414   8.4511   8.4511   8.8127   8.8127
     9.1952   9.2624   9.2624   9.4431   9.4431   9.5062   9.5062   9.6235
     9.8026   9.8026   9.8163   9.8164   9.8229   9.9980   9.9980  10.0846
    10.0846  10.4737

          k = 0.0395 0.0395 0.2762 ( 84169 PWs)   bands (ev):

   -78.3140 -78.3140 -78.3139 -78.3139 -78.3138 -78.3138 -78.3138 -78.3138
   -78.3137 -78.3137 -78.3137 -78.3137 -78.3137 -78.3137 -78.3137 -78.3137
   -78.3137 -78.3137 -78.3136 -78.3136 -78.3136 -78.3136 -78.3136 -78.3136
   -78.3136 -78.3136 -78.3136 -78.3135 -78.3135 -78.3135 -78.3135 -78.3134
   -44.0838 -44.0837 -44.0837 -44.0836 -44.0836 -44.0836 -44.0834 -44.0833
   -44.0832 -44.0832 -44.0831 -44.0831 -44.0830 -44.0826 -44.0826 -44.0825
   -44.0825 -44.0825 -44.0824 -44.0824 -44.0823 -44.0823 -44.0819 -44.0819
   -44.0817 -44.0817 -44.0816 -44.0816 -44.0815 -44.0815 -44.0814 -44.0814
   -44.0813 -44.0813 -44.0812 -44.0812 -44.0810 -44.0810 -44.0809 -44.0809
   -44.0805 -44.0805 -44.0801 -44.0800 -44.0800 -44.0800 -44.0799 -44.0799
   -44.0797 -44.0797 -44.0797 -44.0797 -44.0796 -44.0795 -44.0795 -44.0795
   -44.0795 -44.0795 -44.0795 -44.0793 -44.0793 -44.0793 -44.0791 -44.0791
   -44.0791 -44.0791 -44.0791 -44.0791 -44.0790 -44.0789 -44.0789 -44.0789
   -44.0789 -44.0788 -44.0786 -44.0785 -44.0785 -44.0785 -44.0784 -44.0784
   -44.0784 -44.0784 -44.0784 -44.0784 -44.0784 -44.0783 -44.0783 -44.0783
   -44.0782 -44.0782 -44.0782 -44.0781 -44.0780 -44.0780 -44.0777 -44.0777
     2.1142   2.4106   2.9346   2.9514   2.9514   2.9630   2.9801   3.0027
     3.0027   3.0053   3.0309   3.0309   3.0316   3.0319   3.0438   3.0439
     3.0524   3.0524   3.0580   3.0665   3.0880   3.0880   3.1214   3.1214
     3.1223   3.1223   3.1528   3.1528   3.2066   3.2066   3.2075   3.2075
     3.2101   3.2102   3.2135   3.2135   3.2375   3.2375   3.2376   3.2376
     3.2619   3.2619   3.2817   3.2817   3.2865   3.2865   3.3107   3.3211
     3.3211   3.3257   3.3257   3.3364   3.3364   3.3661   3.3664   3.3732
     3.3732   3.3764   3.3764   3.3834   3.3834   3.3841   3.3923   3.3923
     3.3924   3.3960   3.3960   3.4055   3.4109   3.4109   3.4111   3.4111
     3.4246   3.4246   3.4416   3.4416   3.4464   3.4530   3.4531   3.4567
     3.4567   3.4625   3.4822   3.4822   3.4991   3.4991   3.5030   3.5150
     3.5156   3.5162   3.5162   3.5253   3.6387   3.6418   3.6418   3.6425
     3.6425   3.6745   3.6786   3.6786   3.6873   3.6873   3.6921   3.6921
     3.6970   3.6970   3.6989   3.6997   3.6997   3.7086   3.7086   3.7152
     3.7152   3.7179   3.7247   3.7247   3.7318   3.7355   3.7355   3.7532
     3.7532   3.7598   3.7635   3.7635   3.8067   3.8067   3.8168   3.8186
     3.8186   3.8289   3.8330   3.8330   3.8431   3.8431   3.8461   3.8487
     3.8503   3.8503   3.8513   3.8563   3.8563   3.8591   3.8591   3.8601
     3.8868   3.8870   3.8870   3.8976   3.9081   3.9084   3.9084   3.9106
     3.9351   3.9374   3.9374   3.9376   3.9376   3.9480   4.0047   4.0047
     4.0047   4.0047   4.0532   4.0532   4.2521   4.2521   4.3409   4.3409
     4.5835   4.5835   4.9626   5.1503   5.4280   5.4612   5.4612   5.7554
     5.7554   5.7721   5.8940   6.0793   6.3577   6.3577   6.6460   6.6460
     7.2164   7.2164   7.4671   7.4671   7.7015   7.7444   7.7444   8.0235
     8.0235   8.0975   8.0975   8.3480   8.4905   8.4905   8.6507   8.6507
     8.6669   8.9822   8.9822   9.3021   9.3327   9.3327   9.5545   9.5545
     9.6192   9.6192   9.8765   9.8765   9.9129   9.9129  10.1613  10.1613
    10.2487  10.2487

          k = 0.0395 0.0395-0.3551 ( 84218 PWs)   bands (ev):

   -78.3140 -78.3140 -78.3139 -78.3139 -78.3138 -78.3138 -78.3138 -78.3138
   -78.3137 -78.3137 -78.3137 -78.3137 -78.3137 -78.3137 -78.3137 -78.3137
   -78.3137 -78.3137 -78.3136 -78.3136 -78.3136 -78.3136 -78.3136 -78.3136
   -78.3136 -78.3136 -78.3136 -78.3135 -78.3135 -78.3135 -78.3135 -78.3134
   -44.0836 -44.0836 -44.0835 -44.0835 -44.0835 -44.0835 -44.0834 -44.0834
   -44.0833 -44.0833 -44.0833 -44.0833 -44.0831 -44.0830 -44.0826 -44.0825
   -44.0825 -44.0825 -44.0824 -44.0824 -44.0823 -44.0823 -44.0817 -44.0817
   -44.0817 -44.0817 -44.0815 -44.0815 -44.0815 -44.0815 -44.0814 -44.0814
   -44.0814 -44.0814 -44.0812 -44.0812 -44.0812 -44.0812 -44.0807 -44.0807
   -44.0807 -44.0807 -44.0802 -44.0801 -44.0801 -44.0800 -44.0797 -44.0797
   -44.0797 -44.0797 -44.0794 -44.0794 -44.0794 -44.0794 -44.0794 -44.0794
   -44.0794 -44.0794 -44.0794 -44.0793 -44.0793 -44.0793 -44.0793 -44.0793
   -44.0793 -44.0792 -44.0792 -44.0792 -44.0791 -44.0791 -44.0791 -44.0790
   -44.0790 -44.0790 -44.0785 -44.0785 -44.0785 -44.0785 -44.0784 -44.0784
   -44.0784 -44.0784 -44.0784 -44.0784 -44.0783 -44.0783 -44.0783 -44.0783
   -44.0783 -44.0782 -44.0782 -44.0782 -44.0779 -44.0778 -44.0778 -44.0778
     2.2485   2.2485   2.9777   2.9777   2.9971   2.9971   2.9971   2.9971
     3.0056   3.0056   3.0108   3.0108   3.0293   3.0293   3.0428   3.0428
     3.0428   3.0428   3.0723   3.0723   3.0723   3.0723   3.1009   3.1009
     3.1009   3.1009   3.1677   3.1677   3.1677   3.1677   3.2128   3.2128
     3.2128   3.2128   3.2403   3.2403   3.2403   3.2403   3.2557   3.2557
     3.2557   3.2557   3.2605   3.2605   3.2605   3.2605   3.3200   3.3200
     3.3200   3.3200   3.3409   3.3409   3.3543   3.3543   3.3543   3.3543
     3.3747   3.3747   3.3840   3.3840   3.3840   3.3840   3.3847   3.3847
     3.3847   3.3847   3.3999   3.3999   3.4148   3.4148   3.4148   3.4148
     3.4463   3.4463   3.4463   3.4463   3.4521   3.4521   3.4521   3.4521
     3.4720   3.4720   3.4813   3.4813   3.4814   3.4814   3.4842   3.4842
     3.4842   3.4842   3.4916   3.4916   3.6419   3.6419   3.6419   3.6419
     3.6550   3.6550   3.6901   3.6901   3.6901   3.6901   3.7139   3.7139
     3.7139   3.7139   3.7290   3.7290   3.7290   3.7290   3.7377   3.7377
     3.7377   3.7377   3.7445   3.7445   3.7681   3.7681   3.7687   3.7687
     3.7687   3.7687   3.7711   3.7711   3.7711   3.7711   3.7815   3.7815
     3.7815   3.7815   3.7957   3.7958   3.8541   3.8541   3.8543   3.8544
     3.8544   3.8544   3.8786   3.8786   3.8786   3.8786   3.8836   3.8836
     3.8838   3.8838   3.8952   3.8952   3.8989   3.8989   3.8989   3.8989
     3.8996   3.8996   3.8996   3.8996   3.9204   3.9204   4.0047   4.0047
     4.0047   4.0047   4.1854   4.1854   4.1854   4.1854   4.4065   4.4065
     4.4065   4.4065   5.2689   5.2689   5.4098   5.4098   5.5893   5.5893
     5.5893   5.5893   5.9074   5.9074   6.7771   6.7771   6.7771   6.7772
     7.0523   7.0523   7.0523   7.0523   7.9199   7.9199   7.9199   7.9199
     8.1682   8.1682   8.4871   8.4871   8.4871   8.4871   8.5517   8.5517
     8.5517   8.5517   8.8096   8.8096   9.4559   9.4559   9.4559   9.4560
     9.6994   9.6994   9.6995   9.6995  10.0615  10.0615  10.0615  10.0615
    10.3413  10.3413

          k = 0.0395 0.1184 0.1184 ( 84233 PWs)   bands (ev):

   -78.3141 -78.3139 -78.3139 -78.3139 -78.3138 -78.3138 -78.3138 -78.3138
   -78.3137 -78.3137 -78.3137 -78.3137 -78.3137 -78.3137 -78.3137 -78.3137
   -78.3137 -78.3136 -78.3136 -78.3136 -78.3136 -78.3136 -78.3136 -78.3136
   -78.3136 -78.3135 -78.3135 -78.3135 -78.3135 -78.3135 -78.3135 -78.3134
   -44.0841 -44.0841 -44.0840 -44.0838 -44.0838 -44.0838 -44.0838 -44.0828
   -44.0828 -44.0827 -44.0827 -44.0826 -44.0826 -44.0825 -44.0825 -44.0825
   -44.0824 -44.0824 -44.0824 -44.0823 -44.0823 -44.0823 -44.0821 -44.0821
   -44.0819 -44.0819 -44.0817 -44.0817 -44.0816 -44.0816 -44.0816 -44.0815
   -44.0815 -44.0812 -44.0811 -44.0807 -44.0807 -44.0806 -44.0805 -44.0805
   -44.0804 -44.0804 -44.0804 -44.0802 -44.0802 -44.0801 -44.0801 -44.0801
   -44.0800 -44.0800 -44.0800 -44.0800 -44.0799 -44.0799 -44.0799 -44.0799
   -44.0798 -44.0798 -44.0796 -44.0796 -44.0796 -44.0792 -44.0792 -44.0790
   -44.0790 -44.0788 -44.0788 -44.0788 -44.0787 -44.0787 -44.0786 -44.0786
   -44.0786 -44.0786 -44.0786 -44.0786 -44.0786 -44.0785 -44.0785 -44.0784
   -44.0784 -44.0784 -44.0784 -44.0784 -44.0784 -44.0784 -44.0783 -44.0783
   -44.0783 -44.0783 -44.0782 -44.0782 -44.0781 -44.0778 -44.0775 -44.0774
     1.9767   2.8015   2.8015   2.8862   2.8998   2.9128   2.9128   2.9552
     2.9552   2.9558   2.9694   2.9846   2.9846   2.9916   3.0550   3.0736
     3.0736   3.1342   3.1342   3.1453   3.1453   3.1690   3.1690   3.1732
     3.1732   3.1747   3.1811   3.1811   3.1839   3.1894   3.1894   3.1962
     3.1988   3.1988   3.2063   3.2063   3.2187   3.2452   3.2452   3.2494
     3.2494   3.2591   3.2591   3.2641   3.2641   3.3152   3.3152   3.3209
     3.3209   3.3225   3.3428   3.3428   3.3550   3.3550   3.3597   3.3597
     3.3689   3.3689   3.3942   3.3942   3.3976   3.4016   3.4028   3.4084
     3.4084   3.4091   3.4091   3.4125   3.4196   3.4199   3.4238   3.4273
     3.4331   3.4331   3.4752   3.4807   3.4807   3.4900   3.4901   3.4921
     3.4921   3.5050   3.5050   3.5084   3.5236   3.5236   3.5334   3.5334
     3.5488   3.5488   3.5546   3.5876   3.5876   3.5966   3.5979   3.5979
     3.6028   3.6215   3.6215   3.6216   3.6216   3.6262   3.6361   3.6361
     3.6530   3.6550   3.6703   3.6894   3.6894   3.6934   3.6934   3.7034
     3.7090   3.7090   3.7139   3.7250   3.7250   3.7328   3.7328   3.7469
     3.7469   3.7494   3.7494   3.7560   3.7560   3.7654   3.7654   3.7665
     3.7665   3.8007   3.8007   3.8039   3.8058   3.8058   3.8076   3.8076
     3.8299   3.8546   3.8628   3.8628   3.8677   3.8874   3.8874   3.8925
     3.9131   3.9172   3.9184   3.9184   3.9371   3.9461   3.9461   3.9477
     3.9553   3.9660   3.9660   3.9825   3.9825   3.9924   3.9924   3.9930
     3.9930   3.9945   3.9945   3.9978   4.0578   4.2748   4.2748   4.5057
     4.7602   4.7602   5.0438   5.0438   5.3371   5.3371   5.5849   5.6385
     5.6385   5.9185   5.9378   5.9378   6.2281   6.5685   6.5685   6.9134
     6.9134   6.9921   6.9921   7.5439   7.5580   7.8847   7.9187   7.9187
     8.0131   8.0131   8.2431   8.2431   8.4377   8.9836   8.9836   9.0263
     9.0263   9.0315   9.0315   9.3317   9.3317   9.4763   9.4763   9.7736
     9.7736   9.7944   9.8357   9.8357  10.1238  10.1238  10.1259  10.1259
    10.3898  10.3898

          k = 0.0395 0.1184 0.1973 ( 84160 PWs)   bands (ev):

   -78.3140 -78.3140 -78.3139 -78.3139 -78.3138 -78.3138 -78.3138 -78.3138
   -78.3137 -78.3137 -78.3137 -78.3137 -78.3137 -78.3137 -78.3137 -78.3137
   -78.3137 -78.3137 -78.3136 -78.3136 -78.3136 -78.3136 -78.3136 -78.3136
   -78.3136 -78.3135 -78.3135 -78.3135 -78.3135 -78.3135 -78.3135 -78.3134
   -44.0840 -44.0839 -44.0838 -44.0837 -44.0837 -44.0836 -44.0836 -44.0830
   -44.0830 -44.0828 -44.0828 -44.0828 -44.0827 -44.0827 -44.0826 -44.0825
   -44.0825 -44.0825 -44.0824 -44.0824 -44.0824 -44.0822 -44.0821 -44.0820
   -44.0819 -44.0818 -44.0817 -44.0817 -44.0816 -44.0815 -44.0814 -44.0814
   -44.0814 -44.0812 -44.0812 -44.0809 -44.0808 -44.0807 -44.0806 -44.0805
   -44.0803 -44.0803 -44.0801 -44.0801 -44.0801 -44.0801 -44.0800 -44.0800
   -44.0800 -44.0800 -44.0799 -44.0798 -44.0798 -44.0798 -44.0798 -44.0797
   -44.0796 -44.0794 -44.0794 -44.0794 -44.0793 -44.0793 -44.0793 -44.0792
   -44.0790 -44.0789 -44.0789 -44.0789 -44.0788 -44.0788 -44.0788 -44.0788
   -44.0787 -44.0787 -44.0786 -44.0786 -44.0786 -44.0786 -44.0785 -44.0785
   -44.0785 -44.0785 -44.0784 -44.0784 -44.0784 -44.0783 -44.0783 -44.0782
   -44.0782 -44.0782 -44.0781 -44.0781 -44.0780 -44.0780 -44.0776 -44.0775
     2.0455   2.6197   2.8469   2.9005   2.9186   2.9395   2.9433   2.9706
     2.9733   2.9782   2.9966   2.9971   3.0056   3.0172   3.0667   3.0728
     3.0762   3.0997   3.1021   3.1043   3.1237   3.1239   3.1247   3.1378
     3.1405   3.1424   3.1512   3.1597   3.1656   3.1801   3.1845   3.1953
     3.1990   3.2021   3.2111   3.2119   3.2180   3.2217   3.2405   3.2431
     3.2546   3.2549   3.2740   3.2809   3.2814   3.3018   3.3081   3.3146
     3.3181   3.3231   3.3321   3.3472   3.3483   3.3486   3.3683   3.3704
     3.3717   3.3764   3.3768   3.3833   3.3857   3.3866   3.3930   3.4005
     3.4097   3.4136   3.4138   3.4230   3.4302   3.4320   3.4352   3.4374
     3.4409   3.4512   3.4526   3.4587   3.4611   3.4763   3.4765   3.4897
     3.4930   3.5055   3.5139   3.5153   3.5292   3.5298   3.5321   3.5502
     3.5509   3.5541   3.5687   3.5743   3.5825   3.5967   3.5968   3.6023
     3.6121   3.6132   3.6158   3.6163   3.6175   3.6212   3.6332   3.6458
     3.6499   3.6584   3.6602   3.6658   3.6747   3.6926   3.7198   3.7204
     3.7245   3.7259   3.7263   3.7303   3.7353   3.7433   3.7454   3.7462
     3.7606   3.7707   3.7730   3.7783   3.7807   3.7821   3.7882   3.7980
     3.8111   3.8112   3.8231   3.8317   3.8375   3.8375   3.8398   3.8401
     3.8459   3.8466   3.8489   3.8536   3.8567   3.8575   3.8814   3.8859
     3.8860   3.8983   3.9025   3.9118   3.9245   3.9305   3.9389   3.9404
     3.9405   3.9498   3.9535   3.9632   3.9635   3.9693   3.9703   3.9756
     3.9923   3.9932   3.9941   3.9942   4.1526   4.3125   4.3855   4.5403
     4.6179   4.8036   4.8101   5.0966   5.0981   5.3389   5.6730   5.6959
     5.7052   6.0018   6.0086   6.2983   6.3283   6.4575   6.5799   6.6511
     6.9809   7.0851   7.3027   7.4448   7.6476   7.6682   7.7385   7.8191
     7.9517   8.0322   8.2201   8.2788   8.4600   8.8066   8.8177   8.9181
     8.9621   9.0157   9.0370   9.2225   9.2380   9.2651   9.5267   9.5701
     9.5722   9.6349   9.7323   9.8494  10.0437  10.1716  10.2001  10.3386
    10.3780  10.4622

          k = 0.0395 0.1184 0.2762 ( 84186 PWs)   bands (ev):

   -78.3140 -78.3140 -78.3139 -78.3139 -78.3138 -78.3138 -78.3138 -78.3138
   -78.3138 -78.3137 -78.3137 -78.3137 -78.3137 -78.3137 -78.3137 -78.3137
   -78.3137 -78.3137 -78.3136 -78.3136 -78.3136 -78.3136 -78.3136 -78.3136
   -78.3136 -78.3136 -78.3135 -78.3135 -78.3135 -78.3135 -78.3135 -78.3134
   -44.0838 -44.0838 -44.0836 -44.0835 -44.0835 -44.0834 -44.0834 -44.0834
   -44.0833 -44.0831 -44.0831 -44.0830 -44.0828 -44.0828 -44.0827 -44.0827
   -44.0826 -44.0826 -44.0825 -44.0825 -44.0823 -44.0823 -44.0821 -44.0819
   -44.0819 -44.0818 -44.0817 -44.0816 -44.0815 -44.0814 -44.0814 -44.0813
   -44.0812 -44.0812 -44.0811 -44.0810 -44.0810 -44.0809 -44.0809 -44.0806
   -44.0805 -44.0804 -44.0801 -44.0800 -44.0800 -44.0799 -44.0799 -44.0799
   -44.0798 -44.0798 -44.0797 -44.0797 -44.0796 -44.0796 -44.0796 -44.0796
   -44.0794 -44.0794 -44.0794 -44.0793 -44.0792 -44.0792 -44.0791 -44.0791
   -44.0791 -44.0791 -44.0791 -44.0791 -44.0790 -44.0790 -44.0788 -44.0788
   -44.0788 -44.0788 -44.0787 -44.0787 -44.0786 -44.0786 -44.0786 -44.0786
   -44.0785 -44.0785 -44.0784 -44.0784 -44.0784 -44.0783 -44.0783 -44.0782
   -44.0782 -44.0782 -44.0781 -44.0780 -44.0780 -44.0779 -44.0777 -44.0776
     2.1474   2.4404   2.9099   2.9269   2.9489   2.9765   2.9833   2.9921
     2.9999   3.0107   3.0154   3.0155   3.0309   3.0370   3.0426   3.0445
     3.0533   3.0582   3.0678   3.0775   3.0777   3.0850   3.0950   3.0962
     3.0976   3.1277   3.1382   3.1406   3.1482   3.1637   3.1699   3.1803
     3.2028   3.2090   3.2141   3.2243   3.2385   3.2426   3.2524   3.2620
     3.2686   3.2705   3.2742   3.2819   3.2843   3.2972   3.2987   3.3012
     3.3083   3.3113   3.3140   3.3334   3.3522   3.3564   3.3571   3.3614
     3.3679   3.3718   3.3759   3.3785   3.3833   3.3853   3.3968   3.4042
     3.4093   3.4108   3.4131   3.4227   3.4312   3.4399   3.4444   3.4469
     3.4530   3.4533   3.4575   3.4608   3.4674   3.4757   3.4764   3.4775
     3.4783   3.4804   3.4851   3.4880   3.4945   3.4988   3.5100   3.5148
     3.5149   3.5368   3.5415   3.5436   3.5961   3.6011   3.6013   3.6099
     3.6407   3.6488   3.6522   3.6587   3.6654   3.6687   3.6694   3.6735
     3.6738   3.6762   3.6764   3.6915   3.6979   3.6982   3.7151   3.7154
     3.7237   3.7305   3.7331   3.7344   3.7432   3.7464   3.7577   3.7620
     3.7626   3.7935   3.7938   3.7962   3.7973   3.8021   3.8032   3.8055
     3.8129   3.8164   3.8252   3.8255   3.8363   3.8411   3.8420   3.8454
     3.8465   3.8544   3.8562   3.8654   3.8725   3.8726   3.8730   3.8734
     3.8769   3.8782   3.8969   3.8973   3.9082   3.9215   3.9236   3.9250
     3.9257   3.9273   3.9370   3.9374   3.9379   3.9383   3.9524   3.9923
     3.9930   3.9934   3.9939   4.0644   4.1560   4.2786   4.3538   4.5269
     4.6063   4.8762   4.8825   5.0173   5.1390   5.1844   5.4691   5.8066
     5.9435   6.0909   6.1152   6.1179   6.3959   6.4375   6.6843   6.9529
     6.9721   7.2157   7.2475   7.4154   7.4831   7.5528   7.7108   7.7340
     7.7912   8.1165   8.3794   8.3866   8.4959   8.6465   8.6963   8.7060
     8.7929   9.0182   9.0374   9.0628   9.1001   9.1924   9.3151   9.3305
     9.3789   9.6547   9.7460   9.7630   9.9958  10.1524  10.3182  10.3208
    10.4666  10.5120

          k = 0.0395 0.1184-0.3551 ( 84224 PWs)   bands (ev):

   -78.3140 -78.3140 -78.3139 -78.3139 -78.3138 -78.3138 -78.3138 -78.3138
   -78.3138 -78.3137 -78.3137 -78.3137 -78.3137 -78.3137 -78.3137 -78.3137
   -78.3137 -78.3137 -78.3136 -78.3136 -78.3136 -78.3136 -78.3136 -78.3136
   -78.3136 -78.3136 -78.3136 -78.3135 -78.3135 -78.3135 -78.3135 -78.3134
   -44.0836 -44.0836 -44.0836 -44.0836 -44.0834 -44.0833 -44.0833 -44.0833
   -44.0833 -44.0833 -44.0831 -44.0831 -44.0831 -44.0830 -44.0827 -44.0827
   -44.0827 -44.0827 -44.0826 -44.0826 -44.0823 -44.0823 -44.0819 -44.0819
   -44.0819 -44.0819 -44.0817 -44.0817 -44.0814 -44.0814 -44.0813 -44.0813
   -44.0812 -44.0812 -44.0811 -44.0811 -44.0809 -44.0809 -44.0808 -44.0808
   -44.0807 -44.0807 -44.0801 -44.0800 -44.0800 -44.0799 -44.0798 -44.0798
   -44.0797 -44.0796 -44.0796 -44.0796 -44.0796 -44.0795 -44.0794 -44.0794
   -44.0794 -44.0794 -44.0794 -44.0794 -44.0794 -44.0793 -44.0793 -44.0793
   -44.0792 -44.0792 -44.0791 -44.0790 -44.0790 -44.0790 -44.0789 -44.0788
   -44.0788 -44.0788 -44.0788 -44.0787 -44.0786 -44.0786 -44.0786 -44.0786
   -44.0785 -44.0785 -44.0785 -44.0784 -44.0784 -44.0784 -44.0783 -44.0783
   -44.0782 -44.0782 -44.0781 -44.0780 -44.0779 -44.0779 -44.0777 -44.0777
     2.2803   2.2804   2.9653   2.9653   2.9835   2.9836   2.9905   2.9905
     3.0178   3.0178   3.0230   3.0230   3.0313   3.0313   3.0351   3.0351
     3.0393   3.0394   3.0508   3.0508   3.0660   3.0661   3.0782   3.0782
     3.0978   3.0978   3.1183   3.1183   3.1648   3.1648   3.1742   3.1742
     3.2102   3.2102   3.2254   3.2254   3.2531   3.2531   3.2563   3.2563
     3.2732   3.2732   3.2755   3.2755   3.2848   3.2848   3.3051   3.3051
     3.3175   3.3175   3.3183   3.3183   3.3433   3.3433   3.3465   3.3465
     3.3608   3.3608   3.3659   3.3659   3.3918   3.3918   3.4024   3.4024
     3.4101   3.4101   3.4356   3.4356   3.4457   3.4457   3.4500   3.4500
     3.4588   3.4588   3.4701   3.4701   3.4713   3.4713   3.4746   3.4746
     3.4777   3.4777   3.4809   3.4809   3.4828   3.4828   3.4863   3.4863
     3.5053   3.5053   3.5091   3.5091   3.5974   3.5974   3.6053   3.6053
     3.6467   3.6467   3.6593   3.6593   3.6928   3.6928   3.6984   3.6984
     3.7111   3.7111   3.7181   3.7181   3.7332   3.7333   3.7378   3.7378
     3.7393   3.7393   3.7400   3.7400   3.7447   3.7447   3.7462   3.7462
     3.7586   3.7587   3.7614   3.7614   3.7747   3.7747   3.7828   3.7828
     3.8193   3.8193   3.8262   3.8262   3.8414   3.8414   3.8473   3.8473
     3.8596   3.8596   3.8625   3.8625   3.8900   3.8900   3.8921   3.8921
     3.8994   3.8994   3.9010   3.9010   3.9020   3.9020   3.9027   3.9027
     3.9064   3.9064   3.9067   3.9067   3.9298   3.9298   3.9925   3.9925
     3.9936   3.9936   4.0294   4.0295   4.1967   4.1968   4.4298   4.4298
     4.6929   4.6929   4.9858   4.9858   5.3068   5.3069   5.4614   5.4614
     5.9439   5.9439   6.2581   6.2582   6.5180   6.5180   6.8148   6.8148
     7.0866   7.0866   7.3369   7.3369   7.3748   7.3749   7.8851   7.8851
     7.9580   7.9580   8.1993   8.1993   8.5521   8.5521   8.8396   8.8396
     8.8825   8.8825   9.1229   9.1230   9.1428   9.1428   9.1652   9.1652
     9.2186   9.2186   9.8411   9.8411   9.9501   9.9501  10.6639  10.6641
    10.6870  10.6870

          k = 0.0395 0.1973 0.1973 ( 84185 PWs)   bands (ev):

   -78.3140 -78.3140 -78.3140 -78.3139 -78.3138 -78.3138 -78.3138 -78.3138
   -78.3138 -78.3137 -78.3137 -78.3137 -78.3137 -78.3137 -78.3137 -78.3137
   -78.3137 -78.3137 -78.3136 -78.3136 -78.3136 -78.3136 -78.3136 -78.3136
   -78.3136 -78.3136 -78.3135 -78.3135 -78.3135 -78.3135 -78.3135 -78.3134
   -44.0839 -44.0839 -44.0836 -44.0836 -44.0835 -44.0835 -44.0834 -44.0830
   -44.0830 -44.0830 -44.0830 -44.0828 -44.0828 -44.0827 -44.0827 -44.0826
   -44.0826 -44.0825 -44.0825 -44.0824 -44.0824 -44.0823 -44.0822 -44.0822
   -44.0821 -44.0821 -44.0818 -44.0816 -44.0816 -44.0814 -44.0814 -44.0814
   -44.0811 -44.0811 -44.0811 -44.0810 -44.0807 -44.0806 -44.0806 -44.0804
   -44.0804 -44.0803 -44.0803 -44.0802 -44.0802 -44.0800 -44.0800 -44.0799
   -44.0799 -44.0799 -44.0798 -44.0798 -44.0797 -44.0797 -44.0795 -44.0795
   -44.0795 -44.0795 -44.0794 -44.0794 -44.0792 -44.0792 -44.0792 -44.0792
   -44.0791 -44.0791 -44.0790 -44.0790 -44.0789 -44.0789 -44.0788 -44.0788
   -44.0788 -44.0788 -44.0788 -44.0787 -44.0786 -44.0786 -44.0786 -44.0786
   -44.0785 -44.0785 -44.0784 -44.0784 -44.0783 -44.0783 -44.0783 -44.0783
   -44.0782 -44.0782 -44.0782 -44.0779 -44.0779 -44.0779 -44.0777 -44.0775
     2.1131   2.6726   2.6726   2.9090   2.9318   2.9717   2.9717   2.9843
     2.9936   2.9936   3.0045   3.0179   3.0179   3.0386   3.0475   3.0591
     3.0591   3.0694   3.0914   3.0914   3.0937   3.0937   3.1180   3.1180
     3.1194   3.1194   3.1532   3.1567   3.1567   3.1592   3.1592   3.1628
     3.1628   3.1932   3.1932   3.2252   3.2252   3.2336   3.2336   3.2341
     3.2341   3.2556   3.2801   3.2827   3.2827   3.2885   3.2885   3.3134
     3.3134   3.3174   3.3251   3.3251   3.3331   3.3331   3.3712   3.3712
     3.3792   3.3792   3.3817   3.3905   3.3905   3.3954   3.4005   3.4039
     3.4039   3.4152   3.4389   3.4411   3.4436   3.4436   3.4493   3.4538
     3.4739   3.4739   3.4892   3.4942   3.4943   3.4943   3.5079   3.5126
     3.5126   3.5134   3.5134   3.5229   3.5368   3.5368   3.5396   3.5396
     3.5534   3.5534   3.5648   3.5648   3.5759   3.5759   3.5808   3.5831
     3.5831   3.5913   3.6003   3.6003   3.6186   3.6186   3.6256   3.6280
     3.6337   3.6337   3.6740   3.6740   3.6778   3.6778   3.6881   3.6921
     3.7168   3.7168   3.7220   3.7561   3.7561   3.7694   3.7694   3.7869
     3.7869   3.7950   3.7950   3.7963   3.7963   3.8018   3.8018   3.8035
     3.8035   3.8090   3.8156   3.8156   3.8302   3.8302   3.8406   3.8505
     3.8507   3.8570   3.8570   3.8676   3.8676   3.8683   3.8683   3.8756
     3.8781   3.8838   3.8838   3.8840   3.9256   3.9278   3.9278   3.9408
     3.9408   3.9425   3.9517   3.9517   3.9694   3.9694   3.9708   3.9708
     3.9745   3.9745   3.9826   4.0031   4.1477   4.2259   4.5763   4.5763
     4.7245   4.7245   4.8606   4.8606   5.0917   5.4265   5.4516   5.4516
     6.0744   6.0744   6.3734   6.3734   6.5499   6.5499   6.7275   6.7275
     6.9196   7.0505   7.0505   7.2306   7.2306   7.6441   7.6441   7.7454
     8.1305   8.1305   8.3436   8.4778   8.5499   8.5499   8.6715   8.6778
     8.6778   8.8139   8.8139   8.9741   8.9741   9.3512   9.6524   9.6524
     9.6552   9.6552   9.7877   9.7878   9.9731  10.2237  10.2237  10.5513
    10.5513  10.6113

          k = 0.0395 0.1973 0.2762 ( 84200 PWs)   bands (ev):

   -78.3140 -78.3140 -78.3140 -78.3139 -78.3138 -78.3138 -78.3138 -78.3138
   -78.3138 -78.3137 -78.3137 -78.3137 -78.3137 -78.3137 -78.3137 -78.3137
   -78.3137 -78.3137 -78.3136 -78.3136 -78.3136 -78.3136 -78.3136 -78.3136
   -78.3136 -78.3136 -78.3135 -78.3135 -78.3135 -78.3135 -78.3135 -78.3134
   -44.0837 -44.0837 -44.0834 -44.0834 -44.0834 -44.0833 -44.0833 -44.0833
   -44.0832 -44.0831 -44.0830 -44.0830 -44.0830 -44.0828 -44.0828 -44.0828
   -44.0827 -44.0827 -44.0826 -44.0826 -44.0825 -44.0824 -44.0823 -44.0822
   -44.0822 -44.0819 -44.0819 -44.0817 -44.0817 -44.0813 -44.0813 -44.0812
   -44.0812 -44.0810 -44.0808 -44.0808 -44.0808 -44.0807 -44.0806 -44.0806
   -44.0804 -44.0802 -44.0801 -44.0800 -44.0800 -44.0799 -44.0799 -44.0799
   -44.0798 -44.0798 -44.0798 -44.0797 -44.0797 -44.0796 -44.0796 -44.0795
   -44.0795 -44.0794 -44.0794 -44.0794 -44.0792 -44.0792 -44.0792 -44.0791
   -44.0791 -44.0791 -44.0791 -44.0790 -44.0790 -44.0790 -44.0789 -44.0789
   -44.0788 -44.0788 -44.0788 -44.0787 -44.0787 -44.0787 -44.0787 -44.0786
   -44.0785 -44.0785 -44.0784 -44.0784 -44.0784 -44.0784 -44.0784 -44.0783
   -44.0782 -44.0782 -44.0781 -44.0779 -44.0778 -44.0778 -44.0778 -44.0776
     2.2131   2.4991   2.7479   2.9289   2.9407   2.9560   3.0041   3.0047
     3.0090   3.0118   3.0150   3.0153   3.0259   3.0363   3.0373   3.0431
     3.0493   3.0673   3.0703   3.0728   3.0837   3.0870   3.0888   3.1065
     3.1080   3.1115   3.1168   3.1217   3.1339   3.1389   3.1532   3.1758
     3.1809   3.1837   3.1899   3.1921   3.2084   3.2165   3.2187   3.2374
     3.2565   3.2611   3.2712   3.2724   3.2808   3.2983   3.2996   3.3117
     3.3142   3.3152   3.3195   3.3336   3.3344   3.3348   3.3567   3.3577
     3.3581   3.3679   3.3958   3.3999   3.4099   3.4141   3.4163   3.4167
     3.4202   3.4431   3.4439   3.4559   3.4567   3.4662   3.4662   3.4679
     3.4704   3.4724   3.4748   3.4851   3.4998   3.5015   3.5018   3.5021
     3.5024   3.5029   3.5045   3.5140   3.5148   3.5170   3.5212   3.5370
     3.5541   3.5600   3.5644   3.5664   3.5675   3.5697   3.5762   3.5954
     3.5978   3.6111   3.6203   3.6253   3.6355   3.6377   3.6384   3.6439
     3.6439   3.6568   3.6582   3.6623   3.6750   3.6759   3.6969   3.7017
     3.7152   3.7284   3.7329   3.7491   3.7514   3.7523   3.7557   3.7734
     3.7782   3.7810   3.7872   3.7903   3.7935   3.7983   3.8015   3.8105
     3.8182   3.8206   3.8293   3.8329   3.8366   3.8444   3.8490   3.8519
     3.8521   3.8587   3.8617   3.8708   3.8742   3.8763   3.8810   3.8933
     3.8944   3.8948   3.8967   3.9013   3.9065   3.9106   3.9146   3.9324
     3.9327   3.9342   3.9357   3.9361   3.9394   3.9395   3.9499   3.9702
     3.9715   3.9733   3.9755   4.0216   4.0980   4.3371   4.3847   4.6404
     4.6553   4.8665   4.8923   4.9428   5.1192   5.2226   5.2320   5.8468
     6.0382   6.1832   6.4717   6.4855   6.5099   6.6804   6.7411   6.7599
     6.8157   7.0273   7.1784   7.2713   7.3008   7.4809   7.4838   7.8782
     7.9221   8.1260   8.1460   8.3332   8.4473   8.4812   8.5060   8.5098
     8.6451   8.7647   8.7682   8.8722   9.0966   9.1552   9.6788   9.6791
     9.6918   9.7106   9.8010   9.9544   9.9603  10.0387  10.3147  10.4468
    10.5731  10.6280

          k = 0.0395 0.1973-0.3551 ( 84160 PWs)   bands (ev):

   -78.3140 -78.3140 -78.3140 -78.3139 -78.3138 -78.3138 -78.3138 -78.3138
   -78.3138 -78.3137 -78.3137 -78.3137 -78.3137 -78.3137 -78.3137 -78.3137
   -78.3137 -78.3137 -78.3136 -78.3136 -78.3136 -78.3136 -78.3136 -78.3136
   -78.3136 -78.3136 -78.3136 -78.3135 -78.3135 -78.3135 -78.3135 -78.3134
   -44.0836 -44.0836 -44.0835 -44.0835 -44.0833 -44.0833 -44.0832 -44.0832
   -44.0831 -44.0831 -44.0831 -44.0830 -44.0829 -44.0829 -44.0829 -44.0829
   -44.0829 -44.0829 -44.0828 -44.0827 -44.0824 -44.0824 -44.0823 -44.0823
   -44.0819 -44.0819 -44.0819 -44.0819 -44.0816 -44.0816 -44.0810 -44.0810
   -44.0810 -44.0810 -44.0809 -44.0809 -44.0808 -44.0808 -44.0806 -44.0806
   -44.0802 -44.0802 -44.0800 -44.0799 -44.0799 -44.0799 -44.0799 -44.0798
   -44.0798 -44.0798 -44.0797 -44.0797 -44.0797 -44.0797 -44.0796 -44.0796
   -44.0795 -44.0795 -44.0794 -44.0793 -44.0793 -44.0793 -44.0793 -44.0793
   -44.0791 -44.0790 -44.0790 -44.0790 -44.0789 -44.0789 -44.0788 -44.0788
   -44.0787 -44.0787 -44.0787 -44.0787 -44.0787 -44.0787 -44.0787 -44.0786
   -44.0786 -44.0786 -44.0785 -44.0785 -44.0784 -44.0784 -44.0783 -44.0783
   -44.0782 -44.0782 -44.0779 -44.0779 -44.0778 -44.0778 -44.0777 -44.0776
     2.3432   2.3432   2.8401   2.8401   2.9606   2.9606   2.9912   2.9912
     3.0284   3.0284   3.0345   3.0345   3.0404   3.0404   3.0544   3.0544
     3.0581   3.0581   3.0603   3.0603   3.0658   3.0658   3.0754   3.0754
     3.0904   3.0904   3.1219   3.1219   3.1334   3.1334   3.1548   3.1548
     3.1969   3.1969   3.2008   3.2008   3.2015   3.2015   3.2180   3.2180
     3.2345   3.2345   3.2746   3.2746   3.2950   3.2950   3.3081   3.3081
     3.3147   3.3147   3.3436   3.3436   3.3451   3.3451   3.3464   3.3464
     3.3733   3.3733   3.3966   3.3966   3.3985   3.3985   3.4169   3.4169
     3.4457   3.4457   3.4482   3.4482   3.4623   3.4623   3.4776   3.4776
     3.4819   3.4819   3.4864   3.4864   3.4898   3.4898   3.4958   3.4958
     3.4962   3.4962   3.5062   3.5062   3.5173   3.5173   3.5331   3.5331
     3.5354   3.5354   3.5466   3.5466   3.5583   3.5583   3.5677   3.5677
     3.6020   3.6020   3.6575   3.6575   3.6624   3.6624   3.6717   3.6717
     3.6810   3.6810   3.6864   3.6864   3.6913   3.6913   3.6959   3.6960
     3.7108   3.7108   3.7205   3.7205   3.7373   3.7373   3.7449   3.7449
     3.7504   3.7504   3.7775   3.7775   3.7886   3.7886   3.7945   3.7945
     3.8330   3.8330   3.8335   3.8335   3.8506   3.8507   3.8693   3.8693
     3.8704   3.8704   3.8798   3.8798   3.8858   3.8859   3.9011   3.9011
     3.9070   3.9070   3.9092   3.9092   3.9161   3.9161   3.9168   3.9168
     3.9171   3.9172   3.9192   3.9192   3.9251   3.9251   3.9273   3.9273
     3.9719   3.9719   3.9723   3.9723   4.2261   4.2261   4.4810   4.4810
     4.7428   4.7428   5.0367   5.0367   5.0620   5.0620   5.5594   5.5594
     6.2781   6.2781   6.3284   6.3284   6.6340   6.6340   6.8418   6.8418
     6.8882   6.8882   7.1489   7.1489   7.6175   7.6175   7.6448   7.6448
     7.9499   7.9499   8.0220   8.0221   8.3468   8.3468   8.5526   8.5526
     8.6026   8.6026   8.9911   8.9911   9.2244   9.2244   9.5529   9.5529
     9.6957   9.6957   9.6958   9.6958  10.2064  10.2064  10.2305  10.2305
    11.0144  11.0146

          k = 0.0395 0.2762 0.2762 ( 84176 PWs)   bands (ev):

   -78.3140 -78.3140 -78.3140 -78.3139 -78.3138 -78.3138 -78.3138 -78.3138
   -78.3138 -78.3137 -78.3137 -78.3137 -78.3137 -78.3137 -78.3137 -78.3137
   -78.3137 -78.3137 -78.3136 -78.3136 -78.3136 -78.3136 -78.3136 -78.3136
   -78.3136 -78.3136 -78.3135 -78.3135 -78.3135 -78.3135 -78.3135 -78.3134
   -44.0836 -44.0836 -44.0833 -44.0833 -44.0832 -44.0832 -44.0832 -44.0832
   -44.0832 -44.0831 -44.0830 -44.0830 -44.0830 -44.0830 -44.0829 -44.0828
   -44.0828 -44.0827 -44.0827 -44.0827 -44.0827 -44.0825 -44.0825 -44.0824
   -44.0822 -44.0822 -44.0819 -44.0819 -44.0816 -44.0815 -44.0815 -44.0810
   -44.0809 -44.0809 -44.0807 -44.0807 -44.0804 -44.0804 -44.0803 -44.0803
   -44.0803 -44.0803 -44.0803 -44.0802 -44.0802 -44.0799 -44.0799 -44.0798
   -44.0798 -44.0797 -44.0797 -44.0797 -44.0797 -44.0796 -44.0796 -44.0796
   -44.0794 -44.0794 -44.0794 -44.0794 -44.0793 -44.0793 -44.0792 -44.0792
   -44.0792 -44.0790 -44.0790 -44.0790 -44.0790 -44.0790 -44.0790 -44.0788
   -44.0788 -44.0788 -44.0788 -44.0787 -44.0787 -44.0786 -44.0786 -44.0786
   -44.0786 -44.0786 -44.0785 -44.0785 -44.0785 -44.0784 -44.0784 -44.0782
   -44.0782 -44.0782 -44.0782 -44.0778 -44.0777 -44.0777 -44.0777 -44.0776
     2.3100   2.5843   2.5843   2.8139   2.9412   2.9729   2.9982   2.9982
     3.0037   3.0190   3.0367   3.0367   3.0467   3.0467   3.0477   3.0477
     3.0524   3.0681   3.0681   3.0758   3.0758   3.0965   3.0965   3.1062
     3.1230   3.1230   3.1286   3.1310   3.1310   3.1355   3.1355   3.1384
     3.1384   3.1578   3.1578   3.1718   3.1718   3.2021   3.2021   3.2204
     3.2204   3.2253   3.2253   3.2744   3.2744   3.3101   3.3101   3.3142
     3.3142   3.3167   3.3246   3.3250   3.3250   3.3404   3.3404   3.3616
     3.3734   3.4030   3.4082   3.4083   3.4083   3.4201   3.4252   3.4252
     3.4544   3.4668   3.4719   3.4735   3.4787   3.4900   3.4905   3.4905
     3.5024   3.5024   3.5085   3.5085   3.5090   3.5100   3.5100   3.5120
     3.5120   3.5175   3.5175   3.5328   3.5328   3.5425   3.5506   3.5676
     3.5676   3.5717   3.5734   3.5734   3.5764   3.5764   3.5806   3.5841
     3.5841   3.5904   3.5904   3.6095   3.6095   3.6250   3.6250   3.6304
     3.6429   3.6429   3.6501   3.6501   3.6559   3.6559   3.6684   3.6723
     3.6723   3.6905   3.7004   3.7004   3.7251   3.7390   3.7456   3.7487
     3.7487   3.7760   3.7847   3.7847   3.8035   3.8035   3.8113   3.8113
     3.8355   3.8355   3.8399   3.8401   3.8401   3.8582   3.8582   3.8654
     3.8654   3.8722   3.8922   3.8922   3.8930   3.8948   3.8948   3.8964
     3.8964   3.9001   3.9106   3.9122   3.9122   3.9141   3.9141   3.9248
     3.9323   3.9323   3.9328   3.9342   3.9342   3.9408   3.9409   3.9429
     3.9429   3.9458   3.9458   3.9597   4.1701   4.4327   4.4436   4.4436
     4.6924   4.7367   4.7367   5.0180   5.2590   5.2590   5.6260   5.6260
     6.1714   6.1714   6.5279   6.5279   6.5843   6.5843   6.8691   6.8691
     6.9016   6.9016   7.3022   7.3022   7.3371   7.3371   7.5861   7.9585
     7.9585   7.9875   8.0584   8.0584   8.0807   8.0807   8.2414   8.2414
     8.5226   8.6805   8.6806   8.9535   9.1890   9.5188   9.6770   9.7295
     9.7295  10.1149  10.1149  10.1214  10.1214  10.1983  10.2898  10.2898
    10.4534  10.4534

          k = 0.0395 0.2762-0.3551 ( 84164 PWs)   bands (ev):

   -78.3140 -78.3140 -78.3140 -78.3139 -78.3138 -78.3138 -78.3138 -78.3138
   -78.3138 -78.3137 -78.3137 -78.3137 -78.3137 -78.3137 -78.3137 -78.3137
   -78.3137 -78.3137 -78.3136 -78.3136 -78.3136 -78.3136 -78.3136 -78.3136
   -78.3136 -78.3136 -78.3136 -78.3135 -78.3135 -78.3135 -78.3135 -78.3134
   -44.0835 -44.0835 -44.0835 -44.0834 -44.0831 -44.0831 -44.0831 -44.0831
   -44.0831 -44.0831 -44.0830 -44.0830 -44.0830 -44.0829 -44.0829 -44.0828
   -44.0828 -44.0828 -44.0827 -44.0827 -44.0826 -44.0826 -44.0826 -44.0826
   -44.0822 -44.0822 -44.0819 -44.0819 -44.0817 -44.0817 -44.0812 -44.0812
   -44.0807 -44.0806 -44.0806 -44.0806 -44.0805 -44.0805 -44.0805 -44.0805
   -44.0801 -44.0801 -44.0801 -44.0801 -44.0800 -44.0800 -44.0800 -44.0799
   -44.0798 -44.0798 -44.0797 -44.0797 -44.0796 -44.0796 -44.0796 -44.0796
   -44.0795 -44.0795 -44.0794 -44.0794 -44.0793 -44.0793 -44.0792 -44.0792
   -44.0792 -44.0792 -44.0790 -44.0790 -44.0789 -44.0789 -44.0789 -44.0789
   -44.0789 -44.0789 -44.0788 -44.0788 -44.0786 -44.0786 -44.0786 -44.0786
   -44.0786 -44.0786 -44.0785 -44.0785 -44.0784 -44.0784 -44.0784 -44.0784
   -44.0783 -44.0783 -44.0780 -44.0780 -44.0777 -44.0777 -44.0776 -44.0776
     2.4353   2.4353   2.6916   2.6916   2.9642   2.9642   2.9979   2.9979
     2.9997   2.9997   3.0414   3.0414   3.0429   3.0429   3.0708   3.0708
     3.0856   3.0856   3.0868   3.0868   3.0904   3.0904   3.0909   3.0909
     3.0933   3.0933   3.1097   3.1097   3.1311   3.1311   3.1514   3.1514
     3.1671   3.1671   3.1686   3.1686   3.1718   3.1718   3.1758   3.1758
     3.1857   3.1857   3.2707   3.2707   3.2885   3.2886   3.2935   3.2935
     3.3244   3.3244   3.3248   3.3248   3.3276   3.3276   3.3468   3.3468
     3.4059   3.4059   3.4125   3.4125   3.4235   3.4235   3.4387   3.4387
     3.4807   3.4807   3.4834   3.4834   3.4878   3.4878   3.4912   3.4912
     3.4928   3.4928   3.5052   3.5052   3.5115   3.5115   3.5260   3.5260
     3.5368   3.5368   3.5383   3.5384   3.5435   3.5435   3.5531   3.5531
     3.5640   3.5640   3.5654   3.5654   3.5679   3.5679   3.5690   3.5690
     3.6129   3.6129   3.6215   3.6215   3.6389   3.6389   3.6429   3.6430
     3.6449   3.6449   3.6476   3.6476   3.6488   3.6488   3.6515   3.6515
     3.6579   3.6580   3.6679   3.6679   3.7017   3.7017   3.7154   3.7154
     3.7632   3.7632   3.7693   3.7693   3.8138   3.8138   3.8295   3.8295
     3.8308   3.8308   3.8540   3.8540   3.8693   3.8693   3.8725   3.8725
     3.8769   3.8769   3.8785   3.8785   3.8932   3.8932   3.9024   3.9025
     3.9040   3.9040   3.9158   3.9158   3.9181   3.9181   3.9197   3.9197
     3.9247   3.9247   3.9256   3.9256   3.9264   3.9264   3.9278   3.9278
     3.9429   3.9429   3.9491   3.9491   4.2863   4.2864   4.5432   4.5432
     4.5664   4.5664   4.8563   4.8563   5.4294   5.4294   5.6960   5.6960
     6.0594   6.0594   6.3366   6.3366   6.7313   6.7313   6.9914   6.9914
     6.9937   6.9937   7.2080   7.2080   7.4881   7.4881   7.7498   7.7499
     7.8661   7.8662   7.8818   7.8818   8.0734   8.0734   8.0967   8.0968
     8.5652   8.5652   8.7876   8.7876   9.6406   9.6407   9.6429   9.6429
     9.9072   9.9072   9.9716   9.9716  10.2277  10.2278  10.4581  10.4582
    10.5616  10.5616

          k = 0.0395-0.3551-0.3551 ( 84188 PWs)   bands (ev):

   -78.3140 -78.3140 -78.3140 -78.3139 -78.3138 -78.3138 -78.3138 -78.3138
   -78.3138 -78.3137 -78.3137 -78.3137 -78.3137 -78.3137 -78.3137 -78.3137
   -78.3137 -78.3137 -78.3136 -78.3136 -78.3136 -78.3136 -78.3136 -78.3136
   -78.3136 -78.3136 -78.3136 -78.3136 -78.3135 -78.3135 -78.3135 -78.3134
   -44.0834 -44.0833 -44.0833 -44.0833 -44.0833 -44.0833 -44.0833 -44.0833
   -44.0830 -44.0830 -44.0830 -44.0830 -44.0829 -44.0829 -44.0829 -44.0829
   -44.0829 -44.0828 -44.0828 -44.0828 -44.0826 -44.0826 -44.0826 -44.0826
   -44.0823 -44.0823 -44.0823 -44.0823 -44.0815 -44.0814 -44.0814 -44.0814
   -44.0803 -44.0803 -44.0803 -44.0803 -44.0803 -44.0803 -44.0803 -44.0803
   -44.0803 -44.0803 -44.0803 -44.0802 -44.0802 -44.0802 -44.0802 -44.0802
   -44.0796 -44.0796 -44.0796 -44.0796 -44.0795 -44.0795 -44.0795 -44.0795
   -44.0795 -44.0795 -44.0795 -44.0795 -44.0794 -44.0793 -44.0793 -44.0793
   -44.0791 -44.0791 -44.0791 -44.0791 -44.0791 -44.0791 -44.0791 -44.0791
   -44.0787 -44.0787 -44.0787 -44.0787 -44.0787 -44.0786 -44.0786 -44.0786
   -44.0785 -44.0785 -44.0785 -44.0784 -44.0784 -44.0784 -44.0784 -44.0784
   -44.0782 -44.0781 -44.0781 -44.0781 -44.0776 -44.0776 -44.0776 -44.0776
     2.5533   2.5534   2.5534   2.5534   2.9765   2.9765   2.9765   2.9765
     3.0163   3.0163   3.0163   3.0163   3.0603   3.0604   3.0604   3.0604
     3.1077   3.1077   3.1077   3.1077   3.1077   3.1077   3.1077   3.1077
     3.1290   3.1290   3.1290   3.1290   3.1290   3.1290   3.1290   3.1290
     3.1365   3.1366   3.1366   3.1366   3.1366   3.1366   3.1366   3.1366
     3.2227   3.2227   3.2227   3.2227   3.3059   3.3059   3.3059   3.3059
     3.3059   3.3059   3.3059   3.3059   3.3409   3.3409   3.3410   3.3410
     3.4129   3.4129   3.4129   3.4129   3.4311   3.4311   3.4311   3.4311
     3.5010   3.5010   3.5010   3.5010   3.5021   3.5021   3.5021   3.5021
     3.5096   3.5096   3.5096   3.5096   3.5333   3.5333   3.5333   3.5333
     3.5504   3.5504   3.5504   3.5504   3.5722   3.5722   3.5722   3.5722
     3.5920   3.5920   3.5920   3.5920   3.5920   3.5920   3.5920   3.5920
     3.6108   3.6108   3.6108   3.6108   3.6108   3.6108   3.6108   3.6108
     3.6200   3.6200   3.6200   3.6200   3.6200   3.6200   3.6200   3.6200
     3.6477   3.6477   3.6477   3.6477   3.6708   3.6708   3.6708   3.6708
     3.7898   3.7898   3.7898   3.7898   3.8037   3.8037   3.8037   3.8037
     3.8583   3.8583   3.8583   3.8583   3.8583   3.8583   3.8583   3.8583
     3.8926   3.8926   3.8926   3.8926   3.9093   3.9093   3.9093   3.9093
     3.9093   3.9093   3.9093   3.9093   3.9186   3.9186   3.9186   3.9186
     3.9291   3.9291   3.9291   3.9292   3.9292   3.9292   3.9292   3.9292
     3.9297   3.9297   3.9297   3.9297   4.3904   4.3905   4.3905   4.3905
     4.6909   4.6909   4.6909   4.6909   5.8643   5.8643   5.8643   5.8643
     5.8643   5.8643   5.8643   5.8643   7.0952   7.0952   7.0952   7.0952
     7.0952   7.0952   7.0952   7.0952   7.6564   7.6564   7.6564   7.6564
     7.6564   7.6564   7.6564   7.6564   8.0338   8.0338   8.0338   8.0338
     8.6356   8.6356   8.6356   8.6356   9.7072   9.7072   9.7072   9.7072
    10.0870  10.0870  10.0870  10.0870  10.4204  10.4204  10.4204  10.4204
    10.6847  10.6847

          k = 0.1184 0.1184 0.1184 ( 84175 PWs)   bands (ev):

   -78.3140 -78.3139 -78.3139 -78.3139 -78.3138 -78.3138 -78.3138 -78.3138
   -78.3137 -78.3137 -78.3137 -78.3137 -78.3137 -78.3137 -78.3137 -78.3137
   -78.3137 -78.3136 -78.3136 -78.3136 -78.3136 -78.3136 -78.3136 -78.3136
   -78.3136 -78.3135 -78.3135 -78.3135 -78.3135 -78.3135 -78.3135 -78.3134
   -44.0840 -44.0840 -44.0840 -44.0837 -44.0837 -44.0837 -44.0836 -44.0828
   -44.0828 -44.0827 -44.0826 -44.0826 -44.0826 -44.0826 -44.0826 -44.0826
   -44.0826 -44.0826 -44.0825 -44.0825 -44.0825 -44.0825 -44.0819 -44.0819
   -44.0819 -44.0816 -44.0816 -44.0816 -44.0816 -44.0816 -44.0816 -44.0816
   -44.0816 -44.0816 -44.0810 -44.0810 -44.0810 -44.0803 -44.0802 -44.0802
   -44.0802 -44.0802 -44.0802 -44.0802 -44.0802 -44.0802 -44.0801 -44.0801
   -44.0800 -44.0800 -44.0800 -44.0800 -44.0799 -44.0799 -44.0799 -44.0799
   -44.0799 -44.0799 -44.0794 -44.0794 -44.0794 -44.0791 -44.0791 -44.0791
   -44.0790 -44.0790 -44.0790 -44.0787 -44.0787 -44.0787 -44.0787 -44.0787
   -44.0787 -44.0786 -44.0786 -44.0786 -44.0786 -44.0786 -44.0786 -44.0785
   -44.0785 -44.0785 -44.0784 -44.0784 -44.0784 -44.0783 -44.0783 -44.0783
   -44.0782 -44.0782 -44.0781 -44.0781 -44.0781 -44.0779 -44.0775 -44.0775
     2.0111   2.8219   2.8219   2.8219   2.8834   2.9238   2.9238   2.9238
     2.9634   2.9634   2.9634   2.9982   2.9982   2.9982   3.0797   3.0797
     3.0797   3.1125   3.1125   3.1125   3.1504   3.1504   3.1504   3.1768
     3.1768   3.1768   3.1768   3.1768   3.1768   3.1778   3.1778   3.1778
     3.1967   3.1967   3.1967   3.1967   3.1967   3.1967   3.2537   3.2537
     3.2537   3.2609   3.2609   3.2609   3.2609   3.2609   3.2609   3.3456
     3.3456   3.3456   3.3456   3.3456   3.3456   3.3680   3.3680   3.3680
     3.3732   3.3732   3.3732   3.3911   3.3911   3.3911   3.3966   3.4197
     3.4197   3.4259   3.4259   3.4419   3.4419   3.4419   3.4579   3.4579
     3.4579   3.4579   3.4579   3.4579   3.4825   3.4825   3.4825   3.4825
     3.4825   3.4825   3.5318   3.5318   3.5318   3.5321   3.5321   3.5321
     3.5426   3.5426   3.5426   3.5595   3.5595   3.5595   3.5843   3.5843
     3.5843   3.6292   3.6292   3.6292   3.6559   3.6559   3.6559   3.6559
     3.6559   3.6559   3.6662   3.6662   3.6662   3.6960   3.6960   3.6960
     3.7076   3.7076   3.7151   3.7151   3.7151   3.7498   3.7498   3.7498
     3.7510   3.7510   3.7510   3.7510   3.7510   3.7510   3.8059   3.8059
     3.8059   3.8061   3.8061   3.8061   3.8061   3.8061   3.8061   3.8253
     3.8253   3.8253   3.8605   3.8606   3.8606   3.8791   3.8791   3.8791
     3.9092   3.9092   3.9092   3.9188   3.9188   3.9432   3.9432   3.9432
     3.9502   3.9502   3.9502   3.9827   3.9827   3.9827   3.9827   3.9827
     3.9827   3.9918   3.9918   3.9918   4.3296   4.3296   4.3296   4.5193
     4.5193   4.5193   5.2919   5.3683   5.3683   5.3683   5.3683   5.3684
     5.3684   6.2655   6.2655   6.2655   6.2893   6.2893   6.2893   7.0395
     7.0395   7.0395   7.2661   7.2661   7.2661   7.9147   7.9147   7.9147
     7.9147   7.9147   7.9147   8.2454   8.9977   8.9977   8.9977   9.0764
     9.0764   9.0764   9.0765   9.0765   9.0765   9.2114   9.2114   9.2114
    10.1016  10.1016  10.1016  10.1016  10.1016  10.1066  10.1588  10.1588
    10.1588  10.1588

          k = 0.1184 0.1184 0.1973 ( 84142 PWs)   bands (ev):

   -78.3140 -78.3140 -78.3139 -78.3139 -78.3138 -78.3138 -78.3138 -78.3138
   -78.3137 -78.3137 -78.3137 -78.3137 -78.3137 -78.3137 -78.3137 -78.3137
   -78.3137 -78.3136 -78.3136 -78.3136 -78.3136 -78.3136 -78.3136 -78.3136
   -78.3136 -78.3135 -78.3135 -78.3135 -78.3135 -78.3135 -78.3135 -78.3134
   -44.0839 -44.0839 -44.0839 -44.0836 -44.0836 -44.0836 -44.0834 -44.0830
   -44.0829 -44.0829 -44.0828 -44.0828 -44.0828 -44.0828 -44.0827 -44.0827
   -44.0826 -44.0826 -44.0825 -44.0825 -44.0824 -44.0824 -44.0822 -44.0821
   -44.0817 -44.0817 -44.0816 -44.0816 -44.0816 -44.0815 -44.0814 -44.0814
   -44.0813 -44.0813 -44.0812 -44.0812 -44.0806 -44.0805 -44.0805 -44.0804
   -44.0804 -44.0802 -44.0802 -44.0802 -44.0800 -44.0799 -44.0799 -44.0799
   -44.0799 -44.0799 -44.0799 -44.0799 -44.0799 -44.0798 -44.0798 -44.0798
   -44.0798 -44.0794 -44.0793 -44.0792 -44.0792 -44.0792 -44.0792 -44.0791
   -44.0791 -44.0790 -44.0790 -44.0790 -44.0789 -44.0789 -44.0789 -44.0788
   -44.0788 -44.0788 -44.0787 -44.0786 -44.0786 -44.0786 -44.0786 -44.0786
   -44.0785 -44.0785 -44.0784 -44.0784 -44.0783 -44.0782 -44.0782 -44.0782
   -44.0782 -44.0782 -44.0781 -44.0780 -44.0780 -44.0780 -44.0776 -44.0776
     2.0792   2.6449   2.8603   2.8604   2.8921   2.9455   2.9455   2.9569
     2.9781   2.9805   2.9805   3.0114   3.0241   3.0241   3.0470   3.0703
     3.0727   3.0727   3.0917   3.0917   3.1177   3.1311   3.1311   3.1313
     3.1313   3.1417   3.1689   3.1689   3.1709   3.1709   3.1802   3.1802
     3.1815   3.1815   3.1912   3.1912   3.2074   3.2074   3.2150   3.2150
     3.2643   3.2643   3.2709   3.2709   3.2808   3.2808   3.2877   3.3258
     3.3258   3.3501   3.3558   3.3558   3.3685   3.3685   3.3702   3.3702
     3.3707   3.3707   3.3781   3.3858   3.3858   3.3879   3.4039   3.4039
     3.4054   3.4242   3.4269   3.4354   3.4354   3.4367   3.4384   3.4583
     3.4583   3.4631   3.4662   3.4662   3.4857   3.4857   3.5064   3.5064
     3.5108   3.5108   3.5156   3.5156   3.5174   3.5174   3.5226   3.5231
     3.5456   3.5652   3.5652   3.5674   3.5674   3.5763   3.5763   3.5947
     3.5947   3.6060   3.6060   3.6170   3.6253   3.6253   3.6522   3.6522
     3.6717   3.6717   3.6845   3.6886   3.6886   3.6923   3.6923   3.6956
     3.7031   3.7031   3.7158   3.7302   3.7402   3.7407   3.7407   3.7516
     3.7516   3.7592   3.7699   3.7699   3.7813   3.7813   3.7830   3.8177
     3.8177   3.8195   3.8216   3.8216   3.8430   3.8430   3.8436   3.8436
     3.8479   3.8479   3.8504   3.8504   3.8551   3.8806   3.8806   3.8848
     3.8848   3.8932   3.8933   3.9030   3.9049   3.9087   3.9087   3.9194
     3.9447   3.9482   3.9482   3.9637   3.9637   3.9644   3.9644   3.9805
     3.9831   3.9831   3.9890   3.9890   4.3203   4.3203   4.4294   4.4294
     4.5505   4.6718   5.0441   5.1269   5.1269   5.4319   5.4319   5.7311
     5.7311   6.0426   6.0426   6.3402   6.5046   6.6184   6.6184   6.6939
     7.0107   7.1305   7.1305   7.4713   7.4713   7.6593   7.6593   7.7598
     7.7598   7.8638   7.8638   8.6393   8.6484   8.7846   8.7846   8.9816
     8.9816   9.0248   9.0248   9.1215   9.1215   9.1582   9.1582   9.5594
     9.5594   9.6414   9.8453   9.8453  10.2275  10.2275  10.2618  10.2618
    10.5264  10.5635

          k = 0.1184 0.1184 0.2762 ( 84164 PWs)   bands (ev):

   -78.3140 -78.3140 -78.3139 -78.3139 -78.3138 -78.3138 -78.3138 -78.3138
   -78.3138 -78.3137 -78.3137 -78.3137 -78.3137 -78.3137 -78.3137 -78.3137
   -78.3137 -78.3136 -78.3136 -78.3136 -78.3136 -78.3136 -78.3136 -78.3136
   -78.3136 -78.3136 -78.3136 -78.3135 -78.3135 -78.3135 -78.3135 -78.3134
   -44.0838 -44.0837 -44.0837 -44.0835 -44.0835 -44.0834 -44.0833 -44.0832
   -44.0831 -44.0831 -44.0830 -44.0830 -44.0828 -44.0828 -44.0827 -44.0827
   -44.0827 -44.0827 -44.0826 -44.0826 -44.0825 -44.0825 -44.0822 -44.0822
   -44.0819 -44.0819 -44.0816 -44.0816 -44.0813 -44.0813 -44.0813 -44.0813
   -44.0812 -44.0812 -44.0810 -44.0810 -44.0807 -44.0807 -44.0806 -44.0806
   -44.0806 -44.0805 -44.0801 -44.0800 -44.0800 -44.0799 -44.0799 -44.0799
   -44.0798 -44.0797 -44.0797 -44.0796 -44.0796 -44.0796 -44.0796 -44.0795
   -44.0795 -44.0795 -44.0794 -44.0793 -44.0793 -44.0793 -44.0791 -44.0791
   -44.0791 -44.0791 -44.0790 -44.0790 -44.0790 -44.0789 -44.0789 -44.0789
   -44.0788 -44.0788 -44.0787 -44.0787 -44.0787 -44.0786 -44.0786 -44.0786
   -44.0786 -44.0785 -44.0785 -44.0785 -44.0785 -44.0784 -44.0782 -44.0781
   -44.0781 -44.0781 -44.0780 -44.0780 -44.0780 -44.0779 -44.0778 -44.0777
     2.1800   2.4691   2.9118   2.9118   2.9128   2.9778   2.9778   2.9906
     2.9979   2.9984   3.0066   3.0066   3.0245   3.0245   3.0309   3.0479
     3.0605   3.0605   3.0715   3.0715   3.0840   3.0840   3.0858   3.0946
     3.1092   3.1092   3.1549   3.1549   3.1561   3.1561   3.1640   3.1640
     3.1660   3.1660   3.2091   3.2091   3.2252   3.2252   3.2255   3.2255
     3.2702   3.2702   3.2964   3.2964   3.3021   3.3021   3.3061   3.3061
     3.3194   3.3374   3.3374   3.3475   3.3560   3.3560   3.3573   3.3573
     3.3637   3.3637   3.3652   3.3708   3.3790   3.3790   3.4181   3.4181
     3.4190   3.4259   3.4274   3.4274   3.4413   3.4479   3.4479   3.4566
     3.4569   3.4814   3.4814   3.4814   3.4814   3.4843   3.4843   3.4898
     3.4898   3.4899   3.4902   3.5026   3.5026   3.5074   3.5110   3.5334
     3.5334   3.5376   3.5376   3.5578   3.5673   3.5673   3.5716   3.5716
     3.6433   3.6433   3.6551   3.6551   3.6572   3.6610   3.6786   3.6786
     3.6801   3.6829   3.6829   3.6971   3.6971   3.7098   3.7098   3.7111
     3.7165   3.7165   3.7248   3.7248   3.7279   3.7478   3.7478   3.7560
     3.7560   3.7620   3.7638   3.7638   3.7711   3.7836   3.7891   3.8007
     3.8163   3.8164   3.8190   3.8190   3.8422   3.8422   3.8615   3.8659
     3.8692   3.8780   3.8780   3.8780   3.8780   3.8792   3.8792   3.8809
     3.8809   3.8849   3.8849   3.8853   3.8853   3.9250   3.9250   3.9257
     3.9313   3.9367   3.9367   3.9382   3.9382   3.9394   3.9394   3.9651
     3.9839   3.9839   3.9867   3.9867   4.1592   4.1592   4.5634   4.5634
     4.6077   4.8468   4.9129   4.9129   5.0692   5.5294   5.5294   5.8336
     5.8336   5.9918   6.1286   6.1287   6.4519   6.7843   6.9890   6.9890
     7.0083   7.0083   7.1389   7.2580   7.2580   7.5852   7.5852   7.6788
     7.6788   8.0873   8.0873   8.1140   8.6361   8.6361   8.7935   8.7935
     9.0395   9.0395   9.0613   9.0613   9.0657   9.1269   9.1269   9.2768
     9.2768   9.6216   9.6216  10.0109  10.3100  10.3303  10.3303  10.4590
    10.4590  10.6393

          k = 0.1184 0.1184-0.3551 ( 84138 PWs)   bands (ev):

   -78.3140 -78.3140 -78.3139 -78.3139 -78.3138 -78.3138 -78.3138 -78.3138
   -78.3138 -78.3137 -78.3137 -78.3137 -78.3137 -78.3137 -78.3137 -78.3137
   -78.3137 -78.3136 -78.3136 -78.3136 -78.3136 -78.3136 -78.3136 -78.3136
   -78.3136 -78.3136 -78.3136 -78.3135 -78.3135 -78.3135 -78.3135 -78.3134
   -44.0836 -44.0836 -44.0835 -44.0835 -44.0834 -44.0834 -44.0833 -44.0833
   -44.0833 -44.0833 -44.0831 -44.0830 -44.0829 -44.0829 -44.0828 -44.0828
   -44.0827 -44.0827 -44.0826 -44.0826 -44.0826 -44.0826 -44.0820 -44.0820
   -44.0820 -44.0820 -44.0815 -44.0815 -44.0815 -44.0814 -44.0810 -44.0810
   -44.0810 -44.0810 -44.0810 -44.0810 -44.0810 -44.0809 -44.0808 -44.0808
   -44.0808 -44.0808 -44.0800 -44.0799 -44.0799 -44.0799 -44.0798 -44.0798
   -44.0797 -44.0797 -44.0797 -44.0796 -44.0795 -44.0795 -44.0795 -44.0795
   -44.0794 -44.0794 -44.0794 -44.0794 -44.0793 -44.0793 -44.0793 -44.0793
   -44.0793 -44.0792 -44.0792 -44.0792 -44.0788 -44.0788 -44.0787 -44.0787
   -44.0787 -44.0787 -44.0787 -44.0787 -44.0786 -44.0786 -44.0786 -44.0786
   -44.0786 -44.0786 -44.0786 -44.0786 -44.0785 -44.0785 -44.0782 -44.0781
   -44.0780 -44.0780 -44.0780 -44.0780 -44.0779 -44.0779 -44.0777 -44.0777
     2.3113   2.3114   2.9456   2.9456   2.9691   2.9691   2.9692   2.9692
     3.0200   3.0200   3.0200   3.0200   3.0225   3.0225   3.0415   3.0415
     3.0415   3.0415   3.0449   3.0449   3.0561   3.0561   3.1049   3.1049
     3.1049   3.1050   3.1313   3.1313   3.1313   3.1313   3.1633   3.1633
     3.1633   3.1633   3.2233   3.2233   3.2233   3.2233   3.2789   3.2789
     3.2789   3.2789   3.2818   3.2818   3.2818   3.2818   3.3277   3.3278
     3.3278   3.3278   3.3334   3.3334   3.3334   3.3334   3.3475   3.3475
     3.3541   3.3541   3.3715   3.3715   3.3715   3.3715   3.4245   3.4245
     3.4331   3.4331   3.4331   3.4331   3.4625   3.4625   3.4733   3.4733
     3.4733   3.4733   3.4734   3.4734   3.4734   3.4734   3.4813   3.4813
     3.4822   3.4822   3.4950   3.4950   3.4950   3.4950   3.5090   3.5090
     3.5090   3.5090   3.5222   3.5222   3.5686   3.5686   3.5686   3.5686
[...]
     5.4080   5.4081   5.4081   5.4081   5.9884   5.9884   5.9884   5.9884
     5.9884   5.9884   5.9884   5.9884   6.6557   6.6557   6.6557   6.6557
     6.6557   6.6557   6.6557   6.6557   7.2096   7.2097   7.2097   7.2097
     8.2731   8.2731   8.2731   8.2731   8.2731   8.2731   8.2731   8.2731
     8.7815   8.7815   8.7815   8.7815   9.5141   9.5141   9.5141   9.5141
     9.9561   9.9561   9.9561   9.9561   9.9561   9.9561   9.9561   9.9561
    10.6938  10.6938

          k = 0.2762 0.2762 0.2762 ( 84266 PWs)   bands (ev):

   -78.3140 -78.3140 -78.3140 -78.3140 -78.3138 -78.3138 -78.3138 -78.3138
   -78.3137 -78.3137 -78.3137 -78.3137 -78.3137 -78.3137 -78.3137 -78.3137
   -78.3137 -78.3136 -78.3136 -78.3136 -78.3136 -78.3136 -78.3136 -78.3136
   -78.3136 -78.3136 -78.3136 -78.3136 -78.3135 -78.3135 -78.3135 -78.3134
   -44.0834 -44.0834 -44.0834 -44.0832 -44.0832 -44.0832 -44.0832 -44.0832
   -44.0832 -44.0832 -44.0831 -44.0831 -44.0831 -44.0831 -44.0831 -44.0831
   -44.0831 -44.0831 -44.0831 -44.0831 -44.0831 -44.0829 -44.0829 -44.0829
   -44.0820 -44.0811 -44.0811 -44.0811 -44.0808 -44.0808 -44.0808 -44.0807
   -44.0807 -44.0807 -44.0807 -44.0807 -44.0807 -44.0805 -44.0805 -44.0805
   -44.0802 -44.0802 -44.0802 -44.0800 -44.0800 -44.0800 -44.0800 -44.0800
   -44.0800 -44.0799 -44.0799 -44.0799 -44.0798 -44.0798 -44.0798 -44.0795
   -44.0795 -44.0795 -44.0794 -44.0794 -44.0794 -44.0794 -44.0794 -44.0794
   -44.0794 -44.0792 -44.0792 -44.0792 -44.0792 -44.0792 -44.0791 -44.0791
   -44.0791 -44.0791 -44.0791 -44.0791 -44.0791 -44.0790 -44.0790 -44.0789
   -44.0782 -44.0782 -44.0781 -44.0781 -44.0781 -44.0780 -44.0780 -44.0780
   -44.0779 -44.0779 -44.0778 -44.0778 -44.0778 -44.0778 -44.0777 -44.0777
     2.4801   2.7007   2.7007   2.7007   2.8308   2.8308   2.8308   2.8625
     3.0454   3.0454   3.0454   3.0622   3.0622   3.0622   3.0703   3.0703
     3.0703   3.0900   3.0900   3.0900   3.0900   3.0900   3.0900   3.0920
     3.0920   3.0920   3.0920   3.0920   3.0920   3.0964   3.0964   3.0964
     3.1752   3.1752   3.1752   3.2428   3.2428   3.2428   3.2638   3.2638
     3.2638   3.2638   3.2638   3.2638   3.3201   3.3201   3.3201   3.3201
     3.3201   3.3201   3.3250   3.3250   3.3250   3.3487   3.3487   3.3487
     3.4110   3.4222   3.4222   3.4222   3.4556   3.4556   3.4556   3.4572
     3.4572   3.4708   3.4708   3.4802   3.4802   3.4802   3.4884   3.4884
     3.4884   3.4983   3.4983   3.4983   3.5344   3.5344   3.5344   3.5344
     3.5344   3.5344   3.5765   3.5765   3.5765   3.5810   3.5810   3.5810
     3.5857   3.5857   3.5857   3.5857   3.5857   3.5857   3.5950   3.5950
     3.5950   3.6081   3.6081   3.6081   3.6134   3.6134   3.6134   3.6505
     3.6505   3.6505   3.6593   3.6593   3.6593   3.6593   3.6593   3.6593
     3.6888   3.6888   3.6888   3.7047   3.7047   3.7047   3.7187   3.7187
     3.7262   3.7262   3.7262   3.7262   3.7262   3.7262   3.7334   3.7334
     3.7334   3.7406   3.7406   3.7406   3.7640   3.7640   3.7640   3.7777
     3.7777   3.7777   3.8129   3.8129   3.8901   3.8901   3.8901   3.9389
     3.9409   3.9409   3.9409   3.9494   3.9494   3.9494   3.9494   3.9494
     3.9494   3.9554   3.9554   3.9554   3.9554   3.9554   3.9554   3.9584
     3.9584   3.9584   3.9588   3.9588   3.9588   3.9711   3.9711   3.9711
     5.5107   5.5107   5.5107   5.8550   5.8550   5.8550   5.8550   5.8550
     5.8550   6.1860   6.1860   6.1860   6.4235   6.4235   6.4235   6.7601
     6.7601   6.7601   6.7601   6.7601   6.7601   7.0648   7.0648   7.0648
     8.1232   8.1233   8.1233   8.4079   8.4079   8.4079   8.9507   8.9507
     8.9507   8.9507   8.9507   8.9507   9.3158   9.3158   9.3158   9.3158
     9.3158   9.3158   9.6717   9.6717   9.6717  10.1660  10.1661  10.1661
    10.6958  11.2425

          k = 0.2762 0.2762-0.3551 ( 84238 PWs)   bands (ev):

   -78.3140 -78.3140 -78.3140 -78.3140 -78.3138 -78.3138 -78.3138 -78.3138
   -78.3137 -78.3137 -78.3137 -78.3137 -78.3137 -78.3137 -78.3137 -78.3137
   -78.3137 -78.3136 -78.3136 -78.3136 -78.3136 -78.3136 -78.3136 -78.3136
   -78.3136 -78.3136 -78.3136 -78.3136 -78.3135 -78.3135 -78.3135 -78.3134
   -44.0834 -44.0834 -44.0833 -44.0833 -44.0833 -44.0832 -44.0832 -44.0832
   -44.0832 -44.0832 -44.0832 -44.0832 -44.0832 -44.0832 -44.0831 -44.0831
   -44.0831 -44.0831 -44.0830 -44.0830 -44.0830 -44.0830 -44.0830 -44.0830
   -44.0816 -44.0815 -44.0808 -44.0808 -44.0808 -44.0807 -44.0807 -44.0807
   -44.0807 -44.0807 -44.0807 -44.0806 -44.0806 -44.0806 -44.0804 -44.0804
   -44.0803 -44.0803 -44.0803 -44.0802 -44.0802 -44.0802 -44.0799 -44.0799
   -44.0799 -44.0799 -44.0799 -44.0799 -44.0799 -44.0799 -44.0798 -44.0798
   -44.0795 -44.0795 -44.0794 -44.0794 -44.0794 -44.0794 -44.0793 -44.0793
   -44.0793 -44.0793 -44.0793 -44.0793 -44.0793 -44.0792 -44.0792 -44.0792
   -44.0792 -44.0791 -44.0791 -44.0791 -44.0791 -44.0790 -44.0790 -44.0790
   -44.0781 -44.0781 -44.0781 -44.0781 -44.0781 -44.0780 -44.0780 -44.0780
   -44.0779 -44.0779 -44.0778 -44.0778 -44.0778 -44.0778 -44.0778 -44.0777
     2.5839   2.5840   2.7646   2.7646   2.7646   2.7646   2.8444   2.8444
     3.0585   3.0585   3.0634   3.0634   3.0634   3.0634   3.0746   3.0746
     3.0746   3.0746   3.0779   3.0779   3.0779   3.0779   3.0829   3.0829
     3.0900   3.0900   3.0900   3.0900   3.0935   3.0935   3.0935   3.0935
     3.2058   3.2058   3.2208   3.2208   3.2208   3.2208   3.2866   3.2866
     3.2866   3.2866   3.2895   3.2895   3.2895   3.2895   3.2989   3.2989
     3.2990   3.2990   3.3346   3.3346   3.3399   3.3399   3.3399   3.3399
     3.4237   3.4237   3.4538   3.4538   3.4538   3.4538   3.4621   3.4621
     3.4657   3.4657   3.4774   3.4774   3.4819   3.4819   3.4821   3.4821
     3.4821   3.4822   3.5322   3.5322   3.5322   3.5322   3.5587   3.5587
     3.5587   3.5587   3.5661   3.5661   3.5661   3.5661   3.5710   3.5710
     3.5710   3.5710   3.5843   3.5843   3.5843   3.5843   3.5916   3.5916
     3.6128   3.6128   3.6152   3.6152   3.6152   3.6152   3.6475   3.6475
     3.6475   3.6475   3.6619   3.6619   3.6695   3.6695   3.6695   3.6695
     3.6836   3.6836   3.6836   3.6836   3.6939   3.6939   3.6939   3.6939
     3.7154   3.7154   3.7245   3.7245   3.7271   3.7272   3.7394   3.7395
     3.7395   3.7395   3.7431   3.7431   3.7431   3.7431   3.7469   3.7469
     3.7737   3.7737   3.8148   3.8148   3.8148   3.8148   3.8737   3.8737
     3.9505   3.9505   3.9505   3.9505   3.9528   3.9528   3.9551   3.9551
     3.9551   3.9551   3.9580   3.9580   3.9580   3.9580   3.9584   3.9584
     3.9584   3.9584   3.9650   3.9650   3.9650   3.9650   3.9678   3.9678
     5.6673   5.6673   5.6674   5.6674   5.9504   5.9504   6.0036   6.0037
     6.0037   6.0037   6.2949   6.2949   6.2949   6.2949   6.5784   6.5784
     6.5784   6.5784   6.6258   6.6258   6.9034   6.9034   6.9034   6.9034
     8.2313   8.2314   8.5199   8.5199   8.5199   8.5199   8.8480   8.8480
     8.8480   8.8480   9.1150   9.1150   9.1150   9.1150   9.3142   9.3143
     9.3143   9.3143   9.7308   9.7308   9.7308   9.7308   9.9194   9.9195
    11.1480  11.1487

          k = 0.2762-0.3551-0.3551 ( 84284 PWs)   bands (ev):

   -78.3140 -78.3140 -78.3140 -78.3140 -78.3138 -78.3138 -78.3138 -78.3138
   -78.3137 -78.3137 -78.3137 -78.3137 -78.3137 -78.3137 -78.3137 -78.3137
   -78.3137 -78.3136 -78.3136 -78.3136 -78.3136 -78.3136 -78.3136 -78.3136
   -78.3136 -78.3136 -78.3136 -78.3136 -78.3135 -78.3135 -78.3135 -78.3134
   -44.0833 -44.0833 -44.0833 -44.0833 -44.0833 -44.0833 -44.0833 -44.0833
   -44.0832 -44.0832 -44.0832 -44.0832 -44.0831 -44.0831 -44.0831 -44.0831
   -44.0831 -44.0831 -44.0831 -44.0831 -44.0831 -44.0831 -44.0831 -44.0831
   -44.0812 -44.0812 -44.0812 -44.0811 -44.0807 -44.0807 -44.0807 -44.0807
   -44.0804 -44.0804 -44.0803 -44.0803 -44.0803 -44.0803 -44.0803 -44.0803
   -44.0803 -44.0803 -44.0803 -44.0803 -44.0803 -44.0803 -44.0803 -44.0803
   -44.0802 -44.0802 -44.0802 -44.0802 -44.0799 -44.0799 -44.0799 -44.0799
   -44.0794 -44.0794 -44.0794 -44.0793 -44.0793 -44.0793 -44.0793 -44.0793
   -44.0793 -44.0793 -44.0793 -44.0793 -44.0792 -44.0792 -44.0792 -44.0792
   -44.0792 -44.0791 -44.0791 -44.0791 -44.0791 -44.0791 -44.0791 -44.0791
   -44.0781 -44.0781 -44.0781 -44.0780 -44.0779 -44.0779 -44.0779 -44.0779
   -44.0779 -44.0779 -44.0779 -44.0779 -44.0778 -44.0778 -44.0778 -44.0777
     2.6708   2.6708   2.6708   2.6708   2.8034   2.8034   2.8034   2.8035
     3.0721   3.0721   3.0721   3.0721   3.0721   3.0721   3.0721   3.0721
     3.0728   3.0728   3.0728   3.0728   3.0734   3.0735   3.0735   3.0735
     3.0855   3.0855   3.0855   3.0855   3.0855   3.0855   3.0855   3.0855
     3.2505   3.2505   3.2505   3.2505   3.2505   3.2505   3.2505   3.2505
     3.2629   3.2629   3.2629   3.2629   3.3178   3.3178   3.3178   3.3178
     3.3178   3.3178   3.3178   3.3178   3.3207   3.3207   3.3207   3.3207
     3.4540   3.4540   3.4540   3.4540   3.4650   3.4650   3.4650   3.4650
     3.4726   3.4726   3.4726   3.4726   3.4766   3.4766   3.4766   3.4766
     3.4965   3.4965   3.4965   3.4965   3.5701   3.5701   3.5701   3.5701
     3.5734   3.5734   3.5734   3.5734   3.5734   3.5734   3.5734   3.5734
     3.6103   3.6103   3.6103   3.6103   3.6103   3.6103   3.6103   3.6103
     3.6209   3.6210   3.6210   3.6210   3.6243   3.6243   3.6243   3.6243
     3.6309   3.6309   3.6309   3.6309   3.6483   3.6483   3.6483   3.6483
     3.6483   3.6483   3.6483   3.6483   3.7063   3.7063   3.7063   3.7064
     3.7073   3.7073   3.7073   3.7073   3.7073   3.7073   3.7073   3.7073
     3.7214   3.7214   3.7214   3.7214   3.7690   3.7690   3.7690   3.7690
     3.7877   3.7877   3.7877   3.7877   3.7930   3.7930   3.7930   3.7930
     3.9575   3.9575   3.9575   3.9575   3.9575   3.9575   3.9575   3.9575
     3.9599   3.9599   3.9599   3.9599   3.9625   3.9625   3.9625   3.9625
     3.9644   3.9644   3.9644   3.9644   3.9644   3.9644   3.9644   3.9644
     5.8192   5.8192   5.8192   5.8192   6.1077   6.1077   6.1077   6.1078
     6.1078   6.1078   6.1078   6.1078   6.4450   6.4450   6.4450   6.4450
     6.4450   6.4450   6.4450   6.4450   6.7281   6.7282   6.7282   6.7282
     8.6595   8.6595   8.6595   8.6595   8.6595   8.6595   8.6595   8.6595
     8.9093   8.9093   8.9093   8.9093   9.2770   9.2770   9.2770   9.2770
     9.5114   9.5114   9.5114   9.5114   9.5114   9.5114   9.5114   9.5114
    11.3528  11.3528

          k =-0.3551-0.3551-0.3551 ( 84368 PWs)   bands (ev):

   -78.3140 -78.3140 -78.3140 -78.3140 -78.3138 -78.3138 -78.3138 -78.3138
   -78.3138 -78.3137 -78.3137 -78.3137 -78.3137 -78.3137 -78.3137 -78.3137
   -78.3137 -78.3136 -78.3136 -78.3136 -78.3136 -78.3136 -78.3136 -78.3136
   -78.3136 -78.3136 -78.3136 -78.3136 -78.3135 -78.3135 -78.3135 -78.3134
   -44.0833 -44.0833 -44.0833 -44.0832 -44.0832 -44.0832 -44.0832 -44.0832
   -44.0832 -44.0832 -44.0832 -44.0832 -44.0832 -44.0832 -44.0832 -44.0832
   -44.0832 -44.0832 -44.0832 -44.0832 -44.0832 -44.0831 -44.0831 -44.0831
   -44.0807 -44.0807 -44.0807 -44.0807 -44.0806 -44.0806 -44.0806 -44.0806
   -44.0804 -44.0804 -44.0804 -44.0804 -44.0803 -44.0803 -44.0803 -44.0803
   -44.0803 -44.0803 -44.0803 -44.0803 -44.0803 -44.0803 -44.0803 -44.0803
   -44.0803 -44.0803 -44.0803 -44.0803 -44.0803 -44.0803 -44.0803 -44.0803
   -44.0794 -44.0794 -44.0794 -44.0793 -44.0793 -44.0793 -44.0793 -44.0793
   -44.0793 -44.0793 -44.0793 -44.0793 -44.0793 -44.0793 -44.0793 -44.0793
   -44.0793 -44.0793 -44.0792 -44.0792 -44.0792 -44.0792 -44.0792 -44.0792
   -44.0780 -44.0780 -44.0780 -44.0780 -44.0780 -44.0780 -44.0780 -44.0780
   -44.0779 -44.0779 -44.0779 -44.0779 -44.0779 -44.0779 -44.0779 -44.0779
     2.7357   2.7357   2.7357   2.7357   2.7357   2.7357   2.7357   2.7357
     3.0755   3.0755   3.0755   3.0755   3.0755   3.0755   3.0755   3.0755
     3.0755   3.0755   3.0755   3.0755   3.0755   3.0755   3.0755   3.0755
     3.0755   3.0755   3.0755   3.0755   3.0755   3.0755   3.0755   3.0755
     3.2893   3.2893   3.2893   3.2893   3.2893   3.2893   3.2893   3.2893
     3.2893   3.2893   3.2893   3.2893   3.2893   3.2893   3.2893   3.2894
     3.2894   3.2894   3.2894   3.2894   3.2894   3.2894   3.2894   3.2894
     3.4720   3.4720   3.4720   3.4720   3.4720   3.4720   3.4720   3.4720
     3.4720   3.4720   3.4720   3.4720   3.4720   3.4720   3.4720   3.4720
     3.5544   3.5544   3.5544   3.5544   3.5544   3.5544   3.5544   3.5544
     3.5949   3.5949   3.5949   3.5949   3.5949   3.5949   3.5949   3.5949
     3.5949   3.5949   3.5949   3.5949   3.5949   3.5950   3.5950   3.5950
     3.5950   3.5950   3.5950   3.5950   3.5950   3.5950   3.5950   3.5950
     3.6686   3.6686   3.6686   3.6686   3.6686   3.6686   3.6686   3.6686
     3.6686   3.6686   3.6686   3.6686   3.6686   3.6686   3.6686   3.6686
     3.6686   3.6686   3.6686   3.6686   3.6686   3.6686   3.6686   3.6686
     3.7567   3.7567   3.7567   3.7567   3.7567   3.7567   3.7567   3.7567
     3.7567   3.7567   3.7567   3.7567   3.7567   3.7567   3.7567   3.7567
     3.9643   3.9643   3.9643   3.9643   3.9643   3.9643   3.9643   3.9643
     3.9643   3.9643   3.9643   3.9643   3.9643   3.9643   3.9643   3.9643
     3.9643   3.9643   3.9643   3.9643   3.9643   3.9643   3.9643   3.9643
     6.2610   6.2610   6.2610   6.2610   6.2610   6.2610   6.2610   6.2610
     6.2610   6.2610   6.2610   6.2610   6.2611   6.2611   6.2611   6.2611
     6.2611   6.2611   6.2611   6.2611   6.2611   6.2611   6.2611   6.2611
     9.0749   9.0749   9.0749   9.0749   9.0749   9.0749   9.0749   9.0749
     9.0749   9.0749   9.0749   9.0749   9.0749   9.0749   9.0749   9.0749
     9.0749   9.0749   9.0749   9.0749   9.0749   9.0749   9.0749   9.0749
    12.0502  12.0533

     the Fermi energy is     4.1494 ev

!    total energy              =  -16378.98913519 Ry

     total all-electron energy =   -322939.842842 Ry
     estimated scf accuracy    <       0.00000071 Ry
     smearing contrib. (-TS)   =       0.82349757 Ry
     internal energy E=F+TS    =  -16379.81263275 Ry

     The total energy is F=E-TS. E is the sum of the following terms:
     one-electron contribution =   -5345.95532239 Ry
     hartree contribution      =    2802.93187823 Ry
     xc contribution           =    -980.58873494 Ry
     ewald contribution        =   -4689.41406908 Ry
     one-center paw contrib.   =   -8166.78638456 Ry

     convergence has been achieved in  26 iterations

     Forces acting on atoms (cartesian axes, Ry/au):

     atom    1 type  1   force =     0.00000000    0.00000000    0.00000000
     atom    2 type  1   force =    -0.00010726   -0.00010726    0.00000000
     atom    3 type  1   force =    -0.00010726    0.00000000   -0.00010726
     atom    4 type  1   force =    -0.00000000   -0.00010726   -0.00010726
     atom    5 type  1   force =     0.00000000    0.00000000    0.00000000
     atom    6 type  1   force =    -0.00012795   -0.00012795   -0.00000000
     atom    7 type  1   force =    -0.00010726    0.00000000    0.00010726
     atom    8 type  1   force =     0.00000000   -0.00010726    0.00010726
     atom    9 type  1   force =     0.00000000    0.00000000    0.00000000
     atom   10 type  1   force =    -0.00010726    0.00010726   -0.00000000
     atom   11 type  1   force =    -0.00012795    0.00000000   -0.00012795
     atom   12 type  1   force =     0.00000000    0.00010726   -0.00010726
     atom   13 type  1   force =     0.00000000    0.00000000    0.00000000
     atom   14 type  1   force =    -0.00012795    0.00012795    0.00000000
     atom   15 type  1   force =    -0.00012795   -0.00000000    0.00012795
     atom   16 type  1   force =    -0.00000000    0.00010726    0.00010726
     atom   17 type  1   force =     0.00000000    0.00000000    0.00000000
     atom   18 type  1   force =     0.00010726   -0.00010726   -0.00000000
     atom   19 type  1   force =     0.00010726    0.00000000   -0.00010726
     atom   20 type  1   force =    -0.00000000   -0.00012795   -0.00012795
     atom   21 type  1   force =     0.00000000    0.00000000    0.00000000
     atom   22 type  1   force =     0.00012795   -0.00012795    0.00000000
     atom   23 type  1   force =     0.00010726    0.00000000    0.00010726
     atom   24 type  1   force =     0.00000000   -0.00012795    0.00012795
     atom   25 type  1   force =     0.00000000    0.00000000    0.00000000
     atom   26 type  1   force =     0.00010726    0.00010726    0.00000000
     atom   27 type  1   force =     0.00012795    0.00000000   -0.00012795
     atom   28 type  1   force =    -0.00000000    0.00012795   -0.00012795
     atom   29 type  1   force =     0.00000000    0.00000000    0.00000000
     atom   30 type  1   force =     0.00012795    0.00012795   -0.00000000
     atom   31 type  1   force =     0.00012795    0.00000000    0.00012795
     atom   32 type  1   force =     0.00000000    0.00012795    0.00012795

     Total force =     0.000818     Total SCF correction =     0.000584
     SCF correction compared to forces is large: reduce conv_thr to get better values


     Computing stress (Cartesian axis) and pressure

          total   stress  (Ry/bohr**3)                   (kbar)     P=     -121.85
  -0.00082835   0.00000000   0.00000000         -121.85        0.00        0.00
   0.00000000  -0.00082835   0.00000000            0.00     -121.85        0.00
   0.00000000   0.00000000  -0.00082835            0.00        0.00     -121.85


     Writing output data file /scratch/LiNDRsUkRIFNWwVz.save/
 
     init_run     :     44.64s CPU     45.51s WALL (       1 calls)
     electrons    :   1941.20s CPU   1974.09s WALL (       1 calls)
     forces       :      9.72s CPU      9.82s WALL (       1 calls)
     stress       :    123.15s CPU    123.88s WALL (       1 calls)

     Called by init_run:
     wfcinit      :     43.01s CPU     43.73s WALL (       1 calls)
     potinit      :      0.18s CPU      0.20s WALL (       1 calls)
     hinit0       :      0.48s CPU      0.49s WALL (       1 calls)

     Called by electrons:
     c_bands      :   1696.90s CPU   1723.20s WALL (      26 calls)
     sum_band     :    238.24s CPU    243.90s WALL (      26 calls)
     v_of_rho     :      0.98s CPU      1.04s WALL (      27 calls)
     newd         :      1.93s CPU      2.63s WALL (      27 calls)
     PAW_pot      :      2.36s CPU      2.47s WALL (      27 calls)
     mix_rho      :      0.29s CPU      0.33s WALL (      26 calls)

     Called by c_bands:
     init_us_2    :     10.21s CPU     10.32s WALL (    1925 calls)
     cegterg      :   1658.15s CPU   1683.63s WALL (     910 calls)

     Called by *egterg:
     cdiaghg      :    120.16s CPU    121.71s WALL (    2689 calls)
     h_psi        :    874.02s CPU    887.73s WALL (    2724 calls)
     s_psi        :     77.66s CPU     78.26s WALL (    2724 calls)
     g_psi        :      2.91s CPU      2.95s WALL (    1779 calls)

     Called by h_psi:
     h_psi:calbec :    119.51s CPU    120.65s WALL (    2724 calls)
     vloc_psi     :    670.21s CPU    681.83s WALL (    2724 calls)
     add_vuspsi   :     77.87s CPU     78.58s WALL (    2724 calls)

     General routines
     calbec       :    187.54s CPU    189.16s WALL (    3809 calls)
     fft          :      1.26s CPU      1.30s WALL (     374 calls)
     ffts         :      0.32s CPU      0.33s WALL (      53 calls)
     fftw         :    806.60s CPU    821.72s WALL ( 1690702 calls)
     interpolate  :      0.36s CPU      0.37s WALL (      27 calls)
 
     Parallel routines
     fft_scatt_xy :     63.26s CPU     63.98s WALL ( 1691129 calls)
     fft_scatt_yz :    623.32s CPU    636.49s WALL ( 1691129 calls)
 
     PWSCF        :  35m35.75s CPU  36m15.58s WALL

 
   This run was terminated on:  21:49:56  26Nov2021            

=------------------------------------------------------------------------------=
   JOB DONE.
=------------------------------------------------------------------------------=
