
     Program PWSCF v.6.7MaX starts on 20Mar2022 at 20:12:16 

     This program is part of the open-source Quantum ESPRESSO suite
     for quantum simulation of materials; please cite
         "P. Giannozzi et al., J. Phys.:Condens. Matter 21 395502 (2009);
         "P. Giannozzi et al., J. Phys.:Condens. Matter 29 465901 (2017);
          URL http://www.quantum-espresso.org", 
     in publications or presentations arising from this work. More details at
     http://www.quantum-espresso.org/quote

     Parallel version (MPI & OpenMP), running on      72 processor cores
     Number of MPI processes:                72
     Threads/MPI process:                     1

     MPI processes distributed on     1 nodes
     R & G space division:  proc/nbgrp/npool/nimage =      72
     Reading input from pd_0009.in
Warning: card &CELL ignored
Warning: card CELL_DYNAMICS = 'BFGS', ignored
Warning: card CELL_FACTOR = 2.0, ignored
Warning: card PRESS = 0.0, ignored
Warning: card / ignored

     Current dimensions of program PWSCF are:
     Max number of different atomic species (ntypx) = 10
     Max number of k-points (npk) =  40000
     Max angular momentum in pseudopotentials (lmaxx) =  3
     file Pd.pbe-spn-kjpaw_psl.1.0.0.UPF: wavefunction(s)  4S 5S 4D renormalized

     Subspace diagonalization in iterative solution of the eigenvalue problem:
     one sub-group per band group will be used
     ELPA distributed-memory algorithm (size of sub-group:  8*  8 procs)

 
     Parallelization info
     --------------------
     sticks:   dense  smooth     PW     G-vecs:    dense   smooth      PW
     Min         104      68     18                 6832     3663     516
     Max         105      70     19                 6839     3671     525
     Sum        7521    4973   1353               492177   264147   37529
 


     bravais-lattice index     =            0
     lattice parameter (alat)  =      14.8443  a.u.
     unit-cell volume          =    3271.0009 (a.u.)^3
     number of atoms/cell      =           32
     number of atomic types    =            1
     number of electrons       =       576.00
     number of Kohn-Sham states=          346
     kinetic-energy cutoff     =      71.0000  Ry
     charge density cutoff     =     430.0000  Ry
     scf convergence threshold =      1.0E-08
     mixing beta               =       0.3000
     number of iterations used =           10  local-TF  mixing
     Exchange-correlation= SLA  PW   PBX  PBC
                           (   1   4   3   4   0   0   0)

     celldm(1)=  14.844317  celldm(2)=   0.000000  celldm(3)=   0.000000
     celldm(4)=   0.000000  celldm(5)=   0.000000  celldm(6)=   0.000000

     crystal axes: (cart. coord. in units of alat)
               a(1) = (   1.000000   0.000000   0.000000 )  
               a(2) = (   0.000000   1.000000   0.000000 )  
               a(3) = (   0.000000   0.000000   1.000000 )  

     reciprocal axes: (cart. coord. in units 2 pi/alat)
               b(1) = (  1.000000  0.000000  0.000000 )  
               b(2) = (  0.000000  1.000000  0.000000 )  
               b(3) = (  0.000000  0.000000  1.000000 )  


     PseudoPot. # 1 for Pd read from file:
     /rds/homes/b/bxp912/pp/Pd.pbe-spn-kjpaw_psl.1.0.0.UPF
     MD5 check sum: 790f2ebce206edfd9790dcb9844eca51
     Pseudo is Projector augmented-wave + core cor, Zval = 18.0
     Generated using &quot;atomic&quot; code by A. Dal Corso  v.6.3
     Shape of augmentation charge: PSQ
     Using radial grid of 1235 points,  6 beta functions with: 
                l(1) =   0
                l(2) =   0
                l(3) =   1
                l(4) =   1
                l(5) =   2
                l(6) =   2
     Q(r) pseudized with 0 coefficients 


     atomic species   valence    mass     pseudopotential
        Pd            18.00   106.42000     Pd( 1.00)

     No symmetry found



   Cartesian axes

     site n.     atom                  positions (alat units)
         1           Pd  tau(   1) = (   0.9995770   0.9999690   0.9998660  )
         2           Pd  tau(   2) = (   0.2505650   0.2497280   0.0004950  )
         3           Pd  tau(   3) = (   0.2499050   0.9995840   0.2494420  )
         4           Pd  tau(   4) = (   0.0000430   0.2498430   0.2504480  )
         5           Pd  tau(   5) = (   0.0000790   0.0001180   0.4999370  )
         6           Pd  tau(   6) = (   0.2499620   0.2500670   0.5002810  )
         7           Pd  tau(   7) = (   0.2499280   0.9997330   0.7500490  )
         8           Pd  tau(   8) = (   0.0001590   0.2501490   0.7497500  )
         9           Pd  tau(   9) = (   0.0001310   0.5003140   0.9999620  )
        10           Pd  tau(  10) = (   0.2500700   0.7497120   0.0000020  )
        11           Pd  tau(  11) = (   0.2496470   0.5000510   0.2503530  )
        12           Pd  tau(  12) = (   0.0002000   0.7497940   0.2499440  )
        13           Pd  tau(  13) = (   0.0000870   0.5000930   0.4998220  )
        14           Pd  tau(  14) = (   0.2501580   0.7497730   0.5001560  )
        15           Pd  tau(  15) = (   0.2499600   0.5001960   0.7498500  )
        16           Pd  tau(  16) = (   0.9996350   0.7495530   0.7500800  )
        17           Pd  tau(  17) = (   0.4997550   0.9996880   0.9999450  )
        18           Pd  tau(  18) = (   0.7498340   0.2499340   0.9997300  )
        19           Pd  tau(  19) = (   0.7503250   0.9997670   0.2495520  )
        20           Pd  tau(  20) = (   0.4998780   0.2499100   0.2500190  )
        21           Pd  tau(  21) = (   0.5003500   0.0001580   0.4997270  )
        22           Pd  tau(  22) = (   0.7499040   0.2500240   0.4998510  )
        23           Pd  tau(  23) = (   0.7498460   0.9997870   0.7499850  )
        24           Pd  tau(  24) = (   0.4998310   0.2496440   0.7500170  )
        25           Pd  tau(  25) = (   0.4998820   0.4999110   0.0001030  )
        26           Pd  tau(  26) = (   0.7496270   0.7500890   0.9997690  )
        27           Pd  tau(  27) = (   0.7499560   0.4999550   0.2502790  )
        28           Pd  tau(  28) = (   0.5002420   0.7501910   0.2501450  )
        29           Pd  tau(  29) = (   0.5001780   0.5000900   0.5000060  )
        30           Pd  tau(  30) = (   0.7498400   0.7501250   0.4997790  )
        31           Pd  tau(  31) = (   0.7497250   0.5000990   0.7502280  )
        32           Pd  tau(  32) = (   0.5000720   0.7504450   0.7495630  )

     number of k points=   365  Marzari-Vanderbilt smearing, width (Ry)=  0.0400

     Number of k-points >= 100: set verbosity='high' to print them.

     Dense  grid:   492177 G-vectors     FFT dimensions: ( 100, 100, 100)

     Smooth grid:   264147 G-vectors     FFT dimensions: (  80,  80,  80)

     Estimated max dynamical RAM per process >     924.68 MB

     Estimated total dynamical RAM >      65.02 GB

     Check: negative core charge=   -0.000002

     Initial potential from superposition of free atoms

     starting charge  575.98776, renormalised to  576.00000
     Starting wfcs are  320 randomized atomic wfcs +   26 random wfcs
     Checking if some PAW data can be deallocated... 

     total cpu time spent up to now is      115.0 secs

     Self-consistent Calculation

     iteration #  1     ecut=    71.00 Ry     beta= 0.30
     Davidson diagonalization with overlap
     ethr =  1.00E-02,  avg # of iterations =  3.0

     Threshold (ethr) on eigenvalues was too large:
     Diagonalizing with lowered threshold

     Davidson diagonalization with overlap
     ethr =  8.96E-05,  avg # of iterations =  4.4

     total cpu time spent up to now is      926.8 secs

     total energy              =  -16384.99191692 Ry
     estimated scf accuracy    <       0.47936408 Ry

     iteration #  2     ecut=    71.00 Ry     beta= 0.30
     Davidson diagonalization with overlap
     ethr =  8.32E-05,  avg # of iterations =  1.5

     total cpu time spent up to now is     1245.0 secs

     total energy              =  -16384.93577299 Ry
     estimated scf accuracy    <       0.18078883 Ry

     iteration #  3     ecut=    71.00 Ry     beta= 0.30
     Davidson diagonalization with overlap
     ethr =  3.14E-05,  avg # of iterations =  3.2

     total cpu time spent up to now is     1643.5 secs

     total energy              =  -16384.95903351 Ry
     estimated scf accuracy    <       0.00749127 Ry

     iteration #  4     ecut=    71.00 Ry     beta= 0.30
     Davidson diagonalization with overlap
     c_bands:  2 eigenvalues not converged
     c_bands:  1 eigenvalues not converged
     ethr =  1.30E-06,  avg # of iterations =  5.8

     total cpu time spent up to now is     2047.0 secs

     total energy              =  -16384.95809725 Ry
     estimated scf accuracy    <       0.00256294 Ry

     iteration #  5     ecut=    71.00 Ry     beta= 0.30
     Davidson diagonalization with overlap
     ethr =  4.45E-07,  avg # of iterations =  2.0

     total cpu time spent up to now is     2422.3 secs

     total energy              =  -16384.95835403 Ry
     estimated scf accuracy    <       0.00007456 Ry

     iteration #  6     ecut=    71.00 Ry     beta= 0.30
     Davidson diagonalization with overlap
     ethr =  1.29E-08,  avg # of iterations =  4.0

     total cpu time spent up to now is     2923.1 secs

     total energy              =  -16384.95837504 Ry
     estimated scf accuracy    <       0.00003733 Ry

     iteration #  7     ecut=    71.00 Ry     beta= 0.30
     Davidson diagonalization with overlap
     ethr =  6.48E-09,  avg # of iterations =  2.0

     total cpu time spent up to now is     3272.5 secs

     total energy              =  -16384.95837829 Ry
     estimated scf accuracy    <       0.00000438 Ry

     iteration #  8     ecut=    71.00 Ry     beta= 0.30
     Davidson diagonalization with overlap
     ethr =  7.60E-10,  avg # of iterations =  2.0

     total cpu time spent up to now is     3628.9 secs

     total energy              =  -16384.95837906 Ry
     estimated scf accuracy    <       0.00000030 Ry

     iteration #  9     ecut=    71.00 Ry     beta= 0.30
     Davidson diagonalization with overlap
     ethr =  5.13E-11,  avg # of iterations =  4.0

     total cpu time spent up to now is     4025.8 secs

     total energy              =  -16384.95837907 Ry
     estimated scf accuracy    <       0.00000007 Ry

     iteration # 10     ecut=    71.00 Ry     beta= 0.30
     Davidson diagonalization with overlap
     ethr =  1.25E-11,  avg # of iterations =  2.0

     total cpu time spent up to now is     4390.5 secs

     End of self-consistent calculation

     Number of k-points >= 100: set verbosity='high' to print the bands.

     the Fermi energy is    19.2727 ev

!    total energy              =  -16384.95837927 Ry

     total all-electron energy =   -322945.812086 Ry
     estimated scf accuracy    <          2.7E-09 Ry
     smearing contrib. (-TS)   =       0.03318406 Ry
     internal energy E=F+TS    =  -16384.99156333 Ry

     The total energy is F=E-TS. E is the sum of the following terms:
     one-electron contribution =   -2487.82211165 Ry
     hartree contribution      =    1661.33362513 Ry
     xc contribution           =    -986.50609790 Ry
     ewald contribution        =   -6404.57103570 Ry
     one-center paw contrib.   =   -8167.42594321 Ry

     convergence has been achieved in  10 iterations

     Forces acting on atoms (cartesian axes, Ry/au):

     atom    1 type  1   force =     0.00110236    0.00019388   -0.00028343
     atom    2 type  1   force =    -0.00199785    0.00080885   -0.00124638
     atom    3 type  1   force =     0.00001169    0.00052896    0.00172285
     atom    4 type  1   force =    -0.00010499    0.00032930   -0.00162830
     atom    5 type  1   force =     0.00001210   -0.00093095    0.00033460
     atom    6 type  1   force =     0.00056833   -0.00067350   -0.00072170
     atom    7 type  1   force =    -0.00051700    0.00025794   -0.00013977
     atom    8 type  1   force =    -0.00032029   -0.00020017    0.00107766
     atom    9 type  1   force =    -0.00045211   -0.00169883    0.00038279
     atom   10 type  1   force =    -0.00003478    0.00024213   -0.00036521
     atom   11 type  1   force =     0.00124632   -0.00024712   -0.00070603
     atom   12 type  1   force =    -0.00071095    0.00050768    0.00008072
     atom   13 type  1   force =    -0.00086794   -0.00012254    0.00079592
     atom   14 type  1   force =    -0.00034031    0.00114295   -0.00046324
     atom   15 type  1   force =     0.00058911   -0.00064760    0.00073788
     atom   16 type  1   force =     0.00055074    0.00118130   -0.00060432
     atom   17 type  1   force =     0.00059823    0.00037699    0.00011366
     atom   18 type  1   force =     0.00053678    0.00042315    0.00064926
     atom   19 type  1   force =    -0.00043995    0.00072480    0.00061172
     atom   20 type  1   force =     0.00032992   -0.00003249    0.00021871
     atom   21 type  1   force =    -0.00114098    0.00002751   -0.00010425
     atom   22 type  1   force =     0.00013437   -0.00012515    0.00056045
     atom   23 type  1   force =     0.00074024    0.00084291   -0.00039041
     atom   24 type  1   force =     0.00018480    0.00076960   -0.00020801
     atom   25 type  1   force =     0.00004449    0.00032201   -0.00003620
     atom   26 type  1   force =     0.00041253   -0.00079132    0.00069231
     atom   27 type  1   force =     0.00020841   -0.00003636   -0.00122736
     atom   28 type  1   force =    -0.00069576   -0.00072778   -0.00040555
     atom   29 type  1   force =    -0.00043831   -0.00051949    0.00013335
     atom   30 type  1   force =     0.00097090   -0.00019079    0.00032186
     atom   31 type  1   force =     0.00026260   -0.00053698   -0.00068213
     atom   32 type  1   force =    -0.00044273   -0.00119888    0.00077853

     Total force =     0.006734     Total SCF correction =     0.000114


     Computing stress (Cartesian axis) and pressure

          total   stress  (Ry/bohr**3)                   (kbar)     P=        0.10
   0.00000067   0.00000002  -0.00000002            0.10        0.00       -0.00
   0.00000002   0.00000067  -0.00000002            0.00        0.10       -0.00
  -0.00000002  -0.00000002   0.00000066           -0.00       -0.00        0.10


     Writing output data file /scratch/pdheat_0009.save/
 
     init_run     :    110.65s CPU    113.25s WALL (       1 calls)
     electrons    :   4226.90s CPU   4275.61s WALL (       1 calls)
     forces       :     63.25s CPU     63.78s WALL (       1 calls)
     stress       :    415.04s CPU    418.31s WALL (       1 calls)

     Called by init_run:
     wfcinit      :    109.75s CPU    112.25s WALL (       1 calls)
     potinit      :      0.17s CPU      0.19s WALL (       1 calls)
     hinit0       :      0.41s CPU      0.42s WALL (       1 calls)

     Called by electrons:
     c_bands      :   3753.73s CPU   3793.96s WALL (      11 calls)
     sum_band     :    471.71s CPU    479.99s WALL (      11 calls)
     v_of_rho     :      0.16s CPU      0.19s WALL (      11 calls)
     newd         :      0.27s CPU      0.38s WALL (      11 calls)
     PAW_pot      :      0.93s CPU      0.99s WALL (      11 calls)
     mix_rho      :      0.20s CPU      0.22s WALL (      11 calls)

     Called by c_bands:
     init_us_2    :     20.69s CPU     20.99s WALL (    9125 calls)
     cegterg      :   3684.52s CPU   3722.01s WALL (    4015 calls)

     Called by *egterg:
     cdiaghg      :    445.10s CPU    447.49s WALL (   16048 calls)
     h_psi        :   1954.66s CPU   1982.21s WALL (   16778 calls)
     s_psi        :    163.01s CPU    164.20s WALL (   16778 calls)
     g_psi        :      4.03s CPU      4.09s WALL (   12398 calls)

     Called by h_psi:
     h_psi:calbec :    298.32s CPU    300.44s WALL (   16778 calls)
     vloc_psi     :   1486.08s CPU   1509.82s WALL (   16778 calls)
     add_vuspsi   :    159.40s CPU    160.95s WALL (   16778 calls)

     General routines
     calbec       :    521.36s CPU    524.82s WALL (   22618 calls)
     fft          :      0.27s CPU      0.29s WALL (     167 calls)
     ffts         :      0.10s CPU      0.11s WALL (     201 calls)
     fftw         :   1738.27s CPU   1765.99s WALL ( 7914448 calls)
     interpolate  :      0.02s CPU      0.02s WALL (      11 calls)
 
     Parallel routines
     fft_scatt_xy :    137.70s CPU    139.94s WALL ( 7914816 calls)
     fft_scatt_yz :   1364.76s CPU   1386.70s WALL ( 7914816 calls)
 
     PWSCF        :      1h21m CPU      1h23m WALL

 
   This run was terminated on:  21:35:17  20Mar2022            

=------------------------------------------------------------------------------=
   JOB DONE.
=------------------------------------------------------------------------------=
