
     Program PWSCF v.6.7MaX starts on 21Mar2022 at  1: 6:25 

     This program is part of the open-source Quantum ESPRESSO suite
     for quantum simulation of materials; please cite
         "P. Giannozzi et al., J. Phys.:Condens. Matter 21 395502 (2009);
         "P. Giannozzi et al., J. Phys.:Condens. Matter 29 465901 (2017);
          URL http://www.quantum-espresso.org", 
     in publications or presentations arising from this work. More details at
     http://www.quantum-espresso.org/quote

     Parallel version (MPI & OpenMP), running on      72 processor cores
     Number of MPI processes:                72
     Threads/MPI process:                     1

     MPI processes distributed on     1 nodes
     R & G space division:  proc/nbgrp/npool/nimage =      72
     Reading input from pd_0040.in
Warning: card &CELL ignored
Warning: card CELL_DYNAMICS = 'BFGS', ignored
Warning: card CELL_FACTOR = 2.0, ignored
Warning: card PRESS = 0.0, ignored
Warning: card / ignored

     Current dimensions of program PWSCF are:
     Max number of different atomic species (ntypx) = 10
     Max number of k-points (npk) =  40000
     Max angular momentum in pseudopotentials (lmaxx) =  3
     file Pd.pbe-spn-kjpaw_psl.1.0.0.UPF: wavefunction(s)  4S 5S 4D renormalized

     Subspace diagonalization in iterative solution of the eigenvalue problem:
     one sub-group per band group will be used
     ELPA distributed-memory algorithm (size of sub-group:  8*  8 procs)

 
     Parallelization info
     --------------------
     sticks:   dense  smooth     PW     G-vecs:    dense   smooth      PW
     Min         104      68     18                 6832     3663     516
     Max         105      70     19                 6839     3671     525
     Sum        7521    4973   1353               492177   264147   37529
 


     bravais-lattice index     =            0
     lattice parameter (alat)  =      14.8443  a.u.
     unit-cell volume          =    3271.0009 (a.u.)^3
     number of atoms/cell      =           32
     number of atomic types    =            1
     number of electrons       =       576.00
     number of Kohn-Sham states=          346
     kinetic-energy cutoff     =      71.0000  Ry
     charge density cutoff     =     430.0000  Ry
     scf convergence threshold =      1.0E-08
     mixing beta               =       0.3000
     number of iterations used =           10  local-TF  mixing
     Exchange-correlation= SLA  PW   PBX  PBC
                           (   1   4   3   4   0   0   0)

     celldm(1)=  14.844317  celldm(2)=   0.000000  celldm(3)=   0.000000
     celldm(4)=   0.000000  celldm(5)=   0.000000  celldm(6)=   0.000000

     crystal axes: (cart. coord. in units of alat)
               a(1) = (   1.000000   0.000000   0.000000 )  
               a(2) = (   0.000000   1.000000   0.000000 )  
               a(3) = (   0.000000   0.000000   1.000000 )  

     reciprocal axes: (cart. coord. in units 2 pi/alat)
               b(1) = (  1.000000  0.000000  0.000000 )  
               b(2) = (  0.000000  1.000000  0.000000 )  
               b(3) = (  0.000000  0.000000  1.000000 )  


     PseudoPot. # 1 for Pd read from file:
     /rds/homes/b/bxp912/pp/Pd.pbe-spn-kjpaw_psl.1.0.0.UPF
     MD5 check sum: 790f2ebce206edfd9790dcb9844eca51
     Pseudo is Projector augmented-wave + core cor, Zval = 18.0
     Generated using &quot;atomic&quot; code by A. Dal Corso  v.6.3
     Shape of augmentation charge: PSQ
     Using radial grid of 1235 points,  6 beta functions with: 
                l(1) =   0
                l(2) =   0
                l(3) =   1
                l(4) =   1
                l(5) =   2
                l(6) =   2
     Q(r) pseudized with 0 coefficients 


     atomic species   valence    mass     pseudopotential
        Pd            18.00   106.42000     Pd( 1.00)

     No symmetry found



   Cartesian axes

     site n.     atom                  positions (alat units)
         1           Pd  tau(   1) = (   0.0003900   0.9981720   0.0020630  )
         2           Pd  tau(   2) = (   0.2515360   0.2481380   0.9990510  )
         3           Pd  tau(   3) = (   0.2506280   0.9981280   0.2508390  )
         4           Pd  tau(   4) = (   0.0007650   0.2500990   0.2494080  )
         5           Pd  tau(   5) = (   0.9993140   0.9985060   0.4986400  )
         6           Pd  tau(   6) = (   0.2470290   0.2477300   0.4988430  )
         7           Pd  tau(   7) = (   0.2497500   0.9975030   0.7482320  )
         8           Pd  tau(   8) = (   0.0018080   0.2495290   0.7482840  )
         9           Pd  tau(   9) = (   0.0008910   0.4976640   0.0000590  )
        10           Pd  tau(  10) = (   0.2496540   0.7511340   0.0014180  )
        11           Pd  tau(  11) = (   0.2500740   0.5007490   0.2520840  )
        12           Pd  tau(  12) = (   0.9992990   0.7481850   0.2488490  )
        13           Pd  tau(  13) = (   0.9991800   0.4981580   0.4975990  )
        14           Pd  tau(  14) = (   0.2502030   0.7509490   0.5017060  )
        15           Pd  tau(  15) = (   0.2512710   0.5002880   0.7502130  )
        16           Pd  tau(  16) = (   0.0010950   0.7502060   0.7494240  )
        17           Pd  tau(  17) = (   0.4986210   0.9975650   0.0004700  )
        18           Pd  tau(  18) = (   0.7514710   0.2489230   0.0001420  )
        19           Pd  tau(  19) = (   0.7492710   0.0008440   0.2505860  )
        20           Pd  tau(  20) = (   0.5004190   0.2509660   0.2489430  )
        21           Pd  tau(  21) = (   0.5018280   0.9998300   0.5014640  )
        22           Pd  tau(  22) = (   0.7489150   0.2486130   0.4998930  )
        23           Pd  tau(  23) = (   0.7495880   0.9997390   0.7501100  )
        24           Pd  tau(  24) = (   0.5018670   0.2486010   0.7484920  )
        25           Pd  tau(  25) = (   0.5013380   0.4995030   0.0024800  )
        26           Pd  tau(  26) = (   0.7505150   0.7485930   0.0000070  )
        27           Pd  tau(  27) = (   0.7506190   0.4998130   0.2511580  )
        28           Pd  tau(  28) = (   0.4990530   0.7506480   0.2503470  )
        29           Pd  tau(  29) = (   0.5014810   0.5004100   0.5024940  )
        30           Pd  tau(  30) = (   0.7496920   0.7469330   0.4994000  )
        31           Pd  tau(  31) = (   0.7519930   0.4992770   0.7491160  )
        32           Pd  tau(  32) = (   0.5003050   0.7522480   0.7520170  )

     number of k points=   365  Marzari-Vanderbilt smearing, width (Ry)=  0.0400

     Number of k-points >= 100: set verbosity='high' to print them.

     Dense  grid:   492177 G-vectors     FFT dimensions: ( 100, 100, 100)

     Smooth grid:   264147 G-vectors     FFT dimensions: (  80,  80,  80)

     Estimated max dynamical RAM per process >     924.68 MB

     Estimated total dynamical RAM >      65.02 GB

     Check: negative core charge=   -0.000002

     Initial potential from superposition of free atoms

     starting charge  575.98776, renormalised to  576.00000
     Starting wfcs are  320 randomized atomic wfcs +   26 random wfcs
     Checking if some PAW data can be deallocated... 

     total cpu time spent up to now is      113.7 secs

     Self-consistent Calculation

     iteration #  1     ecut=    71.00 Ry     beta= 0.30
     Davidson diagonalization with overlap
     ethr =  1.00E-02,  avg # of iterations =  3.0

     Threshold (ethr) on eigenvalues was too large:
     Diagonalizing with lowered threshold

     Davidson diagonalization with overlap
     ethr =  8.99E-05,  avg # of iterations =  4.4

     total cpu time spent up to now is      914.3 secs

     total energy              =  -16384.98946491 Ry
     estimated scf accuracy    <       0.48132052 Ry

     iteration #  2     ecut=    71.00 Ry     beta= 0.30
     Davidson diagonalization with overlap
     ethr =  8.36E-05,  avg # of iterations =  1.8

     total cpu time spent up to now is     1229.6 secs

     total energy              =  -16384.93291593 Ry
     estimated scf accuracy    <       0.18201273 Ry

     iteration #  3     ecut=    71.00 Ry     beta= 0.30
     Davidson diagonalization with overlap
     ethr =  3.16E-05,  avg # of iterations =  3.4

     total cpu time spent up to now is     1627.3 secs

     total energy              =  -16384.95627563 Ry
     estimated scf accuracy    <       0.00762558 Ry

     iteration #  4     ecut=    71.00 Ry     beta= 0.30
     Davidson diagonalization with overlap
     c_bands:  2 eigenvalues not converged
     c_bands:  1 eigenvalues not converged
     c_bands:  1 eigenvalues not converged
     c_bands:  1 eigenvalues not converged
     ethr =  1.32E-06,  avg # of iterations =  6.9

     total cpu time spent up to now is     2034.4 secs

     total energy              =  -16384.95532551 Ry
     estimated scf accuracy    <       0.00259676 Ry

     iteration #  5     ecut=    71.00 Ry     beta= 0.30
     Davidson diagonalization with overlap
     ethr =  4.51E-07,  avg # of iterations =  2.0

     total cpu time spent up to now is     2402.6 secs

     total energy              =  -16384.95558951 Ry
     estimated scf accuracy    <       0.00007551 Ry

     iteration #  6     ecut=    71.00 Ry     beta= 0.30
     Davidson diagonalization with overlap
     ethr =  1.31E-08,  avg # of iterations =  4.0

     total cpu time spent up to now is     2936.3 secs

     total energy              =  -16384.95561228 Ry
     estimated scf accuracy    <       0.00003757 Ry

     iteration #  7     ecut=    71.00 Ry     beta= 0.30
     Davidson diagonalization with overlap
     ethr =  6.52E-09,  avg # of iterations =  1.0

     total cpu time spent up to now is     3240.1 secs

     total energy              =  -16384.95561558 Ry
     estimated scf accuracy    <       0.00000513 Ry

     iteration #  8     ecut=    71.00 Ry     beta= 0.30
     Davidson diagonalization with overlap
     ethr =  8.90E-10,  avg # of iterations =  2.0

     total cpu time spent up to now is     3593.6 secs

     total energy              =  -16384.95561631 Ry
     estimated scf accuracy    <       0.00000030 Ry

     iteration #  9     ecut=    71.00 Ry     beta= 0.30
     Davidson diagonalization with overlap
     ethr =  5.23E-11,  avg # of iterations =  4.0

     total cpu time spent up to now is     3976.6 secs

     total energy              =  -16384.95561629 Ry
     estimated scf accuracy    <       0.00000014 Ry

     iteration # 10     ecut=    71.00 Ry     beta= 0.30
     Davidson diagonalization with overlap
     ethr =  2.44E-11,  avg # of iterations =  2.0

     total cpu time spent up to now is     4326.5 secs

     End of self-consistent calculation

     Number of k-points >= 100: set verbosity='high' to print the bands.

     the Fermi energy is    19.2730 ev

!    total energy              =  -16384.95561649 Ry

     total all-electron energy =   -322945.809324 Ry
     estimated scf accuracy    <          2.5E-09 Ry
     smearing contrib. (-TS)   =       0.03333941 Ry
     internal energy E=F+TS    =  -16384.98895590 Ry

     The total energy is F=E-TS. E is the sum of the following terms:
     one-electron contribution =   -2488.59727490 Ry
     hartree contribution      =    1661.72088666 Ry
     xc contribution           =    -986.51139890 Ry
     ewald contribution        =   -6404.17500450 Ry
     one-center paw contrib.   =   -8167.42616425 Ry

     convergence has been achieved in  10 iterations

     Forces acting on atoms (cartesian axes, Ry/au):

     atom    1 type  1   force =    -0.00132565    0.00429736   -0.00524508
     atom    2 type  1   force =    -0.00103370    0.00216219    0.00043815
     atom    3 type  1   force =    -0.00070290    0.00419300    0.00052517
     atom    4 type  1   force =    -0.00060470   -0.00358552   -0.00071597
     atom    5 type  1   force =    -0.00260436   -0.00022095    0.00073633
     atom    6 type  1   force =     0.01050091    0.00420164    0.00187660
     atom    7 type  1   force =    -0.00068914    0.00703462    0.00420136
     atom    8 type  1   force =    -0.00277445   -0.00286093    0.00450678
     atom    9 type  1   force =     0.00156891    0.00341207   -0.00215285
     atom   10 type  1   force =    -0.00032097   -0.00719461   -0.00269990
     atom   11 type  1   force =     0.00247084   -0.00249983   -0.00298464
     atom   12 type  1   force =     0.00084153    0.00215665    0.00347031
     atom   13 type  1   force =     0.00382931    0.00368411    0.00649446
     atom   14 type  1   force =     0.00029084   -0.00510167   -0.00385957
     atom   15 type  1   force =    -0.00023144   -0.00188430    0.00001289
     atom   16 type  1   force =    -0.00374664   -0.00355693    0.00163573
     atom   17 type  1   force =     0.00505812    0.00719584   -0.00017411
     atom   18 type  1   force =    -0.00195613    0.00026096   -0.00178860
     atom   19 type  1   force =     0.00067669   -0.00432377   -0.00187780
     atom   20 type  1   force =    -0.00292062   -0.00310918    0.00416861
     atom   21 type  1   force =    -0.00370398   -0.00039125   -0.00556915
     atom   22 type  1   force =     0.00408558    0.00192723   -0.00066809
     atom   23 type  1   force =     0.00567469   -0.00190213    0.00162946
     atom   24 type  1   force =    -0.00585351    0.00271623    0.00573375
     atom   25 type  1   force =    -0.00232794    0.00043851   -0.00708153
     atom   26 type  1   force =     0.00022522    0.00150853    0.00002486
     atom   27 type  1   force =    -0.00293298   -0.00203323   -0.00401440
     atom   28 type  1   force =     0.00354720   -0.00326758    0.00255469
     atom   29 type  1   force =    -0.00601506   -0.00190348   -0.00380606
     atom   30 type  1   force =     0.00175479    0.00778397    0.00213158
     atom   31 type  1   force =    -0.00239408    0.00012133    0.00425112
     atom   32 type  1   force =     0.00161360   -0.00925887   -0.00175408

     Total force =     0.035570     Total SCF correction =     0.000195


     Computing stress (Cartesian axis) and pressure

          total   stress  (Ry/bohr**3)                   (kbar)     P=        0.69
   0.00000443   0.00000030  -0.00000002            0.65        0.04       -0.00
   0.00000030   0.00000490   0.00000040            0.04        0.72        0.06
  -0.00000002   0.00000040   0.00000481           -0.00        0.06        0.71


     Writing output data file /scratch/pdheat_0040.save/
 
     init_run     :    109.15s CPU    111.60s WALL (       1 calls)
     electrons    :   4160.94s CPU   4212.86s WALL (       1 calls)
     forces       :     61.67s CPU     62.38s WALL (       1 calls)
     stress       :    426.40s CPU    429.86s WALL (       1 calls)

     Called by init_run:
     wfcinit      :    108.23s CPU    110.61s WALL (       1 calls)
     potinit      :      0.14s CPU      0.16s WALL (       1 calls)
     hinit0       :      0.47s CPU      0.48s WALL (       1 calls)

     Called by electrons:
     c_bands      :   3696.82s CPU   3739.50s WALL (      11 calls)
     sum_band     :    462.48s CPU    471.07s WALL (      11 calls)
     v_of_rho     :      0.18s CPU      0.20s WALL (      11 calls)
     newd         :      0.33s CPU      0.86s WALL (      11 calls)
     PAW_pot      :      0.94s CPU      1.03s WALL (      11 calls)
     mix_rho      :      0.21s CPU      0.22s WALL (      11 calls)

     Called by c_bands:
     init_us_2    :     17.54s CPU     17.79s WALL (    9125 calls)
     cegterg      :   3628.66s CPU   3668.47s WALL (    4015 calls)

     Called by *egterg:
     cdiaghg      :    442.14s CPU    445.42s WALL (   16254 calls)
     h_psi        :   1923.48s CPU   1952.61s WALL (   16984 calls)
     s_psi        :    164.42s CPU    165.67s WALL (   16984 calls)
     g_psi        :      3.96s CPU      4.02s WALL (   12604 calls)

     Called by h_psi:
     h_psi:calbec :    292.94s CPU    295.01s WALL (   16984 calls)
     vloc_psi     :   1454.12s CPU   1478.25s WALL (   16984 calls)
     add_vuspsi   :    164.69s CPU    167.49s WALL (   16984 calls)

     General routines
     calbec       :    475.32s CPU    478.58s WALL (   22824 calls)
     fft          :      0.38s CPU      0.41s WALL (     167 calls)
     ffts         :      0.12s CPU      0.12s WALL (     203 calls)
     fftw         :   1700.89s CPU   1728.86s WALL ( 7900464 calls)
     interpolate  :      0.03s CPU      0.04s WALL (      11 calls)
 
     Parallel routines
     fft_scatt_xy :    137.49s CPU    139.71s WALL ( 7900834 calls)
     fft_scatt_yz :   1328.69s CPU   1350.74s WALL ( 7900834 calls)
 
     PWSCF        :      1h20m CPU      1h22m WALL

 
   This run was terminated on:   2:28:41  21Mar2022            

=------------------------------------------------------------------------------=
   JOB DONE.
=------------------------------------------------------------------------------=
