
     Program PWSCF v.6.7MaX starts on 20Mar2022 at  5: 2:59 

     This program is part of the open-source Quantum ESPRESSO suite
     for quantum simulation of materials; please cite
         "P. Giannozzi et al., J. Phys.:Condens. Matter 21 395502 (2009);
         "P. Giannozzi et al., J. Phys.:Condens. Matter 29 465901 (2017);
          URL http://www.quantum-espresso.org", 
     in publications or presentations arising from this work. More details at
     http://www.quantum-espresso.org/quote

     Parallel version (MPI & OpenMP), running on      72 processor cores
     Number of MPI processes:                72
     Threads/MPI process:                     1

     MPI processes distributed on     1 nodes
     R & G space division:  proc/nbgrp/npool/nimage =      72
     Reading input from pd_0006.in
Warning: card &CELL ignored
Warning: card CELL_DYNAMICS = 'BFGS', ignored
Warning: card CELL_FACTOR = 2.0, ignored
Warning: card PRESS = 0.0, ignored
Warning: card / ignored

     Current dimensions of program PWSCF are:
     Max number of different atomic species (ntypx) = 10
     Max number of k-points (npk) =  40000
     Max angular momentum in pseudopotentials (lmaxx) =  3
     file Pd.pbe-spn-kjpaw_psl.1.0.0.UPF: wavefunction(s)  4S 5S 4D renormalized

     Subspace diagonalization in iterative solution of the eigenvalue problem:
     one sub-group per band group will be used
     ELPA distributed-memory algorithm (size of sub-group:  8*  8 procs)

 
     Parallelization info
     --------------------
     sticks:   dense  smooth     PW     G-vecs:    dense   smooth      PW
     Min         104      68     18                 6832     3663     516
     Max         105      70     19                 6839     3671     525
     Sum        7521    4973   1353               492177   264147   37529
 


     bravais-lattice index     =            0
     lattice parameter (alat)  =      14.8443  a.u.
     unit-cell volume          =    3271.0009 (a.u.)^3
     number of atoms/cell      =           32
     number of atomic types    =            1
     number of electrons       =       576.00
     number of Kohn-Sham states=          346
     kinetic-energy cutoff     =      71.0000  Ry
     charge density cutoff     =     430.0000  Ry
     scf convergence threshold =      1.0E-08
     mixing beta               =       0.3000
     number of iterations used =           10  local-TF  mixing
     Exchange-correlation= SLA  PW   PBX  PBC
                           (   1   4   3   4   0   0   0)

     celldm(1)=  14.844317  celldm(2)=   0.000000  celldm(3)=   0.000000
     celldm(4)=   0.000000  celldm(5)=   0.000000  celldm(6)=   0.000000

     crystal axes: (cart. coord. in units of alat)
               a(1) = (   1.000000   0.000000   0.000000 )  
               a(2) = (   0.000000   1.000000   0.000000 )  
               a(3) = (   0.000000   0.000000   1.000000 )  

     reciprocal axes: (cart. coord. in units 2 pi/alat)
               b(1) = (  1.000000  0.000000  0.000000 )  
               b(2) = (  0.000000  1.000000  0.000000 )  
               b(3) = (  0.000000  0.000000  1.000000 )  


     PseudoPot. # 1 for Pd read from file:
     /rds/homes/b/bxp912/pp/Pd.pbe-spn-kjpaw_psl.1.0.0.UPF
     MD5 check sum: 790f2ebce206edfd9790dcb9844eca51
     Pseudo is Projector augmented-wave + core cor, Zval = 18.0
     Generated using &quot;atomic&quot; code by A. Dal Corso  v.6.3
     Shape of augmentation charge: PSQ
     Using radial grid of 1235 points,  6 beta functions with: 
                l(1) =   0
                l(2) =   0
                l(3) =   1
                l(4) =   1
                l(5) =   2
                l(6) =   2
     Q(r) pseudized with 0 coefficients 


     atomic species   valence    mass     pseudopotential
        Pd            18.00   106.42000     Pd( 1.00)

     No symmetry found



   Cartesian axes

     site n.     atom                  positions (alat units)
         1           Pd  tau(   1) = (   0.9996300   0.9999440   0.9996690  )
         2           Pd  tau(   2) = (   0.2500890   0.2499670   0.0001910  )
         3           Pd  tau(   3) = (   0.2506060   0.0000780   0.2493010  )
         4           Pd  tau(   4) = (   0.0004070   0.2499780   0.2498820  )
         5           Pd  tau(   5) = (   0.9996920   0.9995790   0.4994880  )
         6           Pd  tau(   6) = (   0.2502740   0.2492880   0.4997850  )
         7           Pd  tau(   7) = (   0.2502450   0.0003310   0.7503770  )
         8           Pd  tau(   8) = (   0.9996010   0.2497520   0.7502560  )
         9           Pd  tau(   9) = (   0.9996590   0.5006980   0.9999550  )
        10           Pd  tau(  10) = (   0.2498760   0.7504340   0.9989360  )
        11           Pd  tau(  11) = (   0.2505830   0.4997020   0.2493370  )
        12           Pd  tau(  12) = (   0.0003620   0.7496620   0.2500490  )
        13           Pd  tau(  13) = (   0.0000810   0.4998410   0.5001210  )
        14           Pd  tau(  14) = (   0.2502610   0.7497810   0.5004140  )
        15           Pd  tau(  15) = (   0.2498050   0.5000000   0.7502590  )
        16           Pd  tau(  16) = (   0.0003490   0.7505790   0.7498850  )
        17           Pd  tau(  17) = (   0.5000170   0.0000090   0.9999600  )
        18           Pd  tau(  18) = (   0.7493520   0.2496410   0.9996530  )
        19           Pd  tau(  19) = (   0.7493360   0.9993730   0.2504500  )
        20           Pd  tau(  20) = (   0.4995400   0.2500320   0.2503690  )
        21           Pd  tau(  21) = (   0.4996670   0.0002900   0.5005210  )
        22           Pd  tau(  22) = (   0.7492090   0.2501860   0.5004030  )
        23           Pd  tau(  23) = (   0.7496290   0.0002810   0.7504110  )
        24           Pd  tau(  24) = (   0.4993390   0.2497670   0.7495690  )
        25           Pd  tau(  25) = (   0.4999240   0.4997770   0.9994130  )
        26           Pd  tau(  26) = (   0.7496110   0.7495220   0.0002330  )
        27           Pd  tau(  27) = (   0.7504590   0.5003940   0.2501580  )
        28           Pd  tau(  28) = (   0.4993450   0.7504750   0.2499870  )
        29           Pd  tau(  29) = (   0.5000890   0.4996490   0.5001140  )
        30           Pd  tau(  30) = (   0.7500260   0.7498470   0.5003130  )
        31           Pd  tau(  31) = (   0.7503050   0.5005660   0.7503410  )
        32           Pd  tau(  32) = (   0.4997170   0.7490960   0.7497330  )

     number of k points=   365  Marzari-Vanderbilt smearing, width (Ry)=  0.0400

     Number of k-points >= 100: set verbosity='high' to print them.

     Dense  grid:   492177 G-vectors     FFT dimensions: ( 100, 100, 100)

     Smooth grid:   264147 G-vectors     FFT dimensions: (  80,  80,  80)

     Estimated max dynamical RAM per process >     924.68 MB

     Estimated total dynamical RAM >      65.02 GB

     Check: negative core charge=   -0.000002

     Initial potential from superposition of free atoms

     starting charge  575.98776, renormalised to  576.00000
     Starting wfcs are  320 randomized atomic wfcs +   26 random wfcs
     Checking if some PAW data can be deallocated... 

     total cpu time spent up to now is      112.7 secs

     Self-consistent Calculation

     iteration #  1     ecut=    71.00 Ry     beta= 0.30
     Davidson diagonalization with overlap
     ethr =  1.00E-02,  avg # of iterations =  3.0

     Threshold (ethr) on eigenvalues was too large:
     Diagonalizing with lowered threshold

     Davidson diagonalization with overlap
     ethr =  8.96E-05,  avg # of iterations =  4.4

     total cpu time spent up to now is      907.0 secs

     total energy              =  -16384.99176120 Ry
     estimated scf accuracy    <       0.47948487 Ry

     iteration #  2     ecut=    71.00 Ry     beta= 0.30
     Davidson diagonalization with overlap
     ethr =  8.32E-05,  avg # of iterations =  1.5

     total cpu time spent up to now is     1218.5 secs

     total energy              =  -16384.93559814 Ry
     estimated scf accuracy    <       0.18089680 Ry

     iteration #  3     ecut=    71.00 Ry     beta= 0.30
     Davidson diagonalization with overlap
     ethr =  3.14E-05,  avg # of iterations =  3.3

     total cpu time spent up to now is     1612.0 secs

     total energy              =  -16384.95885921 Ry
     estimated scf accuracy    <       0.00750548 Ry

     iteration #  4     ecut=    71.00 Ry     beta= 0.30
     Davidson diagonalization with overlap
     ethr =  1.30E-06,  avg # of iterations =  5.7

     total cpu time spent up to now is     2008.2 secs

     total energy              =  -16384.95791727 Ry
     estimated scf accuracy    <       0.00257589 Ry

     iteration #  5     ecut=    71.00 Ry     beta= 0.30
     Davidson diagonalization with overlap
     ethr =  4.47E-07,  avg # of iterations =  2.0

     total cpu time spent up to now is     2373.4 secs

     total energy              =  -16384.95817453 Ry
     estimated scf accuracy    <       0.00007501 Ry

     iteration #  6     ecut=    71.00 Ry     beta= 0.30
     Davidson diagonalization with overlap
     ethr =  1.30E-08,  avg # of iterations =  4.0

     total cpu time spent up to now is     2871.0 secs

     total energy              =  -16384.95819607 Ry
     estimated scf accuracy    <       0.00003745 Ry

     iteration #  7     ecut=    71.00 Ry     beta= 0.30
     Davidson diagonalization with overlap
     ethr =  6.50E-09,  avg # of iterations =  2.0

     total cpu time spent up to now is     3211.4 secs

     total energy              =  -16384.95819933 Ry
     estimated scf accuracy    <       0.00000447 Ry

     iteration #  8     ecut=    71.00 Ry     beta= 0.30
     Davidson diagonalization with overlap
     ethr =  7.75E-10,  avg # of iterations =  2.0

     total cpu time spent up to now is     3562.3 secs

     total energy              =  -16384.95820009 Ry
     estimated scf accuracy    <       0.00000030 Ry

     iteration #  9     ecut=    71.00 Ry     beta= 0.30
     Davidson diagonalization with overlap
     ethr =  5.17E-11,  avg # of iterations =  4.0

     total cpu time spent up to now is     3951.1 secs

     total energy              =  -16384.95820010 Ry
     estimated scf accuracy    <       0.00000009 Ry

     iteration # 10     ecut=    71.00 Ry     beta= 0.30
     Davidson diagonalization with overlap
     ethr =  1.64E-11,  avg # of iterations =  2.0

     total cpu time spent up to now is     4300.6 secs

     End of self-consistent calculation

     Number of k-points >= 100: set verbosity='high' to print the bands.

     the Fermi energy is    19.2727 ev

!    total energy              =  -16384.95820028 Ry

     total all-electron energy =   -322945.811907 Ry
     estimated scf accuracy    <          2.7E-09 Ry
     smearing contrib. (-TS)   =       0.03319825 Ry
     internal energy E=F+TS    =  -16384.99139853 Ry

     The total energy is F=E-TS. E is the sum of the following terms:
     one-electron contribution =   -2487.88282581 Ry
     hartree contribution      =    1661.36389618 Ry
     xc contribution           =    -986.50643505 Ry
     ewald contribution        =   -6404.54008974 Ry
     one-center paw contrib.   =   -8167.42594411 Ry

     convergence has been achieved in  10 iterations

     Forces acting on atoms (cartesian axes, Ry/au):

     atom    1 type  1   force =    -0.00021835    0.00011705    0.00175567
     atom    2 type  1   force =    -0.00083292    0.00041926   -0.00099359
     atom    3 type  1   force =    -0.00221791   -0.00105413    0.00124662
     atom    4 type  1   force =    -0.00196285   -0.00049632    0.00013153
     atom    5 type  1   force =     0.00063328    0.00129066    0.00071703
     atom    6 type  1   force =    -0.00221428    0.00160398    0.00066480
     atom    7 type  1   force =    -0.00116209   -0.00046018   -0.00119754
     atom    8 type  1   force =     0.00083988    0.00066387   -0.00096455
     atom    9 type  1   force =     0.00075053   -0.00196374    0.00015202
     atom   10 type  1   force =     0.00039657   -0.00086186    0.00236600
     atom   11 type  1   force =    -0.00127429    0.00133864    0.00119622
     atom   12 type  1   force =     0.00042347    0.00106583   -0.00014253
     atom   13 type  1   force =     0.00068898   -0.00053429   -0.00007604
     atom   14 type  1   force =    -0.00056892    0.00034213   -0.00147751
     atom   15 type  1   force =    -0.00083180   -0.00136310   -0.00093330
     atom   16 type  1   force =    -0.00115011   -0.00049476   -0.00027383
     atom   17 type  1   force =     0.00038542   -0.00042142   -0.00033121
     atom   18 type  1   force =     0.00107178    0.00120173    0.00199940
     atom   19 type  1   force =     0.00130220    0.00156805   -0.00088890
     atom   20 type  1   force =     0.00223523    0.00038806   -0.00121280
     atom   21 type  1   force =     0.00073286   -0.00181458   -0.00060483
     atom   22 type  1   force =     0.00244619   -0.00032985   -0.00122105
     atom   23 type  1   force =     0.00010350   -0.00164091   -0.00115853
     atom   24 type  1   force =     0.00108752    0.00116753    0.00142497
     atom   25 type  1   force =     0.00039403    0.00014779    0.00163776
     atom   26 type  1   force =     0.00023065    0.00159187   -0.00034626
     atom   27 type  1   force =    -0.00177207   -0.00152700   -0.00036016
     atom   28 type  1   force =     0.00083106   -0.00199806    0.00027902
     atom   29 type  1   force =    -0.00039995    0.00099438   -0.00068054
     atom   30 type  1   force =    -0.00052052    0.00042977   -0.00025953
     atom   31 type  1   force =    -0.00039961   -0.00160539   -0.00081524
     atom   32 type  1   force =     0.00097249    0.00223500    0.00036692

     Total force =     0.011153     Total SCF correction =     0.000093


     Computing stress (Cartesian axis) and pressure

          total   stress  (Ry/bohr**3)                   (kbar)     P=        0.13
   0.00000088   0.00000001  -0.00000003            0.13        0.00       -0.00
   0.00000001   0.00000086   0.00000001            0.00        0.13        0.00
  -0.00000003   0.00000001   0.00000083           -0.00        0.00        0.12


     Writing output data file /scratch/pdheat_0006.save/
