
     Program PWSCF v.6.7MaX starts on 20Mar2022 at  4:45:34 

     This program is part of the open-source Quantum ESPRESSO suite
     for quantum simulation of materials; please cite
         "P. Giannozzi et al., J. Phys.:Condens. Matter 21 395502 (2009);
         "P. Giannozzi et al., J. Phys.:Condens. Matter 29 465901 (2017);
          URL http://www.quantum-espresso.org", 
     in publications or presentations arising from this work. More details at
     http://www.quantum-espresso.org/quote

     Parallel version (MPI & OpenMP), running on      72 processor cores
     Number of MPI processes:                72
     Threads/MPI process:                     1

     MPI processes distributed on     1 nodes
     R & G space division:  proc/nbgrp/npool/nimage =      72
     Reading input from pd_0046.in
Warning: card &CELL ignored
Warning: card CELL_DYNAMICS = 'BFGS', ignored
Warning: card CELL_FACTOR = 2.0, ignored
Warning: card PRESS = 0.0, ignored
Warning: card / ignored

     Current dimensions of program PWSCF are:
     Max number of different atomic species (ntypx) = 10
     Max number of k-points (npk) =  40000
     Max angular momentum in pseudopotentials (lmaxx) =  3
     file Pd.pbe-spn-kjpaw_psl.1.0.0.UPF: wavefunction(s)  4S 5S 4D renormalized

     Subspace diagonalization in iterative solution of the eigenvalue problem:
     one sub-group per band group will be used
     ELPA distributed-memory algorithm (size of sub-group:  8*  8 procs)

 
     Parallelization info
     --------------------
     sticks:   dense  smooth     PW     G-vecs:    dense   smooth      PW
     Min         104      68     18                 6832     3663     516
     Max         105      70     19                 6839     3671     525
     Sum        7521    4973   1353               492177   264147   37529
 


     bravais-lattice index     =            0
     lattice parameter (alat)  =      14.8443  a.u.
     unit-cell volume          =    3271.0009 (a.u.)^3
     number of atoms/cell      =           32
     number of atomic types    =            1
     number of electrons       =       576.00
     number of Kohn-Sham states=          346
     kinetic-energy cutoff     =      71.0000  Ry
     charge density cutoff     =     430.0000  Ry
     scf convergence threshold =      1.0E-08
     mixing beta               =       0.3000
     number of iterations used =           10  local-TF  mixing
     Exchange-correlation= SLA  PW   PBX  PBC
                           (   1   4   3   4   0   0   0)

     celldm(1)=  14.844317  celldm(2)=   0.000000  celldm(3)=   0.000000
     celldm(4)=   0.000000  celldm(5)=   0.000000  celldm(6)=   0.000000

     crystal axes: (cart. coord. in units of alat)
               a(1) = (   1.000000   0.000000   0.000000 )  
               a(2) = (   0.000000   1.000000   0.000000 )  
               a(3) = (   0.000000   0.000000   1.000000 )  

     reciprocal axes: (cart. coord. in units 2 pi/alat)
               b(1) = (  1.000000  0.000000  0.000000 )  
               b(2) = (  0.000000  1.000000  0.000000 )  
               b(3) = (  0.000000  0.000000  1.000000 )  


     PseudoPot. # 1 for Pd read from file:
     /rds/homes/b/bxp912/pp/Pd.pbe-spn-kjpaw_psl.1.0.0.UPF
     MD5 check sum: 790f2ebce206edfd9790dcb9844eca51
     Pseudo is Projector augmented-wave + core cor, Zval = 18.0
     Generated using &quot;atomic&quot; code by A. Dal Corso  v.6.3
     Shape of augmentation charge: PSQ
     Using radial grid of 1235 points,  6 beta functions with: 
                l(1) =   0
                l(2) =   0
                l(3) =   1
                l(4) =   1
                l(5) =   2
                l(6) =   2
     Q(r) pseudized with 0 coefficients 


     atomic species   valence    mass     pseudopotential
        Pd            18.00   106.42000     Pd( 1.00)

     No symmetry found



   Cartesian axes

     site n.     atom                  positions (alat units)
         1           Pd  tau(   1) = (   0.0012510   0.9973770   0.0024870  )
         2           Pd  tau(   2) = (   0.2502950   0.2501230   0.0014830  )
         3           Pd  tau(   3) = (   0.2499090   0.0005950   0.2515000  )
         4           Pd  tau(   4) = (   0.0021100   0.2510670   0.2511630  )
         5           Pd  tau(   5) = (   0.0014340   0.0001990   0.4982140  )
         6           Pd  tau(   6) = (   0.2512240   0.2498300   0.5010380  )
         7           Pd  tau(   7) = (   0.2509370   0.0014880   0.7506940  )
         8           Pd  tau(   8) = (   0.0003650   0.2464810   0.7518490  )
         9           Pd  tau(   9) = (   0.9970630   0.5022130   0.9983220  )
        10           Pd  tau(  10) = (   0.2503980   0.7479260   0.0002470  )
        11           Pd  tau(  11) = (   0.2521290   0.5007090   0.2485210  )
        12           Pd  tau(  12) = (   0.0001140   0.7508930   0.2536070  )
        13           Pd  tau(  13) = (   0.9994670   0.5036540   0.5006020  )
        14           Pd  tau(  14) = (   0.2468000   0.7492210   0.5026700  )
        15           Pd  tau(  15) = (   0.2535050   0.4991220   0.7481470  )
        16           Pd  tau(  16) = (   0.9995580   0.7518630   0.7496870  )
        17           Pd  tau(  17) = (   0.4997690   0.0011180   0.9978590  )
        18           Pd  tau(  18) = (   0.7487960   0.2494650   0.0000750  )
        19           Pd  tau(  19) = (   0.7525580   0.0005220   0.2471110  )
        20           Pd  tau(  20) = (   0.4991310   0.2497350   0.2473830  )
        21           Pd  tau(  21) = (   0.4998530   0.0003400   0.4992760  )
        22           Pd  tau(  22) = (   0.7486790   0.2503380   0.5036610  )
        23           Pd  tau(  23) = (   0.7505250   0.0015710   0.7519210  )
        24           Pd  tau(  24) = (   0.5011800   0.2484090   0.7508720  )
        25           Pd  tau(  25) = (   0.4989780   0.4996900   0.0004880  )
        26           Pd  tau(  26) = (   0.7501020   0.7516050   0.0024750  )
        27           Pd  tau(  27) = (   0.7524040   0.5005810   0.2498120  )
        28           Pd  tau(  28) = (   0.5020280   0.7499210   0.2497730  )
        29           Pd  tau(  29) = (   0.5015300   0.5004970   0.5016180  )
        30           Pd  tau(  30) = (   0.7505570   0.7493890   0.5007330  )
        31           Pd  tau(  31) = (   0.7507120   0.4983330   0.7514280  )
        32           Pd  tau(  32) = (   0.5007090   0.7475780   0.7502920  )

     number of k points=   365  Marzari-Vanderbilt smearing, width (Ry)=  0.0400

     Number of k-points >= 100: set verbosity='high' to print them.

     Dense  grid:   492177 G-vectors     FFT dimensions: ( 100, 100, 100)

     Smooth grid:   264147 G-vectors     FFT dimensions: (  80,  80,  80)

     Estimated max dynamical RAM per process >     924.68 MB

     Estimated total dynamical RAM >      65.02 GB

     Check: negative core charge=   -0.000002

     Initial potential from superposition of free atoms

     starting charge  575.98776, renormalised to  576.00000
     Starting wfcs are  320 randomized atomic wfcs +   26 random wfcs
     Checking if some PAW data can be deallocated... 

     total cpu time spent up to now is      109.5 secs

     Self-consistent Calculation

     iteration #  1     ecut=    71.00 Ry     beta= 0.30
     Davidson diagonalization with overlap
     ethr =  1.00E-02,  avg # of iterations =  3.0

     Threshold (ethr) on eigenvalues was too large:
     Diagonalizing with lowered threshold

     Davidson diagonalization with overlap
     ethr =  9.02E-05,  avg # of iterations =  4.4

     total cpu time spent up to now is      899.1 secs

     total energy              =  -16384.98744074 Ry
     estimated scf accuracy    <       0.48346686 Ry

     iteration #  2     ecut=    71.00 Ry     beta= 0.30
     Davidson diagonalization with overlap
     ethr =  8.39E-05,  avg # of iterations =  1.9

     total cpu time spent up to now is     1213.2 secs

     total energy              =  -16384.93057875 Ry
     estimated scf accuracy    <       0.18309015 Ry

     iteration #  3     ecut=    71.00 Ry     beta= 0.30
     Davidson diagonalization with overlap
     ethr =  3.18E-05,  avg # of iterations =  3.5

     total cpu time spent up to now is     1609.5 secs

     total energy              =  -16384.95401978 Ry
     estimated scf accuracy    <       0.00777732 Ry

     iteration #  4     ecut=    71.00 Ry     beta= 0.30
     Davidson diagonalization with overlap
     c_bands:  1 eigenvalues not converged
     c_bands:  2 eigenvalues not converged
     c_bands:  2 eigenvalues not converged
     c_bands:  1 eigenvalues not converged
     c_bands:  1 eigenvalues not converged
     c_bands:  1 eigenvalues not converged
     c_bands:  1 eigenvalues not converged
     c_bands:  1 eigenvalues not converged
     c_bands:  1 eigenvalues not converged
     c_bands:  1 eigenvalues not converged
     c_bands:  1 eigenvalues not converged
     ethr =  1.35E-06,  avg # of iterations =  7.8

     total cpu time spent up to now is     2023.2 secs

     total energy              =  -16384.95304635 Ry
     estimated scf accuracy    <       0.00265498 Ry

     iteration #  5     ecut=    71.00 Ry     beta= 0.30
     Davidson diagonalization with overlap
     ethr =  4.61E-07,  avg # of iterations =  2.0

     total cpu time spent up to now is     2385.2 secs

     total energy              =  -16384.95332033 Ry
     estimated scf accuracy    <       0.00007707 Ry

     iteration #  6     ecut=    71.00 Ry     beta= 0.30
     Davidson diagonalization with overlap
     ethr =  1.34E-08,  avg # of iterations =  4.0

     total cpu time spent up to now is     2917.1 secs

     total energy              =  -16384.95334439 Ry
     estimated scf accuracy    <       0.00003835 Ry

     iteration #  7     ecut=    71.00 Ry     beta= 0.30
     Davidson diagonalization with overlap
     ethr =  6.66E-09,  avg # of iterations =  1.0

     total cpu time spent up to now is     3216.2 secs

     total energy              =  -16384.95334775 Ry
     estimated scf accuracy    <       0.00000662 Ry

     iteration #  8     ecut=    71.00 Ry     beta= 0.30
     Davidson diagonalization with overlap
     ethr =  1.15E-09,  avg # of iterations =  2.0

     total cpu time spent up to now is     3562.9 secs

     total energy              =  -16384.95334849 Ry
     estimated scf accuracy    <       0.00000031 Ry

     iteration #  9     ecut=    71.00 Ry     beta= 0.30
     Davidson diagonalization with overlap
     ethr =  5.43E-11,  avg # of iterations =  3.9

     total cpu time spent up to now is     3933.5 secs

     total energy              =  -16384.95334847 Ry
     estimated scf accuracy    <       0.00000015 Ry

     iteration # 10     ecut=    71.00 Ry     beta= 0.30
     Davidson diagonalization with overlap
     ethr =  2.61E-11,  avg # of iterations =  2.0

     total cpu time spent up to now is     4273.9 secs

     End of self-consistent calculation

     Number of k-points >= 100: set verbosity='high' to print the bands.

     the Fermi energy is    19.2733 ev

!    total energy              =  -16384.95334867 Ry

     total all-electron energy =   -322945.807056 Ry
     estimated scf accuracy    <          3.2E-09 Ry
     smearing contrib. (-TS)   =       0.03336197 Ry
     internal energy E=F+TS    =  -16384.98671064 Ry

     The total energy is F=E-TS. E is the sum of the following terms:
     one-electron contribution =   -2489.24265586 Ry
     hartree contribution      =    1662.04323065 Ry
     xc contribution           =    -986.51549587 Ry
     ewald contribution        =   -6403.84543533 Ry
     one-center paw contrib.   =   -8167.42635423 Ry

     convergence has been achieved in  10 iterations

     Forces acting on atoms (cartesian axes, Ry/au):

     atom    1 type  1   force =     0.00242790    0.00497427   -0.00327683
     atom    2 type  1   force =    -0.00459200    0.00152860   -0.00492355
     atom    3 type  1   force =     0.00426728   -0.00455861   -0.00320351
     atom    4 type  1   force =    -0.00515078    0.00269147   -0.00087877
     atom    5 type  1   force =    -0.00574858    0.00375098    0.00699970
     atom    6 type  1   force =    -0.00159447    0.00443502   -0.00229709
     atom    7 type  1   force =    -0.00127427   -0.00583118    0.00034497
     atom    8 type  1   force =     0.00256038    0.00912487   -0.00255257
     atom    9 type  1   force =     0.00956596   -0.00491923    0.00269917
     atom   10 type  1   force =    -0.00038514    0.00487051   -0.00084378
     atom   11 type  1   force =    -0.00588865    0.00029942    0.00661514
     atom   12 type  1   force =     0.00302788   -0.00342130   -0.00905027
     atom   13 type  1   force =     0.00266014   -0.01418577    0.00268052
     atom   14 type  1   force =     0.01362395    0.00268561   -0.00562501
     atom   15 type  1   force =    -0.01178384   -0.00184629    0.00612603
     atom   16 type  1   force =    -0.00003634   -0.00180941    0.00407178
     atom   17 type  1   force =    -0.00184347   -0.00722648    0.00667358
     atom   18 type  1   force =     0.00672165    0.00257052    0.00328568
     atom   19 type  1   force =    -0.00743131    0.00387183    0.01059651
     atom   20 type  1   force =     0.00573153    0.00102108    0.00915371
     atom   21 type  1   force =     0.00308086   -0.00439244    0.00019556
     atom   22 type  1   force =     0.00591862   -0.00161723   -0.01224563
     atom   23 type  1   force =    -0.00043999   -0.00775350   -0.00497618
     atom   24 type  1   force =    -0.00373291    0.00379162   -0.00132940
     atom   25 type  1   force =     0.00606839    0.00130762   -0.00069693
     atom   26 type  1   force =    -0.00080766   -0.00380355   -0.00755400
     atom   27 type  1   force =    -0.00596157   -0.00503213    0.00221558
     atom   28 type  1   force =    -0.00519524    0.00259796    0.00343216
     atom   29 type  1   force =    -0.00089502   -0.00193854   -0.00689195
     atom   30 type  1   force =    -0.00371083    0.00618755    0.00099165
     atom   31 type  1   force =    -0.00034824    0.00421239    0.00034206
     atom   32 type  1   force =     0.00116574    0.00841430   -0.00007834

     Total force =     0.051081     Total SCF correction =     0.000237


     Computing stress (Cartesian axis) and pressure

          total   stress  (Ry/bohr**3)                   (kbar)     P=        1.17
   0.00000806  -0.00000008  -0.00000079            1.19       -0.01       -0.12
  -0.00000008   0.00000749  -0.00000025           -0.01        1.10       -0.04
  -0.00000079  -0.00000025   0.00000824           -0.12       -0.04        1.21


     Writing output data file /scratch/pdheat_0046.save/
 
     init_run     :    104.95s CPU    107.09s WALL (       1 calls)
     electrons    :   4115.45s CPU   4164.41s WALL (       1 calls)
     forces       :     61.37s CPU     61.82s WALL (       1 calls)
     stress       :    418.10s CPU    421.69s WALL (       1 calls)

     Called by init_run:
     wfcinit      :    104.09s CPU    106.15s WALL (       1 calls)
     potinit      :      0.14s CPU      0.15s WALL (       1 calls)
     hinit0       :      0.51s CPU      0.52s WALL (       1 calls)

     Called by electrons:
     c_bands      :   3652.13s CPU   3692.61s WALL (      11 calls)
     sum_band     :    461.40s CPU    469.65s WALL (      11 calls)
     v_of_rho     :      0.18s CPU      0.20s WALL (      11 calls)
     newd         :      0.41s CPU      0.54s WALL (      11 calls)
     PAW_pot      :      1.02s CPU      1.07s WALL (      11 calls)
     mix_rho      :      0.15s CPU      0.18s WALL (      11 calls)

     Called by c_bands:
     init_us_2    :     20.63s CPU     20.95s WALL (    9125 calls)
     cegterg      :   3583.62s CPU   3621.17s WALL (    4015 calls)

     Called by *egterg:
     cdiaghg      :    438.70s CPU    441.00s WALL (   16609 calls)
     h_psi        :   1901.25s CPU   1928.88s WALL (   17339 calls)
     s_psi        :    162.10s CPU    163.29s WALL (   17339 calls)
     g_psi        :      4.30s CPU      4.37s WALL (   12959 calls)

     Called by h_psi:
     h_psi:calbec :    287.71s CPU    289.94s WALL (   17339 calls)
     vloc_psi     :   1443.25s CPU   1466.78s WALL (   17339 calls)
     add_vuspsi   :    158.41s CPU    160.10s WALL (   17339 calls)

     General routines
     calbec       :    527.86s CPU    531.76s WALL (   23179 calls)
     fft          :      0.47s CPU      0.49s WALL (     167 calls)
     ffts         :      0.10s CPU      0.11s WALL (     203 calls)
     fftw         :   1689.43s CPU   1716.76s WALL ( 7884538 calls)
     interpolate  :      0.16s CPU      0.17s WALL (      11 calls)
 
     Parallel routines
     fft_scatt_xy :    136.83s CPU    139.01s WALL ( 7884908 calls)
     fft_scatt_yz :   1318.91s CPU   1340.64s WALL ( 7884908 calls)
 
     PWSCF        :      1h19m CPU      1h21m WALL

 
   This run was terminated on:   6: 6:39  20Mar2022            

=------------------------------------------------------------------------------=
   JOB DONE.
=------------------------------------------------------------------------------=
