
     Program PWSCF v.6.7MaX starts on 20Mar2022 at 20:59:23 

     This program is part of the open-source Quantum ESPRESSO suite
     for quantum simulation of materials; please cite
         "P. Giannozzi et al., J. Phys.:Condens. Matter 21 395502 (2009);
         "P. Giannozzi et al., J. Phys.:Condens. Matter 29 465901 (2017);
          URL http://www.quantum-espresso.org", 
     in publications or presentations arising from this work. More details at
     http://www.quantum-espresso.org/quote

     Parallel version (MPI & OpenMP), running on      72 processor cores
     Number of MPI processes:                72
     Threads/MPI process:                     1

     MPI processes distributed on     1 nodes
     R & G space division:  proc/nbgrp/npool/nimage =      72
     Reading input from pd_0037.in
Warning: card &CELL ignored
Warning: card CELL_DYNAMICS = 'BFGS', ignored
Warning: card CELL_FACTOR = 2.0, ignored
Warning: card PRESS = 0.0, ignored
Warning: card / ignored

     Current dimensions of program PWSCF are:
     Max number of different atomic species (ntypx) = 10
     Max number of k-points (npk) =  40000
     Max angular momentum in pseudopotentials (lmaxx) =  3
     file Pd.pbe-spn-kjpaw_psl.1.0.0.UPF: wavefunction(s)  4S 5S 4D renormalized

     Subspace diagonalization in iterative solution of the eigenvalue problem:
     one sub-group per band group will be used
     ELPA distributed-memory algorithm (size of sub-group:  8*  8 procs)

 
     Parallelization info
     --------------------
     sticks:   dense  smooth     PW     G-vecs:    dense   smooth      PW
     Min         104      68     18                 6832     3663     516
     Max         105      70     19                 6839     3671     525
     Sum        7521    4973   1353               492177   264147   37529
 


     bravais-lattice index     =            0
     lattice parameter (alat)  =      14.8443  a.u.
     unit-cell volume          =    3271.0009 (a.u.)^3
     number of atoms/cell      =           32
     number of atomic types    =            1
     number of electrons       =       576.00
     number of Kohn-Sham states=          346
     kinetic-energy cutoff     =      71.0000  Ry
     charge density cutoff     =     430.0000  Ry
     scf convergence threshold =      1.0E-08
     mixing beta               =       0.3000
     number of iterations used =           10  local-TF  mixing
     Exchange-correlation= SLA  PW   PBX  PBC
                           (   1   4   3   4   0   0   0)

     celldm(1)=  14.844317  celldm(2)=   0.000000  celldm(3)=   0.000000
     celldm(4)=   0.000000  celldm(5)=   0.000000  celldm(6)=   0.000000

     crystal axes: (cart. coord. in units of alat)
               a(1) = (   1.000000   0.000000   0.000000 )  
               a(2) = (   0.000000   1.000000   0.000000 )  
               a(3) = (   0.000000   0.000000   1.000000 )  

     reciprocal axes: (cart. coord. in units 2 pi/alat)
               b(1) = (  1.000000  0.000000  0.000000 )  
               b(2) = (  0.000000  1.000000  0.000000 )  
               b(3) = (  0.000000  0.000000  1.000000 )  


     PseudoPot. # 1 for Pd read from file:
     /rds/homes/b/bxp912/pp/Pd.pbe-spn-kjpaw_psl.1.0.0.UPF
     MD5 check sum: 790f2ebce206edfd9790dcb9844eca51
     Pseudo is Projector augmented-wave + core cor, Zval = 18.0
     Generated using &quot;atomic&quot; code by A. Dal Corso  v.6.3
     Shape of augmentation charge: PSQ
     Using radial grid of 1235 points,  6 beta functions with: 
                l(1) =   0
                l(2) =   0
                l(3) =   1
                l(4) =   1
                l(5) =   2
                l(6) =   2
     Q(r) pseudized with 0 coefficients 


     atomic species   valence    mass     pseudopotential
        Pd            18.00   106.42000     Pd( 1.00)

     No symmetry found



   Cartesian axes

     site n.     atom                  positions (alat units)
         1           Pd  tau(   1) = (   0.0064870   0.9955900   0.9983310  )
         2           Pd  tau(   2) = (   0.2470900   0.2465660   0.0000870  )
         3           Pd  tau(   3) = (   0.2497070   0.0025340   0.2489130  )
         4           Pd  tau(   4) = (   0.9999700   0.2506890   0.2519710  )
         5           Pd  tau(   5) = (   0.9978660   0.9951030   0.5009730  )
         6           Pd  tau(   6) = (   0.2463860   0.2536940   0.5001930  )
         7           Pd  tau(   7) = (   0.2486180   0.0011360   0.7495040  )
         8           Pd  tau(   8) = (   0.0012160   0.2522470   0.7537710  )
         9           Pd  tau(   9) = (   0.0006060   0.5026850   0.0005000  )
        10           Pd  tau(  10) = (   0.2538600   0.7489300   0.0036830  )
        11           Pd  tau(  11) = (   0.2485440   0.5002310   0.2488860  )
        12           Pd  tau(  12) = (   0.0011680   0.7495730   0.2498510  )
        13           Pd  tau(  13) = (   0.0000970   0.4982690   0.4991600  )
        14           Pd  tau(  14) = (   0.2484150   0.7491140   0.4977520  )
        15           Pd  tau(  15) = (   0.2503610   0.5002910   0.7499780  )
        16           Pd  tau(  16) = (   0.9969030   0.7491010   0.7451250  )
        17           Pd  tau(  17) = (   0.4997230   0.0023830   0.0018740  )
        18           Pd  tau(  18) = (   0.7510750   0.2476120   0.0003370  )
        19           Pd  tau(  19) = (   0.7458210   0.0001020   0.2506600  )
        20           Pd  tau(  20) = (   0.4997890   0.2507740   0.2485170  )
        21           Pd  tau(  21) = (   0.4978330   0.0002270   0.5006090  )
        22           Pd  tau(  22) = (   0.7469640   0.2521470   0.4995910  )
        23           Pd  tau(  23) = (   0.7514620   0.0005640   0.7473320  )
        24           Pd  tau(  24) = (   0.4990970   0.2487890   0.7524640  )
        25           Pd  tau(  25) = (   0.5042140   0.4991640   0.0006000  )
        26           Pd  tau(  26) = (   0.7540940   0.7480630   0.0016440  )
        27           Pd  tau(  27) = (   0.7486250   0.5016180   0.2474560  )
        28           Pd  tau(  28) = (   0.4999800   0.7530530   0.2530940  )
        29           Pd  tau(  29) = (   0.4979410   0.5007010   0.5013080  )
        30           Pd  tau(  30) = (   0.7513470   0.7516510   0.4989670  )
        31           Pd  tau(  31) = (   0.7478080   0.5005060   0.7524300  )
        32           Pd  tau(  32) = (   0.4975390   0.7494430   0.7463220  )

     number of k points=   365  Marzari-Vanderbilt smearing, width (Ry)=  0.0400

     Number of k-points >= 100: set verbosity='high' to print them.

     Dense  grid:   492177 G-vectors     FFT dimensions: ( 100, 100, 100)

     Smooth grid:   264147 G-vectors     FFT dimensions: (  80,  80,  80)

     Estimated max dynamical RAM per process >     924.68 MB

     Estimated total dynamical RAM >      65.02 GB

     Check: negative core charge=   -0.000002

     Initial potential from superposition of free atoms

     starting charge  575.98776, renormalised to  576.00000
     Starting wfcs are  320 randomized atomic wfcs +   26 random wfcs
     Checking if some PAW data can be deallocated... 

     total cpu time spent up to now is      112.8 secs

     Self-consistent Calculation

     iteration #  1     ecut=    71.00 Ry     beta= 0.30
     Davidson diagonalization with overlap
     ethr =  1.00E-02,  avg # of iterations =  3.0

     Threshold (ethr) on eigenvalues was too large:
     Diagonalizing with lowered threshold

     Davidson diagonalization with overlap
     ethr =  9.07E-05,  avg # of iterations =  4.5

     total cpu time spent up to now is      911.2 secs

     total energy              =  -16384.98397697 Ry
     estimated scf accuracy    <       0.48661655 Ry

     iteration #  2     ecut=    71.00 Ry     beta= 0.30
     Davidson diagonalization with overlap
     ethr =  8.45E-05,  avg # of iterations =  1.9

     total cpu time spent up to now is     1229.5 secs

     total energy              =  -16384.92648316 Ry
     estimated scf accuracy    <       0.18477217 Ry

     iteration #  3     ecut=    71.00 Ry     beta= 0.30
     Davidson diagonalization with overlap
     ethr =  3.21E-05,  avg # of iterations =  3.6

     total cpu time spent up to now is     1628.9 secs

     total energy              =  -16384.95011711 Ry
     estimated scf accuracy    <       0.00795130 Ry

     iteration #  4     ecut=    71.00 Ry     beta= 0.30
     Davidson diagonalization with overlap
     c_bands:  1 eigenvalues not converged
     c_bands:  2 eigenvalues not converged
     c_bands:  1 eigenvalues not converged
     c_bands:  1 eigenvalues not converged
     c_bands:  2 eigenvalues not converged
     c_bands:  1 eigenvalues not converged
     c_bands:  1 eigenvalues not converged
     c_bands:  2 eigenvalues not converged
     c_bands:  1 eigenvalues not converged
     c_bands:  1 eigenvalues not converged
     c_bands:  1 eigenvalues not converged
     c_bands:  1 eigenvalues not converged
     c_bands:  1 eigenvalues not converged
     c_bands:  1 eigenvalues not converged
     c_bands:  1 eigenvalues not converged
     c_bands:  1 eigenvalues not converged
     c_bands:  1 eigenvalues not converged
     ethr =  1.38E-06,  avg # of iterations =  8.3

     total cpu time spent up to now is     2049.9 secs

     total energy              =  -16384.94912635 Ry
     estimated scf accuracy    <       0.00269815 Ry

     iteration #  5     ecut=    71.00 Ry     beta= 0.30
     Davidson diagonalization with overlap
     c_bands:  1 eigenvalues not converged
     ethr =  4.68E-07,  avg # of iterations =  2.1

     total cpu time spent up to now is     2417.5 secs

     total energy              =  -16384.94941422 Ry
     estimated scf accuracy    <       0.00007756 Ry

     iteration #  6     ecut=    71.00 Ry     beta= 0.30
     Davidson diagonalization with overlap
     ethr =  1.35E-08,  avg # of iterations =  4.0

     total cpu time spent up to now is     2961.5 secs

     total energy              =  -16384.94943895 Ry
     estimated scf accuracy    <       0.00003866 Ry

     iteration #  7     ecut=    71.00 Ry     beta= 0.30
     Davidson diagonalization with overlap
     ethr =  6.71E-09,  avg # of iterations =  1.0

     total cpu time spent up to now is     3265.4 secs

     total energy              =  -16384.94944232 Ry
     estimated scf accuracy    <       0.00000728 Ry

     iteration #  8     ecut=    71.00 Ry     beta= 0.30
     Davidson diagonalization with overlap
     ethr =  1.26E-09,  avg # of iterations =  2.0

     total cpu time spent up to now is     3614.5 secs

     total energy              =  -16384.94944307 Ry
     estimated scf accuracy    <       0.00000033 Ry

     iteration #  9     ecut=    71.00 Ry     beta= 0.30
     Davidson diagonalization with overlap
     ethr =  5.66E-11,  avg # of iterations =  4.0

     total cpu time spent up to now is     3986.9 secs

     total energy              =  -16384.94944305 Ry
     estimated scf accuracy    <       0.00000015 Ry

     iteration # 10     ecut=    71.00 Ry     beta= 0.30
     Davidson diagonalization with overlap
     ethr =  2.65E-11,  avg # of iterations =  2.0

     total cpu time spent up to now is     4326.2 secs

     End of self-consistent calculation

     Number of k-points >= 100: set verbosity='high' to print the bands.

     the Fermi energy is    19.2739 ev

!    total energy              =  -16384.94944325 Ry

     total all-electron energy =   -322945.803150 Ry
     estimated scf accuracy    <          4.2E-09 Ry
     smearing contrib. (-TS)   =       0.03355839 Ry
     internal energy E=F+TS    =  -16384.98300165 Ry

     The total energy is F=E-TS. E is the sum of the following terms:
     one-electron contribution =   -2490.23539738 Ry
     hartree contribution      =    1662.53804149 Ry
     xc contribution           =    -986.52265422 Ry
     ewald contribution        =   -6403.33635554 Ry
     one-center paw contrib.   =   -8167.42663599 Ry

     convergence has been achieved in  10 iterations

     Forces acting on atoms (cartesian axes, Ry/au):

     atom    1 type  1   force =    -0.01921083    0.00474913    0.00401735
     atom    2 type  1   force =     0.00648301    0.01439249    0.00161247
     atom    3 type  1   force =    -0.00107996   -0.00324585    0.00981399
     atom    4 type  1   force =    -0.00670765   -0.00620124   -0.00492253
     atom    5 type  1   force =     0.00535595    0.01919895   -0.00614647
     atom    6 type  1   force =     0.00696411   -0.01095458    0.00044278
     atom    7 type  1   force =     0.00378435   -0.00667506   -0.00334366
     atom    8 type  1   force =    -0.00727187   -0.00398269   -0.00934804
     atom    9 type  1   force =     0.00172307   -0.00550597   -0.00247895
     atom   10 type  1   force =    -0.00189028   -0.00008336   -0.01189074
     atom   11 type  1   force =     0.00800717   -0.00313279   -0.00094280
     atom   12 type  1   force =    -0.00251171    0.00253897    0.00076980
     atom   13 type  1   force =    -0.00796301    0.00401731    0.00254443
     atom   14 type  1   force =     0.00116241    0.00251449    0.00347250
     atom   15 type  1   force =    -0.00086895    0.00154279    0.00651186
     atom   16 type  1   force =     0.01054921   -0.00338731    0.01226987
     atom   17 type  1   force =     0.00377872   -0.01140477   -0.00948721
     atom   18 type  1   force =     0.00540055   -0.00031102    0.00053391
     atom   19 type  1   force =     0.01443082    0.00193788   -0.00280319
     atom   20 type  1   force =    -0.00348011    0.00292790    0.00576246
     atom   21 type  1   force =    -0.00180567    0.00626317    0.00136383
     atom   22 type  1   force =     0.00591806   -0.00211348    0.00240126
     atom   23 type  1   force =    -0.00528201   -0.00097383    0.01015482
     atom   24 type  1   force =     0.00034986    0.00175340   -0.00564800
     atom   25 type  1   force =    -0.01354558    0.00356556   -0.00073651
     atom   26 type  1   force =    -0.01193401    0.01345263   -0.00637872
     atom   27 type  1   force =     0.00272740   -0.00440825    0.00987939
     atom   28 type  1   force =     0.00042857   -0.00785555   -0.00604996
     atom   29 type  1   force =     0.00468266   -0.00224222   -0.00530456
     atom   30 type  1   force =    -0.00846896   -0.00937321   -0.00059545
     atom   31 type  1   force =     0.00432120   -0.00236933   -0.00738979
     atom   32 type  1   force =     0.00595347    0.00536584    0.01191586

     Total force =     0.066937     Total SCF correction =     0.000287


     Computing stress (Cartesian axis) and pressure

          total   stress  (Ry/bohr**3)                   (kbar)     P=        1.95
   0.00001374   0.00000049   0.00000155            2.02        0.07        0.23
   0.00000049   0.00001163   0.00000000            0.07        1.71        0.00
   0.00000155   0.00000000   0.00001430            0.23        0.00        2.10


     Writing output data file /scratch/pdheat_0037.save/
 
     init_run     :    108.95s CPU    111.00s WALL (       1 calls)
     electrons    :   4157.77s CPU   4213.47s WALL (       1 calls)
     forces       :     62.08s CPU     62.66s WALL (       1 calls)
     stress       :    419.74s CPU    422.96s WALL (       1 calls)

     Called by init_run:
     wfcinit      :    107.96s CPU    109.94s WALL (       1 calls)
     potinit      :      0.15s CPU      0.17s WALL (       1 calls)
     hinit0       :      0.50s CPU      0.51s WALL (       1 calls)

     Called by electrons:
     c_bands      :   3693.27s CPU   3740.90s WALL (      11 calls)
     sum_band     :    463.12s CPU    470.94s WALL (      11 calls)
     v_of_rho     :      0.17s CPU      0.19s WALL (      11 calls)
     newd         :      0.24s CPU      0.38s WALL (      11 calls)
     PAW_pot      :      0.92s CPU      0.96s WALL (      11 calls)
     mix_rho      :      0.15s CPU      0.18s WALL (      11 calls)

     Called by c_bands:
     init_us_2    :     17.82s CPU     18.05s WALL (    9125 calls)
     cegterg      :   3624.46s CPU   3663.91s WALL (    4015 calls)

     Called by *egterg:
     cdiaghg      :    451.12s CPU    453.75s WALL (   16940 calls)
     h_psi        :   1911.51s CPU   1939.27s WALL (   17670 calls)
     s_psi        :    163.77s CPU    164.89s WALL (   17670 calls)
     g_psi        :      4.18s CPU      4.24s WALL (   13290 calls)

     Called by h_psi:
     h_psi:calbec :    293.70s CPU    295.82s WALL (   17670 calls)
     vloc_psi     :   1442.63s CPU   1466.36s WALL (   17670 calls)
     add_vuspsi   :    164.34s CPU    166.09s WALL (   17670 calls)

     General routines
     calbec       :    483.34s CPU    486.76s WALL (   23510 calls)
     fft          :      0.28s CPU      0.30s WALL (     167 calls)
     ffts         :      0.10s CPU      0.11s WALL (     207 calls)
     fftw         :   1689.36s CPU   1716.81s WALL ( 7884846 calls)
     interpolate  :      0.02s CPU      0.03s WALL (      11 calls)
 
     Parallel routines
     fft_scatt_xy :    136.19s CPU    138.36s WALL ( 7885220 calls)
     fft_scatt_yz :   1318.73s CPU   1340.56s WALL ( 7885220 calls)
 
     PWSCF        :      1h20m CPU      1h22m WALL

 
   This run was terminated on:  22:21:26  20Mar2022            

=------------------------------------------------------------------------------=
   JOB DONE.
=------------------------------------------------------------------------------=
%%%%%%%%%%%%%%%%
     Error in routine create_directory (1):
     unable to create directory /scratch/pdheat_0037.save/
 %%%%%%%%%%%%%%%%%%%%%%%%%%%%%%%%%%%%%%%%%%%%%%%%%%%%%%%%%%%%%%%%%%%%%%%%%%%%%%

     stopping ...

 %%%%%%%%%%%%%%%%%%%%%%%%%%%%%%%%%%%%%%%%%%%%%%%%%%%%%%%%%%%%%%%%%%%%%%%%%%%%%%
     Error in routine create_directory (1):
     unable to create directory /scratch/pdheat_0037.save/
 %%%%%%%%%%%%%%%%%%%%%%%%%%%%%%%%%%%%%%%%%%%%%%%%%%%%%%%%%%%%%%%%%%%%%%%%%%%%%%

     stopping ...

 %%%%%%%%%%%%%%%%%%%%%%%%%%%%%%%%%%%%%%%%%%%%%%%%%%%%%%%%%%%%%%%%%%%%%%%%%%%%%%
     Error in routine create_directory (1):
     unable to create directory /scratch/pdheat_0037.save/
 %%%%%%%%%%%%%%%%%%%%%%%%%%%%%%%%%%%%%%%%%%%%%%%%%%%%%%%%%%%%%%%%%%%%%%%%%%%%%%

     stopping ...

 %%%%%%%%%%%%%%%%%%%%%%%%%%%%%%%%%%%%%%%%%%%%%%%%%%%%%%%%%%%%%%%%%%%%%%%%%%%%%%
     Error in routine create_directory (1):
     unable to create directory /scratch/pdheat_0037.save/
 %%%%%%%%%%%%%%%%%%%%%%%%%%%%%%%%%%%%%%%%%%%%%%%%%%%%%%%%%%%%%%%%%%%%%%%%%%%%%%

     stopping ...

 %%%%%%%%%%%%%%%%%%%%%%%%%%%%%%%%%%%%%%%%%%%%%%%%%%%%%%%%%%%%%%%%%%%%%%%%%%%%%%
     Error in routine create_directory (1):
     unable to create directory /scratch/pdheat_0037.save/
 %%%%%%%%%%%%%%%%%%%%%%%%%%%%%%%%%%%%%%%%%%%%%%%%%%%%%%%%%%%%%%%%%%%%%%%%%%%%%%

     stopping ...

 %%%%%%%%%%%%%%%%%%%%%%%%%%%%%%%%%%%%%%%%%%%%%%%%%%%%%%%%%%%%%%%%%%%%%%%%%%%%%%
     Error in routine create_directory (1):
     unable to create directory /scratch/pdheat_0037.save/
 %%%%%%%%%%%%%%%%%%%%%%%%%%%%%%%%%%%%%%%%%%%%%%%%%%%%%%%%%%%%%%%%%%%%%%%%%%%%%%

     stopping ...

 %%%%%%%%%%%%%%%%%%%%%%%%%%%%%%%%%%%%%%%%%%%%%%%%%%%%%%%%%%%%%%%%%%%%%%%%%%%%%%
     Error in routine create_directory (1):
     unable to create directory /scratch/pdheat_0037.save/
 %%%%%%%%%%%%%%%%%%%%%%%%%%%%%%%%%%%%%%%%%%%%%%%%%%%%%%%%%%%%%%%%%%%%%%%%%%%%%%

     stopping ...

 %%%%%%%%%%%%%%%%%%%%%%%%%%%%%%%%%%%%%%%%%%%%%%%%%%%%%%%%%%%%%%%%%%%%%%%%%%%%%%
     Error in routine create_directory (1):
     unable to create directory /scratch/pdheat_0037.save/
 %%%%%%%%%%%%%%%%%%%%%%%%%%%%%%%%%%%%%%%%%%%%%%%%%%%%%%%%%%%%%%%%%%%%%%%%%%%%%%

     stopping ...

 %%%%%%%%%%%%%%%%%%%%%%%%%%%%%%%%%%%%%%%%%%%%%%%%%%%%%%%%%%%%%%%%%%%%%%%%%%%%%%
     Error in routine create_directory (1):
     unable to create directory /scratch/pdheat_0037.save/
 %%%%%%%%%%%%%%%%%%%%%%%%%%%%%%%%%%%%%%%%%%%%%%%%%%%%%%%%%%%%%%%%%%%%%%%%%%%%%%

     stopping ...

 %%%%%%%%%%%%%%%%%%%%%%%%%%%%%%%%%%%%%%%%%%%%%%%%%%%%%%%%%%%%%%%%%%%%%%%%%%%%%%
     Error in routine create_directory (1):
     unable to create directory /scratch/pdheat_0037.save/
 %%%%%%%%%%%%%%%%%%%%%%%%%%%%%%%%%%%%%%%%%%%%%%%%%%%%%%%%%%%%%%%%%%%%%%%%%%%%%%

     stopping ...

 %%%%%%%%%%%%%%%%%%%%%%%%%%%%%%%%%%%%%%%%%%%%%%%%%%%%%%%%%%%%%%%%%%%%%%%%%%%%%%
     Error in routine create_directory (1):
     unable to create directory /scratch/pdheat_0037.save/
 %%%%%%%%%%%%%%%%%%%%%%%%%%%%%%%%%%%%%%%%%%%%%%%%%%%%%%%%%%%%%%%%%%%%%%%%%%%%%%

     stopping ...

 %%%%%%%%%%%%%%%%%%%%%%%%%%%%%%%%%%%%%%%%%%%%%%%%%%%%%%%%%%%%%%%%%%%%%%%%%%%%%%
     Error in routine create_directory (1):
     unable to create directory /scratch/pdheat_0037.save/
 %%%%%%%%%%%%%%%%%%%%%%%%%%%%%%%%%%%%%%%%%%%%%%%%%%%%%%%%%%%%%%%%%%%%%%%%%%%%%%

     stopping ...

 %%%%%%%%%%%%%%%%%%%%%%%%%%%%%%%%%%%%%%%%%%%%%%%%%%%%%%%%%%%%%%%%%%%%%%%%%%%%%%
     Error in routine create_directory (1):
     unable to create directory /scratch/pdheat_0037.save/
 %%%%%%%%%%%%%%%%%%%%%%%%%%%%%%%%%%%%%%%%%%%%%%%%%%%%%%%%%%%%%%%%%%%%%%%%%%%%%%

     stopping ...

 %%%%%%%%%%%%%%%%%%%%%%%%%%%%%%%%%%%%%%%%%%%%%%%%%%%%%%%%%%%%%%%%%%%%%%%%%%%%%%
     Error in routine create_directory (1):
     unable to create directory /scratch/pdheat_0037.save/
 %%%%%%%%%%%%%%%%%%%%%%%%%%%%%%%%%%%%%%%%%%%%%%%%%%%%%%%%%%%%%%%%%%%%%%%%%%%%%%

     stopping ...

 %%%%%%%%%%%%%%%%%%%%%%%%%%%%%%%%%%%%%%%%%%%%%%%%%%%%%%%%%%%%%%%%%%%%%%%%%%%%%%
     Error in routine create_directory (1):
     unable to create directory /scratch/pdheat_0037.save/
 %%%%%%%%%%%%%%%%%%%%%%%%%%%%%%%%%%%%%%%%%%%%%%%%%%%%%%%%%%%%%%%%%%%%%%%%%%%%%%

     stopping ...

 %%%%%%%%%%%%%%%%%%%%%%%%%%%%%%%%%%%%%%%%%%%%%%%%%%%%%%%%%%%%%%%%%%%%%%%%%%%%%%
     Error in routine create_directory (1):
     unable to create directory /scratch/pdheat_0037.save/
 %%%%%%%%%%%%%%%%%%%%%%%%%%%%%%%%%%%%%%%%%%%%%%%%%%%%%%%%%%%%%%%%%%%%%%%%%%%%%%

     stopping ...

 %%%%%%%%%%%%%%%%%%%%%%%%%%%%%%%%%%%%%%%%%%%%%%%%%%%%%%%%%%%%%%%%%%%%%%%%%%%%%%
     Error in routine create_directory (1):
     unable to create directory /scratch/pdheat_0037.save/
 %%%%%%%%%%%%%%%%%%%%%%%%%%%%%%%%%%%%%%%%%%%%%%%%%%%%%%%%%%%%%%%%%%%%%%%%%%%%%%

     stopping ...

 %%%%%%%%%%%%%%%%%%%%%%%%%%%%%%%%%%%%%%%%%%%%%%%%%%%%%%%%%%%%%%%%%%%%%%%%%%%%%%
     Error in routine create_directory (1):
     unable to create directory /scratch/pdheat_0037.save/
 %%%%%%%%%%%%%%%%%%%%%%%%%%%%%%%%%%%%%%%%%%%%%%%%%%%%%%%%%%%%%%%%%%%%%%%%%%%%%%

     stopping ...

 %%%%%%%%%%%%%%%%%%%%%%%%%%%%%%%%%%%%%%%%%%%%%%%%%%%%%%%%%%%%%%%%%%%%%%%%%%%%%%
     Error in routine create_directory (1):
     unable to create directory /scratch/pdheat_0037.save/
 %%%%%%%%%%%%%%%%%%%%%%%%%%%%%%%%%%%%%%%%%%%%%%%%%%%%%%%%%%%%%%%%%%%%%%%%%%%%%%

     stopping ...

 %%%%%%%%%%%%%%%%%%%%%%%%%%%%%%%%%%%%%%%%%%%%%%%%%%%%%%%%%%%%%%%%%%%%%%%%%%%%%%
     Error in routine create_directory (1):
     unable to create directory /scratch/pdheat_0037.save/
 %%%%%%%%%%%%%%%%%%%%%%%%%%%%%%%%%%%%%%%%%%%%%%%%%%%%%%%%%%%%%%%%%%%%%%%%%%%%%%

     stopping ...

 %%%%%%%%%%%%%%%%%%%%%%%%%%%%%%%%%%%%%%%%%%%%%%%%%%%%%%%%%%%%%%%%%%%%%%%%%%%%%%
     Error in routine create_directory (1):
     unable to create directory /scratch/pdheat_0037.save/
 %%%%%%%%%%%%%%%%%%%%%%%%%%%%%%%%%%%%%%%%%%%%%%%%%%%%%%%%%%%%%%%%%%%%%%%%%%%%%%

     stopping ...

 %%%%%%%%%%%%%%%%%%%%%%%%%%%%%%%%%%%%%%%%%%%%%%%%%%%%%%%%%%%%%%%%%%%%%%%%%%%%%%
     Error in routine create_directory (1):
     unable to create directory /scratch/pdheat_0037.save/
 %%%%%%%%%%%%%%%%%%%%%%%%%%%%%%%%%%%%%%%%%%%%%%%%%%%%%%%%%%%%%%%%%%%%%%%%%%%%%%

     stopping ...

 %%%%%%%%%%%%%%%%%%%%%%%%%%%%%%%%%%%%%%%%%%%%%%%%%%%%%%%%%%%%%%%%%%%%%%%%%%%%%%
     Error in routine create_directory (1):
     unable to create directory /scratch/pdheat_0037.save/
 %%%%%%%%%%%%%%%%%%%%%%%%%%%%%%%%%%%%%%%%%%%%%%%%%%%%%%%%%%%%%%%%%%%%%%%%%%%%%%

     stopping ...

 %%%%%%%%%%%%%%%%%%%%%%%%%%%%%%%%%%%%%%%%%%%%%%%%%%%%%%%%%%%%%%%%%%%%%%%%%%%%%%
     Error in routine create_directory (1):
     unable to create directory /scratch/pdheat_0037.save/
 %%%%%%%%%%%%%%%%%%%%%%%%%%%%%%%%%%%%%%%%%%%%%%%%%%%%%%%%%%%%%%%%%%%%%%%%%%%%%%

     stopping ...

 %%%%%%%%%%%%%%%%%%%%%%%%%%%%%%%%%%%%%%%%%%%%%%%%%%%%%%%%%%%%%%%%%%%%%%%%%%%%%%
     Error in routine create_directory (1):
     unable to create directory /scratch/pdheat_0037.save/
 %%%%%%%%%%%%%%%%%%%%%%%%%%%%%%%%%%%%%%%%%%%%%%%%%%%%%%%%%%%%%%%%%%%%%%%%%%%%%%

     stopping ...

 %%%%%%%%%%%%%%%%%%%%%%%%%%%%%%%%%%%%%%%%%%%%%%%%%%%%%%%%%%%%%%%%%%%%%%%%%%%%%%
     Error in routine create_directory (1):
     unable to create directory /scratch/pdheat_0037.save/
 %%%%%%%%%%%%%%%%%%%%%%%%%%%%%%%%%%%%%%%%%%%%%%%%%%%%%%%%%%%%%%%%%%%%%%%%%%%%%%

     stopping ...

 %%%%%%%%%%%%%%%%%%%%%%%%%%%%%%%%%%%%%%%%%%%%%%%%%%%%%%%%%%%%%%%%%%%%%%%%%%%%%%
     Error in routine create_directory (1):
     unable to create directory /scratch/pdheat_0037.save/
 %%%%%%%%%%%%%%%%%%%%%%%%%%%%%%%%%%%%%%%%%%%%%%%%%%%%%%%%%%%%%%%%%%%%%%%%%%%%%%

     stopping ...

 %%%%%%%%%%%%%%%%%%%%%%%%%%%%%%%%%%%%%%%%%%%%%%%%%%%%%%%%%%%%%%%%%%%%%%%%%%%%%%
     Error in routine create_directory (1):
     unable to create directory /scratch/pdheat_0037.save/
 %%%%%%%%%%%%%%%%%%%%%%%%%%%%%%%%%%%%%%%%%%%%%%%%%%%%%%%%%%%%%%%%%%%%%%%%%%%%%%

     stopping ...

 %%%%%%%%%%%%%%%%%%%%%%%%%%%%%%%%%%%%%%%%%%%%%%%%%%%%%%%%%%%%%%%%%%%%%%%%%%%%%%
     Error in routine create_directory (1):
     unable to create directory /scratch/pdheat_0037.save/
 %%%%%%%%%%%%%%%%%%%%%%%%%%%%%%%%%%%%%%%%%%%%%%%%%%%%%%%%%%%%%%%%%%%%%%%%%%%%%%

     stopping ...

 %%%%%%%%%%%%%%%%%%%%%%%%%%%%%%%%%%%%%%%%%%%%%%%%%%%%%%%%%%%%%%%%%%%%%%%%%%%%%%
     Error in routine create_directory (1):
     unable to create directory /scratch/pdheat_0037.save/
 %%%%%%%%%%%%%%%%%%%%%%%%%%%%%%%%%%%%%%%%%%%%%%%%%%%%%%%%%%%%%%%%%%%%%%%%%%%%%%

     stopping ...

 %%%%%%%%%%%%%%%%%%%%%%%%%%%%%%%%%%%%%%%%%%%%%%%%%%%%%%%%%%%%%%%%%%%%%%%%%%%%%%
     Error in routine create_directory (1):
     unable to create directory /scratch/pdheat_0037.save/
 %%%%%%%%%%%%%%%%%%%%%%%%%%%%%%%%%%%%%%%%%%%%%%%%%%%%%%%%%%%%%%%%%%%%%%%%%%%%%%

     stopping ...

 %%%%%%%%%%%%%%%%%%%%%%%%%%%%%%%%%%%%%%%%%%%%%%%%%%%%%%%%%%%%%%%%%%%%%%%%%%%%%%
     Error in routine create_directory (1):
     unable to create directory /scratch/pdheat_0037.save/
 %%%%%%%%%%%%%%%%%%%%%%%%%%%%%%%%%%%%%%%%%%%%%%%%%%%%%%%%%%%%%%%%%%%%%%%%%%%%%%

     stopping ...

 %%%%%%%%%%%%%%%%%%%%%%%%%%%%%%%%%%%%%%%%%%%%%%%%%%%%%%%%%%%%%%%%%%%%%%%%%%%%%%
     Error in routine create_directory (1):
     unable to create directory /scratch/pdheat_0037.save/
 %%%%%%%%%%%%%%%%%%%%%%%%%%%%%%%%%%%%%%%%%%%%%%%%%%%%%%%%%%%%%%%%%%%%%%%%%%%%%%

     stopping ...

 %%%%%%%%%%%%%%%%%%%%%%%%%%%%%%%%%%%%%%%%%%%%%%%%%%%%%%%%%%%%%%%%%%%%%%%%%%%%%%
     Error in routine create_directory (1):
     unable to create directory /scratch/pdheat_0037.save/
 %%%%%%%%%%%%%%%%%%%%%%%%%%%%%%%%%%%%%%%%%%%%%%%%%%%%%%%%%%%%%%%%%%%%%%%%%%%%%%

     stopping ...

 %%%%%%%%%%%%%%%%%%%%%%%%%%%%%%%%%%%%%%%%%%%%%%%%%%%%%%%%%%%%%%%%%%%%%%%%%%%%%%
     Error in routine create_directory (1):
     unable to create directory /scratch/pdheat_0037.save/
 %%%%%%%%%%%%%%%%%%%%%%%%%%%%%%%%%%%%%%%%%%%%%%%%%%%%%%%%%%%%%%%%%%%%%%%%%%%%%%

     stopping ...

 %%%%%%%%%%%%%%%%%%%%%%%%%%%%%%%%%%%%%%%%%%%%%%%%%%%%%%%%%%%%%%%%%%%%%%%%%%%%%%
     Error in routine create_directory (1):
     unable to create directory /scratch/pdheat_0037.save/
 %%%%%%%%%%%%%%%%%%%%%%%%%%%%%%%%%%%%%%%%%%%%%%%%%%%%%%%%%%%%%%%%%%%%%%%%%%%%%%

     stopping ...

 %%%%%%%%%%%%%%%%%%%%%%%%%%%%%%%%%%%%%%%%%%%%%%%%%%%%%%%%%%%%%%%%%%%%%%%%%%%%%%
     Error in routine create_directory (1):
     unable to create directory /scratch/pdheat_0037.save/
 %%%%%%%%%%%%%%%%%%%%%%%%%%%%%%%%%%%%%%%%%%%%%%%%%%%%%%%%%%%%%%%%%%%%%%%%%%%%%%

     stopping ...

 %%%%%%%%%%%%%%%%%%%%%%%%%%%%%%%%%%%%%%%%%%%%%%%%%%%%%%%%%%%%%%%%%%%%%%%%%%%%%%
     Error in routine create_directory (1):
     unable to create directory /scratch/pdheat_0037.save/
 %%%%%%%%%%%%%%%%%%%%%%%%%%%%%%%%%%%%%%%%%%%%%%%%%%%%%%%%%%%%%%%%%%%%%%%%%%%%%%

     stopping ...

 %%%%%%%%%%%%%%%%%%%%%%%%%%%%%%%%%%%%%%%%%%%%%%%%%%%%%%%%%%%%%%%%%%%%%%%%%%%%%%
     Error in routine create_directory (1):
     unable to create directory /scratch/pdheat_0037.save/
 %%%%%%%%%%%%%%%%%%%%%%%%%%%%%%%%%%%%%%%%%%%%%%%%%%%%%%%%%%%%%%%%%%%%%%%%%%%%%%

     stopping ...

 %%%%%%%%%%%%%%%%%%%%%%%%%%%%%%%%%%%%%%%%%%%%%%%%%%%%%%%%%%%%%%%%%%%%%%%%%%%%%%
     Error in routine create_directory (1):
     unable to create directory /scratch/pdheat_0037.save/
 %%%%%%%%%%%%%%%%%%%%%%%%%%%%%%%%%%%%%%%%%%%%%%%%%%%%%%%%%%%%%%%%%%%%%%%%%%%%%%

     stopping ...

 %%%%%%%%%%%%%%%%%%%%%%%%%%%%%%%%%%%%%%%%%%%%%%%%%%%%%%%%%%%%%%%%%%%%%%%%%%%%%%
     Error in routine create_directory (1):
     unable to create directory /scratch/pdheat_0037.save/
 %%%%%%%%%%%%%%%%%%%%%%%%%%%%%%%%%%%%%%%%%%%%%%%%%%%%%%%%%%%%%%%%%%%%%%%%%%%%%%

     stopping ...

 %%%%%%%%%%%%%%%%%%%%%%%%%%%%%%%%%%%%%%%%%%%%%%%%%%%%%%%%%%%%%%%%%%%%%%%%%%%%%%
     Error in routine create_directory (1):
     unable to create directory /scratch/pdheat_0037.save/
 %%%%%%%%%%%%%%%%%%%%%%%%%%%%%%%%%%%%%%%%%%%%%%%%%%%%%%%%%%%%%%%%%%%%%%%%%%%%%%

     stopping ...

 %%%%%%%%%%%%%%%%%%%%%%%%%%%%%%%%%%%%%%%%%%%%%%%%%%%%%%%%%%%%%%%%%%%%%%%%%%%%%%
     Error in routine create_directory (1):
     unable to create directory /scratch/pdheat_0037.save/
 %%%%%%%%%%%%%%%%%%%%%%%%%%%%%%%%%%%%%%%%%%%%%%%%%%%%%%%%%%%%%%%%%%%%%%%%%%%%%%

     stopping ...

 %%%%%%%%%%%%%%%%%%%%%%%%%%%%%%%%%%%%%%%%%%%%%%%%%%%%%%%%%%%%%%%%%%%%%%%%%%%%%%
     Error in routine create_directory (1):
     unable to create directory /scratch/pdheat_0037.save/
 %%%%%%%%%%%%%%%%%%%%%%%%%%%%%%%%%%%%%%%%%%%%%%%%%%%%%%%%%%%%%%%%%%%%%%%%%%%%%%

     stopping ...

 %%%%%%%%%%%%%%%%%%%%%%%%%%%%%%%%%%%%%%%%%%%%%%%%%%%%%%%%%%%%%%%%%%%%%%%%%%%%%%
     Error in routine create_directory (1):
     unable to create directory /scratch/pdheat_0037.save/
 %%%%%%%%%%%%%%%%%%%%%%%%%%%%%%%%%%%%%%%%%%%%%%%%%%%%%%%%%%%%%%%%%%%%%%%%%%%%%%

     stopping ...

 %%%%%%%%%%%%%%%%%%%%%%%%%%%%%%%%%%%%%%%%%%%%%%%%%%%%%%%%%%%%%%%%%%%%%%%%%%%%%%
     Error in routine create_directory (1):
     unable to create directory /scratch/pdheat_0037.save/
 %%%%%%%%%%%%%%%%%%%%%%%%%%%%%%%%%%%%%%%%%%%%%%%%%%%%%%%%%%%%%%%%%%%%%%%%%%%%%%

     stopping ...

 %%%%%%%%%%%%%%%%%%%%%%%%%%%%%%%%%%%%%%%%%%%%%%%%%%%%%%%%%%%%%%%%%%%%%%%%%%%%%%
     Error in routine create_directory (1):
     unable to create directory /scratch/pdheat_0037.save/
 %%%%%%%%%%%%%%%%%%%%%%%%%%%%%%%%%%%%%%%%%%%%%%%%%%%%%%%%%%%%%%%%%%%%%%%%%%%%%%

     stopping ...

 %%%%%%%%%%%%%%%%%%%%%%%%%%%%%%%%%%%%%%%%%%%%%%%%%%%%%%%%%%%%%%%%%%%%%%%%%%%%%%
     Error in routine create_directory (1):
     unable to create directory /scratch/pdheat_0037.save/
 %%%%%%%%%%%%%%%%%%%%%%%%%%%%%%%%%%%%%%%%%%%%%%%%%%%%%%%%%%%%%%%%%%%%%%%%%%%%%%

     stopping ...

 %%%%%%%%%%%%%%%%%%%%%%%%%%%%%%%%%%%%%%%%%%%%%%%%%%%%%%%%%%%%%%%%%%%%%%%%%%%%%%
     Error in routine create_directory (1):
     unable to create directory /scratch/pdheat_0037.save/
 %%%%%%%%%%%%%%%%%%%%%%%%%%%%%%%%%%%%%%%%%%%%%%%%%%%%%%%%%%%%%%%%%%%%%%%%%%%%%%

     stopping ...

 %%%%%%%%%%%%%%%%%%%%%%%%%%%%%%%%%%%%%%%%%%%%%%%%%%%%%%%%%%%%%%%%%%%%%%%%%%%%%%
     Error in routine create_directory (1):
     unable to create directory /scratch/pdheat_0037.save/
 %%%%%%%%%%%%%%%%%%%%%%%%%%%%%%%%%%%%%%%%%%%%%%%%%%%%%%%%%%%%%%%%%%%%%%%%%%%%%%

     stopping ...

 %%%%%%%%%%%%%%%%%%%%%%%%%%%%%%%%%%%%%%%%%%%%%%%%%%%%%%%%%%%%%%%%%%%%%%%%%%%%%%
     Error in routine create_directory (1):
     unable to create directory /scratch/pdheat_0037.save/
 %%%%%%%%%%%%%%%%%%%%%%%%%%%%%%%%%%%%%%%%%%%%%%%%%%%%%%%%%%%%%%%%%%%%%%%%%%%%%%

     stopping ...

 %%%%%%%%%%%%%%%%%%%%%%%%%%%%%%%%%%%%%%%%%%%%%%%%%%%%%%%%%%%%%%%%%%%%%%%%%%%%%%
     Error in routine create_directory (1):
     unable to create directory /scratch/pdheat_0037.save/
 %%%%%%%%%%%%%%%%%%%%%%%%%%%%%%%%%%%%%%%%%%%%%%%%%%%%%%%%%%%%%%%%%%%%%%%%%%%%%%

     stopping ...

 %%%%%%%%%%%%%%%%%%%%%%%%%%%%%%%%%%%%%%%%%%%%%%%%%%%%%%%%%%%%%%%%%%%%%%%%%%%%%%
     Error in routine create_directory (1):
     unable to create directory /scratch/pdheat_0037.save/
 %%%%%%%%%%%%%%%%%%%%%%%%%%%%%%%%%%%%%%%%%%%%%%%%%%%%%%%%%%%%%%%%%%%%%%%%%%%%%%

     stopping ...
