
     Program PWSCF v.6.7MaX starts on 20Mar2022 at 17:47:11 

     This program is part of the open-source Quantum ESPRESSO suite
     for quantum simulation of materials; please cite
         "P. Giannozzi et al., J. Phys.:Condens. Matter 21 395502 (2009);
         "P. Giannozzi et al., J. Phys.:Condens. Matter 29 465901 (2017);
          URL http://www.quantum-espresso.org", 
     in publications or presentations arising from this work. More details at
     http://www.quantum-espresso.org/quote

     Parallel version (MPI & OpenMP), running on      72 processor cores
     Number of MPI processes:                72
     Threads/MPI process:                     1

     MPI processes distributed on     1 nodes
     R & G space division:  proc/nbgrp/npool/nimage =      72
     Reading input from pd_0021.in
Warning: card &CELL ignored
Warning: card CELL_DYNAMICS = 'BFGS', ignored
Warning: card CELL_FACTOR = 2.0, ignored
Warning: card PRESS = 0.0, ignored
Warning: card / ignored

     Current dimensions of program PWSCF are:
     Max number of different atomic species (ntypx) = 10
     Max number of k-points (npk) =  40000
     Max angular momentum in pseudopotentials (lmaxx) =  3
     file Pd.pbe-spn-kjpaw_psl.1.0.0.UPF: wavefunction(s)  4S 5S 4D renormalized

     Subspace diagonalization in iterative solution of the eigenvalue problem:
     one sub-group per band group will be used
     ELPA distributed-memory algorithm (size of sub-group:  8*  8 procs)

 
     Parallelization info
     --------------------
     sticks:   dense  smooth     PW     G-vecs:    dense   smooth      PW
     Min         104      68     18                 6832     3663     516
     Max         105      70     19                 6839     3671     525
     Sum        7521    4973   1353               492177   264147   37529
 


     bravais-lattice index     =            0
     lattice parameter (alat)  =      14.8443  a.u.
     unit-cell volume          =    3271.0009 (a.u.)^3
     number of atoms/cell      =           32
     number of atomic types    =            1
     number of electrons       =       576.00
     number of Kohn-Sham states=          346
     kinetic-energy cutoff     =      71.0000  Ry
     charge density cutoff     =     430.0000  Ry
     scf convergence threshold =      1.0E-08
     mixing beta               =       0.3000
     number of iterations used =           10  local-TF  mixing
     Exchange-correlation= SLA  PW   PBX  PBC
                           (   1   4   3   4   0   0   0)

     celldm(1)=  14.844317  celldm(2)=   0.000000  celldm(3)=   0.000000
     celldm(4)=   0.000000  celldm(5)=   0.000000  celldm(6)=   0.000000

     crystal axes: (cart. coord. in units of alat)
               a(1) = (   1.000000   0.000000   0.000000 )  
               a(2) = (   0.000000   1.000000   0.000000 )  
               a(3) = (   0.000000   0.000000   1.000000 )  

     reciprocal axes: (cart. coord. in units 2 pi/alat)
               b(1) = (  1.000000  0.000000  0.000000 )  
               b(2) = (  0.000000  1.000000  0.000000 )  
               b(3) = (  0.000000  0.000000  1.000000 )  


     PseudoPot. # 1 for Pd read from file:
     /rds/homes/b/bxp912/pp/Pd.pbe-spn-kjpaw_psl.1.0.0.UPF
     MD5 check sum: 790f2ebce206edfd9790dcb9844eca51
     Pseudo is Projector augmented-wave + core cor, Zval = 18.0
     Generated using &quot;atomic&quot; code by A. Dal Corso  v.6.3
     Shape of augmentation charge: PSQ
     Using radial grid of 1235 points,  6 beta functions with: 
                l(1) =   0
                l(2) =   0
                l(3) =   1
                l(4) =   1
                l(5) =   2
                l(6) =   2
     Q(r) pseudized with 0 coefficients 


     atomic species   valence    mass     pseudopotential
        Pd            18.00   106.42000     Pd( 1.00)

     No symmetry found



   Cartesian axes

     site n.     atom                  positions (alat units)
         1           Pd  tau(   1) = (   0.9993920   0.9995880   0.0011380  )
         2           Pd  tau(   2) = (   0.2497800   0.2503040   0.9994920  )
         3           Pd  tau(   3) = (   0.2496630   0.0003220   0.2490890  )
         4           Pd  tau(   4) = (   0.9993690   0.2504650   0.2509060  )
         5           Pd  tau(   5) = (   0.0007540   0.0001930   0.5001330  )
         6           Pd  tau(   6) = (   0.2493630   0.2471060   0.4995460  )
         7           Pd  tau(   7) = (   0.2503260   0.9993650   0.7502660  )
         8           Pd  tau(   8) = (   0.0013680   0.2493950   0.7501870  )
         9           Pd  tau(   9) = (   0.0003290   0.5003060   0.0006550  )
        10           Pd  tau(  10) = (   0.2502900   0.7503320   0.0011770  )
        11           Pd  tau(  11) = (   0.2490860   0.5009980   0.2497830  )
        12           Pd  tau(  12) = (   0.0002990   0.7505820   0.2505270  )
        13           Pd  tau(  13) = (   0.0001760   0.4995890   0.4974040  )
        14           Pd  tau(  14) = (   0.2495680   0.7502300   0.5027180  )
        15           Pd  tau(  15) = (   0.2509470   0.5001840   0.7502680  )
        16           Pd  tau(  16) = (   0.0007910   0.7502310   0.7501440  )
        17           Pd  tau(  17) = (   0.4996430   0.0011540   0.9990350  )
        18           Pd  tau(  18) = (   0.7493110   0.2490390   0.9985390  )
        19           Pd  tau(  19) = (   0.7493330   0.0004220   0.2502680  )
        20           Pd  tau(  20) = (   0.4989920   0.2506820   0.2497170  )
        21           Pd  tau(  21) = (   0.4996740   0.0004860   0.4996160  )
        22           Pd  tau(  22) = (   0.7500710   0.2487380   0.4976170  )
        23           Pd  tau(  23) = (   0.7492820   0.9997220   0.7501320  )
        24           Pd  tau(  24) = (   0.5002220   0.2494010   0.7498810  )
        25           Pd  tau(  25) = (   0.4999050   0.4987930   0.0000240  )
        26           Pd  tau(  26) = (   0.7515610   0.7501370   0.9992210  )
        27           Pd  tau(  27) = (   0.7493880   0.5006850   0.2520300  )
        28           Pd  tau(  28) = (   0.5003060   0.7492550   0.2508580  )
        29           Pd  tau(  29) = (   0.4995390   0.5005980   0.4998020  )
        30           Pd  tau(  30) = (   0.7490430   0.7495830   0.5000120  )
        31           Pd  tau(  31) = (   0.7507460   0.4993000   0.7499740  )
        32           Pd  tau(  32) = (   0.4997520   0.7492650   0.7485390  )

     number of k points=   365  Marzari-Vanderbilt smearing, width (Ry)=  0.0400

     Number of k-points >= 100: set verbosity='high' to print them.

     Dense  grid:   492177 G-vectors     FFT dimensions: ( 100, 100, 100)

     Smooth grid:   264147 G-vectors     FFT dimensions: (  80,  80,  80)

     Estimated max dynamical RAM per process >     924.68 MB

     Estimated total dynamical RAM >      65.02 GB

     Check: negative core charge=   -0.000002

     Initial potential from superposition of free atoms

     starting charge  575.98776, renormalised to  576.00000
     Starting wfcs are  320 randomized atomic wfcs +   26 random wfcs
     Checking if some PAW data can be deallocated... 

     total cpu time spent up to now is      109.2 secs

     Self-consistent Calculation

     iteration #  1     ecut=    71.00 Ry     beta= 0.30
     Davidson diagonalization with overlap
     ethr =  1.00E-02,  avg # of iterations =  3.0

     Threshold (ethr) on eigenvalues was too large:
     Diagonalizing with lowered threshold

     Davidson diagonalization with overlap
     ethr =  8.97E-05,  avg # of iterations =  4.4

     total cpu time spent up to now is      897.3 secs

     total energy              =  -16384.99063123 Ry
     estimated scf accuracy    <       0.48035560 Ry

     iteration #  2     ecut=    71.00 Ry     beta= 0.30
     Davidson diagonalization with overlap
     ethr =  8.34E-05,  avg # of iterations =  1.7

     total cpu time spent up to now is     1208.1 secs

     total energy              =  -16384.93430363 Ry
     estimated scf accuracy    <       0.18158647 Ry

     iteration #  3     ecut=    71.00 Ry     beta= 0.30
     Davidson diagonalization with overlap
     ethr =  3.15E-05,  avg # of iterations =  3.5

     total cpu time spent up to now is     1600.4 secs

     total energy              =  -16384.95757896 Ry
     estimated scf accuracy    <       0.00759273 Ry

     iteration #  4     ecut=    71.00 Ry     beta= 0.30
     Davidson diagonalization with overlap
     c_bands:  1 eigenvalues not converged
     c_bands:  2 eigenvalues not converged
     c_bands:  1 eigenvalues not converged
     c_bands:  2 eigenvalues not converged
     c_bands:  2 eigenvalues not converged
     ethr =  1.32E-06,  avg # of iterations =  6.5

     total cpu time spent up to now is     1996.5 secs

     total energy              =  -16384.95663136 Ry
     estimated scf accuracy    <       0.00259949 Ry

     iteration #  5     ecut=    71.00 Ry     beta= 0.30
     Davidson diagonalization with overlap
     c_bands:  1 eigenvalues not converged
     ethr =  4.51E-07,  avg # of iterations =  2.1

     total cpu time spent up to now is     2356.2 secs

     total energy              =  -16384.95689104 Ry
     estimated scf accuracy    <       0.00007629 Ry

     iteration #  6     ecut=    71.00 Ry     beta= 0.30
     Davidson diagonalization with overlap
     ethr =  1.32E-08,  avg # of iterations =  4.0

     total cpu time spent up to now is     2869.5 secs

     total energy              =  -16384.95691402 Ry
     estimated scf accuracy    <       0.00003756 Ry

     iteration #  7     ecut=    71.00 Ry     beta= 0.30
     Davidson diagonalization with overlap
     ethr =  6.52E-09,  avg # of iterations =  1.1

     total cpu time spent up to now is     3168.5 secs

     total energy              =  -16384.95691728 Ry
     estimated scf accuracy    <       0.00000501 Ry

     iteration #  8     ecut=    71.00 Ry     beta= 0.30
     Davidson diagonalization with overlap
     ethr =  8.69E-10,  avg # of iterations =  2.0

     total cpu time spent up to now is     3514.5 secs

     total energy              =  -16384.95691799 Ry
     estimated scf accuracy    <       0.00000030 Ry

     iteration #  9     ecut=    71.00 Ry     beta= 0.30
     Davidson diagonalization with overlap
     ethr =  5.18E-11,  avg # of iterations =  4.0

     total cpu time spent up to now is     3891.9 secs

     total energy              =  -16384.95691799 Ry
     estimated scf accuracy    <       0.00000010 Ry

     iteration # 10     ecut=    71.00 Ry     beta= 0.30
     Davidson diagonalization with overlap
     ethr =  1.66E-11,  avg # of iterations =  2.0

     total cpu time spent up to now is     4236.7 secs

     End of self-consistent calculation

     Number of k-points >= 100: set verbosity='high' to print the bands.

     the Fermi energy is    19.2729 ev

!    total energy              =  -16384.95691818 Ry

     total all-electron energy =   -322945.810625 Ry
     estimated scf accuracy    <          2.2E-09 Ry
     smearing contrib. (-TS)   =       0.03324075 Ry
     internal energy E=F+TS    =  -16384.99015893 Ry

     The total energy is F=E-TS. E is the sum of the following terms:
     one-electron contribution =   -2488.24086480 Ry
     hartree contribution      =    1661.54267223 Ry
     xc contribution           =    -986.50892396 Ry
     ewald contribution        =   -6404.35697654 Ry
     one-center paw contrib.   =   -8167.42606587 Ry

     convergence has been achieved in  10 iterations

     Forces acting on atoms (cartesian axes, Ry/au):

     atom    1 type  1   force =     0.00112140    0.00220588   -0.00209351
     atom    2 type  1   force =    -0.00143823   -0.00042680    0.00144262
     atom    3 type  1   force =     0.00178562   -0.00199534    0.00136022
     atom    4 type  1   force =     0.00069740   -0.00144695   -0.00529709
     atom    5 type  1   force =    -0.00355006   -0.00245978    0.00031513
     atom    6 type  1   force =     0.00237583    0.00813053    0.00108537
     atom    7 type  1   force =    -0.00061038    0.00090710    0.00209240
     atom    8 type  1   force =    -0.00346455    0.00175775   -0.00126680
     atom    9 type  1   force =    -0.00191103   -0.00158330   -0.00117451
     atom   10 type  1   force =     0.00158778   -0.00026805   -0.00263108
     atom   11 type  1   force =     0.00269263   -0.00208761    0.00167483
     atom   12 type  1   force =    -0.00133214    0.00022821    0.00066483
     atom   13 type  1   force =     0.00069896    0.00038270    0.00863204
     atom   14 type  1   force =     0.00026595   -0.00011288   -0.00751717
     atom   15 type  1   force =    -0.00312775   -0.00231947   -0.00141632
     atom   16 type  1   force =    -0.00255438   -0.00194201   -0.00066458
     atom   17 type  1   force =     0.00087167   -0.00529445    0.00294691
     atom   18 type  1   force =     0.00311796    0.00348793    0.00441976
     atom   19 type  1   force =    -0.00008715   -0.00232941   -0.00199144
     atom   20 type  1   force =     0.00053246   -0.00056418    0.00006550
     atom   21 type  1   force =     0.00029222   -0.00161692   -0.00045762
     atom   22 type  1   force =    -0.00070289    0.00270945    0.00757287
     atom   23 type  1   force =     0.00260779   -0.00024478   -0.00248993
     atom   24 type  1   force =    -0.00057411    0.00235248   -0.00339585
     atom   25 type  1   force =     0.00218657    0.00423546    0.00029664
     atom   26 type  1   force =    -0.00563657   -0.00139061    0.00198393
     atom   27 type  1   force =     0.00043240   -0.00161381   -0.00770226
     atom   28 type  1   force =    -0.00156015    0.00307689   -0.00350988
     atom   29 type  1   force =    -0.00130542   -0.00504637    0.00122896
     atom   30 type  1   force =     0.00395654    0.00265091    0.00164247
     atom   31 type  1   force =     0.00051962   -0.00025897   -0.00192686
     atom   32 type  1   force =     0.00211201    0.00087641    0.00611044

     Total force =     0.028227     Total SCF correction =     0.000155


     Computing stress (Cartesian axis) and pressure

          total   stress  (Ry/bohr**3)                   (kbar)     P=        0.42
   0.00000275   0.00000012   0.00000002            0.40        0.02        0.00
   0.00000012   0.00000284   0.00000021            0.02        0.42        0.03
   0.00000002   0.00000021   0.00000293            0.00        0.03        0.43


     Writing output data file /scratch/pdheat_0021.save/
 
     init_run     :    104.89s CPU    106.97s WALL (       1 calls)
     electrons    :   4080.62s CPU   4127.51s WALL (       1 calls)
     forces       :     61.26s CPU     61.62s WALL (       1 calls)
     stress       :    419.54s CPU    423.30s WALL (       1 calls)

     Called by init_run:
     wfcinit      :    104.04s CPU    106.05s WALL (       1 calls)
     potinit      :      0.14s CPU      0.16s WALL (       1 calls)
     hinit0       :      0.49s CPU      0.50s WALL (       1 calls)

     Called by electrons:
     c_bands      :   3619.18s CPU   3658.69s WALL (      11 calls)
     sum_band     :    460.05s CPU    467.22s WALL (      11 calls)
     v_of_rho     :      0.17s CPU      0.19s WALL (      11 calls)
     newd         :      0.25s CPU      0.38s WALL (      11 calls)
     PAW_pot      :      0.89s CPU      0.94s WALL (      11 calls)
     mix_rho      :      0.16s CPU      0.17s WALL (      11 calls)

     Called by c_bands:
     init_us_2    :     18.19s CPU     18.40s WALL (    9125 calls)
     cegterg      :   3550.21s CPU   3586.79s WALL (    4015 calls)

     Called by *egterg:
     cdiaghg      :    432.02s CPU    434.48s WALL (   16160 calls)
     h_psi        :   1893.74s CPU   1920.68s WALL (   16890 calls)
     s_psi        :    160.45s CPU    161.54s WALL (   16890 calls)
     g_psi        :      4.93s CPU      5.01s WALL (   12510 calls)

     Called by h_psi:
     h_psi:calbec :    286.24s CPU    288.08s WALL (   16890 calls)
     vloc_psi     :   1441.47s CPU   1464.74s WALL (   16890 calls)
     add_vuspsi   :    154.62s CPU    156.31s WALL (   16890 calls)

     General routines
     calbec       :    688.64s CPU    693.78s WALL (   22730 calls)
     fft          :      0.25s CPU      0.27s WALL (     167 calls)
     ffts         :      0.10s CPU      0.11s WALL (     203 calls)
     fftw         :   1689.14s CPU   1716.63s WALL ( 7899622 calls)
     interpolate  :      0.02s CPU      0.03s WALL (      11 calls)
 
     Parallel routines
     fft_scatt_xy :    136.31s CPU    138.44s WALL ( 7899992 calls)
     fft_scatt_yz :   1317.89s CPU   1339.87s WALL ( 7899992 calls)
 
     PWSCF        :      1h19m CPU      1h20m WALL

 
   This run was terminated on:  19: 7:40  20Mar2022            

=------------------------------------------------------------------------------=
   JOB DONE.
=------------------------------------------------------------------------------=
