
     Program PWSCF v.6.7MaX starts on 20Mar2022 at  3:40:42 

     This program is part of the open-source Quantum ESPRESSO suite
     for quantum simulation of materials; please cite
         "P. Giannozzi et al., J. Phys.:Condens. Matter 21 395502 (2009);
         "P. Giannozzi et al., J. Phys.:Condens. Matter 29 465901 (2017);
          URL http://www.quantum-espresso.org", 
     in publications or presentations arising from this work. More details at
     http://www.quantum-espresso.org/quote

     Parallel version (MPI & OpenMP), running on      72 processor cores
     Number of MPI processes:                72
     Threads/MPI process:                     1

     MPI processes distributed on     1 nodes
     R & G space division:  proc/nbgrp/npool/nimage =      72
     Reading input from pd_0005.in
Warning: card &CELL ignored
Warning: card CELL_DYNAMICS = 'BFGS', ignored
Warning: card CELL_FACTOR = 2.0, ignored
Warning: card PRESS = 0.0, ignored
Warning: card / ignored

     Current dimensions of program PWSCF are:
     Max number of different atomic species (ntypx) = 10
     Max number of k-points (npk) =  40000
     Max angular momentum in pseudopotentials (lmaxx) =  3
     file Pd.pbe-spn-kjpaw_psl.1.0.0.UPF: wavefunction(s)  4S 5S 4D renormalized

     Subspace diagonalization in iterative solution of the eigenvalue problem:
     one sub-group per band group will be used
     ELPA distributed-memory algorithm (size of sub-group:  8*  8 procs)

 
     Parallelization info
     --------------------
     sticks:   dense  smooth     PW     G-vecs:    dense   smooth      PW
     Min         104      68     18                 6832     3663     516
     Max         105      70     19                 6839     3671     525
     Sum        7521    4973   1353               492177   264147   37529
 


     bravais-lattice index     =            0
     lattice parameter (alat)  =      14.8443  a.u.
     unit-cell volume          =    3271.0009 (a.u.)^3
     number of atoms/cell      =           32
     number of atomic types    =            1
     number of electrons       =       576.00
     number of Kohn-Sham states=          346
     kinetic-energy cutoff     =      71.0000  Ry
     charge density cutoff     =     430.0000  Ry
     scf convergence threshold =      1.0E-08
     mixing beta               =       0.3000
     number of iterations used =           10  local-TF  mixing
     Exchange-correlation= SLA  PW   PBX  PBC
                           (   1   4   3   4   0   0   0)

     celldm(1)=  14.844317  celldm(2)=   0.000000  celldm(3)=   0.000000
     celldm(4)=   0.000000  celldm(5)=   0.000000  celldm(6)=   0.000000

     crystal axes: (cart. coord. in units of alat)
               a(1) = (   1.000000   0.000000   0.000000 )  
               a(2) = (   0.000000   1.000000   0.000000 )  
               a(3) = (   0.000000   0.000000   1.000000 )  

     reciprocal axes: (cart. coord. in units 2 pi/alat)
               b(1) = (  1.000000  0.000000  0.000000 )  
               b(2) = (  0.000000  1.000000  0.000000 )  
               b(3) = (  0.000000  0.000000  1.000000 )  


     PseudoPot. # 1 for Pd read from file:
     /rds/homes/b/bxp912/pp/Pd.pbe-spn-kjpaw_psl.1.0.0.UPF
     MD5 check sum: 790f2ebce206edfd9790dcb9844eca51
     Pseudo is Projector augmented-wave + core cor, Zval = 18.0
     Generated using &quot;atomic&quot; code by A. Dal Corso  v.6.3
     Shape of augmentation charge: PSQ
     Using radial grid of 1235 points,  6 beta functions with: 
                l(1) =   0
                l(2) =   0
                l(3) =   1
                l(4) =   1
                l(5) =   2
                l(6) =   2
     Q(r) pseudized with 0 coefficients 


     atomic species   valence    mass     pseudopotential
        Pd            18.00   106.42000     Pd( 1.00)

     No symmetry found



   Cartesian axes

     site n.     atom                  positions (alat units)
         1           Pd  tau(   1) = (   0.9999430   0.0000540   0.9998000  )
         2           Pd  tau(   2) = (   0.2498670   0.2500340   0.0001050  )
         3           Pd  tau(   3) = (   0.2499790   0.0001140   0.2500480  )
         4           Pd  tau(   4) = (   0.0002560   0.2502890   0.2498280  )
         5           Pd  tau(   5) = (   0.9999630   0.0002740   0.4997350  )
         6           Pd  tau(   6) = (   0.2501260   0.2494220   0.4999300  )
         7           Pd  tau(   7) = (   0.2503260   0.0000160   0.7498040  )
         8           Pd  tau(   8) = (   0.9998500   0.2504600   0.7504610  )
         9           Pd  tau(   9) = (   0.9999960   0.4996970   0.0001180  )
        10           Pd  tau(  10) = (   0.2495700   0.7500560   0.9999900  )
        11           Pd  tau(  11) = (   0.2500100   0.4999130   0.2501260  )
        12           Pd  tau(  12) = (   0.9998740   0.7499460   0.2500760  )
        13           Pd  tau(  13) = (   0.0002880   0.5006230   0.4999410  )
        14           Pd  tau(  14) = (   0.2500510   0.7499880   0.5001400  )
        15           Pd  tau(  15) = (   0.2505830   0.5001590   0.7502990  )
        16           Pd  tau(  16) = (   0.9997800   0.7499010   0.7498580  )
        17           Pd  tau(  17) = (   0.4998170   0.9999290   0.9999590  )
        18           Pd  tau(  18) = (   0.7501330   0.2499930   0.0001460  )
        19           Pd  tau(  19) = (   0.7500740   0.0000060   0.2501900  )
        20           Pd  tau(  20) = (   0.4999420   0.2501720   0.2499740  )
        21           Pd  tau(  21) = (   0.4998420   0.9999870   0.4998290  )
        22           Pd  tau(  22) = (   0.7499330   0.2503170   0.4998290  )
        23           Pd  tau(  23) = (   0.7501570   0.0003640   0.7496390  )
        24           Pd  tau(  24) = (   0.5000360   0.2498200   0.7498280  )
        25           Pd  tau(  25) = (   0.4997410   0.5002090   0.0001810  )
        26           Pd  tau(  26) = (   0.7503160   0.7500570   0.9999380  )
        27           Pd  tau(  27) = (   0.7496800   0.4998190   0.2502040  )
        28           Pd  tau(  28) = (   0.4996250   0.7499510   0.2501880  )
        29           Pd  tau(  29) = (   0.5001500   0.5000700   0.4996040  )
        30           Pd  tau(  30) = (   0.7498390   0.7499140   0.4997110  )
        31           Pd  tau(  31) = (   0.7503810   0.5002920   0.7503950  )
        32           Pd  tau(  32) = (   0.5003410   0.7502320   0.7496830  )

     number of k points=   365  Marzari-Vanderbilt smearing, width (Ry)=  0.0400

     Number of k-points >= 100: set verbosity='high' to print them.

     Dense  grid:   492177 G-vectors     FFT dimensions: ( 100, 100, 100)

     Smooth grid:   264147 G-vectors     FFT dimensions: (  80,  80,  80)

     Estimated max dynamical RAM per process >     924.68 MB

     Estimated total dynamical RAM >      65.02 GB

     Check: negative core charge=   -0.000002

     Initial potential from superposition of free atoms

     starting charge  575.98776, renormalised to  576.00000
     Starting wfcs are  320 randomized atomic wfcs +   26 random wfcs
     Checking if some PAW data can be deallocated... 

     total cpu time spent up to now is      112.9 secs

     Self-consistent Calculation

     iteration #  1     ecut=    71.00 Ry     beta= 0.30
     Davidson diagonalization with overlap
     ethr =  1.00E-02,  avg # of iterations =  3.0

     Threshold (ethr) on eigenvalues was too large:
     Diagonalizing with lowered threshold

     Davidson diagonalization with overlap
     ethr =  8.96E-05,  avg # of iterations =  4.4

     total cpu time spent up to now is      924.6 secs

     total energy              =  -16384.99192137 Ry
     estimated scf accuracy    <       0.47935462 Ry

     iteration #  2     ecut=    71.00 Ry     beta= 0.30
     Davidson diagonalization with overlap
     ethr =  8.32E-05,  avg # of iterations =  1.5

     total cpu time spent up to now is     1235.9 secs

     total energy              =  -16384.93578620 Ry
     estimated scf accuracy    <       0.18080032 Ry

     iteration #  3     ecut=    71.00 Ry     beta= 0.30
     Davidson diagonalization with overlap
     ethr =  3.14E-05,  avg # of iterations =  3.2

     total cpu time spent up to now is     1626.7 secs

     total energy              =  -16384.95903886 Ry
     estimated scf accuracy    <       0.00749863 Ry

     iteration #  4     ecut=    71.00 Ry     beta= 0.30
     Davidson diagonalization with overlap
     ethr =  1.30E-06,  avg # of iterations =  5.7

     total cpu time spent up to now is     2021.7 secs

     total energy              =  -16384.95809907 Ry
     estimated scf accuracy    <       0.00257258 Ry

     iteration #  5     ecut=    71.00 Ry     beta= 0.30
     Davidson diagonalization with overlap
     ethr =  4.47E-07,  avg # of iterations =  2.0

     total cpu time spent up to now is     2386.9 secs

     total energy              =  -16384.95835526 Ry
     estimated scf accuracy    <       0.00007524 Ry

     iteration #  6     ecut=    71.00 Ry     beta= 0.30
     Davidson diagonalization with overlap
     ethr =  1.31E-08,  avg # of iterations =  4.0

     total cpu time spent up to now is     2882.2 secs

     total energy              =  -16384.95837673 Ry
     estimated scf accuracy    <       0.00003742 Ry

     iteration #  7     ecut=    71.00 Ry     beta= 0.30
     Davidson diagonalization with overlap
     ethr =  6.50E-09,  avg # of iterations =  2.0

     total cpu time spent up to now is     3224.2 secs

     total energy              =  -16384.95837998 Ry
     estimated scf accuracy    <       0.00000434 Ry

     iteration #  8     ecut=    71.00 Ry     beta= 0.30
     Davidson diagonalization with overlap
     ethr =  7.53E-10,  avg # of iterations =  2.0

     total cpu time spent up to now is     3574.4 secs

     total energy              =  -16384.95838074 Ry
     estimated scf accuracy    <       0.00000030 Ry

     iteration #  9     ecut=    71.00 Ry     beta= 0.30
     Davidson diagonalization with overlap
     ethr =  5.15E-11,  avg # of iterations =  4.0

     total cpu time spent up to now is     3964.7 secs

     total energy              =  -16384.95838075 Ry
     estimated scf accuracy    <       0.00000007 Ry

     iteration # 10     ecut=    71.00 Ry     beta= 0.30
     Davidson diagonalization with overlap
     ethr =  1.23E-11,  avg # of iterations =  2.0

     total cpu time spent up to now is     4323.9 secs

     End of self-consistent calculation

     Number of k-points >= 100: set verbosity='high' to print the bands.

     the Fermi energy is    19.2727 ev

!    total energy              =  -16384.95838094 Ry

     total all-electron energy =   -322945.812088 Ry
     estimated scf accuracy    <          2.7E-09 Ry
     smearing contrib. (-TS)   =       0.03318302 Ry
     internal energy E=F+TS    =  -16384.99156396 Ry

     The total energy is F=E-TS. E is the sum of the following terms:
     one-electron contribution =   -2487.82168680 Ry
     hartree contribution      =    1661.33346967 Ry
     xc contribution           =    -986.50611052 Ry
     ewald contribution        =   -6404.57128851 Ry
     one-center paw contrib.   =   -8167.42594781 Ry

     convergence has been achieved in  10 iterations

     Forces acting on atoms (cartesian axes, Ry/au):

     atom    1 type  1   force =     0.00019611   -0.00016497    0.00028647
     atom    2 type  1   force =     0.00073925   -0.00029394   -0.00054866
     atom    3 type  1   force =    -0.00026137   -0.00050787   -0.00053873
     atom    4 type  1   force =    -0.00066166   -0.00046132    0.00084215
     atom    5 type  1   force =    -0.00000815   -0.00022818    0.00084256
     atom    6 type  1   force =    -0.00064741    0.00204388    0.00069617
     atom    7 type  1   force =    -0.00136240   -0.00009792    0.00052886
     atom    8 type  1   force =     0.00087042   -0.00065264   -0.00181349
     atom    9 type  1   force =     0.00018320    0.00118598    0.00026984
     atom   10 type  1   force =     0.00071087    0.00020501   -0.00012540
     atom   11 type  1   force =    -0.00022759    0.00034462   -0.00008771
     atom   12 type  1   force =     0.00023339    0.00015984   -0.00034216
     atom   13 type  1   force =    -0.00011730   -0.00185344    0.00050332
     atom   14 type  1   force =    -0.00026505    0.00020073   -0.00009812
     atom   15 type  1   force =    -0.00084992   -0.00047273   -0.00104007
     atom   16 type  1   force =     0.00079621    0.00071063    0.00006675
     atom   17 type  1   force =     0.00074848   -0.00003103    0.00026101
     atom   18 type  1   force =    -0.00101740   -0.00013345   -0.00006255
     atom   19 type  1   force =    -0.00039993    0.00015786   -0.00076348
     atom   20 type  1   force =     0.00010898   -0.00079909   -0.00038929
     atom   21 type  1   force =     0.00081482    0.00003975   -0.00007748
     atom   22 type  1   force =     0.00072941   -0.00005646    0.00052910
     atom   23 type  1   force =    -0.00025016   -0.00048274    0.00041275
     atom   24 type  1   force =     0.00039787    0.00100481    0.00057456
     atom   25 type  1   force =     0.00083716   -0.00008265   -0.00056270
     atom   26 type  1   force =    -0.00101472    0.00022780    0.00055653
     atom   27 type  1   force =     0.00080932    0.00064110   -0.00092139
     atom   28 type  1   force =     0.00066793    0.00049405   -0.00105584
     atom   29 type  1   force =    -0.00054454   -0.00042234    0.00161018
     atom   30 type  1   force =     0.00046153    0.00050622    0.00048047
     atom   31 type  1   force =    -0.00148020   -0.00069221   -0.00099618
     atom   32 type  1   force =    -0.00019716   -0.00048928    0.00096252

     Total force =     0.006815     Total SCF correction =     0.000119


     Computing stress (Cartesian axis) and pressure

          total   stress  (Ry/bohr**3)                   (kbar)     P=        0.10
   0.00000072   0.00000001  -0.00000003            0.11        0.00       -0.00
   0.00000001   0.00000071   0.00000000            0.00        0.10        0.00
  -0.00000003   0.00000000   0.00000069           -0.00        0.00        0.10


     Writing output data file /scratch/pdheat_0005.save/
 
     init_run     :    108.30s CPU    110.45s WALL (       1 calls)
     electrons    :   4147.09s CPU   4211.05s WALL (       1 calls)
     forces       :     61.80s CPU     62.40s WALL (       1 calls)
     stress       :    425.42s CPU    430.28s WALL (       1 calls)

     Called by init_run:
     wfcinit      :    107.70s CPU    109.78s WALL (       1 calls)
     potinit      :      0.14s CPU      0.16s WALL (       1 calls)
     hinit0       :      0.16s CPU      0.17s WALL (       1 calls)

     Called by electrons:
     c_bands      :   3680.56s CPU   3735.20s WALL (      11 calls)
     sum_band     :    465.06s CPU    473.92s WALL (      11 calls)
     v_of_rho     :      0.17s CPU      0.19s WALL (      11 calls)
     newd         :      0.27s CPU      0.63s WALL (      11 calls)
     PAW_pot      :      0.91s CPU      0.97s WALL (      11 calls)
     mix_rho      :      0.19s CPU      0.21s WALL (      11 calls)

     Called by c_bands:
     init_us_2    :     21.74s CPU     22.02s WALL (    9125 calls)
     cegterg      :   3611.95s CPU   3650.27s WALL (    4015 calls)

     Called by *egterg:
     cdiaghg      :    439.28s CPU    441.72s WALL (   16002 calls)
     h_psi        :   1926.83s CPU   1955.03s WALL (   16732 calls)
     s_psi        :    164.61s CPU    165.70s WALL (   16732 calls)
     g_psi        :      4.10s CPU      4.17s WALL (   12352 calls)

     Called by h_psi:
     h_psi:calbec :    292.23s CPU    294.20s WALL (   16732 calls)
     vloc_psi     :   1455.46s CPU   1479.39s WALL (   16732 calls)
     add_vuspsi   :    167.54s CPU    169.69s WALL (   16732 calls)

     General routines
     calbec       :    480.46s CPU    483.83s WALL (   22572 calls)
     fft          :      0.31s CPU      0.33s WALL (     167 calls)
     ffts         :      0.10s CPU      0.12s WALL (     201 calls)
     fftw         :   1702.08s CPU   1730.04s WALL ( 7917010 calls)
     interpolate  :      0.03s CPU      0.03s WALL (      11 calls)
 
     Parallel routines
     fft_scatt_xy :    136.45s CPU    138.64s WALL ( 7917378 calls)
     fft_scatt_yz :   1331.11s CPU   1353.35s WALL ( 7917378 calls)
 
     PWSCF        :      1h20m CPU      1h22m WALL

 
   This run was terminated on:   5: 2:54  20Mar2022            

=------------------------------------------------------------------------------=
   JOB DONE.
=------------------------------------------------------------------------------=
