
     Program PWSCF v.6.7MaX starts on 20Mar2022 at 20:28:33 

     This program is part of the open-source Quantum ESPRESSO suite
     for quantum simulation of materials; please cite
         "P. Giannozzi et al., J. Phys.:Condens. Matter 21 395502 (2009);
         "P. Giannozzi et al., J. Phys.:Condens. Matter 29 465901 (2017);
          URL http://www.quantum-espresso.org", 
     in publications or presentations arising from this work. More details at
     http://www.quantum-espresso.org/quote

     Parallel version (MPI & OpenMP), running on      72 processor cores
     Number of MPI processes:                72
     Threads/MPI process:                     1

     MPI processes distributed on     1 nodes
     R & G space division:  proc/nbgrp/npool/nimage =      72
     Reading input from pd_0023.in
Warning: card &CELL ignored
Warning: card CELL_DYNAMICS = 'BFGS', ignored
Warning: card CELL_FACTOR = 2.0, ignored
Warning: card PRESS = 0.0, ignored
Warning: card / ignored

     Current dimensions of program PWSCF are:
     Max number of different atomic species (ntypx) = 10
     Max number of k-points (npk) =  40000
     Max angular momentum in pseudopotentials (lmaxx) =  3
     file Pd.pbe-spn-kjpaw_psl.1.0.0.UPF: wavefunction(s)  4S 5S 4D renormalized

     Subspace diagonalization in iterative solution of the eigenvalue problem:
     one sub-group per band group will be used
     ELPA distributed-memory algorithm (size of sub-group:  8*  8 procs)

 
     Parallelization info
     --------------------
     sticks:   dense  smooth     PW     G-vecs:    dense   smooth      PW
     Min         104      68     18                 6832     3663     516
     Max         105      70     19                 6839     3671     525
     Sum        7521    4973   1353               492177   264147   37529
 


     bravais-lattice index     =            0
     lattice parameter (alat)  =      14.8443  a.u.
     unit-cell volume          =    3271.0009 (a.u.)^3
     number of atoms/cell      =           32
     number of atomic types    =            1
     number of electrons       =       576.00
     number of Kohn-Sham states=          346
     kinetic-energy cutoff     =      71.0000  Ry
     charge density cutoff     =     430.0000  Ry
     scf convergence threshold =      1.0E-08
     mixing beta               =       0.3000
     number of iterations used =           10  local-TF  mixing
     Exchange-correlation= SLA  PW   PBX  PBC
                           (   1   4   3   4   0   0   0)

     celldm(1)=  14.844317  celldm(2)=   0.000000  celldm(3)=   0.000000
     celldm(4)=   0.000000  celldm(5)=   0.000000  celldm(6)=   0.000000

     crystal axes: (cart. coord. in units of alat)
               a(1) = (   1.000000   0.000000   0.000000 )  
               a(2) = (   0.000000   1.000000   0.000000 )  
               a(3) = (   0.000000   0.000000   1.000000 )  

     reciprocal axes: (cart. coord. in units 2 pi/alat)
               b(1) = (  1.000000  0.000000  0.000000 )  
               b(2) = (  0.000000  1.000000  0.000000 )  
               b(3) = (  0.000000  0.000000  1.000000 )  


     PseudoPot. # 1 for Pd read from file:
     /rds/homes/b/bxp912/pp/Pd.pbe-spn-kjpaw_psl.1.0.0.UPF
     MD5 check sum: 790f2ebce206edfd9790dcb9844eca51
     Pseudo is Projector augmented-wave + core cor, Zval = 18.0
     Generated using &quot;atomic&quot; code by A. Dal Corso  v.6.3
     Shape of augmentation charge: PSQ
     Using radial grid of 1235 points,  6 beta functions with: 
                l(1) =   0
                l(2) =   0
                l(3) =   1
                l(4) =   1
                l(5) =   2
                l(6) =   2
     Q(r) pseudized with 0 coefficients 


     atomic species   valence    mass     pseudopotential
        Pd            18.00   106.42000     Pd( 1.00)

     No symmetry found



   Cartesian axes

     site n.     atom                  positions (alat units)
         1           Pd  tau(   1) = (   0.0010280   0.0001530   0.0009130  )
         2           Pd  tau(   2) = (   0.2491620   0.2485580   0.0006420  )
         3           Pd  tau(   3) = (   0.2495860   0.0000170   0.2505290  )
         4           Pd  tau(   4) = (   0.9990960   0.2489380   0.2517470  )
         5           Pd  tau(   5) = (   0.0000230   0.9999970   0.5000690  )
         6           Pd  tau(   6) = (   0.2505640   0.2501720   0.5009840  )
         7           Pd  tau(   7) = (   0.2504050   0.9994250   0.7497590  )
         8           Pd  tau(   8) = (   0.0001020   0.2501260   0.7500800  )
         9           Pd  tau(   9) = (   0.0000660   0.4996830   0.0002380  )
        10           Pd  tau(  10) = (   0.2480990   0.7501850   0.0003800  )
        11           Pd  tau(  11) = (   0.2512860   0.4998790   0.2487500  )
        12           Pd  tau(  12) = (   0.0008040   0.7488600   0.2505750  )
        13           Pd  tau(  13) = (   0.9998600   0.5002360   0.5007080  )
        14           Pd  tau(  14) = (   0.2503940   0.7500590   0.4987590  )
        15           Pd  tau(  15) = (   0.2489670   0.4990230   0.7499600  )
        16           Pd  tau(  16) = (   0.9989990   0.7501380   0.7499980  )
        17           Pd  tau(  17) = (   0.5000040   0.9992910   0.9995520  )
        18           Pd  tau(  18) = (   0.7505220   0.2507450   0.0000800  )
        19           Pd  tau(  19) = (   0.7510780   0.9998570   0.2493390  )
        20           Pd  tau(  20) = (   0.4996450   0.2498350   0.2508710  )
        21           Pd  tau(  21) = (   0.5001160   0.0012710   0.5008030  )
        22           Pd  tau(  22) = (   0.7488920   0.2509110   0.5005250  )
        23           Pd  tau(  23) = (   0.7495200   0.9990980   0.7504120  )
        24           Pd  tau(  24) = (   0.5005010   0.2496750   0.7498450  )
        25           Pd  tau(  25) = (   0.4993880   0.5015550   0.9993860  )
        26           Pd  tau(  26) = (   0.7497870   0.7498710   0.0005970  )
        27           Pd  tau(  27) = (   0.7496150   0.4995590   0.2503970  )
        28           Pd  tau(  28) = (   0.5002320   0.7484010   0.2497840  )
        29           Pd  tau(  29) = (   0.4999840   0.4999610   0.4992520  )
        30           Pd  tau(  30) = (   0.7496970   0.7507310   0.4998000  )
        31           Pd  tau(  31) = (   0.7496640   0.4990460   0.7504060  )
        32           Pd  tau(  32) = (   0.5003800   0.7510680   0.7498090  )

     number of k points=   365  Marzari-Vanderbilt smearing, width (Ry)=  0.0400

     Number of k-points >= 100: set verbosity='high' to print them.

     Dense  grid:   492177 G-vectors     FFT dimensions: ( 100, 100, 100)

     Smooth grid:   264147 G-vectors     FFT dimensions: (  80,  80,  80)

     Estimated max dynamical RAM per process >     924.68 MB

     Estimated total dynamical RAM >      65.02 GB

     Check: negative core charge=   -0.000002

     Initial potential from superposition of free atoms

     starting charge  575.98776, renormalised to  576.00000
     Starting wfcs are  320 randomized atomic wfcs +   26 random wfcs
     Checking if some PAW data can be deallocated... 

     total cpu time spent up to now is      111.7 secs

     Self-consistent Calculation

     iteration #  1     ecut=    71.00 Ry     beta= 0.30
     Davidson diagonalization with overlap
     ethr =  1.00E-02,  avg # of iterations =  3.0

     Threshold (ethr) on eigenvalues was too large:
     Diagonalizing with lowered threshold

     Davidson diagonalization with overlap
     ethr =  8.97E-05,  avg # of iterations =  4.4

     total cpu time spent up to now is      913.3 secs

     total energy              =  -16384.99113102 Ry
     estimated scf accuracy    <       0.48008755 Ry

     iteration #  2     ecut=    71.00 Ry     beta= 0.30
     Davidson diagonalization with overlap
     ethr =  8.33E-05,  avg # of iterations =  1.6

     total cpu time spent up to now is     1221.9 secs

     total energy              =  -16384.93483090 Ry
     estimated scf accuracy    <       0.18119050 Ry

     iteration #  3     ecut=    71.00 Ry     beta= 0.30
     Davidson diagonalization with overlap
     ethr =  3.15E-05,  avg # of iterations =  3.5

     total cpu time spent up to now is     1612.1 secs

     total energy              =  -16384.95814314 Ry
     estimated scf accuracy    <       0.00752653 Ry

     iteration #  4     ecut=    71.00 Ry     beta= 0.30
     Davidson diagonalization with overlap
     c_bands:  1 eigenvalues not converged
     c_bands:  1 eigenvalues not converged
     c_bands:  1 eigenvalues not converged
     c_bands:  1 eigenvalues not converged
     c_bands:  1 eigenvalues not converged
     ethr =  1.31E-06,  avg # of iterations =  6.2

     total cpu time spent up to now is     2006.5 secs

     total energy              =  -16384.95720154 Ry
     estimated scf accuracy    <       0.00257202 Ry

     iteration #  5     ecut=    71.00 Ry     beta= 0.30
     Davidson diagonalization with overlap
     c_bands:  1 eigenvalues not converged
     ethr =  4.47E-07,  avg # of iterations =  2.1

     total cpu time spent up to now is     2372.7 secs

     total energy              =  -16384.95746234 Ry
     estimated scf accuracy    <       0.00007419 Ry

     iteration #  6     ecut=    71.00 Ry     beta= 0.30
     Davidson diagonalization with overlap
     ethr =  1.29E-08,  avg # of iterations =  4.0

     total cpu time spent up to now is     2867.7 secs

     total energy              =  -16384.95748357 Ry
     estimated scf accuracy    <       0.00003745 Ry

     iteration #  7     ecut=    71.00 Ry     beta= 0.30
     Davidson diagonalization with overlap
     c_bands:  1 eigenvalues not converged
     ethr =  6.50E-09,  avg # of iterations =  1.9

     total cpu time spent up to now is     3198.2 secs

     total energy              =  -16384.95748688 Ry
     estimated scf accuracy    <       0.00000471 Ry

     iteration #  8     ecut=    71.00 Ry     beta= 0.30
     Davidson diagonalization with overlap
     ethr =  8.18E-10,  avg # of iterations =  2.0

     total cpu time spent up to now is     3543.8 secs

     total energy              =  -16384.95748763 Ry
     estimated scf accuracy    <       0.00000030 Ry

     iteration #  9     ecut=    71.00 Ry     beta= 0.30
     Davidson diagonalization with overlap
     ethr =  5.16E-11,  avg # of iterations =  4.0

     total cpu time spent up to now is     3927.6 secs

     total energy              =  -16384.95748764 Ry
     estimated scf accuracy    <       0.00000009 Ry

     iteration # 10     ecut=    71.00 Ry     beta= 0.30
     Davidson diagonalization with overlap
     ethr =  1.50E-11,  avg # of iterations =  2.0

     total cpu time spent up to now is     4274.5 secs

     End of self-consistent calculation

     Number of k-points >= 100: set verbosity='high' to print the bands.

     the Fermi energy is    19.2728 ev

!    total energy              =  -16384.95748783 Ry

     total all-electron energy =   -322945.811195 Ry
     estimated scf accuracy    <          2.5E-09 Ry
     smearing contrib. (-TS)   =       0.03321225 Ry
     internal energy E=F+TS    =  -16384.99070008 Ry

     The total energy is F=E-TS. E is the sum of the following terms:
     one-electron contribution =   -2488.05845944 Ry
     hartree contribution      =    1661.45154646 Ry
     xc contribution           =    -986.50773663 Ry
     ewald contribution        =   -6404.45004325 Ry
     one-center paw contrib.   =   -8167.42600722 Ry

     convergence has been achieved in  10 iterations

     Forces acting on atoms (cartesian axes, Ry/au):

     atom    1 type  1   force =    -0.00357315   -0.00090446   -0.00256872
     atom    2 type  1   force =     0.00309465    0.00284571   -0.00085821
     atom    3 type  1   force =     0.00289353   -0.00031240    0.00034009
     atom    4 type  1   force =     0.00241185    0.00435477   -0.00168685
     atom    5 type  1   force =    -0.00072521   -0.00015118    0.00164423
     atom    6 type  1   force =    -0.00213608    0.00016072   -0.00217049
     atom    7 type  1   force =    -0.00209562    0.00038116    0.00056860
     atom    8 type  1   force =    -0.00112451   -0.00246994   -0.00027886
     atom    9 type  1   force =    -0.00061284   -0.00055796    0.00087917
     atom   10 type  1   force =     0.00397851   -0.00043002   -0.00232217
     atom   11 type  1   force =    -0.00442448   -0.00249390    0.00285592
     atom   12 type  1   force =    -0.00270399    0.00095815   -0.00016513
     atom   13 type  1   force =     0.00060177   -0.00068785   -0.00189436
     atom   14 type  1   force =     0.00007507   -0.00094695    0.00370870
     atom   15 type  1   force =     0.00320157    0.00370680    0.00053956
     atom   16 type  1   force =     0.00176804   -0.00030779   -0.00039492
     atom   17 type  1   force =    -0.00035070    0.00167619    0.00337803
     atom   18 type  1   force =    -0.00207648   -0.00242543    0.00072046
     atom   19 type  1   force =    -0.00402780   -0.00002849    0.00167254
     atom   20 type  1   force =     0.00101751   -0.00098564   -0.00444482
     atom   21 type  1   force =     0.00034550   -0.00408145   -0.00392106
     atom   22 type  1   force =     0.00312616   -0.00303253   -0.00036879
     atom   23 type  1   force =     0.00313512    0.00340972    0.00039245
     atom   24 type  1   force =    -0.00178489    0.00175302    0.00339755
     atom   25 type  1   force =    -0.00004182   -0.00500567   -0.00084937
     atom   26 type  1   force =     0.00205123   -0.00042155   -0.00038794
     atom   27 type  1   force =     0.00165914    0.00053132   -0.00102247
     atom   28 type  1   force =    -0.00005866    0.00647730    0.00045870
     atom   29 type  1   force =    -0.00089324    0.00139817    0.00393256
     atom   30 type  1   force =     0.00031572   -0.00182679   -0.00012221
     atom   31 type  1   force =    -0.00033475    0.00376450   -0.00039594
     atom   32 type  1   force =    -0.00271112   -0.00434752   -0.00063627

     Total force =     0.022524     Total SCF correction =     0.000124


     Computing stress (Cartesian axis) and pressure

          total   stress  (Ry/bohr**3)                   (kbar)     P=        0.28
   0.00000188   0.00000023  -0.00000019            0.28        0.03       -0.03
   0.00000023   0.00000195  -0.00000000            0.03        0.29       -0.00
  -0.00000019  -0.00000000   0.00000190           -0.03       -0.00        0.28


     Writing output data file /scratch/pdheat_0023.save/
 
     init_run     :    108.02s CPU    110.03s WALL (       1 calls)
     electrons    :   4114.78s CPU   4162.83s WALL (       1 calls)
     forces       :     61.09s CPU     61.62s WALL (       1 calls)
     stress       :    421.57s CPU    425.43s WALL (       1 calls)

     Called by init_run:
     wfcinit      :    107.48s CPU    109.42s WALL (       1 calls)
     potinit      :      0.14s CPU      0.15s WALL (       1 calls)
     hinit0       :      0.06s CPU      0.06s WALL (       1 calls)

     Called by electrons:
     c_bands      :   3652.99s CPU   3692.40s WALL (      11 calls)
     sum_band     :    460.36s CPU    468.79s WALL (      11 calls)
     v_of_rho     :      0.17s CPU      0.18s WALL (      11 calls)
     newd         :      0.26s CPU      0.39s WALL (      11 calls)
     PAW_pot      :      0.91s CPU      0.96s WALL (      11 calls)
     mix_rho      :      0.18s CPU      0.19s WALL (      11 calls)

     Called by c_bands:
     init_us_2    :     19.48s CPU     19.70s WALL (    9125 calls)
     cegterg      :   3584.24s CPU   3620.92s WALL (    4015 calls)

     Called by *egterg:
     cdiaghg      :    445.54s CPU    447.85s WALL (   16329 calls)
     h_psi        :   1896.43s CPU   1922.84s WALL (   17059 calls)
     s_psi        :    162.60s CPU    163.67s WALL (   17059 calls)
     g_psi        :      4.23s CPU      4.29s WALL (   12679 calls)

     Called by h_psi:
     h_psi:calbec :    285.41s CPU    287.41s WALL (   17059 calls)
     vloc_psi     :   1441.38s CPU   1463.92s WALL (   17059 calls)
     add_vuspsi   :    158.27s CPU    160.02s WALL (   17059 calls)

     General routines
     calbec       :    488.70s CPU    492.05s WALL (   22899 calls)
     fft          :      0.26s CPU      0.27s WALL (     167 calls)
     ffts         :      0.12s CPU      0.12s WALL (     201 calls)
     fftw         :   1688.34s CPU   1714.87s WALL ( 7912632 calls)
     interpolate  :      0.02s CPU      0.03s WALL (      11 calls)
 
     Parallel routines
     fft_scatt_xy :    137.07s CPU    139.25s WALL ( 7913000 calls)
     fft_scatt_yz :   1316.31s CPU   1337.24s WALL ( 7913000 calls)
 
     PWSCF        :      1h19m CPU      1h21m WALL

 
   This run was terminated on:  21:49:38  20Mar2022            

=------------------------------------------------------------------------------=
   JOB DONE.
=------------------------------------------------------------------------------=
