
     Program PWSCF v.6.7MaX starts on  7Mar2022 at  8:11:40 

     This program is part of the open-source Quantum ESPRESSO suite
     for quantum simulation of materials; please cite
         "P. Giannozzi et al., J. Phys.:Condens. Matter 21 395502 (2009);
         "P. Giannozzi et al., J. Phys.:Condens. Matter 29 465901 (2017);
          URL http://www.quantum-espresso.org", 
     in publications or presentations arising from this work. More details at
     http://www.quantum-espresso.org/quote

     Parallel version (MPI & OpenMP), running on      72 processor cores
     Number of MPI processes:                72
     Threads/MPI process:                     1

     MPI processes distributed on     1 nodes
     R & G space division:  proc/nbgrp/npool/nimage =      72
     Reading input from fe_0010.in
Warning: card &CELL ignored
Warning: card CELL_DYNAMICS = 'BFGS', ignored
Warning: card CELL_FACTOR = 2.0, ignored
Warning: card PRESS = 0.0, ignored
Warning: card / ignored

     Current dimensions of program PWSCF are:
     Max number of different atomic species (ntypx) = 10
     Max number of k-points (npk) =  40000
     Max angular momentum in pseudopotentials (lmaxx) =  3
     file Fe.pbe-spn-kjpaw_psl.1.0.0.UPF: wavefunction(s)  3P 3D renormalized
     file Fe.pbe-spn-kjpaw_psl.1.0.0.UPF: wavefunction(s)  3P 3D renormalized

     Subspace diagonalization in iterative solution of the eigenvalue problem:
     one sub-group per band group will be used
     ELPA distributed-memory algorithm (size of sub-group:  8*  8 procs)

 
     Parallelization info
     --------------------
     sticks:   dense  smooth     PW     G-vecs:    dense   smooth      PW
     Min          83      55     15                 4773     2563     367
     Max          84      56     16                 4778     2568     371
     Sum        6035    3993   1103               343891   184641   26583
 


     bravais-lattice index     =            0
     lattice parameter (alat)  =      12.9382  a.u.
     unit-cell volume          =    2283.7616 (a.u.)^3
     number of atoms/cell      =           32
     number of atomic types    =            2
     number of electrons       =       512.00
     number of Kohn-Sham states=          320
     kinetic-energy cutoff     =      71.0000  Ry
     charge density cutoff     =     430.0000  Ry
     scf convergence threshold =      1.0E-08
     mixing beta               =       0.3000
     number of iterations used =           10  local-TF  mixing
     Exchange-correlation= SLA  PW   PBX  PBC
                           (   1   4   3   4   0   0   0)

     celldm(1)=  12.938150  celldm(2)=   0.000000  celldm(3)=   0.000000
     celldm(4)=   0.000000  celldm(5)=   0.000000  celldm(6)=   0.000000

     crystal axes: (cart. coord. in units of alat)
               a(1) = (   1.000000   0.000000   0.000000 )  
               a(2) = (   0.000000   1.054470   0.000000 )  
               a(3) = (   0.000000   0.000000   1.000000 )  

     reciprocal axes: (cart. coord. in units 2 pi/alat)
               b(1) = (  1.000000  0.000000  0.000000 )  
               b(2) = (  0.000000  0.948344  0.000000 )  
               b(3) = (  0.000000  0.000000  1.000000 )  


     PseudoPot. # 1 for Fe read from file:
     /rds/homes/b/bxp912/pp/Fe.pbe-spn-kjpaw_psl.1.0.0.UPF
     MD5 check sum: 42f43b795421b414b0dc916aa790dbcb
     Pseudo is Projector augmented-wave + core cor, Zval = 16.0
     Generated using &quot;atomic&quot; code by A. Dal Corso  v.6.3
     Shape of augmentation charge: PSQ
     Using radial grid of 1191 points,  6 beta functions with: 
                l(1) =   0
                l(2) =   0
                l(3) =   1
                l(4) =   1
                l(5) =   2
                l(6) =   2
     Q(r) pseudized with 0 coefficients 


     PseudoPot. # 2 for Fe read from file:
     /rds/homes/b/bxp912/pp/Fe.pbe-spn-kjpaw_psl.1.0.0.UPF
     MD5 check sum: 42f43b795421b414b0dc916aa790dbcb
     Pseudo is Projector augmented-wave + core cor, Zval = 16.0
     Generated using &quot;atomic&quot; code by A. Dal Corso  v.6.3
     Shape of augmentation charge: PSQ
     Using radial grid of 1191 points,  6 beta functions with: 
                l(1) =   0
                l(2) =   0
                l(3) =   1
                l(4) =   1
                l(5) =   2
                l(6) =   2
     Q(r) pseudized with 0 coefficients 


     atomic species   valence    mass     pseudopotential
        Fe1           16.00    55.84500     Fe( 1.00)
        Fe2           16.00    55.84500     Fe( 1.00)

     Starting magnetic structure 
     atomic species   magnetization
        Fe1          0.100
        Fe2         -0.100

     No symmetry found



   Cartesian axes

     site n.     atom                  positions (alat units)
         1           Fe1 tau(   1) = (   0.9998410   1.0543382   0.9999760  )
         2           Fe2 tau(   2) = (   0.2499700   0.2635121   0.9998050  )
         3           Fe1 tau(   3) = (   0.2500170   1.0544373   0.2491820  )
         4           Fe2 tau(   4) = (   0.0000230   0.2628425   0.2496970  )
         5           Fe1 tau(   5) = (   0.9998430   0.0006865   0.5002990  )
         6           Fe2 tau(   6) = (   0.2502470   0.2634150   0.5003170  )
         7           Fe1 tau(   7) = (   0.2497110   1.0536475   0.7503380  )
         8           Fe2 tau(   8) = (   0.9998180   0.2638590   0.7504780  )
         9           Fe1 tau(   9) = (   0.9990110   0.5274533   0.0007290  )
        10           Fe2 tau(  10) = (   0.2503120   0.7917825   0.9996570  )
        11           Fe1 tau(  11) = (   0.2500910   0.5274322   0.2507210  )
        12           Fe2 tau(  12) = (   0.9996200   0.7904507   0.2498440  )
        13           Fe1 tau(  13) = (   0.9993650   0.5277791   0.5015670  )
        14           Fe2 tau(  14) = (   0.2503370   0.7905035   0.4999160  )
        15           Fe1 tau(  15) = (   0.2503900   0.5268206   0.7503290  )
        16           Fe2 tau(  16) = (   0.0012570   0.7907787   0.7498200  )
        17           Fe1 tau(  17) = (   0.5002950   0.0001824   0.0001140  )
        18           Fe2 tau(  18) = (   0.7512460   0.2632611   0.9990040  )
        19           Fe1 tau(  19) = (   0.7501780   0.0007097   0.2495610  )
        20           Fe2 tau(  20) = (   0.5014530   0.2640678   0.2505860  )
        21           Fe1 tau(  21) = (   0.5006490   1.0542612   0.4998270  )
        22           Fe2 tau(  22) = (   0.7500690   0.2640604   0.4996300  )
        23           Fe1 tau(  23) = (   0.7496820   1.0539016   0.7498080  )
        24           Fe2 tau(  24) = (   0.5000760   0.2636702   0.7496860  )
        25           Fe1 tau(  25) = (   0.5002930   0.5272740   0.9998060  )
        26           Fe2 tau(  26) = (   0.7502300   0.7912184   0.0004740  )
        27           Fe1 tau(  27) = (   0.7503710   0.5270863   0.2499260  )
        28           Fe2 tau(  28) = (   0.4993850   0.7901998   0.2500470  )
        29           Fe1 tau(  29) = (   0.5003590   0.5276958   0.4997610  )
        30           Fe2 tau(  30) = (   0.7494440   0.7909780   0.4987420  )
        31           Fe1 tau(  31) = (   0.7504650   0.5279204   0.7496690  )
        32           Fe2 tau(  32) = (   0.4999010   0.7916940   0.7499480  )

     number of k points=   365  Marzari-Vanderbilt smearing, width (Ry)=  0.0400

     Number of k-points >= 100: set verbosity='high' to print them.

     Dense  grid:   343891 G-vectors     FFT dimensions: (  90,  96,  90)

     Smooth grid:   184641 G-vectors     FFT dimensions: (  72,  75,  72)

     Estimated max dynamical RAM per process >       1.14 GB

     Estimated total dynamical RAM >      82.37 GB

     Check: negative core charge=   -0.000006
     Generating pointlists ...
     new r_m :   0.1450 (alat units)  1.8756 (a.u.) for type    1
     new r_m :   0.1450 (alat units)  1.8760 (a.u.) for type    2

     Initial potential from superposition of free atoms

     starting charge  511.98600, renormalised to  512.00000
     Starting wfcs are  320 randomized atomic wfcs
     Checking if some PAW data can be deallocated... 

     total cpu time spent up to now is      169.6 secs

     Self-consistent Calculation

     iteration #  1     ecut=    71.00 Ry     beta= 0.30
     Davidson diagonalization with overlap
     ethr =  1.00E-02,  avg # of iterations =  7.7

     negative rho (up, down):  1.131E-01 2.381E-01

     total cpu time spent up to now is      971.8 secs

     total energy              =  -10532.33972817 Ry
     estimated scf accuracy    <      36.49138236 Ry

     total magnetization       =    -0.19 Bohr mag/cell
     absolute magnetization    =    61.07 Bohr mag/cell

     iteration #  2     ecut=    71.00 Ry     beta= 0.30
     Davidson diagonalization with overlap
     ethr =  7.13E-03,  avg # of iterations =  3.6

     negative rho (up, down):  8.192E-02 1.700E-01

     total cpu time spent up to now is     1512.4 secs

     total energy              =  -10535.06592527 Ry
     estimated scf accuracy    <       6.46139447 Ry

     total magnetization       =     0.08 Bohr mag/cell
     absolute magnetization    =    47.60 Bohr mag/cell

     iteration #  3     ecut=    71.00 Ry     beta= 0.30
     Davidson diagonalization with overlap
     ethr =  1.26E-03,  avg # of iterations =  3.4

     negative rho (up, down):  6.048E-02 1.308E-01

     total cpu time spent up to now is     2057.2 secs

     total energy              =  -10535.44398310 Ry
     estimated scf accuracy    <       3.51523515 Ry

     total magnetization       =    -0.64 Bohr mag/cell
     absolute magnetization    =    46.72 Bohr mag/cell

     iteration #  4     ecut=    71.00 Ry     beta= 0.30
     Davidson diagonalization with overlap
     ethr =  6.87E-04,  avg # of iterations =  1.9

     negative rho (up, down):  2.665E-02 7.212E-02

     total cpu time spent up to now is     2548.3 secs

     total energy              =  -10535.65639771 Ry
     estimated scf accuracy    <       1.17977927 Ry

     total magnetization       =     0.02 Bohr mag/cell
     absolute magnetization    =    46.89 Bohr mag/cell

     iteration #  5     ecut=    71.00 Ry     beta= 0.30
     Davidson diagonalization with overlap
     c_bands:  1 eigenvalues not converged
     ethr =  2.30E-04,  avg # of iterations =  3.9

     negative rho (up, down):  1.338E-02 4.656E-02

     total cpu time spent up to now is     3106.8 secs

     total energy              =  -10535.87682607 Ry
     estimated scf accuracy    <       0.60945015 Ry

     total magnetization       =     0.16 Bohr mag/cell
     absolute magnetization    =    47.10 Bohr mag/cell

     iteration #  6     ecut=    71.00 Ry     beta= 0.30
     Davidson diagonalization with overlap
     ethr =  1.19E-04,  avg # of iterations =  2.4

     negative rho (up, down):  3.229E-03 1.891E-02

     total cpu time spent up to now is     3629.1 secs

     total energy              =  -10536.03406216 Ry
     estimated scf accuracy    <       0.47452860 Ry

     total magnetization       =    -0.04 Bohr mag/cell
     absolute magnetization    =    47.19 Bohr mag/cell

     iteration #  7     ecut=    71.00 Ry     beta= 0.30
     Davidson diagonalization with overlap
     ethr =  9.27E-05,  avg # of iterations =  2.0

     negative rho (up, down):  1.180E-04 1.513E-03

     total cpu time spent up to now is     4154.3 secs

     total energy              =  -10536.17777992 Ry
     estimated scf accuracy    <       0.24285835 Ry

     total magnetization       =     0.02 Bohr mag/cell
     absolute magnetization    =    47.54 Bohr mag/cell

     iteration #  8     ecut=    71.00 Ry     beta= 0.30
     Davidson diagonalization with overlap
     c_bands:  2 eigenvalues not converged
     c_bands:  4 eigenvalues not converged
     ethr =  4.74E-05,  avg # of iterations =  3.0

     total cpu time spent up to now is     4744.2 secs

     total energy              =  -10536.23383776 Ry
     estimated scf accuracy    <       0.07622964 Ry

     total magnetization       =     0.14 Bohr mag/cell
     absolute magnetization    =    48.10 Bohr mag/cell

     iteration #  9     ecut=    71.00 Ry     beta= 0.30
     Davidson diagonalization with overlap
     c_bands:  1 eigenvalues not converged
     c_bands:  1 eigenvalues not converged
     c_bands:  1 eigenvalues not converged
     c_bands:  1 eigenvalues not converged
     c_bands:  3 eigenvalues not converged
     c_bands:  1 eigenvalues not converged
     ethr =  1.49E-05,  avg # of iterations =  5.0

     total cpu time spent up to now is     5355.6 secs

     total energy              =  -10536.24630626 Ry
     estimated scf accuracy    <       0.02620249 Ry

     total magnetization       =     0.07 Bohr mag/cell
     absolute magnetization    =    48.39 Bohr mag/cell

     iteration # 10     ecut=    71.00 Ry     beta= 0.30
     Davidson diagonalization with overlap
     c_bands:  1 eigenvalues not converged
     c_bands:  2 eigenvalues not converged
     c_bands:  1 eigenvalues not converged
     c_bands:  2 eigenvalues not converged
     c_bands:  2 eigenvalues not converged
     c_bands:  1 eigenvalues not converged
     c_bands:  1 eigenvalues not converged
     c_bands:  1 eigenvalues not converged
     ethr =  5.12E-06,  avg # of iterations =  5.0

     total cpu time spent up to now is     6017.5 secs

     total energy              =  -10536.24905328 Ry
     estimated scf accuracy    <       0.00495341 Ry

     total magnetization       =     0.06 Bohr mag/cell
     absolute magnetization    =    48.74 Bohr mag/cell

     iteration # 11     ecut=    71.00 Ry     beta= 0.30
     Davidson diagonalization with overlap
     c_bands:  1 eigenvalues not converged
     c_bands:  2 eigenvalues not converged
     c_bands:  3 eigenvalues not converged
     c_bands:  2 eigenvalues not converged
     c_bands:  1 eigenvalues not converged
     c_bands:  1 eigenvalues not converged
     c_bands:  3 eigenvalues not converged
     ethr =  9.67E-07,  avg # of iterations =  3.1

     total cpu time spent up to now is     6540.0 secs

     total energy              =  -10536.24886204 Ry
     estimated scf accuracy    <       0.00210525 Ry

     total magnetization       =     0.07 Bohr mag/cell
     absolute magnetization    =    48.90 Bohr mag/cell

     iteration # 12     ecut=    71.00 Ry     beta= 0.30
     Davidson diagonalization with overlap
     c_bands:  1 eigenvalues not converged
     ethr =  4.11E-07,  avg # of iterations =  2.1

     total cpu time spent up to now is     7142.7 secs

     total energy              =  -10536.24974205 Ry
     estimated scf accuracy    <       0.00084097 Ry

     total magnetization       =     0.04 Bohr mag/cell
     absolute magnetization    =    48.97 Bohr mag/cell

     iteration # 13     ecut=    71.00 Ry     beta= 0.30
     Davidson diagonalization with overlap
     ethr =  1.64E-07,  avg # of iterations =  2.0

     total cpu time spent up to now is     7684.3 secs

     total energy              =  -10536.24983761 Ry
     estimated scf accuracy    <       0.00034199 Ry

     total magnetization       =     0.04 Bohr mag/cell
     absolute magnetization    =    49.05 Bohr mag/cell

     iteration # 14     ecut=    71.00 Ry     beta= 0.30
     Davidson diagonalization with overlap
     ethr =  6.68E-08,  avg # of iterations =  2.0

     total cpu time spent up to now is     8270.5 secs

     total energy              =  -10536.24996836 Ry
     estimated scf accuracy    <       0.00015416 Ry

     total magnetization       =     0.04 Bohr mag/cell
     absolute magnetization    =    49.14 Bohr mag/cell

     iteration # 15     ecut=    71.00 Ry     beta= 0.30
     Davidson diagonalization with overlap
     ethr =  3.01E-08,  avg # of iterations =  2.0

     total cpu time spent up to now is     8832.6 secs

     total energy              =  -10536.25001819 Ry
     estimated scf accuracy    <       0.00006914 Ry

     total magnetization       =     0.03 Bohr mag/cell
     absolute magnetization    =    49.23 Bohr mag/cell

     iteration # 16     ecut=    71.00 Ry     beta= 0.30
     Davidson diagonalization with overlap
     ethr =  1.35E-08,  avg # of iterations =  1.0

     total cpu time spent up to now is     9287.0 secs

     total energy              =  -10536.25004339 Ry
     estimated scf accuracy    <       0.00004351 Ry

     total magnetization       =     0.03 Bohr mag/cell
     absolute magnetization    =    49.27 Bohr mag/cell

     iteration # 17     ecut=    71.00 Ry     beta= 0.30
     Davidson diagonalization with overlap
     ethr =  8.50E-09,  avg # of iterations =  2.0

     total cpu time spent up to now is     9834.7 secs

     total energy              =  -10536.25006793 Ry
     estimated scf accuracy    <       0.00002198 Ry

     total magnetization       =     0.02 Bohr mag/cell
     absolute magnetization    =    49.37 Bohr mag/cell

     iteration # 18     ecut=    71.00 Ry     beta= 0.30
     Davidson diagonalization with overlap
     ethr =  4.29E-09,  avg # of iterations =  2.0

     total cpu time spent up to now is    10356.0 secs

     total energy              =  -10536.25007705 Ry
     estimated scf accuracy    <       0.00001784 Ry

     total magnetization       =     0.02 Bohr mag/cell
     absolute magnetization    =    49.43 Bohr mag/cell

     iteration # 19     ecut=    71.00 Ry     beta= 0.30
     Davidson diagonalization with overlap
     ethr =  3.49E-09,  avg # of iterations =  2.0

     total cpu time spent up to now is    10863.4 secs

     total energy              =  -10536.25007941 Ry
     estimated scf accuracy    <       0.00001001 Ry

     total magnetization       =     0.01 Bohr mag/cell
     absolute magnetization    =    49.47 Bohr mag/cell

     iteration # 20     ecut=    71.00 Ry     beta= 0.30
     Davidson diagonalization with overlap
     ethr =  1.95E-09,  avg # of iterations =  2.6

     total cpu time spent up to now is    11467.1 secs

     total energy              =  -10536.25008563 Ry
     estimated scf accuracy    <       0.00000278 Ry

     total magnetization       =     0.01 Bohr mag/cell
     absolute magnetization    =    49.52 Bohr mag/cell

     iteration # 21     ecut=    71.00 Ry     beta= 0.30
     Davidson diagonalization with overlap
     ethr =  5.43E-10,  avg # of iterations =  2.1

     total cpu time spent up to now is    11983.6 secs

     total energy              =  -10536.25008642 Ry
     estimated scf accuracy    <       0.00000140 Ry

     total magnetization       =     0.01 Bohr mag/cell
     absolute magnetization    =    49.53 Bohr mag/cell

     iteration # 22     ecut=    71.00 Ry     beta= 0.30
     Davidson diagonalization with overlap
     ethr =  2.74E-10,  avg # of iterations =  2.0

     total cpu time spent up to now is    12571.5 secs

     total energy              =  -10536.25008712 Ry
     estimated scf accuracy    <       0.00000114 Ry

     total magnetization       =     0.00 Bohr mag/cell
     absolute magnetization    =    49.54 Bohr mag/cell

     iteration # 23     ecut=    71.00 Ry     beta= 0.30
     Davidson diagonalization with overlap
     ethr =  2.23E-10,  avg # of iterations =  2.0

     total cpu time spent up to now is    13085.7 secs

     total energy              =  -10536.25008742 Ry
     estimated scf accuracy    <       0.00000067 Ry

     total magnetization       =     0.00 Bohr mag/cell
     absolute magnetization    =    49.54 Bohr mag/cell

     iteration # 24     ecut=    71.00 Ry     beta= 0.30
     Davidson diagonalization with overlap
     ethr =  1.31E-10,  avg # of iterations =  2.0

     total cpu time spent up to now is    13606.7 secs

     total energy              =  -10536.25008771 Ry
     estimated scf accuracy    <       0.00000039 Ry

     total magnetization       =     0.00 Bohr mag/cell
     absolute magnetization    =    49.55 Bohr mag/cell

     iteration # 25     ecut=    71.00 Ry     beta= 0.30
     Davidson diagonalization with overlap
     ethr =  7.61E-11,  avg # of iterations =  1.5

     total cpu time spent up to now is    14083.4 secs

     total energy              =  -10536.25008782 Ry
     estimated scf accuracy    <       0.00000034 Ry

     total magnetization       =     0.00 Bohr mag/cell
     absolute magnetization    =    49.55 Bohr mag/cell

     iteration # 26     ecut=    71.00 Ry     beta= 0.30
     Davidson diagonalization with overlap
     ethr =  6.68E-11,  avg # of iterations =  2.0

     total cpu time spent up to now is    14606.4 secs

     total energy              =  -10536.25008799 Ry
     estimated scf accuracy    <       0.00000022 Ry

     total magnetization       =     0.00 Bohr mag/cell
     absolute magnetization    =    49.55 Bohr mag/cell

     iteration # 27     ecut=    71.00 Ry     beta= 0.30
     Davidson diagonalization with overlap
     ethr =  4.22E-11,  avg # of iterations =  2.0

     total cpu time spent up to now is    15210.2 secs

     total energy              =  -10536.25008816 Ry
     estimated scf accuracy    <       0.00000018 Ry

     total magnetization       =     0.00 Bohr mag/cell
     absolute magnetization    =    49.54 Bohr mag/cell

     iteration # 28     ecut=    71.00 Ry     beta= 0.30
     Davidson diagonalization with overlap
     ethr =  3.44E-11,  avg # of iterations =  2.0

     total cpu time spent up to now is    15754.7 secs

     total energy              =  -10536.25008823 Ry
     estimated scf accuracy    <       0.00000009 Ry

     total magnetization       =     0.00 Bohr mag/cell
     absolute magnetization    =    49.54 Bohr mag/cell

     iteration # 29     ecut=    71.00 Ry     beta= 0.30
     Davidson diagonalization with overlap
     ethr =  1.78E-11,  avg # of iterations =  2.1

     total cpu time spent up to now is    16345.9 secs

     total energy              =  -10536.25008832 Ry
     estimated scf accuracy    <       0.00000006 Ry

     total magnetization       =    -0.00 Bohr mag/cell
     absolute magnetization    =    49.54 Bohr mag/cell

     iteration # 30     ecut=    71.00 Ry     beta= 0.30
     Davidson diagonalization with overlap
     ethr =  1.23E-11,  avg # of iterations =  2.0

     total cpu time spent up to now is    16891.7 secs

     total energy              =  -10536.25008833 Ry
     estimated scf accuracy    <       0.00000004 Ry

     total magnetization       =    -0.00 Bohr mag/cell
     absolute magnetization    =    49.54 Bohr mag/cell

     iteration # 31     ecut=    71.00 Ry     beta= 0.30
     Davidson diagonalization with overlap
     ethr =  8.72E-12,  avg # of iterations =  2.9

     total cpu time spent up to now is    17508.9 secs

     total energy              =  -10536.25008842 Ry
     estimated scf accuracy    <       0.00000003 Ry

     total magnetization       =    -0.00 Bohr mag/cell
     absolute magnetization    =    49.54 Bohr mag/cell

     iteration # 32     ecut=    71.00 Ry     beta= 0.30
     Davidson diagonalization with overlap
     ethr =  6.29E-12,  avg # of iterations =  2.0

     total cpu time spent up to now is    18015.0 secs

     total energy              =  -10536.25008843 Ry
     estimated scf accuracy    <       0.00000003 Ry

     total magnetization       =    -0.00 Bohr mag/cell
     absolute magnetization    =    49.54 Bohr mag/cell

     iteration # 33     ecut=    71.00 Ry     beta= 0.30
     Davidson diagonalization with overlap
     ethr =  5.07E-12,  avg # of iterations =  2.0

     total cpu time spent up to now is    18531.4 secs

     total energy              =  -10536.25008844 Ry
     estimated scf accuracy    <       0.00000002 Ry

     total magnetization       =    -0.00 Bohr mag/cell
     absolute magnetization    =    49.54 Bohr mag/cell

     iteration # 34     ecut=    71.00 Ry     beta= 0.30
     Davidson diagonalization with overlap
     ethr =  3.89E-12,  avg # of iterations =  1.1

     total cpu time spent up to now is    18985.1 secs

     total energy              =  -10536.25008845 Ry
     estimated scf accuracy    <       0.00000002 Ry

     total magnetization       =    -0.00 Bohr mag/cell
     absolute magnetization    =    49.54 Bohr mag/cell

     iteration # 35     ecut=    71.00 Ry     beta= 0.30
     Davidson diagonalization with overlap
     ethr =  3.28E-12,  avg # of iterations =  2.5

     total cpu time spent up to now is    19583.7 secs

     total energy              =  -10536.25008848 Ry
     estimated scf accuracy    <       0.00000001 Ry

     total magnetization       =    -0.00 Bohr mag/cell
     absolute magnetization    =    49.54 Bohr mag/cell

     iteration # 36     ecut=    71.00 Ry     beta= 0.30
     Davidson diagonalization with overlap
     ethr =  2.28E-12,  avg # of iterations =  2.0
 
     Magnetic moment per site:
     atom:    1    charge:   14.3572    magn:    1.4732    constr:    0.0000
     atom:    2    charge:   14.3525    magn:   -1.4998    constr:    0.0000
     atom:    3    charge:   14.3515    magn:    1.4968    constr:    0.0000
     atom:    4    charge:   14.3548    magn:   -1.4918    constr:    0.0000
     atom:    5    charge:   14.3512    magn:    1.5020    constr:    0.0000
     atom:    6    charge:   14.3515    magn:   -1.5074    constr:    0.0000
     atom:    7    charge:   14.3548    magn:    1.4754    constr:    0.0000
     atom:    8    charge:   14.3564    magn:   -1.4855    constr:    0.0000
     atom:    9    charge:   14.3535    magn:    1.4877    constr:    0.0000
     atom:   10    charge:   14.3561    magn:   -1.4871    constr:    0.0000
     atom:   11    charge:   14.3500    magn:    1.5018    constr:    0.0000
     atom:   12    charge:   14.3547    magn:   -1.4926    constr:    0.0000
     atom:   13    charge:   14.3535    magn:    1.4955    constr:    0.0000
     atom:   14    charge:   14.3554    magn:   -1.4933    constr:    0.0000
     atom:   15    charge:   14.3529    magn:    1.4850    constr:    0.0000
     atom:   16    charge:   14.3552    magn:   -1.4827    constr:    0.0000
     atom:   17    charge:   14.3541    magn:    1.4937    constr:    0.0000
     atom:   18    charge:   14.3569    magn:   -1.4832    constr:    0.0000
     atom:   19    charge:   14.3557    magn:    1.4791    constr:    0.0000
     atom:   20    charge:   14.3534    magn:   -1.4937    constr:    0.0000
     atom:   21    charge:   14.3534    magn:    1.4844    constr:    0.0000
     atom:   22    charge:   14.3569    magn:   -1.4830    constr:    0.0000
     atom:   23    charge:   14.3536    magn:    1.4981    constr:    0.0000
     atom:   24    charge:   14.3535    magn:   -1.4976    constr:    0.0000
     atom:   25    charge:   14.3506    magn:    1.5071    constr:    0.0000
     atom:   26    charge:   14.3551    magn:   -1.4856    constr:    0.0000
     atom:   27    charge:   14.3564    magn:    1.4771    constr:    0.0000
     atom:   28    charge:   14.3568    magn:   -1.4842    constr:    0.0000
     atom:   29    charge:   14.3557    magn:    1.4763    constr:    0.0000
     atom:   30    charge:   14.3556    magn:   -1.4833    constr:    0.0000
     atom:   31    charge:   14.3538    magn:    1.5003    constr:    0.0000
     atom:   32    charge:   14.3557    magn:   -1.4847    constr:    0.0000

     total cpu time spent up to now is    20151.9 secs

     End of self-consistent calculation

     Number of k-points >= 100: set verbosity='high' to print the bands.

     the Fermi energy is    20.1183 ev

!    total energy              =  -10536.25008848 Ry

     total all-electron energy =    -81457.739146 Ry
     estimated scf accuracy    <          9.4E-09 Ry
     smearing contrib. (-TS)   =       0.01443881 Ry
     internal energy E=F+TS    =  -10536.26452730 Ry

     The total energy is F=E-TS. E is the sum of the following terms:
     one-electron contribution =   -3292.49452040 Ry
     hartree contribution      =    1996.56891485 Ry
     xc contribution           =    -886.95698499 Ry
     ewald contribution        =   -5703.82126650 Ry
     one-center paw contrib.   =   -2649.56067025 Ry

     total magnetization       =    -0.00 Bohr mag/cell
     absolute magnetization    =    49.54 Bohr mag/cell

     convergence has been achieved in  36 iterations

     Forces acting on atoms (cartesian axes, Ry/au):

     atom    1 type  1   force =     0.00075627   -0.00007048   -0.00045325
     atom    2 type  2   force =     0.00092399    0.00071706    0.00099169
     atom    3 type  1   force =     0.00041849    0.00010974    0.00273006
     atom    4 type  2   force =     0.00056702    0.00253113    0.00083992
     atom    5 type  1   force =     0.00097822   -0.00204272   -0.00100786
     atom    6 type  2   force =    -0.00002762    0.00059832   -0.00132133
     atom    7 type  1   force =     0.00125416    0.00313910   -0.00141316
     atom    8 type  2   force =     0.00160563   -0.00065188   -0.00149020
     atom    9 type  1   force =     0.00406842    0.00006612   -0.00212807
     atom   10 type  2   force =    -0.00079322   -0.00339541    0.00093257
     atom   11 type  1   force =    -0.00063595   -0.00111462   -0.00198412
     atom   12 type  2   force =     0.00171108    0.00178434    0.00066535
     atom   13 type  1   force =     0.00269902   -0.00176168   -0.00490521
     atom   14 type  2   force =    -0.00083975    0.00149601    0.00029339
     atom   15 type  1   force =    -0.00047603    0.00110623   -0.00020436
     atom   16 type  2   force =    -0.00419601    0.00031742    0.00016443
     atom   17 type  1   force =    -0.00059753    0.00040885   -0.00024998
     atom   18 type  2   force =    -0.00332555    0.00141291    0.00235872
     atom   19 type  1   force =    -0.00043324   -0.00185207    0.00130323
     atom   20 type  2   force =    -0.00410575   -0.00085362   -0.00207692
     atom   21 type  1   force =    -0.00234791    0.00083079   -0.00045388
     atom   22 type  2   force =     0.00060035   -0.00089633    0.00190637
     atom   23 type  1   force =     0.00146259    0.00099982   -0.00014449
     atom   24 type  2   force =     0.00044308   -0.00049440    0.00052513
     atom   25 type  1   force =    -0.00073946   -0.00022607    0.00089426
     atom   26 type  2   force =    -0.00047407   -0.00066058   -0.00142850
     atom   27 type  1   force =    -0.00040669    0.00007071    0.00046712
     atom   28 type  2   force =     0.00220790    0.00199810   -0.00103614
     atom   29 type  1   force =    -0.00108829   -0.00090697    0.00137643
     atom   30 type  2   force =     0.00196181    0.00022615    0.00317993
     atom   31 type  1   force =    -0.00183058   -0.00063617    0.00160598
     atom   32 type  2   force =     0.00065963   -0.00224979    0.00006291

     Total force =     0.015929     Total SCF correction =     0.000151


     Computing stress (Cartesian axis) and pressure

          total   stress  (Ry/bohr**3)                   (kbar)     P=        0.04
   0.00000010   0.00000006  -0.00000015            0.01        0.01       -0.02
   0.00000006   0.00000089   0.00000006            0.01        0.13        0.01
  -0.00000015   0.00000006  -0.00000015           -0.02        0.01       -0.02


     Writing output data file /scratch/bxp912/fescf_0010.save/
 
     init_run     :    162.87s CPU    166.72s WALL (       1 calls)
     electrons    :  19744.72s CPU  19982.35s WALL (       1 calls)
     forces       :    100.35s CPU    100.94s WALL (       1 calls)
     stress       :    457.64s CPU    460.84s WALL (       1 calls)

     Called by init_run:
     wfcinit      :    162.18s CPU    165.69s WALL (       1 calls)
     potinit      :      0.35s CPU      0.54s WALL (       1 calls)
     hinit0       :      0.15s CPU      0.25s WALL (       1 calls)

     Called by electrons:
     c_bands      :  17299.02s CPU  17499.49s WALL (      36 calls)
     sum_band     :   2436.58s CPU   2472.83s WALL (      36 calls)
     v_of_rho     :      0.82s CPU      0.88s WALL (      37 calls)
     newd         :      1.37s CPU      1.75s WALL (      37 calls)
     PAW_pot      :      6.39s CPU      6.87s WALL (      37 calls)
     mix_rho      :      0.58s CPU      0.67s WALL (      36 calls)

     Called by c_bands:
     init_us_2    :     87.17s CPU     88.35s WALL (   54750 calls)
     cegterg      :  16971.85s CPU  17167.41s WALL (   26280 calls)

     Called by *egterg:
     cdiaghg      :   2169.72s CPU   2181.80s WALL (   92615 calls)
     h_psi        :   9382.41s CPU   9530.42s WALL (   93345 calls)
     s_psi        :    664.38s CPU    669.22s WALL (   93345 calls)
     g_psi        :     15.68s CPU     15.89s WALL (   66335 calls)

     Called by h_psi:
     h_psi:calbec :   1376.03s CPU   1385.67s WALL (   93345 calls)
     vloc_psi     :   7296.58s CPU   7427.63s WALL (   93345 calls)
     add_vuspsi   :    669.02s CPU    675.88s WALL (   93345 calls)

     General routines
     calbec       :   2094.54s CPU   2109.18s WALL (  123275 calls)
     fft          :      0.72s CPU      0.83s WALL (     963 calls)
     ffts         :      0.30s CPU      0.40s WALL (     845 calls)
     fftw         :   8794.22s CPU   8951.20s WALL (46141492 calls)
     interpolate  :      0.09s CPU      0.17s WALL (      74 calls)
 
     Parallel routines
     fft_scatt_xy :    368.55s CPU    375.31s WALL (46143300 calls)
     fft_scatt_yz :   7541.02s CPU   7677.63s WALL (46143300 calls)
 
     PWSCF        :      5h43m CPU      5h48m WALL

 
   This run was terminated on:  13:59:42   7Mar2022            

=------------------------------------------------------------------------------=
   JOB DONE.
=------------------------------------------------------------------------------=
