
     Program PWSCF v.6.7MaX starts on 13Mar2022 at  9:36:38 

     This program is part of the open-source Quantum ESPRESSO suite
     for quantum simulation of materials; please cite
         "P. Giannozzi et al., J. Phys.:Condens. Matter 21 395502 (2009);
         "P. Giannozzi et al., J. Phys.:Condens. Matter 29 465901 (2017);
          URL http://www.quantum-espresso.org", 
     in publications or presentations arising from this work. More details at
     http://www.quantum-espresso.org/quote

     Parallel version (MPI & OpenMP), running on      72 processor cores
     Number of MPI processes:                72
     Threads/MPI process:                     1

     MPI processes distributed on     1 nodes
     R & G space division:  proc/nbgrp/npool/nimage =      72
     Reading input from fe_0005.in
Warning: card &CELL ignored
Warning: card CELL_DYNAMICS = 'BFGS', ignored
Warning: card CELL_FACTOR = 2.0, ignored
Warning: card PRESS = 0.0, ignored
Warning: card / ignored

     Current dimensions of program PWSCF are:
     Max number of different atomic species (ntypx) = 10
     Max number of k-points (npk) =  40000
     Max angular momentum in pseudopotentials (lmaxx) =  3
     file Fe.pbe-spn-kjpaw_psl.1.0.0.UPF: wavefunction(s)  3P 3D renormalized
     file Fe.pbe-spn-kjpaw_psl.1.0.0.UPF: wavefunction(s)  3P 3D renormalized

     Subspace diagonalization in iterative solution of the eigenvalue problem:
     one sub-group per band group will be used
     ELPA distributed-memory algorithm (size of sub-group:  8*  8 procs)

 
     Parallelization info
     --------------------
     sticks:   dense  smooth     PW     G-vecs:    dense   smooth      PW
     Min          83      55     15                 4773     2563     367
     Max          84      56     16                 4778     2568     371
     Sum        6035    3993   1103               343891   184641   26583
 


     bravais-lattice index     =            0
     lattice parameter (alat)  =      12.9382  a.u.
     unit-cell volume          =    2283.7616 (a.u.)^3
     number of atoms/cell      =           32
     number of atomic types    =            2
     number of electrons       =       512.00
     number of Kohn-Sham states=          320
     kinetic-energy cutoff     =      71.0000  Ry
     charge density cutoff     =     430.0000  Ry
     scf convergence threshold =      1.0E-08
     mixing beta               =       0.3000
     number of iterations used =           10  local-TF  mixing
     Exchange-correlation= SLA  PW   PBX  PBC
                           (   1   4   3   4   0   0   0)

     celldm(1)=  12.938150  celldm(2)=   0.000000  celldm(3)=   0.000000
     celldm(4)=   0.000000  celldm(5)=   0.000000  celldm(6)=   0.000000

     crystal axes: (cart. coord. in units of alat)
               a(1) = (   1.000000   0.000000   0.000000 )  
               a(2) = (   0.000000   1.054470   0.000000 )  
               a(3) = (   0.000000   0.000000   1.000000 )  

     reciprocal axes: (cart. coord. in units 2 pi/alat)
               b(1) = (  1.000000  0.000000  0.000000 )  
               b(2) = (  0.000000  0.948344  0.000000 )  
               b(3) = (  0.000000  0.000000  1.000000 )  


     PseudoPot. # 1 for Fe read from file:
     /rds/homes/b/bxp912/pp/Fe.pbe-spn-kjpaw_psl.1.0.0.UPF
     MD5 check sum: 42f43b795421b414b0dc916aa790dbcb
     Pseudo is Projector augmented-wave + core cor, Zval = 16.0
     Generated using &quot;atomic&quot; code by A. Dal Corso  v.6.3
     Shape of augmentation charge: PSQ
     Using radial grid of 1191 points,  6 beta functions with: 
                l(1) =   0
                l(2) =   0
                l(3) =   1
                l(4) =   1
                l(5) =   2
                l(6) =   2
     Q(r) pseudized with 0 coefficients 


     PseudoPot. # 2 for Fe read from file:
     /rds/homes/b/bxp912/pp/Fe.pbe-spn-kjpaw_psl.1.0.0.UPF
     MD5 check sum: 42f43b795421b414b0dc916aa790dbcb
     Pseudo is Projector augmented-wave + core cor, Zval = 16.0
     Generated using &quot;atomic&quot; code by A. Dal Corso  v.6.3
     Shape of augmentation charge: PSQ
     Using radial grid of 1191 points,  6 beta functions with: 
                l(1) =   0
                l(2) =   0
                l(3) =   1
                l(4) =   1
                l(5) =   2
                l(6) =   2
     Q(r) pseudized with 0 coefficients 


     atomic species   valence    mass     pseudopotential
        Fe1           16.00    55.84500     Fe( 1.00)
        Fe2           16.00    55.84500     Fe( 1.00)

     Starting magnetic structure 
     atomic species   magnetization
        Fe1          0.100
        Fe2         -0.100

     No symmetry found



   Cartesian axes

     site n.     atom                  positions (alat units)
         1           Fe1 tau(   1) = (   0.0012680   1.0537867   0.9988990  )
         2           Fe2 tau(   2) = (   0.2494090   0.2636386   0.9994900  )
         3           Fe1 tau(   3) = (   0.2482340   1.0539776   0.2511600  )
         4           Fe2 tau(   4) = (   0.0004650   0.2631599   0.2493790  )
         5           Fe1 tau(   5) = (   0.0012490   1.0539755   0.4998060  )
         6           Fe2 tau(   6) = (   0.2507420   0.2624175   0.4991970  )
         7           Fe1 tau(   7) = (   0.2491970   0.0020014   0.7494630  )
         8           Fe2 tau(   8) = (   0.9994570   0.2645591   0.7496590  )
         9           Fe1 tau(   9) = (   0.0010830   0.5278940   0.0013130  )
        10           Fe2 tau(  10) = (   0.2497810   0.7913260   0.0010110  )
        11           Fe1 tau(  11) = (   0.2516900   0.5265116   0.2507600  )
        12           Fe2 tau(  12) = (   0.0000340   0.7910992   0.2494100  )
        13           Fe1 tau(  13) = (   0.0003030   0.5277085   0.5007230  )
        14           Fe2 tau(  14) = (   0.2505410   0.7908725   0.5006620  )
        15           Fe1 tau(  15) = (   0.2493240   0.5274006   0.7507690  )
        16           Fe2 tau(  16) = (   0.9995460   0.7911952   0.7494890  )
        17           Fe1 tau(  17) = (   0.4990010   0.0000105   0.9988820  )
        18           Fe2 tau(  18) = (   0.7498660   0.2645159   0.9986620  )
        19           Fe1 tau(  19) = (   0.7494510   1.0542338   0.2508650  )
        20           Fe2 tau(  20) = (   0.4998720   0.2648280   0.2508920  )
        21           Fe1 tau(  21) = (   0.4996540   0.0001613   0.4992180  )
        22           Fe2 tau(  22) = (   0.7511970   0.2631082   0.5011790  )
        23           Fe1 tau(  23) = (   0.7506380   0.0001750   0.7495130  )
        24           Fe2 tau(  24) = (   0.4983780   0.2634266   0.7501460  )
        25           Fe1 tau(  25) = (   0.5001930   0.5275904   0.9991040  )
        26           Fe2 tau(  26) = (   0.7497270   0.7920124   0.0005540  )
        27           Fe1 tau(  27) = (   0.7512170   0.5272603   0.2493100  )
        28           Fe2 tau(  28) = (   0.5002430   0.7910950   0.2500780  )
        29           Fe1 tau(  29) = (   0.4998330   0.5262459   0.5011250  )
        30           Fe2 tau(  30) = (   0.7495090   0.7913924   0.4991480  )
        31           Fe1 tau(  31) = (   0.7510510   0.5288367   0.7496560  )
        32           Fe2 tau(  32) = (   0.5015260   0.7904370   0.7502860  )

     number of k points=   365  Marzari-Vanderbilt smearing, width (Ry)=  0.0400

     Number of k-points >= 100: set verbosity='high' to print them.

     Dense  grid:   343891 G-vectors     FFT dimensions: (  90,  96,  90)

     Smooth grid:   184641 G-vectors     FFT dimensions: (  72,  75,  72)

     Estimated max dynamical RAM per process >       1.14 GB

     Estimated total dynamical RAM >      82.37 GB

     Check: negative core charge=   -0.000006
     Generating pointlists ...
     new r_m :   0.1446 (alat units)  1.8704 (a.u.) for type    1
     new r_m :   0.1449 (alat units)  1.8746 (a.u.) for type    2

     Initial potential from superposition of free atoms

     starting charge  511.98600, renormalised to  512.00000
     Starting wfcs are  320 randomized atomic wfcs
     Checking if some PAW data can be deallocated... 

     total cpu time spent up to now is      175.2 secs

     Self-consistent Calculation

     iteration #  1     ecut=    71.00 Ry     beta= 0.30
     Davidson diagonalization with overlap
     ethr =  1.00E-02,  avg # of iterations =  7.8

     negative rho (up, down):  1.169E-01 2.456E-01

     total cpu time spent up to now is      992.4 secs

     total energy              =  -10532.44263052 Ry
     estimated scf accuracy    <      37.05714157 Ry

     total magnetization       =    -0.19 Bohr mag/cell
     absolute magnetization    =    61.15 Bohr mag/cell

     iteration #  2     ecut=    71.00 Ry     beta= 0.30
     Davidson diagonalization with overlap
     ethr =  7.24E-03,  avg # of iterations =  3.6

     negative rho (up, down):  8.512E-02 1.757E-01

     total cpu time spent up to now is     1541.9 secs

     total energy              =  -10535.02675062 Ry
     estimated scf accuracy    <       6.79049485 Ry

     total magnetization       =     0.04 Bohr mag/cell
     absolute magnetization    =    47.60 Bohr mag/cell

     iteration #  3     ecut=    71.00 Ry     beta= 0.30
     Davidson diagonalization with overlap
     ethr =  1.33E-03,  avg # of iterations =  3.3

     negative rho (up, down):  6.244E-02 1.345E-01

     total cpu time spent up to now is     2091.6 secs

     total energy              =  -10535.46310535 Ry
     estimated scf accuracy    <       3.83071997 Ry

     total magnetization       =    -0.66 Bohr mag/cell
     absolute magnetization    =    46.73 Bohr mag/cell

     iteration #  4     ecut=    71.00 Ry     beta= 0.30
     Davidson diagonalization with overlap
     ethr =  7.48E-04,  avg # of iterations =  1.7

     negative rho (up, down):  2.644E-02 6.887E-02

     total cpu time spent up to now is     2589.8 secs

     total energy              =  -10535.70434926 Ry
     estimated scf accuracy    <       1.20701059 Ry

     total magnetization       =    -0.04 Bohr mag/cell
     absolute magnetization    =    46.84 Bohr mag/cell

     iteration #  5     ecut=    71.00 Ry     beta= 0.30
     Davidson diagonalization with overlap
     ethr =  2.36E-04,  avg # of iterations =  4.2

     negative rho (up, down):  1.290E-02 4.285E-02

     total cpu time spent up to now is     3157.9 secs

     total energy              =  -10535.87431061 Ry
     estimated scf accuracy    <       0.66225799 Ry

     total magnetization       =     0.11 Bohr mag/cell
     absolute magnetization    =    47.01 Bohr mag/cell

     iteration #  6     ecut=    71.00 Ry     beta= 0.30
     Davidson diagonalization with overlap
     ethr =  1.29E-04,  avg # of iterations =  2.1

     negative rho (up, down):  2.086E-03 1.469E-02

     total cpu time spent up to now is     3673.4 secs

     total energy              =  -10536.05084761 Ry
     estimated scf accuracy    <       0.46056513 Ry

     total magnetization       =    -0.03 Bohr mag/cell
     absolute magnetization    =    47.17 Bohr mag/cell

     iteration #  7     ecut=    71.00 Ry     beta= 0.30
     Davidson diagonalization with overlap
     ethr =  9.00E-05,  avg # of iterations =  2.2

     negative rho (up, down):  9.730E-05 1.744E-03

     total cpu time spent up to now is     4226.9 secs

     total energy              =  -10536.17646163 Ry
     estimated scf accuracy    <       0.21107289 Ry

     total magnetization       =    -0.02 Bohr mag/cell
     absolute magnetization    =    47.57 Bohr mag/cell

     iteration #  8     ecut=    71.00 Ry     beta= 0.30
     Davidson diagonalization with overlap
     c_bands:  2 eigenvalues not converged
     c_bands:  3 eigenvalues not converged
     c_bands:  1 eigenvalues not converged
     ethr =  4.12E-05,  avg # of iterations =  3.2

     negative rho (up, down):  0.000E+00 3.065E-05

     total cpu time spent up to now is     4825.1 secs

     total energy              =  -10536.23220783 Ry
     estimated scf accuracy    <       0.07845799 Ry

     total magnetization       =     0.10 Bohr mag/cell
     absolute magnetization    =    48.04 Bohr mag/cell

     iteration #  9     ecut=    71.00 Ry     beta= 0.30
     Davidson diagonalization with overlap
     c_bands:  1 eigenvalues not converged
     c_bands:  1 eigenvalues not converged
     c_bands:  1 eigenvalues not converged
     c_bands:  3 eigenvalues not converged
     c_bands:  1 eigenvalues not converged
     ethr =  1.53E-05,  avg # of iterations =  4.7

     total cpu time spent up to now is     5458.3 secs

     total energy              =  -10536.24604451 Ry
     estimated scf accuracy    <       0.02076175 Ry

     total magnetization       =     0.05 Bohr mag/cell
     absolute magnetization    =    48.38 Bohr mag/cell

     iteration # 10     ecut=    71.00 Ry     beta= 0.30
     Davidson diagonalization with overlap
     c_bands:  2 eigenvalues not converged
     c_bands:  2 eigenvalues not converged
     c_bands:  1 eigenvalues not converged
     c_bands:  1 eigenvalues not converged
     c_bands:  1 eigenvalues not converged
     ethr =  4.06E-06,  avg # of iterations =  5.6

     total cpu time spent up to now is     6134.1 secs

     total energy              =  -10536.24837294 Ry
     estimated scf accuracy    <       0.00470148 Ry

     total magnetization       =     0.02 Bohr mag/cell
     absolute magnetization    =    48.72 Bohr mag/cell

     iteration # 11     ecut=    71.00 Ry     beta= 0.30
     Davidson diagonalization with overlap
     c_bands:  1 eigenvalues not converged
     c_bands:  1 eigenvalues not converged
     ethr =  9.18E-07,  avg # of iterations =  2.1

     total cpu time spent up to now is     6641.5 secs

     total energy              =  -10536.24831366 Ry
     estimated scf accuracy    <       0.00155748 Ry

     total magnetization       =     0.06 Bohr mag/cell
     absolute magnetization    =    48.87 Bohr mag/cell

     iteration # 12     ecut=    71.00 Ry     beta= 0.30
     Davidson diagonalization with overlap
     ethr =  3.04E-07,  avg # of iterations =  2.0

     total cpu time spent up to now is     7257.1 secs

     total energy              =  -10536.24906191 Ry
     estimated scf accuracy    <       0.00052917 Ry

     total magnetization       =     0.04 Bohr mag/cell
     absolute magnetization    =    48.96 Bohr mag/cell

     iteration # 13     ecut=    71.00 Ry     beta= 0.30
     Davidson diagonalization with overlap
     ethr =  1.03E-07,  avg # of iterations =  2.0

     total cpu time spent up to now is     7816.5 secs

     total energy              =  -10536.24919599 Ry
     estimated scf accuracy    <       0.00027008 Ry

     total magnetization       =     0.03 Bohr mag/cell
     absolute magnetization    =    49.03 Bohr mag/cell

     iteration # 14     ecut=    71.00 Ry     beta= 0.30
     Davidson diagonalization with overlap
     ethr =  5.28E-08,  avg # of iterations =  2.0

     total cpu time spent up to now is     8412.5 secs

     total energy              =  -10536.24930198 Ry
     estimated scf accuracy    <       0.00012164 Ry

     total magnetization       =     0.03 Bohr mag/cell
     absolute magnetization    =    49.15 Bohr mag/cell

     iteration # 15     ecut=    71.00 Ry     beta= 0.30
     Davidson diagonalization with overlap
     ethr =  2.38E-08,  avg # of iterations =  2.0

     total cpu time spent up to now is     8934.6 secs

     total energy              =  -10536.24933245 Ry
     estimated scf accuracy    <       0.00006597 Ry

     total magnetization       =     0.02 Bohr mag/cell
     absolute magnetization    =    49.23 Bohr mag/cell

     iteration # 16     ecut=    71.00 Ry     beta= 0.30
     Davidson diagonalization with overlap
     ethr =  1.29E-08,  avg # of iterations =  1.6

     total cpu time spent up to now is     9425.3 secs

     total energy              =  -10536.24935304 Ry
     estimated scf accuracy    <       0.00004014 Ry

     total magnetization       =     0.02 Bohr mag/cell
     absolute magnetization    =    49.26 Bohr mag/cell

     iteration # 17     ecut=    71.00 Ry     beta= 0.30
     Davidson diagonalization with overlap
     ethr =  7.84E-09,  avg # of iterations =  2.0

     total cpu time spent up to now is     9978.8 secs

     total energy              =  -10536.24937070 Ry
     estimated scf accuracy    <       0.00002339 Ry

     total magnetization       =     0.02 Bohr mag/cell
     absolute magnetization    =    49.33 Bohr mag/cell

     iteration # 18     ecut=    71.00 Ry     beta= 0.30
     Davidson diagonalization with overlap
     ethr =  4.57E-09,  avg # of iterations =  2.4

     total cpu time spent up to now is    10580.1 secs

     total energy              =  -10536.24938876 Ry
     estimated scf accuracy    <       0.00001391 Ry

     total magnetization       =     0.01 Bohr mag/cell
     absolute magnetization    =    49.43 Bohr mag/cell

     iteration # 19     ecut=    71.00 Ry     beta= 0.30
     Davidson diagonalization with overlap
     ethr =  2.72E-09,  avg # of iterations =  2.0

     total cpu time spent up to now is    11103.8 secs

     total energy              =  -10536.24939152 Ry
     estimated scf accuracy    <       0.00000720 Ry

     total magnetization       =     0.01 Bohr mag/cell
     absolute magnetization    =    49.47 Bohr mag/cell

     iteration # 20     ecut=    71.00 Ry     beta= 0.30
     Davidson diagonalization with overlap
     ethr =  1.41E-09,  avg # of iterations =  2.3

     total cpu time spent up to now is    11676.4 secs

     total energy              =  -10536.24939354 Ry
     estimated scf accuracy    <       0.00000453 Ry

     total magnetization       =     0.01 Bohr mag/cell
     absolute magnetization    =    49.50 Bohr mag/cell

     iteration # 21     ecut=    71.00 Ry     beta= 0.30
     Davidson diagonalization with overlap
     ethr =  8.86E-10,  avg # of iterations =  2.2

     total cpu time spent up to now is    12273.2 secs

     total energy              =  -10536.24939528 Ry
     estimated scf accuracy    <       0.00000130 Ry

     total magnetization       =     0.00 Bohr mag/cell
     absolute magnetization    =    49.52 Bohr mag/cell

     iteration # 22     ecut=    71.00 Ry     beta= 0.30
     Davidson diagonalization with overlap
     ethr =  2.55E-10,  avg # of iterations =  2.5

     total cpu time spent up to now is    12815.1 secs

     total energy              =  -10536.24939575 Ry
     estimated scf accuracy    <       0.00000068 Ry

     total magnetization       =     0.00 Bohr mag/cell
     absolute magnetization    =    49.53 Bohr mag/cell

     iteration # 23     ecut=    71.00 Ry     beta= 0.30
     Davidson diagonalization with overlap
     ethr =  1.33E-10,  avg # of iterations =  2.0

     total cpu time spent up to now is    13329.8 secs

     total energy              =  -10536.24939599 Ry
     estimated scf accuracy    <       0.00000049 Ry

     total magnetization       =     0.00 Bohr mag/cell
     absolute magnetization    =    49.53 Bohr mag/cell

     iteration # 24     ecut=    71.00 Ry     beta= 0.30
     Davidson diagonalization with overlap
     ethr =  9.66E-11,  avg # of iterations =  1.9

     total cpu time spent up to now is    13843.0 secs

     total energy              =  -10536.24939617 Ry
     estimated scf accuracy    <       0.00000040 Ry

     total magnetization       =     0.00 Bohr mag/cell
     absolute magnetization    =    49.53 Bohr mag/cell

     iteration # 25     ecut=    71.00 Ry     beta= 0.30
     Davidson diagonalization with overlap
     ethr =  7.76E-11,  avg # of iterations =  2.0

     total cpu time spent up to now is    14378.1 secs

     total energy              =  -10536.24939635 Ry
     estimated scf accuracy    <       0.00000021 Ry

     total magnetization       =     0.00 Bohr mag/cell
     absolute magnetization    =    49.54 Bohr mag/cell

     iteration # 26     ecut=    71.00 Ry     beta= 0.30
     Davidson diagonalization with overlap
     ethr =  4.18E-11,  avg # of iterations =  2.0

     total cpu time spent up to now is    14933.9 secs

     total energy              =  -10536.24939647 Ry
     estimated scf accuracy    <       0.00000015 Ry

     total magnetization       =    -0.00 Bohr mag/cell
     absolute magnetization    =    49.54 Bohr mag/cell

     iteration # 27     ecut=    71.00 Ry     beta= 0.30
     Davidson diagonalization with overlap
     ethr =  2.84E-11,  avg # of iterations =  2.0

     total cpu time spent up to now is    15485.8 secs

     total energy              =  -10536.24939652 Ry
     estimated scf accuracy    <       0.00000011 Ry

     total magnetization       =    -0.00 Bohr mag/cell
     absolute magnetization    =    49.54 Bohr mag/cell

     iteration # 28     ecut=    71.00 Ry     beta= 0.30
     Davidson diagonalization with overlap
     ethr =  2.11E-11,  avg # of iterations =  2.0

     total cpu time spent up to now is    16074.7 secs

     total energy              =  -10536.24939661 Ry
     estimated scf accuracy    <       0.00000006 Ry

     total magnetization       =    -0.00 Bohr mag/cell
     absolute magnetization    =    49.53 Bohr mag/cell

     iteration # 29     ecut=    71.00 Ry     beta= 0.30
     Davidson diagonalization with overlap
     ethr =  1.27E-11,  avg # of iterations =  2.0

     total cpu time spent up to now is    16666.8 secs

     total energy              =  -10536.24939667 Ry
     estimated scf accuracy    <       0.00000004 Ry

     total magnetization       =    -0.00 Bohr mag/cell
     absolute magnetization    =    49.53 Bohr mag/cell

     iteration # 30     ecut=    71.00 Ry     beta= 0.30
     Davidson diagonalization with overlap
     ethr =  7.91E-12,  avg # of iterations =  2.0

     total cpu time spent up to now is    17271.8 secs

     total energy              =  -10536.24939669 Ry
     estimated scf accuracy    <       0.00000003 Ry

     total magnetization       =    -0.00 Bohr mag/cell
     absolute magnetization    =    49.53 Bohr mag/cell

     iteration # 31     ecut=    71.00 Ry     beta= 0.30
     Davidson diagonalization with overlap
     ethr =  6.35E-12,  avg # of iterations =  2.6

     total cpu time spent up to now is    17888.4 secs

     total energy              =  -10536.24939674 Ry
     estimated scf accuracy    <       0.00000001 Ry

     total magnetization       =    -0.00 Bohr mag/cell
     absolute magnetization    =    49.53 Bohr mag/cell

     iteration # 32     ecut=    71.00 Ry     beta= 0.30
     Davidson diagonalization with overlap
     ethr =  2.85E-12,  avg # of iterations =  2.4

     total cpu time spent up to now is    18495.5 secs

     total energy              =  -10536.24939676 Ry
     estimated scf accuracy    <       0.00000001 Ry

     total magnetization       =    -0.00 Bohr mag/cell
     absolute magnetization    =    49.53 Bohr mag/cell

     iteration # 33     ecut=    71.00 Ry     beta= 0.30
     Davidson diagonalization with overlap
     ethr =  2.03E-12,  avg # of iterations =  1.0

     total cpu time spent up to now is    18958.3 secs

     total energy              =  -10536.24939676 Ry
     estimated scf accuracy    <       0.00000001 Ry

     total magnetization       =    -0.00 Bohr mag/cell
     absolute magnetization    =    49.53 Bohr mag/cell

     iteration # 34     ecut=    71.00 Ry     beta= 0.30
     Davidson diagonalization with overlap
     ethr =  2.03E-12,  avg # of iterations =  2.0
 
     Magnetic moment per site:
     atom:    1    charge:   14.3371    magn:    1.4834    constr:    0.0000
     atom:    2    charge:   14.3527    magn:   -1.4809    constr:    0.0000
     atom:    3    charge:   14.3401    magn:    1.4745    constr:    0.0000
     atom:    4    charge:   14.3484    magn:   -1.4960    constr:    0.0000
     atom:    5    charge:   14.3414    magn:    1.4801    constr:    0.0000
     atom:    6    charge:   14.3560    magn:   -1.4650    constr:    0.0000
     atom:    7    charge:   14.3397    magn:    1.4884    constr:    0.0000
     atom:    8    charge:   14.3540    magn:   -1.4750    constr:    0.0000
     atom:    9    charge:   14.3376    magn:    1.4856    constr:    0.0000
     atom:   10    charge:   14.3499    magn:   -1.4887    constr:    0.0000
     atom:   11    charge:   14.3362    magn:    1.4893    constr:    0.0000
     atom:   12    charge:   14.3529    magn:   -1.4778    constr:    0.0000
     atom:   13    charge:   14.3349    magn:    1.5043    constr:    0.0000
     atom:   14    charge:   14.3496    magn:   -1.4878    constr:    0.0000
     atom:   15    charge:   14.3368    magn:    1.4997    constr:    0.0000
     atom:   16    charge:   14.3518    magn:   -1.4750    constr:    0.0000
     atom:   17    charge:   14.3314    magn:    1.4999    constr:    0.0000
     atom:   18    charge:   14.3443    magn:   -1.5208    constr:    0.0000
     atom:   19    charge:   14.3326    magn:    1.4950    constr:    0.0000
     atom:   20    charge:   14.3469    magn:   -1.5031    constr:    0.0000
     atom:   21    charge:   14.3380    magn:    1.4775    constr:    0.0000
     atom:   22    charge:   14.3481    magn:   -1.5020    constr:    0.0000
     atom:   23    charge:   14.3361    magn:    1.4799    constr:    0.0000
     atom:   24    charge:   14.3519    magn:   -1.4855    constr:    0.0000
     atom:   25    charge:   14.3355    magn:    1.4881    constr:    0.0000
     atom:   26    charge:   14.3518    magn:   -1.4913    constr:    0.0000
     atom:   27    charge:   14.3329    magn:    1.4974    constr:    0.0000
     atom:   28    charge:   14.3504    magn:   -1.4959    constr:    0.0000
     atom:   29    charge:   14.3352    magn:    1.4895    constr:    0.0000
     atom:   30    charge:   14.3522    magn:   -1.4864    constr:    0.0000
     atom:   31    charge:   14.3376    magn:    1.4778    constr:    0.0000
     atom:   32    charge:   14.3489    magn:   -1.4962    constr:    0.0000

     total cpu time spent up to now is    19517.3 secs

     End of self-consistent calculation

     Number of k-points >= 100: set verbosity='high' to print the bands.

     the Fermi energy is    20.1182 ev

!    total energy              =  -10536.24939677 Ry

     total all-electron energy =    -81457.738455 Ry
     estimated scf accuracy    <          7.8E-09 Ry
     smearing contrib. (-TS)   =       0.01446539 Ry
     internal energy E=F+TS    =  -10536.26386216 Ry

     The total energy is F=E-TS. E is the sum of the following terms:
     one-electron contribution =   -3292.65677645 Ry
     hartree contribution      =    1996.65035876 Ry
     xc contribution           =    -886.95775602 Ry
     ewald contribution        =   -5703.73910223 Ry
     one-center paw contrib.   =   -2649.56058623 Ry

     total magnetization       =    -0.00 Bohr mag/cell
     absolute magnetization    =    49.53 Bohr mag/cell

     convergence has been achieved in  34 iterations

     Forces acting on atoms (cartesian axes, Ry/au):

     atom    1 type  1   force =    -0.00475389    0.00293186    0.00286492
     atom    2 type  2   force =     0.00189018    0.00051637    0.00286741
     atom    3 type  1   force =     0.00609988    0.00131140   -0.00433784
     atom    4 type  2   force =    -0.00236405    0.00110483    0.00134439
     atom    5 type  1   force =    -0.00501237    0.00120114    0.00058758
     atom    6 type  2   force =    -0.00312913    0.00437210    0.00149146
     atom    7 type  1   force =     0.00264978   -0.00600931    0.00123235
     atom    8 type  2   force =     0.00236466   -0.00159166    0.00118574
     atom    9 type  1   force =    -0.00263787   -0.00102783   -0.00259388
     atom   10 type  2   force =     0.00110227   -0.00100843   -0.00425664
     atom   11 type  1   force =    -0.00336684    0.00293134   -0.00150423
     atom   12 type  2   force =     0.00119725   -0.00037800    0.00255804
     atom   13 type  1   force =     0.00006486   -0.00106927   -0.00371928
     atom   14 type  2   force =    -0.00035863   -0.00066197   -0.00087859
     atom   15 type  1   force =     0.00227971    0.00035470   -0.00191411
     atom   16 type  2   force =     0.00174309   -0.00025341    0.00147724
     atom   17 type  1   force =     0.00301166    0.00102989    0.00393373
     atom   18 type  2   force =     0.00029404   -0.00242201    0.00292193
     atom   19 type  1   force =     0.00163393    0.00269052   -0.00403135
     atom   20 type  2   force =     0.00180166   -0.00389256   -0.00331958
     atom   21 type  1   force =     0.00147986   -0.00015575    0.00194245
     atom   22 type  2   force =    -0.00305658    0.00211749   -0.00345208
     atom   23 type  1   force =    -0.00261089   -0.00003254    0.00126288
     atom   24 type  2   force =     0.00533197    0.00100465   -0.00077336
     atom   25 type  1   force =     0.00040255   -0.00057395    0.00251377
     atom   26 type  2   force =     0.00136180   -0.00217985   -0.00086937
     atom   27 type  1   force =    -0.00377412   -0.00029147    0.00267036
     atom   28 type  2   force =    -0.00125250   -0.00097691   -0.00008966
     atom   29 type  1   force =     0.00229972    0.00274603   -0.00191178
     atom   30 type  2   force =     0.00145015   -0.00150896    0.00177470
     atom   31 type  1   force =    -0.00137977   -0.00316272    0.00177830
     atom   32 type  2   force =    -0.00476236    0.00288431   -0.00075550

     Total force =     0.024510     Total SCF correction =     0.000158


     Computing stress (Cartesian axis) and pressure

          total   stress  (Ry/bohr**3)                   (kbar)     P=        0.19
   0.00000121  -0.00000010  -0.00000039            0.18       -0.01       -0.06
  -0.00000010   0.00000172  -0.00000007           -0.01        0.25       -0.01
  -0.00000039  -0.00000007   0.00000090           -0.06       -0.01        0.13


     Writing output data file /scratch/bxp912/fescf_0005.save/
 
     init_run     :    168.92s CPU    172.45s WALL (       1 calls)
     electrons    :  19112.59s CPU  19342.38s WALL (       1 calls)
     forces       :    105.22s CPU    105.86s WALL (       1 calls)
     stress       :    454.38s CPU    457.27s WALL (       1 calls)

     Called by init_run:
     wfcinit      :    167.86s CPU    171.29s WALL (       1 calls)
     potinit      :      0.28s CPU      0.31s WALL (       1 calls)
     hinit0       :      0.40s CPU      0.41s WALL (       1 calls)

     Called by electrons:
     c_bands      :  16778.10s CPU  16971.38s WALL (      34 calls)
     sum_band     :   2324.98s CPU   2360.68s WALL (      34 calls)
     v_of_rho     :      0.82s CPU      0.88s WALL (      35 calls)
     newd         :      1.47s CPU      1.81s WALL (      35 calls)
     PAW_pot      :      6.37s CPU      6.70s WALL (      35 calls)
     mix_rho      :      0.62s CPU      0.69s WALL (      34 calls)

     Called by c_bands:
     init_us_2    :     77.36s CPU     78.54s WALL (   51830 calls)
     cegterg      :  16472.29s CPU  16658.89s WALL (   24820 calls)

     Called by *egterg:
     cdiaghg      :   2105.62s CPU   2116.73s WALL (   88488 calls)
     h_psi        :   9046.76s CPU   9188.88s WALL (   89218 calls)
     s_psi        :    658.15s CPU    663.18s WALL (   89218 calls)
     g_psi        :     15.54s CPU     15.78s WALL (   63668 calls)

     Called by h_psi:
     h_psi:calbec :   1388.87s CPU   1398.19s WALL (   89218 calls)
     vloc_psi     :   6983.99s CPU   7109.50s WALL (   89218 calls)
     add_vuspsi   :    636.36s CPU    643.17s WALL (   89218 calls)

     General routines
     calbec       :   2099.55s CPU   2113.63s WALL (  117688 calls)
     fft          :      0.83s CPU      0.87s WALL (     913 calls)
     ffts         :      0.32s CPU      0.33s WALL (     793 calls)
     fftw         :   8391.49s CPU   8540.55s WALL (43856086 calls)
     interpolate  :      0.12s CPU      0.12s WALL (      70 calls)
 
     Parallel routines
     fft_scatt_xy :    350.07s CPU    356.99s WALL (43857792 calls)
     fft_scatt_yz :   7200.42s CPU   7329.85s WALL (43857792 calls)
 
     PWSCF        :      5h33m CPU      5h37m WALL

 
   This run was terminated on:  15:14:27  13Mar2022            

=------------------------------------------------------------------------------=
   JOB DONE.
=------------------------------------------------------------------------------=
