
     Program PWSCF v.6.7MaX starts on 13Mar2022 at  9:28: 7 

     This program is part of the open-source Quantum ESPRESSO suite
     for quantum simulation of materials; please cite
         "P. Giannozzi et al., J. Phys.:Condens. Matter 21 395502 (2009);
         "P. Giannozzi et al., J. Phys.:Condens. Matter 29 465901 (2017);
          URL http://www.quantum-espresso.org", 
     in publications or presentations arising from this work. More details at
     http://www.quantum-espresso.org/quote

     Parallel version (MPI & OpenMP), running on      72 processor cores
     Number of MPI processes:                72
     Threads/MPI process:                     1

     MPI processes distributed on     1 nodes
     R & G space division:  proc/nbgrp/npool/nimage =      72
     Reading input from fe_0014.in
Warning: card &CELL ignored
Warning: card CELL_DYNAMICS = 'BFGS', ignored
Warning: card CELL_FACTOR = 2.0, ignored
Warning: card PRESS = 0.0, ignored
Warning: card / ignored

     Current dimensions of program PWSCF are:
     Max number of different atomic species (ntypx) = 10
     Max number of k-points (npk) =  40000
     Max angular momentum in pseudopotentials (lmaxx) =  3
     file Fe.pbe-spn-kjpaw_psl.1.0.0.UPF: wavefunction(s)  3P 3D renormalized
     file Fe.pbe-spn-kjpaw_psl.1.0.0.UPF: wavefunction(s)  3P 3D renormalized

     Subspace diagonalization in iterative solution of the eigenvalue problem:
     one sub-group per band group will be used
     ELPA distributed-memory algorithm (size of sub-group:  8*  8 procs)

 
     Parallelization info
     --------------------
     sticks:   dense  smooth     PW     G-vecs:    dense   smooth      PW
     Min          83      55     15                 4773     2563     367
     Max          84      56     16                 4778     2568     371
     Sum        6035    3993   1103               343891   184641   26583
 


     bravais-lattice index     =            0
     lattice parameter (alat)  =      12.9382  a.u.
     unit-cell volume          =    2283.7616 (a.u.)^3
     number of atoms/cell      =           32
     number of atomic types    =            2
     number of electrons       =       512.00
     number of Kohn-Sham states=          320
     kinetic-energy cutoff     =      71.0000  Ry
     charge density cutoff     =     430.0000  Ry
     scf convergence threshold =      1.0E-08
     mixing beta               =       0.3000
     number of iterations used =           10  local-TF  mixing
     Exchange-correlation= SLA  PW   PBX  PBC
                           (   1   4   3   4   0   0   0)

     celldm(1)=  12.938150  celldm(2)=   0.000000  celldm(3)=   0.000000
     celldm(4)=   0.000000  celldm(5)=   0.000000  celldm(6)=   0.000000

     crystal axes: (cart. coord. in units of alat)
               a(1) = (   1.000000   0.000000   0.000000 )  
               a(2) = (   0.000000   1.054470   0.000000 )  
               a(3) = (   0.000000   0.000000   1.000000 )  

     reciprocal axes: (cart. coord. in units 2 pi/alat)
               b(1) = (  1.000000  0.000000  0.000000 )  
               b(2) = (  0.000000  0.948344  0.000000 )  
               b(3) = (  0.000000  0.000000  1.000000 )  


     PseudoPot. # 1 for Fe read from file:
     /rds/homes/b/bxp912/pp/Fe.pbe-spn-kjpaw_psl.1.0.0.UPF
     MD5 check sum: 42f43b795421b414b0dc916aa790dbcb
     Pseudo is Projector augmented-wave + core cor, Zval = 16.0
     Generated using &quot;atomic&quot; code by A. Dal Corso  v.6.3
     Shape of augmentation charge: PSQ
     Using radial grid of 1191 points,  6 beta functions with: 
                l(1) =   0
                l(2) =   0
                l(3) =   1
                l(4) =   1
                l(5) =   2
                l(6) =   2
     Q(r) pseudized with 0 coefficients 


     PseudoPot. # 2 for Fe read from file:
     /rds/homes/b/bxp912/pp/Fe.pbe-spn-kjpaw_psl.1.0.0.UPF
     MD5 check sum: 42f43b795421b414b0dc916aa790dbcb
     Pseudo is Projector augmented-wave + core cor, Zval = 16.0
     Generated using &quot;atomic&quot; code by A. Dal Corso  v.6.3
     Shape of augmentation charge: PSQ
     Using radial grid of 1191 points,  6 beta functions with: 
                l(1) =   0
                l(2) =   0
                l(3) =   1
                l(4) =   1
                l(5) =   2
                l(6) =   2
     Q(r) pseudized with 0 coefficients 


     atomic species   valence    mass     pseudopotential
        Fe1           16.00    55.84500     Fe( 1.00)
        Fe2           16.00    55.84500     Fe( 1.00)

     Starting magnetic structure 
     atomic species   magnetization
        Fe1          0.100
        Fe2         -0.100

     No symmetry found



   Cartesian axes

     site n.     atom                  positions (alat units)
         1           Fe1 tau(   1) = (   0.0003710   1.0541199   0.0000780  )
         2           Fe2 tau(   2) = (   0.2499800   0.2635669   0.9998990  )
         3           Fe1 tau(   3) = (   0.2502840   0.0000580   0.2500840  )
         4           Fe2 tau(   4) = (   0.0000290   0.2636070   0.2501970  )
         5           Fe1 tau(   5) = (   0.9996260   1.0543751   0.5000930  )
         6           Fe2 tau(   6) = (   0.2499600   0.2635785   0.5000780  )
         7           Fe1 tau(   7) = (   0.2498780   0.0001128   0.7500560  )
         8           Fe2 tau(   8) = (   0.0005320   0.2640467   0.7498460  )
         9           Fe1 tau(   9) = (   0.0000820   0.5267858   0.0000230  )
        10           Fe2 tau(  10) = (   0.2498110   0.7908852   0.0003990  )
        11           Fe1 tau(  11) = (   0.2497760   0.5270399   0.2498050  )
        12           Fe2 tau(  12) = (   0.9999680   0.7909274   0.2502310  )
        13           Fe1 tau(  13) = (   0.0000460   0.5274353   0.5000940  )
        14           Fe2 tau(  14) = (   0.2499180   0.7910666   0.4998730  )
        15           Fe1 tau(  15) = (   0.2504210   0.5275745   0.7497180  )
        16           Fe2 tau(  16) = (   0.0001600   0.7910360   0.7502990  )
        17           Fe1 tau(  17) = (   0.5000280   1.0544384   0.0000800  )
        18           Fe2 tau(  18) = (   0.7499960   0.2637430   0.0002120  )
        19           Fe1 tau(  19) = (   0.7502400   0.0001381   0.2499950  )
        20           Fe2 tau(  20) = (   0.4999810   0.2639054   0.2502610  )
        21           Fe1 tau(  21) = (   0.4998650   0.0003754   0.5001310  )
        22           Fe2 tau(  22) = (   0.7496260   0.2632969   0.4998700  )
        23           Fe1 tau(  23) = (   0.7501310   0.0000021   0.7501930  )
        24           Fe2 tau(  24) = (   0.5000240   0.2636555   0.7501220  )
        25           Fe1 tau(  25) = (   0.5000150   0.5272339   0.0003120  )
        26           Fe2 tau(  26) = (   0.7498690   0.7910961   0.9995600  )
        27           Fe1 tau(  27) = (   0.7501040   0.5267457   0.2499240  )
        28           Fe2 tau(  28) = (   0.4998120   0.7909253   0.2498700  )
        29           Fe1 tau(  29) = (   0.5002410   0.5272519   0.4998350  )
        30           Fe2 tau(  30) = (   0.7500150   0.7910676   0.4995470  )
        31           Fe1 tau(  31) = (   0.7497180   0.5271158   0.7499290  )
        32           Fe2 tau(  32) = (   0.5002500   0.7910486   0.7497540  )

     number of k points=   365  Marzari-Vanderbilt smearing, width (Ry)=  0.0400

     Number of k-points >= 100: set verbosity='high' to print them.

     Dense  grid:   343891 G-vectors     FFT dimensions: (  90,  96,  90)

     Smooth grid:   184641 G-vectors     FFT dimensions: (  72,  75,  72)

     Estimated max dynamical RAM per process >       1.14 GB

     Estimated total dynamical RAM >      82.37 GB

     Check: negative core charge=   -0.000006
     Generating pointlists ...
     new r_m :   0.1457 (alat units)  1.8849 (a.u.) for type    1
     new r_m :   0.1456 (alat units)  1.8839 (a.u.) for type    2

     Initial potential from superposition of free atoms

     starting charge  511.98600, renormalised to  512.00000
     Starting wfcs are  320 randomized atomic wfcs
     Checking if some PAW data can be deallocated... 

     total cpu time spent up to now is      170.7 secs

     Self-consistent Calculation

     iteration #  1     ecut=    71.00 Ry     beta= 0.30
     Davidson diagonalization with overlap
     ethr =  1.00E-02,  avg # of iterations =  7.7

     negative rho (up, down):  1.137E-01 2.402E-01

     total cpu time spent up to now is      988.8 secs

     total energy              =  -10532.32149238 Ry
     estimated scf accuracy    <      36.72670160 Ry

     total magnetization       =    -0.19 Bohr mag/cell
     absolute magnetization    =    61.09 Bohr mag/cell

     iteration #  2     ecut=    71.00 Ry     beta= 0.30
     Davidson diagonalization with overlap
     ethr =  7.17E-03,  avg # of iterations =  3.6

     negative rho (up, down):  8.167E-02 1.719E-01

     total cpu time spent up to now is     1537.3 secs

     total energy              =  -10535.06194426 Ry
     estimated scf accuracy    <       6.50090113 Ry

     total magnetization       =     0.05 Bohr mag/cell
     absolute magnetization    =    47.60 Bohr mag/cell

     iteration #  3     ecut=    71.00 Ry     beta= 0.30
     Davidson diagonalization with overlap
     ethr =  1.27E-03,  avg # of iterations =  3.4

     negative rho (up, down):  6.064E-02 1.323E-01

     total cpu time spent up to now is     2089.2 secs

     total energy              =  -10535.44428731 Ry
     estimated scf accuracy    <       3.55436622 Ry

     total magnetization       =    -0.63 Bohr mag/cell
     absolute magnetization    =    46.72 Bohr mag/cell

     iteration #  4     ecut=    71.00 Ry     beta= 0.30
     Davidson diagonalization with overlap
     ethr =  6.94E-04,  avg # of iterations =  1.8

     negative rho (up, down):  2.688E-02 7.230E-02

     total cpu time spent up to now is     2586.6 secs

     total energy              =  -10535.67165246 Ry
     estimated scf accuracy    <       1.19004570 Ry

     total magnetization       =     0.00 Bohr mag/cell
     absolute magnetization    =    46.88 Bohr mag/cell

     iteration #  5     ecut=    71.00 Ry     beta= 0.30
     Davidson diagonalization with overlap
     c_bands:  1 eigenvalues not converged
     ethr =  2.32E-04,  avg # of iterations =  4.0

     negative rho (up, down):  1.343E-02 4.531E-02

     total cpu time spent up to now is     3153.7 secs

     total energy              =  -10535.87600565 Ry
     estimated scf accuracy    <       0.62938857 Ry

     total magnetization       =     0.13 Bohr mag/cell
     absolute magnetization    =    47.07 Bohr mag/cell

     iteration #  6     ecut=    71.00 Ry     beta= 0.30
     Davidson diagonalization with overlap
     ethr =  1.23E-04,  avg # of iterations =  2.3

     negative rho (up, down):  3.037E-03 1.756E-02

     total cpu time spent up to now is     3676.1 secs

     total energy              =  -10536.03712654 Ry
     estimated scf accuracy    <       0.47199710 Ry

     total magnetization       =    -0.04 Bohr mag/cell
     absolute magnetization    =    47.19 Bohr mag/cell

     iteration #  7     ecut=    71.00 Ry     beta= 0.30
     Davidson diagonalization with overlap
     ethr =  9.22E-05,  avg # of iterations =  2.1

     negative rho (up, down):  2.785E-05 1.314E-03

     total cpu time spent up to now is     4214.6 secs

     total energy              =  -10536.18069925 Ry
     estimated scf accuracy    <       0.23362465 Ry

     total magnetization       =     0.01 Bohr mag/cell
     absolute magnetization    =    47.55 Bohr mag/cell

     iteration #  8     ecut=    71.00 Ry     beta= 0.30
     Davidson diagonalization with overlap
     c_bands:  3 eigenvalues not converged
     c_bands:  1 eigenvalues not converged
     c_bands:  1 eigenvalues not converged
     c_bands:  1 eigenvalues not converged
     ethr =  4.56E-05,  avg # of iterations =  3.2

     total cpu time spent up to now is     4820.7 secs

     total energy              =  -10536.23553663 Ry
     estimated scf accuracy    <       0.07366275 Ry

     total magnetization       =     0.14 Bohr mag/cell
     absolute magnetization    =    48.12 Bohr mag/cell

     iteration #  9     ecut=    71.00 Ry     beta= 0.30
     Davidson diagonalization with overlap
     c_bands:  1 eigenvalues not converged
     c_bands:  1 eigenvalues not converged
     c_bands:  2 eigenvalues not converged
     c_bands:  1 eigenvalues not converged
     c_bands:  1 eigenvalues not converged
     c_bands:  4 eigenvalues not converged
     c_bands:  2 eigenvalues not converged
     c_bands:  1 eigenvalues not converged
     ethr =  1.44E-05,  avg # of iterations =  5.1

     total cpu time spent up to now is     5441.0 secs

     total energy              =  -10536.24703566 Ry
     estimated scf accuracy    <       0.02349319 Ry

     total magnetization       =     0.08 Bohr mag/cell
     absolute magnetization    =    48.40 Bohr mag/cell

     iteration # 10     ecut=    71.00 Ry     beta= 0.30
     Davidson diagonalization with overlap
     c_bands:  1 eigenvalues not converged
     c_bands:  2 eigenvalues not converged
     c_bands:  2 eigenvalues not converged
     c_bands:  3 eigenvalues not converged
     c_bands:  1 eigenvalues not converged
     c_bands:  2 eigenvalues not converged
     c_bands:  1 eigenvalues not converged
     c_bands:  2 eigenvalues not converged
     ethr =  4.59E-06,  avg # of iterations =  5.1

     total cpu time spent up to now is     6100.4 secs

     total energy              =  -10536.24949801 Ry
     estimated scf accuracy    <       0.00480638 Ry

     total magnetization       =     0.04 Bohr mag/cell
     absolute magnetization    =    48.74 Bohr mag/cell

     iteration # 11     ecut=    71.00 Ry     beta= 0.30
     Davidson diagonalization with overlap
     c_bands:  1 eigenvalues not converged
     c_bands:  1 eigenvalues not converged
     ethr =  9.39E-07,  avg # of iterations =  2.4

     total cpu time spent up to now is     6615.6 secs

     total energy              =  -10536.24916810 Ry
     estimated scf accuracy    <       0.00178183 Ry

     total magnetization       =     0.06 Bohr mag/cell
     absolute magnetization    =    48.89 Bohr mag/cell

     iteration # 12     ecut=    71.00 Ry     beta= 0.30
     Davidson diagonalization with overlap
     ethr =  3.48E-07,  avg # of iterations =  2.0

     total cpu time spent up to now is     7232.9 secs

     total energy              =  -10536.25013893 Ry
     estimated scf accuracy    <       0.00076167 Ry

     total magnetization       =     0.04 Bohr mag/cell
     absolute magnetization    =    48.97 Bohr mag/cell

     iteration # 13     ecut=    71.00 Ry     beta= 0.30
     Davidson diagonalization with overlap
     ethr =  1.49E-07,  avg # of iterations =  2.0

     total cpu time spent up to now is     7794.2 secs

     total energy              =  -10536.25027429 Ry
     estimated scf accuracy    <       0.00031082 Ry

     total magnetization       =     0.03 Bohr mag/cell
     absolute magnetization    =    49.05 Bohr mag/cell

     iteration # 14     ecut=    71.00 Ry     beta= 0.30
     Davidson diagonalization with overlap
     ethr =  6.07E-08,  avg # of iterations =  2.0

     total cpu time spent up to now is     8389.9 secs

     total energy              =  -10536.25038632 Ry
     estimated scf accuracy    <       0.00013399 Ry

     total magnetization       =     0.03 Bohr mag/cell
     absolute magnetization    =    49.16 Bohr mag/cell

     iteration # 15     ecut=    71.00 Ry     beta= 0.30
     Davidson diagonalization with overlap
     ethr =  2.62E-08,  avg # of iterations =  2.0

     total cpu time spent up to now is     8937.2 secs

     total energy              =  -10536.25042901 Ry
     estimated scf accuracy    <       0.00007646 Ry

     total magnetization       =     0.03 Bohr mag/cell
     absolute magnetization    =    49.23 Bohr mag/cell

     iteration # 16     ecut=    71.00 Ry     beta= 0.30
     Davidson diagonalization with overlap
     ethr =  1.49E-08,  avg # of iterations =  1.0

     total cpu time spent up to now is     9398.7 secs

     total energy              =  -10536.25045567 Ry
     estimated scf accuracy    <       0.00004235 Ry

     total magnetization       =     0.03 Bohr mag/cell
     absolute magnetization    =    49.28 Bohr mag/cell

     iteration # 17     ecut=    71.00 Ry     beta= 0.30
     Davidson diagonalization with overlap
     ethr =  8.27E-09,  avg # of iterations =  2.0

     total cpu time spent up to now is     9935.3 secs

     total energy              =  -10536.25047672 Ry
     estimated scf accuracy    <       0.00002545 Ry

     total magnetization       =     0.02 Bohr mag/cell
     absolute magnetization    =    49.36 Bohr mag/cell

     iteration # 18     ecut=    71.00 Ry     beta= 0.30
     Davidson diagonalization with overlap
     ethr =  4.97E-09,  avg # of iterations =  2.0

     total cpu time spent up to now is    10480.3 secs

     total energy              =  -10536.25048798 Ry
     estimated scf accuracy    <       0.00001530 Ry

     total magnetization       =     0.02 Bohr mag/cell
     absolute magnetization    =    49.43 Bohr mag/cell

     iteration # 19     ecut=    71.00 Ry     beta= 0.30
     Davidson diagonalization with overlap
     ethr =  2.99E-09,  avg # of iterations =  2.0

     total cpu time spent up to now is    10999.8 secs

     total energy              =  -10536.25049102 Ry
     estimated scf accuracy    <       0.00000974 Ry

     total magnetization       =     0.01 Bohr mag/cell
     absolute magnetization    =    49.47 Bohr mag/cell

     iteration # 20     ecut=    71.00 Ry     beta= 0.30
     Davidson diagonalization with overlap
     ethr =  1.90E-09,  avg # of iterations =  2.6

     total cpu time spent up to now is    11606.5 secs

     total energy              =  -10536.25049640 Ry
     estimated scf accuracy    <       0.00000378 Ry

     total magnetization       =     0.01 Bohr mag/cell
     absolute magnetization    =    49.52 Bohr mag/cell

     iteration # 21     ecut=    71.00 Ry     beta= 0.30
     Davidson diagonalization with overlap
     ethr =  7.39E-10,  avg # of iterations =  2.1

     total cpu time spent up to now is    12154.3 secs

     total energy              =  -10536.25049746 Ry
     estimated scf accuracy    <       0.00000126 Ry

     total magnetization       =     0.01 Bohr mag/cell
     absolute magnetization    =    49.54 Bohr mag/cell

     iteration # 22     ecut=    71.00 Ry     beta= 0.30
     Davidson diagonalization with overlap
     ethr =  2.45E-10,  avg # of iterations =  2.2

     total cpu time spent up to now is    12730.3 secs

     total energy              =  -10536.25049805 Ry
     estimated scf accuracy    <       0.00000098 Ry

     total magnetization       =     0.00 Bohr mag/cell
     absolute magnetization    =    49.54 Bohr mag/cell

     iteration # 23     ecut=    71.00 Ry     beta= 0.30
     Davidson diagonalization with overlap
     ethr =  1.92E-10,  avg # of iterations =  2.0

     total cpu time spent up to now is    13276.4 secs

     total energy              =  -10536.25049842 Ry
     estimated scf accuracy    <       0.00000060 Ry

     total magnetization       =     0.00 Bohr mag/cell
     absolute magnetization    =    49.55 Bohr mag/cell

     iteration # 24     ecut=    71.00 Ry     beta= 0.30
     Davidson diagonalization with overlap
     ethr =  1.17E-10,  avg # of iterations =  1.4

     total cpu time spent up to now is    13758.4 secs

     total energy              =  -10536.25049856 Ry
     estimated scf accuracy    <       0.00000041 Ry

     total magnetization       =     0.00 Bohr mag/cell
     absolute magnetization    =    49.55 Bohr mag/cell

     iteration # 25     ecut=    71.00 Ry     beta= 0.30
     Davidson diagonalization with overlap
     ethr =  8.07E-11,  avg # of iterations =  1.4

     total cpu time spent up to now is    14239.0 secs

     total energy              =  -10536.25049867 Ry
     estimated scf accuracy    <       0.00000037 Ry

     total magnetization       =     0.00 Bohr mag/cell
     absolute magnetization    =    49.55 Bohr mag/cell

     iteration # 26     ecut=    71.00 Ry     beta= 0.30
     Davidson diagonalization with overlap
     ethr =  7.16E-11,  avg # of iterations =  1.9

     total cpu time spent up to now is    14748.8 secs

     total energy              =  -10536.25049882 Ry
     estimated scf accuracy    <       0.00000024 Ry

     total magnetization       =     0.00 Bohr mag/cell
     absolute magnetization    =    49.55 Bohr mag/cell

     iteration # 27     ecut=    71.00 Ry     beta= 0.30
     Davidson diagonalization with overlap
     ethr =  4.76E-11,  avg # of iterations =  2.0

     total cpu time spent up to now is    15339.3 secs

     total energy              =  -10536.25049902 Ry
     estimated scf accuracy    <       0.00000019 Ry

     total magnetization       =     0.00 Bohr mag/cell
     absolute magnetization    =    49.55 Bohr mag/cell

     iteration # 28     ecut=    71.00 Ry     beta= 0.30
     Davidson diagonalization with overlap
     ethr =  3.70E-11,  avg # of iterations =  2.0

     total cpu time spent up to now is    15881.3 secs

     total energy              =  -10536.25049905 Ry
     estimated scf accuracy    <       0.00000013 Ry

     total magnetization       =     0.00 Bohr mag/cell
     absolute magnetization    =    49.55 Bohr mag/cell

     iteration # 29     ecut=    71.00 Ry     beta= 0.30
     Davidson diagonalization with overlap
     ethr =  2.48E-11,  avg # of iterations =  2.1

     total cpu time spent up to now is    16475.6 secs

     total energy              =  -10536.25049916 Ry
     estimated scf accuracy    <       0.00000008 Ry

     total magnetization       =     0.00 Bohr mag/cell
     absolute magnetization    =    49.55 Bohr mag/cell

     iteration # 30     ecut=    71.00 Ry     beta= 0.30
     Davidson diagonalization with overlap
     ethr =  1.55E-11,  avg # of iterations =  2.2

     total cpu time spent up to now is    17065.0 secs

     total energy              =  -10536.25049924 Ry
     estimated scf accuracy    <       0.00000004 Ry

     total magnetization       =    -0.00 Bohr mag/cell
     absolute magnetization    =    49.54 Bohr mag/cell

     iteration # 31     ecut=    71.00 Ry     beta= 0.30
     Davidson diagonalization with overlap
     ethr =  8.18E-12,  avg # of iterations =  2.0

     total cpu time spent up to now is    17639.1 secs

     total energy              =  -10536.25049927 Ry
     estimated scf accuracy    <       0.00000003 Ry

     total magnetization       =    -0.00 Bohr mag/cell
     absolute magnetization    =    49.54 Bohr mag/cell

     iteration # 32     ecut=    71.00 Ry     beta= 0.30
     Davidson diagonalization with overlap
     ethr =  6.22E-12,  avg # of iterations =  1.7

     total cpu time spent up to now is    18132.8 secs

     total energy              =  -10536.25049929 Ry
     estimated scf accuracy    <       0.00000003 Ry

     total magnetization       =    -0.00 Bohr mag/cell
     absolute magnetization    =    49.54 Bohr mag/cell

     iteration # 33     ecut=    71.00 Ry     beta= 0.30
     Davidson diagonalization with overlap
     ethr =  4.93E-12,  avg # of iterations =  2.0

     total cpu time spent up to now is    18713.9 secs

     total energy              =  -10536.25049931 Ry
     estimated scf accuracy    <       0.00000002 Ry

     total magnetization       =    -0.00 Bohr mag/cell
     absolute magnetization    =    49.54 Bohr mag/cell

     iteration # 34     ecut=    71.00 Ry     beta= 0.30
     Davidson diagonalization with overlap
     ethr =  3.95E-12,  avg # of iterations =  2.0

     total cpu time spent up to now is    19244.8 secs

     total energy              =  -10536.25049933 Ry
     estimated scf accuracy    <       0.00000002 Ry

     total magnetization       =    -0.00 Bohr mag/cell
     absolute magnetization    =    49.54 Bohr mag/cell

     iteration # 35     ecut=    71.00 Ry     beta= 0.30
     Davidson diagonalization with overlap
     ethr =  3.02E-12,  avg # of iterations =  2.0

     total cpu time spent up to now is    19769.0 secs

     total energy              =  -10536.25049933 Ry
     estimated scf accuracy    <       0.00000001 Ry

     total magnetization       =    -0.00 Bohr mag/cell
     absolute magnetization    =    49.54 Bohr mag/cell

     iteration # 36     ecut=    71.00 Ry     beta= 0.30
     Davidson diagonalization with overlap
     ethr =  2.80E-12,  avg # of iterations =  1.9

     total cpu time spent up to now is    20280.4 secs

     total energy              =  -10536.25049933 Ry
     estimated scf accuracy    <       0.00000001 Ry

     total magnetization       =    -0.00 Bohr mag/cell
     absolute magnetization    =    49.54 Bohr mag/cell

     iteration # 37     ecut=    71.00 Ry     beta= 0.30
     Davidson diagonalization with overlap
     ethr =  2.19E-12,  avg # of iterations =  3.5
 
     Magnetic moment per site:
     atom:    1    charge:   14.3850    magn:    1.4915    constr:    0.0000
     atom:    2    charge:   14.3818    magn:   -1.4903    constr:    0.0000
     atom:    3    charge:   14.3851    magn:    1.4890    constr:    0.0000
     atom:    4    charge:   14.3820    magn:   -1.4888    constr:    0.0000
     atom:    5    charge:   14.3853    magn:    1.4892    constr:    0.0000
     atom:    6    charge:   14.3821    magn:   -1.4922    constr:    0.0000
     atom:    7    charge:   14.3849    magn:    1.4898    constr:    0.0000
     atom:    8    charge:   14.3808    magn:   -1.4935    constr:    0.0000
     atom:    9    charge:   14.3843    magn:    1.4937    constr:    0.0000
     atom:   10    charge:   14.3817    magn:   -1.4914    constr:    0.0000
     atom:   11    charge:   14.3850    magn:    1.4902    constr:    0.0000
     atom:   12    charge:   14.3818    magn:   -1.4916    constr:    0.0000
     atom:   13    charge:   14.3842    magn:    1.4944    constr:    0.0000
     atom:   14    charge:   14.3813    magn:   -1.4948    constr:    0.0000
     atom:   15    charge:   14.3841    magn:    1.4930    constr:    0.0000
     atom:   16    charge:   14.3812    magn:   -1.4919    constr:    0.0000
     atom:   17    charge:   14.3846    magn:    1.4932    constr:    0.0000
     atom:   18    charge:   14.3811    magn:   -1.4916    constr:    0.0000
     atom:   19    charge:   14.3849    magn:    1.4900    constr:    0.0000
     atom:   20    charge:   14.3827    magn:   -1.4867    constr:    0.0000
     atom:   21    charge:   14.3853    magn:    1.4886    constr:    0.0000
     atom:   22    charge:   14.3821    magn:   -1.4885    constr:    0.0000
     atom:   23    charge:   14.3844    magn:    1.4926    constr:    0.0000
     atom:   24    charge:   14.3818    magn:   -1.4892    constr:    0.0000
     atom:   25    charge:   14.3848    magn:    1.4935    constr:    0.0000
     atom:   26    charge:   14.3808    magn:   -1.4949    constr:    0.0000
     atom:   27    charge:   14.3847    magn:    1.4918    constr:    0.0000
     atom:   28    charge:   14.3811    magn:   -1.4943    constr:    0.0000
     atom:   29    charge:   14.3851    magn:    1.4916    constr:    0.0000
     atom:   30    charge:   14.3811    magn:   -1.4935    constr:    0.0000
     atom:   31    charge:   14.3835    magn:    1.4968    constr:    0.0000
     atom:   32    charge:   14.3809    magn:   -1.4926    constr:    0.0000

     total cpu time spent up to now is    20921.6 secs

     End of self-consistent calculation

     Number of k-points >= 100: set verbosity='high' to print the bands.

     the Fermi energy is    20.1183 ev

!    total energy              =  -10536.25049935 Ry

     total all-electron energy =    -81457.739557 Ry
     estimated scf accuracy    <          9.0E-09 Ry
     smearing contrib. (-TS)   =       0.01441734 Ry
     internal energy E=F+TS    =  -10536.26491669 Ry

     The total energy is F=E-TS. E is the sum of the following terms:
     one-electron contribution =   -3292.38926505 Ry
     hartree contribution      =    1996.51621188 Ry
     xc contribution           =    -886.95648215 Ry
     ewald contribution        =   -5703.87465397 Ry
     one-center paw contrib.   =   -2649.56072740 Ry

     total magnetization       =    -0.00 Bohr mag/cell
     absolute magnetization    =    49.54 Bohr mag/cell

     convergence has been achieved in  37 iterations

     Forces acting on atoms (cartesian axes, Ry/au):

     atom    1 type  1   force =    -0.00094316    0.00146470   -0.00000336
     atom    2 type  2   force =     0.00010001    0.00019722    0.00039499
     atom    3 type  1   force =    -0.00072294    0.00016052    0.00010666
     atom    4 type  2   force =     0.00006601   -0.00029167   -0.00025069
     atom    5 type  1   force =     0.00131327    0.00042866   -0.00016999
     atom    6 type  2   force =     0.00019475    0.00033698    0.00000996
     atom    7 type  1   force =     0.00034400   -0.00037793   -0.00013543
     atom    8 type  2   force =    -0.00172509   -0.00107219    0.00042384
     atom    9 type  1   force =    -0.00009004    0.00139076   -0.00049918
     atom   10 type  2   force =     0.00071455   -0.00023827   -0.00130137
     atom   11 type  1   force =     0.00035059    0.00057067    0.00074827
     atom   12 type  2   force =    -0.00010297   -0.00018958   -0.00101318
     atom   13 type  1   force =    -0.00021726   -0.00041268   -0.00004046
     atom   14 type  2   force =     0.00028603   -0.00046058    0.00025019
     atom   15 type  1   force =    -0.00072351   -0.00043443    0.00081634
     atom   16 type  2   force =    -0.00051496   -0.00073059   -0.00088461
     atom   17 type  1   force =    -0.00012465    0.00027377   -0.00020947
     atom   18 type  2   force =     0.00027306   -0.00058732   -0.00075395
     atom   19 type  1   force =    -0.00092825   -0.00036121   -0.00015483
     atom   20 type  2   force =    -0.00001466   -0.00084704   -0.00098766
     atom   21 type  1   force =     0.00070283   -0.00093400   -0.00023546
     atom   22 type  2   force =     0.00127275    0.00099399    0.00070883
     atom   23 type  1   force =    -0.00004800    0.00046219   -0.00022179
     atom   24 type  2   force =     0.00001230   -0.00004090   -0.00003126
     atom   25 type  1   force =     0.00004197    0.00022853   -0.00088342
     atom   26 type  2   force =     0.00045068   -0.00100903    0.00148695
     atom   27 type  1   force =     0.00018683    0.00167194    0.00018103
     atom   28 type  2   force =     0.00083055   -0.00014335    0.00044456
     atom   29 type  1   force =    -0.00065124    0.00016354    0.00011686
     atom   30 type  2   force =    -0.00014327   -0.00054735    0.00143268
     atom   31 type  1   force =     0.00062668    0.00044094    0.00010727
     atom   32 type  2   force =    -0.00081684   -0.00010630    0.00054768

     Total force =     0.006464     Total SCF correction =     0.000279


     Computing stress (Cartesian axis) and pressure

          total   stress  (Ry/bohr**3)                   (kbar)     P=       -0.03
  -0.00000055   0.00000000  -0.00000000           -0.08        0.00       -0.00
   0.00000000   0.00000070  -0.00000000            0.00        0.10       -0.00
  -0.00000000  -0.00000000  -0.00000071           -0.00       -0.00       -0.10


     Writing output data file /scratch/bxp912/fescf_0014.save/
 
     init_run     :    164.01s CPU    167.60s WALL (       1 calls)
     electrons    :  20511.25s CPU  20750.97s WALL (       1 calls)
     forces       :    103.75s CPU    104.38s WALL (       1 calls)
     stress       :    488.24s CPU    491.39s WALL (       1 calls)

     Called by init_run:
     wfcinit      :    163.34s CPU    166.75s WALL (       1 calls)
     potinit      :      0.31s CPU      0.34s WALL (       1 calls)
     hinit0       :      0.16s CPU      0.26s WALL (       1 calls)

     Called by electrons:
     c_bands      :  17991.41s CPU  18194.26s WALL (      37 calls)
     sum_band     :   2510.29s CPU   2546.22s WALL (      37 calls)
     v_of_rho     :      0.83s CPU      0.88s WALL (      38 calls)
     newd         :      1.39s CPU      1.84s WALL (      38 calls)
     PAW_pot      :      6.72s CPU      7.09s WALL (      38 calls)
     mix_rho      :      0.66s CPU      0.74s WALL (      37 calls)

     Called by c_bands:
     init_us_2    :     93.75s CPU     94.94s WALL (   56210 calls)
     cegterg      :  17659.83s CPU  17857.53s WALL (   27010 calls)

     Called by *egterg:
     cdiaghg      :   2230.59s CPU   2242.48s WALL (   94801 calls)
     h_psi        :   9708.17s CPU   9856.07s WALL (   95531 calls)
     s_psi        :    695.30s CPU    700.17s WALL (   95531 calls)
     g_psi        :     15.70s CPU     15.91s WALL (   67791 calls)

     Called by h_psi:
     h_psi:calbec :   1437.12s CPU   1446.70s WALL (   95531 calls)
     vloc_psi     :   7547.55s CPU   7678.65s WALL (   95531 calls)
     add_vuspsi   :    682.27s CPU    688.91s WALL (   95531 calls)

     General routines
     calbec       :   2359.67s CPU   2375.01s WALL (  126191 calls)
     fft          :      0.85s CPU      0.88s WALL (     988 calls)
     ffts         :      0.34s CPU      0.35s WALL (     872 calls)
     fftw         :   9078.01s CPU   9234.47s WALL (47318272 calls)
     interpolate  :      0.12s CPU      0.13s WALL (      76 calls)
 
     Parallel routines
     fft_scatt_xy :    377.50s CPU    384.41s WALL (47320132 calls)
     fft_scatt_yz :   7795.50s CPU   7930.93s WALL (47320132 calls)
 
     PWSCF        :      5h56m CPU      6h 1m WALL

 
   This run was terminated on:  15:29:39  13Mar2022            

=------------------------------------------------------------------------------=
   JOB DONE.
=------------------------------------------------------------------------------=
