
     Program PWSCF v.6.7MaX starts on  6Mar2022 at 14:22:11 

     This program is part of the open-source Quantum ESPRESSO suite
     for quantum simulation of materials; please cite
         "P. Giannozzi et al., J. Phys.:Condens. Matter 21 395502 (2009);
         "P. Giannozzi et al., J. Phys.:Condens. Matter 29 465901 (2017);
          URL http://www.quantum-espresso.org", 
     in publications or presentations arising from this work. More details at
     http://www.quantum-espresso.org/quote

     Parallel version (MPI & OpenMP), running on      72 processor cores
     Number of MPI processes:                72
     Threads/MPI process:                     1

     MPI processes distributed on     1 nodes
     R & G space division:  proc/nbgrp/npool/nimage =      72
     Reading input from relaxed.in
Warning: card &CELL ignored
Warning: card CELL_DYNAMICS = 'BFGS', ignored
Warning: card CELL_FACTOR = 2.0, ignored
Warning: card PRESS = 0.0, ignored
Warning: card / ignored

     Current dimensions of program PWSCF are:
     Max number of different atomic species (ntypx) = 10
     Max number of k-points (npk) =  40000
     Max angular momentum in pseudopotentials (lmaxx) =  3
     file Fe.pbe-spn-kjpaw_psl.1.0.0.UPF: wavefunction(s)  3P 3D renormalized
     file Fe.pbe-spn-kjpaw_psl.1.0.0.UPF: wavefunction(s)  3P 3D renormalized

     Subspace diagonalization in iterative solution of the eigenvalue problem:
     one sub-group per band group will be used
     ELPA distributed-memory algorithm (size of sub-group:  8*  8 procs)

     Found symmetry operation: I + (  0.2500  0.0000  0.2500)
     This is a supercell, fractional translations are disabled
     Message from routine setup:
     using ibrav=0 with symmetry is DISCOURAGED, use correct ibrav instead
 
     Parallelization info
     --------------------
     sticks:   dense  smooth     PW     G-vecs:    dense   smooth      PW
     Min          83      55     15                 4773     2563     367
     Max          84      56     16                 4778     2568     371
     Sum        6035    3993   1103               343891   184641   26583
 


     bravais-lattice index     =            0
     lattice parameter (alat)  =      12.9382  a.u.
     unit-cell volume          =    2283.7616 (a.u.)^3
     number of atoms/cell      =           32
     number of atomic types    =            2
     number of electrons       =       512.00
     number of Kohn-Sham states=          320
     kinetic-energy cutoff     =      71.0000  Ry
     charge density cutoff     =     430.0000  Ry
     scf convergence threshold =      1.0E-08
     mixing beta               =       0.3000
     number of iterations used =           10  plain     mixing
     Exchange-correlation= SLA  PW   PBX  PBC
                           (   1   4   3   4   0   0   0)

     celldm(1)=  12.938150  celldm(2)=   0.000000  celldm(3)=   0.000000
     celldm(4)=   0.000000  celldm(5)=   0.000000  celldm(6)=   0.000000

     crystal axes: (cart. coord. in units of alat)
               a(1) = (   1.000000   0.000000   0.000000 )  
               a(2) = (   0.000000   1.054470   0.000000 )  
               a(3) = (   0.000000   0.000000   1.000000 )  

     reciprocal axes: (cart. coord. in units 2 pi/alat)
               b(1) = (  1.000000  0.000000  0.000000 )  
               b(2) = (  0.000000  0.948344  0.000000 )  
               b(3) = (  0.000000  0.000000  1.000000 )  


     PseudoPot. # 1 for Fe read from file:
     /rds/homes/b/bxp912/pp/Fe.pbe-spn-kjpaw_psl.1.0.0.UPF
     MD5 check sum: 42f43b795421b414b0dc916aa790dbcb
     Pseudo is Projector augmented-wave + core cor, Zval = 16.0
     Generated using &quot;atomic&quot; code by A. Dal Corso  v.6.3
     Shape of augmentation charge: PSQ
     Using radial grid of 1191 points,  6 beta functions with: 
                l(1) =   0
                l(2) =   0
                l(3) =   1
                l(4) =   1
                l(5) =   2
                l(6) =   2
     Q(r) pseudized with 0 coefficients 


     PseudoPot. # 2 for Fe read from file:
     /rds/homes/b/bxp912/pp/Fe.pbe-spn-kjpaw_psl.1.0.0.UPF
     MD5 check sum: 42f43b795421b414b0dc916aa790dbcb
     Pseudo is Projector augmented-wave + core cor, Zval = 16.0
     Generated using &quot;atomic&quot; code by A. Dal Corso  v.6.3
     Shape of augmentation charge: PSQ
     Using radial grid of 1191 points,  6 beta functions with: 
                l(1) =   0
                l(2) =   0
                l(3) =   1
                l(4) =   1
                l(5) =   2
                l(6) =   2
     Q(r) pseudized with 0 coefficients 


     atomic species   valence    mass     pseudopotential
        Fe1           16.00    55.84500     Fe( 1.00)
        Fe2           16.00    55.84500     Fe( 1.00)

     Starting magnetic structure 
     atomic species   magnetization
        Fe1          0.100
        Fe2         -0.100

     16 Sym. Ops., with inversion, found



   Cartesian axes

     site n.     atom                  positions (alat units)
         1           Fe1 tau(   1) = (   0.0000000   0.0000000   0.0000000  )
         2           Fe2 tau(   2) = (   0.2500000   0.2636175   0.0000000  )
         3           Fe1 tau(   3) = (   0.2500000   0.0000000   0.2500000  )
         4           Fe2 tau(   4) = (   0.0000000   0.2636175   0.2500000  )
         5           Fe1 tau(   5) = (   0.0000000   0.0000000   0.5000000  )
         6           Fe2 tau(   6) = (   0.2500000   0.2636175   0.5000000  )
         7           Fe1 tau(   7) = (   0.2500000   0.0000000   0.7500000  )
         8           Fe2 tau(   8) = (   0.0000000   0.2636175   0.7500000  )
         9           Fe1 tau(   9) = (   0.0000000   0.5272350   0.0000000  )
        10           Fe2 tau(  10) = (   0.2500000   0.7908525   0.0000000  )
        11           Fe1 tau(  11) = (   0.2500000   0.5272350   0.2500000  )
        12           Fe2 tau(  12) = (   0.0000000   0.7908525   0.2500000  )
        13           Fe1 tau(  13) = (   0.0000000   0.5272350   0.5000000  )
        14           Fe2 tau(  14) = (   0.2500000   0.7908525   0.5000000  )
        15           Fe1 tau(  15) = (   0.2500000   0.5272350   0.7500000  )
        16           Fe2 tau(  16) = (   0.0000000   0.7908525   0.7500000  )
        17           Fe1 tau(  17) = (   0.5000000   0.0000000   0.0000000  )
        18           Fe2 tau(  18) = (   0.7500000   0.2636175   0.0000000  )
        19           Fe1 tau(  19) = (   0.7500000   0.0000000   0.2500000  )
        20           Fe2 tau(  20) = (   0.5000000   0.2636175   0.2500000  )
        21           Fe1 tau(  21) = (   0.5000000   0.0000000   0.5000000  )
        22           Fe2 tau(  22) = (   0.7500000   0.2636175   0.5000000  )
        23           Fe1 tau(  23) = (   0.7500000   0.0000000   0.7500000  )
        24           Fe2 tau(  24) = (   0.5000000   0.2636175   0.7500000  )
        25           Fe1 tau(  25) = (   0.5000000   0.5272350   0.0000000  )
        26           Fe2 tau(  26) = (   0.7500000   0.7908525   0.0000000  )
        27           Fe1 tau(  27) = (   0.7500000   0.5272350   0.2500000  )
        28           Fe2 tau(  28) = (   0.5000000   0.7908525   0.2500000  )
        29           Fe1 tau(  29) = (   0.5000000   0.5272350   0.5000000  )
        30           Fe2 tau(  30) = (   0.7500000   0.7908525   0.5000000  )
        31           Fe1 tau(  31) = (   0.7500000   0.5272350   0.7500000  )
        32           Fe2 tau(  32) = (   0.5000000   0.7908525   0.7500000  )

     number of k points=    75  Marzari-Vanderbilt smearing, width (Ry)=  0.0400
                       cart. coord. in units 2pi/alat
        k(    1) = (   0.0555556   0.0526858   0.0555556), wk =   0.0109739
        k(    2) = (   0.0555556   0.0526858   0.1666667), wk =   0.0219479
        k(    3) = (   0.0555556   0.0526858   0.2777778), wk =   0.0219479
        k(    4) = (   0.0555556   0.0526858   0.3888889), wk =   0.0219479
        k(    5) = (   0.0555556   0.0526858  -0.5000000), wk =   0.0109739
        k(    6) = (   0.0555556   0.1580573   0.0555556), wk =   0.0109739
        k(    7) = (   0.0555556   0.1580573   0.1666667), wk =   0.0219479
        k(    8) = (   0.0555556   0.1580573   0.2777778), wk =   0.0219479
        k(    9) = (   0.0555556   0.1580573   0.3888889), wk =   0.0219479
        k(   10) = (   0.0555556   0.1580573  -0.5000000), wk =   0.0109739
        k(   11) = (   0.0555556   0.2634288   0.0555556), wk =   0.0109739
        k(   12) = (   0.0555556   0.2634288   0.1666667), wk =   0.0219479
        k(   13) = (   0.0555556   0.2634288   0.2777778), wk =   0.0219479
        k(   14) = (   0.0555556   0.2634288   0.3888889), wk =   0.0219479
        k(   15) = (   0.0555556   0.2634288  -0.5000000), wk =   0.0109739
        k(   16) = (   0.0555556   0.3688003   0.0555556), wk =   0.0109739
        k(   17) = (   0.0555556   0.3688003   0.1666667), wk =   0.0219479
        k(   18) = (   0.0555556   0.3688003   0.2777778), wk =   0.0219479
        k(   19) = (   0.0555556   0.3688003   0.3888889), wk =   0.0219479
        k(   20) = (   0.0555556   0.3688003  -0.5000000), wk =   0.0109739
        k(   21) = (   0.0555556  -0.4741719   0.0555556), wk =   0.0054870
        k(   22) = (   0.0555556  -0.4741719   0.1666667), wk =   0.0109739
        k(   23) = (   0.0555556  -0.4741719   0.2777778), wk =   0.0109739
        k(   24) = (   0.0555556  -0.4741719   0.3888889), wk =   0.0109739
        k(   25) = (   0.0555556  -0.4741719  -0.5000000), wk =   0.0054870
        k(   26) = (   0.1666667   0.0526858   0.1666667), wk =   0.0109739
        k(   27) = (   0.1666667   0.0526858   0.2777778), wk =   0.0219479
        k(   28) = (   0.1666667   0.0526858   0.3888889), wk =   0.0219479
        k(   29) = (   0.1666667   0.0526858  -0.5000000), wk =   0.0109739
        k(   30) = (   0.1666667   0.1580573   0.1666667), wk =   0.0109739
        k(   31) = (   0.1666667   0.1580573   0.2777778), wk =   0.0219479
        k(   32) = (   0.1666667   0.1580573   0.3888889), wk =   0.0219479
        k(   33) = (   0.1666667   0.1580573  -0.5000000), wk =   0.0109739
        k(   34) = (   0.1666667   0.2634288   0.1666667), wk =   0.0109739
        k(   35) = (   0.1666667   0.2634288   0.2777778), wk =   0.0219479
        k(   36) = (   0.1666667   0.2634288   0.3888889), wk =   0.0219479
        k(   37) = (   0.1666667   0.2634288  -0.5000000), wk =   0.0109739
        k(   38) = (   0.1666667   0.3688003   0.1666667), wk =   0.0109739
        k(   39) = (   0.1666667   0.3688003   0.2777778), wk =   0.0219479
        k(   40) = (   0.1666667   0.3688003   0.3888889), wk =   0.0219479
        k(   41) = (   0.1666667   0.3688003  -0.5000000), wk =   0.0109739
        k(   42) = (   0.1666667  -0.4741719   0.1666667), wk =   0.0054870
        k(   43) = (   0.1666667  -0.4741719   0.2777778), wk =   0.0109739
        k(   44) = (   0.1666667  -0.4741719   0.3888889), wk =   0.0109739
        k(   45) = (   0.1666667  -0.4741719  -0.5000000), wk =   0.0054870
        k(   46) = (   0.2777778   0.0526858   0.2777778), wk =   0.0109739
        k(   47) = (   0.2777778   0.0526858   0.3888889), wk =   0.0219479
        k(   48) = (   0.2777778   0.0526858  -0.5000000), wk =   0.0109739
        k(   49) = (   0.2777778   0.1580573   0.2777778), wk =   0.0109739
        k(   50) = (   0.2777778   0.1580573   0.3888889), wk =   0.0219479
        k(   51) = (   0.2777778   0.1580573  -0.5000000), wk =   0.0109739
        k(   52) = (   0.2777778   0.2634288   0.2777778), wk =   0.0109739
        k(   53) = (   0.2777778   0.2634288   0.3888889), wk =   0.0219479
        k(   54) = (   0.2777778   0.2634288  -0.5000000), wk =   0.0109739
        k(   55) = (   0.2777778   0.3688003   0.2777778), wk =   0.0109739
        k(   56) = (   0.2777778   0.3688003   0.3888889), wk =   0.0219479
        k(   57) = (   0.2777778   0.3688003  -0.5000000), wk =   0.0109739
        k(   58) = (   0.2777778  -0.4741719   0.2777778), wk =   0.0054870
        k(   59) = (   0.2777778  -0.4741719   0.3888889), wk =   0.0109739
        k(   60) = (   0.2777778  -0.4741719  -0.5000000), wk =   0.0054870
        k(   61) = (   0.3888889   0.0526858   0.3888889), wk =   0.0109739
        k(   62) = (   0.3888889   0.0526858  -0.5000000), wk =   0.0109739
        k(   63) = (   0.3888889   0.1580573   0.3888889), wk =   0.0109739
        k(   64) = (   0.3888889   0.1580573  -0.5000000), wk =   0.0109739
        k(   65) = (   0.3888889   0.2634288   0.3888889), wk =   0.0109739
        k(   66) = (   0.3888889   0.2634288  -0.5000000), wk =   0.0109739
        k(   67) = (   0.3888889   0.3688003   0.3888889), wk =   0.0109739
        k(   68) = (   0.3888889   0.3688003  -0.5000000), wk =   0.0109739
        k(   69) = (   0.3888889  -0.4741719   0.3888889), wk =   0.0054870
        k(   70) = (   0.3888889  -0.4741719  -0.5000000), wk =   0.0054870
        k(   71) = (  -0.5000000   0.0526858  -0.5000000), wk =   0.0027435
        k(   72) = (  -0.5000000   0.1580573  -0.5000000), wk =   0.0027435
        k(   73) = (  -0.5000000   0.2634288  -0.5000000), wk =   0.0027435
        k(   74) = (  -0.5000000   0.3688003  -0.5000000), wk =   0.0027435
        k(   75) = (  -0.5000000  -0.4741719  -0.5000000), wk =   0.0013717

     Dense  grid:   343891 G-vectors     FFT dimensions: (  90,  96,  90)

     Smooth grid:   184641 G-vectors     FFT dimensions: (  72,  75,  72)

     Estimated max dynamical RAM per process >     265.19 MB

     Estimated total dynamical RAM >      18.65 GB

     Check: negative core charge=   -0.000006
     Generating pointlists ...
     new r_m :   0.1458 (alat units)  1.8869 (a.u.) for type    1
     new r_m :   0.1458 (alat units)  1.8869 (a.u.) for type    2

     Initial potential from superposition of free atoms

     starting charge  511.98600, renormalised to  512.00000
     Starting wfcs are  320 randomized atomic wfcs
     Checking if some PAW data can be deallocated... 

     total cpu time spent up to now is       38.1 secs

     Self-consistent Calculation

     iteration #  1     ecut=    71.00 Ry     beta= 0.30
     Davidson diagonalization with overlap
     ethr =  1.00E-02,  avg # of iterations =  5.3

     Threshold (ethr) on eigenvalues was too large:
     Diagonalizing with lowered threshold

     Davidson diagonalization with overlap
     ethr =  2.65E-04,  avg # of iterations =  5.2

     total cpu time spent up to now is      296.6 secs

     total energy              =  -10535.86007564 Ry
     estimated scf accuracy    <       1.71822940 Ry

     total magnetization       =     0.11 Bohr mag/cell
     absolute magnetization    =    44.33 Bohr mag/cell

     iteration #  2     ecut=    71.00 Ry     beta= 0.30
     Davidson diagonalization with overlap
     ethr =  3.36E-04,  avg # of iterations =  2.1

     total cpu time spent up to now is      416.6 secs

     total energy              =  -10536.11365876 Ry
     estimated scf accuracy    <       0.23567707 Ry

     total magnetization       =    -0.15 Bohr mag/cell
     absolute magnetization    =    46.33 Bohr mag/cell

     iteration #  3     ecut=    71.00 Ry     beta= 0.30
     Davidson diagonalization with overlap
     c_bands:  1 eigenvalues not converged
     ethr =  4.60E-05,  avg # of iterations =  4.3

     total cpu time spent up to now is      547.5 secs

     total energy              =  -10535.94624098 Ry
     estimated scf accuracy    <       7.55054710 Ry

     total magnetization       =    -0.22 Bohr mag/cell
     absolute magnetization    =    45.54 Bohr mag/cell

     iteration #  4     ecut=    71.00 Ry     beta= 0.30
     Davidson diagonalization with overlap
     ethr =  4.60E-05,  avg # of iterations =  2.3

     total cpu time spent up to now is      655.2 secs

     total energy              =  -10536.16386819 Ry
     estimated scf accuracy    <       0.43864166 Ry

     total magnetization       =     0.04 Bohr mag/cell
     absolute magnetization    =    46.54 Bohr mag/cell

     iteration #  5     ecut=    71.00 Ry     beta= 0.30
     Davidson diagonalization with overlap
     ethr =  4.60E-05,  avg # of iterations =  1.3

     total cpu time spent up to now is      749.2 secs

     total energy              =  -10536.19679691 Ry
     estimated scf accuracy    <       0.23185738 Ry

     total magnetization       =    -0.12 Bohr mag/cell
     absolute magnetization    =    46.60 Bohr mag/cell

     iteration #  6     ecut=    71.00 Ry     beta= 0.30
     Davidson diagonalization with overlap
     ethr =  4.53E-05,  avg # of iterations =  2.1

     total cpu time spent up to now is      853.7 secs

     total energy              =  -10536.20815248 Ry
     estimated scf accuracy    <       0.30679969 Ry

     total magnetization       =    -0.48 Bohr mag/cell
     absolute magnetization    =    46.95 Bohr mag/cell

     iteration #  7     ecut=    71.00 Ry     beta= 0.30
     Davidson diagonalization with overlap
     ethr =  4.53E-05,  avg # of iterations =  1.0

     total cpu time spent up to now is      945.7 secs

     total energy              =  -10536.22502912 Ry
     estimated scf accuracy    <       0.03092102 Ry

     total magnetization       =    -0.05 Bohr mag/cell
     absolute magnetization    =    47.14 Bohr mag/cell

     iteration #  8     ecut=    71.00 Ry     beta= 0.30
     Davidson diagonalization with overlap
     c_bands:  1 eigenvalues not converged
     ethr =  6.04E-06,  avg # of iterations =  4.0

     total cpu time spent up to now is     1056.4 secs

     total energy              =  -10536.23440213 Ry
     estimated scf accuracy    <       0.33953474 Ry

     total magnetization       =     0.19 Bohr mag/cell
     absolute magnetization    =    47.39 Bohr mag/cell

     iteration #  9     ecut=    71.00 Ry     beta= 0.30
     Davidson diagonalization with overlap
     c_bands:  1 eigenvalues not converged
     ethr =  6.04E-06,  avg # of iterations =  3.1

     total cpu time spent up to now is     1186.1 secs

     total energy              =  -10536.25376008 Ry
     estimated scf accuracy    <       0.19592570 Ry

     total magnetization       =     0.27 Bohr mag/cell
     absolute magnetization    =    48.11 Bohr mag/cell

     iteration # 10     ecut=    71.00 Ry     beta= 0.30
     Davidson diagonalization with overlap
     ethr =  6.04E-06,  avg # of iterations =  1.9

     total cpu time spent up to now is     1287.1 secs

     total energy              =  -10536.24433640 Ry
     estimated scf accuracy    <       0.07179503 Ry

     total magnetization       =    -0.04 Bohr mag/cell
     absolute magnetization    =    48.33 Bohr mag/cell

     iteration # 11     ecut=    71.00 Ry     beta= 0.30
     Davidson diagonalization with overlap
     ethr =  6.04E-06,  avg # of iterations =  2.0

     total cpu time spent up to now is     1406.1 secs

     total energy              =  -10536.24706685 Ry
     estimated scf accuracy    <       0.03520475 Ry

     total magnetization       =    -0.19 Bohr mag/cell
     absolute magnetization    =    48.45 Bohr mag/cell

     iteration # 12     ecut=    71.00 Ry     beta= 0.30
     Davidson diagonalization with overlap
     ethr =  6.04E-06,  avg # of iterations =  2.0

     total cpu time spent up to now is     1510.1 secs

     total energy              =  -10536.24954291 Ry
     estimated scf accuracy    <       0.00103645 Ry

     total magnetization       =    -0.03 Bohr mag/cell
     absolute magnetization    =    48.50 Bohr mag/cell

     iteration # 13     ecut=    71.00 Ry     beta= 0.30
     Davidson diagonalization with overlap
     c_bands:  1 eigenvalues not converged
     ethr =  2.02E-07,  avg # of iterations =  3.4

     total cpu time spent up to now is     1636.2 secs

     total energy              =  -10536.24952553 Ry
     estimated scf accuracy    <       0.01045455 Ry

     total magnetization       =     0.08 Bohr mag/cell
     absolute magnetization    =    48.61 Bohr mag/cell

     iteration # 14     ecut=    71.00 Ry     beta= 0.30
     Davidson diagonalization with overlap
     ethr =  2.02E-07,  avg # of iterations =  2.1

     total cpu time spent up to now is     1751.5 secs

     total energy              =  -10536.25019406 Ry
     estimated scf accuracy    <       0.00042703 Ry

     total magnetization       =    -0.02 Bohr mag/cell
     absolute magnetization    =    48.67 Bohr mag/cell

     iteration # 15     ecut=    71.00 Ry     beta= 0.30
     Davidson diagonalization with overlap
     ethr =  8.34E-08,  avg # of iterations =  2.0

     total cpu time spent up to now is     1858.6 secs

     total energy              =  -10536.25019318 Ry
     estimated scf accuracy    <       0.00117520 Ry

     total magnetization       =    -0.02 Bohr mag/cell
     absolute magnetization    =    48.88 Bohr mag/cell

     iteration # 16     ecut=    71.00 Ry     beta= 0.30
     Davidson diagonalization with overlap
     ethr =  8.34E-08,  avg # of iterations =  1.3

     total cpu time spent up to now is     1954.0 secs

     total energy              =  -10536.25020346 Ry
     estimated scf accuracy    <       0.00154931 Ry

     total magnetization       =    -0.01 Bohr mag/cell
     absolute magnetization    =    48.88 Bohr mag/cell

     iteration # 17     ecut=    71.00 Ry     beta= 0.30
     Davidson diagonalization with overlap
     ethr =  8.34E-08,  avg # of iterations =  1.3

     total cpu time spent up to now is     2048.3 secs

     total energy              =  -10536.25031940 Ry
     estimated scf accuracy    <       0.00296286 Ry

     total magnetization       =    -0.01 Bohr mag/cell
     absolute magnetization    =    48.89 Bohr mag/cell

     iteration # 18     ecut=    71.00 Ry     beta= 0.30
     Davidson diagonalization with overlap
     ethr =  8.34E-08,  avg # of iterations =  2.1

     total cpu time spent up to now is     2154.5 secs

     total energy              =  -10536.25039064 Ry
     estimated scf accuracy    <       0.00220829 Ry

     total magnetization       =    -0.03 Bohr mag/cell
     absolute magnetization    =    49.09 Bohr mag/cell

     iteration # 19     ecut=    71.00 Ry     beta= 0.30
     Davidson diagonalization with overlap
     ethr =  8.34E-08,  avg # of iterations =  2.0

     total cpu time spent up to now is     2260.0 secs

     total energy              =  -10536.25051072 Ry
     estimated scf accuracy    <       0.00055380 Ry

     total magnetization       =     0.01 Bohr mag/cell
     absolute magnetization    =    49.26 Bohr mag/cell

     iteration # 20     ecut=    71.00 Ry     beta= 0.30
     Davidson diagonalization with overlap
     ethr =  8.34E-08,  avg # of iterations =  1.0

     total cpu time spent up to now is     2352.1 secs

     total energy              =  -10536.25052048 Ry
     estimated scf accuracy    <       0.00026937 Ry

     total magnetization       =    -0.02 Bohr mag/cell
     absolute magnetization    =    49.30 Bohr mag/cell

     iteration # 21     ecut=    71.00 Ry     beta= 0.30
     Davidson diagonalization with overlap
     ethr =  5.26E-08,  avg # of iterations =  1.1

     total cpu time spent up to now is     2444.9 secs

     total energy              =  -10536.25048957 Ry
     estimated scf accuracy    <       0.00193325 Ry

     total magnetization       =    -0.01 Bohr mag/cell
     absolute magnetization    =    49.31 Bohr mag/cell

     iteration # 22     ecut=    71.00 Ry     beta= 0.30
     Davidson diagonalization with overlap
     ethr =  5.26E-08,  avg # of iterations =  2.0

     total cpu time spent up to now is     2547.6 secs

     total energy              =  -10536.25050405 Ry
     estimated scf accuracy    <       0.00135111 Ry

     total magnetization       =     0.02 Bohr mag/cell
     absolute magnetization    =    49.33 Bohr mag/cell

     iteration # 23     ecut=    71.00 Ry     beta= 0.30
     Davidson diagonalization with overlap
     ethr =  5.26E-08,  avg # of iterations =  1.2

     total cpu time spent up to now is     2641.6 secs

     total energy              =  -10536.25055871 Ry
     estimated scf accuracy    <       0.00003684 Ry

     total magnetization       =    -0.01 Bohr mag/cell
     absolute magnetization    =    49.41 Bohr mag/cell

     iteration # 24     ecut=    71.00 Ry     beta= 0.30
     Davidson diagonalization with overlap
     ethr =  7.20E-09,  avg # of iterations =  2.0

     total cpu time spent up to now is     2747.1 secs

     total energy              =  -10536.25056341 Ry
     estimated scf accuracy    <       0.00013486 Ry

     total magnetization       =     0.00 Bohr mag/cell
     absolute magnetization    =    49.42 Bohr mag/cell

     iteration # 25     ecut=    71.00 Ry     beta= 0.30
     Davidson diagonalization with overlap
     ethr =  7.20E-09,  avg # of iterations =  1.6

     total cpu time spent up to now is     2846.6 secs

     total energy              =  -10536.25057379 Ry
     estimated scf accuracy    <       0.00006017 Ry

     total magnetization       =     0.00 Bohr mag/cell
     absolute magnetization    =    49.47 Bohr mag/cell

     iteration # 26     ecut=    71.00 Ry     beta= 0.30
     Davidson diagonalization with overlap
     ethr =  7.20E-09,  avg # of iterations =  1.5

     total cpu time spent up to now is     2944.2 secs

     total energy              =  -10536.25057995 Ry
     estimated scf accuracy    <       0.00000408 Ry

     total magnetization       =    -0.01 Bohr mag/cell
     absolute magnetization    =    49.50 Bohr mag/cell

     iteration # 27     ecut=    71.00 Ry     beta= 0.30
     Davidson diagonalization with overlap
     ethr =  7.98E-10,  avg # of iterations =  3.5

     total cpu time spent up to now is     3057.1 secs

     total energy              =  -10536.25058063 Ry
     estimated scf accuracy    <       0.00000414 Ry

     total magnetization       =    -0.00 Bohr mag/cell
     absolute magnetization    =    49.51 Bohr mag/cell

     iteration # 28     ecut=    71.00 Ry     beta= 0.30
     Davidson diagonalization with overlap
     ethr =  7.98E-10,  avg # of iterations =  1.9

     total cpu time spent up to now is     3159.0 secs

     total energy              =  -10536.25058088 Ry
     estimated scf accuracy    <       0.00001252 Ry

     total magnetization       =    -0.00 Bohr mag/cell
     absolute magnetization    =    49.51 Bohr mag/cell

     iteration # 29     ecut=    71.00 Ry     beta= 0.30
     Davidson diagonalization with overlap
     ethr =  7.98E-10,  avg # of iterations =  1.8

     total cpu time spent up to now is     3260.5 secs

     total energy              =  -10536.25058083 Ry
     estimated scf accuracy    <       0.00002697 Ry

     total magnetization       =    -0.00 Bohr mag/cell
     absolute magnetization    =    49.52 Bohr mag/cell

     iteration # 30     ecut=    71.00 Ry     beta= 0.30
     Davidson diagonalization with overlap
     ethr =  7.98E-10,  avg # of iterations =  1.2

     total cpu time spent up to now is     3354.4 secs

     total energy              =  -10536.25058152 Ry
     estimated scf accuracy    <       0.00000869 Ry

     total magnetization       =    -0.00 Bohr mag/cell
     absolute magnetization    =    49.52 Bohr mag/cell

     iteration # 31     ecut=    71.00 Ry     beta= 0.30
     Davidson diagonalization with overlap
     ethr =  7.98E-10,  avg # of iterations =  1.0

     total cpu time spent up to now is     3446.5 secs

     total energy              =  -10536.25058185 Ry
     estimated scf accuracy    <       0.00000112 Ry

     total magnetization       =    -0.00 Bohr mag/cell
     absolute magnetization    =    49.53 Bohr mag/cell

     iteration # 32     ecut=    71.00 Ry     beta= 0.30
     Davidson diagonalization with overlap
     ethr =  2.19E-10,  avg # of iterations =  2.0

     total cpu time spent up to now is     3551.3 secs

     total energy              =  -10536.25058168 Ry
     estimated scf accuracy    <       0.00000572 Ry

     total magnetization       =    -0.00 Bohr mag/cell
     absolute magnetization    =    49.53 Bohr mag/cell

     iteration # 33     ecut=    71.00 Ry     beta= 0.30
     Davidson diagonalization with overlap
     ethr =  2.19E-10,  avg # of iterations =  1.1

     total cpu time spent up to now is     3644.0 secs

     total energy              =  -10536.25058186 Ry
     estimated scf accuracy    <       0.00000260 Ry

     total magnetization       =    -0.00 Bohr mag/cell
     absolute magnetization    =    49.53 Bohr mag/cell

     iteration # 34     ecut=    71.00 Ry     beta= 0.30
     Davidson diagonalization with overlap
     ethr =  2.19E-10,  avg # of iterations =  1.0

     total cpu time spent up to now is     3735.6 secs

     total energy              =  -10536.25058204 Ry
     estimated scf accuracy    <       0.00000044 Ry

     total magnetization       =    -0.00 Bohr mag/cell
     absolute magnetization    =    49.53 Bohr mag/cell

     iteration # 35     ecut=    71.00 Ry     beta= 0.30
     Davidson diagonalization with overlap
     ethr =  8.54E-11,  avg # of iterations =  1.3

     total cpu time spent up to now is     3830.3 secs

     total energy              =  -10536.25058201 Ry
     estimated scf accuracy    <       0.00000055 Ry

     total magnetization       =    -0.00 Bohr mag/cell
     absolute magnetization    =    49.54 Bohr mag/cell

     iteration # 36     ecut=    71.00 Ry     beta= 0.30
     Davidson diagonalization with overlap
     ethr =  8.54E-11,  avg # of iterations =  1.0

     total cpu time spent up to now is     3922.8 secs

     total energy              =  -10536.25058206 Ry
     estimated scf accuracy    <       0.00000040 Ry

     total magnetization       =    -0.00 Bohr mag/cell
     absolute magnetization    =    49.53 Bohr mag/cell

     iteration # 37     ecut=    71.00 Ry     beta= 0.30
     Davidson diagonalization with overlap
     ethr =  7.73E-11,  avg # of iterations =  1.0

     total cpu time spent up to now is     4014.4 secs

     total energy              =  -10536.25058211 Ry
     estimated scf accuracy    <       0.00000025 Ry

     total magnetization       =    -0.00 Bohr mag/cell
     absolute magnetization    =    49.54 Bohr mag/cell

     iteration # 38     ecut=    71.00 Ry     beta= 0.30
     Davidson diagonalization with overlap
     ethr =  4.83E-11,  avg # of iterations =  1.0

     total cpu time spent up to now is     4106.2 secs

     total energy              =  -10536.25058215 Ry
     estimated scf accuracy    <       0.00000018 Ry

     total magnetization       =    -0.00 Bohr mag/cell
     absolute magnetization    =    49.54 Bohr mag/cell

     iteration # 39     ecut=    71.00 Ry     beta= 0.30
     Davidson diagonalization with overlap
     ethr =  3.44E-11,  avg # of iterations =  1.1

     total cpu time spent up to now is     4198.5 secs

     total energy              =  -10536.25058218 Ry
     estimated scf accuracy    <       0.00000026 Ry

     total magnetization       =    -0.00 Bohr mag/cell
     absolute magnetization    =    49.54 Bohr mag/cell

     iteration # 40     ecut=    71.00 Ry     beta= 0.30
     Davidson diagonalization with overlap
     ethr =  3.44E-11,  avg # of iterations =  1.0

     total cpu time spent up to now is     4291.0 secs

     total energy              =  -10536.25058219 Ry
     estimated scf accuracy    <       0.00000013 Ry

     total magnetization       =    -0.00 Bohr mag/cell
     absolute magnetization    =    49.54 Bohr mag/cell

     iteration # 41     ecut=    71.00 Ry     beta= 0.30
     Davidson diagonalization with overlap
     ethr =  2.63E-11,  avg # of iterations =  1.0

     total cpu time spent up to now is     4382.7 secs

     total energy              =  -10536.25058220 Ry
     estimated scf accuracy    <       0.00000023 Ry

     total magnetization       =    -0.00 Bohr mag/cell
     absolute magnetization    =    49.54 Bohr mag/cell

     iteration # 42     ecut=    71.00 Ry     beta= 0.30
     Davidson diagonalization with overlap
     ethr =  2.63E-11,  avg # of iterations =  1.0

     total cpu time spent up to now is     4474.3 secs

     total energy              =  -10536.25058222 Ry
     estimated scf accuracy    <       0.00000039 Ry

     total magnetization       =    -0.00 Bohr mag/cell
     absolute magnetization    =    49.54 Bohr mag/cell

     iteration # 43     ecut=    71.00 Ry     beta= 0.30
     Davidson diagonalization with overlap
     ethr =  2.63E-11,  avg # of iterations =  1.0

     total cpu time spent up to now is     4565.9 secs

     total energy              =  -10536.25058223 Ry
     estimated scf accuracy    <       0.00000029 Ry

     total magnetization       =    -0.00 Bohr mag/cell
     absolute magnetization    =    49.54 Bohr mag/cell

     iteration # 44     ecut=    71.00 Ry     beta= 0.30
     Davidson diagonalization with overlap
     ethr =  2.63E-11,  avg # of iterations =  1.9

     total cpu time spent up to now is     4670.1 secs

     total energy              =  -10536.25058222 Ry
     estimated scf accuracy    <       0.00000052 Ry

     total magnetization       =    -0.00 Bohr mag/cell
     absolute magnetization    =    49.54 Bohr mag/cell

     iteration # 45     ecut=    71.00 Ry     beta= 0.30
     Davidson diagonalization with overlap
     ethr =  2.63E-11,  avg # of iterations =  1.1

     total cpu time spent up to now is     4763.3 secs

     total energy              =  -10536.25058224 Ry
     estimated scf accuracy    <       0.00000010 Ry

     total magnetization       =    -0.00 Bohr mag/cell
     absolute magnetization    =    49.54 Bohr mag/cell

     iteration # 46     ecut=    71.00 Ry     beta= 0.30
     Davidson diagonalization with overlap
     ethr =  1.86E-11,  avg # of iterations =  1.0

     total cpu time spent up to now is     4855.0 secs

     total energy              =  -10536.25058225 Ry
     estimated scf accuracy    <       0.00000017 Ry

     total magnetization       =    -0.00 Bohr mag/cell
     absolute magnetization    =    49.54 Bohr mag/cell

     iteration # 47     ecut=    71.00 Ry     beta= 0.30
     Davidson diagonalization with overlap
     ethr =  1.86E-11,  avg # of iterations =  1.5

     total cpu time spent up to now is     4953.4 secs

     total energy              =  -10536.25058227 Ry
     estimated scf accuracy    <       0.00000007 Ry

     total magnetization       =    -0.00 Bohr mag/cell
     absolute magnetization    =    49.54 Bohr mag/cell

     iteration # 48     ecut=    71.00 Ry     beta= 0.30
     Davidson diagonalization with overlap
     ethr =  1.28E-11,  avg # of iterations =  1.1

     total cpu time spent up to now is     5046.2 secs

     total energy              =  -10536.25058228 Ry
     estimated scf accuracy    <       0.00000023 Ry

     total magnetization       =    -0.00 Bohr mag/cell
     absolute magnetization    =    49.54 Bohr mag/cell

     iteration # 49     ecut=    71.00 Ry     beta= 0.30
     Davidson diagonalization with overlap
     ethr =  1.28E-11,  avg # of iterations =  1.2

     total cpu time spent up to now is     5141.0 secs

     total energy              =  -10536.25058229 Ry
     estimated scf accuracy    <       0.00000010 Ry

     total magnetization       =    -0.00 Bohr mag/cell
     absolute magnetization    =    49.54 Bohr mag/cell

     iteration # 50     ecut=    71.00 Ry     beta= 0.30
     Davidson diagonalization with overlap
     ethr =  1.28E-11,  avg # of iterations =  1.3

     total cpu time spent up to now is     5235.9 secs

     total energy              =  -10536.25058230 Ry
     estimated scf accuracy    <       0.00000007 Ry

     total magnetization       =    -0.00 Bohr mag/cell
     absolute magnetization    =    49.55 Bohr mag/cell

     iteration # 51     ecut=    71.00 Ry     beta= 0.30
     Davidson diagonalization with overlap
     ethr =  1.28E-11,  avg # of iterations =  1.0

     total cpu time spent up to now is     5328.8 secs

     total energy              =  -10536.25058231 Ry
     estimated scf accuracy    <       0.00000004 Ry

     total magnetization       =    -0.00 Bohr mag/cell
     absolute magnetization    =    49.55 Bohr mag/cell

     iteration # 52     ecut=    71.00 Ry     beta= 0.30
     Davidson diagonalization with overlap
     ethr =  8.12E-12,  avg # of iterations =  1.1

     total cpu time spent up to now is     5421.3 secs

     total energy              =  -10536.25058231 Ry
     estimated scf accuracy    <       0.00000002 Ry

     total magnetization       =    -0.00 Bohr mag/cell
     absolute magnetization    =    49.55 Bohr mag/cell

     iteration # 53     ecut=    71.00 Ry     beta= 0.30
     Davidson diagonalization with overlap
     ethr =  4.74E-12,  avg # of iterations =  1.4

     total cpu time spent up to now is     5517.4 secs

     total energy              =  -10536.25058231 Ry
     estimated scf accuracy    <       0.00000004 Ry

     total magnetization       =    -0.00 Bohr mag/cell
     absolute magnetization    =    49.55 Bohr mag/cell

     iteration # 54     ecut=    71.00 Ry     beta= 0.30
     Davidson diagonalization with overlap
     ethr =  4.74E-12,  avg # of iterations =  1.0

     total cpu time spent up to now is     5609.0 secs

     total energy              =  -10536.25058232 Ry
     estimated scf accuracy    <       0.00000008 Ry

     total magnetization       =    -0.00 Bohr mag/cell
     absolute magnetization    =    49.55 Bohr mag/cell

     iteration # 55     ecut=    71.00 Ry     beta= 0.30
     Davidson diagonalization with overlap
     ethr =  4.74E-12,  avg # of iterations =  2.0

     total cpu time spent up to now is     5714.4 secs

     total energy              =  -10536.25058230 Ry
     estimated scf accuracy    <       0.00000005 Ry

     total magnetization       =     0.00 Bohr mag/cell
     absolute magnetization    =    49.55 Bohr mag/cell

     iteration # 56     ecut=    71.00 Ry     beta= 0.30
     Davidson diagonalization with overlap
     ethr =  4.74E-12,  avg # of iterations =  3.0

     total cpu time spent up to now is     5834.4 secs

     total energy              =  -10536.25058233 Ry
     estimated scf accuracy    <       0.00000001 Ry

     total magnetization       =     0.00 Bohr mag/cell
     absolute magnetization    =    49.55 Bohr mag/cell

     iteration # 57     ecut=    71.00 Ry     beta= 0.30
     Davidson diagonalization with overlap
     ethr =  2.21E-12,  avg # of iterations =  2.3

     total cpu time spent up to now is     5944.2 secs

     total energy              =  -10536.25058233 Ry
     estimated scf accuracy    <       0.00000003 Ry

     total magnetization       =    -0.00 Bohr mag/cell
     absolute magnetization    =    49.55 Bohr mag/cell

     iteration # 58     ecut=    71.00 Ry     beta= 0.30
     Davidson diagonalization with overlap
     ethr =  2.21E-12,  avg # of iterations =  2.7

     total cpu time spent up to now is     6061.4 secs

     total energy              =  -10536.25058235 Ry
     estimated scf accuracy    <       0.00000004 Ry

     total magnetization       =     0.00 Bohr mag/cell
     absolute magnetization    =    49.55 Bohr mag/cell

     iteration # 59     ecut=    71.00 Ry     beta= 0.30
     Davidson diagonalization with overlap
     ethr =  2.21E-12,  avg # of iterations =  1.6

     total cpu time spent up to now is     6160.3 secs

     total energy              =  -10536.25058235 Ry
     estimated scf accuracy    <       0.00000001 Ry

     total magnetization       =     0.00 Bohr mag/cell
     absolute magnetization    =    49.55 Bohr mag/cell

     iteration # 60     ecut=    71.00 Ry     beta= 0.30
     Davidson diagonalization with overlap
     ethr =  2.05E-12,  avg # of iterations =  2.4

     total cpu time spent up to now is     6272.8 secs

     total energy              =  -10536.25058235 Ry
     estimated scf accuracy    <       0.00000005 Ry

     total magnetization       =     0.00 Bohr mag/cell
     absolute magnetization    =    49.55 Bohr mag/cell

     iteration # 61     ecut=    71.00 Ry     beta= 0.30
     Davidson diagonalization with overlap
     ethr =  2.05E-12,  avg # of iterations =  1.8

     total cpu time spent up to now is     6374.1 secs

     total energy              =  -10536.25058234 Ry
     estimated scf accuracy    <       0.00000002 Ry

     total magnetization       =     0.00 Bohr mag/cell
     absolute magnetization    =    49.55 Bohr mag/cell

     iteration # 62     ecut=    71.00 Ry     beta= 0.30
     Davidson diagonalization with overlap
     ethr =  2.05E-12,  avg # of iterations =  2.9

     total cpu time spent up to now is     6497.8 secs

     total energy              =  -10536.25058236 Ry
     estimated scf accuracy    <       0.00000007 Ry

     total magnetization       =     0.00 Bohr mag/cell
     absolute magnetization    =    49.54 Bohr mag/cell

     iteration # 63     ecut=    71.00 Ry     beta= 0.30
     Davidson diagonalization with overlap
     ethr =  2.05E-12,  avg # of iterations =  2.3

     total cpu time spent up to now is     6605.4 secs

     total energy              =  -10536.25058236 Ry
     estimated scf accuracy    <       0.00000002 Ry

     total magnetization       =     0.00 Bohr mag/cell
     absolute magnetization    =    49.55 Bohr mag/cell

     iteration # 64     ecut=    71.00 Ry     beta= 0.30
     Davidson diagonalization with overlap
     ethr =  2.05E-12,  avg # of iterations =  1.6

     total cpu time spent up to now is     6705.8 secs

     total energy              =  -10536.25058236 Ry
     estimated scf accuracy    <       0.00000002 Ry

     total magnetization       =     0.00 Bohr mag/cell
     absolute magnetization    =    49.55 Bohr mag/cell

     iteration # 65     ecut=    71.00 Ry     beta= 0.30
     Davidson diagonalization with overlap
     ethr =  2.05E-12,  avg # of iterations =  2.0

     total cpu time spent up to now is     6809.2 secs

     total energy              =  -10536.25058236 Ry
     estimated scf accuracy    <       0.00000001 Ry

     total magnetization       =     0.00 Bohr mag/cell
     absolute magnetization    =    49.54 Bohr mag/cell

     iteration # 66     ecut=    71.00 Ry     beta= 0.30
     Davidson diagonalization with overlap
     ethr =  2.05E-12,  avg # of iterations =  1.0

     total cpu time spent up to now is     6900.9 secs

     total energy              =  -10536.25058236 Ry
     estimated scf accuracy    <       0.00000003 Ry

     total magnetization       =     0.00 Bohr mag/cell
     absolute magnetization    =    49.54 Bohr mag/cell

     iteration # 67     ecut=    71.00 Ry     beta= 0.30
     Davidson diagonalization with overlap
     ethr =  2.05E-12,  avg # of iterations =  1.6
 
     Magnetic moment per site:
     atom:    1    charge:   14.3915    magn:    1.4916    constr:    0.0000
     atom:    2    charge:   14.3917    magn:   -1.4923    constr:    0.0000
     atom:    3    charge:   14.3912    magn:    1.4928    constr:    0.0000
     atom:    4    charge:   14.3917    magn:   -1.4923    constr:    0.0000
     atom:    5    charge:   14.3914    magn:    1.4918    constr:    0.0000
     atom:    6    charge:   14.3917    magn:   -1.4922    constr:    0.0000
     atom:    7    charge:   14.3912    magn:    1.4928    constr:    0.0000
     atom:    8    charge:   14.3917    magn:   -1.4923    constr:    0.0000
     atom:    9    charge:   14.3914    magn:    1.4918    constr:    0.0000
     atom:   10    charge:   14.3917    magn:   -1.4923    constr:    0.0000
     atom:   11    charge:   14.3912    magn:    1.4928    constr:    0.0000
     atom:   12    charge:   14.3917    magn:   -1.4923    constr:    0.0000
     atom:   13    charge:   14.3914    magn:    1.4918    constr:    0.0000
     atom:   14    charge:   14.3917    magn:   -1.4922    constr:    0.0000
     atom:   15    charge:   14.3912    magn:    1.4928    constr:    0.0000
     atom:   16    charge:   14.3917    magn:   -1.4923    constr:    0.0000
     atom:   17    charge:   14.3914    magn:    1.4918    constr:    0.0000
     atom:   18    charge:   14.3917    magn:   -1.4923    constr:    0.0000
     atom:   19    charge:   14.3912    magn:    1.4928    constr:    0.0000
     atom:   20    charge:   14.3917    magn:   -1.4922    constr:    0.0000
     atom:   21    charge:   14.3915    magn:    1.4917    constr:    0.0000
     atom:   22    charge:   14.3917    magn:   -1.4922    constr:    0.0000
     atom:   23    charge:   14.3912    magn:    1.4928    constr:    0.0000
     atom:   24    charge:   14.3917    magn:   -1.4922    constr:    0.0000
     atom:   25    charge:   14.3914    magn:    1.4918    constr:    0.0000
     atom:   26    charge:   14.3917    magn:   -1.4923    constr:    0.0000
     atom:   27    charge:   14.3912    magn:    1.4928    constr:    0.0000
     atom:   28    charge:   14.3917    magn:   -1.4922    constr:    0.0000
     atom:   29    charge:   14.3914    magn:    1.4917    constr:    0.0000
     atom:   30    charge:   14.3917    magn:   -1.4922    constr:    0.0000
     atom:   31    charge:   14.3912    magn:    1.4928    constr:    0.0000
     atom:   32    charge:   14.3917    magn:   -1.4922    constr:    0.0000

     total cpu time spent up to now is     6998.3 secs

     End of self-consistent calculation

     Number of k-points >= 100: set verbosity='high' to print the bands.

     the Fermi energy is    20.1183 ev

!    total energy              =  -10536.25058237 Ry

     total all-electron energy =    -81457.739640 Ry
     estimated scf accuracy    <          5.2E-09 Ry
     smearing contrib. (-TS)   =       0.01441633 Ry
     internal energy E=F+TS    =  -10536.26499869 Ry

     The total energy is F=E-TS. E is the sum of the following terms:
     one-electron contribution =   -3292.37111162 Ry
     hartree contribution      =    1996.50724294 Ry
     xc contribution           =    -886.95637942 Ry
     ewald contribution        =   -5703.88401268 Ry
     one-center paw contrib.   =   -2649.56073791 Ry

     total magnetization       =     0.00 Bohr mag/cell
     absolute magnetization    =    49.54 Bohr mag/cell

     convergence has been achieved in  67 iterations

     Forces acting on atoms (cartesian axes, Ry/au):

     atom    1 type  1   force =     0.00000000    0.00000000    0.00000000
     atom    2 type  2   force =     0.00000149    0.00000401    0.00000000
     atom    3 type  1   force =     0.00000146    0.00000000    0.00000146
     atom    4 type  2   force =     0.00000000    0.00000401    0.00000149
     atom    5 type  1   force =     0.00000000    0.00000000    0.00000000
     atom    6 type  2   force =     0.00000122    0.00000458    0.00000000
     atom    7 type  1   force =     0.00000146    0.00000000   -0.00000146
     atom    8 type  2   force =     0.00000000    0.00000401   -0.00000149
     atom    9 type  1   force =     0.00000000    0.00000000    0.00000000
     atom   10 type  2   force =     0.00000149   -0.00000401    0.00000000
     atom   11 type  1   force =     0.00000251    0.00000000    0.00000251
     atom   12 type  2   force =     0.00000000   -0.00000401    0.00000149
     atom   13 type  1   force =     0.00000000    0.00000000    0.00000000
     atom   14 type  2   force =     0.00000122   -0.00000458    0.00000000
     atom   15 type  1   force =     0.00000251    0.00000000   -0.00000251
     atom   16 type  2   force =     0.00000000   -0.00000401   -0.00000149
     atom   17 type  1   force =     0.00000000    0.00000000    0.00000000
     atom   18 type  2   force =    -0.00000149    0.00000401    0.00000000
     atom   19 type  1   force =    -0.00000146    0.00000000    0.00000146
     atom   20 type  2   force =     0.00000000    0.00000458    0.00000122
     atom   21 type  1   force =     0.00000000    0.00000000    0.00000000
     atom   22 type  2   force =    -0.00000122    0.00000458    0.00000000
     atom   23 type  1   force =    -0.00000146    0.00000000   -0.00000146
     atom   24 type  2   force =     0.00000000    0.00000458   -0.00000122
     atom   25 type  1   force =     0.00000000    0.00000000    0.00000000
     atom   26 type  2   force =    -0.00000149   -0.00000401    0.00000000
     atom   27 type  1   force =    -0.00000251    0.00000000    0.00000251
     atom   28 type  2   force =     0.00000000   -0.00000458    0.00000122
     atom   29 type  1   force =     0.00000000    0.00000000    0.00000000
     atom   30 type  2   force =    -0.00000122   -0.00000458    0.00000000
     atom   31 type  1   force =    -0.00000251    0.00000000   -0.00000251
     atom   32 type  2   force =     0.00000000   -0.00000458   -0.00000122

     Total force =     0.000020     Total SCF correction =     0.000396
     SCF correction compared to forces is large: reduce conv_thr to get better values


     Computing stress (Cartesian axis) and pressure

          total   stress  (Ry/bohr**3)                   (kbar)     P=       -0.03
  -0.00000062   0.00000000   0.00000000           -0.09        0.00        0.00
   0.00000000   0.00000071   0.00000000            0.00        0.10        0.00
   0.00000000   0.00000000  -0.00000062            0.00        0.00       -0.09


     Writing output data file /scratch/bxp912/fescf.save/
 
     init_run     :     34.24s CPU     35.08s WALL (       1 calls)
     electrons    :   6877.24s CPU   6960.23s WALL (       1 calls)
     forces       :     21.28s CPU     21.42s WALL (       1 calls)
     stress       :     92.71s CPU     93.34s WALL (       1 calls)

     Called by init_run:
     wfcinit      :     33.45s CPU     34.16s WALL (       1 calls)
     potinit      :      0.39s CPU      0.42s WALL (       1 calls)
     hinit0       :      0.14s CPU      0.20s WALL (       1 calls)

     Called by electrons:
     c_bands      :   5936.97s CPU   6004.46s WALL (      68 calls)
     sum_band     :    922.76s CPU    936.79s WALL (      68 calls)
     v_of_rho     :      1.63s CPU      1.72s WALL (      68 calls)
     newd         :      2.76s CPU      3.44s WALL (      68 calls)
     PAW_pot      :     12.05s CPU     12.66s WALL (      68 calls)
     mix_rho      :      0.65s CPU      0.75s WALL (      68 calls)

     Called by c_bands:
     init_us_2    :     30.66s CPU     31.15s WALL (   20850 calls)
     cegterg      :   5812.25s CPU   5877.78s WALL (   10200 calls)

     Called by *egterg:
     cdiaghg      :    684.53s CPU    688.05s WALL (   28791 calls)
     h_psi        :   3355.74s CPU   3406.84s WALL (   29091 calls)
     s_psi        :    240.04s CPU    241.71s WALL (   29091 calls)
     g_psi        :      6.00s CPU      6.08s WALL (   18741 calls)

     Called by h_psi:
     h_psi:calbec :    495.94s CPU    499.14s WALL (   29091 calls)
     vloc_psi     :   2606.62s CPU   2652.21s WALL (   29091 calls)
     add_vuspsi   :    237.23s CPU    239.41s WALL (   29091 calls)

     General routines
     calbec       :    758.60s CPU    763.35s WALL (   40041 calls)
     fft          :      1.51s CPU      1.56s WALL (    1740 calls)
     ffts         :      0.15s CPU      0.16s WALL (     272 calls)
     fftw         :   3166.63s CPU   3221.52s WALL (16991760 calls)
     interpolate  :      0.28s CPU      0.29s WALL (     136 calls)
 
     Parallel routines
     fft_scatt_xy :    136.84s CPU    139.41s WALL (16993772 calls)
     fft_scatt_yz :   2704.73s CPU   2752.15s WALL (16993772 calls)
 
     PWSCF        :      1h57m CPU      1h59m WALL

 
   This run was terminated on:  16:21:18   6Mar2022            

=------------------------------------------------------------------------------=
   JOB DONE.
=------------------------------------------------------------------------------=
