
     Program PWSCF v.6.7MaX starts on 23Nov2021 at 13:24:16 

     This program is part of the open-source Quantum ESPRESSO suite
     for quantum simulation of materials; please cite
         "P. Giannozzi et al., J. Phys.:Condens. Matter 21 395502 (2009);
         "P. Giannozzi et al., J. Phys.:Condens. Matter 29 465901 (2017);
          URL http://www.quantum-espresso.org", 
     in publications or presentations arising from this work. More details at
     http://www.quantum-espresso.org/quote

     Parallel version (MPI & OpenMP), running on      72 processor cores
     Number of MPI processes:                72
     Threads/MPI process:                     1

     MPI processes distributed on     1 nodes
     R & G space division:  proc/nbgrp/npool/nimage =      72
     Reading input from /rds/homes/b/bxp912/jobs/20211014_ru_eos/wd/eos/eos_010.in
Warning: card &CELL ignored
Warning: card CELL_DYNAMICS = 'BFGS', ignored
Warning: card CELL_FACTOR = 2.0, ignored
Warning: card PRESS = 0.0, ignored
Warning: card / ignored

     Current dimensions of program PWSCF are:
     Max number of different atomic species (ntypx) = 10
     Max number of k-points (npk) =  40000
     Max angular momentum in pseudopotentials (lmaxx) =  3
     file Ru.pbe-spn-kjpaw_psl.1.0.0.UPF: wavefunction(s)  4D renormalized

     Subspace diagonalization in iterative solution of the eigenvalue problem:
     one sub-group per band group will be used
     ELPA distributed-memory algorithm (size of sub-group:  8*  8 procs)

     Found symmetry operation: I + (  0.2500  0.2500  0.0000)
     This is a supercell, fractional translations are disabled
     Message from routine setup:
     using ibrav=0 with symmetry is DISCOURAGED, use correct ibrav instead
 
     Parallelization info
     --------------------
     sticks:   dense  smooth     PW     G-vecs:    dense   smooth      PW
     Min          99      65     18                 6323     3385     482
     Max         100      66     19                 6330     3392     486
     Sum        7153    4709   1305               455335   244017   34889
 


     bravais-lattice index     =            0
     lattice parameter (alat)  =      14.4007  a.u.
     unit-cell volume          =    3022.4262 (a.u.)^3
     number of atoms/cell      =           32
     number of atomic types    =            1
     number of electrons       =       512.00
     number of Kohn-Sham states=          307
     kinetic-energy cutoff     =      71.0000  Ry
     charge density cutoff     =     430.0000  Ry
     scf convergence threshold =      1.0E-06
     mixing beta               =       0.1000
     number of iterations used =           10  plain     mixing
     Exchange-correlation= SLA  PW   PBX  PBC
                           (   1   4   3   4   0   0   0)

     celldm(1)=  14.400742  celldm(2)=   0.000000  celldm(3)=   0.000000
     celldm(4)=   0.000000  celldm(5)=   0.000000  celldm(6)=   0.000000

     crystal axes: (cart. coord. in units of alat)
               a(1) = (   1.004000   0.000000   0.000000 )  
               a(2) = (   0.000000   1.004000   0.000000 )  
               a(3) = (   0.000000   0.000000   1.004000 )  

     reciprocal axes: (cart. coord. in units 2 pi/alat)
               b(1) = (  0.996016  0.000000  0.000000 )  
               b(2) = (  0.000000  0.996016  0.000000 )  
               b(3) = (  0.000000  0.000000  0.996016 )  


     PseudoPot. # 1 for Ru read from file:
     /rds/homes/b/bxp912/pp/Ru.pbe-spn-kjpaw_psl.1.0.0.UPF
     MD5 check sum: 0ae1f594dea09af7be8575c3a481d1ae
     Pseudo is Projector augmented-wave + core cor, Zval = 16.0
     Generated using "atomic" code by A. Dal Corso  v.5.1
     Shape of augmentation charge: PSQ
     Using radial grid of 1233 points,  6 beta functions with: 
                l(1) =   0
                l(2) =   0
                l(3) =   1
                l(4) =   1
                l(5) =   2
                l(6) =   2
     Q(r) pseudized with 0 coefficients 


     atomic species   valence    mass     pseudopotential
        Ru            16.00   101.07000     Ru( 1.00)

     48 Sym. Ops., with inversion, found



   Cartesian axes

     site n.     atom                  positions (alat units)
         1           Ru  tau(   1) = (   0.0000000   0.0000000   0.0000000  )
         2           Ru  tau(   2) = (   0.2510000   0.2510000   0.0000000  )
         3           Ru  tau(   3) = (   0.2510000   0.0000000   0.2509995  )
         4           Ru  tau(   4) = (   0.0000000   0.2510000   0.2509995  )
         5           Ru  tau(   5) = (   0.0000000   0.0000000   0.5020000  )
         6           Ru  tau(   6) = (   0.2509989   0.2509989   0.5020000  )
         7           Ru  tau(   7) = (   0.2510000   0.0000000   0.7529995  )
         8           Ru  tau(   8) = (   0.0000000   0.2510000   0.7529995  )
         9           Ru  tau(   9) = (   0.0000000   0.5020002   0.0000000  )
        10           Ru  tau(  10) = (   0.2510000   0.7530004   0.0000000  )
        11           Ru  tau(  11) = (   0.2509989   0.5020002   0.2509984  )
        12           Ru  tau(  12) = (   0.0000000   0.7530004   0.2509995  )
        13           Ru  tau(  13) = (   0.0000000   0.5020002   0.5020000  )
        14           Ru  tau(  14) = (   0.2509989   0.7530015   0.5020000  )
        15           Ru  tau(  15) = (   0.2509989   0.5020002   0.7530005  )
        16           Ru  tau(  16) = (   0.0000000   0.7530004   0.7529995  )
        17           Ru  tau(  17) = (   0.5020002   0.0000000   0.0000000  )
        18           Ru  tau(  18) = (   0.7530004   0.2510000   0.0000000  )
        19           Ru  tau(  19) = (   0.7530004   0.0000000   0.2509995  )
        20           Ru  tau(  20) = (   0.5020002   0.2509989   0.2509984  )
        21           Ru  tau(  21) = (   0.5020002   0.0000000   0.5020000  )
        22           Ru  tau(  22) = (   0.7530015   0.2509989   0.5020000  )
        23           Ru  tau(  23) = (   0.7530004   0.0000000   0.7529995  )
        24           Ru  tau(  24) = (   0.5020002   0.2509989   0.7530005  )
        25           Ru  tau(  25) = (   0.5020002   0.5020002   0.0000000  )
        26           Ru  tau(  26) = (   0.7530004   0.7530004   0.0000000  )
        27           Ru  tau(  27) = (   0.7530015   0.5020002   0.2509984  )
        28           Ru  tau(  28) = (   0.5020002   0.7530015   0.2509984  )
        29           Ru  tau(  29) = (   0.5020002   0.5020002   0.5020000  )
        30           Ru  tau(  30) = (   0.7530015   0.7530015   0.5020000  )
        31           Ru  tau(  31) = (   0.7530015   0.5020002   0.7530005  )
        32           Ru  tau(  32) = (   0.5020002   0.7530015   0.7530005  )

     number of k points=    35  Marzari-Vanderbilt smearing, width (Ry)=  0.0400
                       cart. coord. in units 2pi/alat
        k(    1) = (   0.0553342   0.0553342   0.0553342), wk =   0.0219479
        k(    2) = (   0.0553342   0.0553342   0.1660027), wk =   0.0658436
        k(    3) = (   0.0553342   0.0553342   0.2766711), wk =   0.0658436
        k(    4) = (   0.0553342   0.0553342   0.3873395), wk =   0.0658436
        k(    5) = (   0.0553342   0.0553342  -0.4980080), wk =   0.0329218
        k(    6) = (   0.0553342   0.1660027   0.1660027), wk =   0.0658436
        k(    7) = (   0.0553342   0.1660027   0.2766711), wk =   0.1316872
        k(    8) = (   0.0553342   0.1660027   0.3873395), wk =   0.1316872
        k(    9) = (   0.0553342   0.1660027  -0.4980080), wk =   0.0658436
        k(   10) = (   0.0553342   0.2766711   0.2766711), wk =   0.0658436
        k(   11) = (   0.0553342   0.2766711   0.3873395), wk =   0.1316872
        k(   12) = (   0.0553342   0.2766711  -0.4980080), wk =   0.0658436
        k(   13) = (   0.0553342   0.3873395   0.3873395), wk =   0.0658436
        k(   14) = (   0.0553342   0.3873395  -0.4980080), wk =   0.0658436
        k(   15) = (   0.0553342  -0.4980080  -0.4980080), wk =   0.0164609
        k(   16) = (   0.1660027   0.1660027   0.1660027), wk =   0.0219479
        k(   17) = (   0.1660027   0.1660027   0.2766711), wk =   0.0658436
        k(   18) = (   0.1660027   0.1660027   0.3873395), wk =   0.0658436
        k(   19) = (   0.1660027   0.1660027  -0.4980080), wk =   0.0329218
        k(   20) = (   0.1660027   0.2766711   0.2766711), wk =   0.0658436
        k(   21) = (   0.1660027   0.2766711   0.3873395), wk =   0.1316872
        k(   22) = (   0.1660027   0.2766711  -0.4980080), wk =   0.0658436
        k(   23) = (   0.1660027   0.3873395   0.3873395), wk =   0.0658436
        k(   24) = (   0.1660027   0.3873395  -0.4980080), wk =   0.0658436
        k(   25) = (   0.1660027  -0.4980080  -0.4980080), wk =   0.0164609
        k(   26) = (   0.2766711   0.2766711   0.2766711), wk =   0.0219479
        k(   27) = (   0.2766711   0.2766711   0.3873395), wk =   0.0658436
        k(   28) = (   0.2766711   0.2766711  -0.4980080), wk =   0.0329218
        k(   29) = (   0.2766711   0.3873395   0.3873395), wk =   0.0658436
        k(   30) = (   0.2766711   0.3873395  -0.4980080), wk =   0.0658436
        k(   31) = (   0.2766711  -0.4980080  -0.4980080), wk =   0.0164609
        k(   32) = (   0.3873395   0.3873395   0.3873395), wk =   0.0219479
        k(   33) = (   0.3873395   0.3873395  -0.4980080), wk =   0.0329218
        k(   34) = (   0.3873395  -0.4980080  -0.4980080), wk =   0.0164609
        k(   35) = (  -0.4980080  -0.4980080  -0.4980080), wk =   0.0027435

     Dense  grid:   455335 G-vectors     FFT dimensions: (  96,  96,  96)

     Smooth grid:   244017 G-vectors     FFT dimensions: (  80,  80,  80)

     Estimated max dynamical RAM per process >     108.36 MB

     Estimated total dynamical RAM >       7.62 GB

     Check: negative core charge=   -0.000002

     Initial potential from superposition of free atoms

     starting charge  511.97959, renormalised to  512.00000
     Starting wfcs are  320 randomized atomic wfcs
     Checking if some PAW data can be deallocated... 

     total cpu time spent up to now is       17.3 secs

     Self-consistent Calculation

     iteration #  1     ecut=    71.00 Ry     beta= 0.10
     Davidson diagonalization with overlap
     ethr =  1.00E-02,  avg # of iterations =  3.5

     Threshold (ethr) on eigenvalues was too large:
     Diagonalizing with lowered threshold

     Davidson diagonalization with overlap
     ethr =  8.25E-05,  avg # of iterations =  5.3

     total cpu time spent up to now is      108.2 secs

     total energy              =  -13813.40705271 Ry
     estimated scf accuracy    <       0.63372179 Ry

     iteration #  2     ecut=    71.00 Ry     beta= 0.10
     Davidson diagonalization with overlap
     ethr =  1.24E-04,  avg # of iterations =  1.0

     total cpu time spent up to now is      139.1 secs

     total energy              =  -13813.20074938 Ry
     estimated scf accuracy    <       0.39471229 Ry

     iteration #  3     ecut=    71.00 Ry     beta= 0.10
     Davidson diagonalization with overlap
     ethr =  7.71E-05,  avg # of iterations =  2.4

     total cpu time spent up to now is      182.9 secs

     total energy              =  -13813.29626800 Ry
     estimated scf accuracy    <       0.01029319 Ry

     iteration #  4     ecut=    71.00 Ry     beta= 0.10
     Davidson diagonalization with overlap
     ethr =  2.01E-06,  avg # of iterations =  3.2

     total cpu time spent up to now is      226.2 secs

     total energy              =  -13813.29566320 Ry
     estimated scf accuracy    <       0.00679263 Ry

     iteration #  5     ecut=    71.00 Ry     beta= 0.10
     Davidson diagonalization with overlap
     ethr =  1.33E-06,  avg # of iterations =  2.0

     total cpu time spent up to now is      268.4 secs

     total energy              =  -13813.30062447 Ry
     estimated scf accuracy    <       0.00728060 Ry

     iteration #  6     ecut=    71.00 Ry     beta= 0.10
     Davidson diagonalization with overlap
     ethr =  1.33E-06,  avg # of iterations =  3.4

     total cpu time spent up to now is      315.5 secs

     total energy              =  -13813.29557275 Ry
     estimated scf accuracy    <       0.01762152 Ry

     iteration #  7     ecut=    71.00 Ry     beta= 0.10
     Davidson diagonalization with overlap
     ethr =  1.33E-06,  avg # of iterations =  2.6

     total cpu time spent up to now is      360.7 secs

     total energy              =  -13813.29705775 Ry
     estimated scf accuracy    <       0.00115615 Ry

     iteration #  8     ecut=    71.00 Ry     beta= 0.10
     Davidson diagonalization with overlap
     ethr =  2.26E-07,  avg # of iterations =  2.4

     total cpu time spent up to now is      398.2 secs

     total energy              =  -13813.29715074 Ry
     estimated scf accuracy    <       0.00021423 Ry

     iteration #  9     ecut=    71.00 Ry     beta= 0.10
     Davidson diagonalization with overlap
     ethr =  4.18E-08,  avg # of iterations =  2.0

     total cpu time spent up to now is      429.8 secs

     total energy              =  -13813.29708021 Ry
     estimated scf accuracy    <       0.00015671 Ry

     iteration # 10     ecut=    71.00 Ry     beta= 0.10
     Davidson diagonalization with overlap
     ethr =  3.06E-08,  avg # of iterations =  2.3

     total cpu time spent up to now is      464.2 secs

     total energy              =  -13813.29710202 Ry
     estimated scf accuracy    <       0.00000552 Ry

     iteration # 11     ecut=    71.00 Ry     beta= 0.10
     Davidson diagonalization with overlap
     ethr =  1.08E-09,  avg # of iterations =  4.2

     total cpu time spent up to now is      512.8 secs

     total energy              =  -13813.29711048 Ry
     estimated scf accuracy    <       0.00000293 Ry

     iteration # 12     ecut=    71.00 Ry     beta= 0.10
     Davidson diagonalization with overlap
     ethr =  5.72E-10,  avg # of iterations =  2.9

     total cpu time spent up to now is      552.9 secs

     total energy              =  -13813.29710376 Ry
     estimated scf accuracy    <       0.00001546 Ry

     iteration # 13     ecut=    71.00 Ry     beta= 0.10
     Davidson diagonalization with overlap
     ethr =  5.72E-10,  avg # of iterations =  3.1

     total cpu time spent up to now is      597.4 secs

     End of self-consistent calculation

          k = 0.0553 0.0553 0.0553 ( 30614 PWs)   bands (ev):

   -50.2241 -50.1292 -50.1292 -50.1292 -50.1109 -50.1109 -50.1109 -50.0767
   -50.0767 -50.0767 -50.0678 -50.0668 -50.0668 -50.0668 -50.0667 -50.0667
   -50.0667 -50.0662 -50.0662 -50.0661 -50.0583 -50.0583 -50.0583 -50.0152
   -50.0152 -50.0152 -50.0147 -50.0147 -50.0147 -50.0146 -50.0146 -50.0146
   -20.6097 -20.6097 -20.6097 -20.6058 -20.5498 -20.5498 -20.5498 -20.3569
   -20.3569 -20.3569 -20.3460 -20.3460 -20.3460 -20.3460 -20.3460 -20.3460
   -20.3264 -20.3264 -20.3264 -20.3049 -20.3049 -20.3049 -20.3049 -20.3049
   -20.3049 -20.2563 -20.2563 -20.2563 -20.2563 -20.2563 -20.2563 -20.1606
   -20.1606 -20.1606 -20.0905 -20.0905 -20.0905 -20.0827 -20.0827 -20.0827
   -20.0506 -20.0506 -20.0506 -20.0505 -20.0505 -20.0505 -20.0119 -20.0119
   -20.0119 -20.0054 -20.0054 -20.0054 -20.0054 -20.0054 -20.0054 -20.0002
   -20.0002 -20.0002 -19.9959 -19.9958 -19.9958 -19.8393 -19.8393 -19.8393
   -19.8387 -19.8387 -19.8387 -19.8083 -19.8083 -19.8083 -19.8082 -19.8082
   -19.8082 -19.7941 -19.7941 -19.7941 -19.7823 -19.7823 -19.7823 -19.7812
   -19.7812 -19.7812 -19.7812 -19.7812 -19.7812 -19.7793 -19.7793 -19.7793
   -19.7766 -19.7766 -19.7635 -19.7635 -19.7635 -19.6546 -19.6479 -19.6479
    15.0746  16.6671  16.6671  16.6671  16.9302  16.9478  16.9478  16.9478
    17.1297  17.1297  17.1297  17.3157  17.3157  17.3157  17.4933  17.4933
    17.4934  18.0542  18.0542  18.0542  18.0542  18.0542  18.0542  18.3670
    18.3670  18.3671  18.6061  18.6061  18.6062  18.6358  18.6358  18.6358
    18.7182  18.7183  18.7183  18.7183  18.7183  18.7183  18.7199  18.7199
    18.7199  19.2120  19.2120  19.2120  19.2120  19.2120  19.2120  19.3546
    19.3546  19.3546  19.3868  19.3868  19.3868  19.3869  19.3869  19.3869
    19.4509  19.4509  19.4509  19.7043  19.7043  19.7043  19.7083  19.7083
    19.7083  19.7084  19.7084  19.7084  19.7096  19.7096  19.7096  19.7096
    19.7096  19.7096  19.8791  19.8791  19.8791  20.1611  20.1611  20.1611
    20.1965  20.1965  20.2113  20.2113  20.2113  20.2875  20.3183  20.3183
    21.2746  21.2746  21.2747  21.4385  21.4385  21.4385  21.4938  21.4938
    21.4938  21.5920  21.5920  21.5920  21.5920  21.5920  21.5920  21.6058
    21.6059  21.6059  21.8954  21.8955  21.8955  22.0126  22.0126  22.0126
    22.2577  22.2577  22.2577  22.3363  22.3363  22.3363  22.3363  22.3363
    22.3363  22.3533  22.3534  22.3534  22.3906  22.3906  22.3907  22.5789
    22.5790  22.5790  22.5790  22.5790  22.5790  22.6341  22.6341  22.7490
    22.7491  22.7491  23.3953  23.3953  23.3953  23.4473  23.4473  23.4473
    23.5524  23.5524  23.5524  23.6481  24.3555  24.3555  24.3555  24.3976
    24.3976  24.4318  24.4318  24.4318  24.7114  24.7114  24.7114  24.7401
    24.7401  24.7401  24.8926  24.8926  24.8926  24.8926  24.8926  24.8926
    24.8975  24.8975  24.8975  26.3197  26.3197  26.3197  26.5047  26.5047
    26.5047  26.8468  26.8468

          k = 0.0553 0.0553 0.1660 ( 30592 PWs)   bands (ev):

   -50.2210 -50.1472 -50.1275 -50.1275 -50.1095 -50.1095 -50.0929 -50.0866
   -50.0866 -50.0764 -50.0750 -50.0750 -50.0695 -50.0668 -50.0667 -50.0662
   -50.0662 -50.0647 -50.0586 -50.0569 -50.0569 -50.0500 -50.0500 -50.0183
   -50.0164 -50.0164 -50.0161 -50.0161 -50.0152 -50.0151 -50.0147 -50.0146
   -20.6026 -20.5988 -20.5988 -20.5910 -20.5417 -20.5417 -20.5372 -20.3866
   -20.3738 -20.3738 -20.3612 -20.3612 -20.3587 -20.3587 -20.3535 -20.3515
   -20.3515 -20.3289 -20.3289 -20.3149 -20.3149 -20.3019 -20.3019 -20.3008
   -20.3008 -20.2641 -20.2641 -20.2477 -20.2477 -20.2362 -20.2092 -20.2092
   -20.1727 -20.1727 -20.1296 -20.1296 -20.0985 -20.0985 -20.0885 -20.0885
   -20.0587 -20.0225 -20.0225 -20.0110 -20.0110 -20.0102 -20.0102 -20.0050
   -20.0047 -20.0047 -19.9951 -19.9951 -19.9948 -19.9914 -19.9914 -19.9906
   -19.9898 -19.9898 -19.9862 -19.9738 -19.9738 -19.8698 -19.8686 -19.8462
   -19.8462 -19.8312 -19.8312 -19.8151 -19.8151 -19.8130 -19.8130 -19.8049
   -19.8049 -19.7992 -19.7992 -19.7991 -19.7936 -19.7925 -19.7925 -19.7823
   -19.7820 -19.7812 -19.7812 -19.7802 -19.7802 -19.7783 -19.7775 -19.7746
   -19.7746 -19.7741 -19.7639 -19.7521 -19.7521 -19.6713 -19.6533 -19.6514
    15.1599  16.7168  16.7299  16.7299  16.9691  17.0041  17.0041  17.0110
    17.0214  17.1672  17.1905  17.1905  17.3770  17.3770  17.5236  17.5579
    17.5579  17.9353  17.9353  18.1021  18.1021  18.1113  18.1113  18.1137
    18.3009  18.4054  18.4054  18.4073  18.4073  18.4591  18.4667  18.4667
    18.6543  18.6543  18.6679  18.6679  18.6911  18.6911  18.7658  18.7658
    18.8162  18.8162  18.9131  19.1902  19.1902  19.2158  19.2158  19.2660
    19.2660  19.2812  19.2812  19.3422  19.3422  19.4253  19.4253  19.4622
    19.5293  19.5293  19.5570  19.5570  19.6477  19.6610  19.6610  19.6913
    19.6913  19.7138  19.7138  19.7152  19.7152  19.9504  19.9504  19.9821
    19.9821  19.9989  20.0482  20.0891  20.1200  20.1200  20.1935  20.2276
    20.2295  20.2484  20.2484  20.2630  20.2630  20.2736  20.3606  20.3644
    21.0485  21.0485  21.1733  21.1733  21.2661  21.2952  21.4032  21.4032
    21.4329  21.5270  21.5270  21.5613  21.7010  21.7010  21.7030  21.7344
    21.7344  21.7799  21.7799  21.7987  21.8721  21.8721  22.1935  22.1936
    22.2085  22.2086  22.2247  22.2247  22.3378  22.3378  22.3521  22.3521
    22.4690  22.4690  22.4929  22.4929  22.5642  22.5879  22.5946  22.5946
    22.6409  22.6581  22.7987  22.7987  22.8122  22.8609  22.8609  22.9452
    22.9778  22.9778  22.9872  23.0381  23.0381  23.2241  23.2446  23.4566
    23.4566  23.6439  23.6439  23.7120  24.1610  24.1610  24.2694  24.2694
    24.2837  24.3160  24.3801  24.3801  24.3844  24.5779  24.6491  24.7675
    24.7675  24.7688  24.7688  24.7893  24.8912  24.8913  24.8924  24.8924
    25.0791  25.0791  25.3035  25.8081  25.8081  26.2039  26.2623  26.3269
    26.3269  26.7922  26.7922

          k = 0.0553 0.0553 0.2767 ( 30563 PWs)   bands (ev):

   -50.2148 -50.1643 -50.1240 -50.1240 -50.1065 -50.1065 -50.0961 -50.0961
   -50.0830 -50.0829 -50.0758 -50.0756 -50.0710 -50.0667 -50.0666 -50.0663
   -50.0662 -50.0632 -50.0591 -50.0475 -50.0475 -50.0422 -50.0422 -50.0246
   -50.0198 -50.0198 -50.0190 -50.0190 -50.0151 -50.0150 -50.0148 -50.0147
   -20.5847 -20.5774 -20.5774 -20.5661 -20.5258 -20.5258 -20.5124 -20.4306
   -20.4165 -20.4164 -20.3961 -20.3960 -20.3960 -20.3644 -20.3644 -20.3588
   -20.3588 -20.3295 -20.3295 -20.3072 -20.3065 -20.3065 -20.3048 -20.3048
   -20.2699 -20.2699 -20.2668 -20.2668 -20.2327 -20.2327 -20.1943 -20.1943
   -20.1667 -20.1667 -20.1638 -20.1638 -20.1260 -20.1260 -20.1246 -20.1246
   -20.0277 -20.0277 -20.0109 -20.0034 -20.0034 -19.9959 -19.9959 -19.9843
   -19.9804 -19.9791 -19.9791 -19.9731 -19.9731 -19.9665 -19.9665 -19.9634
   -19.9634 -19.9462 -19.9373 -19.9373 -19.9298 -19.8989 -19.8970 -19.8602
   -19.8602 -19.8373 -19.8373 -19.8335 -19.8335 -19.8286 -19.8286 -19.8265
   -19.8183 -19.8183 -19.8143 -19.8143 -19.7989 -19.7925 -19.7849 -19.7849
   -19.7846 -19.7811 -19.7811 -19.7804 -19.7804 -19.7742 -19.7742 -19.7715
   -19.7647 -19.7495 -19.7480 -19.7475 -19.7475 -19.7010 -19.6639 -19.6613
    15.3277  16.6361  16.8130  16.8524  16.8524  17.0643  17.1158  17.1158
    17.1495  17.2418  17.3116  17.3116  17.4371  17.4958  17.4958  17.6833
    17.6833  17.7320  17.7320  17.8814  17.9710  18.0713  18.0713  18.1389
    18.1932  18.1932  18.2233  18.2233  18.2904  18.2904  18.3689  18.3689
    18.4811  18.4811  18.5098  18.5098  18.6440  18.6440  18.7304  18.7304
    18.8941  18.8941  19.0941  19.0941  19.1565  19.1565  19.1567  19.1567
    19.1755  19.1755  19.1909  19.2182  19.2182  19.3085  19.3086  19.4658
    19.4658  19.5266  19.5819  19.5819  19.6536  19.6536  19.7083  19.7083
    19.7253  19.7253  19.7952  19.7952  19.8203  19.9876  20.0491  20.0491
    20.0577  20.0577  20.1039  20.1556  20.3097  20.3593  20.3593  20.3680
    20.3820  20.3843  20.3843  20.4529  20.4562  20.4893  20.7769  20.7769
    20.8316  20.8316  20.8364  20.8364  21.0480  21.1586  21.1586  21.1932
    21.2037  21.2606  21.6136  21.6541  21.6541  21.8591  21.8591  21.8771
    21.8771  21.9153  21.9153  21.9905  21.9905  22.1087  22.1087  22.2056
    22.2056  22.3151  22.3303  22.3303  22.3386  22.3386  22.3672  22.3672
    22.4197  22.4197  22.4295  22.4855  22.5153  22.5153  22.6295  22.6985
    22.6985  22.7057  22.7679  22.7679  22.9039  23.0349  23.1038  23.1038
    23.1041  23.1854  23.1855  23.2282  23.2575  23.2575  23.2759  23.4895
    23.4895  23.6311  23.6311  23.8706  23.8934  23.8934  24.0666  24.0666
    24.0976  24.2293  24.2293  24.2294  24.2590  24.3203  24.5394  24.5394
    24.5406  24.5406  24.5954  24.8904  24.8904  24.8919  24.8920  25.0400
    25.3070  25.3070  25.5075  25.5075  25.6790  25.8055  25.8056  25.8539
    26.1450  26.6782  26.6782

          k = 0.0553 0.0553 0.3873 ( 30535 PWs)   bands (ev):

   -50.2057 -50.1801 -50.1190 -50.1189 -50.1048 -50.1047 -50.1023 -50.1023
   -50.0903 -50.0903 -50.0749 -50.0725 -50.0667 -50.0666 -50.0664 -50.0663
   -50.0619 -50.0598 -50.0597 -50.0388 -50.0388 -50.0349 -50.0349 -50.0338
   -50.0248 -50.0248 -50.0231 -50.0231 -50.0151 -50.0150 -50.0148 -50.0147
   -20.5569 -20.5466 -20.5466 -20.5320 -20.5026 -20.5026 -20.4772 -20.4761
   -20.4632 -20.4632 -20.4439 -20.4367 -20.4367 -20.3721 -20.3634 -20.3634
   -20.3503 -20.3503 -20.3443 -20.3443 -20.3195 -20.3195 -20.2801 -20.2801
   -20.2532 -20.2532 -20.2350 -20.2350 -20.2215 -20.2215 -20.2126 -20.2125
   -20.2005 -20.2005 -20.1604 -20.1604 -20.1578 -20.1578 -20.1216 -20.1216
   -20.0525 -20.0525 -20.0016 -20.0016 -19.9975 -19.9975 -19.9690 -19.9654
   -19.9587 -19.9380 -19.9380 -19.9349 -19.9349 -19.9315 -19.9315 -19.9314
   -19.9314 -19.9257 -19.9231 -19.9034 -19.9034 -19.9024 -19.8806 -19.8806
   -19.8661 -19.8661 -19.8659 -19.8659 -19.8635 -19.8595 -19.8482 -19.8482
   -19.8461 -19.8461 -19.8256 -19.8034 -19.8034 -19.7911 -19.7869 -19.7810
   -19.7809 -19.7806 -19.7805 -19.7796 -19.7796 -19.7698 -19.7698 -19.7693
   -19.7659 -19.7494 -19.7494 -19.7430 -19.7229 -19.7208 -19.6794 -19.6767
    15.5725  16.2472  16.9489  17.0282  17.0282  17.2147  17.2815  17.2815
    17.2855  17.3298  17.3524  17.4897  17.4897  17.4919  17.4919  17.6635
    17.6635  17.6725  17.6747  17.7640  17.7640  17.8318  17.8610  17.8610
    18.0229  18.0229  18.0833  18.0833  18.3041  18.3041  18.3167  18.3167
    18.3857  18.3857  18.5674  18.5674  18.5922  18.5922  18.8104  18.8105
    18.8196  18.8196  18.9071  18.9071  19.0528  19.0528  19.0856  19.0856
    19.1294  19.1294  19.1917  19.1917  19.2046  19.2046  19.4487  19.4487
    19.4597  19.5011  19.5011  19.6240  19.7275  19.7275  19.7338  19.7338
    19.7488  19.7488  19.8674  19.9192  19.9275  19.9562  19.9562  19.9679
    19.9679  20.0907  20.1612  20.1612  20.4357  20.4992  20.4992  20.5063
    20.5064  20.5256  20.5256  20.5338  20.5907  20.5931  20.8114  20.8188
    20.8188  20.8762  20.9488  20.9683  20.9795  20.9795  20.9871  20.9971
    21.4535  21.4535  21.7765  21.7765  21.7848  21.8464  21.8464  21.9700
    21.9700  21.9750  22.0242  22.0430  22.0430  22.0881  22.0881  22.1222
    22.1222  22.1718  22.1718  22.1820  22.1820  22.2409  22.2962  22.2962
    22.3314  22.3314  22.3564  22.3564  22.4422  22.4422  22.6568  22.6568
    22.7758  22.7924  22.7924  22.9046  22.9773  23.1079  23.1079  23.2366
    23.4248  23.4260  23.4260  23.5298  23.5361  23.5361  23.5747  23.5747
    23.7929  23.7929  23.7939  23.8511  23.9449  23.9449  23.9496  24.0081
    24.0081  24.0264  24.0650  24.0656  24.2386  24.2386  24.2422  24.2423
    24.2938  24.2938  24.3711  24.8190  24.8190  24.8904  24.8904  24.8914
    24.8914  25.0381  25.2842  25.2842  25.4063  25.9065  25.9065  25.9644
    26.3374  26.4967  26.4967

          k = 0.0553 0.0553-0.4980 ( 30494 PWs)   bands (ev):

   -50.1941 -50.1939 -50.1126 -50.1126 -50.1124 -50.1124 -50.0969 -50.0969
   -50.0967 -50.0967 -50.0739 -50.0737 -50.0667 -50.0665 -50.0665 -50.0663
   -50.0608 -50.0606 -50.0458 -50.0456 -50.0313 -50.0313 -50.0311 -50.0311
   -50.0286 -50.0286 -50.0284 -50.0284 -50.0151 -50.0149 -50.0149 -50.0147
   -20.5204 -20.5203 -20.5079 -20.5078 -20.5077 -20.5076 -20.4904 -20.4903
   -20.4727 -20.4727 -20.4725 -20.4725 -20.4290 -20.4288 -20.3563 -20.3563
   -20.3563 -20.3563 -20.3365 -20.3365 -20.3364 -20.3364 -20.2511 -20.2511
   -20.2510 -20.2510 -20.2299 -20.2299 -20.2297 -20.2297 -20.1978 -20.1978
   -20.1978 -20.1977 -20.1875 -20.1875 -20.1873 -20.1873 -20.0842 -20.0842
   -20.0841 -20.0841 -19.9998 -19.9996 -19.9996 -19.9994 -19.9494 -19.9492
   -19.9462 -19.9460 -19.9083 -19.9082 -19.9069 -19.9069 -19.9067 -19.9067
   -19.9005 -19.9005 -19.9004 -19.9004 -19.8981 -19.8981 -19.8981 -19.8981
   -19.8860 -19.8859 -19.8858 -19.8858 -19.8735 -19.8735 -19.8733 -19.8733
   -19.8609 -19.8608 -19.7965 -19.7964 -19.7899 -19.7899 -19.7898 -19.7898
   -19.7893 -19.7891 -19.7809 -19.7807 -19.7807 -19.7805 -19.7675 -19.7673
   -19.7573 -19.7573 -19.7572 -19.7572 -19.6993 -19.6991 -19.6969 -19.6967
    15.8841  15.8843  17.1127  17.1129  17.2461  17.2463  17.2463  17.2465
    17.4185  17.4185  17.4973  17.4975  17.4987  17.4987  17.4989  17.4989
    17.5590  17.5590  17.7297  17.7297  17.7299  17.7299  17.8660  17.8660
    17.8662  17.8662  18.0760  18.0760  18.0762  18.0762  18.4517  18.4517
    18.4518  18.4518  18.5897  18.5897  18.5898  18.5899  18.7357  18.7358
    18.7359  18.7359  18.9298  18.9299  18.9300  18.9300  19.1322  19.1322
    19.1323  19.1323  19.1547  19.1547  19.1547  19.1547  19.4545  19.4545
    19.4545  19.4545  19.7089  19.7091  19.7358  19.7358  19.7359  19.7359
    19.7417  19.7418  19.8521  19.8523  19.8523  19.8524  20.0088  20.0089
    20.2111  20.2111  20.2111  20.2112  20.3169  20.3169  20.3169  20.3170
    20.6045  20.6045  20.6778  20.6779  20.6779  20.6780  20.7250  20.7250
    20.7711  20.7712  20.7738  20.7740  21.4302  21.4302  21.4303  21.4303
    21.4354  21.4354  21.4667  21.4667  21.8282  21.8282  21.8283  21.8283
    22.0161  22.0163  22.1094  22.1094  22.1095  22.1095  22.1392  22.1392
    22.1394  22.1394  22.2181  22.2181  22.2183  22.2183  22.2291  22.2291
    22.2292  22.2292  22.2956  22.2956  22.2957  22.2957  22.5418  22.5418
    22.5419  22.5419  22.8669  22.8671  23.4630  23.4631  23.4631  23.4632
    23.4715  23.4717  23.5586  23.5587  23.7343  23.7343  23.7345  23.7345
    23.7848  23.7849  23.8161  23.8162  23.8945  23.8945  23.8946  23.8946
    23.9107  23.9107  23.9108  23.9108  24.1847  24.1849  24.3563  24.3563
    24.3563  24.3563  24.3853  24.3855  24.7729  24.7729  24.7729  24.7729
    24.8906  24.8908  24.8908  24.8910  25.7176  25.7178  26.2399  26.2399
    26.2400  26.2401  26.7269

          k = 0.0553 0.1660 0.1660 ( 30546 PWs)   bands (ev):

   -50.2179 -50.1452 -50.1452 -50.1257 -50.1080 -50.0980 -50.0917 -50.0917
   -50.0860 -50.0860 -50.0747 -50.0747 -50.0726 -50.0678 -50.0637 -50.0636
   -50.0631 -50.0631 -50.0571 -50.0571 -50.0506 -50.0506 -50.0433 -50.0183
   -50.0183 -50.0178 -50.0178 -50.0167 -50.0167 -50.0159 -50.0159 -50.0151
   -20.5956 -20.5956 -20.5844 -20.5727 -20.5337 -20.5298 -20.5298 -20.3928
   -20.3928 -20.3868 -20.3868 -20.3577 -20.3565 -20.3565 -20.3546 -20.3546
   -20.3505 -20.3505 -20.3453 -20.3453 -20.3267 -20.3267 -20.3243 -20.3243
   -20.2668 -20.2445 -20.2445 -20.2411 -20.2411 -20.2237 -20.2237 -20.2018
   -20.2018 -20.1858 -20.1697 -20.1151 -20.0944 -20.0944 -20.0585 -20.0585
   -20.0476 -20.0476 -20.0261 -20.0242 -20.0242 -20.0047 -20.0047 -19.9923
   -19.9923 -19.9897 -19.9897 -19.9880 -19.9879 -19.9878 -19.9866 -19.9866
   -19.9781 -19.9781 -19.9508 -19.9508 -19.9370 -19.8768 -19.8768 -19.8626
   -19.8626 -19.8398 -19.8355 -19.8269 -19.8126 -19.8126 -19.8119 -19.8119
   -19.8060 -19.8048 -19.8043 -19.8042 -19.8025 -19.8025 -19.7909 -19.7875
   -19.7875 -19.7847 -19.7845 -19.7845 -19.7767 -19.7751 -19.7751 -19.7744
   -19.7677 -19.7677 -19.7530 -19.7530 -19.7359 -19.6924 -19.6582 -19.6506
    15.2438  16.7798  16.7798  16.7868  16.9887  17.0409  17.0714  17.0714
    17.0924  17.0924  17.2274  17.2274  17.2550  17.4238  17.5905  17.5905
    17.6044  17.9676  17.9676  17.9942  17.9942  18.1575  18.1575  18.1586
    18.1586  18.1877  18.1877  18.2562  18.3309  18.3309  18.4586  18.4966
    18.4967  18.5143  18.5143  18.5468  18.7127  18.7817  18.7817  18.7875
    18.7875  18.8056  18.8056  18.9384  18.9384  19.1546  19.1546  19.2517
    19.2517  19.2777  19.3346  19.3347  19.3694  19.3694  19.4201  19.4201
    19.4320  19.6203  19.6203  19.6227  19.6227  19.7134  19.7134  19.7823
    19.7824  19.8240  19.8941  19.8941  20.0116  20.0116  20.0269  20.0269
    20.0600  20.0600  20.1028  20.1654  20.1654  20.1805  20.1926  20.2053
    20.2401  20.2401  20.2675  20.3126  20.3441  20.3441  20.3813  20.4057
    20.9153  21.0117  21.0511  21.0511  21.3009  21.3009  21.4629  21.4681
    21.4681  21.4756  21.4756  21.5464  21.5464  21.5677  21.5677  21.5932
    21.5932  21.7456  21.8106  21.9098  21.9098  21.9328  21.9328  21.9835
    22.0592  22.3381  22.3381  22.4490  22.4633  22.4633  22.4799  22.4799
    22.5197  22.5197  22.5431  22.5978  22.5978  22.6386  22.6695  22.6695
    22.7343  22.7343  22.7514  22.7930  22.7930  22.8881  22.9792  23.0363
    23.0363  23.0690  23.0690  23.1481  23.1592  23.1592  23.2821  23.2821
    23.4860  23.6783  23.8453  23.8477  23.8477  23.9853  23.9853  24.1538
    24.2624  24.2624  24.3263  24.4054  24.4054  24.4222  24.4262  24.6662
    24.6663  24.7666  24.7666  24.7702  24.7702  24.7877  24.7877  24.8307
    25.0321  25.3143  25.6583  25.6583  25.7511  25.7511  26.2731  26.2731
    26.7885  26.7885  26.8814

          k = 0.0553 0.1660 0.2767 ( 30522 PWs)   bands (ev):

   -50.2118 -50.1620 -50.1412 -50.1224 -50.1089 -50.1052 -50.0952 -50.0893
   -50.0849 -50.0824 -50.0757 -50.0747 -50.0741 -50.0701 -50.0694 -50.0617
   -50.0602 -50.0576 -50.0527 -50.0516 -50.0480 -50.0429 -50.0370 -50.0245
   -50.0211 -50.0207 -50.0206 -50.0182 -50.0181 -50.0170 -50.0157 -50.0151
   -20.5816 -20.5782 -20.5601 -20.5445 -20.5179 -20.5153 -20.5064 -20.4374
   -20.4289 -20.3968 -20.3955 -20.3924 -20.3923 -20.3891 -20.3686 -20.3651
   -20.3640 -20.3485 -20.3472 -20.3398 -20.3371 -20.3340 -20.3301 -20.3120
   -20.2945 -20.2597 -20.2453 -20.2285 -20.2279 -20.2151 -20.2090 -20.2071
   -20.1879 -20.1820 -20.1569 -20.1441 -20.1283 -20.0936 -20.0826 -20.0570
   -20.0478 -20.0429 -20.0219 -20.0130 -20.0084 -19.9938 -19.9926 -19.9900
   -19.9856 -19.9836 -19.9792 -19.9696 -19.9607 -19.9565 -19.9547 -19.9523
   -19.9520 -19.9483 -19.9170 -19.9147 -19.9062 -19.9019 -19.8924 -19.8914
   -19.8516 -19.8507 -19.8463 -19.8440 -19.8371 -19.8356 -19.8347 -19.8322
   -19.8232 -19.8177 -19.8100 -19.8056 -19.8055 -19.8031 -19.7974 -19.7936
   -19.7924 -19.7900 -19.7873 -19.7837 -19.7760 -19.7753 -19.7698 -19.7553
   -19.7548 -19.7528 -19.7490 -19.7377 -19.7265 -19.7254 -19.6689 -19.6562
    15.4089  16.6989  16.8766  16.8985  16.9029  17.0630  17.1317  17.1887
    17.2160  17.2322  17.3008  17.3473  17.3824  17.5043  17.5126  17.6924
    17.7211  17.7506  17.7891  17.8808  17.9298  18.0049  18.0274  18.0278
    18.0617  18.1102  18.1843  18.2128  18.2246  18.2447  18.2479  18.2696
    18.3916  18.4158  18.4243  18.5251  18.5653  18.6268  18.6292  18.8019
    18.8123  18.8358  18.8673  18.9861  19.0073  19.0692  19.0843  19.1162
    19.1277  19.1778  19.2088  19.2477  19.3228  19.3320  19.3667  19.4391
    19.4503  19.4886  19.6085  19.7172  19.7614  19.7870  19.8196  19.8437
    19.8787  19.9056  19.9338  19.9495  20.0185  20.0307  20.0586  20.0743
    20.0868  20.1593  20.1965  20.2213  20.2320  20.3006  20.3287  20.3377
    20.4038  20.4594  20.4614  20.4692  20.4754  20.4898  20.7109  20.7229
    20.7548  20.8074  20.8283  21.0483  21.0500  21.0526  21.2144  21.2520
    21.3294  21.3433  21.3792  21.5051  21.5390  21.5925  21.6617  21.7559
    21.7745  21.8106  21.8624  21.8973  21.9523  21.9641  22.0570  22.1382
    22.1679  22.2429  22.2486  22.2848  22.3015  22.3244  22.4295  22.4370
    22.4472  22.4524  22.5497  22.5724  22.6349  22.6761  22.7407  22.7532
    22.7707  22.7998  22.8020  22.9817  23.0741  23.0751  23.0942  23.1216
    23.1487  23.2991  23.3189  23.3601  23.3680  23.3720  23.3997  23.4166
    23.4241  23.5008  23.6127  23.7052  23.8602  23.9719  24.0693  24.0923
    24.1068  24.1775  24.2043  24.3140  24.3331  24.3363  24.4807  24.4815
    24.5408  24.5435  24.6049  24.6614  24.7662  24.7716  24.7826  24.7946
    24.8412  25.2209  25.2518  25.6366  25.7537  26.0798  26.1637  26.2610
    26.2765  26.3467  27.2538

          k = 0.0553 0.1660 0.3873 ( 30527 PWs)   bands (ev):

   -50.2028 -50.1776 -50.1354 -50.1190 -50.1175 -50.1037 -50.1011 -50.0895
   -50.0858 -50.0832 -50.0785 -50.0761 -50.0732 -50.0708 -50.0604 -50.0590
   -50.0583 -50.0575 -50.0531 -50.0427 -50.0396 -50.0360 -50.0335 -50.0311
   -50.0264 -50.0259 -50.0246 -50.0215 -50.0179 -50.0173 -50.0155 -50.0152
   -20.5573 -20.5511 -20.5269 -20.5076 -20.4948 -20.4941 -20.4829 -20.4738
   -20.4720 -20.4415 -20.4340 -20.4294 -20.4165 -20.3907 -20.3855 -20.3735
   -20.3729 -20.3709 -20.3670 -20.3573 -20.3350 -20.3216 -20.3198 -20.3014
   -20.2790 -20.2641 -20.2581 -20.2399 -20.2383 -20.2104 -20.1878 -20.1854
   -20.1802 -20.1683 -20.1596 -20.1425 -20.1271 -20.1152 -20.1149 -20.0974
   -20.0747 -20.0466 -19.9924 -19.9909 -19.9873 -19.9835 -19.9819 -19.9779
   -19.9721 -19.9637 -19.9629 -19.9395 -19.9334 -19.9297 -19.9282 -19.9255
   -19.9207 -19.9197 -19.9126 -19.9060 -19.8860 -19.8849 -19.8840 -19.8754
   -19.8718 -19.8707 -19.8695 -19.8694 -19.8690 -19.8635 -19.8634 -19.8381
   -19.8356 -19.8315 -19.8163 -19.8133 -19.8087 -19.8073 -19.8070 -19.8013
   -19.7987 -19.7961 -19.7815 -19.7813 -19.7773 -19.7739 -19.7690 -19.7650
   -19.7575 -19.7516 -19.7386 -19.7284 -19.7241 -19.7105 -19.6845 -19.6687
    15.6498  16.3146  17.0133  17.0610  17.0796  17.1917  17.2756  17.3519
    17.3558  17.3904  17.4096  17.4203  17.5043  17.5258  17.5444  17.5694
    17.6047  17.6342  17.7154  17.7267  17.7912  17.8124  17.8795  17.9079
    17.9207  17.9222  18.0505  18.0938  18.0976  18.1069  18.2792  18.3011
    18.3652  18.3745  18.3888  18.4309  18.5308  18.7251  18.7307  18.7447
    18.7595  18.8552  18.8756  18.9177  18.9337  18.9682  18.9854  18.9940
    19.0335  19.0507  19.1835  19.1845  19.1933  19.2978  19.4547  19.4607
    19.4699  19.5381  19.7329  19.7330  19.7832  19.7990  19.8345  19.8381
    19.8614  19.9022  19.9211  19.9851  19.9888  19.9947  20.0417  20.0553
    20.1642  20.1689  20.1878  20.3882  20.4476  20.4744  20.4983  20.5338
    20.5918  20.6132  20.6197  20.6210  20.6356  20.6381  20.6390  20.6707
    20.7629  20.8527  20.9014  20.9349  20.9927  21.0019  21.0903  21.1174
    21.3246  21.4088  21.4672  21.5370  21.5487  21.5999  21.7050  21.7611
    21.7797  21.8096  21.8555  21.8632  21.8740  21.8771  21.9477  22.0133
    22.0770  22.1342  22.2290  22.2532  22.2751  22.3346  22.3631  22.3836
    22.3913  22.4952  22.5370  22.5500  22.6329  22.6680  22.6747  22.7517
    22.7997  22.8392  22.9778  23.0135  23.0624  23.0657  23.1384  23.1539
    23.3325  23.3616  23.4280  23.5201  23.6381  23.6423  23.6630  23.6711
    23.6934  23.7046  23.7162  23.8067  23.8197  23.8986  23.9007  23.9966
    24.0719  24.1748  24.1806  24.2397  24.2404  24.2408  24.2445  24.2538
    24.3885  24.3928  24.4638  24.7000  24.7660  24.7671  24.7733  24.7780
    24.7783  24.9630  25.2342  25.4647  25.5035  25.6533  25.7982  25.9968
    26.4871  26.8088  27.0829

          k = 0.0553 0.1660-0.4980 ( 30534 PWs)   bands (ev):

   -50.1914 -50.1912 -50.1280 -50.1278 -50.1113 -50.1111 -50.0959 -50.0957
   -50.0815 -50.0813 -50.0811 -50.0810 -50.0722 -50.0720 -50.0593 -50.0592
   -50.0552 -50.0550 -50.0453 -50.0451 -50.0340 -50.0338 -50.0323 -50.0321
   -50.0299 -50.0297 -50.0260 -50.0258 -50.0177 -50.0176 -50.0154 -50.0153
   -20.5239 -20.5239 -20.5157 -20.5156 -20.4866 -20.4865 -20.4668 -20.4666
   -20.4651 -20.4650 -20.4642 -20.4641 -20.4274 -20.4273 -20.3819 -20.3819
   -20.3745 -20.3744 -20.3734 -20.3733 -20.3216 -20.3216 -20.2999 -20.2998
   -20.2701 -20.2701 -20.2631 -20.2630 -20.2192 -20.2192 -20.1873 -20.1872
   -20.1586 -20.1585 -20.1438 -20.1436 -20.1412 -20.1412 -20.1065 -20.1064
   -20.0781 -20.0779 -19.9918 -19.9916 -19.9822 -19.9821 -19.9576 -19.9575
   -19.9438 -19.9436 -19.9399 -19.9397 -19.9335 -19.9335 -19.9147 -19.9146
   -19.9053 -19.9052 -19.8990 -19.8989 -19.8963 -19.8962 -19.8943 -19.8942
   -19.8927 -19.8925 -19.8659 -19.8658 -19.8587 -19.8585 -19.8406 -19.8404
   -19.8389 -19.8388 -19.8247 -19.8246 -19.8224 -19.8223 -19.8034 -19.8032
   -19.7991 -19.7989 -19.7927 -19.7926 -19.7792 -19.7790 -19.7610 -19.7608
   -19.7604 -19.7603 -19.7285 -19.7284 -19.7046 -19.7044 -19.6872 -19.6871
    15.9566  15.9569  17.1781  17.1782  17.2669  17.2671  17.2990  17.2992
    17.3731  17.3732  17.4710  17.4710  17.5522  17.5524  17.5615  17.5617
    17.6129  17.6129  17.6522  17.6522  17.7609  17.7611  17.7755  17.7757
    17.8102  17.8103  17.9512  17.9514  18.1376  18.1378  18.1990  18.1991
    18.4767  18.4767  18.4933  18.4935  18.5462  18.5463  18.6351  18.6352
    18.8696  18.8696  18.9068  18.9070  18.9348  18.9349  18.9670  18.9670
    19.0364  19.0364  19.1032  19.1033  19.1235  19.1236  19.5886  19.5887
    19.6383  19.6384  19.6565  19.6566  19.7111  19.7113  19.7610  19.7610
    19.9180  19.9182  19.9283  19.9284  20.1105  20.1106  20.1341  20.1342
    20.2119  20.2119  20.2503  20.2503  20.3124  20.3124  20.4933  20.4934
    20.5991  20.5991  20.6913  20.6914  20.7659  20.7661  20.7735  20.7736
    20.8050  20.8051  20.8373  20.8373  21.2418  21.2418  21.2814  21.2815
    21.3173  21.3173  21.3659  21.3660  21.5394  21.5395  21.5439  21.5440
    21.7968  21.7970  21.9638  21.9638  21.9903  21.9904  22.0357  22.0357
    22.0468  22.0470  22.1107  22.1108  22.1726  22.1728  22.2795  22.2797
    22.4687  22.4688  22.4924  22.4925  22.5939  22.5940  22.8534  22.8536
    22.8849  22.8850  22.8908  22.8910  22.9582  22.9584  23.4042  23.4044
    23.4868  23.4870  23.4981  23.4981  23.7129  23.7129  23.7672  23.7672
    23.8906  23.8908  23.9428  23.9429  23.9438  23.9439  23.9646  23.9647
    23.9647  23.9648  23.9725  23.9726  23.9824  23.9825  24.1681  24.1681
    24.3056  24.3057  24.7235  24.7235  24.7703  24.7704  24.7753  24.7755
    25.0161  25.0163  25.2375  25.2377  25.2437  25.2437  25.7733  25.7735
    26.8282  26.8284  27.2512

          k = 0.0553 0.2767 0.2767 ( 30547 PWs)   bands (ev):

   -50.2058 -50.1576 -50.1576 -50.1212 -50.1192 -50.1026 -50.0936 -50.0935
   -50.0813 -50.0813 -50.0802 -50.0728 -50.0728 -50.0724 -50.0578 -50.0578
   -50.0573 -50.0573 -50.0490 -50.0490 -50.0445 -50.0445 -50.0320 -50.0242
   -50.0241 -50.0236 -50.0236 -50.0215 -50.0215 -50.0175 -50.0174 -50.0154
   -20.5683 -20.5683 -20.5335 -20.5136 -20.5024 -20.4946 -20.4946 -20.4368
   -20.4368 -20.4331 -20.4331 -20.3973 -20.3973 -20.3757 -20.3757 -20.3712
   -20.3712 -20.3686 -20.3686 -20.3612 -20.3612 -20.3350 -20.3350 -20.3350
   -20.3208 -20.3208 -20.2431 -20.2350 -20.2092 -20.2092 -20.1905 -20.1905
   -20.1817 -20.1753 -20.1438 -20.1438 -20.0745 -20.0745 -20.0742 -20.0473
   -20.0473 -20.0421 -20.0421 -20.0107 -20.0107 -19.9890 -19.9890 -19.9785
   -19.9785 -19.9728 -19.9724 -19.9723 -19.9590 -19.9590 -19.9382 -19.9382
   -19.9212 -19.9212 -19.9193 -19.9193 -19.8853 -19.8853 -19.8836 -19.8836
   -19.8698 -19.8698 -19.8680 -19.8605 -19.8401 -19.8401 -19.8385 -19.8324
   -19.8324 -19.8295 -19.8294 -19.8294 -19.8038 -19.8038 -19.8018 -19.8018
   -19.7991 -19.7924 -19.7794 -19.7775 -19.7775 -19.7755 -19.7677 -19.7677
   -19.7624 -19.7520 -19.7520 -19.7234 -19.7234 -19.7120 -19.6797 -19.6560
    15.5688  16.8216  16.8216  16.9917  17.0008  17.0008  17.1127  17.1974
    17.3626  17.3626  17.4183  17.4183  17.5196  17.5456  17.6358  17.6358
    17.7146  17.7502  17.7900  17.7900  17.7982  17.7982  17.9009  17.9009
    17.9370  17.9370  18.0262  18.0262  18.2236  18.2969  18.2969  18.3115
    18.3115  18.3548  18.3548  18.4364  18.4364  18.5310  18.5310  18.6026
    18.6026  18.7254  18.8681  18.8681  18.9339  18.9339  18.9413  19.1791
    19.1792  19.1969  19.1969  19.2287  19.2404  19.2404  19.2972  19.6242
    19.6242  19.7413  19.7413  19.8112  19.8112  19.8765  19.8765  19.9148
    19.9148  19.9318  19.9318  20.0207  20.0369  20.1084  20.1084  20.1819
    20.1969  20.2492  20.2492  20.4004  20.4004  20.4183  20.4724  20.4957
    20.5055  20.5331  20.5331  20.5575  20.5910  20.6031  20.6073  20.6074
    20.7562  20.7563  20.8879  20.8879  21.1149  21.1149  21.2494  21.2494
    21.3051  21.3051  21.3999  21.3999  21.4266  21.4970  21.5188  21.5189
    21.5562  21.5562  21.7291  21.7511  21.8794  21.9075  21.9076  21.9077
    21.9077  22.0290  22.1055  22.2360  22.2360  22.3788  22.3962  22.3962
    22.6728  22.6821  22.6821  22.8070  22.8070  22.8330  22.8330  22.9284
    22.9353  22.9493  22.9493  23.0318  23.0318  23.1361  23.1361  23.1433
    23.1433  23.1933  23.1933  23.4513  23.4780  23.4780  23.5348  23.6246
    23.6246  23.6281  23.6501  23.6501  23.8019  23.8528  24.0234  24.0234
    24.2229  24.3473  24.3473  24.3718  24.3747  24.3747  24.3803  24.4047
    24.5462  24.5462  24.5476  24.5476  24.5872  24.5872  24.5970  24.5970
    24.6924  25.0531  25.1426  25.1426  25.6508  25.6508  26.7071  26.7071
    26.9430  27.0041  27.0041

          k = 0.0553 0.2767 0.3873 ( 30522 PWs)   bands (ev):

   -50.1971 -50.1726 -50.1510 -50.1325 -50.1146 -50.1015 -50.0987 -50.0911
   -50.0879 -50.0843 -50.0797 -50.0751 -50.0701 -50.0624 -50.0576 -50.0547
   -50.0533 -50.0505 -50.0468 -50.0465 -50.0411 -50.0380 -50.0329 -50.0282
   -50.0281 -50.0275 -50.0274 -50.0236 -50.0223 -50.0201 -50.0168 -50.0157
   -20.5480 -20.5453 -20.4988 -20.4803 -20.4795 -20.4772 -20.4753 -20.4749
   -20.4640 -20.4289 -20.4289 -20.4279 -20.4152 -20.4132 -20.3972 -20.3956
   -20.3947 -20.3823 -20.3786 -20.3760 -20.3570 -20.3535 -20.3371 -20.3318
   -20.3257 -20.2967 -20.2676 -20.2666 -20.2379 -20.2140 -20.1726 -20.1634
   -20.1534 -20.1327 -20.1250 -20.1053 -20.1043 -20.1026 -20.0821 -20.0734
   -20.0350 -20.0339 -20.0173 -20.0046 -19.9968 -19.9944 -19.9776 -19.9746
   -19.9651 -19.9615 -19.9587 -19.9489 -19.9446 -19.9432 -19.9304 -19.9237
   -19.9152 -19.9138 -19.9133 -19.9121 -19.9049 -19.8927 -19.8826 -19.8797
   -19.8761 -19.8723 -19.8585 -19.8584 -19.8584 -19.8508 -19.8501 -19.8490
   -19.8368 -19.8275 -19.8253 -19.8195 -19.8156 -19.8147 -19.8133 -19.8126
   -19.8088 -19.7943 -19.7897 -19.7858 -19.7852 -19.7820 -19.7806 -19.7689
   -19.7563 -19.7560 -19.7403 -19.7113 -19.7047 -19.6978 -19.6956 -19.6631
    15.8019  16.4467  16.9984  17.1322  17.1391  17.1793  17.2131  17.3123
    17.4758  17.4819  17.5236  17.5390  17.5423  17.5519  17.5601  17.5930
    17.5932  17.6509  17.6847  17.7151  17.7219  17.7526  17.8249  17.8304
    17.8535  17.8690  18.0180  18.0329  18.0613  18.0673  18.1054  18.1702
    18.2352  18.3259  18.3896  18.4503  18.4516  18.4596  18.5027  18.5061
    18.5974  18.6813  18.7091  18.7832  18.8210  18.9492  18.9525  18.9872
    19.0558  19.1410  19.2695  19.2771  19.3062  19.3166  19.4836  19.5279
    19.5701  19.5910  19.6632  19.8039  19.8889  19.8917  19.9727  19.9982
    20.0121  20.0307  20.0420  20.1274  20.1610  20.1829  20.1862  20.2963
    20.2968  20.3649  20.3862  20.4093  20.4111  20.4450  20.5253  20.5748
    20.6143  20.6220  20.6538  20.6579  20.6727  20.7552  20.7806  20.7854
    20.7924  20.8633  20.8956  20.9081  20.9949  21.0571  21.1016  21.1977
    21.2586  21.2647  21.2969  21.3151  21.3540  21.3774  21.4012  21.4037
    21.5083  21.5242  21.5459  21.6084  21.7256  21.7582  21.7710  21.8183
    21.9308  21.9370  22.1012  22.1247  22.2452  22.2827  22.3606  22.4346
    22.5863  22.6124  22.6222  22.6676  22.7405  22.8293  22.8900  22.8979
    22.9795  23.0120  23.0592  23.1634  23.1723  23.1878  23.2573  23.3181
    23.3662  23.3666  23.5206  23.5232  23.5245  23.5702  23.7469  23.7903
    23.8086  23.8238  23.8638  23.8701  23.8839  23.8895  23.8924  23.9324
    24.0017  24.1491  24.2159  24.2340  24.2349  24.2466  24.2645  24.2692
    24.2771  24.3426  24.5453  24.5531  24.5583  24.5716  24.6228  24.6622
    24.9824  25.1018  25.1243  25.1370  25.1828  25.5002  26.3656  26.3729
    27.1368  27.3126  27.6046

          k = 0.0553 0.2767-0.4980 ( 30538 PWs)   bands (ev):

   -50.1860 -50.1858 -50.1427 -50.1425 -50.1087 -50.1085 -50.0939 -50.0937
   -50.0881 -50.0879 -50.0777 -50.0775 -50.0667 -50.0665 -50.0525 -50.0523
   -50.0499 -50.0497 -50.0443 -50.0441 -50.0366 -50.0364 -50.0342 -50.0340
   -50.0323 -50.0321 -50.0235 -50.0233 -50.0231 -50.0229 -50.0163 -50.0161
   -20.5182 -20.5182 -20.5137 -20.5137 -20.4579 -20.4578 -20.4548 -20.4547
   -20.4503 -20.4501 -20.4303 -20.4302 -20.4242 -20.4241 -20.4168 -20.4168
   -20.4145 -20.4145 -20.3899 -20.3898 -20.3434 -20.3432 -20.3362 -20.3361
   -20.3027 -20.3026 -20.2617 -20.2617 -20.2556 -20.2555 -20.1374 -20.1373
   -20.1349 -20.1349 -20.1174 -20.1173 -20.1013 -20.1012 -20.0828 -20.0828
   -20.0660 -20.0658 -19.9764 -19.9762 -19.9736 -19.9734 -19.9714 -19.9712
   -19.9622 -19.9621 -19.9606 -19.9606 -19.9481 -19.9481 -19.9396 -19.9395
   -19.9118 -19.9117 -19.9034 -19.9033 -19.8878 -19.8877 -19.8864 -19.8863
   -19.8695 -19.8693 -19.8631 -19.8631 -19.8603 -19.8601 -19.8482 -19.8481
   -19.8352 -19.8350 -19.8212 -19.8211 -19.8198 -19.8197 -19.8194 -19.8194
   -19.8092 -19.8090 -19.7982 -19.7981 -19.7849 -19.7847 -19.7665 -19.7665
   -19.7621 -19.7619 -19.7161 -19.7159 -19.7047 -19.7046 -19.6774 -19.6773
    16.0992  16.0995  17.2203  17.2205  17.3059  17.3061  17.3179  17.3180
    17.3631  17.3632  17.4014  17.4016  17.4753  17.4754  17.6528  17.6529
    17.6616  17.6618  17.7587  17.7587  17.7783  17.7784  17.8055  17.8056
    17.8230  17.8232  17.9448  17.9449  17.9582  17.9583  18.0603  18.0604
    18.2577  18.2579  18.3612  18.3613  18.4670  18.4670  18.5887  18.5888
    18.5909  18.5911  18.7393  18.7394  18.8363  18.8364  18.8627  18.8627
    19.2228  19.2228  19.3068  19.3069  19.3885  19.3885  19.4072  19.4073
    19.4416  19.4417  19.7043  19.7044  19.9481  19.9483  20.0440  20.0442
    20.0683  20.0683  20.1630  20.1631  20.1719  20.1719  20.2152  20.2153
    20.3027  20.3028  20.4426  20.4426  20.5505  20.5507  20.6509  20.6509
    20.6558  20.6558  20.7251  20.7252  20.7651  20.7652  20.7817  20.7818
    20.9467  20.9467  20.9727  20.9727  20.9877  20.9877  21.0041  21.0042
    21.1745  21.1745  21.1781  21.1782  21.2831  21.2832  21.2913  21.2914
    21.4988  21.4989  21.7136  21.7136  21.8649  21.8650  21.8827  21.8827
    21.9262  21.9263  21.9664  21.9665  22.0737  22.0739  22.2536  22.2537
    22.4508  22.4509  22.7596  22.7597  22.7968  22.7969  22.8587  22.8589
    22.9994  22.9995  23.2481  23.2483  23.2882  23.2884  23.4010  23.4012
    23.4945  23.4947  23.5666  23.5666  23.6464  23.6464  23.6469  23.6469
    23.8964  23.8964  23.8969  23.8971  24.0004  24.0005  24.0658  24.0659
    24.0661  24.0662  24.0856  24.0856  24.1058  24.1059  24.1077  24.1077
    24.2076  24.2077  24.5606  24.5608  24.5814  24.5815  24.6284  24.6284
    24.7779  24.7781  25.3129  25.3130  25.7079  25.7080  25.7821  25.7821
    27.4920  27.4922  27.8188

          k = 0.0553 0.3873 0.3873 ( 30524 PWs)   bands (ev):

   -50.1888 -50.1654 -50.1654 -50.1451 -50.1103 -50.0984 -50.0984 -50.0953
   -50.0897 -50.0856 -50.0856 -50.0791 -50.0556 -50.0556 -50.0500 -50.0499
   -50.0495 -50.0494 -50.0433 -50.0433 -50.0410 -50.0410 -50.0321 -50.0321
   -50.0315 -50.0315 -50.0295 -50.0295 -50.0241 -50.0187 -50.0187 -50.0165
   -20.5292 -20.5292 -20.4696 -20.4696 -20.4677 -20.4677 -20.4635 -20.4572
   -20.4521 -20.4521 -20.4350 -20.4265 -20.4265 -20.4176 -20.4176 -20.3946
   -20.3946 -20.3810 -20.3810 -20.3794 -20.3794 -20.3788 -20.3788 -20.3427
   -20.3427 -20.3413 -20.3037 -20.2611 -20.2554 -20.2051 -20.2050 -20.1369
   -20.1172 -20.1172 -20.0846 -20.0845 -20.0784 -20.0489 -20.0489 -20.0348
   -20.0348 -20.0336 -20.0336 -20.0182 -20.0182 -19.9717 -19.9717 -19.9715
   -19.9715 -19.9583 -19.9583 -19.9511 -19.9496 -19.9496 -19.9463 -19.9463
   -19.9339 -19.9339 -19.9046 -19.9046 -19.8968 -19.8968 -19.8935 -19.8848
   -19.8848 -19.8616 -19.8616 -19.8573 -19.8508 -19.8508 -19.8507 -19.8507
   -19.8335 -19.8289 -19.8289 -19.8278 -19.8278 -19.8212 -19.8137 -19.8067
   -19.8016 -19.7961 -19.7922 -19.7905 -19.7905 -19.7840 -19.7794 -19.7626
   -19.7626 -19.7577 -19.7577 -19.7119 -19.6922 -19.6892 -19.6892 -19.6644
    16.0239  16.6385  16.6386  17.1661  17.2473  17.2791  17.3203  17.3203
    17.3912  17.5381  17.5381  17.5577  17.6133  17.6133  17.6693  17.6693
    17.6718  17.6719  17.6929  17.6929  17.7053  17.7233  17.7233  17.8022
    17.8023  17.8740  17.9161  17.9847  17.9847  18.1688  18.1688  18.1735
    18.1735  18.1766  18.1766  18.1871  18.1871  18.4201  18.4201  18.4340
    18.4340  18.4848  18.4848  18.7352  18.7352  18.8576  19.0688  19.0688
    19.0749  19.0749  19.2306  19.3962  19.3962  19.4105  19.4164  19.4878
    19.4878  19.8072  19.8159  19.8160  19.9802  20.0709  20.0709  20.1906
    20.1980  20.1980  20.2042  20.2042  20.2167  20.2167  20.2441  20.2441
    20.3236  20.3716  20.5233  20.5233  20.6158  20.6158  20.6373  20.6865
    20.6878  20.6940  20.7102  20.7502  20.7994  20.7994  20.8253  20.8254
    20.9715  20.9715  20.9804  20.9880  20.9880  21.0179  21.0179  21.0575
    21.1406  21.1406  21.1663  21.1663  21.1929  21.2039  21.2378  21.2378
    21.2606  21.2606  21.4037  21.4738  21.4738  21.5038  21.5039  21.7779
    21.9256  21.9256  21.9395  21.9395  22.0200  22.0200  22.0815  22.1713
    22.4792  22.7984  22.8487  22.8487  22.8698  22.8698  23.1302  23.1302
    23.1421  23.1421  23.2389  23.2389  23.2986  23.2986  23.3672  23.4038
    23.5470  23.5470  23.6496  23.6777  23.6777  23.6941  23.6941  23.7031
    23.7031  23.7875  23.8952  23.9923  24.0254  24.0483  24.0483  24.0512
    24.0512  24.0938  24.1587  24.2114  24.2114  24.2572  24.2572  24.2712
    24.2712  24.2957  24.3009  24.3009  24.3179  24.3179  24.4849  24.5128
    24.5128  24.8428  25.0012  25.0012  25.7531  25.7531  27.0163  27.0163
    27.0878  27.0878  27.8043

          k = 0.0553 0.3873-0.4980 ( 30502 PWs)   bands (ev):

   -50.1782 -50.1780 -50.1562 -50.1560 -50.1050 -50.1048 -50.0945 -50.0943
   -50.0909 -50.0907 -50.0827 -50.0825 -50.0531 -50.0529 -50.0462 -50.0460
   -50.0449 -50.0448 -50.0429 -50.0427 -50.0389 -50.0387 -50.0370 -50.0368
   -50.0360 -50.0358 -50.0310 -50.0308 -50.0213 -50.0211 -50.0176 -50.0174
   -20.5037 -20.5036 -20.5020 -20.5019 -20.4513 -20.4512 -20.4512 -20.4511
   -20.4367 -20.4365 -20.4286 -20.4285 -20.4228 -20.4227 -20.4192 -20.4190
   -20.4023 -20.4021 -20.3901 -20.3900 -20.3808 -20.3807 -20.3689 -20.3687
   -20.3421 -20.3420 -20.2995 -20.2994 -20.2360 -20.2360 -20.1708 -20.1708
   -20.0822 -20.0822 -20.0738 -20.0738 -20.0618 -20.0616 -20.0486 -20.0484
   -20.0240 -20.0240 -20.0005 -20.0003 -19.9968 -19.9966 -19.9949 -19.9949
   -19.9873 -19.9873 -19.9543 -19.9542 -19.9407 -19.9407 -19.9337 -19.9336
   -19.9191 -19.9190 -19.9122 -19.9122 -19.9117 -19.9117 -19.8947 -19.8946
   -19.8753 -19.8752 -19.8747 -19.8746 -19.8438 -19.8436 -19.8406 -19.8406
   -19.8405 -19.8404 -19.8330 -19.8329 -19.8101 -19.8099 -19.8060 -19.8059
   -19.8024 -19.8023 -19.7974 -19.7973 -19.7802 -19.7800 -19.7756 -19.7755
   -19.7711 -19.7709 -19.7329 -19.7327 -19.6870 -19.6870 -19.6733 -19.6733
    16.3070  16.3072  16.8820  16.8822  17.3883  17.3883  17.4083  17.4084
    17.4903  17.4904  17.5115  17.5115  17.5379  17.5379  17.5465  17.5467
    17.6782  17.6782  17.7228  17.7229  17.8241  17.8243  17.9043  17.9045
    17.9153  17.9155  17.9325  17.9325  17.9371  17.9372  17.9850  17.9852
    18.1572  18.1573  18.1876  18.1877  18.2959  18.2961  18.3260  18.3260
    18.3468  18.3468  18.6349  18.6349  18.8670  18.8672  18.8794  18.8796
    19.2156  19.2158  19.2266  19.2267  19.4672  19.4672  19.5408  19.5408
    19.6696  19.6697  19.7365  19.7365  19.9362  19.9364  20.1850  20.1852
    20.2327  20.2328  20.2901  20.2901  20.3702  20.3702  20.4207  20.4207
    20.5292  20.5293  20.5464  20.5465  20.5722  20.5722  20.7331  20.7331
    20.7473  20.7473  20.7693  20.7694  20.7925  20.7926  20.8242  20.8242
    20.8756  20.8757  20.9262  20.9263  20.9306  20.9307  20.9582  20.9583
    21.0725  21.0726  21.0798  21.0799  21.2232  21.2233  21.2462  21.2463
    21.2527  21.2528  21.4030  21.4030  21.6434  21.6436  21.6462  21.6462
    21.7010  21.7011  21.7199  21.7200  21.8689  21.8690  22.0457  22.0459
    22.6772  22.6774  22.9356  22.9358  23.0472  23.0473  23.0902  23.0904
    23.1202  23.1204  23.3505  23.3506  23.4252  23.4254  23.4450  23.4452
    23.5192  23.5193  23.6004  23.6006  23.7129  23.7129  23.8497  23.8499
    23.9137  23.9138  24.0021  24.0022  24.0685  24.0685  24.0703  24.0703
    24.0885  24.0886  24.1537  24.1537  24.1566  24.1567  24.1908  24.1908
    24.1952  24.1953  24.2738  24.2740  24.3278  24.3280  24.3843  24.3843
    24.5009  24.5010  24.8563  24.8565  26.3957  26.3957  26.4000  26.4001
    27.7243  27.7244  27.7962

          k = 0.0553-0.4980-0.4980 ( 30528 PWs)   bands (ev):

   -50.1683 -50.1681 -50.1681 -50.1679 -50.1003 -50.1001 -50.1001 -50.0999
   -50.0873 -50.0871 -50.0871 -50.0869 -50.0412 -50.0412 -50.0410 -50.0410
   -50.0410 -50.0410 -50.0408 -50.0408 -50.0407 -50.0407 -50.0405 -50.0405
   -50.0405 -50.0405 -50.0403 -50.0403 -50.0193 -50.0192 -50.0192 -50.0190
   -20.4809 -20.4809 -20.4809 -20.4809 -20.4808 -20.4808 -20.4808 -20.4808
   -20.4120 -20.4120 -20.4119 -20.4119 -20.4119 -20.4119 -20.4117 -20.4117
   -20.4012 -20.4010 -20.4010 -20.4008 -20.3835 -20.3834 -20.3834 -20.3833
   -20.3457 -20.3456 -20.3456 -20.3455 -20.2044 -20.2044 -20.2044 -20.2044
   -20.0323 -20.0323 -20.0323 -20.0323 -20.0323 -20.0323 -20.0323 -20.0323
   -20.0266 -20.0266 -20.0264 -20.0264 -20.0264 -20.0264 -20.0263 -20.0262
   -19.9666 -19.9666 -19.9666 -19.9666 -19.9267 -19.9267 -19.9266 -19.9265
   -19.9265 -19.9265 -19.9264 -19.9264 -19.9242 -19.9242 -19.9242 -19.9242
   -19.8593 -19.8593 -19.8592 -19.8592 -19.8591 -19.8591 -19.8590 -19.8590
   -19.8250 -19.8249 -19.8249 -19.8248 -19.8116 -19.8116 -19.8116 -19.8116
   -19.7900 -19.7900 -19.7899 -19.7899 -19.7855 -19.7853 -19.7853 -19.7853
   -19.7546 -19.7544 -19.7544 -19.7542 -19.6764 -19.6764 -19.6764 -19.6764
    16.5717  16.5719  16.5719  16.5721  17.4474  17.4475  17.4475  17.4475
    17.5430  17.5431  17.5431  17.5431  17.5793  17.5794  17.5794  17.5794
    17.7213  17.7213  17.7215  17.7215  17.7215  17.7215  17.7217  17.7217
    18.0371  18.0371  18.0373  18.0373  18.0373  18.0373  18.0375  18.0375
    18.1274  18.1274  18.1274  18.1274  18.1274  18.1274  18.1274  18.1275
    18.3899  18.3899  18.3899  18.3900  19.0306  19.0306  19.0308  19.0308
    19.0308  19.0308  19.0310  19.0310  19.5913  19.5913  19.5914  19.5914
    19.8149  19.8151  19.8151  19.8152  20.0861  20.0862  20.0862  20.0863
    20.3078  20.3079  20.3079  20.3079  20.3158  20.3159  20.3159  20.3159
    20.6603  20.6603  20.6603  20.6603  20.6603  20.6604  20.6604  20.6604
    20.7718  20.7719  20.7719  20.7720  20.9070  20.9070  20.9070  20.9071
    20.9216  20.9217  20.9217  20.9217  21.0601  21.0602  21.0602  21.0603
    21.0660  21.0660  21.0660  21.0660  21.0661  21.0661  21.0661  21.0661
    21.3318  21.3319  21.3319  21.3320  21.4645  21.4645  21.4646  21.4646
    21.4646  21.4646  21.4647  21.4647  21.9570  21.9571  21.9572  21.9573
    22.9106  22.9107  22.9107  22.9109  23.1061  23.1063  23.1063  23.1064
    23.3125  23.3125  23.3126  23.3126  23.3126  23.3126  23.3127  23.3127
    23.8224  23.8225  23.8225  23.8226  23.9455  23.9455  23.9456  23.9456
    23.9457  23.9457  23.9458  23.9458  23.9460  23.9461  23.9461  23.9462
    24.1758  24.1758  24.1759  24.1759  24.2050  24.2050  24.2050  24.2051
    24.2051  24.2051  24.2051  24.2051  24.2158  24.2158  24.2158  24.2158
    24.4703  24.4704  24.4704  24.4704  27.0765  27.0765  27.0765  27.0766
    27.0766  27.0766  27.0767

          k = 0.1660 0.1660 0.1660 ( 30548 PWs)   bands (ev):

   -50.2148 -50.1432 -50.1432 -50.1432 -50.0972 -50.0972 -50.0972 -50.0905
   -50.0905 -50.0905 -50.0774 -50.0637 -50.0636 -50.0636 -50.0636 -50.0636
   -50.0636 -50.0631 -50.0631 -50.0630 -50.0441 -50.0441 -50.0441 -50.0183
   -50.0183 -50.0183 -50.0179 -50.0178 -50.0178 -50.0178 -50.0178 -50.0177
   -20.5853 -20.5853 -20.5853 -20.5504 -20.5226 -20.5226 -20.5226 -20.3932
   -20.3932 -20.3932 -20.3753 -20.3753 -20.3753 -20.3753 -20.3753 -20.3753
   -20.3562 -20.3562 -20.3562 -20.3562 -20.3562 -20.3562 -20.2926 -20.2926
   -20.2925 -20.2540 -20.2540 -20.2540 -20.2085 -20.2085 -20.2085 -20.2085
   -20.2085 -20.2085 -20.1288 -20.1288 -20.1288 -20.0440 -20.0440 -20.0440
   -20.0226 -20.0226 -20.0226 -20.0226 -20.0226 -20.0226 -20.0199 -20.0199
   -20.0199 -19.9830 -19.9830 -19.9830 -19.9777 -19.9777 -19.9777 -19.9777
   -19.9777 -19.9777 -19.9159 -19.9159 -19.9159 -19.8747 -19.8747 -19.8747
   -19.8646 -19.8646 -19.8646 -19.8254 -19.8254 -19.8254 -19.8182 -19.8182
   -19.8182 -19.8024 -19.8024 -19.8024 -19.8024 -19.8024 -19.8024 -19.7925
   -19.7925 -19.7925 -19.7769 -19.7769 -19.7769 -19.7708 -19.7708 -19.7708
   -19.7689 -19.7689 -19.7372 -19.7372 -19.7372 -19.7143 -19.6558 -19.6558
    15.3261  16.8365  16.8365  16.8365  16.9887  17.1209  17.1209  17.1209
    17.1436  17.1436  17.1436  17.2917  17.2917  17.2917  17.6376  17.6376
    17.6376  18.0238  18.0238  18.0238  18.0239  18.0239  18.0239  18.0302
    18.0302  18.0302  18.2172  18.2172  18.2173  18.4338  18.4338  18.4338
    18.4548  18.4549  18.4549  18.4549  18.4549  18.4549  18.7940  18.7940
    18.7940  18.7940  18.7940  18.7940  18.9742  18.9742  18.9742  19.3005
    19.3005  19.3005  19.4522  19.4523  19.4523  19.4523  19.4523  19.4523
    19.5853  19.5853  19.5854  19.6621  19.6622  19.6622  19.6622  19.6622
    19.6622  19.9674  19.9674  19.9674  20.1406  20.1406  20.1406  20.1632
    20.1747  20.1747  20.1747  20.1747  20.1747  20.1747  20.2094  20.2094
    20.2094  20.2698  20.2698  20.4041  20.4041  20.4041  20.4209  20.4209
    20.9403  20.9403  20.9403  21.2195  21.2195  21.2195  21.2727  21.2727
    21.2727  21.4560  21.4560  21.4560  21.6516  21.6516  21.6516  21.7041
    21.7041  21.7041  21.7041  21.7041  21.7041  22.1078  22.1078  22.1078
    22.2730  22.2730  22.2730  22.3903  22.3904  22.3904  22.4185  22.4185
    22.4185  22.4896  22.4896  22.4897  22.4897  22.4897  22.4897  22.5732
    22.5732  22.8760  23.0498  23.0498  23.0498  23.0498  23.0498  23.0498
    23.3009  23.3009  23.3009  23.3148  23.3148  23.3148  23.4042  23.4042
    23.4042  23.7031  23.7031  23.7031  23.8725  23.8725  23.8725  24.0701
    24.0701  24.0701  24.1533  24.1533  24.4473  24.4473  24.4473  24.6688
    24.6688  24.6688  24.6688  24.6688  24.6688  24.7808  24.7808  24.7808
    25.2577  25.2577  25.2577  25.7460  25.7460  25.7460  26.8367  26.8367
    26.8367  26.8367  26.8367

          k = 0.1660 0.1660 0.2767 ( 30552 PWs)   bands (ev):

   -50.2088 -50.1598 -50.1393 -50.1393 -50.1078 -50.1078 -50.0955 -50.0883
   -50.0882 -50.0819 -50.0738 -50.0698 -50.0698 -50.0636 -50.0635 -50.0632
   -50.0631 -50.0587 -50.0530 -50.0530 -50.0457 -50.0380 -50.0380 -50.0243
   -50.0217 -50.0217 -50.0201 -50.0200 -50.0183 -50.0182 -50.0179 -50.0178
   -20.5752 -20.5651 -20.5651 -20.5186 -20.5083 -20.5083 -20.5007 -20.4397
   -20.4144 -20.4144 -20.3933 -20.3933 -20.3888 -20.3888 -20.3885 -20.3885
   -20.3709 -20.3709 -20.3590 -20.3590 -20.3573 -20.3573 -20.3346 -20.3178
   -20.2709 -20.2709 -20.2531 -20.2531 -20.2157 -20.2157 -20.1845 -20.1845
   -20.1700 -20.1700 -20.1603 -20.1603 -20.0777 -20.0777 -20.0723 -20.0581
   -20.0581 -20.0408 -20.0408 -20.0076 -19.9880 -19.9880 -19.9834 -19.9834
   -19.9786 -19.9785 -19.9769 -19.9769 -19.9743 -19.9730 -19.9584 -19.9584
   -19.9533 -19.9533 -19.9080 -19.8921 -19.8848 -19.8848 -19.8830 -19.8829
   -19.8829 -19.8555 -19.8552 -19.8552 -19.8443 -19.8443 -19.8342 -19.8342
   -19.8336 -19.8336 -19.8226 -19.8060 -19.8060 -19.8021 -19.8021 -19.8001
   -19.7974 -19.7974 -19.7864 -19.7864 -19.7744 -19.7614 -19.7575 -19.7575
   -19.7490 -19.7489 -19.7398 -19.7391 -19.7283 -19.7283 -19.6661 -19.6592
    15.4880  16.7539  16.9328  16.9479  16.9479  17.0419  17.2161  17.2161
    17.2453  17.2453  17.2935  17.3647  17.4186  17.4186  17.5528  17.7277
    17.7277  17.7599  17.8033  17.8033  17.8607  17.8607  17.9929  18.0770
    18.0771  18.1286  18.1286  18.1332  18.1333  18.2220  18.3282  18.3282
    18.3368  18.3368  18.3588  18.3589  18.4459  18.4459  18.5460  18.5460
    18.8052  18.8052  18.8259  18.8259  19.0439  19.0439  19.1759  19.1759
    19.2212  19.2212  19.2354  19.2838  19.3129  19.3129  19.5060  19.5060
    19.5136  19.5136  19.6705  19.6705  19.6942  19.6942  19.8098  19.8921
    19.8921  19.9802  20.0623  20.0623  20.0718  20.1048  20.1048  20.1766
    20.1766  20.1891  20.1891  20.2961  20.3021  20.3146  20.3146  20.3197
    20.4862  20.5000  20.5108  20.5138  20.5138  20.5397  20.7102  20.7102
    20.7758  20.7758  20.9551  20.9552  20.9674  20.9731  21.1954  21.2303
    21.2303  21.3967  21.3967  21.4168  21.4270  21.4270  21.6688  21.8113
    21.8114  21.8453  21.8453  21.9185  21.9463  21.9463  22.0255  22.0255
    22.0526  22.1903  22.1903  22.2635  22.2635  22.2823  22.2824  22.3904
    22.4250  22.4250  22.4485  22.4879  22.4879  22.6146  22.6327  22.7304
    22.7517  22.7517  23.0984  23.0984  23.1276  23.1532  23.1532  23.3762
    23.3762  23.3810  23.3810  23.3865  23.3865  23.4333  23.5213  23.5213
    23.5464  23.5464  23.5619  23.8989  23.8989  23.9066  23.9175  23.9891
    24.0635  24.1563  24.1563  24.2783  24.3891  24.4138  24.4138  24.4880
    24.4880  24.4900  24.4900  24.6744  24.6744  24.6885  24.7535  24.7535
    24.7869  24.7869  25.1455  25.9292  25.9292  26.3052  26.3052  26.4669
    26.6800  26.7444  26.7444

          k = 0.1660 0.1660 0.3873 ( 30495 PWs)   bands (ev):

   -50.2000 -50.1751 -50.1336 -50.1336 -50.1176 -50.1176 -50.0930 -50.0861
   -50.0849 -50.0849 -50.0755 -50.0755 -50.0636 -50.0634 -50.0633 -50.0632
   -50.0583 -50.0546 -50.0481 -50.0432 -50.0432 -50.0333 -50.0324 -50.0324
   -50.0273 -50.0273 -50.0233 -50.0233 -50.0182 -50.0181 -50.0179 -50.0178
   -20.5544 -20.5360 -20.5360 -20.4874 -20.4874 -20.4848 -20.4789 -20.4684
   -20.4577 -20.4577 -20.4288 -20.4288 -20.3939 -20.3939 -20.3839 -20.3839
   -20.3835 -20.3804 -20.3804 -20.3757 -20.3620 -20.3620 -20.3386 -20.3386
   -20.2925 -20.2925 -20.2161 -20.2161 -20.2098 -20.2098 -20.1868 -20.1868
   -20.1561 -20.1561 -20.1323 -20.1323 -20.1194 -20.1194 -20.0924 -20.0924
   -20.0667 -20.0667 -20.0125 -19.9896 -19.9764 -19.9764 -19.9762 -19.9761
   -19.9585 -19.9558 -19.9558 -19.9397 -19.9397 -19.9389 -19.9319 -19.9319
   -19.9246 -19.9246 -19.9174 -19.9081 -19.9032 -19.9032 -19.9014 -19.8680
   -19.8680 -19.8671 -19.8671 -19.8616 -19.8616 -19.8526 -19.8526 -19.8476
   -19.8410 -19.8410 -19.8186 -19.8145 -19.8145 -19.8070 -19.8036 -19.8036
   -19.8017 -19.8017 -19.7998 -19.7998 -19.7939 -19.7904 -19.7547 -19.7437
   -19.7426 -19.7426 -19.7265 -19.7265 -19.7231 -19.7109 -19.6811 -19.6699
    15.7242  16.3763  17.0685  17.1101  17.1101  17.1480  17.3493  17.3493
    17.3966  17.3966  17.4029  17.4732  17.4863  17.5122  17.5544  17.5544
    17.6045  17.6045  17.6842  17.6842  17.7906  17.8408  17.8408  17.8534
    17.8534  17.9675  18.1269  18.1269  18.1436  18.1436  18.1688  18.1689
    18.2853  18.2853  18.2871  18.2872  18.5148  18.5149  18.5668  18.5668
    18.8191  18.8191  18.8874  18.8874  18.9491  18.9491  19.0207  19.0207
    19.1042  19.1042  19.1433  19.1433  19.3593  19.3920  19.3920  19.4871
    19.5978  19.5978  19.6444  19.7187  19.7187  19.7980  19.7980  19.9183
    19.9308  19.9308  19.9453  19.9453  20.1878  20.1973  20.1973  20.2017
    20.2018  20.2890  20.3911  20.3911  20.4167  20.5514  20.5514  20.5999
    20.5999  20.6040  20.6156  20.6156  20.6181  20.6584  20.6633  20.6633
    20.7160  20.7441  20.8967  20.9029  20.9673  21.1660  21.1766  21.1766
    21.2759  21.2759  21.2899  21.2899  21.3552  21.3552  21.5778  21.5778
    21.6729  21.7937  21.9347  21.9764  21.9764  21.9975  21.9975  22.1366
    22.1677  22.1677  22.1731  22.1732  22.2124  22.2124  22.2781  22.3201
    22.3201  22.3381  22.3381  22.4451  22.4451  22.5308  22.5308  22.7202
    22.9658  22.9707  23.0606  23.0678  23.0682  23.0682  23.2016  23.2016
    23.4661  23.4661  23.6004  23.6004  23.6316  23.6736  23.6736  23.6739
    23.6910  23.6911  23.7149  23.7149  23.7590  23.7590  23.8236  24.2457
    24.2550  24.2550  24.2574  24.2593  24.2593  24.2625  24.2625  24.3412
    24.3412  24.5223  24.5637  24.6342  24.6594  24.6594  24.6842  24.6842
    24.7235  24.7235  24.9802  25.7598  25.7598  26.0228  26.1682  26.1682
    26.6001  26.6001  27.1321

          k = 0.1660 0.1660-0.4980 ( 30542 PWs)   bands (ev):

   -50.1887 -50.1885 -50.1264 -50.1264 -50.1262 -50.1262 -50.0900 -50.0898
   -50.0807 -50.0807 -50.0805 -50.0805 -50.0636 -50.0634 -50.0634 -50.0632
   -50.0511 -50.0509 -50.0448 -50.0446 -50.0347 -50.0347 -50.0345 -50.0345
   -50.0275 -50.0275 -50.0274 -50.0273 -50.0182 -50.0180 -50.0180 -50.0178
   -20.5239 -20.5238 -20.4996 -20.4995 -20.4994 -20.4993 -20.4608 -20.4608
   -20.4606 -20.4606 -20.4330 -20.4329 -20.4265 -20.4263 -20.3922 -20.3922
   -20.3921 -20.3921 -20.3705 -20.3705 -20.3705 -20.3705 -20.3159 -20.3159
   -20.3158 -20.3158 -20.2063 -20.2063 -20.2062 -20.2062 -20.1645 -20.1645
   -20.1644 -20.1644 -20.1253 -20.1253 -20.1252 -20.1251 -20.0976 -20.0976
   -20.0974 -20.0974 -19.9759 -19.9758 -19.9758 -19.9757 -19.9665 -19.9663
   -19.9545 -19.9544 -19.9398 -19.9396 -19.9273 -19.9273 -19.9272 -19.9271
   -19.9007 -19.9007 -19.9006 -19.9006 -19.8979 -19.8979 -19.8978 -19.8977
   -19.8953 -19.8953 -19.8952 -19.8952 -19.8474 -19.8474 -19.8267 -19.8267
   -19.8266 -19.8266 -19.8261 -19.8261 -19.8259 -19.8259 -19.8156 -19.8155
   -19.8133 -19.8131 -19.8011 -19.8010 -19.8009 -19.8008 -19.7488 -19.7486
   -19.7317 -19.7317 -19.7316 -19.7316 -19.7004 -19.7002 -19.6875 -19.6875
    16.0252  16.0254  17.2315  17.2317  17.3058  17.3059  17.3160  17.3161
    17.3161  17.3163  17.5095  17.5095  17.5097  17.5097  17.5957  17.5957
    17.5959  17.5959  17.6159  17.6161  17.7148  17.7149  17.8433  17.8433
    17.8434  17.8434  18.0046  18.0046  18.0046  18.0047  18.2141  18.2142
    18.2142  18.2142  18.4594  18.4594  18.4596  18.4596  18.7466  18.7466
    18.7466  18.7466  18.8456  18.8456  18.8457  18.8457  18.9836  18.9836
    18.9836  18.9836  19.2641  19.2641  19.2642  19.2642  19.4878  19.4879
    19.6961  19.6961  19.6962  19.6963  19.7186  19.7188  19.8086  19.8086
    19.8087  19.8087  20.2058  20.2058  20.2059  20.2059  20.2543  20.2544
    20.2548  20.2548  20.2548  20.2549  20.4859  20.4859  20.4859  20.4859
    20.5590  20.5591  20.7552  20.7554  20.7742  20.7744  20.8050  20.8051
    20.8051  20.8051  20.9275  20.9276  21.1603  21.1603  21.1604  21.1604
    21.2009  21.2009  21.2861  21.2862  21.3177  21.3177  21.3179  21.3179
    21.9014  21.9014  21.9015  21.9015  22.0836  22.0836  22.0837  22.0837
    22.0886  22.0888  22.1743  22.1743  22.1744  22.1744  22.2884  22.2884
    22.2886  22.2886  22.3394  22.3394  22.3395  22.3395  22.6160  22.6162
    22.8337  22.8339  23.3096  23.3096  23.3349  23.3349  23.3351  23.3351
    23.3880  23.3881  23.3884  23.3885  23.3886  23.3887  23.9349  23.9349
    23.9349  23.9350  23.9852  23.9852  23.9853  23.9853  24.0100  24.0100
    24.0101  24.0101  24.0184  24.0184  24.0185  24.0185  24.0632  24.0633
    24.4142  24.4142  24.6998  24.7000  24.7000  24.7002  24.7678  24.7680
    25.2065  25.2066  25.2066  25.2066  25.3227  25.3229  26.4038  26.4038
    26.4039  26.4040  27.6797

          k = 0.1660 0.2767 0.2767 ( 30526 PWs)   bands (ev):

   -50.2029 -50.1554 -50.1554 -50.1356 -50.1198 -50.1056 -50.1056 -50.0879
   -50.0861 -50.0720 -50.0720 -50.0692 -50.0692 -50.0647 -50.0578 -50.0578
   -50.0573 -50.0573 -50.0534 -50.0534 -50.0401 -50.0401 -50.0333 -50.0242
   -50.0241 -50.0237 -50.0237 -50.0223 -50.0223 -50.0196 -50.0196 -50.0183
   -20.5592 -20.5592 -20.5429 -20.4945 -20.4893 -20.4893 -20.4839 -20.4361
   -20.4361 -20.4247 -20.4247 -20.3989 -20.3989 -20.3945 -20.3945 -20.3872
   -20.3872 -20.3833 -20.3832 -20.3832 -20.3805 -20.3805 -20.3282 -20.3282
   -20.2947 -20.2947 -20.2909 -20.2070 -20.1883 -20.1883 -20.1868 -20.1770
   -20.1770 -20.1488 -20.1488 -20.1132 -20.1000 -20.1000 -20.0656 -20.0270
   -20.0270 -20.0234 -20.0234 -20.0197 -20.0197 -20.0118 -20.0118 -19.9685
   -19.9685 -19.9681 -19.9602 -19.9601 -19.9552 -19.9552 -19.9526 -19.9526
   -19.9387 -19.9387 -19.9190 -19.9189 -19.8848 -19.8848 -19.8795 -19.8738
   -19.8738 -19.8582 -19.8567 -19.8535 -19.8535 -19.8506 -19.8405 -19.8405
   -19.8394 -19.8394 -19.8381 -19.8315 -19.8315 -19.8089 -19.8089 -19.8069
   -19.8069 -19.8051 -19.7865 -19.7744 -19.7666 -19.7627 -19.7596 -19.7573
   -19.7573 -19.7320 -19.7320 -19.7275 -19.7275 -19.7143 -19.6738 -19.6608
    15.6437  16.8607  16.8607  17.0392  17.0433  17.0433  17.0696  17.2686
    17.3197  17.3996  17.3996  17.4907  17.4907  17.5562  17.6400  17.6438
    17.6438  17.6471  17.6471  17.7516  17.8345  17.8345  17.9042  17.9042
    18.0489  18.0489  18.1183  18.1183  18.1692  18.1692  18.2006  18.2232
    18.2233  18.2437  18.2437  18.3566  18.3566  18.4900  18.4900  18.5058
    18.5496  18.5496  18.8086  18.8086  19.0691  19.0691  19.1570  19.1686
    19.1756  19.1757  19.2488  19.2489  19.2848  19.2848  19.5030  19.5115
    19.5115  19.7086  19.7086  19.7553  19.7553  19.8484  19.8982  19.8983
    19.9506  19.9506  20.0140  20.0670  20.0670  20.1382  20.1382  20.3101
    20.3197  20.3449  20.3449  20.3870  20.4751  20.4752  20.4809  20.5306
    20.5403  20.5403  20.5584  20.6174  20.6659  20.6659  20.6810  20.6813
    20.6813  20.7675  20.8510  20.8510  20.9813  20.9813  21.1575  21.1598
    21.1598  21.2697  21.2893  21.2893  21.5334  21.5334  21.5794  21.5794
    21.6592  21.6593  21.6701  21.7329  21.7329  21.9541  22.0241  22.0279
    22.0523  22.0661  22.0661  22.1104  22.1104  22.3673  22.3673  22.4226
    22.5275  22.5438  22.5438  22.5881  22.5881  22.6155  22.6549  22.6550
    22.7458  22.7458  22.8001  22.8878  22.8878  23.1780  23.1780  23.4015
    23.4386  23.4386  23.4752  23.4752  23.6711  23.6711  23.6756  23.6843
    23.7433  23.7433  23.7448  23.7448  23.8992  23.9490  23.9491  24.0029
    24.0563  24.0669  24.3529  24.3933  24.3933  24.4146  24.4146  24.4664
    24.5051  24.5051  24.5070  24.5070  24.5850  24.5850  24.6767  24.6767
    24.6803  24.6803  24.6998  25.8445  26.2238  26.2238  26.6961  26.6961
    26.9215  26.9215  27.2901

          k = 0.1660 0.2767 0.3873 ( 30523 PWs)   bands (ev):

   -50.1944 -50.1703 -50.1490 -50.1309 -50.1302 -50.1150 -50.1024 -50.0934
   -50.0831 -50.0745 -50.0694 -50.0684 -50.0661 -50.0622 -50.0571 -50.0561
   -50.0541 -50.0519 -50.0467 -50.0442 -50.0432 -50.0350 -50.0327 -50.0291
   -50.0290 -50.0287 -50.0267 -50.0238 -50.0228 -50.0220 -50.0192 -50.0185
   -20.5424 -20.5344 -20.5127 -20.4795 -20.4745 -20.4727 -20.4645 -20.4611
   -20.4418 -20.4354 -20.4271 -20.4266 -20.4264 -20.4192 -20.4048 -20.4026
   -20.3985 -20.3947 -20.3809 -20.3798 -20.3784 -20.3704 -20.3693 -20.3438
   -20.3415 -20.3162 -20.2504 -20.2046 -20.2039 -20.1645 -20.1577 -20.1567
   -20.1566 -20.1364 -20.1253 -20.1216 -20.1134 -20.0939 -20.0579 -20.0575
   -20.0573 -20.0513 -20.0378 -20.0069 -19.9909 -19.9770 -19.9655 -19.9617
   -19.9604 -19.9537 -19.9532 -19.9517 -19.9479 -19.9375 -19.9362 -19.9293
   -19.9257 -19.9222 -19.9183 -19.9177 -19.9142 -19.9114 -19.9008 -19.8887
   -19.8769 -19.8738 -19.8733 -19.8627 -19.8621 -19.8550 -19.8489 -19.8457
   -19.8349 -19.8334 -19.8282 -19.8269 -19.8224 -19.8212 -19.8190 -19.8172
   -19.8167 -19.8091 -19.8080 -19.7850 -19.7754 -19.7738 -19.7522 -19.7502
   -19.7373 -19.7314 -19.7309 -19.7152 -19.7074 -19.7016 -19.6884 -19.6675
    15.8706  16.4971  17.0132  17.1465  17.1771  17.1777  17.2045  17.3422
    17.4156  17.4385  17.4398  17.5028  17.5338  17.5495  17.5853  17.5885
    17.5986  17.6500  17.6749  17.7516  17.7822  17.7995  17.8051  17.8865
    17.9167  17.9579  17.9741  18.0238  18.0416  18.0677  18.1481  18.1865
    18.2012  18.2227  18.2654  18.2809  18.3027  18.3066  18.3317  18.5606
    18.6933  18.7349  18.7994  18.8076  18.8389  18.8466  19.0111  19.0333
    19.0497  19.2310  19.2942  19.3188  19.3474  19.3494  19.4723  19.5151
    19.5241  19.5890  19.6186  19.7238  19.7838  19.8949  19.9093  20.0469
    20.0491  20.0610  20.0883  20.2302  20.2639  20.3304  20.3367  20.3377
    20.3942  20.4079  20.4397  20.4717  20.4740  20.4751  20.5221  20.5699
    20.5749  20.6248  20.6298  20.6506  20.7362  20.7589  20.7762  20.7919
    20.8300  20.8430  20.8563  20.8624  20.9519  21.0384  21.0822  21.1365
    21.1404  21.1773  21.2154  21.2524  21.2596  21.3256  21.3644  21.3783
    21.4260  21.5049  21.6402  21.6987  21.7803  21.8668  21.8895  22.0304
    22.0355  22.1250  22.1401  22.1970  22.2590  22.2627  22.2761  22.2940
    22.3124  22.3581  22.4889  22.5124  22.5357  22.5730  22.6587  22.6883
    22.6956  22.9054  22.9156  22.9340  22.9899  23.0410  23.3316  23.4631
    23.5154  23.5419  23.5467  23.5629  23.6103  23.6173  23.7526  23.8251
    23.8411  23.8666  23.9169  23.9334  23.9341  23.9528  23.9558  23.9749
    24.1337  24.2229  24.2415  24.2651  24.2680  24.2879  24.2975  24.3315
    24.3512  24.3861  24.5268  24.5344  24.5347  24.5661  24.5977  24.6269
    24.6362  25.1780  25.1858  25.6893  25.8673  26.1081  26.3580  26.6053
    26.9295  27.2926  27.4493

          k = 0.1660 0.2767-0.4980 ( 30554 PWs)   bands (ev):

   -50.1835 -50.1833 -50.1409 -50.1407 -50.1233 -50.1231 -50.0984 -50.0982
   -50.0792 -50.0790 -50.0674 -50.0672 -50.0662 -50.0660 -50.0551 -50.0549
   -50.0473 -50.0471 -50.0440 -50.0438 -50.0370 -50.0368 -50.0361 -50.0359
   -50.0305 -50.0304 -50.0253 -50.0251 -50.0234 -50.0232 -50.0189 -50.0187
   -20.5156 -20.5155 -20.5022 -20.5021 -20.4761 -20.4760 -20.4516 -20.4514
   -20.4491 -20.4489 -20.4245 -20.4244 -20.4196 -20.4196 -20.4140 -20.4139
   -20.4018 -20.4017 -20.3942 -20.3941 -20.3774 -20.3772 -20.3559 -20.3558
   -20.3437 -20.3436 -20.2105 -20.2104 -20.2036 -20.2035 -20.1471 -20.1470
   -20.1247 -20.1246 -20.1072 -20.1071 -20.0963 -20.0962 -20.0910 -20.0909
   -20.0805 -20.0803 -19.9815 -19.9813 -19.9777 -19.9777 -19.9634 -19.9633
   -19.9620 -19.9618 -19.9556 -19.9556 -19.9361 -19.9360 -19.9347 -19.9345
   -19.9068 -19.9068 -19.9067 -19.9066 -19.8999 -19.8998 -19.8917 -19.8915
   -19.8880 -19.8879 -19.8879 -19.8878 -19.8835 -19.8834 -19.8607 -19.8606
   -19.8304 -19.8303 -19.8278 -19.8276 -19.8236 -19.8235 -19.8091 -19.8090
   -19.8039 -19.8037 -19.7954 -19.7953 -19.7952 -19.7952 -19.7442 -19.7440
   -19.7379 -19.7378 -19.7080 -19.7079 -19.7078 -19.7076 -19.6812 -19.6812
    16.1597  16.1599  17.2020  17.2022  17.2711  17.2711  17.3367  17.3368
    17.3616  17.3617  17.4101  17.4102  17.4320  17.4322  17.6009  17.6009
    17.7413  17.7415  17.7417  17.7417  17.8021  17.8022  17.8707  17.8707
    17.9102  17.9104  17.9520  17.9520  17.9633  17.9634  17.9930  17.9932
    18.1897  18.1899  18.2181  18.2181  18.3536  18.3538  18.5380  18.5380
    18.6699  18.6700  18.8499  18.8501  18.8623  18.8624  18.9310  18.9310
    19.0068  19.0069  19.3572  19.3573  19.4168  19.4169  19.4643  19.4645
    19.5160  19.5161  19.7057  19.7059  19.7231  19.7232  20.0560  20.0561
    20.1108  20.1110  20.2664  20.2664  20.3236  20.3237  20.3343  20.3344
    20.4433  20.4433  20.4695  20.4695  20.5496  20.5497  20.5888  20.5888
    20.6472  20.6472  20.7360  20.7360  20.7512  20.7512  20.7759  20.7761
    20.8437  20.8438  20.9663  20.9663  21.0408  21.0409  21.0775  21.0776
    21.1042  21.1043  21.1128  21.1128  21.1330  21.1331  21.1647  21.1647
    21.6663  21.6663  21.7466  21.7467  21.7682  21.7682  21.9939  21.9940
    22.0900  22.0901  22.0960  22.0961  22.1281  22.1283  22.1375  22.1376
    22.3345  22.3346  22.3873  22.3874  22.5581  22.5582  22.6417  22.6418
    22.8266  22.8268  23.2129  23.2131  23.2312  23.2312  23.2645  23.2646
    23.3245  23.3246  23.6018  23.6018  23.6833  23.6835  23.7783  23.7785
    23.8457  23.8458  24.0348  24.0349  24.0787  24.0788  24.1111  24.1111
    24.1126  24.1127  24.1604  24.1604  24.1790  24.1790  24.1919  24.1919
    24.3369  24.3371  24.4181  24.4181  24.5751  24.5752  24.5784  24.5785
    25.1446  25.1446  25.7736  25.7736  25.8820  25.8822  25.9755  25.9757
    27.1355  27.1356  28.1085

          k = 0.1660 0.3873 0.3873 ( 30517 PWs)   bands (ev):

   -50.1862 -50.1632 -50.1632 -50.1432 -50.1252 -50.1111 -50.1111 -50.1001
   -50.0804 -50.0730 -50.0729 -50.0686 -50.0552 -50.0552 -50.0499 -50.0499
   -50.0495 -50.0494 -50.0456 -50.0455 -50.0388 -50.0388 -50.0320 -50.0320
   -50.0316 -50.0315 -50.0299 -50.0299 -50.0260 -50.0209 -50.0209 -50.0191
   -20.5221 -20.5221 -20.4823 -20.4675 -20.4675 -20.4617 -20.4617 -20.4559
   -20.4506 -20.4506 -20.4281 -20.4281 -20.4207 -20.4207 -20.4082 -20.4082
   -20.4065 -20.4065 -20.3980 -20.3930 -20.3930 -20.3847 -20.3847 -20.3827
   -20.3459 -20.2989 -20.2989 -20.2091 -20.2022 -20.1809 -20.1809 -20.1233
   -20.1131 -20.1131 -20.1035 -20.0878 -20.0878 -20.0633 -20.0633 -20.0293
   -20.0293 -20.0252 -20.0252 -20.0184 -20.0184 -19.9961 -19.9961 -19.9710
[...]
   -19.9117 -19.9117 -19.9117 -19.9117 -19.8688 -19.8688 -19.8687 -19.8687
   -19.8686 -19.8686 -19.8686 -19.8686 -19.8533 -19.8533 -19.8533 -19.8533
   -19.7481 -19.7481 -19.7481 -19.7481 -19.7307 -19.7306 -19.7306 -19.7305
   -19.7286 -19.7284 -19.7284 -19.7283 -19.6877 -19.6877 -19.6877 -19.6877
    16.6640  16.6642  16.6642  16.6644  17.1461  17.1463  17.1463  17.1464
    17.6290  17.6291  17.6291  17.6291  17.6720  17.6720  17.6721  17.6721
    17.6722  17.6722  17.6723  17.6723  17.7453  17.7453  17.7453  17.7453
    17.9385  17.9385  17.9385  17.9386  17.9386  17.9386  17.9387  17.9387
    18.3316  18.3316  18.3317  18.3317  18.3318  18.3318  18.3319  18.3319
    18.4882  18.4882  18.4882  18.4883  19.0498  19.0498  19.0500  19.0500
    19.0500  19.0500  19.0501  19.0501  19.2272  19.2273  19.2273  19.2274
    19.7590  19.7590  19.7591  19.7591  20.2219  20.2219  20.2219  20.2220
    20.4745  20.4746  20.4746  20.4746  20.5607  20.5608  20.5608  20.5609
    20.5906  20.5907  20.5907  20.5907  20.5907  20.5907  20.5908  20.5908
    20.7191  20.7192  20.7192  20.7192  20.7436  20.7437  20.7437  20.7438
    20.7940  20.7940  20.7941  20.7941  20.9976  20.9977  20.9977  20.9977
    20.9978  20.9978  20.9978  20.9978  21.1359  21.1359  21.1359  21.1360
    21.4725  21.4726  21.4726  21.4727  21.6587  21.6587  21.6588  21.6588
    21.6588  21.6588  21.6589  21.6589  22.2761  22.2762  22.2762  22.2764
    22.5377  22.5378  22.5378  22.5380  22.5868  22.5868  22.5868  22.5868
    22.5869  22.5869  22.5870  22.5870  22.9676  22.9676  22.9676  22.9677
    22.9815  22.9816  22.9816  22.9817  23.3974  23.3975  23.3975  23.3976
    24.3818  24.3818  24.3818  24.3818  24.3818  24.3818  24.3818  24.3819
    24.4186  24.4187  24.4187  24.4187  24.4443  24.4443  24.4443  24.4443
    24.4444  24.4444  24.4444  24.4444  24.4920  24.4921  24.4921  24.4922
    26.0610  26.0611  26.0611  26.0612  27.3346  27.3346  27.3346  27.3347
    27.3347  27.3347  27.3348

          k = 0.3873 0.3873 0.3873 ( 30505 PWs)   bands (ev):

   -50.1735 -50.1524 -50.1523 -50.1523 -50.1343 -50.1342 -50.1342 -50.1193
   -50.0532 -50.0532 -50.0532 -50.0499 -50.0499 -50.0498 -50.0498 -50.0498
   -50.0498 -50.0495 -50.0495 -50.0494 -50.0348 -50.0348 -50.0348 -50.0320
   -50.0320 -50.0319 -50.0317 -50.0317 -50.0317 -50.0316 -50.0316 -50.0315
   -20.4889 -20.4889 -20.4889 -20.4539 -20.4539 -20.4539 -20.4438 -20.4438
   -20.4438 -20.4392 -20.4392 -20.4392 -20.4392 -20.4392 -20.4392 -20.4349
   -20.4349 -20.4349 -20.4349 -20.4349 -20.4349 -20.4093 -20.4093 -20.4093
   -20.3037 -20.1964 -20.1964 -20.1964 -20.0935 -20.0935 -20.0935 -20.0934
   -20.0934 -20.0934 -20.0873 -20.0873 -20.0873 -20.0855 -20.0855 -20.0854
   -20.0626 -20.0626 -20.0626 -19.9914 -19.9914 -19.9914 -19.9914 -19.9914
   -19.9914 -19.9746 -19.9746 -19.9746 -19.9736 -19.9628 -19.9627 -19.9627
   -19.9260 -19.9260 -19.9260 -19.9082 -19.9082 -19.9082 -19.9082 -19.9082
   -19.9082 -19.8909 -19.8909 -19.8909 -19.8755 -19.8755 -19.8755 -19.8710
   -19.8709 -19.8709 -19.8709 -19.8709 -19.8709 -19.8508 -19.8508 -19.8508
   -19.7531 -19.7531 -19.7531 -19.7349 -19.7349 -19.7259 -19.7259 -19.7259
   -19.7101 -19.7101 -19.7101 -19.7066 -19.7066 -19.7066 -19.6903 -19.6903
    16.3706  16.8292  16.8292  16.8292  17.0824  17.0836  17.0836  17.0836
    17.4697  17.4697  17.4697  17.6837  17.6837  17.6837  17.7585  17.7585
    17.7585  17.7786  17.7786  17.7786  17.7786  17.7786  17.7786  17.8610
    17.8610  17.8610  17.8610  17.8610  17.8610  17.8936  17.8936  17.8936
    18.1448  18.1448  18.1448  18.5109  18.5109  18.5109  18.6115  18.6115
    18.6115  18.6115  18.6115  18.6115  18.9610  18.9610  18.9610  18.9720
    18.9720  18.9720  18.9720  18.9720  18.9720  19.2708  19.2708  19.2708
    19.7788  19.7788  19.7788  19.8682  20.0440  20.0440  20.0441  20.4542
    20.4542  20.4542  20.4542  20.4542  20.4542  20.5629  20.5629  20.6548
    20.6548  20.6548  20.6954  20.6954  20.6954  20.7030  20.7030  20.7204
    20.7204  20.7204  20.7208  20.7322  20.7322  20.7322  20.7564  20.7564
    20.7564  20.7924  20.7924  20.7924  20.7924  20.7924  20.7924  20.8065
    20.8065  20.8065  20.8991  20.8991  20.8991  21.3208  21.3208  21.3208
    21.5145  21.5145  21.5145  21.8345  21.8345  21.8345  21.8345  21.8345
    21.8345  21.8367  21.8368  21.8368  22.1661  22.1662  22.1662  22.3503
    22.3503  22.3503  22.3503  22.3503  22.3503  22.4628  22.4628  22.4628
    22.5526  22.5526  22.5893  22.5894  22.5894  22.7402  22.7402  22.7402
    23.0135  23.0136  23.0136  23.2416  23.2416  23.4042  23.4042  23.4042
    24.3353  24.3353  24.3353  24.3874  24.3874  24.3874  24.3874  24.3874
    24.3874  24.4546  24.4546  24.4546  24.4546  24.4546  24.4546  24.5186
    24.5186  24.5186  24.5342  24.5342  24.5342  24.6260  24.6260  24.6260
    26.2729  26.2729  26.2729  27.1655  27.1655  27.1655  27.1655  27.1655
    27.1655  27.4463  27.4463

          k = 0.3873 0.3873-0.4980 ( 30500 PWs)   bands (ev):

   -50.1640 -50.1638 -50.1442 -50.1442 -50.1440 -50.1440 -50.1275 -50.1273
   -50.0517 -50.0517 -50.0515 -50.0515 -50.0499 -50.0497 -50.0497 -50.0495
   -50.0417 -50.0416 -50.0415 -50.0415 -50.0400 -50.0400 -50.0398 -50.0398
   -50.0332 -50.0332 -50.0330 -50.0330 -50.0320 -50.0318 -50.0318 -50.0316
   -20.4764 -20.4764 -20.4653 -20.4652 -20.4651 -20.4650 -20.4445 -20.4445
   -20.4444 -20.4444 -20.4412 -20.4412 -20.4411 -20.4411 -20.4395 -20.4394
   -20.4394 -20.4392 -20.4300 -20.4299 -20.4246 -20.4246 -20.4244 -20.4244
   -20.2504 -20.2503 -20.1415 -20.1415 -20.1415 -20.1415 -20.0915 -20.0915
   -20.0915 -20.0915 -20.0791 -20.0790 -20.0790 -20.0789 -20.0425 -20.0425
   -20.0424 -20.0424 -20.0292 -20.0292 -20.0229 -20.0229 -20.0208 -20.0206
   -19.9814 -19.9814 -19.9813 -19.9813 -19.9753 -19.9753 -19.9753 -19.9753
   -19.9161 -19.9161 -19.9160 -19.9160 -19.9101 -19.9099 -19.8915 -19.8915
   -19.8914 -19.8914 -19.8909 -19.8909 -19.8909 -19.8909 -19.8813 -19.8813
   -19.8813 -19.8813 -19.8643 -19.8641 -19.8616 -19.8615 -19.8615 -19.8615
   -19.7398 -19.7397 -19.7353 -19.7353 -19.7352 -19.7352 -19.7215 -19.7213
   -19.7070 -19.7070 -19.7070 -19.7070 -19.7066 -19.7064 -19.6941 -19.6941
    16.5839  16.5841  16.9467  16.9467  16.9468  16.9469  17.0711  17.0712
    17.5818  17.5820  17.6022  17.6022  17.6022  17.6023  17.7567  17.7567
    17.7567  17.7567  17.7986  17.7986  17.7987  17.7987  17.8213  17.8213
    17.8213  17.8213  17.8362  17.8362  17.8363  17.8363  17.8461  17.8463
    18.3060  18.3062  18.3790  18.3790  18.3790  18.3791  18.7530  18.7530
    18.7531  18.7531  18.7642  18.7642  18.7643  18.7643  18.7985  18.7985
    18.7985  18.7985  19.0871  19.0872  19.1414  19.1415  19.1415  19.1416
    19.8448  19.8449  19.9238  19.9238  19.9238  19.9238  20.3836  20.3836
    20.5918  20.5918  20.5918  20.5919  20.6158  20.6158  20.6160  20.6160
    20.6221  20.6222  20.6267  20.6268  20.6654  20.6655  20.6655  20.6655
    20.6879  20.6879  20.6879  20.6879  20.7166  20.7166  20.7232  20.7233
    20.7405  20.7406  20.7503  20.7503  20.7504  20.7504  20.7585  20.7585
    20.7586  20.7586  21.1620  21.1620  21.1620  21.1621  21.2101  21.2103
    21.5447  21.5448  21.5448  21.5448  21.5712  21.5713  21.9754  21.9754
    21.9755  21.9755  22.0678  22.0678  22.0679  22.0679  22.0964  22.0964
    22.0965  22.0965  22.4534  22.4535  22.4648  22.4650  22.5292  22.5293
    22.5293  22.5295  22.5565  22.5565  22.5566  22.5566  22.7704  22.7705
    22.9159  22.9159  23.1360  23.1361  23.1361  23.1362  23.2946  23.2948
    24.4218  24.4218  24.4219  24.4219  24.4527  24.4527  24.4528  24.4528
    24.4559  24.4560  24.5022  24.5022  24.5023  24.5023  24.5085  24.5085
    24.5086  24.5086  24.5599  24.5599  24.5600  24.5601  24.6073  24.6073
    26.6961  26.6961  26.6962  26.6962  27.1430  27.1431  27.2904  27.2905
    27.2905  27.2906  28.0678

          k = 0.3873-0.4980-0.4980 ( 30520 PWs)   bands (ev):

   -50.1550 -50.1549 -50.1548 -50.1547 -50.1367 -50.1365 -50.1365 -50.1363
   -50.0509 -50.0508 -50.0507 -50.0506 -50.0411 -50.0411 -50.0409 -50.0409
   -50.0409 -50.0409 -50.0408 -50.0408 -50.0407 -50.0407 -50.0406 -50.0406
   -50.0406 -50.0406 -50.0404 -50.0404 -50.0325 -50.0324 -50.0324 -50.0322
   -20.4595 -20.4595 -20.4595 -20.4595 -20.4594 -20.4594 -20.4594 -20.4594
   -20.4455 -20.4454 -20.4454 -20.4453 -20.4417 -20.4416 -20.4416 -20.4415
   -20.4357 -20.4357 -20.4357 -20.4357 -20.4356 -20.4356 -20.4355 -20.4355
   -20.1960 -20.1959 -20.1959 -20.1958 -20.0872 -20.0872 -20.0872 -20.0871
   -20.0846 -20.0846 -20.0846 -20.0845 -20.0329 -20.0329 -20.0329 -20.0329
   -20.0329 -20.0329 -20.0328 -20.0328 -20.0316 -20.0316 -20.0315 -20.0315
   -20.0315 -20.0315 -20.0314 -20.0314 -19.9768 -19.9767 -19.9767 -19.9767
   -19.9023 -19.9023 -19.9023 -19.9023 -19.9005 -19.9005 -19.9004 -19.9004
   -19.9003 -19.9003 -19.9002 -19.9002 -19.8777 -19.8777 -19.8776 -19.8776
   -19.8775 -19.8775 -19.8774 -19.8774 -19.8720 -19.8720 -19.8720 -19.8720
   -19.7293 -19.7293 -19.7293 -19.7293 -19.7172 -19.7170 -19.7170 -19.7170
   -19.7169 -19.7169 -19.7169 -19.7168 -19.6986 -19.6986 -19.6986 -19.6986
    16.7528  16.7530  16.7530  16.7532  16.9992  16.9994  16.9994  16.9995
    17.6894  17.6894  17.6894  17.6894  17.6895  17.6896  17.6896  17.6896
    17.6920  17.6920  17.6920  17.6920  17.7647  17.7647  17.7647  17.7647
    17.8295  17.8295  17.8295  17.8295  17.8296  17.8296  17.8297  17.8297
    18.5415  18.5415  18.5415  18.5415  18.5417  18.5417  18.5417  18.5417
    18.5976  18.5976  18.5976  18.5976  18.9420  18.9420  18.9421  18.9421
    18.9422  18.9422  18.9423  18.9423  18.9692  18.9693  18.9693  18.9694
    19.9034  19.9035  19.9035  19.9035  20.1667  20.1668  20.1668  20.1668
    20.6179  20.6179  20.6179  20.6180  20.6479  20.6479  20.6479  20.6479
    20.6620  20.6620  20.6621  20.6621  20.6621  20.6621  20.6622  20.6622
    20.6855  20.6855  20.6855  20.6856  20.7192  20.7193  20.7193  20.7193
    20.7292  20.7293  20.7293  20.7293  20.9124  20.9125  20.9125  20.9125
    20.9126  20.9126  20.9126  20.9126  20.9704  20.9704  20.9705  20.9705
    21.7224  21.7225  21.7225  21.7226  21.8020  21.8020  21.8020  21.8020
    21.8020  21.8020  21.8021  21.8021  22.2528  22.2529  22.2529  22.2529
    22.2530  22.2530  22.2530  22.2531  22.2693  22.2694  22.2694  22.2695
    22.5275  22.5276  22.5276  22.5278  22.8120  22.8121  22.8121  22.8121
    22.8845  22.8846  22.8846  22.8847  23.1019  23.1020  23.1020  23.1021
    24.4956  24.4956  24.4957  24.4957  24.4957  24.4957  24.4957  24.4957
    24.5168  24.5169  24.5169  24.5170  24.5613  24.5613  24.5613  24.5613
    24.5614  24.5614  24.5614  24.5614  24.5622  24.5622  24.5622  24.5623
    26.9634  26.9635  26.9635  26.9636  27.5936  27.5936  27.5937  27.5937
    27.5937  27.5938  27.5938

          k =-0.4980-0.4980-0.4980 ( 30592 PWs)   bands (ev):

   -50.1467 -50.1466 -50.1466 -50.1466 -50.1464 -50.1464 -50.1464 -50.1462
   -50.0412 -50.0411 -50.0410 -50.0410 -50.0410 -50.0409 -50.0409 -50.0409
   -50.0409 -50.0408 -50.0408 -50.0408 -50.0408 -50.0407 -50.0407 -50.0407
   -50.0406 -50.0406 -50.0406 -50.0406 -50.0406 -50.0405 -50.0404 -50.0403
   -20.4480 -20.4479 -20.4479 -20.4479 -20.4479 -20.4479 -20.4479 -20.4478
   -20.4478 -20.4478 -20.4478 -20.4477 -20.4477 -20.4477 -20.4476 -20.4476
   -20.4476 -20.4476 -20.4476 -20.4476 -20.4476 -20.4475 -20.4475 -20.4475
   -20.1400 -20.1399 -20.1399 -20.1399 -20.1398 -20.1398 -20.1398 -20.1398
   -20.0327 -20.0326 -20.0326 -20.0326 -20.0326 -20.0326 -20.0326 -20.0326
   -20.0325 -20.0325 -20.0325 -20.0325 -20.0325 -20.0325 -20.0325 -20.0325
   -20.0325 -20.0325 -20.0325 -20.0324 -20.0324 -20.0324 -20.0324 -20.0324
   -19.8887 -19.8886 -19.8886 -19.8886 -19.8886 -19.8886 -19.8886 -19.8886
   -19.8886 -19.8886 -19.8885 -19.8885 -19.8885 -19.8884 -19.8884 -19.8884
   -19.8884 -19.8884 -19.8884 -19.8884 -19.8884 -19.8883 -19.8883 -19.8883
   -19.7128 -19.7128 -19.7128 -19.7127 -19.7127 -19.7127 -19.7127 -19.7127
   -19.7125 -19.7125 -19.7125 -19.7125 -19.7125 -19.7125 -19.7125 -19.7125
    16.8660  16.8662  16.8662  16.8662  16.8663  16.8664  16.8664  16.8665
    17.7431  17.7431  17.7431  17.7431  17.7431  17.7431  17.7431  17.7432
    17.7432  17.7432  17.7432  17.7432  17.7433  17.7433  17.7433  17.7433
    17.7433  17.7433  17.7433  17.7433  17.7433  17.7433  17.7434  17.7434
    18.7570  18.7570  18.7571  18.7571  18.7571  18.7571  18.7571  18.7571
    18.7571  18.7571  18.7571  18.7572  18.7572  18.7572  18.7573  18.7573
    18.7573  18.7573  18.7573  18.7573  18.7573  18.7573  18.7573  18.7574
    20.0526  20.0527  20.0527  20.0527  20.0527  20.0527  20.0527  20.0527
    20.6902  20.6902  20.6902  20.6902  20.6902  20.6902  20.6903  20.6903
    20.6903  20.6903  20.6903  20.6904  20.6904  20.6904  20.6904  20.6904
    20.7897  20.7898  20.7898  20.7898  20.7898  20.7898  20.7898  20.7898
    20.7899  20.7899  20.7899  20.7899  20.7899  20.7899  20.7899  20.7899
    20.7900  20.7900  20.7900  20.7900  20.7900  20.7900  20.7900  20.7900
    21.9916  21.9917  21.9917  21.9917  21.9917  21.9917  21.9918  21.9918
    21.9918  21.9918  21.9918  21.9918  21.9918  21.9918  21.9918  21.9919
    21.9919  21.9919  21.9919  21.9919  21.9919  21.9919  21.9920  21.9920
    22.8077  22.8077  22.8078  22.8078  22.8078  22.8078  22.8078  22.8079
    22.8079  22.8079  22.8079  22.8079  22.8079  22.8080  22.8080  22.8080
    24.5690  24.5690  24.5690  24.5691  24.5691  24.5691  24.5691  24.5691
    24.5691  24.5691  24.5691  24.5691  24.5692  24.5692  24.5692  24.5692
    24.5692  24.5692  24.5692  24.5692  24.5693  24.5693  24.5693  24.5693
    27.9120  27.9120  27.9121  27.9121  27.9121  27.9122  27.9122  27.9122
    27.9122  27.9122  27.9123

     the Fermi energy is    22.7761 ev

!    total energy              =  -13813.29710784 Ry

     total all-electron energy =   -289989.687447 Ry
     estimated scf accuracy    <       0.00000024 Ry
     smearing contrib. (-TS)   =       0.01945232 Ry
     internal energy E=F+TS    =  -13813.31656016 Ry

     The total energy is F=E-TS. E is the sum of the following terms:
     one-electron contribution =   -1025.92153573 Ry
     hartree contribution      =     925.14350076 Ry
     xc contribution           =    -927.60866370 Ry
     ewald contribution        =   -5195.50352907 Ry
     one-center paw contrib.   =   -7589.42633242 Ry

     convergence has been achieved in  13 iterations

     Forces acting on atoms (cartesian axes, Ry/au):

     atom    1 type  1   force =     0.00000000    0.00000000    0.00000000
     atom    2 type  1   force =    -0.00000080   -0.00000080   -0.00000000
     atom    3 type  1   force =    -0.00000080   -0.00000000   -0.00000080
     atom    4 type  1   force =     0.00000000   -0.00000080   -0.00000080
     atom    5 type  1   force =     0.00000000    0.00000000    0.00000000
     atom    6 type  1   force =    -0.00000102   -0.00000102    0.00000000
     atom    7 type  1   force =    -0.00000080    0.00000000    0.00000080
     atom    8 type  1   force =    -0.00000000   -0.00000080    0.00000080
     atom    9 type  1   force =     0.00000000    0.00000000    0.00000000
     atom   10 type  1   force =    -0.00000080    0.00000080    0.00000000
     atom   11 type  1   force =    -0.00000102    0.00000000   -0.00000102
     atom   12 type  1   force =     0.00000000    0.00000080   -0.00000080
     atom   13 type  1   force =     0.00000000    0.00000000    0.00000000
     atom   14 type  1   force =    -0.00000102    0.00000102   -0.00000000
     atom   15 type  1   force =    -0.00000102    0.00000000    0.00000102
     atom   16 type  1   force =    -0.00000000    0.00000080    0.00000080
     atom   17 type  1   force =     0.00000000    0.00000000    0.00000000
     atom   18 type  1   force =     0.00000080   -0.00000080    0.00000000
     atom   19 type  1   force =     0.00000080    0.00000000   -0.00000080
     atom   20 type  1   force =    -0.00000000   -0.00000102   -0.00000102
     atom   21 type  1   force =     0.00000000    0.00000000    0.00000000
     atom   22 type  1   force =     0.00000102   -0.00000102   -0.00000000
     atom   23 type  1   force =     0.00000080    0.00000000    0.00000080
     atom   24 type  1   force =     0.00000000   -0.00000102    0.00000102
     atom   25 type  1   force =     0.00000000    0.00000000    0.00000000
     atom   26 type  1   force =     0.00000080    0.00000080   -0.00000000
     atom   27 type  1   force =     0.00000102    0.00000000   -0.00000102
     atom   28 type  1   force =     0.00000000    0.00000102   -0.00000102
     atom   29 type  1   force =     0.00000000    0.00000000    0.00000000
     atom   30 type  1   force =     0.00000102    0.00000102    0.00000000
     atom   31 type  1   force =     0.00000102    0.00000000    0.00000102
     atom   32 type  1   force =    -0.00000000    0.00000102    0.00000102

     Total force =     0.000006     Total SCF correction =     0.000101
     SCF correction compared to forces is large: reduce conv_thr to get better values


     Computing stress (Cartesian axis) and pressure

          total   stress  (Ry/bohr**3)                   (kbar)     P=      -39.19
  -0.00026640   0.00000000   0.00000000          -39.19        0.00        0.00
   0.00000000  -0.00026640   0.00000000            0.00      -39.19        0.00
   0.00000000   0.00000000  -0.00026640            0.00        0.00      -39.19


     Writing output data file /scratch/edJNHJgaSVGKFFqM.save/
 
     init_run     :     14.18s CPU     14.53s WALL (       1 calls)
     electrons    :    571.15s CPU    580.11s WALL (       1 calls)
     forces       :      5.22s CPU      5.28s WALL (       1 calls)
     stress       :     32.07s CPU     32.34s WALL (       1 calls)

     Called by init_run:
     wfcinit      :     13.55s CPU     13.84s WALL (       1 calls)
     potinit      :      0.16s CPU      0.18s WALL (       1 calls)
     hinit0       :      0.11s CPU      0.12s WALL (       1 calls)

     Called by electrons:
     c_bands      :    515.28s CPU    522.78s WALL (      14 calls)
     sum_band     :     54.01s CPU     55.21s WALL (      14 calls)
     v_of_rho     :      0.20s CPU      0.22s WALL (      14 calls)
     newd         :      0.31s CPU      0.45s WALL (      14 calls)
     PAW_pot      :      1.21s CPU      1.28s WALL (      14 calls)
     mix_rho      :      0.18s CPU      0.20s WALL (      14 calls)

     Called by c_bands:
     init_us_2    :      2.15s CPU      2.20s WALL (    1085 calls)
     cegterg      :    507.42s CPU    514.58s WALL (     490 calls)

     Called by *egterg:
     cdiaghg      :     66.68s CPU     67.64s WALL (    1865 calls)
     h_psi        :    266.71s CPU    270.79s WALL (    1935 calls)
     s_psi        :     18.49s CPU     18.62s WALL (    1935 calls)
     g_psi        :      0.48s CPU      0.49s WALL (    1410 calls)

     Called by h_psi:
     h_psi:calbec :     36.68s CPU     37.00s WALL (    1935 calls)
     vloc_psi     :    211.29s CPU    214.58s WALL (    1935 calls)
     add_vuspsi   :     17.59s CPU     18.04s WALL (    1935 calls)

     General routines
     calbec       :     59.46s CPU     60.02s WALL (    2600 calls)
     fft          :      0.34s CPU      0.37s WALL (     206 calls)
     ffts         :      0.03s CPU      0.03s WALL (      28 calls)
     fftw         :    240.80s CPU    244.61s WALL (  929986 calls)
     interpolate  :      0.04s CPU      0.04s WALL (      14 calls)
 
     Parallel routines
     fft_scatt_xy :     16.05s CPU     16.32s WALL (  930220 calls)
     fft_scatt_yz :    197.20s CPU    200.35s WALL (  930220 calls)
 
     PWSCF        :  10m32.63s CPU  10m44.44s WALL

 
   This run was terminated on:  13:35: 1  23Nov2021            

=------------------------------------------------------------------------------=
   JOB DONE.
=------------------------------------------------------------------------------=
