
     Program PWSCF v.6.7MaX starts on 23Nov2021 at 13: 1:47 

     This program is part of the open-source Quantum ESPRESSO suite
     for quantum simulation of materials; please cite
         "P. Giannozzi et al., J. Phys.:Condens. Matter 21 395502 (2009);
         "P. Giannozzi et al., J. Phys.:Condens. Matter 29 465901 (2017);
          URL http://www.quantum-espresso.org", 
     in publications or presentations arising from this work. More details at
     http://www.quantum-espresso.org/quote

     Parallel version (MPI & OpenMP), running on      72 processor cores
     Number of MPI processes:                72
     Threads/MPI process:                     1

     MPI processes distributed on     1 nodes
     R & G space division:  proc/nbgrp/npool/nimage =      72
     Reading input from /rds/homes/b/bxp912/jobs/20211014_ru_eos/wd/eos/eos_008.in
Warning: card &CELL ignored
Warning: card CELL_DYNAMICS = 'BFGS', ignored
Warning: card CELL_FACTOR = 2.0, ignored
Warning: card PRESS = 0.0, ignored
Warning: card / ignored

     Current dimensions of program PWSCF are:
     Max number of different atomic species (ntypx) = 10
     Max number of k-points (npk) =  40000
     Max angular momentum in pseudopotentials (lmaxx) =  3
     file Ru.pbe-spn-kjpaw_psl.1.0.0.UPF: wavefunction(s)  4D renormalized

     Subspace diagonalization in iterative solution of the eigenvalue problem:
     one sub-group per band group will be used
     ELPA distributed-memory algorithm (size of sub-group:  8*  8 procs)

     Found symmetry operation: I + (  0.2500  0.2500  0.0000)
     This is a supercell, fractional translations are disabled
     Message from routine setup:
     using ibrav=0 with symmetry is DISCOURAGED, use correct ibrav instead
 
     Parallelization info
     --------------------
     sticks:   dense  smooth     PW     G-vecs:    dense   smooth      PW
     Min          99      65     17                 6287     3373     475
     Max         100      66     18                 6292     3378     482
     Sum        7129    4709   1281               452719   242937   34505
 


     bravais-lattice index     =            0
     lattice parameter (alat)  =      14.4007  a.u.
     unit-cell volume          =    3004.3999 (a.u.)^3
     number of atoms/cell      =           32
     number of atomic types    =            1
     number of electrons       =       512.00
     number of Kohn-Sham states=          307
     kinetic-energy cutoff     =      71.0000  Ry
     charge density cutoff     =     430.0000  Ry
     scf convergence threshold =      1.0E-06
     mixing beta               =       0.1000
     number of iterations used =           10  plain     mixing
     Exchange-correlation= SLA  PW   PBX  PBC
                           (   1   4   3   4   0   0   0)

     celldm(1)=  14.400742  celldm(2)=   0.000000  celldm(3)=   0.000000
     celldm(4)=   0.000000  celldm(5)=   0.000000  celldm(6)=   0.000000

     crystal axes: (cart. coord. in units of alat)
               a(1) = (   1.002000   0.000000   0.000000 )  
               a(2) = (   0.000000   1.002000   0.000000 )  
               a(3) = (   0.000000   0.000000   1.002000 )  

     reciprocal axes: (cart. coord. in units 2 pi/alat)
               b(1) = (  0.998004  0.000000  0.000000 )  
               b(2) = (  0.000000  0.998004  0.000000 )  
               b(3) = (  0.000000  0.000000  0.998004 )  


     PseudoPot. # 1 for Ru read from file:
     /rds/homes/b/bxp912/pp/Ru.pbe-spn-kjpaw_psl.1.0.0.UPF
     MD5 check sum: 0ae1f594dea09af7be8575c3a481d1ae
     Pseudo is Projector augmented-wave + core cor, Zval = 16.0
     Generated using "atomic" code by A. Dal Corso  v.5.1
     Shape of augmentation charge: PSQ
     Using radial grid of 1233 points,  6 beta functions with: 
                l(1) =   0
                l(2) =   0
                l(3) =   1
                l(4) =   1
                l(5) =   2
                l(6) =   2
     Q(r) pseudized with 0 coefficients 


     atomic species   valence    mass     pseudopotential
        Ru            16.00   101.07000     Ru( 1.00)

     48 Sym. Ops., with inversion, found



   Cartesian axes

     site n.     atom                  positions (alat units)
         1           Ru  tau(   1) = (   0.0000000   0.0000000   0.0000000  )
         2           Ru  tau(   2) = (   0.2505000   0.2505000   0.0000000  )
         3           Ru  tau(   3) = (   0.2505000   0.0000000   0.2504995  )
         4           Ru  tau(   4) = (   0.0000000   0.2505000   0.2504995  )
         5           Ru  tau(   5) = (   0.0000000   0.0000000   0.5010000  )
         6           Ru  tau(   6) = (   0.2504989   0.2504989   0.5010000  )
         7           Ru  tau(   7) = (   0.2505000   0.0000000   0.7514995  )
         8           Ru  tau(   8) = (   0.0000000   0.2505000   0.7514995  )
         9           Ru  tau(   9) = (   0.0000000   0.5010002   0.0000000  )
        10           Ru  tau(  10) = (   0.2505000   0.7515004   0.0000000  )
        11           Ru  tau(  11) = (   0.2504989   0.5010002   0.2504984  )
        12           Ru  tau(  12) = (   0.0000000   0.7515004   0.2504995  )
        13           Ru  tau(  13) = (   0.0000000   0.5010002   0.5010000  )
        14           Ru  tau(  14) = (   0.2504989   0.7515015   0.5010000  )
        15           Ru  tau(  15) = (   0.2504989   0.5010002   0.7515005  )
        16           Ru  tau(  16) = (   0.0000000   0.7515004   0.7514995  )
        17           Ru  tau(  17) = (   0.5010002   0.0000000   0.0000000  )
        18           Ru  tau(  18) = (   0.7515004   0.2505000   0.0000000  )
        19           Ru  tau(  19) = (   0.7515004   0.0000000   0.2504995  )
        20           Ru  tau(  20) = (   0.5010002   0.2504989   0.2504984  )
        21           Ru  tau(  21) = (   0.5010002   0.0000000   0.5010000  )
        22           Ru  tau(  22) = (   0.7515015   0.2504989   0.5010000  )
        23           Ru  tau(  23) = (   0.7515004   0.0000000   0.7514995  )
        24           Ru  tau(  24) = (   0.5010002   0.2504989   0.7515005  )
        25           Ru  tau(  25) = (   0.5010002   0.5010002   0.0000000  )
        26           Ru  tau(  26) = (   0.7515004   0.7515004   0.0000000  )
        27           Ru  tau(  27) = (   0.7515015   0.5010002   0.2504984  )
        28           Ru  tau(  28) = (   0.5010002   0.7515015   0.2504984  )
        29           Ru  tau(  29) = (   0.5010002   0.5010002   0.5010000  )
        30           Ru  tau(  30) = (   0.7515015   0.7515015   0.5010000  )
        31           Ru  tau(  31) = (   0.7515015   0.5010002   0.7515005  )
        32           Ru  tau(  32) = (   0.5010002   0.7515015   0.7515005  )

     number of k points=    35  Marzari-Vanderbilt smearing, width (Ry)=  0.0400
                       cart. coord. in units 2pi/alat
        k(    1) = (   0.0554447   0.0554447   0.0554447), wk =   0.0219479
        k(    2) = (   0.0554447   0.0554447   0.1663340), wk =   0.0658436
        k(    3) = (   0.0554447   0.0554447   0.2772233), wk =   0.0658436
        k(    4) = (   0.0554447   0.0554447   0.3881127), wk =   0.0658436
        k(    5) = (   0.0554447   0.0554447  -0.4990020), wk =   0.0329218
        k(    6) = (   0.0554447   0.1663340   0.1663340), wk =   0.0658436
        k(    7) = (   0.0554447   0.1663340   0.2772233), wk =   0.1316872
        k(    8) = (   0.0554447   0.1663340   0.3881127), wk =   0.1316872
        k(    9) = (   0.0554447   0.1663340  -0.4990020), wk =   0.0658436
        k(   10) = (   0.0554447   0.2772233   0.2772233), wk =   0.0658436
        k(   11) = (   0.0554447   0.2772233   0.3881127), wk =   0.1316872
        k(   12) = (   0.0554447   0.2772233  -0.4990020), wk =   0.0658436
        k(   13) = (   0.0554447   0.3881127   0.3881127), wk =   0.0658436
        k(   14) = (   0.0554447   0.3881127  -0.4990020), wk =   0.0658436
        k(   15) = (   0.0554447  -0.4990020  -0.4990020), wk =   0.0164609
        k(   16) = (   0.1663340   0.1663340   0.1663340), wk =   0.0219479
        k(   17) = (   0.1663340   0.1663340   0.2772233), wk =   0.0658436
        k(   18) = (   0.1663340   0.1663340   0.3881127), wk =   0.0658436
        k(   19) = (   0.1663340   0.1663340  -0.4990020), wk =   0.0329218
        k(   20) = (   0.1663340   0.2772233   0.2772233), wk =   0.0658436
        k(   21) = (   0.1663340   0.2772233   0.3881127), wk =   0.1316872
        k(   22) = (   0.1663340   0.2772233  -0.4990020), wk =   0.0658436
        k(   23) = (   0.1663340   0.3881127   0.3881127), wk =   0.0658436
        k(   24) = (   0.1663340   0.3881127  -0.4990020), wk =   0.0658436
        k(   25) = (   0.1663340  -0.4990020  -0.4990020), wk =   0.0164609
        k(   26) = (   0.2772233   0.2772233   0.2772233), wk =   0.0219479
        k(   27) = (   0.2772233   0.2772233   0.3881127), wk =   0.0658436
        k(   28) = (   0.2772233   0.2772233  -0.4990020), wk =   0.0329218
        k(   29) = (   0.2772233   0.3881127   0.3881127), wk =   0.0658436
        k(   30) = (   0.2772233   0.3881127  -0.4990020), wk =   0.0658436
        k(   31) = (   0.2772233  -0.4990020  -0.4990020), wk =   0.0164609
        k(   32) = (   0.3881127   0.3881127   0.3881127), wk =   0.0219479
        k(   33) = (   0.3881127   0.3881127  -0.4990020), wk =   0.0329218
        k(   34) = (   0.3881127  -0.4990020  -0.4990020), wk =   0.0164609
        k(   35) = (  -0.4990020  -0.4990020  -0.4990020), wk =   0.0027435

     Dense  grid:   452719 G-vectors     FFT dimensions: (  96,  96,  96)

     Smooth grid:   242937 G-vectors     FFT dimensions: (  80,  80,  80)

     Estimated max dynamical RAM per process >     107.65 MB

     Estimated total dynamical RAM >       7.57 GB

     Check: negative core charge=   -0.000002

     Initial potential from superposition of free atoms

     starting charge  511.97959, renormalised to  512.00000
     Starting wfcs are  320 randomized atomic wfcs
     Checking if some PAW data can be deallocated... 

     total cpu time spent up to now is       17.7 secs

     Self-consistent Calculation

     iteration #  1     ecut=    71.00 Ry     beta= 0.10
     Davidson diagonalization with overlap
     ethr =  1.00E-02,  avg # of iterations =  3.5

     Threshold (ethr) on eigenvalues was too large:
     Diagonalizing with lowered threshold

     Davidson diagonalization with overlap
     ethr =  8.25E-05,  avg # of iterations =  5.3

     total cpu time spent up to now is      105.0 secs

     total energy              =  -13813.41113714 Ry
     estimated scf accuracy    <       0.63605961 Ry

     iteration #  2     ecut=    71.00 Ry     beta= 0.10
     Davidson diagonalization with overlap
     ethr =  1.24E-04,  avg # of iterations =  1.0

     total cpu time spent up to now is      140.8 secs

     total energy              =  -13813.20332677 Ry
     estimated scf accuracy    <       0.39681466 Ry

     iteration #  3     ecut=    71.00 Ry     beta= 0.10
     Davidson diagonalization with overlap
     ethr =  7.75E-05,  avg # of iterations =  2.3

     total cpu time spent up to now is      183.9 secs

     total energy              =  -13813.29931718 Ry
     estimated scf accuracy    <       0.01026028 Ry

     iteration #  4     ecut=    71.00 Ry     beta= 0.10
     Davidson diagonalization with overlap
     ethr =  2.00E-06,  avg # of iterations =  3.2

     total cpu time spent up to now is      220.9 secs

     total energy              =  -13813.29874222 Ry
     estimated scf accuracy    <       0.00681297 Ry

     iteration #  5     ecut=    71.00 Ry     beta= 0.10
     Davidson diagonalization with overlap
     ethr =  1.33E-06,  avg # of iterations =  2.3

     total cpu time spent up to now is      260.7 secs

     total energy              =  -13813.30334739 Ry
     estimated scf accuracy    <       0.00686849 Ry

     iteration #  6     ecut=    71.00 Ry     beta= 0.10
     Davidson diagonalization with overlap
     ethr =  1.33E-06,  avg # of iterations =  3.2

     total cpu time spent up to now is      307.8 secs

     total energy              =  -13813.29852305 Ry
     estimated scf accuracy    <       0.01741288 Ry

     iteration #  7     ecut=    71.00 Ry     beta= 0.10
     Davidson diagonalization with overlap
     ethr =  1.33E-06,  avg # of iterations =  2.3

     total cpu time spent up to now is      348.9 secs

     total energy              =  -13813.30007375 Ry
     estimated scf accuracy    <       0.00107929 Ry

     iteration #  8     ecut=    71.00 Ry     beta= 0.10
     Davidson diagonalization with overlap
     ethr =  2.11E-07,  avg # of iterations =  2.5

     total cpu time spent up to now is      383.9 secs

     total energy              =  -13813.30015160 Ry
     estimated scf accuracy    <       0.00021799 Ry

     iteration #  9     ecut=    71.00 Ry     beta= 0.10
     Davidson diagonalization with overlap
     ethr =  4.26E-08,  avg # of iterations =  1.9

     total cpu time spent up to now is      419.1 secs

     total energy              =  -13813.30008355 Ry
     estimated scf accuracy    <       0.00015136 Ry

     iteration # 10     ecut=    71.00 Ry     beta= 0.10
     Davidson diagonalization with overlap
     ethr =  2.96E-08,  avg # of iterations =  2.3

     total cpu time spent up to now is      458.8 secs

     total energy              =  -13813.30010504 Ry
     estimated scf accuracy    <       0.00000520 Ry

     iteration # 11     ecut=    71.00 Ry     beta= 0.10
     Davidson diagonalization with overlap
     ethr =  1.02E-09,  avg # of iterations =  4.3

     total cpu time spent up to now is      510.1 secs

     total energy              =  -13813.30011290 Ry
     estimated scf accuracy    <       0.00000224 Ry

     iteration # 12     ecut=    71.00 Ry     beta= 0.10
     Davidson diagonalization with overlap
     ethr =  4.38E-10,  avg # of iterations =  3.1

     total cpu time spent up to now is      555.5 secs

     total energy              =  -13813.30010655 Ry
     estimated scf accuracy    <       0.00001503 Ry

     iteration # 13     ecut=    71.00 Ry     beta= 0.10
     Davidson diagonalization with overlap
     ethr =  4.38E-10,  avg # of iterations =  3.3

     total cpu time spent up to now is      598.4 secs

     End of self-consistent calculation

          k = 0.0554 0.0554 0.0554 ( 30431 PWs)   bands (ev):

   -50.0665 -49.9692 -49.9692 -49.9692 -49.9504 -49.9504 -49.9504 -49.9154
   -49.9153 -49.9153 -49.9062 -49.9052 -49.9051 -49.9051 -49.9051 -49.9051
   -49.9051 -49.9045 -49.9045 -49.9045 -49.8965 -49.8964 -49.8964 -49.8522
   -49.8522 -49.8522 -49.8517 -49.8517 -49.8517 -49.8517 -49.8516 -49.8516
   -20.4617 -20.4617 -20.4616 -20.4577 -20.4003 -20.4003 -20.4003 -20.2037
   -20.2037 -20.2037 -20.1926 -20.1926 -20.1926 -20.1926 -20.1926 -20.1926
   -20.1727 -20.1727 -20.1727 -20.1506 -20.1506 -20.1506 -20.1506 -20.1506
   -20.1506 -20.1010 -20.1010 -20.1010 -20.1010 -20.1010 -20.1010 -20.0035
   -20.0035 -20.0035 -19.9319 -19.9319 -19.9318 -19.9241 -19.9241 -19.9241
   -19.8911 -19.8911 -19.8911 -19.8911 -19.8911 -19.8911 -19.8517 -19.8517
   -19.8517 -19.8450 -19.8450 -19.8450 -19.8450 -19.8450 -19.8450 -19.8395
   -19.8395 -19.8395 -19.8351 -19.8351 -19.8351 -19.6755 -19.6755 -19.6755
   -19.6749 -19.6749 -19.6749 -19.6439 -19.6439 -19.6439 -19.6438 -19.6438
   -19.6438 -19.6293 -19.6293 -19.6293 -19.6173 -19.6173 -19.6173 -19.6162
   -19.6162 -19.6162 -19.6162 -19.6162 -19.6162 -19.6143 -19.6143 -19.6143
   -19.6116 -19.6116 -19.5981 -19.5981 -19.5981 -19.4872 -19.4804 -19.4804
    15.2087  16.7837  16.7837  16.7837  17.0551  17.0728  17.0728  17.0728
    17.2491  17.2491  17.2491  17.4562  17.4562  17.4562  17.6307  17.6307
    17.6307  18.1817  18.1817  18.1817  18.1817  18.1817  18.1817  18.4959
    18.4959  18.4959  18.7488  18.7488  18.7488  18.7668  18.7668  18.7669
    18.8585  18.8585  18.8585  18.8595  18.8595  18.8595  18.8595  18.8595
    18.8595  19.3516  19.3516  19.3516  19.3516  19.3516  19.3516  19.4950
    19.4950  19.4950  19.5271  19.5271  19.5271  19.5271  19.5271  19.5271
    19.5913  19.5913  19.5913  19.8496  19.8496  19.8496  19.8524  19.8524
    19.8524  19.8524  19.8524  19.8524  19.8528  19.8528  19.8528  19.8528
    19.8528  19.8528  20.0225  20.0225  20.0225  20.3056  20.3056  20.3056
    20.3414  20.3414  20.3564  20.3564  20.3564  20.4339  20.4650  20.4650
    21.4312  21.4312  21.4312  21.5983  21.5983  21.5983  21.6498  21.6498
    21.6498  21.7490  21.7490  21.7490  21.7490  21.7490  21.7490  21.7629
    21.7629  21.7629  22.0561  22.0562  22.0562  22.1747  22.1747  22.1747
    22.4216  22.4217  22.4217  22.4997  22.4997  22.4997  22.4997  22.4997
    22.4997  22.5175  22.5175  22.5175  22.5562  22.5562  22.5562  22.7452
    22.7453  22.7453  22.7453  22.7453  22.7453  22.8025  22.8025  22.9169
    22.9169  22.9169  23.5707  23.5707  23.5707  23.6199  23.6199  23.6199
    23.7293  23.7293  23.7293  23.8205  24.5405  24.5405  24.5405  24.5827
    24.5827  24.6173  24.6173  24.6173  24.8989  24.8989  24.8989  24.9255
    24.9255  24.9255  25.0827  25.0827  25.0827  25.0827  25.0827  25.0827
    25.0877  25.0877  25.0877  26.5204  26.5204  26.5204  26.6951  26.6951
    26.6951  27.0508  27.0508

          k = 0.0554 0.0554 0.1663 ( 30387 PWs)   bands (ev):

   -50.0633 -49.9876 -49.9674 -49.9674 -49.9489 -49.9489 -49.9319 -49.9255
   -49.9255 -49.9150 -49.9136 -49.9136 -49.9079 -49.9051 -49.9050 -49.9046
   -49.9045 -49.9030 -49.8967 -49.8950 -49.8950 -49.8880 -49.8880 -49.8554
   -49.8535 -49.8535 -49.8532 -49.8532 -49.8522 -49.8521 -49.8517 -49.8516
   -20.4543 -20.4505 -20.4505 -20.4426 -20.3921 -20.3921 -20.3876 -20.2341
   -20.2209 -20.2209 -20.2081 -20.2081 -20.2056 -20.2056 -20.2002 -20.1981
   -20.1981 -20.1751 -20.1751 -20.1607 -20.1607 -20.1476 -20.1476 -20.1465
   -20.1465 -20.1090 -20.1090 -20.0921 -20.0921 -20.0804 -20.0529 -20.0529
   -20.0159 -20.0159 -19.9718 -19.9718 -19.9402 -19.9402 -19.9298 -19.9298
   -19.8995 -19.8624 -19.8624 -19.8508 -19.8508 -19.8498 -19.8498 -19.8448
   -19.8442 -19.8442 -19.8343 -19.8343 -19.8341 -19.8306 -19.8306 -19.8298
   -19.8291 -19.8291 -19.8255 -19.8128 -19.8128 -19.7066 -19.7054 -19.6825
   -19.6825 -19.6673 -19.6673 -19.6509 -19.6508 -19.6486 -19.6486 -19.6403
   -19.6403 -19.6346 -19.6346 -19.6344 -19.6288 -19.6278 -19.6278 -19.6173
   -19.6170 -19.6162 -19.6161 -19.6152 -19.6152 -19.6133 -19.6124 -19.6095
   -19.6095 -19.6088 -19.5985 -19.5866 -19.5866 -19.5043 -19.4859 -19.4839
    15.2944  16.8339  16.8469  16.8469  17.0945  17.1295  17.1295  17.1469
    17.1528  17.2869  17.3105  17.3105  17.5179  17.5180  17.6567  17.6957
    17.6957  18.0619  18.0619  18.2298  18.2298  18.2392  18.2392  18.2405
    18.4393  18.5347  18.5347  18.5452  18.5452  18.5961  18.6106  18.6106
    18.7973  18.7974  18.7993  18.7994  18.8270  18.8270  18.9012  18.9012
    18.9559  18.9559  19.0465  19.3299  19.3299  19.3554  19.3554  19.4063
    19.4063  19.4209  19.4209  19.4808  19.4809  19.5667  19.5667  19.6008
    19.6729  19.6729  19.6963  19.6963  19.7895  19.8048  19.8048  19.8365
    19.8365  19.8544  19.8544  19.8593  19.8593  20.0986  20.0986  20.1253
    20.1253  20.1459  20.1975  20.2329  20.2641  20.2641  20.3384  20.3734
    20.3747  20.3973  20.3973  20.4085  20.4085  20.4192  20.5076  20.5115
    21.2023  21.2023  21.3299  21.3299  21.4212  21.4495  21.5586  21.5586
    21.5884  21.6835  21.6835  21.7190  21.8593  21.8593  21.8622  21.8927
    21.8927  21.9389  21.9389  21.9630  22.0326  22.0326  22.3562  22.3563
    22.3728  22.3728  22.3884  22.3884  22.5013  22.5013  22.5157  22.5157
    22.6343  22.6343  22.6579  22.6579  22.7317  22.7542  22.7625  22.7625
    22.8083  22.8267  22.9670  22.9671  22.9817  23.0299  23.0299  23.1150
    23.1478  23.1479  23.1577  23.2087  23.2087  23.3956  23.4186  23.6325
    23.6326  23.8216  23.8216  23.8905  24.3430  24.3430  24.4532  24.4532
    24.4675  24.5005  24.5650  24.5650  24.5693  24.7640  24.8347  24.9563
    24.9563  24.9575  24.9575  24.9783  25.0813  25.0814  25.0825  25.0825
    25.2662  25.2662  25.4916  26.0051  26.0051  26.3937  26.4623  26.5276
    26.5276  26.9955  26.9955

          k = 0.0554 0.0554 0.2772 ( 30356 PWs)   bands (ev):

   -50.0569 -50.0052 -49.9638 -49.9638 -49.9459 -49.9459 -49.9352 -49.9352
   -49.9217 -49.9217 -49.9144 -49.9142 -49.9095 -49.9051 -49.9050 -49.9046
   -49.9046 -49.9014 -49.8972 -49.8853 -49.8853 -49.8799 -49.8799 -49.8619
   -49.8570 -49.8570 -49.8561 -49.8561 -49.8522 -49.8521 -49.8518 -49.8517
   -20.4361 -20.4287 -20.4287 -20.4171 -20.3759 -20.3759 -20.3623 -20.2789
   -20.2645 -20.2645 -20.2438 -20.2434 -20.2434 -20.2114 -20.2114 -20.2057
   -20.2057 -20.1757 -20.1757 -20.1530 -20.1524 -20.1524 -20.1505 -20.1505
   -20.1150 -20.1150 -20.1117 -20.1117 -20.0770 -20.0770 -20.0378 -20.0378
   -20.0096 -20.0096 -20.0065 -20.0065 -19.9683 -19.9683 -19.9666 -19.9666
   -19.8676 -19.8676 -19.8506 -19.8429 -19.8429 -19.8352 -19.8352 -19.8234
   -19.8193 -19.8182 -19.8182 -19.8121 -19.8121 -19.8053 -19.8052 -19.8021
   -19.8021 -19.7846 -19.7755 -19.7755 -19.7680 -19.7363 -19.7344 -19.6968
   -19.6968 -19.6734 -19.6734 -19.6696 -19.6696 -19.6646 -19.6646 -19.6624
   -19.6540 -19.6540 -19.6501 -19.6501 -19.6342 -19.6277 -19.6200 -19.6200
   -19.6196 -19.6161 -19.6160 -19.6154 -19.6153 -19.6091 -19.6091 -19.6063
   -19.5993 -19.5839 -19.5824 -19.5818 -19.5818 -19.5344 -19.4967 -19.4940
    15.4633  16.7777  16.9313  16.9704  16.9704  17.1906  17.2422  17.2422
    17.2760  17.3620  17.4329  17.4329  17.5660  17.6375  17.6375  17.8220
    17.8220  17.8569  17.8569  18.0064  18.1060  18.2061  18.2061  18.2734
    18.3214  18.3214  18.3520  18.3520  18.4349  18.4350  18.5006  18.5006
    18.6114  18.6114  18.6531  18.6531  18.7772  18.7773  18.8626  18.8626
    19.0311  19.0311  19.2327  19.2327  19.2955  19.2955  19.2967  19.2967
    19.3139  19.3139  19.3267  19.3579  19.3579  19.4507  19.4508  19.6089
    19.6089  19.6652  19.7255  19.7255  19.7931  19.7931  19.8529  19.8529
    19.8695  19.8695  19.9357  19.9357  19.9616  20.1303  20.1925  20.1925
    20.2008  20.2009  20.2484  20.3001  20.4556  20.5056  20.5056  20.5204
    20.5285  20.5366  20.5366  20.6007  20.6041  20.6424  20.9277  20.9277
    20.9854  20.9854  20.9892  20.9892  21.2002  21.3119  21.3119  21.3466
    21.3580  21.4156  21.7715  21.8121  21.8121  22.0194  22.0194  22.0374
    22.0374  22.0754  22.0754  22.1515  22.1515  22.2707  22.2708  22.3691
    22.3691  22.4838  22.4938  22.4938  22.5041  22.5041  22.5312  22.5312
    22.5847  22.5848  22.5955  22.6529  22.6829  22.6829  22.7981  22.8674
    22.8674  22.8747  22.9356  22.9356  23.0733  23.2060  23.2751  23.2751
    23.2768  23.3577  23.3577  23.4007  23.4304  23.4304  23.4499  23.6655
    23.6655  23.8087  23.8087  24.0507  24.0736  24.0736  24.2482  24.2482
    24.2794  24.4125  24.4125  24.4130  24.4425  24.5037  24.7256  24.7256
    24.7268  24.7268  24.7824  25.0805  25.0805  25.0820  25.0821  25.2282
    25.4999  25.4999  25.6979  25.6979  25.8676  26.0024  26.0024  26.0457
    26.3438  26.8801  26.8801

          k = 0.0554 0.0554 0.3881 ( 30341 PWs)   bands (ev):

   -50.0476 -50.0214 -49.9587 -49.9587 -49.9441 -49.9441 -49.9416 -49.9415
   -49.9293 -49.9293 -49.9135 -49.9110 -49.9050 -49.9049 -49.9047 -49.9046
   -49.9001 -49.8980 -49.8979 -49.8765 -49.8765 -49.8724 -49.8724 -49.8713
   -49.8621 -49.8620 -49.8604 -49.8604 -49.8521 -49.8520 -49.8518 -49.8517
   -20.4078 -20.3973 -20.3973 -20.3823 -20.3522 -20.3522 -20.3265 -20.3252
   -20.3122 -20.3122 -20.2924 -20.2850 -20.2850 -20.2191 -20.2103 -20.2103
   -20.1969 -20.1969 -20.1908 -20.1908 -20.1655 -20.1655 -20.1254 -20.1254
   -20.0978 -20.0978 -20.0794 -20.0794 -20.0656 -20.0656 -20.0563 -20.0563
   -20.0441 -20.0440 -20.0034 -20.0034 -20.0005 -20.0005 -19.9635 -19.9635
   -19.8930 -19.8930 -19.8410 -19.8410 -19.8369 -19.8369 -19.8077 -19.8041
   -19.7973 -19.7763 -19.7762 -19.7730 -19.7730 -19.7696 -19.7696 -19.7694
   -19.7694 -19.7636 -19.7610 -19.7410 -19.7410 -19.7399 -19.7177 -19.7177
   -19.7028 -19.7028 -19.7026 -19.7026 -19.7002 -19.6963 -19.6847 -19.6847
   -19.6824 -19.6824 -19.6615 -19.6389 -19.6389 -19.6262 -19.6221 -19.6160
   -19.6159 -19.6155 -19.6154 -19.6146 -19.6146 -19.6046 -19.6046 -19.6041
   -19.6006 -19.5838 -19.5838 -19.5775 -19.5568 -19.5547 -19.5125 -19.5097
    15.7094  16.3875  17.0690  17.1475  17.1475  17.3424  17.4094  17.4094
    17.4108  17.4578  17.4734  17.6126  17.6126  17.6150  17.6150  17.7982
    17.8046  17.8061  17.8062  17.8961  17.8961  17.9639  18.0009  18.0009
    18.1512  18.1512  18.2277  18.2277  18.4455  18.4456  18.4467  18.4467
    18.5155  18.5155  18.6985  18.6985  18.7239  18.7239  18.9428  18.9428
    18.9530  18.9531  19.0431  19.0431  19.1894  19.1894  19.2269  19.2269
    19.2699  19.2699  19.3338  19.3338  19.3445  19.3445  19.5915  19.5915
    19.5980  19.6443  19.6443  19.7633  19.8720  19.8720  19.8781  19.8781
    19.8891  19.8891  20.0090  20.0612  20.0703  20.0986  20.0986  20.1106
    20.1106  20.2344  20.3051  20.3052  20.5826  20.6467  20.6467  20.6555
    20.6555  20.6736  20.6736  20.6816  20.7398  20.7422  20.9616  20.9718
    20.9718  21.0330  21.1001  21.1251  21.1340  21.1340  21.1396  21.1498
    21.6127  21.6127  21.9358  21.9358  21.9440  22.0065  22.0065  22.1341
    22.1341  22.1390  22.1891  22.2049  22.2050  22.2497  22.2497  22.2847
    22.2847  22.3345  22.3345  22.3452  22.3452  22.4048  22.4595  22.4595
    22.4967  22.4967  22.5205  22.5205  22.6077  22.6077  22.8251  22.8251
    22.9454  22.9626  22.9626  23.0771  23.1487  23.2791  23.2791  23.4093
    23.5996  23.6006  23.6006  23.7054  23.7118  23.7119  23.7508  23.7508
    23.9715  23.9715  23.9725  24.0302  24.1255  24.1255  24.1295  24.1889
    24.1889  24.2080  24.2464  24.2472  24.4215  24.4216  24.4253  24.4253
    24.4777  24.4777  24.5559  25.0077  25.0077  25.0805  25.0805  25.0815
    25.0815  25.2244  25.4768  25.4768  25.5976  26.1003  26.1003  26.1612
    26.5331  26.6965  26.6965

          k = 0.0554 0.0554-0.4990 ( 30326 PWs)   bands (ev):

   -50.0357 -50.0355 -49.9521 -49.9521 -49.9519 -49.9519 -49.9360 -49.9360
   -49.9359 -49.9358 -49.9124 -49.9123 -49.9050 -49.9048 -49.9048 -49.9046
   -49.8990 -49.8988 -49.8835 -49.8834 -49.8687 -49.8687 -49.8685 -49.8685
   -49.8660 -49.8660 -49.8658 -49.8658 -49.8521 -49.8519 -49.8519 -49.8518
   -20.3706 -20.3705 -20.3578 -20.3577 -20.3576 -20.3575 -20.3400 -20.3399
   -20.3217 -20.3217 -20.3216 -20.3216 -20.2771 -20.2769 -20.2031 -20.2031
   -20.2030 -20.2030 -20.1829 -20.1829 -20.1828 -20.1828 -20.0958 -20.0958
   -20.0957 -20.0957 -20.0741 -20.0741 -20.0739 -20.0739 -20.0414 -20.0414
   -20.0413 -20.0413 -20.0307 -20.0307 -20.0306 -20.0306 -19.9254 -19.9254
   -19.9252 -19.9252 -19.8391 -19.8390 -19.8390 -19.8388 -19.7877 -19.7875
   -19.7845 -19.7843 -19.7460 -19.7459 -19.7446 -19.7446 -19.7444 -19.7444
   -19.7379 -19.7379 -19.7378 -19.7378 -19.7355 -19.7355 -19.7354 -19.7354
   -19.7232 -19.7231 -19.7230 -19.7229 -19.7105 -19.7105 -19.7103 -19.7103
   -19.6976 -19.6975 -19.6321 -19.6319 -19.6251 -19.6251 -19.6250 -19.6250
   -19.6244 -19.6242 -19.6159 -19.6157 -19.6157 -19.6155 -19.6023 -19.6021
   -19.5919 -19.5919 -19.5918 -19.5918 -19.5328 -19.5326 -19.5303 -19.5302
    16.0227  16.0230  17.2351  17.2352  17.3672  17.3673  17.3674  17.3675
    17.5482  17.5482  17.6194  17.6196  17.6284  17.6285  17.6286  17.6287
    17.6889  17.6889  17.8551  17.8551  17.8553  17.8553  18.0096  18.0097
    18.0098  18.0098  18.2173  18.2173  18.2175  18.2175  18.5814  18.5814
    18.5815  18.5815  18.7208  18.7208  18.7210  18.7210  18.8693  18.8694
    18.8695  18.8695  19.0648  19.0648  19.0649  19.0649  19.2736  19.2736
    19.2737  19.2737  19.2951  19.2951  19.2951  19.2951  19.5974  19.5974
    19.5974  19.5974  19.8495  19.8497  19.8802  19.8802  19.8803  19.8804
    19.8821  19.8822  19.9935  19.9936  19.9936  19.9938  20.1516  20.1518
    20.3568  20.3568  20.3569  20.3569  20.4625  20.4625  20.4626  20.4626
    20.7528  20.7529  20.8268  20.8269  20.8270  20.8271  20.8744  20.8744
    20.9217  20.9219  20.9245  20.9247  21.5906  21.5906  21.5906  21.5907
    21.5962  21.5963  21.6271  21.6272  21.9880  21.9880  21.9882  21.9882
    22.1776  22.1778  22.2741  22.2741  22.2741  22.2741  22.3021  22.3021
    22.3022  22.3023  22.3809  22.3809  22.3810  22.3811  22.3930  22.3930
    22.3931  22.3932  22.4592  22.4592  22.4594  22.4594  22.7086  22.7086
    22.7088  22.7088  23.0374  23.0375  23.6379  23.6381  23.6381  23.6382
    23.6477  23.6478  23.7346  23.7347  23.9121  23.9121  23.9122  23.9123
    23.9633  23.9634  23.9948  23.9948  24.0739  24.0739  24.0740  24.0740
    24.0902  24.0902  24.0903  24.0904  24.3679  24.3680  24.5407  24.5407
    24.5408  24.5408  24.5683  24.5685  24.9611  24.9611  24.9611  24.9611
    25.0807  25.0809  25.0809  25.0811  25.9118  25.9120  26.4369  26.4370
    26.4371  26.4372  26.9261

          k = 0.0554 0.1663 0.1663 ( 30376 PWs)   bands (ev):

   -50.0601 -49.9856 -49.9855 -49.9656 -49.9474 -49.9372 -49.9307 -49.9307
   -49.9249 -49.9249 -49.9133 -49.9133 -49.9111 -49.9062 -49.9019 -49.9019
   -49.9014 -49.9013 -49.8952 -49.8952 -49.8885 -49.8885 -49.8811 -49.8554
   -49.8554 -49.8549 -49.8548 -49.8538 -49.8538 -49.8529 -49.8529 -49.8521
   -20.4472 -20.4472 -20.4359 -20.4238 -20.3839 -20.3800 -20.3800 -20.2403
   -20.2403 -20.2343 -20.2343 -20.2046 -20.2032 -20.2032 -20.2014 -20.2014
   -20.1972 -20.1972 -20.1918 -20.1918 -20.1730 -20.1730 -20.1704 -20.1704
   -20.1119 -20.0890 -20.0890 -20.0855 -20.0855 -20.0677 -20.0677 -20.0454
   -20.0454 -20.0292 -20.0127 -19.9571 -19.9359 -19.9358 -19.8993 -19.8993
   -19.8881 -19.8881 -19.8661 -19.8644 -19.8643 -19.8441 -19.8441 -19.8317
   -19.8317 -19.8289 -19.8289 -19.8271 -19.8270 -19.8270 -19.8259 -19.8259
   -19.8171 -19.8171 -19.7893 -19.7893 -19.7753 -19.7138 -19.7138 -19.6993
   -19.6993 -19.6761 -19.6717 -19.6628 -19.6482 -19.6482 -19.6475 -19.6475
   -19.6416 -19.6403 -19.6397 -19.6397 -19.6380 -19.6380 -19.6261 -19.6226
   -19.6226 -19.6197 -19.6196 -19.6196 -19.6116 -19.6100 -19.6100 -19.6092
   -19.6024 -19.6024 -19.5875 -19.5875 -19.5700 -19.5257 -19.4909 -19.4831
    15.3788  16.8975  16.8975  16.9042  17.1144  17.1668  17.2135  17.2136
    17.2184  17.2184  17.3477  17.3477  17.3757  17.5648  17.7241  17.7241
    17.7422  18.0942  18.0942  18.1213  18.1213  18.2849  18.2849  18.2867
    18.2867  18.3268  18.3268  18.4007  18.4692  18.4692  18.5888  18.6324
    18.6324  18.6518  18.6518  18.6797  18.8449  18.9172  18.9172  18.9235
    18.9235  18.9474  18.9474  19.0721  19.0721  19.2940  19.2940  19.3931
    19.3931  19.4170  19.4730  19.4731  19.5067  19.5067  19.5575  19.5575
    19.5751  19.7627  19.7627  19.7667  19.7668  19.8577  19.8577  19.9262
    19.9262  19.9697  20.0419  20.0419  20.1546  20.1546  20.1713  20.1713
    20.2089  20.2090  20.2467  20.3136  20.3136  20.3254  20.3380  20.3503
    20.3889  20.3889  20.4131  20.4586  20.4903  20.4903  20.5284  20.5531
    21.0677  21.1665  21.2039  21.2039  21.4554  21.4554  21.6187  21.6285
    21.6286  21.6319  21.6319  21.7039  21.7039  21.7245  21.7245  21.7505
    21.7505  21.9049  21.9695  22.0711  22.0711  22.0935  22.0935  22.1442
    22.2213  22.5017  22.5017  22.6155  22.6285  22.6286  22.6448  22.6448
    22.6850  22.6850  22.7104  22.7649  22.7649  22.8069  22.8379  22.8379
    22.9022  22.9022  22.9204  22.9614  22.9614  23.0587  23.1496  23.2082
    23.2083  23.2401  23.2401  23.3198  23.3311  23.3311  23.4564  23.4564
    23.6622  23.8563  24.0244  24.0274  24.0274  24.1656  24.1656  24.3365
    24.4461  24.4461  24.5106  24.5906  24.5906  24.6059  24.6116  24.8538
    24.8538  24.9553  24.9553  24.9589  24.9589  24.9767  24.9767  25.0201
    25.2187  25.5073  25.8482  25.8482  25.9474  25.9474  26.4731  26.4731
    26.9837  26.9837  27.0854

          k = 0.0554 0.1663 0.2772 ( 30368 PWs)   bands (ev):

   -50.0539 -50.0029 -49.9815 -49.9622 -49.9484 -49.9445 -49.9343 -49.9282
   -49.9237 -49.9212 -49.9143 -49.9132 -49.9127 -49.9085 -49.9078 -49.8999
   -49.8983 -49.8957 -49.8907 -49.8896 -49.8859 -49.8807 -49.8745 -49.8617
   -49.8583 -49.8578 -49.8577 -49.8553 -49.8552 -49.8541 -49.8527 -49.8522
   -20.4330 -20.4295 -20.4111 -20.3951 -20.3679 -20.3652 -20.3562 -20.2858
   -20.2772 -20.2444 -20.2431 -20.2399 -20.2398 -20.2365 -20.2157 -20.2121
   -20.2109 -20.1951 -20.1938 -20.1863 -20.1836 -20.1802 -20.1764 -20.1580
   -20.1401 -20.1046 -20.0898 -20.0726 -20.0722 -20.0590 -20.0529 -20.0508
   -20.0311 -20.0252 -19.9996 -19.9867 -19.9705 -19.9351 -19.9238 -19.8979
   -19.8882 -19.8833 -19.8617 -19.8527 -19.8481 -19.8331 -19.8319 -19.8292
   -19.8247 -19.8227 -19.8182 -19.8084 -19.7993 -19.7951 -19.7933 -19.7909
   -19.7907 -19.7868 -19.7549 -19.7525 -19.7437 -19.7394 -19.7296 -19.7286
   -19.6880 -19.6872 -19.6826 -19.6803 -19.6732 -19.6717 -19.6707 -19.6682
   -19.6591 -19.6535 -19.6455 -19.6411 -19.6410 -19.6385 -19.6328 -19.6288
   -19.6276 -19.6253 -19.6224 -19.6188 -19.6109 -19.6102 -19.6046 -19.5899
   -19.5893 -19.5874 -19.5834 -19.5720 -19.5604 -19.5594 -19.5017 -19.4888
    15.5449  16.8407  16.9954  17.0167  17.0215  17.1897  17.2585  17.3314
    17.3430  17.3592  17.4216  17.4688  17.5045  17.6337  17.6537  17.8303
    17.8556  17.8754  17.9146  18.0162  18.0553  18.1399  18.1542  18.1726
    18.2016  18.2382  18.3191  18.3470  18.3630  18.3731  18.3766  18.3986
    18.5234  18.5466  18.5568  18.6594  18.6971  18.7641  18.7694  18.9355
    18.9480  18.9728  19.0067  19.1205  19.1461  19.2085  19.2233  19.2528
    19.2633  19.3161  19.3449  19.3862  19.4643  19.4748  19.5043  19.5767
    19.5942  19.6322  19.7485  19.8618  19.9017  19.9319  19.9605  19.9906
    20.0204  20.0475  20.0769  20.0960  20.1658  20.1788  20.2020  20.2176
    20.2312  20.3097  20.3413  20.3700  20.3824  20.4463  20.4801  20.4839
    20.5506  20.6072  20.6086  20.6165  20.6278  20.6380  20.8610  20.8759
    20.9069  20.9612  20.9788  21.2006  21.2027  21.2087  21.3686  21.4069
    21.4841  21.4985  21.5347  21.6615  21.6964  21.7502  21.8202  21.9146
    21.9341  21.9699  22.0221  22.0617  22.1134  22.1246  22.2197  22.3011
    22.3308  22.4085  22.4143  22.4509  22.4648  22.4880  22.5955  22.6021
    22.6118  22.6201  22.7156  22.7393  22.8031  22.8447  22.9082  22.9214
    22.9390  22.9679  22.9705  23.1524  23.2463  23.2464  23.2666  23.2944
    23.3207  23.4736  23.4935  23.5340  23.5420  23.5460  23.5750  23.5910
    23.5986  23.6770  23.7900  23.8830  24.0400  24.1525  24.2510  24.2743
    24.2886  24.3603  24.3873  24.4981  24.5174  24.5206  24.6662  24.6670
    24.7270  24.7297  24.7919  24.8471  24.9549  24.9604  24.9714  24.9836
    25.0302  25.4094  25.4442  25.8317  25.9499  26.2726  26.3624  26.4545
    26.4702  26.5472  27.4586

          k = 0.0554 0.1663 0.3881 ( 30350 PWs)   bands (ev):

   -50.0447 -50.0188 -49.9755 -49.9587 -49.9572 -49.9430 -49.9403 -49.9284
   -49.9247 -49.9220 -49.9172 -49.9146 -49.9118 -49.9093 -49.8986 -49.8972
   -49.8965 -49.8956 -49.8911 -49.8805 -49.8772 -49.8735 -49.8710 -49.8685
   -49.8637 -49.8632 -49.8618 -49.8587 -49.8550 -49.8544 -49.8525 -49.8522
   -20.4082 -20.4019 -20.3773 -20.3576 -20.3443 -20.3436 -20.3323 -20.3230
   -20.3210 -20.2901 -20.2822 -20.2776 -20.2646 -20.2381 -20.2329 -20.2206
   -20.2201 -20.2178 -20.2140 -20.2041 -20.1813 -20.1676 -20.1659 -20.1471
   -20.1243 -20.1090 -20.1030 -20.0842 -20.0828 -20.0542 -20.0310 -20.0289
   -20.0235 -20.0111 -20.0024 -19.9848 -19.9692 -19.9569 -19.9567 -19.9391
   -19.9156 -19.8869 -19.8316 -19.8300 -19.8265 -19.8226 -19.8209 -19.8169
   -19.8110 -19.8024 -19.8016 -19.7777 -19.7715 -19.7677 -19.7662 -19.7635
   -19.7586 -19.7575 -19.7503 -19.7436 -19.7232 -19.7221 -19.7213 -19.7124
   -19.7087 -19.7074 -19.7063 -19.7062 -19.7059 -19.7002 -19.7001 -19.6743
   -19.6718 -19.6676 -19.6521 -19.6490 -19.6443 -19.6429 -19.6425 -19.6367
   -19.6340 -19.6313 -19.6165 -19.6163 -19.6122 -19.6088 -19.6040 -19.5997
   -19.5920 -19.5860 -19.5729 -19.5624 -19.5579 -19.5442 -19.5177 -19.5015
    15.7871  16.4552  17.1338  17.1804  17.1995  17.3197  17.4037  17.4777
    17.4993  17.5188  17.5313  17.5487  17.6271  17.6491  17.6679  17.6934
    17.7370  17.7752  17.8477  17.8508  17.9358  17.9504  18.0119  18.0436
    18.0530  18.0626  18.1790  18.2269  18.2320  18.2341  18.4087  18.4302
    18.4944  18.5045  18.5275  18.5610  18.6631  18.8594  18.8655  18.8817
    18.8947  18.9913  19.0097  19.0560  19.0694  19.1047  19.1239  19.1332
    19.1722  19.1860  19.3250  19.3251  19.3308  19.4390  19.5984  19.5988
    19.6084  19.6765  19.8733  19.8778  19.9239  19.9451  19.9792  19.9806
    20.0071  20.0460  20.0638  20.1319  20.1324  20.1374  20.1848  20.2027
    20.3086  20.3130  20.3362  20.5344  20.5947  20.6232  20.6461  20.6817
    20.7408  20.7625  20.7683  20.7742  20.7843  20.7876  20.7900  20.8241
    20.9168  21.0051  21.0567  21.0869  21.1453  21.1551  21.2434  21.2713
    21.4827  21.5676  21.6237  21.6942  21.7058  21.7579  21.8638  21.9238
    21.9421  21.9722  22.0155  22.0271  22.0345  22.0372  22.1081  22.1745
    22.2397  22.2962  22.3918  22.4172  22.4385  22.4994  22.5278  22.5478
    22.5593  22.6612  22.7035  22.7161  22.8018  22.8363  22.8440  22.9210
    22.9686  23.0085  23.1492  23.1850  23.2343  23.2365  23.3100  23.3258
    23.5072  23.5359  23.6026  23.6957  23.8158  23.8190  23.8400  23.8481
    23.8707  23.8820  23.8940  23.9855  23.9984  24.0785  24.0809  24.1774
    24.2533  24.3573  24.3632  24.4227  24.4234  24.4238  24.4279  24.4369
    24.5734  24.5776  24.6485  24.8874  24.9541  24.9558  24.9620  24.9668
    24.9671  25.1514  25.4262  25.6580  25.6949  25.8446  25.9946  26.1936
    26.6833  27.0061  27.2855

          k = 0.0554 0.1663-0.4990 ( 30340 PWs)   bands (ev):

   -50.0330 -50.0328 -49.9679 -49.9677 -49.9508 -49.9506 -49.9350 -49.9348
   -49.9202 -49.9200 -49.9199 -49.9197 -49.9107 -49.9105 -49.8975 -49.8973
   -49.8932 -49.8930 -49.8831 -49.8829 -49.8715 -49.8713 -49.8697 -49.8695
   -49.8673 -49.8671 -49.8633 -49.8631 -49.8548 -49.8546 -49.8525 -49.8523
   -20.3741 -20.3740 -20.3657 -20.3656 -20.3361 -20.3360 -20.3157 -20.3155
   -20.3140 -20.3139 -20.3132 -20.3131 -20.2756 -20.2754 -20.2292 -20.2292
   -20.2216 -20.2215 -20.2205 -20.2205 -20.1677 -20.1677 -20.1455 -20.1454
   -20.1152 -20.1151 -20.1080 -20.1079 -20.0634 -20.0633 -20.0306 -20.0305
   -20.0013 -20.0012 -19.9862 -19.9860 -19.9838 -19.9838 -19.9481 -19.9480
   -19.9191 -19.9189 -19.8310 -19.8308 -19.8211 -19.8210 -19.7962 -19.7960
   -19.7821 -19.7819 -19.7781 -19.7779 -19.7716 -19.7716 -19.7524 -19.7523
   -19.7428 -19.7427 -19.7363 -19.7363 -19.7336 -19.7335 -19.7315 -19.7314
   -19.7300 -19.7298 -19.7027 -19.7026 -19.6954 -19.6952 -19.6769 -19.6767
   -19.6751 -19.6750 -19.6606 -19.6605 -19.6585 -19.6584 -19.6387 -19.6386
   -19.6344 -19.6342 -19.6279 -19.6279 -19.6141 -19.6139 -19.5956 -19.5954
   -19.5950 -19.5950 -19.5625 -19.5624 -19.5382 -19.5380 -19.5205 -19.5203
    16.0956  16.0958  17.3009  17.3011  17.3879  17.3881  17.4206  17.4208
    17.5031  17.5031  17.6009  17.6009  17.6750  17.6751  17.7056  17.7058
    17.7430  17.7431  17.7824  17.7824  17.8866  17.8868  17.9163  17.9164
    17.9366  17.9367  18.0893  18.0894  18.2748  18.2750  18.3269  18.3269
    18.6070  18.6071  18.6250  18.6251  18.6785  18.6786  18.7666  18.7668
    19.0077  19.0077  19.0432  19.0434  19.0721  19.0722  19.1062  19.1062
    19.1763  19.1764  19.2415  19.2416  19.2599  19.2600  19.7276  19.7277
    19.7832  19.7833  19.7960  19.7962  19.8518  19.8519  19.9064  19.9064
    20.0599  20.0601  20.0748  20.0749  20.2543  20.2544  20.2821  20.2823
    20.3577  20.3577  20.3981  20.3981  20.4580  20.4580  20.6404  20.6405
    20.7475  20.7475  20.8407  20.8408  20.9165  20.9167  20.9241  20.9243
    20.9553  20.9554  20.9877  20.9878  21.4008  21.4008  21.4414  21.4414
    21.4763  21.4763  21.5253  21.5254  21.6967  21.6968  21.7011  21.7012
    21.9566  21.9567  22.1272  22.1272  22.1518  22.1520  22.1998  22.1998
    22.2086  22.2088  22.2725  22.2726  22.3352  22.3354  22.4428  22.4430
    22.6347  22.6349  22.6581  22.6582  22.7611  22.7613  23.0237  23.0239
    23.0563  23.0565  23.0608  23.0610  23.1289  23.1291  23.5786  23.5788
    23.6621  23.6623  23.6735  23.6735  23.8907  23.8908  23.9453  23.9453
    24.0700  24.0701  24.1228  24.1228  24.1237  24.1238  24.1447  24.1448
    24.1449  24.1450  24.1527  24.1528  24.1634  24.1635  24.3508  24.3508
    24.4896  24.4896  24.9111  24.9112  24.9590  24.9592  24.9641  24.9642
    25.2042  25.2044  25.4285  25.4287  25.4357  25.4357  25.9677  25.9678
    27.0278  27.0280  27.4524

          k = 0.0554 0.2772 0.2772 ( 30346 PWs)   bands (ev):

   -50.0478 -49.9983 -49.9983 -49.9610 -49.9589 -49.9419 -49.9326 -49.9326
   -49.9200 -49.9200 -49.9189 -49.9113 -49.9113 -49.9109 -49.8959 -49.8959
   -49.8954 -49.8954 -49.8869 -49.8869 -49.8823 -49.8823 -49.8695 -49.8614
   -49.8614 -49.8609 -49.8609 -49.8587 -49.8587 -49.8545 -49.8545 -49.8524
   -20.4194 -20.4194 -20.3839 -20.3636 -20.3520 -20.3441 -20.3441 -20.2852
   -20.2852 -20.2814 -20.2814 -20.2449 -20.2449 -20.2228 -20.2228 -20.2182
   -20.2182 -20.2157 -20.2157 -20.2081 -20.2081 -20.1815 -20.1815 -20.1814
   -20.1668 -20.1668 -20.0875 -20.0794 -20.0529 -20.0529 -20.0338 -20.0338
   -20.0250 -20.0185 -19.9862 -19.9861 -19.9155 -19.9155 -19.9152 -19.8877
   -19.8877 -19.8825 -19.8825 -19.8503 -19.8503 -19.8284 -19.8284 -19.8174
   -19.8174 -19.8117 -19.8112 -19.8112 -19.7975 -19.7975 -19.7764 -19.7764
   -19.7591 -19.7591 -19.7572 -19.7572 -19.7225 -19.7225 -19.7207 -19.7207
   -19.7066 -19.7066 -19.7049 -19.6970 -19.6763 -19.6763 -19.6748 -19.6683
   -19.6683 -19.6655 -19.6653 -19.6653 -19.6392 -19.6392 -19.6373 -19.6372
   -19.6345 -19.6276 -19.6143 -19.6124 -19.6124 -19.6104 -19.6025 -19.6025
   -19.5972 -19.5864 -19.5864 -19.5573 -19.5573 -19.5457 -19.5128 -19.4886
    15.7057  16.9639  16.9640  17.1105  17.1205  17.1205  17.2402  17.3249
    17.4906  17.4906  17.5403  17.5403  17.6432  17.6856  17.7661  17.7661
    17.8514  17.8949  17.9149  17.9149  17.9341  17.9341  18.0274  18.0274
    18.0721  18.0721  18.1529  18.1529  18.3522  18.4309  18.4309  18.4466
    18.4466  18.4843  18.4843  18.5685  18.5685  18.6649  18.6649  18.7392
    18.7392  18.8598  19.0043  19.0043  19.0720  19.0720  19.0773  19.3157
    19.3157  19.3325  19.3325  19.3705  19.3769  19.3770  19.4358  19.7672
    19.7672  19.8817  19.8817  19.9543  19.9543  20.0224  20.0224  20.0627
    20.0627  20.0781  20.0781  20.1644  20.1800  20.2525  20.2525  20.3305
    20.3416  20.3994  20.3994  20.5518  20.5518  20.5653  20.6199  20.6433
    20.6537  20.6846  20.6847  20.7063  20.7398  20.7535  20.7559  20.7559
    20.9096  20.9096  21.0390  21.0390  21.2681  21.2681  21.4041  21.4042
    21.4602  21.4602  21.5596  21.5596  21.5823  21.6540  21.6754  21.6754
    21.7133  21.7134  21.8875  21.9103  22.0429  22.0684  22.0685  22.0709
    22.0709  22.1941  22.2673  22.3988  22.3989  22.5442  22.5614  22.5614
    22.8413  22.8491  22.8491  22.9757  22.9757  23.0017  23.0017  23.0999
    23.1063  23.1197  23.1198  23.2039  23.2039  23.3080  23.3080  23.3152
    23.3152  23.3666  23.3667  23.6269  23.6539  23.6539  23.7104  23.8012
    23.8012  23.8055  23.8269  23.8269  23.9806  24.0325  24.2046  24.2046
    24.4061  24.5317  24.5317  24.5545  24.5591  24.5591  24.5652  24.5897
    24.7325  24.7325  24.7339  24.7339  24.7740  24.7740  24.7833  24.7833
    24.8803  25.2402  25.3338  25.3338  25.8458  25.8458  26.9029  26.9029
    27.1471  27.2032  27.2032

          k = 0.0554 0.2772 0.3881 ( 30358 PWs)   bands (ev):

   -50.0388 -50.0137 -49.9915 -49.9726 -49.9542 -49.9408 -49.9379 -49.9301
   -49.9268 -49.9231 -49.9184 -49.9137 -49.9085 -49.9007 -49.8958 -49.8927
   -49.8913 -49.8884 -49.8846 -49.8843 -49.8788 -49.8756 -49.8704 -49.8656
   -49.8654 -49.8648 -49.8648 -49.8609 -49.8595 -49.8572 -49.8538 -49.8528
   -20.3987 -20.3959 -20.3485 -20.3296 -20.3288 -20.3263 -20.3245 -20.3241
   -20.3129 -20.2772 -20.2772 -20.2760 -20.2630 -20.2612 -20.2448 -20.2431
   -20.2422 -20.2297 -20.2259 -20.2232 -20.2037 -20.2003 -20.1835 -20.1780
   -20.1718 -20.1423 -20.1127 -20.1116 -20.0822 -20.0579 -20.0156 -20.0062
   -19.9960 -19.9751 -19.9670 -19.9470 -19.9459 -19.9441 -19.9232 -19.9144
   -19.8751 -19.8743 -19.8572 -19.8442 -19.8362 -19.8337 -19.8166 -19.8135
   -19.8038 -19.8001 -19.7973 -19.7873 -19.7829 -19.7815 -19.7684 -19.7618
   -19.7529 -19.7515 -19.7510 -19.7498 -19.7425 -19.7300 -19.7197 -19.7166
   -19.7130 -19.7091 -19.6952 -19.6950 -19.6949 -19.6873 -19.6866 -19.6854
   -19.6730 -19.6634 -19.6612 -19.6553 -19.6514 -19.6505 -19.6489 -19.6482
   -19.6446 -19.6296 -19.6248 -19.6210 -19.6202 -19.6171 -19.6156 -19.6037
   -19.5908 -19.5905 -19.5745 -19.5450 -19.5382 -19.5313 -19.5290 -19.4958
    15.9401  16.5878  17.1414  17.2519  17.2606  17.3003  17.3419  17.4410
    17.6086  17.6200  17.6464  17.6652  17.6682  17.6812  17.6930  17.7169
    17.7319  17.7755  17.8171  17.8408  17.8586  17.8885  17.9555  17.9564
    17.9787  18.0041  18.1509  18.1654  18.1895  18.1943  18.2343  18.2986
    18.3662  18.4606  18.5232  18.5808  18.5872  18.5930  18.6353  18.6370
    18.7308  18.8170  18.8432  18.9200  18.9584  19.0863  19.0867  19.1229
    19.1957  19.2800  19.4061  19.4143  19.4427  19.4548  19.6223  19.6715
    19.7090  19.7300  19.8090  19.9497  20.0314  20.0334  20.1196  20.1409
    20.1588  20.1781  20.1864  20.2713  20.3101  20.3271  20.3307  20.4464
    20.4466  20.5167  20.5367  20.5595  20.5619  20.5923  20.6732  20.7231
    20.7634  20.7708  20.8035  20.8112  20.8254  20.9051  20.9350  20.9355
    20.9426  21.0145  21.0473  21.0633  21.1474  21.2102  21.2579  21.3518
    21.4133  21.4190  21.4519  21.4733  21.5092  21.5333  21.5573  21.5639
    21.6700  21.6845  21.7064  21.7663  21.8840  21.9169  21.9300  21.9814
    22.0915  22.0981  22.2630  22.2868  22.4091  22.4461  22.5272  22.6021
    22.7525  22.7796  22.7897  22.8369  22.9095  22.9982  23.0598  23.0679
    23.1496  23.1836  23.2311  23.3355  23.3447  23.3602  23.4306  23.4921
    23.5409  23.5415  23.6967  23.6989  23.7002  23.7465  23.9247  23.9690
    23.9875  24.0031  24.0429  24.0492  24.0632  24.0693  24.0718  24.1122
    24.1828  24.3314  24.3989  24.4168  24.4178  24.4296  24.4480  24.4527
    24.4604  24.5268  24.7303  24.7395  24.7447  24.7581  24.8099  24.8493
    25.1718  25.2916  25.3129  25.3279  25.3739  25.6935  26.5622  26.5732
    27.3358  27.5120  27.8120

          k = 0.0554 0.2772-0.4990 ( 30358 PWs)   bands (ev):

   -50.0275 -50.0273 -49.9830 -49.9828 -49.9482 -49.9480 -49.9329 -49.9327
   -49.9270 -49.9268 -49.9163 -49.9161 -49.9051 -49.9049 -49.8905 -49.8903
   -49.8878 -49.8876 -49.8821 -49.8819 -49.8741 -49.8739 -49.8717 -49.8715
   -49.8698 -49.8696 -49.8608 -49.8606 -49.8603 -49.8601 -49.8534 -49.8532
   -20.3683 -20.3683 -20.3637 -20.3636 -20.3068 -20.3067 -20.3035 -20.3034
   -20.2989 -20.2987 -20.2786 -20.2785 -20.2724 -20.2722 -20.2648 -20.2648
   -20.2625 -20.2624 -20.2373 -20.2372 -20.1899 -20.1898 -20.1825 -20.1824
   -20.1484 -20.1483 -20.1065 -20.1065 -20.1004 -20.1003 -19.9797 -19.9796
   -19.9772 -19.9771 -19.9592 -19.9591 -19.9429 -19.9427 -19.9242 -19.9242
   -19.9068 -19.9066 -19.8153 -19.8152 -19.8125 -19.8123 -19.8102 -19.8100
   -19.8009 -19.8008 -19.7992 -19.7991 -19.7866 -19.7865 -19.7778 -19.7776
   -19.7494 -19.7492 -19.7408 -19.7408 -19.7250 -19.7249 -19.7235 -19.7234
   -19.7063 -19.7062 -19.7000 -19.6999 -19.6969 -19.6967 -19.6845 -19.6845
   -19.6714 -19.6712 -19.6570 -19.6568 -19.6556 -19.6554 -19.6552 -19.6551
   -19.6449 -19.6447 -19.6336 -19.6335 -19.6199 -19.6198 -19.6013 -19.6012
   -19.5967 -19.5965 -19.5499 -19.5497 -19.5382 -19.5382 -19.5104 -19.5104
    16.2389  16.2391  17.3640  17.3642  17.4297  17.4298  17.4390  17.4392
    17.4937  17.4938  17.5241  17.5243  17.6057  17.6057  17.7854  17.7856
    17.7905  17.7906  17.8896  17.8896  17.9092  17.9092  17.9409  17.9409
    17.9491  17.9493  18.0707  18.0707  18.0863  18.0864  18.1933  18.1934
    18.3882  18.3884  18.4919  18.4920  18.5994  18.5994  18.7242  18.7243
    18.7247  18.7247  18.8716  18.8717  18.9722  18.9723  19.0005  19.0006
    19.3635  19.3635  19.4446  19.4447  19.5308  19.5309  19.5447  19.5448
    19.5792  19.5793  19.8450  19.8451  20.0903  20.0904  20.1919  20.1921
    20.2163  20.2163  20.3072  20.3073  20.3206  20.3207  20.3614  20.3614
    20.4484  20.4484  20.5933  20.5933  20.7023  20.7025  20.8002  20.8002
    20.8048  20.8048  20.8762  20.8762  20.9157  20.9158  20.9323  20.9324
    21.0992  21.0993  21.1285  21.1285  21.1452  21.1452  21.1562  21.1563
    21.3312  21.3312  21.3357  21.3357  21.4380  21.4382  21.4462  21.4463
    21.6557  21.6558  21.8750  21.8750  22.0249  22.0251  22.0457  22.0457
    22.0864  22.0865  22.1271  22.1272  22.2358  22.2359  22.4199  22.4200
    22.6157  22.6159  22.9280  22.9282  22.9659  22.9661  23.0288  23.0290
    23.1704  23.1706  23.4214  23.4216  23.4615  23.4616  23.5758  23.5760
    23.6701  23.6702  23.7427  23.7427  23.8241  23.8241  23.8241  23.8242
    24.0758  24.0758  24.0764  24.0765  24.1808  24.1809  24.2469  24.2470
    24.2472  24.2473  24.2673  24.2673  24.2875  24.2876  24.2894  24.2894
    24.3905  24.3906  24.7470  24.7472  24.7681  24.7682  24.8149  24.8150
    24.9653  24.9654  25.5038  25.5040  25.9012  25.9014  25.9780  25.9780
    27.6943  27.6945  28.0219

          k = 0.0554 0.3881 0.3881 ( 30343 PWs)   bands (ev):

   -50.0303 -50.0063 -50.0063 -49.9854 -49.9498 -49.9376 -49.9376 -49.9344
   -49.9286 -49.9244 -49.9244 -49.9177 -49.8937 -49.8937 -49.8879 -49.8879
   -49.8874 -49.8873 -49.8810 -49.8810 -49.8787 -49.8787 -49.8695 -49.8695
   -49.8690 -49.8690 -49.8669 -49.8669 -49.8614 -49.8558 -49.8558 -49.8536
   -20.3795 -20.3795 -20.3187 -20.3187 -20.3167 -20.3167 -20.3124 -20.3060
   -20.3007 -20.3007 -20.2834 -20.2747 -20.2747 -20.2656 -20.2656 -20.2421
   -20.2421 -20.2283 -20.2283 -20.2267 -20.2267 -20.2260 -20.2260 -20.1892
   -20.1892 -20.1877 -20.1495 -20.1060 -20.1002 -20.0487 -20.0487 -19.9791
   -19.9591 -19.9591 -19.9258 -19.9258 -19.9197 -19.8894 -19.8894 -19.8750
   -19.8750 -19.8738 -19.8738 -19.8579 -19.8579 -19.8107 -19.8107 -19.8104
   -19.8103 -19.7969 -19.7969 -19.7895 -19.7880 -19.7880 -19.7847 -19.7847
   -19.7719 -19.7719 -19.7421 -19.7420 -19.7341 -19.7341 -19.7307 -19.7220
   -19.7220 -19.6983 -19.6983 -19.6941 -19.6872 -19.6872 -19.6871 -19.6871
   -19.6697 -19.6649 -19.6649 -19.6637 -19.6637 -19.6570 -19.6494 -19.6424
   -19.6370 -19.6314 -19.6275 -19.6258 -19.6258 -19.6191 -19.6144 -19.5971
   -19.5971 -19.5923 -19.5923 -19.5456 -19.5255 -19.5224 -19.5224 -19.4972
    16.1631  16.7804  16.7804  17.3096  17.3678  17.4090  17.4430  17.4430
    17.5209  17.6719  17.6720  17.6944  17.7365  17.7366  17.7973  17.7973
    17.8047  17.8047  17.8175  17.8175  17.8398  17.8537  17.8537  17.9286
    17.9286  17.9993  18.0440  18.1115  18.1115  18.3019  18.3019  18.3050
    18.3050  18.3102  18.3102  18.3166  18.3167  18.5531  18.5531  18.5655
    18.5655  18.6184  18.6184  18.8689  18.8689  18.9953  19.2039  19.2039
    19.2096  19.2096  19.3712  19.5335  19.5335  19.5493  19.5590  19.6268
    19.6268  19.9490  19.9593  19.9593  20.1227  20.2194  20.2194  20.3350
    20.3466  20.3466  20.3532  20.3532  20.3627  20.3627  20.3935  20.3935
    20.4712  20.5181  20.6754  20.6754  20.7686  20.7686  20.7863  20.8362
    20.8374  20.8472  20.8604  20.9001  20.9501  20.9501  20.9795  20.9795
    21.1236  21.1237  21.1376  21.1399  21.1399  21.1704  21.1704  21.2158
    21.2943  21.2943  21.3234  21.3234  21.3467  21.3581  21.3958  21.3958
    21.4188  21.4188  21.5597  21.6300  21.6300  21.6605  21.6605  21.9368
    22.0859  22.0859  22.1002  22.1002  22.1840  22.1840  22.2462  22.3344
    22.6445  22.9679  23.0175  23.0175  23.0396  23.0396  23.3029  23.3029
    23.3142  23.3142  23.4122  23.4122  23.4722  23.4723  23.5414  23.5788
    23.7229  23.7229  23.8273  23.8550  23.8550  23.8718  23.8718  23.8810
    23.8810  23.9664  24.0745  24.1724  24.2067  24.2293  24.2293  24.2322
    24.2322  24.2757  24.3398  24.3941  24.3941  24.4403  24.4404  24.4547
    24.4547  24.4798  24.4847  24.4847  24.5017  24.5017  24.6706  24.6982
    24.6982  25.0288  25.1905  25.1905  25.9479  25.9479  27.2202  27.2202
    27.2894  27.2894  28.0063

          k = 0.0554 0.3881-0.4990 ( 30348 PWs)   bands (ev):

   -50.0195 -50.0193 -49.9969 -49.9967 -49.9443 -49.9441 -49.9336 -49.9334
   -49.9299 -49.9297 -49.9215 -49.9213 -49.8911 -49.8909 -49.8840 -49.8838
   -49.8827 -49.8825 -49.8806 -49.8804 -49.8766 -49.8764 -49.8746 -49.8744
   -49.8735 -49.8733 -49.8684 -49.8682 -49.8584 -49.8582 -49.8547 -49.8545
   -20.3534 -20.3534 -20.3517 -20.3517 -20.3000 -20.3000 -20.2999 -20.2999
   -20.2850 -20.2848 -20.2768 -20.2767 -20.2710 -20.2709 -20.2672 -20.2670
   -20.2500 -20.2499 -20.2376 -20.2375 -20.2280 -20.2279 -20.2159 -20.2157
   -20.1887 -20.1886 -20.1453 -20.1452 -20.0803 -20.0803 -20.0138 -20.0138
   -19.9234 -19.9233 -19.9148 -19.9147 -19.9025 -19.9023 -19.8890 -19.8889
   -19.8642 -19.8642 -19.8400 -19.8398 -19.8362 -19.8360 -19.8343 -19.8343
   -19.8265 -19.8265 -19.7928 -19.7927 -19.7789 -19.7789 -19.7718 -19.7716
   -19.7569 -19.7568 -19.7501 -19.7501 -19.7493 -19.7493 -19.7321 -19.7319
   -19.7122 -19.7120 -19.7116 -19.7115 -19.6802 -19.6800 -19.6768 -19.6767
   -19.6766 -19.6766 -19.6691 -19.6690 -19.6457 -19.6455 -19.6416 -19.6415
   -19.6379 -19.6378 -19.6328 -19.6326 -19.6153 -19.6151 -19.6105 -19.6104
   -19.6059 -19.6057 -19.5671 -19.5669 -19.5202 -19.5202 -19.5062 -19.5062
    16.4475  16.4477  17.0246  17.0249  17.5199  17.5199  17.5300  17.5301
    17.6153  17.6155  17.6426  17.6426  17.6709  17.6711  17.6729  17.6730
    17.8116  17.8117  17.8469  17.8470  17.9497  17.9498  18.0338  18.0340
    18.0422  18.0423  18.0644  18.0644  18.0689  18.0689  18.1136  18.1138
    18.2875  18.2876  18.3166  18.3167  18.4262  18.4264  18.4597  18.4598
    18.4812  18.4813  18.7702  18.7702  19.0002  19.0003  19.0133  19.0135
    19.3515  19.3517  19.3624  19.3626  19.6062  19.6063  19.6838  19.6839
    19.8102  19.8103  19.8826  19.8826  20.0786  20.0788  20.3294  20.3296
    20.3799  20.3799  20.4359  20.4360  20.5208  20.5208  20.5717  20.5718
    20.6811  20.6812  20.6997  20.6998  20.7261  20.7262  20.8868  20.8868
    20.8975  20.8975  20.9199  20.9200  20.9433  20.9434  20.9750  20.9750
    21.0304  21.0305  21.0780  21.0780  21.0862  21.0862  21.1136  21.1137
    21.2255  21.2256  21.2327  21.2328  21.3772  21.3773  21.4007  21.4007
    21.4073  21.4074  21.5620  21.5620  21.8046  21.8048  21.8073  21.8073
    21.8592  21.8593  21.8784  21.8785  22.0287  22.0289  22.2075  22.2076
    22.8444  22.8446  23.1064  23.1065  23.2185  23.2186  23.2622  23.2623
    23.2918  23.2920  23.5253  23.5254  23.6002  23.6004  23.6202  23.6203
    23.6953  23.6954  23.7770  23.7772  23.8905  23.8905  24.0288  24.0290
    24.0933  24.0935  24.1828  24.1829  24.2499  24.2499  24.2518  24.2518
    24.2699  24.2699  24.3357  24.3358  24.3387  24.3388  24.3734  24.3734
    24.3778  24.3779  24.4572  24.4574  24.5113  24.5115  24.5688  24.5688
    24.6859  24.6859  25.0435  25.0437  26.5953  26.5953  26.5984  26.5985
    27.9315  27.9317  28.0026

          k = 0.0554-0.4990-0.4990 ( 30352 PWs)   bands (ev):

   -50.0093 -50.0091 -50.0091 -50.0089 -49.9395 -49.9393 -49.9393 -49.9392
   -49.9261 -49.9260 -49.9260 -49.9258 -49.8789 -49.8789 -49.8787 -49.8787
   -49.8787 -49.8787 -49.8785 -49.8785 -49.8784 -49.8783 -49.8782 -49.8782
   -49.8782 -49.8782 -49.8780 -49.8780 -49.8565 -49.8563 -49.8563 -49.8561
   -20.3302 -20.3302 -20.3302 -20.3302 -20.3302 -20.3302 -20.3301 -20.3301
   -20.2599 -20.2599 -20.2598 -20.2598 -20.2598 -20.2598 -20.2596 -20.2596
   -20.2488 -20.2486 -20.2486 -20.2484 -20.2308 -20.2307 -20.2307 -20.2306
   -20.1923 -20.1922 -20.1922 -20.1921 -20.0481 -20.0481 -20.0481 -20.0481
   -19.8725 -19.8725 -19.8725 -19.8725 -19.8725 -19.8725 -19.8724 -19.8724
   -19.8666 -19.8666 -19.8665 -19.8664 -19.8664 -19.8664 -19.8663 -19.8663
   -19.8056 -19.8056 -19.8056 -19.8056 -19.7647 -19.7647 -19.7645 -19.7645
   -19.7645 -19.7645 -19.7644 -19.7644 -19.7621 -19.7621 -19.7621 -19.7621
   -19.6959 -19.6959 -19.6957 -19.6957 -19.6957 -19.6957 -19.6956 -19.6956
   -19.6609 -19.6608 -19.6608 -19.6607 -19.6472 -19.6472 -19.6472 -19.6472
   -19.6251 -19.6251 -19.6251 -19.6251 -19.6206 -19.6205 -19.6205 -19.6204
   -19.5891 -19.5890 -19.5890 -19.5888 -19.5093 -19.5093 -19.5093 -19.5093
    16.7133  16.7135  16.7135  16.7137  17.5805  17.5806  17.5806  17.5806
    17.6656  17.6657  17.6657  17.6658  17.7114  17.7114  17.7114  17.7114
    17.8480  17.8480  17.8482  17.8482  17.8483  17.8483  17.8484  17.8484
    18.1649  18.1649  18.1651  18.1651  18.1651  18.1651  18.1653  18.1653
    18.2603  18.2604  18.2604  18.2604  18.2604  18.2604  18.2604  18.2604
    18.5227  18.5227  18.5227  18.5228  19.1650  19.1651  19.1652  19.1652
    19.1652  19.1653  19.1654  19.1654  19.7314  19.7314  19.7314  19.7314
    19.9582  19.9584  19.9584  19.9585  20.2334  20.2335  20.2335  20.2336
    20.4561  20.4561  20.4562  20.4562  20.4657  20.4657  20.4658  20.4658
    20.8135  20.8135  20.8135  20.8135  20.8135  20.8135  20.8135  20.8135
    20.9224  20.9225  20.9225  20.9226  21.0584  21.0585  21.0585  21.0586
    21.0732  21.0732  21.0733  21.0733  21.2129  21.2130  21.2130  21.2131
    21.2223  21.2224  21.2224  21.2224  21.2225  21.2225  21.2225  21.2225
    21.4904  21.4904  21.4905  21.4905  21.6207  21.6207  21.6208  21.6208
    21.6208  21.6208  21.6209  21.6209  22.1177  22.1179  22.1179  22.1181
    23.0801  23.0802  23.0802  23.0804  23.2786  23.2787  23.2787  23.2788
    23.4865  23.4865  23.4866  23.4866  23.4866  23.4866  23.4867  23.4867
    24.0008  24.0009  24.0009  24.0010  24.1255  24.1255  24.1256  24.1256
    24.1257  24.1257  24.1258  24.1258  24.1264  24.1265  24.1265  24.1266
    24.3586  24.3587  24.3587  24.3588  24.3877  24.3877  24.3877  24.3877
    24.3877  24.3877  24.3878  24.3878  24.3985  24.3985  24.3985  24.3985
    24.6539  24.6540  24.6540  24.6541  27.2796  27.2796  27.2797  27.2797
    27.2797  27.2797  27.2798

          k = 0.1663 0.1663 0.1663 ( 30374 PWs)   bands (ev):

   -50.0570 -49.9835 -49.9835 -49.9835 -49.9363 -49.9363 -49.9363 -49.9295
   -49.9295 -49.9295 -49.9160 -49.9020 -49.9019 -49.9019 -49.9019 -49.9019
   -49.9019 -49.9014 -49.9014 -49.9013 -49.8819 -49.8819 -49.8819 -49.8554
   -49.8554 -49.8554 -49.8550 -49.8549 -49.8549 -49.8549 -49.8549 -49.8548
   -20.4367 -20.4367 -20.4367 -20.4012 -20.3726 -20.3726 -20.3726 -20.2408
   -20.2408 -20.2408 -20.2225 -20.2225 -20.2225 -20.2225 -20.2225 -20.2225
   -20.2029 -20.2029 -20.2029 -20.2029 -20.2029 -20.2029 -20.1381 -20.1381
   -20.1381 -20.0987 -20.0987 -20.0987 -20.0522 -20.0522 -20.0522 -20.0522
   -20.0522 -20.0522 -19.9710 -19.9710 -19.9710 -19.8846 -19.8846 -19.8845
   -19.8626 -19.8626 -19.8626 -19.8626 -19.8626 -19.8626 -19.8597 -19.8597
   -19.8597 -19.8220 -19.8220 -19.8220 -19.8167 -19.8167 -19.8167 -19.8167
   -19.8167 -19.8167 -19.7537 -19.7537 -19.7537 -19.7115 -19.7115 -19.7115
   -19.7012 -19.7012 -19.7012 -19.6613 -19.6613 -19.6613 -19.6540 -19.6540
   -19.6540 -19.6378 -19.6378 -19.6378 -19.6378 -19.6378 -19.6378 -19.6277
   -19.6277 -19.6277 -19.6119 -19.6119 -19.6119 -19.6057 -19.6057 -19.6057
   -19.6036 -19.6036 -19.5713 -19.5713 -19.5713 -19.5481 -19.4884 -19.4884
    15.4616  16.9545  16.9545  16.9545  17.1148  17.2631  17.2631  17.2632
    17.2700  17.2700  17.2700  17.4127  17.4127  17.4127  17.7712  17.7712
    17.7712  18.1509  18.1509  18.1509  18.1509  18.1510  18.1510  18.1702
    18.1702  18.1702  18.3455  18.3455  18.3456  18.5673  18.5673  18.5673
    18.5925  18.5925  18.5925  18.5925  18.5925  18.5925  18.9300  18.9300
    18.9300  18.9300  18.9300  18.9300  19.1085  19.1085  19.1085  19.4401
    19.4401  19.4402  19.5899  19.5899  19.5899  19.5899  19.5899  19.5899
    19.7293  19.7293  19.7293  19.8080  19.8081  19.8081  19.8081  19.8081
    19.8081  20.1099  20.1099  20.1099  20.2897  20.2897  20.2897  20.3084
    20.3230  20.3230  20.3230  20.3230  20.3230  20.3230  20.3549  20.3549
    20.3549  20.4154  20.4154  20.5509  20.5509  20.5509  20.5684  20.5684
    21.0919  21.0919  21.0919  21.3731  21.3732  21.3732  21.4312  21.4312
    21.4313  21.6127  21.6128  21.6128  21.8091  21.8091  21.8091  21.8627
    21.8627  21.8627  21.8627  21.8627  21.8627  22.2710  22.2710  22.2710
    22.4363  22.4364  22.4364  22.5554  22.5555  22.5555  22.5853  22.5853
    22.5853  22.6547  22.6547  22.6548  22.6548  22.6548  22.6548  22.7408
    22.7408  23.0462  23.2208  23.2208  23.2208  23.2208  23.2208  23.2208
    23.4752  23.4753  23.4753  23.4882  23.4882  23.4882  23.5795  23.5795
    23.5795  23.8810  23.8810  23.8810  24.0525  24.0525  24.0525  24.2518
    24.2518  24.2518  24.3357  24.3357  24.6329  24.6329  24.6329  24.8564
    24.8564  24.8564  24.8564  24.8564  24.8564  24.9697  24.9697  24.9697
    25.4501  25.4501  25.4502  25.9364  25.9364  25.9364  27.0402  27.0402
    27.0402  27.0402  27.0402

          k = 0.1663 0.1663 0.2772 ( 30358 PWs)   bands (ev):

   -50.0508 -50.0006 -49.9795 -49.9795 -49.9473 -49.9472 -49.9346 -49.9272
   -49.9271 -49.9206 -49.9123 -49.9082 -49.9082 -49.9019 -49.9018 -49.9015
   -49.9014 -49.8968 -49.8910 -49.8910 -49.8835 -49.8756 -49.8756 -49.8616
   -49.8589 -49.8589 -49.8572 -49.8572 -49.8554 -49.8553 -49.8550 -49.8549
   -20.4264 -20.4162 -20.4162 -20.3688 -20.3581 -20.3581 -20.3503 -20.2882
   -20.2623 -20.2623 -20.2407 -20.2407 -20.2362 -20.2362 -20.2358 -20.2358
   -20.2179 -20.2179 -20.2058 -20.2058 -20.2040 -20.2040 -20.1811 -20.1638
   -20.1160 -20.1160 -20.0979 -20.0979 -20.0595 -20.0595 -20.0277 -20.0277
   -20.0129 -20.0129 -20.0031 -20.0031 -19.9190 -19.9190 -19.9132 -19.8988
   -19.8987 -19.8810 -19.8810 -19.8471 -19.8273 -19.8273 -19.8226 -19.8226
   -19.8175 -19.8175 -19.8159 -19.8158 -19.8135 -19.8119 -19.7970 -19.7970
   -19.7918 -19.7918 -19.7456 -19.7293 -19.7220 -19.7220 -19.7201 -19.7200
   -19.7200 -19.6920 -19.6917 -19.6917 -19.6806 -19.6806 -19.6702 -19.6702
   -19.6696 -19.6696 -19.6585 -19.6415 -19.6415 -19.6375 -19.6375 -19.6354
   -19.6327 -19.6327 -19.6216 -19.6216 -19.6093 -19.5961 -19.5922 -19.5921
   -19.5836 -19.5834 -19.5740 -19.5734 -19.5623 -19.5623 -19.4989 -19.4919
    15.6245  16.8958  17.0519  17.0667  17.0667  17.1688  17.3584  17.3584
    17.3726  17.3726  17.4210  17.4862  17.5409  17.5409  17.6823  17.8614
    17.8614  17.8959  17.9287  17.9287  18.0016  18.0016  18.1194  18.2043
    18.2043  18.2613  18.2614  18.2634  18.2634  18.3552  18.4648  18.4648
    18.4669  18.4669  18.4902  18.4902  18.5785  18.5785  18.6829  18.6829
    18.9412  18.9412  18.9627  18.9627  19.1793  19.1793  19.3117  19.3117
    19.3614  19.3614  19.3719  19.4216  19.4537  19.4537  19.6489  19.6489
    19.6518  19.6518  19.8160  19.8160  19.8365  19.8365  19.9508  20.0339
    20.0339  20.1266  20.2098  20.2099  20.2160  20.2543  20.2543  20.3256
    20.3256  20.3376  20.3376  20.4420  20.4506  20.4605  20.4605  20.4657
    20.6343  20.6483  20.6615  20.6615  20.6632  20.6876  20.8632  20.8632
    20.9257  20.9258  21.1104  21.1104  21.1189  21.1250  21.3498  21.3842
    21.3842  21.5528  21.5528  21.5723  21.5832  21.5832  21.8312  21.9704
    21.9704  22.0054  22.0054  22.0795  22.1072  22.1072  22.1897  22.1897
    22.2168  22.3530  22.3530  22.4274  22.4275  22.4471  22.4471  22.5582
    22.5895  22.5896  22.6146  22.6532  22.6532  22.7813  22.8008  22.8986
    22.9194  22.9194  23.2700  23.2700  23.3004  23.3265  23.3265  23.5504
    23.5504  23.5552  23.5552  23.5616  23.5616  23.6089  23.6968  23.6968
    23.7229  23.7229  23.7378  24.0787  24.0787  24.0865  24.0974  24.1693
    24.2454  24.3388  24.3388  24.4615  24.5741  24.5991  24.5991  24.6736
    24.6736  24.6756  24.6756  24.8620  24.8620  24.8767  24.9422  24.9422
    24.9752  24.9752  25.3368  26.1212  26.1212  26.5052  26.5052  26.6612
    26.8766  26.9465  26.9465

          k = 0.1663 0.1663 0.3881 ( 30362 PWs)   bands (ev):

   -50.0417 -50.0163 -49.9737 -49.9737 -49.9573 -49.9573 -49.9321 -49.9250
   -49.9237 -49.9237 -49.9141 -49.9141 -49.9018 -49.9017 -49.9015 -49.9014
   -49.8965 -49.8927 -49.8859 -49.8810 -49.8810 -49.8708 -49.8699 -49.8699
   -49.8647 -49.8646 -49.8605 -49.8605 -49.8553 -49.8552 -49.8550 -49.8549
   -20.4052 -20.3865 -20.3865 -20.3368 -20.3368 -20.3343 -20.3282 -20.3173
   -20.3065 -20.3065 -20.2770 -20.2770 -20.2415 -20.2415 -20.2312 -20.2312
   -20.2309 -20.2277 -20.2277 -20.2229 -20.2088 -20.2088 -20.1851 -20.1851
   -20.1380 -20.1380 -20.0600 -20.0600 -20.0537 -20.0537 -20.0301 -20.0301
   -19.9988 -19.9988 -19.9744 -19.9744 -19.9615 -19.9615 -19.9338 -19.9338
   -19.9075 -19.9075 -19.8522 -19.8288 -19.8154 -19.8153 -19.8151 -19.8150
   -19.7970 -19.7945 -19.7944 -19.7780 -19.7780 -19.7771 -19.7700 -19.7700
   -19.7624 -19.7624 -19.7551 -19.7460 -19.7408 -19.7407 -19.7389 -19.7047
   -19.7047 -19.7038 -19.7038 -19.6982 -19.6982 -19.6892 -19.6892 -19.6840
   -19.6772 -19.6772 -19.6542 -19.6502 -19.6502 -19.6425 -19.6392 -19.6392
   -19.6371 -19.6371 -19.6351 -19.6351 -19.6293 -19.6256 -19.5892 -19.5780
   -19.5770 -19.5769 -19.5605 -19.5604 -19.5571 -19.5446 -19.5141 -19.5028
    15.8619  16.5171  17.1893  17.2300  17.2300  17.2764  17.4916  17.4916
    17.5251  17.5251  17.5288  17.5956  17.6151  17.6450  17.6778  17.6778
    17.7288  17.7288  17.8258  17.8258  17.9155  17.9731  17.9731  17.9873
    17.9873  18.0995  18.2563  18.2563  18.2713  18.2713  18.3042  18.3043
    18.4150  18.4150  18.4168  18.4168  18.6474  18.6474  18.7021  18.7021
    18.9551  18.9551  19.0253  19.0253  19.0838  19.0838  19.1592  19.1592
    19.2440  19.2440  19.2803  19.2804  19.4968  19.5331  19.5332  19.6258
    19.7368  19.7368  19.7839  19.8643  19.8643  19.9389  19.9389  20.0610
    20.0775  20.0775  20.0899  20.0899  20.3327  20.3462  20.3462  20.3504
    20.3504  20.4347  20.5374  20.5374  20.5635  20.7041  20.7041  20.7515
    20.7515  20.7531  20.7639  20.7640  20.7674  20.8124  20.8124  20.8136
    20.8654  20.8937  21.0523  21.0545  21.1197  21.3193  21.3309  21.3309
    21.4306  21.4306  21.4478  21.4478  21.5109  21.5109  21.7388  21.7388
    21.8344  21.9579  22.0955  22.1378  22.1378  22.1583  22.1583  22.3027
    22.3306  22.3306  22.3363  22.3364  22.3755  22.3756  22.4424  22.4837
    22.4838  22.5032  22.5032  22.6102  22.6102  22.6990  22.6990  22.8891
    23.1359  23.1419  23.2334  23.2392  23.2392  23.2392  23.3744  23.3744
    23.6417  23.6417  23.7776  23.7776  23.8084  23.8509  23.8509  23.8513
    23.8684  23.8684  23.8925  23.8925  23.9369  23.9369  24.0022  24.4295
    24.4382  24.4382  24.4408  24.4425  24.4425  24.4459  24.4459  24.5255
    24.5255  24.7076  24.7507  24.8194  24.8462  24.8462  24.8720  24.8720
    24.9118  24.9118  25.1698  25.9557  25.9557  26.2165  26.3628  26.3628
    26.8002  26.8002  27.3305

          k = 0.1663 0.1663-0.4990 ( 30350 PWs)   bands (ev):

   -50.0302 -50.0300 -49.9663 -49.9663 -49.9661 -49.9661 -49.9289 -49.9287
   -49.9194 -49.9194 -49.9193 -49.9192 -49.9018 -49.9016 -49.9016 -49.9014
   -49.8891 -49.8889 -49.8826 -49.8824 -49.8722 -49.8722 -49.8720 -49.8720
   -49.8649 -49.8649 -49.8647 -49.8647 -49.8553 -49.8551 -49.8551 -49.8549
   -20.3740 -20.3740 -20.3493 -20.3492 -20.3491 -20.3490 -20.3096 -20.3095
   -20.3094 -20.3094 -20.2814 -20.2813 -20.2746 -20.2745 -20.2397 -20.2397
   -20.2396 -20.2396 -20.2176 -20.2176 -20.2175 -20.2175 -20.1620 -20.1620
   -20.1618 -20.1618 -20.0499 -20.0499 -20.0498 -20.0498 -20.0075 -20.0075
   -20.0074 -20.0074 -19.9673 -19.9673 -19.9672 -19.9672 -19.9390 -19.9390
   -19.9388 -19.9388 -19.8148 -19.8147 -19.8147 -19.8146 -19.8053 -19.8051
   -19.7930 -19.7929 -19.7780 -19.7778 -19.7654 -19.7654 -19.7652 -19.7652
   -19.7381 -19.7381 -19.7380 -19.7380 -19.7353 -19.7352 -19.7352 -19.7351
   -19.7326 -19.7326 -19.7325 -19.7325 -19.6840 -19.6839 -19.6627 -19.6627
   -19.6626 -19.6626 -19.6620 -19.6620 -19.6619 -19.6618 -19.6512 -19.6511
   -19.6489 -19.6487 -19.6365 -19.6363 -19.6363 -19.6362 -19.5832 -19.5830
   -19.5657 -19.5657 -19.5657 -19.5657 -19.5338 -19.5336 -19.5208 -19.5207
    16.1644  16.1646  17.3546  17.3548  17.4362  17.4362  17.4375  17.4376
    17.4377  17.4378  17.6516  17.6516  17.6517  17.6518  17.7260  17.7260
    17.7261  17.7261  17.7394  17.7396  17.8452  17.8452  17.9700  17.9700
    17.9701  17.9701  18.1390  18.1390  18.1391  18.1391  18.3426  18.3426
    18.3426  18.3426  18.5915  18.5915  18.5917  18.5917  18.8821  18.8821
    18.8821  18.8821  18.9811  18.9811  18.9812  18.9813  19.1225  19.1225
    19.1225  19.1225  19.4031  19.4031  19.4032  19.4032  19.6261  19.6262
    19.8359  19.8360  19.8361  19.8361  19.8595  19.8597  19.9547  19.9547
    19.9548  19.9548  20.3545  20.3545  20.3546  20.3547  20.3995  20.3997
    20.4028  20.4028  20.4028  20.4028  20.6329  20.6329  20.6329  20.6329
    20.7070  20.7071  20.9057  20.9058  20.9249  20.9250  20.9560  20.9561
    20.9561  20.9562  21.0787  21.0788  21.3177  21.3177  21.3178  21.3178
    21.3607  21.3608  21.4447  21.4448  21.4729  21.4729  21.4731  21.4731
    22.0644  22.0644  22.0644  22.0644  22.2460  22.2460  22.2461  22.2461
    22.2509  22.2510  22.3367  22.3367  22.3368  22.3368  22.4527  22.4527
    22.4528  22.4528  22.5037  22.5037  22.5039  22.5039  22.7855  22.7857
    23.0036  23.0038  23.4831  23.4831  23.5091  23.5091  23.5093  23.5093
    23.5626  23.5626  23.5627  23.5629  23.5629  23.5630  24.1153  24.1153
    24.1154  24.1154  24.1655  24.1655  24.1656  24.1656  24.1905  24.1905
    24.1906  24.1906  24.1991  24.1992  24.1992  24.1993  24.2445  24.2445
    24.5996  24.5997  24.8878  24.8880  24.8880  24.8882  24.9553  24.9555
    25.3980  25.3980  25.3980  25.3980  25.5125  25.5127  26.6013  26.6013
    26.6015  26.6015  27.8819

          k = 0.1663 0.2772 0.2772 ( 30348 PWs)   bands (ev):

   -50.0448 -49.9961 -49.9961 -49.9757 -49.9596 -49.9450 -49.9450 -49.9268
   -49.9250 -49.9105 -49.9105 -49.9076 -49.9076 -49.9030 -49.8959 -49.8959
   -49.8954 -49.8954 -49.8915 -49.8914 -49.8778 -49.8778 -49.8708 -49.8614
   -49.8614 -49.8609 -49.8609 -49.8595 -49.8595 -49.8567 -49.8567 -49.8554
   -20.4101 -20.4101 -20.3935 -20.3440 -20.3387 -20.3387 -20.3334 -20.2845
   -20.2845 -20.2729 -20.2729 -20.2465 -20.2465 -20.2421 -20.2421 -20.2346
   -20.2346 -20.2306 -20.2305 -20.2305 -20.2278 -20.2278 -20.1744 -20.1744
   -20.1404 -20.1404 -20.1363 -20.0509 -20.0317 -20.0316 -20.0301 -20.0200
   -20.0200 -19.9913 -19.9913 -19.9552 -19.9416 -19.9416 -19.9064 -19.8669
   -19.8669 -19.8633 -19.8633 -19.8596 -19.8596 -19.8517 -19.8517 -19.8072
   -19.8072 -19.8068 -19.7988 -19.7988 -19.7938 -19.7938 -19.7910 -19.7910
   -19.7769 -19.7769 -19.7568 -19.7568 -19.7219 -19.7219 -19.7165 -19.7107
   -19.7107 -19.6947 -19.6932 -19.6901 -19.6901 -19.6872 -19.6766 -19.6766
   -19.6757 -19.6756 -19.6743 -19.6675 -19.6675 -19.6444 -19.6444 -19.6424
   -19.6424 -19.6406 -19.6218 -19.6093 -19.6013 -19.5974 -19.5942 -19.5920
   -19.5920 -19.5660 -19.5660 -19.5615 -19.5615 -19.5480 -19.5067 -19.4935
    15.7810  17.0028  17.0028  17.1586  17.1632  17.1632  17.1974  17.4101
    17.4476  17.5278  17.5278  17.6136  17.6136  17.6801  17.7767  17.7768
    17.7807  17.7807  17.7817  17.8844  17.9598  17.9599  18.0306  18.0306
    18.1830  18.1830  18.2465  18.2466  18.2975  18.2975  18.3298  18.3552
    18.3553  18.3783  18.3783  18.4912  18.4912  18.6229  18.6229  18.6384
    18.6836  18.6836  18.9451  18.9451  19.2061  19.2061  19.2943  19.3089
    19.3135  19.3135  19.3850  19.3851  19.4222  19.4222  19.6452  19.6511
    19.6511  19.8487  19.8487  19.9002  19.9002  19.9897  20.0458  20.0458
    20.0978  20.0978  20.1578  20.2157  20.2157  20.2864  20.2864  20.4600
    20.4657  20.4915  20.4915  20.5337  20.6269  20.6269  20.6285  20.6790
    20.6919  20.6919  20.7071  20.7660  20.8149  20.8149  20.8300  20.8341
    20.8341  20.9210  21.0016  21.0016  21.1331  21.1331  21.3108  21.3138
    21.3138  21.4247  21.4482  21.4482  21.6907  21.6907  21.7364  21.7364
    21.8175  21.8175  21.8318  21.8948  21.8948  22.1145  22.1896  22.1900
    22.2136  22.2285  22.2285  22.2730  22.2730  22.5315  22.5315  22.5884
    22.6946  22.7098  22.7098  22.7550  22.7551  22.7833  22.8218  22.8218
    22.9137  22.9137  22.9707  23.0590  23.0590  23.3511  23.3511  23.5767
    23.6135  23.6135  23.6504  23.6504  23.8483  23.8483  23.8527  23.8618
    23.9211  23.9211  23.9229  23.9229  24.0786  24.1294  24.1294  24.1838
    24.2370  24.2488  24.5373  24.5779  24.5779  24.5998  24.5998  24.6523
    24.6909  24.6909  24.6929  24.6929  24.7708  24.7708  24.8646  24.8646
    24.8676  24.8676  24.8878  26.0362  26.4225  26.4225  26.8920  26.8920
    27.1250  27.1250  27.4910

          k = 0.1663 0.2772 0.3881 ( 30343 PWs)   bands (ev):

   -50.0360 -50.0113 -49.9895 -49.9710 -49.9702 -49.9546 -49.9417 -49.9324
   -49.9219 -49.9130 -49.9079 -49.9068 -49.9044 -49.9004 -49.8952 -49.8942
   -49.8921 -49.8899 -49.8845 -49.8819 -49.8810 -49.8725 -49.8702 -49.8664
   -49.8664 -49.8660 -49.8640 -49.8610 -49.8600 -49.8592 -49.8563 -49.8556
   -20.3930 -20.3848 -20.3627 -20.3288 -20.3236 -20.3218 -20.3135 -20.3100
   -20.2904 -20.2838 -20.2753 -20.2747 -20.2746 -20.2673 -20.2525 -20.2503
   -20.2462 -20.2422 -20.2281 -20.2270 -20.2257 -20.2175 -20.2164 -20.1904
   -20.1880 -20.1622 -20.0951 -20.0482 -20.0475 -20.0073 -20.0006 -19.9996
   -19.9993 -19.9786 -19.9674 -19.9636 -19.9551 -19.9352 -19.8985 -19.8984
   -19.8980 -19.8918 -19.8781 -19.8464 -19.8302 -19.8160 -19.8041 -19.8004
   -19.7990 -19.7921 -19.7916 -19.7901 -19.7865 -19.7758 -19.7743 -19.7673
   -19.7636 -19.7602 -19.7562 -19.7555 -19.7518 -19.7490 -19.7383 -19.7260
   -19.7138 -19.7106 -19.7102 -19.6993 -19.6988 -19.6916 -19.6853 -19.6819
   -19.6709 -19.6697 -19.6642 -19.6629 -19.6583 -19.6571 -19.6547 -19.6529
   -19.6524 -19.6445 -19.6435 -19.6201 -19.6103 -19.6087 -19.5867 -19.5846
   -19.5714 -19.5654 -19.5650 -19.5490 -19.5410 -19.5351 -19.5217 -19.5003
    16.0090  16.6382  17.1554  17.2757  17.2980  17.2987  17.3255  17.4826
    17.5576  17.5675  17.5735  17.6292  17.6718  17.6788  17.7087  17.7179
    17.7223  17.7745  17.7997  17.8775  17.9124  17.9320  17.9372  18.0122
    18.0431  18.0912  18.1065  18.1554  18.1696  18.1953  18.2807  18.3164
    18.3300  18.3535  18.3966  18.4110  18.4331  18.4392  18.4658  18.6939
    18.8290  18.8701  18.9352  18.9431  18.9737  18.9835  19.1458  19.1725
    19.1873  19.3680  19.4341  19.4587  19.4844  19.4879  19.6134  19.6544
    19.6626  19.7280  19.7582  19.8696  19.9246  20.0376  20.0561  20.1934
    20.1973  20.2083  20.2363  20.3792  20.4109  20.4805  20.4838  20.4877
    20.5405  20.5588  20.5906  20.6191  20.6258  20.6270  20.6731  20.7177
    20.7233  20.7740  20.7823  20.8002  20.8858  20.9089  20.9265  20.9463
    20.9806  20.9940  21.0069  21.0172  21.1041  21.1909  21.2384  21.2898
    21.2941  21.3314  21.3727  21.4072  21.4183  21.4804  21.5235  21.5342
    21.5855  21.6673  21.7985  21.8610  21.9391  22.0270  22.0499  22.1922
    22.1968  22.2878  22.3022  22.3597  22.4224  22.4268  22.4423  22.4583
    22.4790  22.5229  22.6550  22.6780  22.7042  22.7395  22.8268  22.8559
    22.8641  23.0750  23.0856  23.1037  23.1612  23.2119  23.5061  23.6383
    23.6912  23.7184  23.7228  23.7391  23.7868  23.7940  23.9306  24.0041
    24.0200  24.0456  24.0966  24.1135  24.1139  24.1334  24.1359  24.1551
    24.3156  24.4062  24.4248  24.4483  24.4512  24.4714  24.4811  24.5158
    24.5356  24.5710  24.7125  24.7206  24.7209  24.7529  24.7835  24.8142
    24.8236  25.3687  25.3755  25.8841  26.0600  26.3050  26.5578  26.8032
    27.1277  27.4961  27.6490

          k = 0.1663 0.2772-0.4990 ( 30350 PWs)   bands (ev):

   -50.0248 -50.0246 -49.9811 -49.9809 -49.9632 -49.9630 -49.9376 -49.9374
   -49.9179 -49.9177 -49.9058 -49.9056 -49.9046 -49.9044 -49.8932 -49.8930
   -49.8851 -49.8849 -49.8817 -49.8815 -49.8745 -49.8744 -49.8736 -49.8734
   -49.8680 -49.8678 -49.8626 -49.8624 -49.8606 -49.8604 -49.8560 -49.8558
   -20.3656 -20.3656 -20.3520 -20.3519 -20.3252 -20.3251 -20.3002 -20.3000
   -20.2977 -20.2975 -20.2726 -20.2724 -20.2677 -20.2676 -20.2619 -20.2619
   -20.2495 -20.2494 -20.2418 -20.2417 -20.2245 -20.2244 -20.2027 -20.2025
   -20.1902 -20.1901 -20.0542 -20.0542 -20.0474 -20.0474 -19.9896 -19.9895
   -19.9666 -19.9665 -19.9491 -19.9490 -19.9378 -19.9377 -19.9323 -19.9321
   -19.9216 -19.9214 -19.8206 -19.8204 -19.8167 -19.8167 -19.8021 -19.8020
   -19.8007 -19.8005 -19.7941 -19.7940 -19.7743 -19.7742 -19.7727 -19.7725
   -19.7444 -19.7443 -19.7442 -19.7442 -19.7372 -19.7371 -19.7289 -19.7287
   -19.7252 -19.7252 -19.7251 -19.7250 -19.7206 -19.7205 -19.6973 -19.6972
   -19.6664 -19.6663 -19.6637 -19.6635 -19.6595 -19.6593 -19.6447 -19.6445
   -19.6395 -19.6393 -19.6308 -19.6307 -19.6306 -19.6305 -19.5785 -19.5783
   -19.5721 -19.5720 -19.5415 -19.5415 -19.5414 -19.5412 -19.5143 -19.5142
    16.2994  16.2996  17.3442  17.3444  17.4022  17.4023  17.4604  17.4605
    17.4833  17.4834  17.5327  17.5328  17.5712  17.5713  17.7312  17.7312
    17.8662  17.8663  17.8724  17.8724  17.9327  17.9328  18.0034  18.0034
    18.0374  18.0376  18.0831  18.0832  18.0897  18.0897  18.1214  18.1215
    18.3199  18.3201  18.3477  18.3477  18.4861  18.4862  18.6710  18.6710
    18.8036  18.8038  18.9846  18.9847  18.9999  18.9999  19.0683  19.0684
    19.1447  19.1447  19.4946  19.4947  19.5566  19.5567  19.6022  19.6024
    19.6590  19.6590  19.8458  19.8460  19.8642  19.8644  20.2040  20.2040
    20.2593  20.2594  20.4148  20.4148  20.4735  20.4736  20.4803  20.4804
    20.5941  20.5941  20.6164  20.6165  20.7014  20.7015  20.7372  20.7373
    20.7961  20.7961  20.8892  20.8893  20.9015  20.9016  20.9266  20.9267
    20.9972  20.9973  21.1244  21.1245  21.1947  21.1948  21.2303  21.2304
    21.2575  21.2576  21.2696  21.2696  21.2864  21.2865  21.3197  21.3198
    21.8273  21.8274  21.9058  21.9059  21.9303  21.9303  22.1547  22.1549
    22.2521  22.2523  22.2581  22.2582  22.2936  22.2938  22.3001  22.3003
    22.4984  22.4985  22.5525  22.5526  22.7247  22.7248  22.8092  22.8094
    22.9964  22.9965  23.3855  23.3857  23.4042  23.4042  23.4376  23.4377
    23.4983  23.4985  23.7790  23.7790  23.8608  23.8610  23.9568  23.9570
    24.0252  24.0252  24.2157  24.2158  24.2600  24.2601  24.2927  24.2928
    24.2942  24.2943  24.3427  24.3427  24.3615  24.3616  24.3745  24.3746
    24.5207  24.5209  24.6035  24.6035  24.7617  24.7619  24.7651  24.7652
    25.3350  25.3351  25.9690  25.9690  26.0760  26.0762  26.1703  26.1705
    27.3364  27.3365  28.3121

          k = 0.1663 0.3881 0.3881 ( 30351 PWs)   bands (ev):

   -50.0276 -50.0040 -50.0040 -49.9835 -49.9650 -49.9506 -49.9506 -49.9393
   -49.9191 -49.9115 -49.9115 -49.9071 -49.8933 -49.8932 -49.8879 -49.8878
   -49.8874 -49.8874 -49.8834 -49.8833 -49.8764 -49.8764 -49.8695 -49.8695
   -49.8690 -49.8690 -49.8673 -49.8673 -49.8632 -49.8581 -49.8581 -49.8563
   -20.3723 -20.3723 -20.3316 -20.3166 -20.3166 -20.3106 -20.3106 -20.3046
   -20.2992 -20.2992 -20.2763 -20.2763 -20.2688 -20.2688 -20.2560 -20.2560
   -20.2542 -20.2542 -20.2456 -20.2405 -20.2405 -20.2320 -20.2320 -20.2300
   -20.1926 -20.1446 -20.1446 -20.0528 -20.0461 -20.0241 -20.0241 -19.9653
   -19.9549 -19.9549 -19.9453 -19.9291 -19.9291 -19.9040 -19.9040 -19.8694
   -19.8694 -19.8652 -19.8652 -19.8582 -19.8582 -19.8358 -19.8358 -19.8098
[...]
   -19.7494 -19.7493 -19.7493 -19.7493 -19.7056 -19.7056 -19.7055 -19.7055
   -19.7054 -19.7054 -19.7053 -19.7053 -19.6897 -19.6897 -19.6897 -19.6897
   -19.5825 -19.5825 -19.5825 -19.5825 -19.5648 -19.5647 -19.5647 -19.5646
   -19.5626 -19.5624 -19.5624 -19.5623 -19.5208 -19.5208 -19.5208 -19.5208
    16.8042  16.8045  16.8045  16.8046  17.2814  17.2816  17.2816  17.2817
    17.7531  17.7531  17.7531  17.7532  17.7979  17.7979  17.7980  17.7980
    17.7981  17.7981  17.7981  17.7981  17.8750  17.8750  17.8750  17.8750
    18.0682  18.0682  18.0682  18.0682  18.0683  18.0683  18.0683  18.0684
    18.4625  18.4625  18.4626  18.4626  18.4627  18.4627  18.4628  18.4628
    18.6214  18.6215  18.6215  18.6215  19.1860  19.1860  19.1862  19.1862
    19.1862  19.1862  19.1863  19.1863  19.3650  19.3652  19.3652  19.3653
    19.9021  19.9021  19.9021  19.9021  20.3730  20.3731  20.3731  20.3731
    20.6264  20.6264  20.6264  20.6265  20.7089  20.7090  20.7090  20.7091
    20.7431  20.7431  20.7431  20.7432  20.7432  20.7432  20.7432  20.7432
    20.8690  20.8690  20.8690  20.8691  20.8939  20.8940  20.8940  20.8941
    20.9445  20.9445  20.9445  20.9445  21.1537  21.1537  21.1537  21.1537
    21.1539  21.1539  21.1539  21.1539  21.2930  21.2930  21.2930  21.2931
    21.6289  21.6290  21.6290  21.6291  21.8168  21.8168  21.8168  21.8168
    21.8168  21.8168  21.8169  21.8169  22.4398  22.4400  22.4400  22.4401
    22.7037  22.7038  22.7038  22.7039  22.7536  22.7536  22.7536  22.7536
    22.7537  22.7537  22.7538  22.7538  23.1381  23.1381  23.1381  23.1382
    23.1525  23.1526  23.1526  23.1527  23.5722  23.5723  23.5723  23.5724
    24.5665  24.5665  24.5665  24.5665  24.5665  24.5665  24.5665  24.5666
    24.6037  24.6037  24.6037  24.6038  24.6297  24.6297  24.6297  24.6298
    24.6298  24.6298  24.6299  24.6299  24.6782  24.6783  24.6783  24.6784
    26.2557  26.2558  26.2558  26.2559  27.5381  27.5382  27.5382  27.5382
    27.5383  27.5383  27.5384

          k = 0.3881 0.3881 0.3881 ( 30358 PWs)   bands (ev):

   -50.0147 -49.9929 -49.9929 -49.9929 -49.9744 -49.9744 -49.9744 -49.9590
   -49.8912 -49.8912 -49.8912 -49.8879 -49.8878 -49.8878 -49.8877 -49.8877
   -49.8877 -49.8875 -49.8874 -49.8874 -49.8723 -49.8723 -49.8723 -49.8695
   -49.8694 -49.8694 -49.8692 -49.8692 -49.8691 -49.8691 -49.8690 -49.8690
   -20.3384 -20.3384 -20.3384 -20.3026 -20.3026 -20.3026 -20.2924 -20.2924
   -20.2924 -20.2876 -20.2876 -20.2876 -20.2876 -20.2876 -20.2876 -20.2833
   -20.2833 -20.2833 -20.2833 -20.2833 -20.2833 -20.2571 -20.2571 -20.2571
   -20.1496 -20.0402 -20.0402 -20.0402 -19.9349 -19.9349 -19.9349 -19.9348
   -19.9348 -19.9348 -19.9288 -19.9288 -19.9288 -19.9267 -19.9267 -19.9267
   -19.9034 -19.9034 -19.9034 -19.8308 -19.8308 -19.8307 -19.8307 -19.8307
   -19.8307 -19.8136 -19.8136 -19.8136 -19.8127 -19.8015 -19.8015 -19.8015
   -19.7639 -19.7639 -19.7639 -19.7457 -19.7457 -19.7457 -19.7457 -19.7457
   -19.7457 -19.7281 -19.7281 -19.7281 -19.7124 -19.7124 -19.7124 -19.7077
   -19.7077 -19.7077 -19.7077 -19.7077 -19.7077 -19.6871 -19.6871 -19.6871
   -19.5876 -19.5876 -19.5876 -19.5690 -19.5690 -19.5598 -19.5598 -19.5598
   -19.5437 -19.5437 -19.5437 -19.5402 -19.5402 -19.5402 -19.5235 -19.5235
    16.5102  16.9688  16.9688  16.9689  17.2154  17.2207  17.2207  17.2208
    17.5931  17.5931  17.5931  17.8108  17.8108  17.8108  17.8879  17.8879
    17.8879  17.9046  17.9046  17.9046  17.9047  17.9047  17.9047  17.9902
    17.9902  17.9902  17.9902  17.9902  17.9902  18.0215  18.0215  18.0215
    18.2742  18.2742  18.2742  18.6434  18.6434  18.6434  18.7453  18.7453
    18.7453  18.7453  18.7454  18.7454  19.0977  19.0977  19.0977  19.1078
    19.1079  19.1079  19.1079  19.1079  19.1079  19.4082  19.4082  19.4082
    19.9230  19.9230  19.9230  20.0119  20.1927  20.1927  20.1928  20.6057
    20.6057  20.6057  20.6057  20.6057  20.6057  20.7112  20.7112  20.8042
    20.8042  20.8042  20.8488  20.8488  20.8488  20.8528  20.8528  20.8701
    20.8701  20.8701  20.8776  20.8820  20.8820  20.8820  20.9106  20.9106
    20.9106  20.9465  20.9466  20.9466  20.9466  20.9466  20.9466  20.9573
    20.9573  20.9573  21.0547  21.0547  21.0547  21.4757  21.4757  21.4757
    21.6749  21.6749  21.6749  21.9943  21.9943  21.9943  21.9943  21.9943
    21.9943  21.9962  21.9962  21.9962  22.3289  22.3289  22.3289  22.5146
    22.5146  22.5146  22.5147  22.5147  22.5147  22.6284  22.6284  22.6285
    22.7193  22.7193  22.7559  22.7559  22.7559  22.9082  22.9082  22.9082
    23.1847  23.1847  23.1847  23.4146  23.4146  23.5791  23.5791  23.5792
    24.5195  24.5195  24.5195  24.5723  24.5723  24.5723  24.5723  24.5723
    24.5723  24.6400  24.6400  24.6400  24.6400  24.6400  24.6400  24.7050
    24.7050  24.7050  24.7209  24.7209  24.7209  24.8135  24.8135  24.8135
    26.4694  26.4694  26.4694  27.3677  27.3677  27.3677  27.3677  27.3677
    27.3677  27.6479  27.6479

          k = 0.3881 0.3881-0.4990 ( 30348 PWs)   bands (ev):

   -50.0048 -50.0047 -49.9846 -49.9846 -49.9844 -49.9844 -49.9674 -49.9673
   -49.8897 -49.8897 -49.8895 -49.8895 -49.8878 -49.8876 -49.8876 -49.8874
   -49.8794 -49.8793 -49.8792 -49.8792 -49.8777 -49.8777 -49.8775 -49.8775
   -49.8707 -49.8707 -49.8705 -49.8705 -49.8694 -49.8692 -49.8692 -49.8690
   -20.3256 -20.3256 -20.3143 -20.3141 -20.3141 -20.3140 -20.2930 -20.2930
   -20.2929 -20.2929 -20.2896 -20.2896 -20.2896 -20.2896 -20.2879 -20.2878
   -20.2878 -20.2877 -20.2783 -20.2782 -20.2727 -20.2727 -20.2726 -20.2725
   -20.0952 -20.0952 -19.9841 -19.9841 -19.9841 -19.9841 -19.9329 -19.9329
   -19.9328 -19.9328 -19.9202 -19.9201 -19.9201 -19.9200 -19.8828 -19.8828
   -19.8827 -19.8827 -19.8695 -19.8695 -19.8629 -19.8629 -19.8607 -19.8605
   -19.8206 -19.8206 -19.8204 -19.8204 -19.8143 -19.8143 -19.8143 -19.8143
   -19.7539 -19.7538 -19.7537 -19.7537 -19.7477 -19.7475 -19.7288 -19.7288
   -19.7286 -19.7286 -19.7281 -19.7281 -19.7281 -19.7280 -19.7183 -19.7183
   -19.7183 -19.7183 -19.7009 -19.7007 -19.6982 -19.6981 -19.6981 -19.6981
   -19.5741 -19.5740 -19.5695 -19.5694 -19.5693 -19.5693 -19.5553 -19.5551
   -19.5405 -19.5405 -19.5405 -19.5405 -19.5402 -19.5400 -19.5275 -19.5274
    16.7236  16.7238  17.0851  17.0851  17.0853  17.0853  17.2060  17.2061
    17.7069  17.7071  17.7267  17.7267  17.7267  17.7267  17.8846  17.8846
    17.8846  17.8846  17.9277  17.9278  17.9278  17.9279  17.9480  17.9480
    17.9480  17.9480  17.9638  17.9638  17.9639  17.9640  17.9750  17.9751
    18.4367  18.4369  18.5107  18.5107  18.5107  18.5107  18.8874  18.8874
    18.8875  18.8875  18.8987  18.8987  18.8989  18.8989  18.9339  18.9339
    18.9340  18.9340  19.2238  19.2239  19.2782  19.2783  19.2784  19.2784
    19.9890  19.9890  20.0705  20.0705  20.0705  20.0705  20.5364  20.5364
    20.7446  20.7446  20.7446  20.7447  20.7686  20.7686  20.7687  20.7687
    20.7713  20.7715  20.7756  20.7756  20.8189  20.8189  20.8189  20.8190
    20.8374  20.8374  20.8374  20.8374  20.8703  20.8703  20.8731  20.8732
    20.8907  20.8908  20.9042  20.9042  20.9043  20.9043  20.9087  20.9087
    20.9088  20.9088  21.3194  21.3195  21.3195  21.3195  21.3683  21.3684
    21.7017  21.7018  21.7018  21.7018  21.7283  21.7283  22.1364  22.1364
    22.1365  22.1365  22.2294  22.2294  22.2295  22.2295  22.2585  22.2585
    22.2586  22.2586  22.6188  22.6188  22.6305  22.6306  22.6952  22.6953
    22.6953  22.6955  22.7229  22.7229  22.7230  22.7230  22.9391  22.9392
    23.0856  23.0857  23.3083  23.3083  23.3084  23.3084  23.4683  23.4685
    24.6070  24.6070  24.6070  24.6070  24.6382  24.6382  24.6383  24.6383
    24.6415  24.6416  24.6884  24.6884  24.6886  24.6886  24.6948  24.6948
    24.6948  24.6948  24.7466  24.7466  24.7467  24.7468  24.7947  24.7948
    26.8953  26.8953  26.8954  26.8954  27.3448  27.3449  27.4922  27.4922
    27.4923  27.4924  28.2748

          k = 0.3881-0.4990-0.4990 ( 30376 PWs)   bands (ev):

   -49.9957 -49.9955 -49.9955 -49.9953 -49.9768 -49.9767 -49.9767 -49.9765
   -49.8889 -49.8887 -49.8887 -49.8885 -49.8788 -49.8787 -49.8786 -49.8786
   -49.8786 -49.8786 -49.8785 -49.8785 -49.8784 -49.8784 -49.8783 -49.8783
   -49.8783 -49.8783 -49.8781 -49.8781 -49.8700 -49.8698 -49.8698 -49.8696
   -20.3084 -20.3084 -20.3084 -20.3084 -20.3083 -20.3083 -20.3083 -20.3083
   -20.2941 -20.2939 -20.2939 -20.2938 -20.2902 -20.2901 -20.2901 -20.2899
   -20.2841 -20.2841 -20.2840 -20.2840 -20.2840 -20.2840 -20.2839 -20.2839
   -20.0397 -20.0396 -20.0396 -20.0396 -19.9285 -19.9284 -19.9284 -19.9284
   -19.9261 -19.9260 -19.9260 -19.9260 -19.8731 -19.8731 -19.8731 -19.8731
   -19.8731 -19.8731 -19.8730 -19.8730 -19.8717 -19.8717 -19.8716 -19.8716
   -19.8716 -19.8716 -19.8715 -19.8715 -19.8158 -19.8157 -19.8157 -19.8157
   -19.7397 -19.7397 -19.7397 -19.7397 -19.7378 -19.7378 -19.7378 -19.7378
   -19.7376 -19.7376 -19.7376 -19.7376 -19.7146 -19.7146 -19.7146 -19.7146
   -19.7144 -19.7144 -19.7144 -19.7144 -19.7088 -19.7088 -19.7088 -19.7088
   -19.5633 -19.5633 -19.5633 -19.5633 -19.5509 -19.5508 -19.5508 -19.5508
   -19.5507 -19.5507 -19.5507 -19.5506 -19.5320 -19.5320 -19.5320 -19.5320
    16.8920  16.8922  16.8922  16.8923  17.1358  17.1359  17.1359  17.1360
    17.8155  17.8155  17.8155  17.8155  17.8156  17.8157  17.8157  17.8157
    17.8173  17.8173  17.8173  17.8173  17.8930  17.8931  17.8931  17.8931
    17.9575  17.9575  17.9576  17.9576  17.9577  17.9577  17.9577  17.9577
    18.6743  18.6743  18.6743  18.6743  18.6745  18.6745  18.6745  18.6745
    18.7313  18.7313  18.7313  18.7313  19.0778  19.0779  19.0780  19.0780
    19.0780  19.0780  19.0781  19.0781  19.1051  19.1052  19.1052  19.1053
    20.0491  20.0491  20.0491  20.0491  20.3170  20.3170  20.3170  20.3170
    20.7710  20.7711  20.7711  20.7711  20.7970  20.7970  20.7970  20.7970
    20.8153  20.8153  20.8153  20.8153  20.8154  20.8154  20.8154  20.8154
    20.8350  20.8351  20.8351  20.8351  20.8692  20.8692  20.8692  20.8693
    20.8791  20.8792  20.8792  20.8792  21.0680  21.0680  21.0680  21.0680
    21.0681  21.0681  21.0681  21.0681  21.1262  21.1263  21.1263  21.1264
    21.8809  21.8810  21.8810  21.8811  21.9612  21.9612  21.9613  21.9613
    21.9613  21.9613  21.9614  21.9614  22.4163  22.4164  22.4164  22.4164
    22.4165  22.4165  22.4165  22.4166  22.4328  22.4329  22.4329  22.4330
    22.6937  22.6938  22.6938  22.6939  22.9809  22.9809  22.9809  22.9810
    23.0543  23.0544  23.0544  23.0545  23.2737  23.2738  23.2738  23.2739
    24.6817  24.6817  24.6817  24.6817  24.6817  24.6817  24.6818  24.6818
    24.7031  24.7031  24.7031  24.7032  24.7481  24.7481  24.7481  24.7481
    24.7482  24.7482  24.7482  24.7482  24.7491  24.7492  24.7492  24.7492
    27.1636  27.1637  27.1637  27.1638  27.7980  27.7981  27.7981  27.7981
    27.7981  27.7982  27.7982

          k =-0.4990-0.4990-0.4990 ( 30280 PWs)   bands (ev):

   -49.9872 -49.9870 -49.9870 -49.9870 -49.9868 -49.9868 -49.9868 -49.9866
   -49.8788 -49.8787 -49.8787 -49.8786 -49.8786 -49.8786 -49.8786 -49.8786
   -49.8785 -49.8785 -49.8785 -49.8784 -49.8784 -49.8784 -49.8784 -49.8783
   -49.8783 -49.8783 -49.8782 -49.8782 -49.8782 -49.8782 -49.8781 -49.8780
   -20.2965 -20.2965 -20.2965 -20.2964 -20.2964 -20.2964 -20.2964 -20.2964
   -20.2963 -20.2963 -20.2963 -20.2963 -20.2962 -20.2962 -20.2962 -20.2962
   -20.2962 -20.2961 -20.2961 -20.2961 -20.2961 -20.2961 -20.2960 -20.2960
   -19.9825 -19.9825 -19.9825 -19.9825 -19.9824 -19.9824 -19.9824 -19.9823
   -19.8728 -19.8727 -19.8727 -19.8727 -19.8727 -19.8727 -19.8727 -19.8727
   -19.8726 -19.8726 -19.8726 -19.8726 -19.8726 -19.8726 -19.8726 -19.8726
   -19.8726 -19.8726 -19.8726 -19.8725 -19.8725 -19.8725 -19.8725 -19.8725
   -19.7258 -19.7258 -19.7258 -19.7258 -19.7257 -19.7257 -19.7257 -19.7257
   -19.7257 -19.7257 -19.7257 -19.7257 -19.7256 -19.7256 -19.7256 -19.7255
   -19.7255 -19.7255 -19.7255 -19.7255 -19.7255 -19.7255 -19.7255 -19.7255
   -19.5464 -19.5464 -19.5464 -19.5464 -19.5464 -19.5463 -19.5463 -19.5463
   -19.5462 -19.5462 -19.5462 -19.5462 -19.5462 -19.5461 -19.5461 -19.5461
    17.0039  17.0040  17.0040  17.0041  17.0042  17.0042  17.0042  17.0044
    17.8700  17.8700  17.8700  17.8700  17.8700  17.8700  17.8700  17.8700
    17.8700  17.8700  17.8700  17.8700  17.8701  17.8701  17.8701  17.8702
    17.8702  17.8702  17.8702  17.8702  17.8702  17.8702  17.8702  17.8702
    18.8915  18.8916  18.8916  18.8916  18.8916  18.8917  18.8917  18.8917
    18.8917  18.8917  18.8917  18.8917  18.8918  18.8918  18.8918  18.8918
    18.8918  18.8918  18.8918  18.8919  18.8919  18.8919  18.8919  18.8919
    20.2009  20.2010  20.2010  20.2010  20.2010  20.2010  20.2010  20.2010
    20.8398  20.8398  20.8398  20.8398  20.8398  20.8398  20.8399  20.8399
    20.8399  20.8399  20.8399  20.8399  20.8399  20.8400  20.8400  20.8400
    20.9442  20.9443  20.9443  20.9443  20.9443  20.9443  20.9443  20.9443
    20.9443  20.9443  20.9444  20.9444  20.9444  20.9444  20.9444  20.9444
    20.9444  20.9444  20.9445  20.9445  20.9445  20.9445  20.9445  20.9445
    22.1526  22.1526  22.1527  22.1527  22.1527  22.1527  22.1527  22.1528
    22.1528  22.1528  22.1528  22.1528  22.1528  22.1528  22.1528  22.1528
    22.1529  22.1529  22.1529  22.1529  22.1529  22.1529  22.1530  22.1530
    22.9766  22.9766  22.9767  22.9767  22.9767  22.9767  22.9767  22.9767
    22.9768  22.9768  22.9768  22.9768  22.9768  22.9768  22.9769  22.9769
    24.7559  24.7559  24.7559  24.7560  24.7560  24.7560  24.7560  24.7560
    24.7560  24.7560  24.7560  24.7561  24.7561  24.7561  24.7561  24.7561
    24.7561  24.7561  24.7561  24.7562  24.7562  24.7562  24.7562  24.7562
    28.1176  28.1176  28.1176  28.1177  28.1177  28.1177  28.1177  28.1177
    28.1178  28.1178  28.1178

     the Fermi energy is    22.9445 ev

!    total energy              =  -13813.30011058 Ry

     total all-electron energy =   -289989.690450 Ry
     estimated scf accuracy    <       0.00000021 Ry
     smearing contrib. (-TS)   =       0.01994425 Ry
     internal energy E=F+TS    =  -13813.32005483 Ry

     The total energy is F=E-TS. E is the sum of the following terms:
     one-electron contribution =   -1010.76076087 Ry
     hartree contribution      =     920.58627260 Ry
     xc contribution           =    -927.83713119 Ry
     ewald contribution        =   -5205.87379559 Ry
     one-center paw contrib.   =   -7589.43463978 Ry

     convergence has been achieved in  13 iterations

     Forces acting on atoms (cartesian axes, Ry/au):

     atom    1 type  1   force =     0.00000000    0.00000000    0.00000000
     atom    2 type  1   force =    -0.00000284   -0.00000284    0.00000000
     atom    3 type  1   force =    -0.00000284    0.00000000   -0.00000284
     atom    4 type  1   force =     0.00000000   -0.00000284   -0.00000284
     atom    5 type  1   force =     0.00000000    0.00000000    0.00000000
     atom    6 type  1   force =    -0.00000056   -0.00000056    0.00000000
     atom    7 type  1   force =    -0.00000284    0.00000000    0.00000284
     atom    8 type  1   force =    -0.00000000   -0.00000284    0.00000284
     atom    9 type  1   force =     0.00000000    0.00000000    0.00000000
     atom   10 type  1   force =    -0.00000284    0.00000284   -0.00000000
     atom   11 type  1   force =    -0.00000056    0.00000000   -0.00000056
     atom   12 type  1   force =     0.00000000    0.00000284   -0.00000284
     atom   13 type  1   force =     0.00000000    0.00000000    0.00000000
     atom   14 type  1   force =    -0.00000056    0.00000056   -0.00000000
     atom   15 type  1   force =    -0.00000056    0.00000000    0.00000056
     atom   16 type  1   force =     0.00000000    0.00000284    0.00000284
     atom   17 type  1   force =     0.00000000    0.00000000    0.00000000
     atom   18 type  1   force =     0.00000284   -0.00000284   -0.00000000
     atom   19 type  1   force =     0.00000284    0.00000000   -0.00000284
     atom   20 type  1   force =    -0.00000000   -0.00000056   -0.00000056
     atom   21 type  1   force =     0.00000000    0.00000000    0.00000000
     atom   22 type  1   force =     0.00000056   -0.00000056   -0.00000000
     atom   23 type  1   force =     0.00000284    0.00000000    0.00000284
     atom   24 type  1   force =     0.00000000   -0.00000056    0.00000056
     atom   25 type  1   force =     0.00000000    0.00000000    0.00000000
     atom   26 type  1   force =     0.00000284    0.00000284    0.00000000
     atom   27 type  1   force =     0.00000056    0.00000000   -0.00000056
     atom   28 type  1   force =     0.00000000    0.00000056   -0.00000056
     atom   29 type  1   force =     0.00000000    0.00000000    0.00000000
     atom   30 type  1   force =     0.00000056    0.00000056    0.00000000
     atom   31 type  1   force =     0.00000056   -0.00000000    0.00000056
     atom   32 type  1   force =    -0.00000000    0.00000056    0.00000056

     Total force =     0.000014     Total SCF correction =     0.000076
     SCF correction compared to forces is large: reduce conv_thr to get better values


     Computing stress (Cartesian axis) and pressure

          total   stress  (Ry/bohr**3)                   (kbar)     P=      -21.67
  -0.00014734   0.00000000   0.00000000          -21.67        0.00        0.00
   0.00000000  -0.00014734   0.00000000            0.00      -21.67        0.00
   0.00000000   0.00000000  -0.00014734            0.00        0.00      -21.67


     Writing output data file /scratch/fzgEdrMcYSdblclh.save/
 
     init_run     :     14.55s CPU     14.95s WALL (       1 calls)
     electrons    :    571.45s CPU    580.67s WALL (       1 calls)
     forces       :      5.17s CPU      5.24s WALL (       1 calls)
     stress       :     32.10s CPU     32.38s WALL (       1 calls)

     Called by init_run:
     wfcinit      :     14.00s CPU     14.32s WALL (       1 calls)
     potinit      :      0.17s CPU      0.18s WALL (       1 calls)
     hinit0       :      0.09s CPU      0.10s WALL (       1 calls)

     Called by electrons:
     c_bands      :    511.63s CPU    519.55s WALL (      14 calls)
     sum_band     :     58.19s CPU     59.19s WALL (      14 calls)
     v_of_rho     :      0.19s CPU      0.21s WALL (      14 calls)
     newd         :      0.31s CPU      0.45s WALL (      14 calls)
     PAW_pot      :      1.17s CPU      1.26s WALL (      14 calls)
     mix_rho      :      0.05s CPU      0.07s WALL (      14 calls)

     Called by c_bands:
     init_us_2    :      1.97s CPU      2.02s WALL (    1085 calls)
     cegterg      :    503.93s CPU    511.51s WALL (     490 calls)

     Called by *egterg:
     cdiaghg      :     64.71s CPU     65.65s WALL (    1872 calls)
     h_psi        :    258.50s CPU    263.04s WALL (    1942 calls)
     s_psi        :     18.36s CPU     18.49s WALL (    1942 calls)
     g_psi        :      0.46s CPU      0.47s WALL (    1417 calls)

     Called by h_psi:
     h_psi:calbec :     36.39s CPU     36.62s WALL (    1942 calls)
     vloc_psi     :    203.47s CPU    207.36s WALL (    1942 calls)
     add_vuspsi   :     17.47s CPU     17.87s WALL (    1942 calls)

     General routines
     calbec       :     57.27s CPU     57.63s WALL (    2607 calls)
     fft          :      0.34s CPU      0.36s WALL (     206 calls)
     ffts         :      0.02s CPU      0.03s WALL (      28 calls)
     fftw         :    237.12s CPU    241.41s WALL (  931858 calls)
     interpolate  :      0.03s CPU      0.04s WALL (      14 calls)
 
     Parallel routines
     fft_scatt_xy :     15.94s CPU     16.18s WALL (  932092 calls)
     fft_scatt_yz :    193.98s CPU    197.65s WALL (  932092 calls)
 
     PWSCF        :  10m33.18s CPU  10m44.91s WALL

 
   This run was terminated on:  13:12:32  23Nov2021            

=------------------------------------------------------------------------------=
   JOB DONE.
=------------------------------------------------------------------------------=
