
     Program PWSCF v.6.7MaX starts on 23Nov2021 at 12: 6:25 

     This program is part of the open-source Quantum ESPRESSO suite
     for quantum simulation of materials; please cite
         "P. Giannozzi et al., J. Phys.:Condens. Matter 21 395502 (2009);
         "P. Giannozzi et al., J. Phys.:Condens. Matter 29 465901 (2017);
          URL http://www.quantum-espresso.org", 
     in publications or presentations arising from this work. More details at
     http://www.quantum-espresso.org/quote

     Parallel version (MPI & OpenMP), running on      72 processor cores
     Number of MPI processes:                72
     Threads/MPI process:                     1

     MPI processes distributed on     1 nodes
     R & G space division:  proc/nbgrp/npool/nimage =      72
     Reading input from /rds/homes/b/bxp912/jobs/20211014_ru_eos/wd/eos/eos_003.in
Warning: card &CELL ignored
Warning: card CELL_DYNAMICS = 'BFGS', ignored
Warning: card CELL_FACTOR = 2.0, ignored
Warning: card PRESS = 0.0, ignored
Warning: card / ignored

     Current dimensions of program PWSCF are:
     Max number of different atomic species (ntypx) = 10
     Max number of k-points (npk) =  40000
     Max angular momentum in pseudopotentials (lmaxx) =  3
     file Ru.pbe-spn-kjpaw_psl.1.0.0.UPF: wavefunction(s)  4D renormalized

     Subspace diagonalization in iterative solution of the eigenvalue problem:
     one sub-group per band group will be used
     ELPA distributed-memory algorithm (size of sub-group:  8*  8 procs)

     Found symmetry operation: I + (  0.2500  0.2500  0.0000)
     This is a supercell, fractional translations are disabled
     Message from routine setup:
     using ibrav=0 with symmetry is DISCOURAGED, use correct ibrav instead
 
     Parallelization info
     --------------------
     sticks:   dense  smooth     PW     G-vecs:    dense   smooth      PW
     Min          97      64     17                 6179     3320     471
     Max          98      65     18                 6188     3329     476
     Sum        7049    4669   1273               445279   239385   34049
 


     bravais-lattice index     =            0
     lattice parameter (alat)  =      14.4007  a.u.
     unit-cell volume          =    2959.6479 (a.u.)^3
     number of atoms/cell      =           32
     number of atomic types    =            1
     number of electrons       =       512.00
     number of Kohn-Sham states=          307
     kinetic-energy cutoff     =      71.0000  Ry
     charge density cutoff     =     430.0000  Ry
     scf convergence threshold =      1.0E-06
     mixing beta               =       0.1000
     number of iterations used =           10  plain     mixing
     Exchange-correlation= SLA  PW   PBX  PBC
                           (   1   4   3   4   0   0   0)

     celldm(1)=  14.400742  celldm(2)=   0.000000  celldm(3)=   0.000000
     celldm(4)=   0.000000  celldm(5)=   0.000000  celldm(6)=   0.000000

     crystal axes: (cart. coord. in units of alat)
               a(1) = (   0.997000   0.000000   0.000000 )  
               a(2) = (   0.000000   0.997000   0.000000 )  
               a(3) = (   0.000000   0.000000   0.997000 )  

     reciprocal axes: (cart. coord. in units 2 pi/alat)
               b(1) = (  1.003009  0.000000  0.000000 )  
               b(2) = (  0.000000  1.003009  0.000000 )  
               b(3) = (  0.000000  0.000000  1.003009 )  


     PseudoPot. # 1 for Ru read from file:
     /rds/homes/b/bxp912/pp/Ru.pbe-spn-kjpaw_psl.1.0.0.UPF
     MD5 check sum: 0ae1f594dea09af7be8575c3a481d1ae
     Pseudo is Projector augmented-wave + core cor, Zval = 16.0
     Generated using "atomic" code by A. Dal Corso  v.5.1
     Shape of augmentation charge: PSQ
     Using radial grid of 1233 points,  6 beta functions with: 
                l(1) =   0
                l(2) =   0
                l(3) =   1
                l(4) =   1
                l(5) =   2
                l(6) =   2
     Q(r) pseudized with 0 coefficients 


     atomic species   valence    mass     pseudopotential
        Ru            16.00   101.07000     Ru( 1.00)

     48 Sym. Ops., with inversion, found



   Cartesian axes

     site n.     atom                  positions (alat units)
         1           Ru  tau(   1) = (   0.0000000   0.0000000   0.0000000  )
         2           Ru  tau(   2) = (   0.2492500   0.2492500   0.0000000  )
         3           Ru  tau(   3) = (   0.2492500   0.0000000   0.2492495  )
         4           Ru  tau(   4) = (   0.0000000   0.2492500   0.2492495  )
         5           Ru  tau(   5) = (   0.0000000   0.0000000   0.4985000  )
         6           Ru  tau(   6) = (   0.2492490   0.2492490   0.4985000  )
         7           Ru  tau(   7) = (   0.2492500   0.0000000   0.7477495  )
         8           Ru  tau(   8) = (   0.0000000   0.2492500   0.7477495  )
         9           Ru  tau(   9) = (   0.0000000   0.4985002   0.0000000  )
        10           Ru  tau(  10) = (   0.2492500   0.7477504   0.0000000  )
        11           Ru  tau(  11) = (   0.2492490   0.4985002   0.2492484  )
        12           Ru  tau(  12) = (   0.0000000   0.7477504   0.2492495  )
        13           Ru  tau(  13) = (   0.0000000   0.4985002   0.4985000  )
        14           Ru  tau(  14) = (   0.2492490   0.7477515   0.4985000  )
        15           Ru  tau(  15) = (   0.2492490   0.4985002   0.7477505  )
        16           Ru  tau(  16) = (   0.0000000   0.7477504   0.7477495  )
        17           Ru  tau(  17) = (   0.4985002   0.0000000   0.0000000  )
        18           Ru  tau(  18) = (   0.7477504   0.2492500   0.0000000  )
        19           Ru  tau(  19) = (   0.7477504   0.0000000   0.2492495  )
        20           Ru  tau(  20) = (   0.4985002   0.2492490   0.2492484  )
        21           Ru  tau(  21) = (   0.4985002   0.0000000   0.4985000  )
        22           Ru  tau(  22) = (   0.7477515   0.2492490   0.4985000  )
        23           Ru  tau(  23) = (   0.7477504   0.0000000   0.7477495  )
        24           Ru  tau(  24) = (   0.4985002   0.2492490   0.7477505  )
        25           Ru  tau(  25) = (   0.4985002   0.4985002   0.0000000  )
        26           Ru  tau(  26) = (   0.7477504   0.7477504   0.0000000  )
        27           Ru  tau(  27) = (   0.7477515   0.4985002   0.2492484  )
        28           Ru  tau(  28) = (   0.4985002   0.7477515   0.2492484  )
        29           Ru  tau(  29) = (   0.4985002   0.4985002   0.4985000  )
        30           Ru  tau(  30) = (   0.7477515   0.7477515   0.4985000  )
        31           Ru  tau(  31) = (   0.7477515   0.4985002   0.7477505  )
        32           Ru  tau(  32) = (   0.4985002   0.7477515   0.7477505  )

     number of k points=    35  Marzari-Vanderbilt smearing, width (Ry)=  0.0400
                       cart. coord. in units 2pi/alat
        k(    1) = (   0.0557227   0.0557227   0.0557227), wk =   0.0219479
        k(    2) = (   0.0557227   0.0557227   0.1671682), wk =   0.0658436
        k(    3) = (   0.0557227   0.0557227   0.2786136), wk =   0.0658436
        k(    4) = (   0.0557227   0.0557227   0.3900591), wk =   0.0658436
        k(    5) = (   0.0557227   0.0557227  -0.5015045), wk =   0.0329218
        k(    6) = (   0.0557227   0.1671682   0.1671682), wk =   0.0658436
        k(    7) = (   0.0557227   0.1671682   0.2786136), wk =   0.1316872
        k(    8) = (   0.0557227   0.1671682   0.3900591), wk =   0.1316872
        k(    9) = (   0.0557227   0.1671682  -0.5015045), wk =   0.0658436
        k(   10) = (   0.0557227   0.2786136   0.2786136), wk =   0.0658436
        k(   11) = (   0.0557227   0.2786136   0.3900591), wk =   0.1316872
        k(   12) = (   0.0557227   0.2786136  -0.5015045), wk =   0.0658436
        k(   13) = (   0.0557227   0.3900591   0.3900591), wk =   0.0658436
        k(   14) = (   0.0557227   0.3900591  -0.5015045), wk =   0.0658436
        k(   15) = (   0.0557227  -0.5015045  -0.5015045), wk =   0.0164609
        k(   16) = (   0.1671682   0.1671682   0.1671682), wk =   0.0219479
        k(   17) = (   0.1671682   0.1671682   0.2786136), wk =   0.0658436
        k(   18) = (   0.1671682   0.1671682   0.3900591), wk =   0.0658436
        k(   19) = (   0.1671682   0.1671682  -0.5015045), wk =   0.0329218
        k(   20) = (   0.1671682   0.2786136   0.2786136), wk =   0.0658436
        k(   21) = (   0.1671682   0.2786136   0.3900591), wk =   0.1316872
        k(   22) = (   0.1671682   0.2786136  -0.5015045), wk =   0.0658436
        k(   23) = (   0.1671682   0.3900591   0.3900591), wk =   0.0658436
        k(   24) = (   0.1671682   0.3900591  -0.5015045), wk =   0.0658436
        k(   25) = (   0.1671682  -0.5015045  -0.5015045), wk =   0.0164609
        k(   26) = (   0.2786136   0.2786136   0.2786136), wk =   0.0219479
        k(   27) = (   0.2786136   0.2786136   0.3900591), wk =   0.0658436
        k(   28) = (   0.2786136   0.2786136  -0.5015045), wk =   0.0329218
        k(   29) = (   0.2786136   0.3900591   0.3900591), wk =   0.0658436
        k(   30) = (   0.2786136   0.3900591  -0.5015045), wk =   0.0658436
        k(   31) = (   0.2786136  -0.5015045  -0.5015045), wk =   0.0164609
        k(   32) = (   0.3900591   0.3900591   0.3900591), wk =   0.0219479
        k(   33) = (   0.3900591   0.3900591  -0.5015045), wk =   0.0329218
        k(   34) = (   0.3900591  -0.5015045  -0.5015045), wk =   0.0164609
        k(   35) = (  -0.5015045  -0.5015045  -0.5015045), wk =   0.0027435

     Dense  grid:   445279 G-vectors     FFT dimensions: (  96,  96,  96)

     Smooth grid:   239385 G-vectors     FFT dimensions: (  80,  80,  80)

     Estimated max dynamical RAM per process >     106.07 MB

     Estimated total dynamical RAM >       7.46 GB

     Check: negative core charge=   -0.000002

     Initial potential from superposition of free atoms

     starting charge  511.97959, renormalised to  512.00000
     Starting wfcs are  320 randomized atomic wfcs
     Checking if some PAW data can be deallocated... 

     total cpu time spent up to now is       16.1 secs

     Self-consistent Calculation

     iteration #  1     ecut=    71.00 Ry     beta= 0.10
     Davidson diagonalization with overlap
     ethr =  1.00E-02,  avg # of iterations =  3.3

     Threshold (ethr) on eigenvalues was too large:
     Diagonalizing with lowered threshold

     Davidson diagonalization with overlap
     ethr =  8.40E-05,  avg # of iterations =  5.4

     total cpu time spent up to now is      102.9 secs

     total energy              =  -13813.41134791 Ry
     estimated scf accuracy    <       0.64121500 Ry

     iteration #  2     ecut=    71.00 Ry     beta= 0.10
     Davidson diagonalization with overlap
     ethr =  1.25E-04,  avg # of iterations =  1.1

     total cpu time spent up to now is      135.4 secs

     total energy              =  -13813.20003149 Ry
     estimated scf accuracy    <       0.40163180 Ry

     iteration #  3     ecut=    71.00 Ry     beta= 0.10
     Davidson diagonalization with overlap
     ethr =  7.84E-05,  avg # of iterations =  2.3

     total cpu time spent up to now is      179.4 secs

     total energy              =  -13813.29712722 Ry
     estimated scf accuracy    <       0.01012876 Ry

     iteration #  4     ecut=    71.00 Ry     beta= 0.10
     Davidson diagonalization with overlap
     ethr =  1.98E-06,  avg # of iterations =  3.1

     total cpu time spent up to now is      219.3 secs

     total energy              =  -13813.29646626 Ry
     estimated scf accuracy    <       0.00674633 Ry

     iteration #  5     ecut=    71.00 Ry     beta= 0.10
     Davidson diagonalization with overlap
     ethr =  1.32E-06,  avg # of iterations =  2.1

     total cpu time spent up to now is      256.5 secs

     total energy              =  -13813.30127183 Ry
     estimated scf accuracy    <       0.00756435 Ry

     iteration #  6     ecut=    71.00 Ry     beta= 0.10
     Davidson diagonalization with overlap
     ethr =  1.32E-06,  avg # of iterations =  3.3

     total cpu time spent up to now is      300.7 secs

     total energy              =  -13813.29628503 Ry
     estimated scf accuracy    <       0.01564778 Ry

     iteration #  7     ecut=    71.00 Ry     beta= 0.10
     Davidson diagonalization with overlap
     ethr =  1.32E-06,  avg # of iterations =  2.3

     total cpu time spent up to now is      342.4 secs

     total energy              =  -13813.29782231 Ry
     estimated scf accuracy    <       0.00086456 Ry

     iteration #  8     ecut=    71.00 Ry     beta= 0.10
     Davidson diagonalization with overlap
     ethr =  1.69E-07,  avg # of iterations =  2.4

     total cpu time spent up to now is      376.9 secs

     total energy              =  -13813.29785459 Ry
     estimated scf accuracy    <       0.00022273 Ry

     iteration #  9     ecut=    71.00 Ry     beta= 0.10
     Davidson diagonalization with overlap
     ethr =  4.35E-08,  avg # of iterations =  2.0

     total cpu time spent up to now is      407.7 secs

     total energy              =  -13813.29780079 Ry
     estimated scf accuracy    <       0.00012036 Ry

     iteration # 10     ecut=    71.00 Ry     beta= 0.10
     Davidson diagonalization with overlap
     ethr =  2.35E-08,  avg # of iterations =  2.5

     total cpu time spent up to now is      449.7 secs

     total energy              =  -13813.29781921 Ry
     estimated scf accuracy    <       0.00000365 Ry

     iteration # 11     ecut=    71.00 Ry     beta= 0.10
     Davidson diagonalization with overlap
     ethr =  7.13E-10,  avg # of iterations =  4.9

     total cpu time spent up to now is      504.2 secs

     total energy              =  -13813.29782462 Ry
     estimated scf accuracy    <       0.00000166 Ry

     iteration # 12     ecut=    71.00 Ry     beta= 0.10
     Davidson diagonalization with overlap
     ethr =  3.25E-10,  avg # of iterations =  3.0

     total cpu time spent up to now is      552.0 secs

     total energy              =  -13813.29782095 Ry
     estimated scf accuracy    <       0.00000890 Ry

     iteration # 13     ecut=    71.00 Ry     beta= 0.10
     Davidson diagonalization with overlap
     ethr =  3.25E-10,  avg # of iterations =  3.2

     total cpu time spent up to now is      593.8 secs

     End of self-consistent calculation

          k = 0.0557 0.0557 0.0557 ( 29879 PWs)   bands (ev):

   -49.6676 -49.5638 -49.5638 -49.5638 -49.5438 -49.5438 -49.5438 -49.5064
   -49.5064 -49.5064 -49.4966 -49.4955 -49.4955 -49.4954 -49.4954 -49.4954
   -49.4954 -49.4948 -49.4948 -49.4948 -49.4862 -49.4862 -49.4862 -49.4391
   -49.4390 -49.4390 -49.4386 -49.4385 -49.4385 -49.4385 -49.4385 -49.4384
   -20.0871 -20.0871 -20.0871 -20.0829 -20.0223 -20.0223 -20.0223 -19.8160
   -19.8160 -19.8160 -19.8043 -19.8043 -19.8043 -19.8043 -19.8043 -19.8043
   -19.7835 -19.7835 -19.7835 -19.7599 -19.7599 -19.7599 -19.7599 -19.7599
   -19.7599 -19.7078 -19.7078 -19.7078 -19.7078 -19.7078 -19.7078 -19.6055
   -19.6055 -19.6055 -19.5301 -19.5301 -19.5301 -19.5222 -19.5222 -19.5222
   -19.4872 -19.4872 -19.4872 -19.4872 -19.4872 -19.4872 -19.4458 -19.4458
   -19.4458 -19.4386 -19.4386 -19.4386 -19.4386 -19.4386 -19.4386 -19.4324
   -19.4324 -19.4324 -19.4277 -19.4277 -19.4277 -19.2603 -19.2603 -19.2603
   -19.2598 -19.2598 -19.2598 -19.2272 -19.2272 -19.2272 -19.2270 -19.2270
   -19.2270 -19.2116 -19.2116 -19.2116 -19.1989 -19.1989 -19.1989 -19.1978
   -19.1978 -19.1978 -19.1978 -19.1978 -19.1978 -19.1957 -19.1957 -19.1957
   -19.1928 -19.1928 -19.1788 -19.1788 -19.1787 -19.0627 -19.0556 -19.0556
    15.5494  17.0786  17.0786  17.0786  17.3716  17.3895  17.3895  17.3895
    17.5513  17.5513  17.5513  17.8129  17.8129  17.8129  17.9790  17.9790
    17.9790  18.5045  18.5045  18.5045  18.5045  18.5046  18.5046  18.8220
    18.8220  18.8220  19.0985  19.0985  19.0985  19.1105  19.1105  19.1106
    19.2094  19.2094  19.2095  19.2174  19.2174  19.2174  19.2175  19.2175
    19.2175  19.7052  19.7052  19.7052  19.7052  19.7052  19.7053  19.8509
    19.8509  19.8509  19.8823  19.8823  19.8823  19.8824  19.8824  19.8824
    19.9470  19.9470  19.9471  20.2160  20.2160  20.2160  20.2161  20.2161
    20.2161  20.2175  20.2175  20.2175  20.2176  20.2176  20.2176  20.2182
    20.2182  20.2182  20.3860  20.3860  20.3861  20.6717  20.6717  20.6717
    20.7084  20.7084  20.7237  20.7237  20.7237  20.8044  20.8363  20.8363
    21.8280  21.8280  21.8280  22.0037  22.0037  22.0037  22.0449  22.0449
    22.0449  22.1467  22.1467  22.1467  22.1467  22.1467  22.1467  22.1606
    22.1606  22.1606  22.4632  22.4633  22.4633  22.5854  22.5854  22.5854
    22.8371  22.8371  22.8371  22.9136  22.9136  22.9136  22.9136  22.9136
    22.9136  22.9333  22.9333  22.9333  22.9758  22.9758  22.9758  23.1665
    23.1665  23.1665  23.1665  23.1665  23.1665  23.2291  23.2291  23.3422
    23.3422  23.3422  24.0152  24.0152  24.0152  24.0581  24.0581  24.0581
    24.1777  24.1777  24.1777  24.2587  25.0096  25.0096  25.0096  25.0519
    25.0519  25.0875  25.0875  25.0875  25.3745  25.3745  25.3745  25.3958
    25.3958  25.3958  25.5648  25.5648  25.5648  25.5649  25.5649  25.5649
    25.5699  25.5699  25.5699  27.0295  27.0295  27.0295  27.1786  27.1786
    27.1786  27.5683  27.5683

          k = 0.0557 0.0557 0.1672 ( 29903 PWs)   bands (ev):

   -49.6641 -49.5834 -49.5619 -49.5619 -49.5422 -49.5422 -49.5240 -49.5172
   -49.5172 -49.5061 -49.5045 -49.5045 -49.4984 -49.4955 -49.4954 -49.4949
   -49.4948 -49.4932 -49.4865 -49.4847 -49.4846 -49.4772 -49.4772 -49.4425
   -49.4404 -49.4404 -49.4401 -49.4401 -49.4391 -49.4390 -49.4386 -49.4385
   -20.0795 -20.0754 -20.0754 -20.0672 -20.0137 -20.0137 -20.0089 -19.8479
   -19.8341 -19.8341 -19.8207 -19.8207 -19.8180 -19.8180 -19.8125 -19.8099
   -19.8099 -19.7861 -19.7861 -19.7706 -19.7706 -19.7568 -19.7568 -19.7560
   -19.7560 -19.7162 -19.7162 -19.6984 -19.6984 -19.6865 -19.6572 -19.6572
   -19.6185 -19.6185 -19.5720 -19.5720 -19.5391 -19.5391 -19.5279 -19.5279
   -19.4960 -19.4571 -19.4571 -19.4448 -19.4448 -19.4433 -19.4433 -19.4388
   -19.4378 -19.4378 -19.4270 -19.4270 -19.4267 -19.4236 -19.4235 -19.4222
   -19.4218 -19.4218 -19.4182 -19.4049 -19.4049 -19.2930 -19.2917 -19.2677
   -19.2677 -19.2516 -19.2516 -19.2344 -19.2344 -19.2318 -19.2318 -19.2232
   -19.2232 -19.2174 -19.2174 -19.2170 -19.2110 -19.2100 -19.2100 -19.1990
   -19.1986 -19.1978 -19.1978 -19.1967 -19.1967 -19.1949 -19.1941 -19.1909
   -19.1909 -19.1901 -19.1792 -19.1667 -19.1667 -19.0806 -19.0613 -19.0593
    15.6365  17.1304  17.1431  17.1431  17.4121  17.4474  17.4474  17.4649
    17.5133  17.5898  17.6143  17.6143  17.8757  17.8757  17.9941  18.0452
    18.0452  18.3823  18.3823  18.5533  18.5533  18.5615  18.5630  18.5630
    18.7903  18.8620  18.8620  18.8947  18.8947  18.9432  18.9756  18.9756
    19.1321  19.1321  19.1600  19.1600  19.1708  19.1709  19.2443  19.2443
    19.3098  19.3098  19.3841  19.6838  19.6838  19.7092  19.7092  19.7618
    19.7618  19.7752  19.7752  19.8321  19.8321  19.9254  19.9255  19.9520
    20.0372  20.0372  20.0489  20.0489  20.1486  20.1695  20.1695  20.2048
    20.2048  20.2105  20.2106  20.2246  20.2246  20.4747  20.4747  20.4880
    20.4880  20.5189  20.5763  20.5970  20.6290  20.6290  20.7052  20.7423
    20.7424  20.7746  20.7746  20.7769  20.7769  20.7878  20.8799  20.8838
    21.5922  21.5923  21.7271  21.7271  21.8140  21.8402  21.9521  21.9521
    21.9822  22.0798  22.0798  22.1185  22.2604  22.2605  22.2656  22.2937
    22.2937  22.3415  22.3416  22.3797  22.4391  22.4391  22.7684  22.7684
    22.7891  22.7891  22.8031  22.8031  22.9154  22.9155  22.9302  22.9303
    23.0531  23.0532  23.0757  23.0757  23.1563  23.1756  23.1881  23.1881
    23.2327  23.2539  23.3936  23.3936  23.4114  23.4581  23.4582  23.5451
    23.5788  23.5788  23.5902  23.6420  23.6420  23.8312  23.8594  24.0785
    24.0785  24.2722  24.2722  24.3428  24.8045  24.8045  24.9194  24.9194
    24.9335  24.9685  25.0336  25.0336  25.0381  25.2359  25.3056  25.4348
    25.4348  25.4361  25.4361  25.4575  25.5634  25.5634  25.5646  25.5646
    25.7411  25.7411  25.9691  26.5047  26.5048  26.8759  26.9698  27.0367
    27.0367  27.5113  27.5113

          k = 0.0557 0.0557 0.2786 ( 29891 PWs)   bands (ev):

   -49.6573 -49.6022 -49.5581 -49.5581 -49.5390 -49.5390 -49.5275 -49.5275
   -49.5132 -49.5132 -49.5054 -49.5052 -49.5001 -49.4954 -49.4953 -49.4950
   -49.4949 -49.4916 -49.4870 -49.4744 -49.4744 -49.4686 -49.4686 -49.4494
   -49.4441 -49.4441 -49.4432 -49.4432 -49.4390 -49.4390 -49.4386 -49.4385
   -20.0604 -20.0526 -20.0526 -20.0403 -19.9968 -19.9968 -19.9825 -19.8951
   -19.8799 -19.8799 -19.8582 -19.8575 -19.8575 -19.8241 -19.8241 -19.8182
   -19.8182 -19.7863 -19.7863 -19.7628 -19.7622 -19.7622 -19.7598 -19.7598
   -19.7229 -19.7228 -19.7190 -19.7190 -19.6824 -19.6824 -19.6417 -19.6417
   -19.6117 -19.6117 -19.6084 -19.6084 -19.5687 -19.5687 -19.5666 -19.5666
   -19.4621 -19.4621 -19.4445 -19.4363 -19.4363 -19.4281 -19.4281 -19.4156
   -19.4113 -19.4105 -19.4105 -19.4041 -19.4041 -19.3967 -19.3967 -19.3934
   -19.3934 -19.3752 -19.3657 -19.3657 -19.3581 -19.3242 -19.3221 -19.2828
   -19.2828 -19.2579 -19.2579 -19.2539 -19.2539 -19.2489 -19.2489 -19.2465
   -19.2377 -19.2377 -19.2335 -19.2335 -19.2168 -19.2100 -19.2021 -19.2021
   -19.2013 -19.1977 -19.1976 -19.1969 -19.1969 -19.1905 -19.1905 -19.1875
   -19.1801 -19.1642 -19.1626 -19.1618 -19.1618 -19.1124 -19.0727 -19.0698
    15.8079  17.1375  17.2307  17.2690  17.2690  17.5106  17.5626  17.5626
    17.5966  17.6663  17.7398  17.7398  17.8927  17.9970  17.9971  18.1732
    18.1732  18.1737  18.1737  18.3228  18.4482  18.5478  18.5478  18.6145
    18.6460  18.6460  18.6778  18.6778  18.8017  18.8017  18.8340  18.8340
    18.9411  18.9411  19.0166  19.0166  19.1145  19.1145  19.1974  19.1974
    19.3775  19.3775  19.5843  19.5843  19.6481  19.6481  19.6515  19.6515
    19.6647  19.6647  19.6705  19.7118  19.7118  19.8115  19.8115  19.9719
    19.9719  20.0163  20.0894  20.0894  20.1464  20.1464  20.2196  20.2196
    20.2350  20.2351  20.2915  20.2915  20.3192  20.4917  20.5554  20.5554
    20.5632  20.5632  20.6142  20.6658  20.8249  20.8760  20.8760  20.8994
    20.9074  20.9232  20.9232  20.9751  20.9786  21.0308  21.3098  21.3098
    21.3757  21.3757  21.3767  21.3767  21.5854  21.7002  21.7002  21.7351
    21.7489  21.8083  22.1716  22.2123  22.2123  22.4255  22.4256  22.4435
    22.4436  22.4808  22.4808  22.5593  22.5593  22.6812  22.6813  22.7833
    22.7833  22.9081  22.9081  22.9118  22.9236  22.9237  22.9465  22.9465
    23.0028  23.0028  23.0162  23.0776  23.1083  23.1083  23.2259  23.2955
    23.2955  23.3029  23.3605  23.3605  23.5025  23.6397  23.7093  23.7093
    23.7142  23.7941  23.7941  23.8380  23.8684  23.8684  23.8909  24.1119
    24.1119  24.2589  24.2589  24.5070  24.5303  24.5303  24.7087  24.7087
    24.7401  24.8767  24.8767  24.8784  24.9077  24.9688  25.1977  25.1977
    25.1989  25.1989  25.2563  25.5625  25.5625  25.5641  25.5642  25.7057
    25.9892  25.9892  26.1807  26.1807  26.3464  26.5016  26.5017  26.5325
    26.8479  27.3924  27.3925

          k = 0.0557 0.0557 0.3901 ( 29899 PWs)   bands (ev):

   -49.6474 -49.6194 -49.5526 -49.5526 -49.5371 -49.5370 -49.5343 -49.5343
   -49.5212 -49.5212 -49.5044 -49.5017 -49.4954 -49.4952 -49.4950 -49.4949
   -49.4901 -49.4878 -49.4878 -49.4649 -49.4649 -49.4607 -49.4606 -49.4595
   -49.4496 -49.4496 -49.4478 -49.4478 -49.4390 -49.4389 -49.4387 -49.4386
   -20.0305 -20.0195 -20.0195 -20.0039 -19.9719 -19.9719 -19.9451 -19.9434
   -19.9301 -19.9301 -19.9094 -19.9012 -19.9012 -19.8321 -19.8230 -19.8230
   -19.8089 -19.8089 -19.8023 -19.8023 -19.7757 -19.7757 -19.7337 -19.7337
   -19.7044 -19.7044 -19.6854 -19.6854 -19.6709 -19.6709 -19.6608 -19.6608
   -19.6480 -19.6479 -19.6056 -19.6056 -19.6022 -19.6022 -19.5631 -19.5631
   -19.4888 -19.4888 -19.4343 -19.4343 -19.4298 -19.4298 -19.3992 -19.3953
   -19.3885 -19.3665 -19.3665 -19.3628 -19.3628 -19.3594 -19.3594 -19.3591
   -19.3591 -19.3528 -19.3501 -19.3294 -19.3294 -19.3280 -19.3048 -19.3048
   -19.2889 -19.2889 -19.2888 -19.2888 -19.2862 -19.2827 -19.2701 -19.2701
   -19.2675 -19.2675 -19.2456 -19.2219 -19.2219 -19.2084 -19.2040 -19.1976
   -19.1975 -19.1971 -19.1971 -19.1963 -19.1963 -19.1859 -19.1859 -19.1852
   -19.1814 -19.1639 -19.1639 -19.1577 -19.1357 -19.1336 -19.0892 -19.0863
    16.0576  16.7441  17.3728  17.4496  17.4496  17.6662  17.7282  17.7334
    17.7334  17.7797  17.7822  17.9240  17.9240  17.9266  17.9266  18.1105
    18.1394  18.1682  18.1682  18.2309  18.2309  18.2987  18.3557  18.3558
    18.4762  18.4762  18.5942  18.5942  18.7717  18.7717  18.8084  18.8084
    18.8442  18.8442  19.0303  19.0303  19.0573  19.0573  19.2779  19.2780
    19.2909  19.2909  19.3879  19.3879  19.5357  19.5357  19.5851  19.5852
    19.6262  19.6262  19.6942  19.6942  19.6989  19.6989  19.9479  19.9536
    19.9536  20.0075  20.0075  20.1161  20.2383  20.2383  20.2440  20.2440
    20.2444  20.2445  20.3673  20.4206  20.4316  20.4590  20.4590  20.4718
    20.4719  20.5983  20.6695  20.6695  20.9546  21.0202  21.0202  21.0335
    21.0335  21.0484  21.0484  21.0558  21.1173  21.1198  21.3416  21.3590
    21.3590  21.4308  21.4833  21.5230  21.5260  21.5262  21.5262  21.5365
    22.0164  22.0164  22.3394  22.3395  22.3474  22.4121  22.4121  22.5507
    22.5507  22.5551  22.6075  22.6154  22.6154  22.6592  22.6592  22.6964
    22.6964  22.7465  22.7465  22.7588  22.7589  22.8201  22.8734  22.8734
    22.9154  22.9155  22.9360  22.9361  23.0270  23.0270  23.2516  23.2516
    23.3753  23.3945  23.3945  23.5149  23.5832  23.7129  23.7129  23.8469
    24.0428  24.0430  24.0430  24.1505  24.1572  24.1572  24.1970  24.1970
    24.4241  24.4241  24.4255  24.4841  24.5834  24.5834  24.5858  24.6469
    24.6469  24.6683  24.7061  24.7076  24.8854  24.8854  24.8892  24.8892
    24.9440  24.9440  25.0244  25.4862  25.4862  25.5625  25.5625  25.5636
    25.5636  25.6974  25.9653  25.9653  26.0828  26.5920  26.5920  26.6603
    27.0296  27.2035  27.2035

          k = 0.0557 0.0557-0.5015 ( 29920 PWs)   bands (ev):

   -49.6347 -49.6345 -49.5456 -49.5456 -49.5454 -49.5454 -49.5285 -49.5285
   -49.5283 -49.5283 -49.5033 -49.5031 -49.4953 -49.4951 -49.4951 -49.4950
   -49.4890 -49.4888 -49.4725 -49.4723 -49.4567 -49.4567 -49.4565 -49.4565
   -49.4537 -49.4537 -49.4536 -49.4535 -49.4390 -49.4388 -49.4388 -49.4386
   -19.9914 -19.9913 -19.9780 -19.9779 -19.9778 -19.9778 -19.9593 -19.9593
   -19.9398 -19.9398 -19.9396 -19.9396 -19.8929 -19.8927 -19.8153 -19.8153
   -19.8152 -19.8152 -19.7940 -19.7940 -19.7940 -19.7940 -19.7026 -19.7026
   -19.7025 -19.7025 -19.6795 -19.6795 -19.6794 -19.6794 -19.6457 -19.6457
   -19.6456 -19.6456 -19.6340 -19.6340 -19.6338 -19.6338 -19.5229 -19.5229
   -19.5227 -19.5227 -19.4321 -19.4320 -19.4320 -19.4318 -19.3781 -19.3779
   -19.3748 -19.3746 -19.3345 -19.3344 -19.3331 -19.3331 -19.3329 -19.3329
   -19.3259 -19.3259 -19.3258 -19.3258 -19.3233 -19.3233 -19.3233 -19.3233
   -19.3105 -19.3104 -19.3103 -19.3102 -19.2973 -19.2973 -19.2971 -19.2971
   -19.2836 -19.2835 -19.2152 -19.2151 -19.2074 -19.2074 -19.2073 -19.2073
   -19.2064 -19.2063 -19.1975 -19.1973 -19.1973 -19.1971 -19.1832 -19.1830
   -19.1725 -19.1725 -19.1724 -19.1724 -19.1106 -19.1104 -19.1079 -19.1078
    16.3751  16.3753  17.5449  17.5451  17.6736  17.6738  17.6738  17.6740
    17.8768  17.8769  17.9284  17.9286  17.9573  17.9574  17.9575  17.9575
    18.0180  18.0181  18.1728  18.1728  18.1729  18.1729  18.3743  18.3743
    18.3744  18.3745  18.5757  18.5757  18.5759  18.5759  18.9097  18.9097
    18.9098  18.9098  19.0528  19.0528  19.0529  19.0530  19.2078  19.2078
    19.2079  19.2079  19.4065  19.4065  19.4066  19.4067  19.6321  19.6321
    19.6322  19.6322  19.6509  19.6509  19.6509  19.6509  19.9598  19.9598
    19.9598  19.9598  20.2054  20.2056  20.2374  20.2375  20.2463  20.2463
    20.2464  20.2465  20.3513  20.3514  20.3514  20.3516  20.5133  20.5134
    20.7259  20.7259  20.7260  20.7260  20.8313  20.8313  20.8313  20.8313
    21.1284  21.1285  21.2042  21.2043  21.2044  21.2044  21.2527  21.2527
    21.3033  21.3035  21.3062  21.3064  21.9976  21.9977  21.9977  21.9977
    22.0046  22.0046  22.0343  22.0343  22.3931  22.3931  22.3932  22.3932
    22.5868  22.5870  22.6916  22.6916  22.6917  22.6917  22.7147  22.7148
    22.7149  22.7149  22.7932  22.7932  22.7934  22.7934  22.8084  22.8084
    22.8085  22.8086  22.8739  22.8739  22.8740  22.8740  23.1314  23.1314
    23.1316  23.1316  23.4693  23.4695  24.0813  24.0815  24.0815  24.0816
    24.0946  24.0948  24.1806  24.1807  24.3627  24.3627  24.3629  24.3629
    24.4158  24.4158  24.4476  24.4476  24.5285  24.5285  24.5287  24.5287
    24.5453  24.5453  24.5454  24.5454  24.8321  24.8322  25.0085  25.0086
    25.0086  25.0086  25.0326  25.0328  25.4384  25.4384  25.4384  25.4384
    25.5628  25.5630  25.5630  25.5632  26.4045  26.4047  26.9369  26.9369
    26.9371  26.9371  27.4318

          k = 0.0557 0.1672 0.1672 ( 29916 PWs)   bands (ev):

   -49.6607 -49.5812 -49.5812 -49.5600 -49.5406 -49.5297 -49.5227 -49.5227
   -49.5166 -49.5166 -49.5042 -49.5042 -49.5019 -49.4966 -49.4921 -49.4921
   -49.4915 -49.4914 -49.4849 -49.4849 -49.4778 -49.4778 -49.4699 -49.4425
   -49.4425 -49.4419 -49.4419 -49.4408 -49.4408 -49.4398 -49.4398 -49.4390
   -20.0720 -20.0720 -20.0601 -20.0475 -20.0052 -20.0011 -20.0011 -19.8546
   -19.8546 -19.8481 -19.8481 -19.8169 -19.8152 -19.8152 -19.8137 -19.8137
   -19.8091 -19.8091 -19.8033 -19.8033 -19.7839 -19.7839 -19.7808 -19.7808
   -19.7196 -19.6955 -19.6955 -19.6914 -19.6914 -19.6728 -19.6728 -19.6493
   -19.6493 -19.6326 -19.6150 -19.5570 -19.5343 -19.5343 -19.4958 -19.4958
   -19.4841 -19.4841 -19.4606 -19.4594 -19.4594 -19.4374 -19.4374 -19.4245
   -19.4245 -19.4213 -19.4213 -19.4196 -19.4195 -19.4194 -19.4186 -19.4186
   -19.4093 -19.4093 -19.3802 -19.3802 -19.3655 -19.3006 -19.3006 -19.2853
   -19.2853 -19.2609 -19.2563 -19.2467 -19.2316 -19.2316 -19.2308 -19.2307
   -19.2247 -19.2235 -19.2225 -19.2225 -19.2208 -19.2208 -19.2083 -19.2045
   -19.2045 -19.2017 -19.2016 -19.2015 -19.1930 -19.1913 -19.1913 -19.1905
   -19.1837 -19.1837 -19.1677 -19.1677 -19.1493 -19.1032 -19.0666 -19.0583
    15.7221  17.1951  17.1951  17.2014  17.4330  17.4857  17.5378  17.5378
    17.5747  17.5748  17.6522  17.6522  17.6813  17.9226  18.0626  18.0627
    18.0917  18.4147  18.4148  18.4429  18.4429  18.6072  18.6072  18.6112
    18.6112  18.6796  18.6796  18.7675  18.8199  18.8199  18.9183  18.9763
    18.9763  19.0003  19.0003  19.0161  19.1795  19.2606  19.2606  19.2679
    19.2679  19.3065  19.3065  19.4106  19.4106  19.6473  19.6473  19.7518
    19.7518  19.7699  19.8237  19.8237  19.8545  19.8545  19.9055  19.9055
    19.9381  20.1228  20.1228  20.1318  20.1318  20.2233  20.2233  20.2913
    20.2914  20.3392  20.4168  20.4168  20.5166  20.5167  20.5374  20.5374
    20.5868  20.5868  20.6110  20.6895  20.6895  20.6924  20.7061  20.7173
    20.7662  20.7662  20.7817  20.8282  20.8605  20.8605  20.9010  20.9264
    21.4539  21.5592  21.5909  21.5909  21.8467  21.8467  22.0131  22.0279
    22.0280  22.0356  22.0356  22.1030  22.1030  22.1217  22.1217  22.1489
    22.1489  22.3084  22.3721  22.4799  22.4799  22.5006  22.5006  22.5514
    22.6320  22.9160  22.9161  23.0377  23.0471  23.0471  23.0625  23.0625
    23.1039  23.1039  23.1343  23.1883  23.1883  23.2334  23.2654  23.2654
    23.3275  23.3275  23.3494  23.3882  23.3882  23.4914  23.5825  23.6443
    23.6443  23.6734  23.6734  23.7549  23.7666  23.7666  23.8980  23.8980
    24.1087  24.3077  24.4785  24.4830  24.4830  24.6230  24.6230  24.7996
    24.9119  24.9119  24.9779  25.0600  25.0600  25.0717  25.0817  25.3294
    25.3294  25.4338  25.4338  25.4375  25.4375  25.4558  25.4558  25.5004
    25.6921  25.9969  26.3302  26.3302  26.4455  26.4455  26.9805  26.9805
    27.4793  27.4793  27.6032

          k = 0.0557 0.1672 0.2786 ( 29893 PWs)   bands (ev):

   -49.6540 -49.5997 -49.5769 -49.5563 -49.5416 -49.5375 -49.5266 -49.5201
   -49.5153 -49.5126 -49.5052 -49.5042 -49.5035 -49.4991 -49.4983 -49.4899
   -49.4882 -49.4854 -49.4802 -49.4789 -49.4749 -49.4694 -49.4629 -49.4492
   -49.4456 -49.4451 -49.4449 -49.4423 -49.4423 -49.4411 -49.4396 -49.4391
   -20.0570 -20.0534 -20.0341 -20.0173 -19.9883 -19.9855 -19.9760 -19.9024
   -19.8932 -19.8585 -19.8575 -19.8541 -19.8540 -19.8501 -19.8288 -19.8248
   -19.8233 -19.8071 -19.8055 -19.7975 -19.7949 -19.7911 -19.7874 -19.7679
   -19.7493 -19.7117 -19.6961 -19.6780 -19.6779 -19.6636 -19.6575 -19.6551
   -19.6342 -19.6280 -19.6010 -19.5880 -19.5707 -19.5334 -19.5215 -19.4946
   -19.4838 -19.4789 -19.4559 -19.4467 -19.4420 -19.4258 -19.4248 -19.4217
   -19.4171 -19.4148 -19.4100 -19.4000 -19.3904 -19.3861 -19.3842 -19.3819
   -19.3818 -19.3775 -19.3440 -19.3415 -19.3320 -19.3277 -19.3172 -19.3162
   -19.2734 -19.2726 -19.2675 -19.2653 -19.2579 -19.2561 -19.2552 -19.2525
   -19.2431 -19.2373 -19.2286 -19.2241 -19.2239 -19.2212 -19.2156 -19.2110
   -19.2098 -19.2077 -19.2044 -19.2005 -19.1923 -19.1916 -19.1856 -19.1704
   -19.1696 -19.1678 -19.1634 -19.1517 -19.1393 -19.1386 -19.0780 -19.0643
    15.8907  17.2012  17.2960  17.3160  17.3215  17.5106  17.5797  17.6649
    17.6812  17.6940  17.7275  17.7764  17.8135  17.9615  18.0115  18.1798
    18.1915  18.1964  18.2322  18.3593  18.3732  18.4751  18.4820  18.5403
    18.5560  18.5624  18.6609  18.6873  18.6982  18.7023  18.7137  18.7251
    18.8573  18.8774  18.8923  18.9993  19.0311  19.1121  19.1246  19.2738
    19.2920  19.3198  19.3598  19.4607  19.4980  19.5613  19.5754  19.5985
    19.6065  19.6668  19.6894  19.7371  19.8234  19.8371  19.8528  19.9252
    19.9593  19.9964  20.1031  20.2281  20.2571  20.2993  20.3170  20.3631
    20.3791  20.4068  20.4393  20.4676  20.5391  20.5545  20.5650  20.5805
    20.5966  20.6913  20.7078  20.7469  20.7641  20.8152  20.8540  20.8640
    20.9222  20.9814  20.9816  20.9894  21.0132  21.0146  21.2413  21.2639
    21.2922  21.3510  21.3599  21.5865  21.5894  21.6047  21.7589  21.7993
    21.8760  21.8915  21.9286  22.0575  22.0950  22.1496  22.2218  22.3164
    22.3385  22.3737  22.4266  22.4788  22.5216  22.5308  22.6321  22.7137
    22.7436  22.8289  22.8347  22.8727  22.8786  22.9024  23.0160  23.0205
    23.0290  23.0457  23.1356  23.1622  23.2296  23.2720  23.3325  23.3477
    23.3656  23.3940  23.3973  23.5850  23.6800  23.6832  23.7038  23.7321
    23.7563  23.9162  23.9361  23.9748  23.9829  23.9868  24.0195  24.0331
    24.0409  24.1237  24.2396  24.3339  24.4957  24.6103  24.7116  24.7358
    24.7492  24.8238  24.8514  24.9646  24.9847  24.9880  25.1366  25.1374
    25.1991  25.2019  25.2661  25.3183  25.4334  25.4390  25.4504  25.4629
    25.5093  25.8876  25.9320  26.3266  26.4476  26.7618  26.8666  26.9455
    26.9620  27.0561  27.9782

          k = 0.0557 0.1672 0.3901 ( 29894 PWs)   bands (ev):

   -49.6442 -49.6167 -49.5705 -49.5526 -49.5510 -49.5359 -49.5330 -49.5204
   -49.5163 -49.5135 -49.5083 -49.5057 -49.5026 -49.4999 -49.4885 -49.4870
   -49.4862 -49.4853 -49.4806 -49.4692 -49.4658 -49.4618 -49.4591 -49.4564
   -49.4514 -49.4509 -49.4494 -49.4460 -49.4421 -49.4414 -49.4394 -49.4391
   -20.0311 -20.0244 -19.9985 -19.9779 -19.9636 -19.9627 -19.9512 -19.9414
   -19.9390 -19.9069 -19.8983 -19.8934 -19.8801 -19.8522 -19.8467 -19.8337
   -19.8331 -19.8307 -19.8267 -19.8163 -19.7924 -19.7779 -19.7763 -19.7566
   -19.7325 -19.7162 -19.7102 -19.6902 -19.6889 -19.6586 -19.6343 -19.6325
   -19.6268 -19.6132 -19.6042 -19.5855 -19.5693 -19.5562 -19.5561 -19.5381
   -19.5127 -19.4824 -19.4244 -19.4226 -19.4192 -19.4148 -19.4130 -19.4087
   -19.4030 -19.3935 -19.3930 -19.3677 -19.3611 -19.3571 -19.3556 -19.3527
   -19.3478 -19.3464 -19.3390 -19.3320 -19.3107 -19.3093 -19.3090 -19.2991
   -19.2951 -19.2936 -19.2929 -19.2927 -19.2923 -19.2862 -19.2861 -19.2590
   -19.2565 -19.2519 -19.2359 -19.2324 -19.2274 -19.2261 -19.2255 -19.2194
   -19.2166 -19.2137 -19.1983 -19.1979 -19.1937 -19.1903 -19.1856 -19.1805
   -19.1724 -19.1663 -19.1525 -19.1416 -19.1368 -19.1226 -19.0947 -19.0777
    16.1363  16.8125  17.4389  17.4827  17.5030  17.6442  17.7284  17.7963
    17.8391  17.8442  17.8636  17.8743  17.9382  17.9613  17.9807  18.0073
    18.0726  18.1329  18.1646  18.1827  18.2999  18.3032  18.3473  18.3876
    18.3881  18.4186  18.5045  18.5543  18.5560  18.5823  18.7367  18.7568
    18.8218  18.8337  18.8789  18.8905  18.9979  19.1997  19.2067  19.2286
    19.2375  19.3360  19.3496  19.4067  19.4131  19.4504  19.4748  19.4861
    19.5239  19.5286  19.6790  19.6818  19.6838  19.7970  19.9483  19.9588
    19.9628  20.0270  20.2285  20.2451  20.2801  20.3155  20.3364  20.3510
    20.3764  20.4105  20.4250  20.4942  20.4987  20.5059  20.5471  20.5764
    20.6742  20.6776  20.7126  20.9046  20.9672  21.0005  21.0203  21.0561
    21.1181  21.1405  21.1446  21.1608  21.1624  21.1638  21.1751  21.2126
    21.3072  21.3919  21.4508  21.4719  21.5317  21.5435  21.6313  21.6614
    21.8836  21.9705  22.0202  22.0925  22.1036  22.1579  22.2662  22.3368
    22.3544  22.3848  22.4207  22.4409  22.4427  22.4435  22.5144  22.5829
    22.6520  22.7065  22.8043  22.8328  22.8523  22.9170  22.9450  22.9637
    22.9856  23.0818  23.1257  23.1368  23.2301  23.2628  23.2736  23.3500
    23.3964  23.4375  23.5835  23.6197  23.6694  23.6701  23.7450  23.7615
    23.9505  23.9777  24.0453  24.1408  24.2661  24.2669  24.2887  24.2969
    24.3200  24.3317  24.3446  24.4387  24.4513  24.5346  24.5376  24.6358
    24.7129  24.8200  24.8260  24.8864  24.8873  24.8876  24.8928  24.9011
    25.0420  25.0463  25.1171  25.3627  25.4312  25.4343  25.4407  25.4456
    25.4459  25.6293  25.9133  26.1483  26.1805  26.3301  26.4931  26.6929
    27.1812  27.5070  27.7995

          k = 0.0557 0.1672-0.5015 ( 29892 PWs)   bands (ev):

   -49.6318 -49.6316 -49.5625 -49.5623 -49.5442 -49.5440 -49.5273 -49.5271
   -49.5116 -49.5114 -49.5112 -49.5110 -49.5015 -49.5013 -49.4874 -49.4872
   -49.4828 -49.4826 -49.4720 -49.4718 -49.4596 -49.4594 -49.4577 -49.4576
   -49.4551 -49.4549 -49.4509 -49.4507 -49.4419 -49.4417 -49.4393 -49.4392
   -19.9952 -19.9951 -19.9863 -19.9863 -19.9553 -19.9552 -19.9335 -19.9333
   -19.9317 -19.9315 -19.9313 -19.9312 -19.8913 -19.8911 -19.8428 -19.8427
   -19.8347 -19.8346 -19.8336 -19.8336 -19.7780 -19.7779 -19.7548 -19.7547
   -19.7230 -19.7229 -19.7152 -19.7151 -19.6686 -19.6685 -19.6338 -19.6337
   -19.6030 -19.6029 -19.5871 -19.5869 -19.5851 -19.5850 -19.5468 -19.5467
   -19.5163 -19.5161 -19.4236 -19.4235 -19.4132 -19.4131 -19.3871 -19.3869
   -19.3722 -19.3720 -19.3683 -19.3681 -19.3615 -19.3614 -19.3412 -19.3412
   -19.3310 -19.3309 -19.3241 -19.3240 -19.3213 -19.3212 -19.3191 -19.3191
   -19.3177 -19.3175 -19.2889 -19.2888 -19.2813 -19.2811 -19.2620 -19.2618
   -19.2599 -19.2598 -19.2447 -19.2446 -19.2430 -19.2429 -19.2215 -19.2213
   -19.2169 -19.2168 -19.2104 -19.2103 -19.1957 -19.1955 -19.1762 -19.1760
   -19.1758 -19.1757 -19.1415 -19.1415 -19.1162 -19.1160 -19.0976 -19.0975
    16.4488  16.4491  17.6119  17.6121  17.6942  17.6944  17.7285  17.7287
    17.8324  17.8324  17.9302  17.9302  17.9855  17.9857  18.0717  18.0719
    18.0730  18.0730  18.1124  18.1125  18.2048  18.2050  18.2568  18.2569
    18.2734  18.2735  18.4390  18.4392  18.6225  18.6227  18.6505  18.6506
    18.9370  18.9370  18.9583  18.9584  19.0135  19.0137  19.0997  19.0998
    19.3578  19.3578  19.3888  19.3890  19.4202  19.4203  19.4592  19.4592
    19.5311  19.5311  19.5921  19.5922  19.6052  19.6053  20.0795  20.0797
    20.1492  20.1493  20.1507  20.1508  20.2079  20.2081  20.2752  20.2752
    20.4191  20.4193  20.4461  20.4462  20.6183  20.6185  20.6574  20.6576
    20.7271  20.7271  20.7727  20.7728  20.8267  20.8268  21.0129  21.0129
    21.1232  21.1233  21.2190  21.2191  21.2979  21.2980  21.3057  21.3058
    21.3360  21.3361  21.3686  21.3687  21.8043  21.8043  21.8475  21.8475
    21.8799  21.8799  21.9297  21.9298  22.0951  22.0952  22.0992  22.0993
    22.3612  22.3613  22.5416  22.5416  22.5611  22.5613  22.6160  22.6160
    22.6186  22.6188  22.6825  22.6826  22.7471  22.7472  22.8565  22.8566
    23.0554  23.0556  23.0780  23.0781  23.1850  23.1852  23.4551  23.4552
    23.4912  23.4914  23.4917  23.4919  23.5615  23.5617  24.0206  24.0208
    24.1065  24.1066  24.1179  24.1180  24.3415  24.3415  24.3967  24.3968
    24.5246  24.5248  24.5789  24.5790  24.5795  24.5796  24.6011  24.6013
    24.6017  24.6017  24.6093  24.6094  24.6222  24.6223  24.8139  24.8139
    24.9560  24.9561  25.3870  25.3870  25.4376  25.4377  25.4428  25.4430
    25.6814  25.6816  25.9130  25.9132  25.9227  25.9227  26.4606  26.4608
    27.5344  27.5346  27.9629

          k = 0.0557 0.2786 0.2786 ( 29898 PWs)   bands (ev):

   -49.6475 -49.5948 -49.5948 -49.5551 -49.5529 -49.5346 -49.5248 -49.5248
   -49.5114 -49.5114 -49.5101 -49.5021 -49.5021 -49.5016 -49.4857 -49.4857
   -49.4851 -49.4851 -49.4761 -49.4760 -49.4712 -49.4712 -49.4575 -49.4489
   -49.4489 -49.4483 -49.4483 -49.4460 -49.4460 -49.4415 -49.4415 -49.4393
   -20.0428 -20.0428 -20.0055 -19.9843 -19.9716 -19.9632 -19.9632 -19.9017
   -19.9017 -19.8977 -19.8977 -19.8590 -19.8590 -19.8359 -19.8359 -19.8312
   -19.8312 -19.8287 -19.8287 -19.8207 -19.8207 -19.7928 -19.7927 -19.7925
   -19.7773 -19.7773 -19.6937 -19.6854 -19.6573 -19.6573 -19.6371 -19.6371
   -19.6284 -19.6216 -19.5869 -19.5869 -19.5129 -19.5129 -19.5122 -19.4836
   -19.4836 -19.4781 -19.4781 -19.4439 -19.4439 -19.4216 -19.4216 -19.4093
   -19.4093 -19.4033 -19.4029 -19.4029 -19.3885 -19.3885 -19.3664 -19.3664
   -19.3482 -19.3482 -19.3462 -19.3462 -19.3099 -19.3099 -19.3077 -19.3077
   -19.2930 -19.2930 -19.2915 -19.2828 -19.2611 -19.2611 -19.2597 -19.2527
   -19.2527 -19.2498 -19.2495 -19.2495 -19.2219 -19.2219 -19.2201 -19.2201
   -19.2174 -19.2097 -19.1959 -19.1939 -19.1939 -19.1917 -19.1838 -19.1837
   -19.1785 -19.1666 -19.1666 -19.1362 -19.1362 -19.1238 -19.0896 -19.0640
    16.0537  17.3256  17.3256  17.4111  17.4235  17.4235  17.5631  17.6480
    17.8149  17.8149  17.8492  17.8492  17.9561  18.0406  18.0961  18.0961
    18.1980  18.2310  18.2310  18.2623  18.2787  18.2787  18.3478  18.3478
    18.4143  18.4143  18.4736  18.4736  18.6778  18.7705  18.7705  18.7891
    18.7891  18.8122  18.8122  18.9033  18.9033  19.0042  19.0042  19.0852
    19.0852  19.2005  19.3495  19.3495  19.4217  19.4221  19.4221  19.6614
    19.6615  19.6760  19.6760  19.7226  19.7227  19.7300  19.7866  20.1297
    20.1297  20.2370  20.2370  20.3161  20.3161  20.3922  20.3922  20.4376
    20.4377  20.4495  20.4495  20.5283  20.5423  20.6176  20.6176  20.7073
    20.7080  20.7804  20.7804  20.9357  20.9357  20.9374  20.9933  21.0171
    21.0288  21.0689  21.0689  21.0831  21.1168  21.1319  21.1319  21.1347
    21.2986  21.2986  21.4216  21.4216  21.6562  21.6562  21.7962  21.7962
    21.8531  21.8531  21.9647  21.9648  21.9765  22.0516  22.0718  22.0719
    22.1114  22.1114  22.2886  22.3136  22.4578  22.4761  22.4761  22.4850
    22.4850  22.6132  22.6769  22.8115  22.8115  22.9632  22.9802  22.9802
    23.2681  23.2722  23.2722  23.4031  23.4031  23.4291  23.4292  23.5351
    23.5398  23.5517  23.5517  23.6405  23.6405  23.7436  23.7436  23.7510
    23.7510  23.8059  23.8059  24.0723  24.0998  24.0998  24.1554  24.2488
    24.2488  24.2553  24.2751  24.2751  24.4337  24.4880  24.6640  24.6640
    24.8706  24.9993  24.9993  25.0180  25.0265  25.0265  25.0341  25.0587
    25.2047  25.2048  25.2062  25.2062  25.2476  25.2476  25.2558  25.2558
    25.3567  25.7148  25.8186  25.8186  26.3405  26.3405  27.4000  27.4000
    27.6650  27.7085  27.7085

          k = 0.0557 0.2786 0.3901 ( 29895 PWs)   bands (ev):

   -49.6380 -49.6113 -49.5876 -49.5675 -49.5478 -49.5335 -49.5304 -49.5221
   -49.5186 -49.5147 -49.5096 -49.5046 -49.4992 -49.4908 -49.4855 -49.4823
   -49.4807 -49.4777 -49.4737 -49.4733 -49.4674 -49.4640 -49.4585 -49.4533
   -49.4531 -49.4525 -49.4525 -49.4483 -49.4469 -49.4444 -49.4408 -49.4397
   -20.0210 -20.0181 -19.9683 -19.9484 -19.9472 -19.9446 -19.9430 -19.9427
   -19.9304 -19.8933 -19.8932 -19.8918 -19.8782 -19.8765 -19.8592 -19.8572
   -19.8564 -19.8434 -19.8392 -19.8364 -19.8158 -19.8124 -19.7949 -19.7890
   -19.7824 -19.7517 -19.7203 -19.7190 -19.6881 -19.6630 -19.6181 -19.6081
   -19.5974 -19.5760 -19.5667 -19.5459 -19.5445 -19.5427 -19.5209 -19.5115
   -19.4700 -19.4699 -19.4515 -19.4378 -19.4294 -19.4264 -19.4084 -19.4054
   -19.3950 -19.3911 -19.3881 -19.3778 -19.3731 -19.3718 -19.3577 -19.3516
   -19.3416 -19.3402 -19.3395 -19.3384 -19.3307 -19.3178 -19.3069 -19.3034
   -19.2997 -19.2956 -19.2812 -19.2806 -19.2806 -19.2728 -19.2720 -19.2706
   -19.2579 -19.2475 -19.2451 -19.2390 -19.2350 -19.2340 -19.2322 -19.2314
   -19.2284 -19.2120 -19.2069 -19.2032 -19.2022 -19.1990 -19.1973 -19.1848
   -19.1712 -19.1710 -19.1544 -19.1233 -19.1161 -19.1089 -19.1066 -19.0717
    16.2912  16.9465  17.5047  17.5551  17.5680  17.6067  17.6682  17.7672
    17.9294  17.9573  17.9763  17.9865  17.9958  18.0088  18.0300  18.0303
    18.0838  18.0911  18.1528  18.1590  18.2052  18.2328  18.2723  18.2895
    18.2955  18.3465  18.4877  18.5014  18.5141  18.5157  18.5608  18.6237
    18.6979  18.8015  18.8616  18.9109  18.9310  18.9310  18.9686  18.9712
    19.0688  19.1611  19.1829  19.2668  19.3065  19.4248  19.4353  19.4666
    19.5505  19.6324  19.7518  19.7616  19.7882  19.8051  19.9735  20.0354
    20.0603  20.0817  20.1788  20.3195  20.3921  20.3921  20.4921  20.5021
    20.5307  20.5516  20.5522  20.6354  20.6883  20.6923  20.6966  20.8264
    20.8271  20.9017  20.9181  20.9353  20.9490  20.9651  21.0478  21.0988
    21.1410  21.1475  21.1825  21.2000  21.2128  21.2845  21.3155  21.3227
    21.3267  21.3977  21.4315  21.4567  21.5335  21.5981  21.6542  21.7421
    21.8051  21.8100  21.8445  21.8745  21.9023  21.9281  21.9525  21.9704
    22.0802  22.0914  22.1136  22.1663  22.2853  22.3189  22.3329  22.3951
    22.4988  22.5060  22.6727  22.6973  22.8243  22.8600  22.9499  23.0271
    23.1735  23.2034  23.2142  23.2663  23.3379  23.4261  23.4899  23.4988
    23.5804  23.6184  23.6669  23.7716  23.7815  23.7970  23.8697  23.9331
    23.9836  23.9850  24.1432  24.1442  24.1455  24.1932  24.3752  24.4220
    24.4413  24.4577  24.4967  24.5031  24.5177  24.5250  24.5265  24.5679
    24.6421  24.7938  24.8626  24.8804  24.8814  24.8937  24.9132  24.9180
    24.9252  24.9939  25.1996  25.2119  25.2173  25.2311  25.2843  25.3235
    25.6524  25.7731  25.7911  25.8121  25.8587  26.1836  27.0611  27.0813
    27.8406  28.0179  28.3384

          k = 0.0557 0.2786-0.5015 ( 29888 PWs)   bands (ev):

   -49.6259 -49.6257 -49.5785 -49.5783 -49.5414 -49.5412 -49.5251 -49.5249
   -49.5188 -49.5186 -49.5074 -49.5072 -49.4954 -49.4952 -49.4799 -49.4797
   -49.4770 -49.4768 -49.4709 -49.4707 -49.4624 -49.4622 -49.4599 -49.4597
   -49.4578 -49.4576 -49.4482 -49.4480 -49.4478 -49.4476 -49.4403 -49.4401
   -19.9891 -19.9890 -19.9842 -19.9842 -19.9244 -19.9243 -19.9207 -19.9205
   -19.9158 -19.9156 -19.8949 -19.8948 -19.8879 -19.8877 -19.8802 -19.8802
   -19.8778 -19.8778 -19.8512 -19.8511 -19.8013 -19.8012 -19.7935 -19.7933
   -19.7580 -19.7579 -19.7137 -19.7137 -19.7076 -19.7075 -19.5802 -19.5801
   -19.5777 -19.5777 -19.5588 -19.5587 -19.5415 -19.5413 -19.5225 -19.5224
   -19.5034 -19.5032 -19.4073 -19.4071 -19.4042 -19.4041 -19.4021 -19.4019
   -19.3922 -19.3921 -19.3901 -19.3901 -19.3772 -19.3771 -19.3676 -19.3674
   -19.3379 -19.3378 -19.3287 -19.3287 -19.3122 -19.3121 -19.3107 -19.3106
   -19.2928 -19.2926 -19.2866 -19.2866 -19.2827 -19.2826 -19.2698 -19.2697
   -19.2561 -19.2559 -19.2407 -19.2405 -19.2392 -19.2390 -19.2390 -19.2389
   -19.2283 -19.2281 -19.2162 -19.2161 -19.2018 -19.2016 -19.1823 -19.1823
   -19.1775 -19.1773 -19.1285 -19.1283 -19.1161 -19.1160 -19.0870 -19.0869
    16.5937  16.5940  17.7290  17.7292  17.7430  17.7432  17.7457  17.7458
    17.8247  17.8247  17.8349  17.8351  17.9360  17.9360  18.0989  18.0991
    18.1394  18.1395  18.2213  18.2213  18.2408  18.2409  18.2685  18.2687
    18.2838  18.2839  18.3893  18.3893  18.4109  18.4110  18.5301  18.5303
    18.7186  18.7187  18.8228  18.8229  18.9347  18.9347  19.0617  19.0618
    19.0692  19.0693  19.2068  19.2069  19.3166  19.3168  19.3499  19.3500
    19.7200  19.7200  19.7935  19.7936  19.8919  19.8920  19.8927  19.8928
    19.9275  19.9277  20.2013  20.2014  20.4502  20.4504  20.5670  20.5672
    20.5916  20.5916  20.6722  20.6724  20.6978  20.6979  20.7317  20.7317
    20.8172  20.8172  20.9756  20.9756  21.0873  21.0874  21.1782  21.1783
    21.1820  21.1820  21.2587  21.2588  21.2971  21.2972  21.3136  21.3138
    21.4856  21.4857  21.5239  21.5239  21.5414  21.5415  21.5451  21.5451
    21.7288  21.7289  21.7353  21.7354  21.8305  21.8306  21.8383  21.8384
    22.0532  22.0533  22.2842  22.2842  22.4304  22.4305  22.4590  22.4590
    22.4923  22.4924  22.5343  22.5344  22.6463  22.6465  22.8416  22.8417
    23.0336  23.0338  23.3549  23.3550  23.3946  23.3948  23.4600  23.4602
    23.6039  23.6041  23.8606  23.8608  23.9005  23.9007  24.0190  24.0191
    24.1150  24.1152  24.1890  24.1890  24.2734  24.2734  24.2746  24.2746
    24.5307  24.5307  24.5312  24.5314  24.6381  24.6382  24.7060  24.7060
    24.7063  24.7064  24.7279  24.7279  24.7481  24.7482  24.7500  24.7500
    24.8543  24.8543  25.2197  25.2199  25.2413  25.2414  25.2880  25.2881
    25.4405  25.4407  25.9883  25.9885  26.3918  26.3920  26.4748  26.4748
    28.2075  28.2076  28.5370

          k = 0.0557 0.3901 0.3901 ( 29927 PWs)   bands (ev):

   -49.6290 -49.6034 -49.6034 -49.5811 -49.5432 -49.5301 -49.5301 -49.5267
   -49.5205 -49.5161 -49.5161 -49.5089 -49.4833 -49.4833 -49.4771 -49.4771
   -49.4765 -49.4765 -49.4698 -49.4698 -49.4673 -49.4673 -49.4575 -49.4575
   -49.4570 -49.4570 -49.4548 -49.4548 -49.4488 -49.4429 -49.4429 -49.4406
   -20.0009 -20.0009 -19.9369 -19.9369 -19.9348 -19.9348 -19.9304 -19.9233
   -19.9177 -19.9177 -19.9000 -19.8906 -19.8906 -19.8808 -19.8808 -19.8561
   -19.8561 -19.8418 -19.8418 -19.8403 -19.8402 -19.8393 -19.8393 -19.8009
   -19.8009 -19.7990 -19.7591 -19.7132 -19.7075 -19.6529 -19.6529 -19.5797
   -19.5587 -19.5587 -19.5234 -19.5234 -19.5177 -19.4854 -19.4853 -19.4701
   -19.4701 -19.4690 -19.4689 -19.4520 -19.4520 -19.4031 -19.4031 -19.4021
   -19.4021 -19.3877 -19.3877 -19.3800 -19.3786 -19.3786 -19.3751 -19.3751
   -19.3615 -19.3615 -19.3302 -19.3302 -19.3219 -19.3219 -19.3181 -19.3091
   -19.3091 -19.2843 -19.2843 -19.2804 -19.2724 -19.2724 -19.2724 -19.2724
   -19.2544 -19.2493 -19.2493 -19.2477 -19.2477 -19.2409 -19.2328 -19.2257
   -19.2197 -19.2140 -19.2100 -19.2080 -19.2079 -19.2009 -19.1960 -19.1780
   -19.1780 -19.1731 -19.1731 -19.1240 -19.1027 -19.0995 -19.0995 -19.0730
    16.5170  17.1409  17.1409  17.6727  17.6744  17.7383  17.7538  17.7538
    17.8495  18.0112  18.0112  18.0410  18.0485  18.0485  18.1213  18.1213
    18.1328  18.1328  18.1413  18.1413  18.1804  18.1842  18.1842  18.2484
    18.2485  18.3165  18.3677  18.4326  18.4326  18.6378  18.6378  18.6391
    18.6392  18.6447  18.6447  18.6489  18.6490  18.8902  18.8902  18.8987
    18.8987  18.9569  18.9569  19.2079  19.2079  19.3445  19.5460  19.5460
    19.5504  19.5504  19.7274  19.8810  19.8810  19.9010  19.9207  19.9787
    19.9787  20.3080  20.3222  20.3222  20.4836  20.5955  20.5955  20.7008
    20.7236  20.7236  20.7310  20.7310  20.7331  20.7331  20.7724  20.7725
    20.8452  20.8892  21.0611  21.0611  21.1563  21.1563  21.1635  21.2151
    21.2163  21.2356  21.2408  21.2798  21.3317  21.3317  21.3704  21.3704
    21.5089  21.5089  21.5247  21.5247  21.5362  21.5567  21.5567  21.6177
    21.6835  21.6835  21.7217  21.7217  21.7363  21.7488  21.7966  21.7966
    21.8202  21.8202  21.9548  22.0256  22.0256  22.0573  22.0573  22.3391
    22.4919  22.4919  22.5074  22.5074  22.6000  22.6000  22.6640  22.7475
    23.0633  23.3974  23.4452  23.4452  23.4699  23.4699  23.7404  23.7405
    23.7504  23.7504  23.8515  23.8515  23.9123  23.9123  23.9827  24.0225
    24.1690  24.1690  24.2779  24.3045  24.3045  24.3222  24.3222  24.3319
    24.3319  24.4199  24.5289  24.6289  24.6665  24.6880  24.6880  24.6911
    24.6911  24.7368  24.7989  24.8570  24.8570  24.9047  24.9048  24.9199
    24.9199  24.9465  24.9504  24.9504  24.9676  24.9676  25.1411  25.1685
    25.1685  25.5008  25.6704  25.6705  26.4422  26.4422  27.7375  27.7375
    27.8011  27.8011  28.5187

          k = 0.0557 0.3901-0.5015 ( 29928 PWs)   bands (ev):

   -49.6174 -49.6172 -49.5933 -49.5931 -49.5373 -49.5371 -49.5258 -49.5256
   -49.5219 -49.5217 -49.5129 -49.5127 -49.4806 -49.4804 -49.4730 -49.4728
   -49.4716 -49.4714 -49.4694 -49.4692 -49.4651 -49.4649 -49.4629 -49.4627
   -49.4618 -49.4616 -49.4563 -49.4562 -49.4457 -49.4455 -49.4417 -49.4415
   -19.9735 -19.9734 -19.9717 -19.9716 -19.9172 -19.9172 -19.9172 -19.9171
   -19.9012 -19.9010 -19.8926 -19.8925 -19.8868 -19.8867 -19.8826 -19.8824
   -19.8645 -19.8644 -19.8517 -19.8516 -19.8416 -19.8414 -19.8285 -19.8284
   -19.8003 -19.8002 -19.7547 -19.7546 -19.6861 -19.6861 -19.6162 -19.6162
   -19.5211 -19.5210 -19.5120 -19.5120 -19.4990 -19.4989 -19.4848 -19.4846
   -19.4594 -19.4594 -19.4334 -19.4332 -19.4293 -19.4291 -19.4274 -19.4274
   -19.4192 -19.4192 -19.3837 -19.3835 -19.3688 -19.3688 -19.3615 -19.3613
   -19.3459 -19.3457 -19.3392 -19.3392 -19.3377 -19.3377 -19.3198 -19.3196
   -19.2988 -19.2987 -19.2981 -19.2980 -19.2653 -19.2652 -19.2615 -19.2615
   -19.2613 -19.2613 -19.2535 -19.2535 -19.2291 -19.2289 -19.2246 -19.2245
   -19.2207 -19.2206 -19.2153 -19.2151 -19.1972 -19.1970 -19.1920 -19.1920
   -19.1871 -19.1869 -19.1465 -19.1463 -19.0972 -19.0972 -19.0825 -19.0825
    16.8046  16.8049  17.3873  17.3875  17.8379  17.8380  17.8535  17.8535
    17.9320  17.9322  17.9746  17.9746  17.9860  17.9862  18.0153  18.0154
    18.1498  18.1498  18.1609  18.1610  18.2675  18.2677  18.3619  18.3621
    18.3633  18.3634  18.3986  18.3986  18.4029  18.4029  18.4392  18.4394
    18.6177  18.6178  18.6433  18.6434  18.7563  18.7565  18.7985  18.7986
    18.8220  18.8220  19.1133  19.1133  19.3373  19.3374  19.3523  19.3524
    19.6955  19.6957  19.7063  19.7065  19.9584  19.9585  20.0462  20.0463
    20.1661  20.1662  20.2532  20.2532  20.4392  20.4394  20.6951  20.6952
    20.7527  20.7528  20.8053  20.8053  20.9027  20.9027  20.9547  20.9547
    21.0662  21.0663  21.0886  21.0886  21.1166  21.1166  21.2765  21.2765
    21.2779  21.2780  21.3015  21.3016  21.3255  21.3256  21.3569  21.3569
    21.4231  21.4231  21.4624  21.4624  21.4806  21.4807  21.5077  21.5078
    21.6131  21.6132  21.6200  21.6201  21.7671  21.7672  21.7920  21.7921
    21.7988  21.7989  21.9650  21.9651  22.2134  22.2136  22.2160  22.2161
    22.2601  22.2602  22.2799  22.2800  22.4337  22.4339  22.6171  22.6173
    23.2680  23.2682  23.5392  23.5393  23.6528  23.6529  23.6980  23.6981
    23.7266  23.7268  23.9683  23.9684  24.0439  24.0440  24.0643  24.0644
    24.1416  24.1416  24.2247  24.2248  24.3407  24.3407  24.4829  24.4831
    24.5487  24.5489  24.6408  24.6409  24.7096  24.7096  24.7119  24.7119
    24.7295  24.7296  24.7972  24.7973  24.8003  24.8003  24.8362  24.8362
    24.8408  24.8408  24.9221  24.9223  24.9767  24.9769  25.0365  25.0366
    25.1550  25.1550  25.5184  25.5185  27.1017  27.1017  27.1019  27.1021
    28.4576  28.4577  28.5261

          k = 0.0557-0.5015-0.5015 ( 29908 PWs)   bands (ev):

   -49.6065 -49.6063 -49.6063 -49.6061 -49.5321 -49.5319 -49.5319 -49.5317
   -49.5179 -49.5177 -49.5177 -49.5175 -49.4675 -49.4675 -49.4673 -49.4673
   -49.4673 -49.4673 -49.4672 -49.4671 -49.4670 -49.4669 -49.4668 -49.4668
   -49.4668 -49.4668 -49.4666 -49.4666 -49.4436 -49.4434 -49.4434 -49.4432
   -19.9490 -19.9490 -19.9490 -19.9490 -19.9490 -19.9490 -19.9489 -19.9489
   -19.8749 -19.8749 -19.8748 -19.8748 -19.8748 -19.8748 -19.8746 -19.8746
   -19.8631 -19.8629 -19.8629 -19.8627 -19.8446 -19.8445 -19.8445 -19.8444
   -19.8041 -19.8040 -19.8040 -19.8039 -19.6522 -19.6522 -19.6522 -19.6522
   -19.4675 -19.4675 -19.4675 -19.4675 -19.4675 -19.4675 -19.4675 -19.4675
   -19.4613 -19.4613 -19.4611 -19.4611 -19.4611 -19.4611 -19.4609 -19.4609
   -19.3976 -19.3975 -19.3975 -19.3975 -19.3541 -19.3541 -19.3539 -19.3539
   -19.3539 -19.3539 -19.3538 -19.3538 -19.3511 -19.3511 -19.3511 -19.3511
   -19.2816 -19.2816 -19.2815 -19.2815 -19.2815 -19.2814 -19.2813 -19.2813
   -19.2450 -19.2449 -19.2449 -19.2448 -19.2305 -19.2305 -19.2305 -19.2305
   -19.2073 -19.2073 -19.2073 -19.2072 -19.2025 -19.2024 -19.2024 -19.2023
   -19.1698 -19.1696 -19.1696 -19.1694 -19.0858 -19.0858 -19.0858 -19.0858
    17.0731  17.0734  17.0734  17.0736  17.9178  17.9179  17.9179  17.9179
    17.9760  17.9761  17.9761  17.9762  18.0460  18.0460  18.0460  18.0460
    18.1689  18.1689  18.1691  18.1691  18.1691  18.1691  18.1693  18.1693
    18.4884  18.4884  18.4885  18.4886  18.4886  18.4886  18.4887  18.4887
    18.5973  18.5973  18.5974  18.5974  18.5974  18.5974  18.5974  18.5974
    18.8591  18.8592  18.8592  18.8592  19.5053  19.5054  19.5055  19.5055
    19.5055  19.5056  19.5057  19.5057  20.0860  20.0860  20.0860  20.0860
    20.3212  20.3213  20.3213  20.3214  20.6064  20.6066  20.6066  20.6067
    20.8323  20.8324  20.8324  20.8324  20.8459  20.8460  20.8460  20.8460
    21.2019  21.2019  21.2019  21.2019  21.2019  21.2019  21.2019  21.2019
    21.3040  21.3041  21.3041  21.3042  21.4420  21.4421  21.4421  21.4422
    21.4570  21.4571  21.4571  21.4571  21.5999  21.6000  21.6000  21.6000
    21.6189  21.6189  21.6189  21.6189  21.6190  21.6190  21.6190  21.6190
    21.8926  21.8926  21.8927  21.8927  22.0163  22.0163  22.0164  22.0164
    22.0164  22.0164  22.0165  22.0165  22.5249  22.5250  22.5251  22.5252
    23.5096  23.5097  23.5097  23.5099  23.7155  23.7156  23.7156  23.7157
    23.9275  23.9276  23.9276  23.9277  23.9277  23.9277  23.9278  23.9278
    24.4532  24.4533  24.4533  24.4534  24.5818  24.5818  24.5819  24.5819
    24.5820  24.5820  24.5821  24.5821  24.5838  24.5839  24.5839  24.5840
    24.8222  24.8223  24.8223  24.8224  24.8507  24.8507  24.8508  24.8508
    24.8508  24.8508  24.8508  24.8508  24.8616  24.8616  24.8617  24.8617
    25.1195  25.1196  25.1197  25.1197  27.7951  27.7951  27.7952  27.7952
    27.7952  27.7953  27.7953

          k = 0.1672 0.1672 0.1672 ( 29863 PWs)   bands (ev):

   -49.6573 -49.5791 -49.5791 -49.5791 -49.5288 -49.5288 -49.5287 -49.5215
   -49.5214 -49.5214 -49.5071 -49.4921 -49.4921 -49.4920 -49.4920 -49.4920
   -49.4920 -49.4915 -49.4915 -49.4914 -49.4707 -49.4707 -49.4707 -49.4425
   -49.4425 -49.4424 -49.4420 -49.4420 -49.4419 -49.4419 -49.4419 -49.4419
   -20.0610 -20.0610 -20.0610 -20.0237 -19.9933 -19.9933 -19.9933 -19.8551
   -19.8551 -19.8551 -19.8358 -19.8358 -19.8358 -19.8358 -19.8358 -19.8358
   -19.8149 -19.8149 -19.8149 -19.8149 -19.8149 -19.8149 -19.7472 -19.7472
   -19.7472 -19.7056 -19.7056 -19.7056 -19.6565 -19.6565 -19.6565 -19.6565
   -19.6565 -19.6565 -19.5713 -19.5713 -19.5713 -19.4807 -19.4807 -19.4807
   -19.4572 -19.4572 -19.4572 -19.4572 -19.4572 -19.4572 -19.4538 -19.4538
   -19.4538 -19.4140 -19.4140 -19.4140 -19.4087 -19.4087 -19.4087 -19.4087
   -19.4087 -19.4087 -19.3427 -19.3427 -19.3427 -19.2982 -19.2982 -19.2982
   -19.2873 -19.2873 -19.2873 -19.2451 -19.2451 -19.2451 -19.2376 -19.2376
   -19.2376 -19.2206 -19.2206 -19.2206 -19.2206 -19.2206 -19.2206 -19.2099
   -19.2099 -19.2099 -19.1935 -19.1935 -19.1935 -19.1871 -19.1871 -19.1871
   -19.1846 -19.1846 -19.1508 -19.1508 -19.1508 -19.1266 -19.0639 -19.0639
    15.8061  17.2532  17.2532  17.2532  17.4343  17.5904  17.5904  17.5904
    17.6244  17.6244  17.6245  17.7189  17.7189  17.7189  18.1097  18.1097
    18.1097  18.4727  18.4728  18.4728  18.4728  18.4728  18.4728  18.5252
    18.5252  18.5252  18.6703  18.6703  18.6704  18.9052  18.9052  18.9053
    18.9414  18.9414  18.9414  18.9414  18.9414  18.9415  19.2745  19.2746
    19.2746  19.2746  19.2746  19.2746  19.4484  19.4484  19.4484  19.7942
    19.7942  19.7942  19.9383  19.9384  19.9384  19.9384  19.9384  19.9384
    20.0942  20.0942  20.0942  20.1782  20.1782  20.1782  20.1782  20.1782
    20.1782  20.4708  20.4708  20.4708  20.6681  20.6681  20.6681  20.6758
    20.6991  20.6991  20.6991  20.6991  20.6991  20.6991  20.7236  20.7236
    20.7236  20.7840  20.7840  20.9224  20.9224  20.9224  20.9420  20.9420
    21.4760  21.4760  21.4760  21.7623  21.7623  21.7623  21.8334  21.8334
    21.8334  22.0097  22.0098  22.0098  22.2081  22.2081  22.2081  22.2645
    22.2645  22.2645  22.2645  22.2645  22.2645  22.6845  22.6845  22.6846
    22.8502  22.8502  22.8502  22.9738  22.9738  22.9738  23.0086  23.0086
    23.0086  23.0730  23.0730  23.0730  23.0730  23.0730  23.0730  23.1653
    23.1653  23.4786  23.6539  23.6540  23.6540  23.6540  23.6540  23.6540
    23.9172  23.9172  23.9172  23.9276  23.9276  23.9276  24.0241  24.0241
    24.0241  24.3321  24.3321  24.3321  24.5088  24.5088  24.5088  24.7124
    24.7124  24.7124  24.7982  24.7982  25.1036  25.1036  25.1036  25.3320
    25.3320  25.3320  25.3320  25.3321  25.3321  25.4489  25.4489  25.4489
    25.9382  25.9382  25.9382  26.4194  26.4194  26.4194  27.5563  27.5563
    27.5563  27.5563  27.5563

          k = 0.1672 0.1672 0.2786 ( 29896 PWs)   bands (ev):

   -49.6508 -49.5972 -49.5748 -49.5748 -49.5404 -49.5404 -49.5269 -49.5190
   -49.5190 -49.5121 -49.5032 -49.4988 -49.4988 -49.4920 -49.4919 -49.4916
   -49.4915 -49.4867 -49.4804 -49.4804 -49.4724 -49.4640 -49.4640 -49.4491
   -49.4462 -49.4462 -49.4444 -49.4444 -49.4425 -49.4424 -49.4420 -49.4419
   -20.0501 -20.0394 -20.0394 -19.9898 -19.9780 -19.9780 -19.9697 -19.9049
   -19.8777 -19.8777 -19.8547 -19.8547 -19.8502 -19.8502 -19.8499 -19.8499
   -19.8308 -19.8308 -19.8183 -19.8183 -19.8161 -19.8161 -19.7924 -19.7740
   -19.7238 -19.7238 -19.7049 -19.7049 -19.6642 -19.6642 -19.6308 -19.6307
   -19.6151 -19.6151 -19.6049 -19.6049 -19.5170 -19.5170 -19.5105 -19.4953
   -19.4952 -19.4762 -19.4762 -19.4406 -19.4200 -19.4200 -19.4150 -19.4150
   -19.4094 -19.4094 -19.4079 -19.4078 -19.4059 -19.4034 -19.3881 -19.3881
   -19.3824 -19.3824 -19.3340 -19.3168 -19.3092 -19.3092 -19.3074 -19.3073
   -19.3073 -19.2776 -19.2773 -19.2773 -19.2654 -19.2654 -19.2547 -19.2547
   -19.2541 -19.2541 -19.2421 -19.2246 -19.2245 -19.2203 -19.2203 -19.2180
   -19.2151 -19.2151 -19.2038 -19.2038 -19.1906 -19.1768 -19.1729 -19.1729
   -19.1640 -19.1636 -19.1536 -19.1532 -19.1413 -19.1413 -19.0749 -19.0675
    15.9713  17.2565  17.3535  17.3674  17.3674  17.4906  17.6952  17.6952
    17.7198  17.7198  17.7439  17.7939  17.8506  17.8506  18.0102  18.1999
    18.2000  18.2408  18.2461  18.2461  18.3589  18.3590  18.4397  18.5265
    18.5265  18.5857  18.5857  18.6049  18.6049  18.6927  18.7964  18.7964
    18.8110  18.8110  18.8228  18.8228  18.9144  18.9144  19.0299  19.0299
    19.2859  19.2859  19.3094  19.3094  19.5222  19.5222  19.6554  19.6554
    19.7168  19.7168  19.7175  19.7707  19.8103  19.8103  20.0016  20.0016
    20.0113  20.0114  20.1849  20.1849  20.1971  20.1971  20.3079  20.3928
    20.3928  20.4975  20.5813  20.5840  20.5840  20.6336  20.6336  20.7035
    20.7035  20.7140  20.7140  20.8112  20.8272  20.8301  20.8301  20.8354
    21.0092  21.0236  21.0356  21.0356  21.0499  21.0621  21.2510  21.2510
    21.3055  21.3055  21.5025  21.5043  21.5043  21.5096  21.7410  21.7741
    21.7741  21.9483  21.9483  21.9660  21.9788  21.9788  22.2433  22.3732
    22.3732  22.4110  22.4110  22.4875  22.5148  22.5148  22.6062  22.6062
    22.6336  22.7652  22.7652  22.8429  22.8429  22.8647  22.8648  22.9845
    23.0065  23.0065  23.0356  23.0719  23.0719  23.2034  23.2268  23.3249
    23.3444  23.3444  23.7048  23.7048  23.7381  23.7660  23.7660  23.9918
    23.9918  23.9967  23.9967  24.0055  24.0055  24.0544  24.1415  24.1415
    24.1704  24.1704  24.1836  24.5345  24.5345  24.5425  24.5532  24.6265
    24.7065  24.8016  24.8016  24.9260  25.0430  25.0687  25.0687  25.1442
    25.1442  25.1462  25.1462  25.3379  25.3379  25.3536  25.4205  25.4205
    25.4529  25.4529  25.8219  26.6083  26.6083  27.0124  27.0125  27.1544
    27.3758  27.4593  27.4593

          k = 0.1672 0.1672 0.3901 ( 29905 PWs)   bands (ev):

   -49.6411 -49.6140 -49.5686 -49.5686 -49.5511 -49.5511 -49.5242 -49.5167
   -49.5153 -49.5153 -49.5051 -49.5051 -49.4920 -49.4919 -49.4917 -49.4916
   -49.4863 -49.4822 -49.4750 -49.4697 -49.4697 -49.4589 -49.4579 -49.4579
   -49.4523 -49.4523 -49.4479 -49.4479 -49.4424 -49.4423 -49.4421 -49.4420
   -20.0279 -20.0082 -20.0082 -19.9556 -19.9556 -19.9533 -19.9471 -19.9351
   -19.9242 -19.9242 -19.8928 -19.8928 -19.8556 -19.8556 -19.8448 -19.8447
   -19.8447 -19.8412 -19.8412 -19.8361 -19.8213 -19.8213 -19.7965 -19.7965
   -19.7470 -19.7470 -19.6646 -19.6646 -19.6585 -19.6585 -19.6334 -19.6334
   -19.6003 -19.6003 -19.5746 -19.5746 -19.5617 -19.5617 -19.5320 -19.5320
   -19.5041 -19.5041 -19.4461 -19.4212 -19.4071 -19.4071 -19.4069 -19.4069
   -19.3879 -19.3855 -19.3855 -19.3682 -19.3682 -19.3671 -19.3596 -19.3596
   -19.3515 -19.3515 -19.3439 -19.3349 -19.3289 -19.3289 -19.3271 -19.2908
   -19.2908 -19.2900 -19.2900 -19.2842 -19.2842 -19.2749 -19.2749 -19.2693
   -19.2621 -19.2621 -19.2377 -19.2337 -19.2337 -19.2255 -19.2223 -19.2223
   -19.2198 -19.2198 -19.2177 -19.2177 -19.2123 -19.2078 -19.1695 -19.1578
   -19.1568 -19.1568 -19.1394 -19.1394 -19.1360 -19.1230 -19.0909 -19.0790
    16.2120  16.8748  17.4952  17.5337  17.5337  17.6018  17.8478  17.8509
    17.8509  17.8528  17.8528  17.9053  17.9414  17.9818  17.9902  17.9902
    18.0434  18.0434  18.1850  18.1851  18.2315  18.3084  18.3084  18.3263
    18.3264  18.4339  18.5843  18.5843  18.5945  18.5945  18.6472  18.6472
    18.7433  18.7433  18.7452  18.7452  18.9833  18.9833  19.0449  19.0449
    19.2996  19.2996  19.3748  19.3748  19.4250  19.4250  19.5100  19.5100
    19.5986  19.5986  19.6274  19.6274  19.8452  19.8909  19.8909  19.9771
    20.0885  20.0885  20.1372  20.2335  20.2335  20.2954  20.2954  20.4224
    20.4496  20.4496  20.4564  20.4564  20.6996  20.7236  20.7237  20.7272
    20.7272  20.8035  20.9077  20.9077  20.9352  21.0911  21.0911  21.1307
    21.1359  21.1359  21.1395  21.1395  21.1454  21.1898  21.1898  21.2077
    21.2437  21.2724  21.4383  21.4470  21.5057  21.7074  21.7219  21.7219
    21.8222  21.8222  21.8481  21.8481  21.9052  21.9052  22.1473  22.1473
    22.2441  22.3746  22.5029  22.5467  22.5467  22.5655  22.5655  22.7241
    22.7432  22.7432  22.7498  22.7498  22.7889  22.7890  22.8585  22.8984
    22.8984  22.9215  22.9215  23.0285  23.0286  23.1256  23.1256  23.3171
    23.5667  23.5758  23.6717  23.6724  23.6724  23.6735  23.8122  23.8122
    24.0869  24.0869  24.2268  24.2268  24.2565  24.3005  24.3005  24.3010
    24.3178  24.3178  24.3426  24.3426  24.3878  24.3878  24.4551  24.8953
    24.9024  24.9024  24.9058  24.9068  24.9068  24.9110  24.9110  24.9928
    24.9928  25.1772  25.2246  25.2892  25.3201  25.3202  25.3481  25.3481
    25.3891  25.3891  25.6506  26.4527  26.4527  26.7081  26.8566  26.8566
    27.3080  27.3080  27.8339

          k = 0.1672 0.1672-0.5015 ( 29910 PWs)   bands (ev):

   -49.6288 -49.6287 -49.5607 -49.5607 -49.5606 -49.5606 -49.5208 -49.5207
   -49.5107 -49.5107 -49.5106 -49.5105 -49.4920 -49.4918 -49.4918 -49.4916
   -49.4784 -49.4782 -49.4715 -49.4713 -49.4604 -49.4604 -49.4602 -49.4602
   -49.4526 -49.4526 -49.4524 -49.4524 -49.4424 -49.4422 -49.4422 -49.4420
   -19.9952 -19.9951 -19.9691 -19.9690 -19.9689 -19.9688 -19.9270 -19.9270
   -19.9268 -19.9268 -19.8978 -19.8977 -19.8902 -19.8901 -19.8537 -19.8537
   -19.8536 -19.8536 -19.8305 -19.8305 -19.8304 -19.8304 -19.7721 -19.7721
   -19.7720 -19.7720 -19.6542 -19.6542 -19.6541 -19.6541 -19.6100 -19.6100
   -19.6099 -19.6099 -19.5673 -19.5673 -19.5671 -19.5671 -19.5372 -19.5372
   -19.5371 -19.5371 -19.4066 -19.4065 -19.4064 -19.4063 -19.3966 -19.3964
   -19.3840 -19.3839 -19.3680 -19.3678 -19.3549 -19.3549 -19.3547 -19.3547
   -19.3260 -19.3260 -19.3259 -19.3259 -19.3232 -19.3232 -19.3231 -19.3230
   -19.3201 -19.3201 -19.3201 -19.3201 -19.2698 -19.2697 -19.2468 -19.2468
   -19.2467 -19.2467 -19.2463 -19.2463 -19.2462 -19.2462 -19.2349 -19.2348
   -19.2322 -19.2320 -19.2192 -19.2190 -19.2190 -19.2189 -19.1632 -19.1630
   -19.1450 -19.1450 -19.1449 -19.1449 -19.1116 -19.1115 -19.0979 -19.0979
    16.5183  16.5185  17.6663  17.6664  17.7452  17.7453  17.7453  17.7455
    17.7665  17.7665  18.0122  18.0122  18.0123  18.0124  18.0518  18.0520
    18.0560  18.0560  18.0562  18.0562  18.1755  18.1756  18.2907  18.2908
    18.2909  18.2909  18.4795  18.4795  18.4796  18.4796  18.6677  18.6677
    18.6677  18.6677  18.9260  18.9260  18.9262  18.9262  19.2253  19.2254
    19.2254  19.2254  19.3245  19.3246  19.3247  19.3247  19.4749  19.4749
    19.4749  19.4749  19.7554  19.7554  19.7555  19.7555  19.9762  19.9764
    20.1900  20.1900  20.1901  20.1902  20.2161  20.2163  20.3250  20.3251
    20.3251  20.3252  20.7317  20.7317  20.7318  20.7319  20.7674  20.7675
    20.7779  20.7779  20.7779  20.7779  21.0052  21.0052  21.0052  21.0053
    21.0818  21.0818  21.2866  21.2868  21.3064  21.3066  21.3385  21.3386
    21.3386  21.3386  21.4616  21.4617  21.7170  21.7170  21.7171  21.7171
    21.7667  21.7667  21.8471  21.8472  21.8660  21.8660  21.8661  21.8662
    22.4778  22.4778  22.4778  22.4778  22.6574  22.6574  22.6576  22.6576
    22.6618  22.6620  22.7480  22.7481  22.7482  22.7482  22.8689  22.8689
    22.8690  22.8690  22.9201  22.9201  22.9202  22.9202  23.2156  23.2158
    23.4343  23.4345  23.9227  23.9227  23.9506  23.9506  23.9508  23.9508
    24.0046  24.0047  24.0047  24.0049  24.0049  24.0049  24.5728  24.5728
    24.5729  24.5729  24.6225  24.6225  24.6226  24.6227  24.6481  24.6481
    24.6482  24.6482  24.6573  24.6574  24.6574  24.6575  24.7040  24.7040
    25.0698  25.0698  25.3644  25.3646  25.3646  25.3648  25.4308  25.4310
    25.8837  25.8837  25.8837  25.8837  25.9941  25.9942  27.1025  27.1025
    27.1026  27.1027  28.3952

          k = 0.1672 0.2786 0.2786 ( 29912 PWs)   bands (ev):

   -49.6444 -49.5925 -49.5925 -49.5708 -49.5536 -49.5380 -49.5380 -49.5186
   -49.5167 -49.5013 -49.5012 -49.4982 -49.4982 -49.4932 -49.4857 -49.4857
   -49.4851 -49.4851 -49.4809 -49.4809 -49.4664 -49.4664 -49.4589 -49.4489
   -49.4489 -49.4484 -49.4483 -49.4468 -49.4468 -49.4439 -49.4439 -49.4425
   -20.0330 -20.0330 -20.0156 -19.9633 -19.9576 -19.9576 -19.9527 -19.9010
   -19.9010 -19.8887 -19.8887 -19.8608 -19.8608 -19.8564 -19.8564 -19.8483
   -19.8482 -19.8442 -19.8441 -19.8441 -19.8414 -19.8414 -19.7853 -19.7853
   -19.7496 -19.7496 -19.7452 -19.6556 -19.6349 -19.6349 -19.6333 -19.6226
   -19.6226 -19.5924 -19.5924 -19.5550 -19.5403 -19.5403 -19.5029 -19.4614
   -19.4614 -19.4580 -19.4580 -19.4540 -19.4540 -19.4461 -19.4461 -19.3986
   -19.3986 -19.3981 -19.3898 -19.3898 -19.3848 -19.3848 -19.3816 -19.3816
   -19.3669 -19.3669 -19.3458 -19.3458 -19.3090 -19.3090 -19.3035 -19.2972
   -19.2972 -19.2803 -19.2789 -19.2758 -19.2758 -19.2729 -19.2614 -19.2613
   -19.2604 -19.2604 -19.2590 -19.2518 -19.2518 -19.2275 -19.2275 -19.2254
   -19.2254 -19.2235 -19.2044 -19.1908 -19.1823 -19.1784 -19.1748 -19.1727
   -19.1727 -19.1451 -19.1451 -19.1406 -19.1406 -19.1262 -19.0831 -19.0692
    16.1299  17.3638  17.3638  17.4606  17.4666  17.4666  17.5214  17.7692
    17.7719  17.8527  17.8527  17.9247  17.9247  17.9937  18.1051  18.1051
    18.1278  18.1278  18.1411  18.2208  18.2772  18.2772  18.3507  18.3507
    18.5229  18.5229  18.5712  18.5712  18.6223  18.6223  18.6568  18.6895
    18.6896  18.7193  18.7193  18.8325  18.8325  18.9595  18.9595  18.9743
    19.0230  19.0230  19.2909  19.2909  19.5530  19.5530  19.6422  19.6628
    19.6628  19.6646  19.7298  19.7298  19.7699  19.7699  20.0046  20.0046
    20.0055  20.2034  20.2034  20.2677  20.2677  20.3476  20.4198  20.4199
    20.4712  20.4712  20.5218  20.5929  20.5929  20.6621  20.6621  20.8352
    20.8401  20.8630  20.8630  20.9051  21.0023  21.0117  21.0117  21.0548
    21.0764  21.0764  21.0838  21.1425  21.1923  21.1923  21.2072  21.2215
    21.2215  21.3102  21.3832  21.3832  21.5176  21.5176  21.6989  21.7039
    21.7039  21.8172  21.8512  21.8512  22.0890  22.0890  22.1339  22.1339
    22.2185  22.2185  22.2420  22.3056  22.3056  22.5206  22.5992  22.6114
    22.6223  22.6400  22.6400  22.6849  22.6849  22.9476  22.9476  23.0084
    23.1180  23.1305  23.1305  23.1780  23.1781  23.2085  23.2446  23.2446
    23.3391  23.3391  23.4033  23.4932  23.4932  23.7898  23.7898  24.0207
    24.0567  24.0567  24.0946  24.0946  24.2972  24.2972  24.3014  24.3116
    24.3717  24.3717  24.3746  24.3746  24.5332  24.5867  24.5867  24.6422
    24.6954  24.7100  25.0048  25.0458  25.0458  25.0694  25.0694  25.1236
    25.1620  25.1620  25.1640  25.1640  25.2419  25.2419  25.3412  25.3412
    25.3424  25.3424  25.3647  26.5224  26.9267  26.9267  27.3890  27.3890
    27.6414  27.6414  28.0010

          k = 0.1672 0.2786 0.3901 ( 29893 PWs)   bands (ev):

   -49.6350 -49.6087 -49.5855 -49.5657 -49.5649 -49.5482 -49.5345 -49.5246
   -49.5133 -49.5039 -49.4984 -49.4972 -49.4947 -49.4905 -49.4849 -49.4838
   -49.4817 -49.4793 -49.4735 -49.4707 -49.4697 -49.4607 -49.4583 -49.4542
   -49.4542 -49.4538 -49.4516 -49.4484 -49.4474 -49.4466 -49.4434 -49.4427
   -20.0151 -20.0064 -19.9831 -19.9476 -19.9418 -19.9398 -19.9314 -19.9274
   -19.9073 -19.9002 -19.8912 -19.8905 -19.8903 -19.8825 -19.8673 -19.8648
   -19.8605 -19.8565 -19.8415 -19.8404 -19.8390 -19.8306 -19.8293 -19.8022
   -19.7995 -19.7724 -19.7021 -19.6523 -19.6516 -19.6093 -19.6028 -19.6017
   -19.6009 -19.5792 -19.5674 -19.5633 -19.5543 -19.5334 -19.4953 -19.4949
   -19.4943 -19.4876 -19.4734 -19.4399 -19.4231 -19.4082 -19.3954 -19.3915
   -19.3899 -19.3827 -19.3822 -19.3808 -19.3775 -19.3657 -19.3641 -19.3570
   -19.3527 -19.3494 -19.3452 -19.3443 -19.3403 -19.3375 -19.3263 -19.3134
   -19.3003 -19.2972 -19.2967 -19.2852 -19.2846 -19.2772 -19.2705 -19.2670
   -19.2553 -19.2548 -19.2483 -19.2472 -19.2423 -19.2413 -19.2383 -19.2363
   -19.2360 -19.2276 -19.2266 -19.2022 -19.1917 -19.1903 -19.1669 -19.1649
   -19.1509 -19.1446 -19.1443 -19.1274 -19.1190 -19.1129 -19.0989 -19.0763
    16.3608  16.9967  17.5166  17.6024  17.6031  17.6063  17.6319  17.8388
    17.8943  17.9123  17.9183  17.9492  18.0064  18.0211  18.0217  18.0355
    18.0456  18.0895  18.1157  18.1964  18.2420  18.2676  18.2717  18.3303
    18.3631  18.4290  18.4423  18.4890  18.4937  18.5181  18.6167  18.6454
    18.6560  18.6846  18.7287  18.7402  18.7637  18.7748  18.8055  19.0315
    19.1729  19.2128  19.2792  19.2863  19.3152  19.3307  19.4870  19.5254
    19.5362  19.7149  19.7885  19.8135  19.8311  19.8386  19.9709  20.0071
    20.0134  20.0799  20.1116  20.2395  20.2809  20.3989  20.4283  20.5648
    20.5731  20.5818  20.6115  20.7570  20.7831  20.8536  20.8610  20.8709
    20.9111  20.9414  20.9734  20.9924  21.0109  21.0127  21.0559  21.0921
    21.0990  21.1518  21.1688  21.1790  21.2647  21.2887  21.3072  21.3380
    21.3619  21.3764  21.3885  21.4099  21.4895  21.5773  21.6345  21.6779
    21.6834  21.7217  21.7718  21.7993  21.8209  21.8722  21.9272  21.9291
    21.9903  22.0797  22.1993  22.2727  22.3415  22.4329  22.4560  22.6018
    22.6055  22.7003  22.7128  22.7719  22.8365  22.8425  22.8636  22.8747
    22.9015  22.9405  23.0759  23.0975  23.1316  23.1616  23.2528  23.2805
    23.2911  23.5046  23.5164  23.5337  23.5952  23.6450  23.9486  24.0822
    24.1369  24.1658  24.1690  24.1860  24.2344  24.2421  24.3817  24.4581
    24.4735  24.4994  24.5519  24.5695  24.5702  24.5913  24.5923  24.6121
    24.7766  24.8708  24.8894  24.9127  24.9158  24.9366  24.9465  24.9828
    25.0033  25.0398  25.1833  25.1925  25.1928  25.2267  25.2548  25.2891
    25.2986  25.8523  25.8569  26.3782  26.5489  26.8047  27.0645  27.3053
    27.6306  28.0122  28.1560

          k = 0.1672 0.2786-0.5015 ( 29882 PWs)   bands (ev):

   -49.6231 -49.6229 -49.5765 -49.5764 -49.5574 -49.5572 -49.5301 -49.5299
   -49.5091 -49.5089 -49.4962 -49.4960 -49.4949 -49.4947 -49.4827 -49.4825
   -49.4742 -49.4740 -49.4705 -49.4703 -49.4629 -49.4627 -49.4619 -49.4617
   -49.4559 -49.4557 -49.4501 -49.4499 -49.4481 -49.4479 -49.4431 -49.4429
   -19.9863 -19.9862 -19.9718 -19.9717 -19.9439 -19.9438 -19.9172 -19.9170
   -19.9145 -19.9143 -19.8881 -19.8880 -19.8831 -19.8831 -19.8772 -19.8771
   -19.8640 -19.8640 -19.8563 -19.8562 -19.8378 -19.8376 -19.8149 -19.8147
   -19.8019 -19.8018 -19.6587 -19.6586 -19.6520 -19.6519 -19.5907 -19.5907
   -19.5665 -19.5664 -19.5486 -19.5485 -19.5361 -19.5360 -19.5304 -19.5302
   -19.5189 -19.5188 -19.4127 -19.4126 -19.4089 -19.4089 -19.3933 -19.3932
   -19.3920 -19.3918 -19.3848 -19.3847 -19.3642 -19.3642 -19.3623 -19.3621
   -19.3328 -19.3326 -19.3326 -19.3325 -19.3250 -19.3249 -19.3163 -19.3162
   -19.3131 -19.3131 -19.3123 -19.3122 -19.3077 -19.3076 -19.2832 -19.2831
   -19.2507 -19.2506 -19.2477 -19.2475 -19.2433 -19.2432 -19.2278 -19.2276
   -19.2225 -19.2223 -19.2136 -19.2134 -19.2131 -19.2130 -19.1583 -19.1581
   -19.1516 -19.1516 -19.1196 -19.1196 -19.1195 -19.1194 -19.0911 -19.0910
    16.6545  16.6548  17.7054  17.7056  17.7346  17.7346  17.7735  17.7737
    17.7912  17.7913  17.8430  17.8432  17.9243  17.9244  18.0614  18.0614
    18.1823  18.1825  18.2036  18.2036  18.2637  18.2637  18.3396  18.3396
    18.3595  18.3596  18.4096  18.4096  18.4153  18.4153  18.4466  18.4467
    18.6495  18.6496  18.6759  18.6760  18.8215  18.8217  19.0080  19.0080
    19.1426  19.1428  19.3258  19.3260  19.3485  19.3485  19.4164  19.4165
    19.4940  19.4940  19.8425  19.8426  19.9108  19.9109  19.9514  19.9515
    20.0215  20.0216  20.2005  20.2007  20.2216  20.2217  20.5791  20.5792
    20.6356  20.6358  20.7909  20.7909  20.8500  20.8501  20.8537  20.8538
    20.9767  20.9767  20.9884  20.9884  21.0864  21.0865  21.1131  21.1132
    21.1731  21.1731  21.2776  21.2777  21.2823  21.2824  21.3080  21.3081
    21.3863  21.3864  21.5260  21.5260  21.5849  21.5849  21.6171  21.6172
    21.6457  21.6459  21.6676  21.6676  21.6750  21.6752  21.7128  21.7129
    22.2358  22.2359  22.3090  22.3091  22.3413  22.3413  22.5622  22.5623
    22.6629  22.6631  22.6688  22.6689  22.7123  22.7124  22.7135  22.7136
    22.9137  22.9138  22.9711  22.9712  23.1467  23.1468  23.2339  23.2341
    23.4265  23.4267  23.8228  23.8230  23.8427  23.8427  23.8763  23.8763
    23.9389  23.9391  24.2281  24.2282  24.3109  24.3110  24.4092  24.4094
    24.4802  24.4802  24.6742  24.6743  24.7195  24.7195  24.7530  24.7531
    24.7547  24.7548  24.8049  24.8049  24.8242  24.8242  24.8375  24.8375
    24.9867  24.9869  25.0734  25.0734  25.2350  25.2351  25.2383  25.2384
    25.8181  25.8181  26.4647  26.4647  26.5683  26.5684  26.6645  26.6647
    27.8461  27.8463  28.8284

          k = 0.1672 0.3901 0.3901 ( 29885 PWs)   bands (ev):

   -49.6261 -49.6009 -49.6009 -49.5791 -49.5594 -49.5440 -49.5439 -49.5319
   -49.5104 -49.5022 -49.5022 -49.4975 -49.4828 -49.4828 -49.4771 -49.4771
   -49.4766 -49.4765 -49.4723 -49.4723 -49.4649 -49.4649 -49.4575 -49.4575
   -49.4570 -49.4570 -49.4552 -49.4552 -49.4508 -49.4454 -49.4453 -49.4434
   -19.9933 -19.9933 -19.9505 -19.9347 -19.9347 -19.9283 -19.9283 -19.9218
   -19.9161 -19.9161 -19.8923 -19.8923 -19.8842 -19.8842 -19.8710 -19.8710
   -19.8689 -19.8689 -19.8603 -19.8546 -19.8546 -19.8455 -19.8455 -19.8434
   -19.8042 -19.7541 -19.7541 -19.6572 -19.6506 -19.6270 -19.6270 -19.5651
   -19.5542 -19.5542 -19.5447 -19.5269 -19.5269 -19.5008 -19.5008 -19.4641
   -19.4641 -19.4598 -19.4598 -19.4526 -19.4526 -19.4294 -19.4294 -19.4015
[...]
   -19.3378 -19.3378 -19.3377 -19.3377 -19.2917 -19.2917 -19.2917 -19.2917
   -19.2915 -19.2915 -19.2915 -19.2915 -19.2750 -19.2750 -19.2750 -19.2750
   -19.1626 -19.1626 -19.1626 -19.1626 -19.1439 -19.1438 -19.1438 -19.1437
   -19.1418 -19.1417 -19.1416 -19.1415 -19.0979 -19.0979 -19.0979 -19.0979
    17.1606  17.1608  17.1608  17.1609  17.6245  17.6247  17.6247  17.6248
    18.0670  18.0671  18.0671  18.0671  18.1166  18.1166  18.1166  18.1166
    18.1167  18.1168  18.1168  18.1168  18.2036  18.2036  18.2036  18.2036
    18.3966  18.3966  18.3967  18.3967  18.3967  18.3968  18.3968  18.3968
    18.7941  18.7941  18.7941  18.7941  18.7943  18.7943  18.7943  18.7943
    18.9590  18.9590  18.9590  18.9590  19.5310  19.5311  19.5312  19.5312
    19.5312  19.5312  19.5313  19.5314  19.7142  19.7143  19.7143  19.7144
    20.2647  20.2647  20.2647  20.2647  20.7567  20.7567  20.7567  20.7568
    21.0116  21.0117  21.0117  21.0117  21.0842  21.0843  21.0843  21.0844
    21.1297  21.1297  21.1298  21.1298  21.1298  21.1298  21.1298  21.1298
    21.2484  21.2485  21.2485  21.2485  21.2746  21.2747  21.2747  21.2747
    21.3255  21.3255  21.3255  21.3255  21.5495  21.5495  21.5495  21.5495
    21.5496  21.5496  21.5497  21.5497  21.6914  21.6915  21.6915  21.6916
    22.0250  22.0250  22.0250  22.0251  22.2171  22.2171  22.2172  22.2172
    22.2172  22.2172  22.2172  22.2173  22.8547  22.8548  22.8548  22.8549
    23.1241  23.1243  23.1243  23.1244  23.1763  23.1763  23.1763  23.1763
    23.1764  23.1764  23.1765  23.1765  23.5701  23.5702  23.5702  23.5703
    23.5857  23.5858  23.5858  23.5859  24.0151  24.0152  24.0152  24.0153
    25.0347  25.0347  25.0347  25.0347  25.0348  25.0348  25.0348  25.0348
    25.0728  25.0728  25.0728  25.0729  25.0999  25.0999  25.0999  25.1000
    25.1000  25.1000  25.1001  25.1001  25.1504  25.1505  25.1505  25.1505
    26.7495  26.7497  26.7497  26.7498  28.0547  28.0548  28.0548  28.0548
    28.0549  28.0549  28.0549

          k = 0.3901 0.3901 0.3901 ( 29914 PWs)   bands (ev):

   -49.6122 -49.5891 -49.5891 -49.5891 -49.5693 -49.5693 -49.5693 -49.5529
   -49.4806 -49.4806 -49.4806 -49.4771 -49.4770 -49.4770 -49.4769 -49.4769
   -49.4769 -49.4767 -49.4766 -49.4766 -49.4605 -49.4605 -49.4605 -49.4575
   -49.4574 -49.4574 -49.4572 -49.4571 -49.4571 -49.4571 -49.4570 -49.4570
   -19.9576 -19.9576 -19.9576 -19.9200 -19.9200 -19.9200 -19.9090 -19.9090
   -19.9090 -19.9042 -19.9042 -19.9042 -19.9042 -19.9042 -19.9042 -19.8995
   -19.8995 -19.8995 -19.8995 -19.8995 -19.8995 -19.8720 -19.8720 -19.8720
   -19.7594 -19.6444 -19.6444 -19.6444 -19.5331 -19.5331 -19.5331 -19.5331
   -19.5331 -19.5331 -19.5274 -19.5274 -19.5274 -19.5246 -19.5246 -19.5246
   -19.5001 -19.5001 -19.5001 -19.4236 -19.4236 -19.4236 -19.4236 -19.4236
   -19.4236 -19.4056 -19.4056 -19.4056 -19.4052 -19.3929 -19.3929 -19.3929
   -19.3530 -19.3530 -19.3530 -19.3340 -19.3340 -19.3340 -19.3340 -19.3340
   -19.3340 -19.3155 -19.3155 -19.3155 -19.2989 -19.2989 -19.2989 -19.2941
   -19.2941 -19.2941 -19.2941 -19.2941 -19.2941 -19.2723 -19.2723 -19.2723
   -19.1680 -19.1680 -19.1680 -19.1484 -19.1484 -19.1388 -19.1388 -19.1388
   -19.1218 -19.1218 -19.1218 -19.1182 -19.1182 -19.1182 -19.1006 -19.1006
    16.8649  17.3233  17.3233  17.3234  17.5524  17.5687  17.5687  17.5688
    17.9053  17.9053  17.9053  18.1326  18.1326  18.1326  18.2157  18.2157
    18.2157  18.2237  18.2237  18.2237  18.2238  18.2238  18.2238  18.3174
    18.3174  18.3174  18.3174  18.3174  18.3174  18.3452  18.3452  18.3452
    18.6021  18.6021  18.6021  18.9790  18.9790  18.9790  19.0844  19.0844
    19.0844  19.0844  19.0844  19.0844  19.4440  19.4440  19.4440  19.4519
    19.4519  19.4519  19.4519  19.4519  19.4519  19.7561  19.7561  19.7561
    20.2885  20.2885  20.2885  20.3760  20.5700  20.5700  20.5700  20.9898
    20.9898  20.9898  20.9899  20.9899  20.9899  21.0867  21.0867  21.1827
    21.1827  21.1827  21.2322  21.2322  21.2377  21.2377  21.2378  21.2493
    21.2493  21.2493  21.2611  21.2612  21.2612  21.2759  21.3018  21.3018
    21.3018  21.3374  21.3374  21.3374  21.3374  21.3374  21.3374  21.3391
    21.3391  21.3391  21.4494  21.4494  21.4494  21.8679  21.8679  21.8679
    22.0819  22.0819  22.0819  22.3992  22.3992  22.3992  22.3992  22.3992
    22.3992  22.4000  22.4000  22.4000  22.7411  22.7411  22.7411  22.9311
    22.9311  22.9311  22.9312  22.9312  22.9312  23.0482  23.0482  23.0482
    23.1415  23.1415  23.1779  23.1779  23.1779  23.3339  23.3339  23.3339
    23.6183  23.6183  23.6183  23.8530  23.8530  24.0226  24.0226  24.0226
    24.9864  24.9864  24.9864  25.0409  25.0409  25.0409  25.0409  25.0409
    25.0409  25.1102  25.1102  25.1102  25.1102  25.1102  25.1102  25.1776
    25.1776  25.1776  25.1942  25.1942  25.1942  25.2889  25.2889  25.2889
    26.9678  26.9678  26.9679  27.8809  27.8809  27.8809  27.8809  27.8809
    27.8809  28.1594  28.1594

          k = 0.3901 0.3901-0.5015 ( 29910 PWs)   bands (ev):

   -49.6018 -49.6016 -49.5802 -49.5802 -49.5800 -49.5800 -49.5620 -49.5618
   -49.4790 -49.4790 -49.4788 -49.4788 -49.4770 -49.4768 -49.4768 -49.4766
   -49.4680 -49.4680 -49.4679 -49.4678 -49.4663 -49.4662 -49.4661 -49.4661
   -49.4588 -49.4588 -49.4586 -49.4586 -49.4574 -49.4572 -49.4572 -49.4570
   -19.9442 -19.9442 -19.9322 -19.9321 -19.9321 -19.9319 -19.9099 -19.9099
   -19.9097 -19.9097 -19.9063 -19.9063 -19.9063 -19.9063 -19.9044 -19.9043
   -19.9043 -19.9041 -19.8942 -19.8941 -19.8884 -19.8884 -19.8882 -19.8882
   -19.7024 -19.7023 -19.5855 -19.5855 -19.5855 -19.5855 -19.5310 -19.5310
   -19.5310 -19.5310 -19.5177 -19.5177 -19.5176 -19.5176 -19.4784 -19.4784
   -19.4783 -19.4783 -19.4650 -19.4650 -19.4574 -19.4574 -19.4551 -19.4550
   -19.4129 -19.4129 -19.4128 -19.4128 -19.4064 -19.4064 -19.4063 -19.4063
   -19.3424 -19.3424 -19.3423 -19.3423 -19.3359 -19.3357 -19.3162 -19.3162
   -19.3160 -19.3160 -19.3154 -19.3154 -19.3154 -19.3154 -19.3051 -19.3051
   -19.3051 -19.3051 -19.2868 -19.2867 -19.2839 -19.2839 -19.2839 -19.2839
   -19.1537 -19.1537 -19.1489 -19.1489 -19.1488 -19.1488 -19.1341 -19.1339
   -19.1185 -19.1185 -19.1185 -19.1185 -19.1182 -19.1180 -19.1048 -19.1048
    17.0784  17.0786  17.4364  17.4364  17.4366  17.4366  17.5479  17.5480
    18.0236  18.0238  18.0417  18.0417  18.0417  18.0417  18.2085  18.2085
    18.2085  18.2085  18.2549  18.2549  18.2550  18.2550  18.2688  18.2688
    18.2688  18.2688  18.2870  18.2870  18.2871  18.2871  18.3013  18.3014
    18.7678  18.7680  18.8443  18.8443  18.8443  18.8444  19.2279  19.2279
    19.2279  19.2279  19.2396  19.2396  19.2398  19.2398  19.2772  19.2772
    19.2772  19.2772  19.5700  19.5701  19.6247  19.6248  19.6249  19.6249
    20.3543  20.3543  20.4425  20.4426  20.4426  20.4426  20.9242  20.9242
    21.1321  21.1321  21.1322  21.1322  21.1494  21.1496  21.1525  21.1525
    21.1560  21.1560  21.1561  21.1562  21.2081  21.2082  21.2082  21.2082
    21.2161  21.2161  21.2161  21.2161  21.2528  21.2528  21.2600  21.2601
    21.2710  21.2711  21.2891  21.2891  21.2892  21.2892  21.2943  21.2943
    21.2944  21.2944  21.7187  21.7188  21.7188  21.7188  21.7694  21.7696
    22.0994  22.0995  22.0995  22.0995  22.1261  22.1261  22.5442  22.5442
    22.5444  22.5444  22.6388  22.6388  22.6389  22.6389  22.6693  22.6693
    22.6694  22.6694  23.0377  23.0377  23.0502  23.0503  23.1158  23.1160
    23.1160  23.1161  23.1445  23.1445  23.1446  23.1446  23.3667  23.3668
    23.5158  23.5158  23.7449  23.7449  23.7450  23.7450  23.9085  23.9087
    25.0763  25.0763  25.0763  25.0763  25.1086  25.1086  25.1086  25.1086
    25.1121  25.1122  25.1606  25.1606  25.1607  25.1607  25.1670  25.1670
    25.1670  25.1671  25.2199  25.2200  25.2201  25.2201  25.2699  25.2699
    27.4008  27.4008  27.4008  27.4009  27.8567  27.8568  28.0041  28.0041
    28.0042  28.0043  28.8001

          k = 0.3901-0.5015-0.5015 ( 29920 PWs)   bands (ev):

   -49.5920 -49.5918 -49.5918 -49.5917 -49.5719 -49.5718 -49.5718 -49.5716
   -49.4781 -49.4779 -49.4779 -49.4777 -49.4674 -49.4673 -49.4672 -49.4672
   -49.4672 -49.4672 -49.4671 -49.4670 -49.4670 -49.4670 -49.4669 -49.4669
   -49.4669 -49.4669 -49.4667 -49.4667 -49.4581 -49.4579 -49.4579 -49.4577
   -19.9260 -19.9260 -19.9260 -19.9260 -19.9259 -19.9259 -19.9259 -19.9259
   -19.9108 -19.9107 -19.9107 -19.9106 -19.9069 -19.9068 -19.9068 -19.9066
   -19.9004 -19.9004 -19.9003 -19.9003 -19.9002 -19.9002 -19.9001 -19.9001
   -19.6440 -19.6439 -19.6439 -19.6438 -19.5265 -19.5264 -19.5264 -19.5264
   -19.5245 -19.5244 -19.5244 -19.5244 -19.4682 -19.4682 -19.4681 -19.4681
   -19.4681 -19.4681 -19.4681 -19.4681 -19.4667 -19.4667 -19.4666 -19.4666
   -19.4666 -19.4666 -19.4665 -19.4665 -19.4079 -19.4078 -19.4078 -19.4078
   -19.3277 -19.3276 -19.3276 -19.3276 -19.3256 -19.3256 -19.3256 -19.3256
   -19.3254 -19.3254 -19.3254 -19.3254 -19.3012 -19.3012 -19.3012 -19.3012
   -19.3011 -19.3011 -19.3010 -19.3010 -19.2951 -19.2951 -19.2951 -19.2951
   -19.1424 -19.1424 -19.1424 -19.1424 -19.1295 -19.1294 -19.1294 -19.1293
   -19.1292 -19.1292 -19.1292 -19.1291 -19.1096 -19.1096 -19.1096 -19.1096
    17.2452  17.2454  17.2454  17.2456  17.4821  17.4823  17.4823  17.4824
    18.1346  18.1346  18.1346  18.1346  18.1347  18.1347  18.1347  18.1347
    18.1349  18.1349  18.1349  18.1349  18.2180  18.2181  18.2181  18.2181
    18.2818  18.2818  18.2818  18.2818  18.2819  18.2819  18.2820  18.2820
    19.0106  19.0106  19.0107  19.0107  19.0108  19.0108  19.0108  19.0109
    19.0701  19.0701  19.0702  19.0702  19.4220  19.4220  19.4221  19.4222
    19.4222  19.4222  19.4223  19.4223  19.4494  19.4495  19.4495  19.4496
    20.4184  20.4184  20.4185  20.4185  20.6983  20.6983  20.6983  20.6983
    21.1594  21.1594  21.1594  21.1594  21.1746  21.1746  21.1746  21.1746
    21.2039  21.2039  21.2039  21.2040  21.2040  21.2040  21.2040  21.2040
    21.2137  21.2138  21.2138  21.2138  21.2489  21.2490  21.2490  21.2491
    21.2587  21.2587  21.2588  21.2588  21.4623  21.4624  21.4624  21.4624
    21.4625  21.4625  21.4625  21.4625  21.5215  21.5216  21.5216  21.5217
    22.2826  22.2827  22.2827  22.2828  22.3646  22.3647  22.3647  22.3647
    22.3647  22.3647  22.3648  22.3648  22.8306  22.8306  22.8306  22.8306
    22.8307  22.8307  22.8308  22.8308  22.8469  22.8470  22.8470  22.8472
    23.1146  23.1147  23.1147  23.1149  23.4087  23.4088  23.4088  23.4089
    23.4846  23.4847  23.4847  23.4848  23.7090  23.7090  23.7091  23.7092
    25.1533  25.1533  25.1534  25.1534  25.1534  25.1534  25.1534  25.1534
    25.1752  25.1753  25.1753  25.1753  25.2218  25.2218  25.2218  25.2218
    25.2219  25.2219  25.2219  25.2219  25.2230  25.2231  25.2231  25.2232
    27.6715  27.6716  27.6717  27.6718  28.3166  28.3166  28.3167  28.3167
    28.3167  28.3168  28.3168

          k =-0.5015-0.5015-0.5015 ( 29824 PWs)   bands (ev):

   -49.5829 -49.5828 -49.5828 -49.5828 -49.5826 -49.5826 -49.5826 -49.5824
   -49.4674 -49.4673 -49.4673 -49.4672 -49.4672 -49.4672 -49.4672 -49.4672
   -49.4671 -49.4671 -49.4671 -49.4670 -49.4670 -49.4670 -49.4670 -49.4669
   -49.4669 -49.4669 -49.4668 -49.4668 -49.4668 -49.4668 -49.4667 -49.4666
   -19.9135 -19.9135 -19.9135 -19.9135 -19.9134 -19.9134 -19.9134 -19.9134
   -19.9134 -19.9134 -19.9133 -19.9133 -19.9133 -19.9132 -19.9132 -19.9132
   -19.9132 -19.9131 -19.9131 -19.9131 -19.9131 -19.9131 -19.9131 -19.9130
   -19.5838 -19.5837 -19.5837 -19.5837 -19.5837 -19.5836 -19.5836 -19.5836
   -19.4678 -19.4678 -19.4678 -19.4678 -19.4677 -19.4677 -19.4677 -19.4677
   -19.4677 -19.4677 -19.4677 -19.4677 -19.4677 -19.4677 -19.4677 -19.4676
   -19.4676 -19.4676 -19.4676 -19.4676 -19.4676 -19.4676 -19.4676 -19.4675
   -19.3129 -19.3129 -19.3129 -19.3129 -19.3129 -19.3128 -19.3128 -19.3128
   -19.3128 -19.3128 -19.3128 -19.3128 -19.3127 -19.3127 -19.3127 -19.3126
   -19.3126 -19.3126 -19.3126 -19.3126 -19.3126 -19.3126 -19.3126 -19.3126
   -19.1247 -19.1247 -19.1247 -19.1247 -19.1247 -19.1247 -19.1247 -19.1247
   -19.1245 -19.1245 -19.1245 -19.1245 -19.1245 -19.1244 -19.1244 -19.1244
    17.3537  17.3539  17.3539  17.3539  17.3540  17.3540  17.3540  17.3542
    18.1911  18.1911  18.1911  18.1911  18.1911  18.1911  18.1911  18.1911
    18.1911  18.1911  18.1911  18.1912  18.1912  18.1913  18.1913  18.1913
    18.1913  18.1913  18.1913  18.1913  18.1913  18.1913  18.1913  18.1913
    19.2324  19.2325  19.2325  19.2325  19.2325  19.2326  19.2326  19.2326
    19.2326  19.2326  19.2326  19.2326  19.2327  19.2327  19.2327  19.2327
    19.2327  19.2327  19.2327  19.2328  19.2328  19.2328  19.2328  19.2328
    20.5772  20.5772  20.5772  20.5772  20.5772  20.5772  20.5772  20.5772
    21.2185  21.2185  21.2185  21.2186  21.2186  21.2186  21.2186  21.2186
    21.2186  21.2186  21.2187  21.2187  21.2187  21.2187  21.2187  21.2187
    21.3360  21.3360  21.3361  21.3361  21.3361  21.3361  21.3361  21.3361
    21.3361  21.3361  21.3362  21.3362  21.3362  21.3362  21.3362  21.3362
    21.3362  21.3362  21.3362  21.3362  21.3363  21.3363  21.3363  21.3363
    22.5604  22.5604  22.5604  22.5604  22.5604  22.5605  22.5605  22.5605
    22.5605  22.5605  22.5605  22.5606  22.5606  22.5606  22.5606  22.5606
    22.5606  22.5606  22.5606  22.5607  22.5607  22.5607  22.5607  22.5608
    23.4045  23.4045  23.4045  23.4046  23.4046  23.4046  23.4046  23.4046
    23.4046  23.4046  23.4047  23.4047  23.4047  23.4047  23.4048  23.4048
    25.2298  25.2299  25.2299  25.2299  25.2299  25.2299  25.2299  25.2299
    25.2299  25.2299  25.2299  25.2300  25.2300  25.2300  25.2300  25.2300
    25.2300  25.2300  25.2301  25.2301  25.2301  25.2301  25.2301  25.2301
    28.6391  28.6391  28.6392  28.6392  28.6392  28.6392  28.6392  28.6393
    28.6393  28.6393  28.6393

     the Fermi energy is    23.3712 ev

!    total energy              =  -13813.29782395 Ry

     total all-electron energy =   -289989.688163 Ry
     estimated scf accuracy    <       0.00000014 Ry
     smearing contrib. (-TS)   =       0.02115324 Ry
     internal energy E=F+TS    =  -13813.31897718 Ry

     The total energy is F=E-TS. E is the sum of the following terms:
     one-electron contribution =    -972.65799463 Ry
     hartree contribution      =     909.19760410 Ry
     xc contribution           =    -928.42109230 Ry
     ewald contribution        =   -5231.98148765 Ry
     one-center paw contrib.   =   -7589.45600671 Ry

     convergence has been achieved in  13 iterations

     Forces acting on atoms (cartesian axes, Ry/au):

     atom    1 type  1   force =     0.00000000    0.00000000    0.00000000
     atom    2 type  1   force =    -0.00000114   -0.00000114    0.00000000
     atom    3 type  1   force =    -0.00000114   -0.00000000   -0.00000114
     atom    4 type  1   force =     0.00000000   -0.00000114   -0.00000114
     atom    5 type  1   force =     0.00000000    0.00000000    0.00000000
     atom    6 type  1   force =    -0.00000172   -0.00000172    0.00000000
     atom    7 type  1   force =    -0.00000114   -0.00000000    0.00000114
     atom    8 type  1   force =     0.00000000   -0.00000114    0.00000114
     atom    9 type  1   force =     0.00000000    0.00000000    0.00000000
     atom   10 type  1   force =    -0.00000114    0.00000114    0.00000000
     atom   11 type  1   force =    -0.00000172    0.00000000   -0.00000172
     atom   12 type  1   force =     0.00000000    0.00000114   -0.00000114
     atom   13 type  1   force =     0.00000000    0.00000000    0.00000000
     atom   14 type  1   force =    -0.00000172    0.00000172    0.00000000
     atom   15 type  1   force =    -0.00000172    0.00000000    0.00000172
     atom   16 type  1   force =    -0.00000000    0.00000114    0.00000114
     atom   17 type  1   force =     0.00000000    0.00000000    0.00000000
     atom   18 type  1   force =     0.00000114   -0.00000114    0.00000000
     atom   19 type  1   force =     0.00000114   -0.00000000   -0.00000114
     atom   20 type  1   force =     0.00000000   -0.00000172   -0.00000172
     atom   21 type  1   force =     0.00000000    0.00000000    0.00000000
     atom   22 type  1   force =     0.00000172   -0.00000172    0.00000000
     atom   23 type  1   force =     0.00000114    0.00000000    0.00000114
     atom   24 type  1   force =    -0.00000000   -0.00000172    0.00000172
     atom   25 type  1   force =     0.00000000    0.00000000    0.00000000
     atom   26 type  1   force =     0.00000114    0.00000114    0.00000000
     atom   27 type  1   force =     0.00000172    0.00000000   -0.00000172
     atom   28 type  1   force =    -0.00000000    0.00000172   -0.00000172
     atom   29 type  1   force =     0.00000000    0.00000000    0.00000000
     atom   30 type  1   force =     0.00000172    0.00000172    0.00000000
     atom   31 type  1   force =     0.00000172    0.00000000    0.00000172
     atom   32 type  1   force =     0.00000000    0.00000172    0.00000172

     Total force =     0.000010     Total SCF correction =     0.000147
     SCF correction compared to forces is large: reduce conv_thr to get better values


     Computing stress (Cartesian axis) and pressure

          total   stress  (Ry/bohr**3)                   (kbar)     P=       24.56
   0.00016692   0.00000000   0.00000000           24.56        0.00        0.00
   0.00000000   0.00016692   0.00000000            0.00       24.56        0.00
   0.00000000   0.00000000   0.00016692            0.00        0.00       24.56


     Writing output data file /scratch/BnfarQnWOkpLscEf.save/
 
     init_run     :     12.85s CPU     13.25s WALL (       1 calls)
     electrons    :    568.11s CPU    577.79s WALL (       1 calls)
     forces       :      5.49s CPU      5.55s WALL (       1 calls)
     stress       :     31.06s CPU     31.31s WALL (       1 calls)

     Called by init_run:
     wfcinit      :     12.15s CPU     12.48s WALL (       1 calls)
     potinit      :      0.17s CPU      0.18s WALL (       1 calls)
     hinit0       :      0.08s CPU      0.09s WALL (       1 calls)

     Called by electrons:
     c_bands      :    506.80s CPU    514.94s WALL (      14 calls)
     sum_band     :     59.55s CPU     60.84s WALL (      14 calls)
     v_of_rho     :      0.20s CPU      0.22s WALL (      14 calls)
     newd         :      0.31s CPU      0.43s WALL (      14 calls)
     PAW_pot      :      1.18s CPU      1.24s WALL (      14 calls)
     mix_rho      :      0.10s CPU      0.11s WALL (      14 calls)

     Called by c_bands:
     init_us_2    :      2.00s CPU      2.05s WALL (    1085 calls)
     cegterg      :    499.24s CPU    507.07s WALL (     490 calls)

     Called by *egterg:
     cdiaghg      :     68.25s CPU     69.37s WALL (    1888 calls)
     h_psi        :    259.61s CPU    264.15s WALL (    1958 calls)
     s_psi        :     18.09s CPU     18.23s WALL (    1958 calls)
     g_psi        :      0.43s CPU      0.44s WALL (    1433 calls)

     Called by h_psi:
     h_psi:calbec :     36.08s CPU     36.40s WALL (    1958 calls)
     vloc_psi     :    205.11s CPU    208.85s WALL (    1958 calls)
     add_vuspsi   :     17.27s CPU     17.75s WALL (    1958 calls)

     General routines
     calbec       :     65.70s CPU     66.21s WALL (    2623 calls)
     fft          :      0.25s CPU      0.27s WALL (     206 calls)
     ffts         :      0.02s CPU      0.03s WALL (      28 calls)
     fftw         :    239.93s CPU    244.34s WALL (  928922 calls)
     interpolate  :      0.03s CPU      0.04s WALL (      14 calls)
 
     Parallel routines
     fft_scatt_xy :     15.97s CPU     16.24s WALL (  929156 calls)
     fft_scatt_yz :    196.47s CPU    200.22s WALL (  929156 calls)
 
     PWSCF        :  10m27.68s CPU  10m39.99s WALL

 
   This run was terminated on:  12:17: 5  23Nov2021            

=------------------------------------------------------------------------------=
   JOB DONE.
=------------------------------------------------------------------------------=
