
     Program PWSCF v.6.7MaX starts on 23Nov2021 at 11:55:13 

     This program is part of the open-source Quantum ESPRESSO suite
     for quantum simulation of materials; please cite
         "P. Giannozzi et al., J. Phys.:Condens. Matter 21 395502 (2009);
         "P. Giannozzi et al., J. Phys.:Condens. Matter 29 465901 (2017);
          URL http://www.quantum-espresso.org", 
     in publications or presentations arising from this work. More details at
     http://www.quantum-espresso.org/quote

     Parallel version (MPI & OpenMP), running on      72 processor cores
     Number of MPI processes:                72
     Threads/MPI process:                     1

     MPI processes distributed on     1 nodes
     R & G space division:  proc/nbgrp/npool/nimage =      72
     Reading input from /rds/homes/b/bxp912/jobs/20211014_ru_eos/wd/eos/eos_002.in
Warning: card &CELL ignored
Warning: card CELL_DYNAMICS = 'BFGS', ignored
Warning: card CELL_FACTOR = 2.0, ignored
Warning: card PRESS = 0.0, ignored
Warning: card / ignored

     Current dimensions of program PWSCF are:
     Max number of different atomic species (ntypx) = 10
     Max number of k-points (npk) =  40000
     Max angular momentum in pseudopotentials (lmaxx) =  3
     file Ru.pbe-spn-kjpaw_psl.1.0.0.UPF: wavefunction(s)  4D renormalized

     Subspace diagonalization in iterative solution of the eigenvalue problem:
     one sub-group per band group will be used
     ELPA distributed-memory algorithm (size of sub-group:  8*  8 procs)

     Found symmetry operation: I + (  0.2500  0.2500  0.0000)
     This is a supercell, fractional translations are disabled
     Message from routine setup:
     using ibrav=0 with symmetry is DISCOURAGED, use correct ibrav instead
 
     Parallelization info
     --------------------
     sticks:   dense  smooth     PW     G-vecs:    dense   smooth      PW
     Min          97      64     17                 6157     3308     471
     Max          98      65     18                 6164     3313     476
     Sum        7033    4645   1273               443575   238329   34049
 


     bravais-lattice index     =            0
     lattice parameter (alat)  =      14.4007  a.u.
     unit-cell volume          =    2950.7512 (a.u.)^3
     number of atoms/cell      =           32
     number of atomic types    =            1
     number of electrons       =       512.00
     number of Kohn-Sham states=          307
     kinetic-energy cutoff     =      71.0000  Ry
     charge density cutoff     =     430.0000  Ry
     scf convergence threshold =      1.0E-06
     mixing beta               =       0.1000
     number of iterations used =           10  plain     mixing
     Exchange-correlation= SLA  PW   PBX  PBC
                           (   1   4   3   4   0   0   0)

     celldm(1)=  14.400742  celldm(2)=   0.000000  celldm(3)=   0.000000
     celldm(4)=   0.000000  celldm(5)=   0.000000  celldm(6)=   0.000000

     crystal axes: (cart. coord. in units of alat)
               a(1) = (   0.996000   0.000000   0.000000 )  
               a(2) = (   0.000000   0.996000   0.000000 )  
               a(3) = (   0.000000   0.000000   0.996000 )  

     reciprocal axes: (cart. coord. in units 2 pi/alat)
               b(1) = (  1.004016  0.000000  0.000000 )  
               b(2) = (  0.000000  1.004016  0.000000 )  
               b(3) = (  0.000000  0.000000  1.004016 )  


     PseudoPot. # 1 for Ru read from file:
     /rds/homes/b/bxp912/pp/Ru.pbe-spn-kjpaw_psl.1.0.0.UPF
     MD5 check sum: 0ae1f594dea09af7be8575c3a481d1ae
     Pseudo is Projector augmented-wave + core cor, Zval = 16.0
     Generated using "atomic" code by A. Dal Corso  v.5.1
     Shape of augmentation charge: PSQ
     Using radial grid of 1233 points,  6 beta functions with: 
                l(1) =   0
                l(2) =   0
                l(3) =   1
                l(4) =   1
                l(5) =   2
                l(6) =   2
     Q(r) pseudized with 0 coefficients 


     atomic species   valence    mass     pseudopotential
        Ru            16.00   101.07000     Ru( 1.00)

     48 Sym. Ops., with inversion, found



   Cartesian axes

     site n.     atom                  positions (alat units)
         1           Ru  tau(   1) = (   0.0000000   0.0000000   0.0000000  )
         2           Ru  tau(   2) = (   0.2490000   0.2490000   0.0000000  )
         3           Ru  tau(   3) = (   0.2490000   0.0000000   0.2489995  )
         4           Ru  tau(   4) = (   0.0000000   0.2490000   0.2489995  )
         5           Ru  tau(   5) = (   0.0000000   0.0000000   0.4980000  )
         6           Ru  tau(   6) = (   0.2489990   0.2489990   0.4980000  )
         7           Ru  tau(   7) = (   0.2490000   0.0000000   0.7469995  )
         8           Ru  tau(   8) = (   0.0000000   0.2490000   0.7469995  )
         9           Ru  tau(   9) = (   0.0000000   0.4980002   0.0000000  )
        10           Ru  tau(  10) = (   0.2490000   0.7470004   0.0000000  )
        11           Ru  tau(  11) = (   0.2489990   0.4980002   0.2489984  )
        12           Ru  tau(  12) = (   0.0000000   0.7470004   0.2489995  )
        13           Ru  tau(  13) = (   0.0000000   0.4980002   0.4980000  )
        14           Ru  tau(  14) = (   0.2489990   0.7470015   0.4980000  )
        15           Ru  tau(  15) = (   0.2489990   0.4980002   0.7470005  )
        16           Ru  tau(  16) = (   0.0000000   0.7470004   0.7469995  )
        17           Ru  tau(  17) = (   0.4980002   0.0000000   0.0000000  )
        18           Ru  tau(  18) = (   0.7470004   0.2490000   0.0000000  )
        19           Ru  tau(  19) = (   0.7470004   0.0000000   0.2489995  )
        20           Ru  tau(  20) = (   0.4980002   0.2489990   0.2489984  )
        21           Ru  tau(  21) = (   0.4980002   0.0000000   0.4980000  )
        22           Ru  tau(  22) = (   0.7470015   0.2489990   0.4980000  )
        23           Ru  tau(  23) = (   0.7470004   0.0000000   0.7469995  )
        24           Ru  tau(  24) = (   0.4980002   0.2489990   0.7470005  )
        25           Ru  tau(  25) = (   0.4980002   0.4980002   0.0000000  )
        26           Ru  tau(  26) = (   0.7470004   0.7470004   0.0000000  )
        27           Ru  tau(  27) = (   0.7470015   0.4980002   0.2489984  )
        28           Ru  tau(  28) = (   0.4980002   0.7470015   0.2489984  )
        29           Ru  tau(  29) = (   0.4980002   0.4980002   0.4980000  )
        30           Ru  tau(  30) = (   0.7470015   0.7470015   0.4980000  )
        31           Ru  tau(  31) = (   0.7470015   0.4980002   0.7470005  )
        32           Ru  tau(  32) = (   0.4980002   0.7470015   0.7470005  )

     number of k points=    35  Marzari-Vanderbilt smearing, width (Ry)=  0.0400
                       cart. coord. in units 2pi/alat
        k(    1) = (   0.0557787   0.0557787   0.0557787), wk =   0.0219479
        k(    2) = (   0.0557787   0.0557787   0.1673360), wk =   0.0658436
        k(    3) = (   0.0557787   0.0557787   0.2788934), wk =   0.0658436
        k(    4) = (   0.0557787   0.0557787   0.3904507), wk =   0.0658436
        k(    5) = (   0.0557787   0.0557787  -0.5020080), wk =   0.0329218
        k(    6) = (   0.0557787   0.1673360   0.1673360), wk =   0.0658436
        k(    7) = (   0.0557787   0.1673360   0.2788934), wk =   0.1316872
        k(    8) = (   0.0557787   0.1673360   0.3904507), wk =   0.1316872
        k(    9) = (   0.0557787   0.1673360  -0.5020080), wk =   0.0658436
        k(   10) = (   0.0557787   0.2788934   0.2788934), wk =   0.0658436
        k(   11) = (   0.0557787   0.2788934   0.3904507), wk =   0.1316872
        k(   12) = (   0.0557787   0.2788934  -0.5020080), wk =   0.0658436
        k(   13) = (   0.0557787   0.3904507   0.3904507), wk =   0.0658436
        k(   14) = (   0.0557787   0.3904507  -0.5020080), wk =   0.0658436
        k(   15) = (   0.0557787  -0.5020080  -0.5020080), wk =   0.0164609
        k(   16) = (   0.1673360   0.1673360   0.1673360), wk =   0.0219479
        k(   17) = (   0.1673360   0.1673360   0.2788934), wk =   0.0658436
        k(   18) = (   0.1673360   0.1673360   0.3904507), wk =   0.0658436
        k(   19) = (   0.1673360   0.1673360  -0.5020080), wk =   0.0329218
        k(   20) = (   0.1673360   0.2788934   0.2788934), wk =   0.0658436
        k(   21) = (   0.1673360   0.2788934   0.3904507), wk =   0.1316872
        k(   22) = (   0.1673360   0.2788934  -0.5020080), wk =   0.0658436
        k(   23) = (   0.1673360   0.3904507   0.3904507), wk =   0.0658436
        k(   24) = (   0.1673360   0.3904507  -0.5020080), wk =   0.0658436
        k(   25) = (   0.1673360  -0.5020080  -0.5020080), wk =   0.0164609
        k(   26) = (   0.2788934   0.2788934   0.2788934), wk =   0.0219479
        k(   27) = (   0.2788934   0.2788934   0.3904507), wk =   0.0658436
        k(   28) = (   0.2788934   0.2788934  -0.5020080), wk =   0.0329218
        k(   29) = (   0.2788934   0.3904507   0.3904507), wk =   0.0658436
        k(   30) = (   0.2788934   0.3904507  -0.5020080), wk =   0.0658436
        k(   31) = (   0.2788934  -0.5020080  -0.5020080), wk =   0.0164609
        k(   32) = (   0.3904507   0.3904507   0.3904507), wk =   0.0219479
        k(   33) = (   0.3904507   0.3904507  -0.5020080), wk =   0.0329218
        k(   34) = (   0.3904507  -0.5020080  -0.5020080), wk =   0.0164609
        k(   35) = (  -0.5020080  -0.5020080  -0.5020080), wk =   0.0027435

     Dense  grid:   443575 G-vectors     FFT dimensions: (  96,  96,  96)

     Smooth grid:   238329 G-vectors     FFT dimensions: (  80,  80,  80)

     Estimated max dynamical RAM per process >     105.81 MB

     Estimated total dynamical RAM >       7.44 GB

     Check: negative core charge=   -0.000002

     Initial potential from superposition of free atoms

     starting charge  511.97959, renormalised to  512.00000
     Starting wfcs are  320 randomized atomic wfcs
     Checking if some PAW data can be deallocated... 

     total cpu time spent up to now is       18.1 secs

     Self-consistent Calculation

     iteration #  1     ecut=    71.00 Ry     beta= 0.10
     Davidson diagonalization with overlap
     ethr =  1.00E-02,  avg # of iterations =  3.3

     Threshold (ethr) on eigenvalues was too large:
     Diagonalizing with lowered threshold

     Davidson diagonalization with overlap
     ethr =  8.43E-05,  avg # of iterations =  5.4

     total cpu time spent up to now is      105.9 secs

     total energy              =  -13813.40966349 Ry
     estimated scf accuracy    <       0.64189379 Ry

     iteration #  2     ecut=    71.00 Ry     beta= 0.10
     Davidson diagonalization with overlap
     ethr =  1.25E-04,  avg # of iterations =  1.0

     total cpu time spent up to now is      137.3 secs

     total energy              =  -13813.19766034 Ry
     estimated scf accuracy    <       0.40246929 Ry

     iteration #  3     ecut=    71.00 Ry     beta= 0.10
     Davidson diagonalization with overlap
     ethr =  7.86E-05,  avg # of iterations =  2.3

     total cpu time spent up to now is      177.9 secs

     total energy              =  -13813.29499726 Ry
     estimated scf accuracy    <       0.01014216 Ry

     iteration #  4     ecut=    71.00 Ry     beta= 0.10
     Davidson diagonalization with overlap
     ethr =  1.98E-06,  avg # of iterations =  3.1

     total cpu time spent up to now is      220.5 secs

     total energy              =  -13813.29431787 Ry
     estimated scf accuracy    <       0.00674890 Ry

     iteration #  5     ecut=    71.00 Ry     beta= 0.10
     Davidson diagonalization with overlap
     ethr =  1.32E-06,  avg # of iterations =  2.1

     total cpu time spent up to now is      264.3 secs

     total energy              =  -13813.29914192 Ry
     estimated scf accuracy    <       0.00761790 Ry

     iteration #  6     ecut=    71.00 Ry     beta= 0.10
     Davidson diagonalization with overlap
     ethr =  1.32E-06,  avg # of iterations =  3.5

     total cpu time spent up to now is      312.9 secs

     total energy              =  -13813.29410864 Ry
     estimated scf accuracy    <       0.01556338 Ry

     iteration #  7     ecut=    71.00 Ry     beta= 0.10
     Davidson diagonalization with overlap
     ethr =  1.32E-06,  avg # of iterations =  2.3

     total cpu time spent up to now is      352.7 secs

     total energy              =  -13813.29567399 Ry
     estimated scf accuracy    <       0.00083542 Ry

     iteration #  8     ecut=    71.00 Ry     beta= 0.10
     Davidson diagonalization with overlap
     ethr =  1.63E-07,  avg # of iterations =  2.4

     total cpu time spent up to now is      386.4 secs

     total energy              =  -13813.29570273 Ry
     estimated scf accuracy    <       0.00022615 Ry

     iteration #  9     ecut=    71.00 Ry     beta= 0.10
     Davidson diagonalization with overlap
     ethr =  4.42E-08,  avg # of iterations =  1.9

     total cpu time spent up to now is      417.8 secs

     total energy              =  -13813.29564555 Ry
     estimated scf accuracy    <       0.00012500 Ry

     iteration # 10     ecut=    71.00 Ry     beta= 0.10
     Davidson diagonalization with overlap
     ethr =  2.44E-08,  avg # of iterations =  2.5

     total cpu time spent up to now is      460.0 secs

     total energy              =  -13813.29566513 Ry
     estimated scf accuracy    <       0.00000355 Ry

     iteration # 11     ecut=    71.00 Ry     beta= 0.10
     Davidson diagonalization with overlap
     ethr =  6.93E-10,  avg # of iterations =  4.7

     total cpu time spent up to now is      512.8 secs

     total energy              =  -13813.29567052 Ry
     estimated scf accuracy    <       0.00000154 Ry

     iteration # 12     ecut=    71.00 Ry     beta= 0.10
     Davidson diagonalization with overlap
     ethr =  3.02E-10,  avg # of iterations =  3.1

     total cpu time spent up to now is      559.0 secs

     total energy              =  -13813.29566675 Ry
     estimated scf accuracy    <       0.00000915 Ry

     iteration # 13     ecut=    71.00 Ry     beta= 0.10
     Davidson diagonalization with overlap
     ethr =  3.02E-10,  avg # of iterations =  3.2

     total cpu time spent up to now is      603.1 secs

     End of self-consistent calculation

          k = 0.0558 0.0558 0.0558 ( 29762 PWs)   bands (ev):

   -49.5869 -49.4818 -49.4818 -49.4818 -49.4615 -49.4615 -49.4615 -49.4236
   -49.4236 -49.4236 -49.4138 -49.4126 -49.4126 -49.4126 -49.4126 -49.4125
   -49.4125 -49.4119 -49.4119 -49.4119 -49.4032 -49.4032 -49.4032 -49.3555
   -49.3554 -49.3554 -49.3549 -49.3549 -49.3549 -49.3549 -49.3549 -49.3548
   -20.0114 -20.0114 -20.0114 -20.0073 -19.9459 -19.9459 -19.9459 -19.7377
   -19.7377 -19.7377 -19.7259 -19.7259 -19.7259 -19.7259 -19.7259 -19.7259
   -19.7048 -19.7048 -19.7048 -19.6810 -19.6810 -19.6810 -19.6810 -19.6810
   -19.6810 -19.6283 -19.6283 -19.6283 -19.6283 -19.6283 -19.6283 -19.5250
   -19.5250 -19.5250 -19.4488 -19.4488 -19.4488 -19.4409 -19.4409 -19.4409
   -19.4055 -19.4055 -19.4055 -19.4055 -19.4055 -19.4055 -19.3637 -19.3637
   -19.3637 -19.3564 -19.3564 -19.3564 -19.3564 -19.3564 -19.3564 -19.3500
   -19.3500 -19.3500 -19.3453 -19.3453 -19.3453 -19.1763 -19.1763 -19.1763
   -19.1757 -19.1757 -19.1757 -19.1428 -19.1428 -19.1428 -19.1426 -19.1426
   -19.1426 -19.1270 -19.1270 -19.1270 -19.1142 -19.1142 -19.1142 -19.1131
   -19.1131 -19.1131 -19.1131 -19.1131 -19.1131 -19.1109 -19.1109 -19.1109
   -19.1081 -19.1081 -19.0939 -19.0939 -19.0939 -18.9768 -18.9696 -18.9696
    15.6185  17.1382  17.1382  17.1382  17.4357  17.4535  17.4535  17.4535
    17.6124  17.6124  17.6124  17.8852  17.8852  17.8852  18.0495  18.0495
    18.0495  18.5698  18.5698  18.5698  18.5698  18.5699  18.5699  18.8879
    18.8879  18.8879  19.1655  19.1655  19.1656  19.1838  19.1838  19.1838
    19.2804  19.2804  19.2804  19.2899  19.2899  19.2899  19.2899  19.2899
    19.2899  19.7768  19.7768  19.7768  19.7768  19.7768  19.7768  19.9229
    19.9229  19.9229  19.9542  19.9542  19.9542  19.9542  19.9542  19.9542
    20.0190  20.0190  20.0190  20.2896  20.2896  20.2896  20.2896  20.2896
    20.2896  20.2914  20.2914  20.2914  20.2915  20.2915  20.2915  20.2929
    20.2929  20.2929  20.4596  20.4596  20.4597  20.7457  20.7457  20.7457
    20.7826  20.7826  20.7979  20.7979  20.7979  20.8794  20.9114  20.9114
    21.9083  21.9083  21.9083  22.0858  22.0858  22.0858  22.1248  22.1248
    22.1248  22.2272  22.2272  22.2272  22.2272  22.2272  22.2272  22.2410
    22.2410  22.2410  22.5456  22.5456  22.5456  22.6685  22.6685  22.6685
    22.9211  22.9211  22.9211  22.9973  22.9973  22.9973  22.9973  22.9973
    22.9973  23.0174  23.0174  23.0174  23.0607  23.0607  23.0607  23.2517
    23.2517  23.2517  23.2517  23.2517  23.2517  23.3154  23.3154  23.4282
    23.4282  23.4282  24.1051  24.1051  24.1051  24.1469  24.1469  24.1469
    24.2684  24.2684  24.2684  24.3475  25.1046  25.1046  25.1046  25.1469
    25.1469  25.1827  25.1827  25.1827  25.4708  25.4708  25.4708  25.4911
    25.4911  25.4911  25.6625  25.6625  25.6625  25.6625  25.6625  25.6625
    25.6675  25.6675  25.6675  27.1326  27.1326  27.1326  27.2767  27.2767
    27.2767  27.6732  27.6732

          k = 0.0558 0.0558 0.1673 ( 29807 PWs)   bands (ev):

   -49.5834 -49.5017 -49.4798 -49.4798 -49.4599 -49.4599 -49.4415 -49.4346
   -49.4346 -49.4233 -49.4218 -49.4218 -49.4156 -49.4126 -49.4125 -49.4120
   -49.4119 -49.4102 -49.4035 -49.4016 -49.4016 -49.3941 -49.3941 -49.3590
   -49.3568 -49.3568 -49.3565 -49.3565 -49.3554 -49.3554 -49.3550 -49.3549
   -20.0037 -19.9997 -19.9997 -19.9914 -19.9373 -19.9373 -19.9324 -19.7699
   -19.7560 -19.7560 -19.7424 -19.7424 -19.7396 -19.7396 -19.7341 -19.7315
   -19.7315 -19.7075 -19.7075 -19.6918 -19.6918 -19.6778 -19.6778 -19.6771
   -19.6771 -19.6368 -19.6368 -19.6188 -19.6188 -19.6068 -19.5772 -19.5772
   -19.5382 -19.5382 -19.4912 -19.4912 -19.4580 -19.4580 -19.4466 -19.4466
   -19.4144 -19.3751 -19.3751 -19.3627 -19.3627 -19.3610 -19.3610 -19.3567
   -19.3556 -19.3556 -19.3446 -19.3446 -19.3443 -19.3412 -19.3412 -19.3398
   -19.3394 -19.3394 -19.3358 -19.3224 -19.3224 -19.2094 -19.2080 -19.1838
   -19.1838 -19.1675 -19.1675 -19.1502 -19.1502 -19.1475 -19.1475 -19.1388
   -19.1388 -19.1329 -19.1329 -19.1325 -19.1265 -19.1254 -19.1254 -19.1143
   -19.1139 -19.1131 -19.1131 -19.1120 -19.1120 -19.1103 -19.1094 -19.1061
   -19.1061 -19.1053 -19.0943 -19.0817 -19.0817 -18.9949 -18.9754 -18.9733
    15.7059  17.1903  17.2030  17.2030  17.4764  17.5117  17.5117  17.5293
    17.5864  17.6510  17.6757  17.6757  17.9482  17.9482  18.0623  18.1160
    18.1160  18.4471  18.4471  18.6187  18.6187  18.6263  18.6285  18.6285
    18.8614  18.9282  18.9282  18.9654  18.9654  19.0134  19.0495  19.0495
    19.1993  19.1993  19.2334  19.2334  19.2403  19.2404  19.3137  19.3137
    19.3814  19.3814  19.4524  19.7555  19.7555  19.7808  19.7808  19.8338
    19.8338  19.8469  19.8469  19.9031  19.9032  19.9981  19.9981  20.0230
    20.1110  20.1110  20.1202  20.1202  20.2212  20.2433  20.2433  20.2794
    20.2794  20.2826  20.2826  20.2985  20.2985  20.5510  20.5510  20.5614
    20.5614  20.5945  20.6530  20.6706  20.7027  20.7028  20.7793  20.8166
    20.8170  20.8510  20.8510  20.8514  20.8514  20.8623  20.9551  20.9591
    21.6711  21.6712  21.8075  21.8075  21.8935  21.9192  22.0317  22.0317
    22.0619  22.1599  22.1599  22.1993  22.3416  22.3416  22.3472  22.3747
    22.3748  22.4230  22.4230  22.4642  22.5213  22.5213  22.8517  22.8518
    22.8733  22.8734  22.8870  22.8870  22.9992  22.9992  23.0141  23.0141
    23.1379  23.1379  23.1602  23.1602  23.2422  23.2608  23.2742  23.2742
    23.3185  23.3403  23.4799  23.4799  23.4984  23.5448  23.5448  23.6321
    23.6660  23.6660  23.6778  23.7298  23.7298  23.9195  23.9486  24.1687
    24.1687  24.3634  24.3634  24.4344  24.8979  24.8979  25.0137  25.0137
    25.0278  25.0632  25.1285  25.1285  25.1330  25.3314  25.4009  25.5316
    25.5316  25.5329  25.5329  25.5545  25.6610  25.6610  25.6622  25.6622
    25.8372  25.8372  26.0658  26.6059  26.6060  26.9737  27.0726  27.1398
    27.1398  27.6158  27.6158

          k = 0.0558 0.0558 0.2789 ( 29809 PWs)   bands (ev):

   -49.5765 -49.5206 -49.4760 -49.4760 -49.4567 -49.4566 -49.4451 -49.4450
   -49.4306 -49.4306 -49.4226 -49.4225 -49.4173 -49.4125 -49.4124 -49.4121
   -49.4120 -49.4086 -49.4041 -49.3912 -49.3912 -49.3854 -49.3853 -49.3659
   -49.3606 -49.3606 -49.3597 -49.3596 -49.3554 -49.3553 -49.3550 -49.3549
   -19.9845 -19.9766 -19.9766 -19.9643 -19.9202 -19.9202 -19.9057 -19.8176
   -19.8022 -19.8022 -19.7803 -19.7795 -19.7795 -19.7459 -19.7459 -19.7398
   -19.7398 -19.7076 -19.7076 -19.6839 -19.6833 -19.6833 -19.6809 -19.6809
   -19.6436 -19.6436 -19.6396 -19.6396 -19.6026 -19.6026 -19.5616 -19.5616
   -19.5313 -19.5313 -19.5278 -19.5278 -19.4879 -19.4879 -19.4857 -19.4857
   -19.3800 -19.3800 -19.3624 -19.3540 -19.3540 -19.3457 -19.3457 -19.3331
   -19.3288 -19.3280 -19.3280 -19.3216 -19.3216 -19.3141 -19.3141 -19.3107
   -19.3107 -19.2924 -19.2828 -19.2828 -19.2751 -19.2408 -19.2387 -19.1990
   -19.1990 -19.1739 -19.1739 -19.1698 -19.1698 -19.1648 -19.1648 -19.1623
   -19.1535 -19.1535 -19.1492 -19.1492 -19.1324 -19.1254 -19.1175 -19.1175
   -19.1167 -19.1130 -19.1130 -19.1123 -19.1122 -19.1058 -19.1058 -19.1027
   -19.0952 -19.0792 -19.0776 -19.0768 -19.0768 -19.0270 -18.9868 -18.9840
    15.8778  17.2105  17.2912  17.3294  17.3294  17.5754  17.6274  17.6274
    17.6615  17.7278  17.8018  17.8018  17.9587  18.0699  18.0699  18.2371
    18.2371  18.2449  18.2449  18.3867  18.5174  18.6169  18.6169  18.6835
    18.7116  18.7117  18.7437  18.7437  18.8760  18.8761  18.9015  18.9015
    19.0078  19.0078  19.0902  19.0902  19.1827  19.1827  19.2651  19.2651
    19.4475  19.4475  19.6554  19.6554  19.7196  19.7196  19.7233  19.7233
    19.7356  19.7356  19.7400  19.7834  19.7835  19.8845  19.8846  20.0454
    20.0454  20.0873  20.1630  20.1630  20.2178  20.2178  20.2939  20.2939
    20.3090  20.3091  20.3635  20.3635  20.3915  20.5648  20.6288  20.6288
    20.6365  20.6365  20.6881  20.7397  20.8996  20.9510  20.9510  20.9744
    20.9858  21.0015  21.0015  21.0508  21.0543  21.1095  21.3871  21.3871
    21.4547  21.4547  21.4551  21.4551  21.6633  21.7787  21.7787  21.8137
    21.8279  21.8877  22.2526  22.2933  22.2933  22.5077  22.5077  22.5257
    22.5257  22.5628  22.5628  22.6418  22.6418  22.7643  22.7643  22.8671
    22.8671  22.9919  22.9919  22.9985  23.0086  23.0086  23.0305  23.0305
    23.0874  23.0874  23.1013  23.1637  23.1945  23.1945  23.3126  23.3822
    23.3822  23.3896  23.4465  23.4465  23.5893  23.7275  23.7972  23.7972
    23.8028  23.8823  23.8824  23.9264  23.9571  23.9571  23.9801  24.2023
    24.2023  24.3500  24.3500  24.5993  24.6227  24.6227  24.8019  24.8020
    24.8334  24.9707  24.9707  24.9726  25.0019  25.0629  25.2933  25.2933
    25.2945  25.2945  25.3522  25.6601  25.6601  25.6617  25.6618  25.8024
    26.0883  26.0883  26.2785  26.2785  26.4435  26.6028  26.6028  26.6311
    26.9500  27.4962  27.4962

          k = 0.0558 0.0558 0.3905 ( 29825 PWs)   bands (ev):

   -49.5665 -49.5381 -49.4704 -49.4704 -49.4547 -49.4547 -49.4520 -49.4520
   -49.4387 -49.4387 -49.4216 -49.4189 -49.4125 -49.4124 -49.4122 -49.4120
   -49.4072 -49.4049 -49.4048 -49.3817 -49.3817 -49.3773 -49.3773 -49.3761
   -49.3661 -49.3661 -49.3643 -49.3643 -49.3554 -49.3553 -49.3551 -49.3550
   -19.9543 -19.9432 -19.9432 -19.9274 -19.8950 -19.8950 -19.8680 -19.8662
   -19.8529 -19.8529 -19.8320 -19.8236 -19.8236 -19.7539 -19.7447 -19.7447
   -19.7305 -19.7305 -19.7238 -19.7238 -19.6969 -19.6969 -19.6546 -19.6546
   -19.6249 -19.6249 -19.6058 -19.6058 -19.5911 -19.5911 -19.5808 -19.5808
   -19.5679 -19.5679 -19.5252 -19.5252 -19.5217 -19.5217 -19.4821 -19.4821
   -19.4070 -19.4070 -19.3520 -19.3520 -19.3475 -19.3475 -19.3165 -19.3126
   -19.3058 -19.2835 -19.2835 -19.2798 -19.2798 -19.2764 -19.2764 -19.2761
   -19.2761 -19.2696 -19.2668 -19.2461 -19.2461 -19.2447 -19.2213 -19.2213
   -19.2051 -19.2051 -19.2050 -19.2050 -19.2024 -19.1990 -19.1862 -19.1862
   -19.1836 -19.1836 -19.1614 -19.1375 -19.1375 -19.1238 -19.1194 -19.1129
   -19.1128 -19.1125 -19.1124 -19.1116 -19.1116 -19.1012 -19.1011 -19.1004
   -19.0965 -19.0790 -19.0790 -19.0728 -19.0505 -19.0483 -19.0035 -19.0006
    16.1282  16.8165  17.4342  17.5107  17.5107  17.7317  17.7924  17.7990
    17.7990  17.8416  17.8478  17.9869  17.9869  17.9896  17.9896  18.1737
    18.2071  18.2415  18.2416  18.2987  18.2987  18.3664  18.4276  18.4276
    18.5419  18.5419  18.6684  18.6685  18.8377  18.8377  18.8816  18.8816
    18.9107  18.9107  19.0973  19.0973  19.1247  19.1247  19.3457  19.3457
    19.3592  19.3592  19.4576  19.4576  19.6057  19.6057  19.6576  19.6577
    19.6983  19.6983  19.7672  19.7672  19.7706  19.7706  20.0187  20.0269
    20.0269  20.0810  20.0810  20.1874  20.3124  20.3125  20.3163  20.3163
    20.3180  20.3180  20.4398  20.4932  20.5046  20.5319  20.5319  20.5449
    20.5449  20.6718  20.7432  20.7432  21.0298  21.0957  21.0957  21.1100
    21.1100  21.1242  21.1242  21.1314  21.1936  21.1961  21.4185  21.4373
    21.4373  21.5115  21.5607  21.6036  21.6041  21.6057  21.6057  21.6148
    22.0981  22.0981  22.4211  22.4211  22.4290  22.4942  22.4942  22.6350
    22.6350  22.6395  22.6923  22.6984  22.6985  22.7420  22.7421  22.7797
    22.7797  22.8299  22.8299  22.8425  22.8425  22.9041  22.9571  22.9571
    23.0002  23.0002  23.0201  23.0201  23.1119  23.1119  23.3379  23.3379
    23.4623  23.4819  23.4819  23.6036  23.6712  23.8007  23.8007  23.9354
    24.1325  24.1325  24.1325  24.2406  24.2473  24.2473  24.2873  24.2873
    24.5157  24.5157  24.5173  24.5759  24.6761  24.6761  24.6782  24.7396
    24.7396  24.7615  24.7991  24.8008  24.9793  24.9793  24.9831  24.9831
    25.0383  25.0384  25.1192  25.5831  25.5831  25.6601  25.6601  25.6611
    25.6612  25.7933  26.0642  26.0643  26.1811  26.6916  26.6916  26.7614
    27.1301  27.3062  27.3062

          k = 0.0558 0.0558-0.5020 ( 29820 PWs)   bands (ev):

   -49.5536 -49.5534 -49.4634 -49.4634 -49.4632 -49.4632 -49.4460 -49.4460
   -49.4458 -49.4458 -49.4205 -49.4203 -49.4124 -49.4122 -49.4122 -49.4121
   -49.4060 -49.4058 -49.3893 -49.3891 -49.3733 -49.3733 -49.3731 -49.3731
   -49.3703 -49.3703 -49.3701 -49.3701 -49.3553 -49.3551 -49.3551 -49.3550
   -19.9148 -19.9148 -19.9013 -19.9012 -19.9011 -19.9010 -19.8825 -19.8824
   -19.8626 -19.8626 -19.8624 -19.8624 -19.8153 -19.8151 -19.7369 -19.7369
   -19.7369 -19.7369 -19.7154 -19.7154 -19.7154 -19.7154 -19.6231 -19.6231
   -19.6230 -19.6230 -19.5997 -19.5997 -19.5995 -19.5995 -19.5656 -19.5656
   -19.5655 -19.5655 -19.5538 -19.5537 -19.5536 -19.5536 -19.4415 -19.4415
   -19.4413 -19.4413 -19.3498 -19.3496 -19.3496 -19.3495 -19.2953 -19.2951
   -19.2919 -19.2917 -19.2512 -19.2511 -19.2499 -19.2498 -19.2497 -19.2497
   -19.2425 -19.2425 -19.2424 -19.2424 -19.2399 -19.2399 -19.2398 -19.2398
   -19.2270 -19.2269 -19.2268 -19.2267 -19.2137 -19.2137 -19.2135 -19.2135
   -19.1998 -19.1997 -19.1309 -19.1307 -19.1228 -19.1228 -19.1227 -19.1227
   -19.1218 -19.1216 -19.1128 -19.1126 -19.1126 -19.1124 -19.0984 -19.0982
   -19.0876 -19.0876 -19.0875 -19.0875 -19.0251 -19.0249 -19.0224 -19.0223
    16.4466  16.4468  17.6075  17.6077  17.7356  17.7357  17.7358  17.7359
    17.9433  17.9434  17.9909  17.9911  18.0239  18.0239  18.0241  18.0241
    18.0846  18.0847  18.2370  18.2370  18.2372  18.2372  18.4482  18.4482
    18.4483  18.4484  18.6483  18.6483  18.6485  18.6485  18.9760  18.9760
    18.9761  18.9761  19.1199  19.1199  19.1201  19.1201  19.2762  19.2762
    19.2763  19.2764  19.4756  19.4756  19.4758  19.4758  19.7047  19.7047
    19.7048  19.7048  19.7229  19.7229  19.7229  19.7229  20.0332  20.0332
    20.0332  20.0332  20.2774  20.2776  20.3092  20.3094  20.3204  20.3204
    20.3205  20.3206  20.4236  20.4237  20.4238  20.4239  20.5864  20.5865
    20.8006  20.8006  20.8006  20.8006  20.9058  20.9058  20.9059  20.9059
    21.2044  21.2045  21.2805  21.2806  21.2807  21.2807  21.3291  21.3292
    21.3805  21.3806  21.3834  21.3836  22.0801  22.0802  22.0802  22.0802
    22.0873  22.0873  22.1168  22.1168  22.4750  22.4750  22.4751  22.4751
    22.6695  22.6697  22.7762  22.7762  22.7762  22.7762  22.7982  22.7982
    22.7984  22.7984  22.8766  22.8767  22.8768  22.8768  22.8924  22.8925
    22.8926  22.8926  22.9577  22.9577  22.9579  22.9579  23.2170  23.2170
    23.2172  23.2172  23.5567  23.5569  24.1711  24.1712  24.1712  24.1713
    24.1851  24.1853  24.2709  24.2709  24.4539  24.4539  24.4540  24.4541
    24.5073  24.5074  24.5392  24.5392  24.6205  24.6206  24.6207  24.6207
    24.6374  24.6374  24.6375  24.6375  24.9260  24.9261  25.1032  25.1033
    25.1033  25.1033  25.1267  25.1269  25.5350  25.5350  25.5350  25.5350
    25.6604  25.6606  25.6606  25.6607  26.5043  26.5045  27.0381  27.0382
    27.0383  27.0384  27.5342

          k = 0.0558 0.1673 0.1673 ( 29796 PWs)   bands (ev):

   -49.5799 -49.4995 -49.4995 -49.4780 -49.4583 -49.4472 -49.4402 -49.4402
   -49.4340 -49.4339 -49.4214 -49.4214 -49.4191 -49.4138 -49.4091 -49.4091
   -49.4085 -49.4085 -49.4019 -49.4019 -49.3947 -49.3946 -49.3866 -49.3589
   -49.3589 -49.3583 -49.3583 -49.3572 -49.3571 -49.3562 -49.3562 -49.3554
   -19.9962 -19.9962 -19.9842 -19.9714 -19.9287 -19.9245 -19.9245 -19.7766
   -19.7766 -19.7701 -19.7701 -19.7386 -19.7368 -19.7368 -19.7354 -19.7354
   -19.7307 -19.7307 -19.7247 -19.7247 -19.7052 -19.7052 -19.7021 -19.7021
   -19.6402 -19.6160 -19.6160 -19.6117 -19.6117 -19.5929 -19.5929 -19.5691
   -19.5691 -19.5524 -19.5345 -19.4760 -19.4531 -19.4531 -19.4142 -19.4142
   -19.4023 -19.4023 -19.3785 -19.3775 -19.3775 -19.3551 -19.3551 -19.3421
   -19.3421 -19.3389 -19.3389 -19.3371 -19.3371 -19.3369 -19.3362 -19.3362
   -19.3267 -19.3267 -19.2974 -19.2974 -19.2825 -19.2170 -19.2170 -19.2015
   -19.2015 -19.1769 -19.1722 -19.1624 -19.1472 -19.1472 -19.1464 -19.1464
   -19.1403 -19.1391 -19.1381 -19.1381 -19.1363 -19.1363 -19.1237 -19.1199
   -19.1199 -19.1171 -19.1171 -19.1168 -19.1082 -19.1066 -19.1066 -19.1057
   -19.0989 -19.0989 -19.0827 -19.0827 -19.0642 -19.0176 -18.9807 -18.9723
    15.7918  17.2553  17.2553  17.2615  17.4975  17.5503  17.6024  17.6024
    17.6480  17.6480  17.7137  17.7137  17.7430  17.9951  18.1312  18.1312
    18.1625  18.4795  18.4796  18.5080  18.5080  18.6723  18.6723  18.6769
    18.6769  18.7510  18.7510  18.8418  18.8909  18.8909  18.9849  19.0459
    19.0459  19.0708  19.0708  19.0841  19.2471  19.3301  19.3301  19.3376
    19.3376  19.3791  19.3791  19.4790  19.4790  19.7188  19.7188  19.8244
    19.8244  19.8413  19.8947  19.8947  19.9248  19.9248  19.9758  19.9758
    20.0117  20.1956  20.1956  20.2056  20.2056  20.2973  20.2973  20.3654
    20.3654  20.4140  20.4927  20.4927  20.5898  20.5898  20.6115  20.6115
    20.6633  20.6633  20.6846  20.7656  20.7656  20.7666  20.7806  20.7915
    20.8425  20.8425  20.8562  20.9029  20.9354  20.9354  20.9764  21.0019
    21.5320  21.6387  21.6692  21.6692  21.9258  21.9258  22.0929  22.1080
    22.1081  22.1181  22.1181  22.1837  22.1837  22.2020  22.2020  22.2295
    22.2295  22.3901  22.4535  22.5626  22.5626  22.5830  22.5830  22.6337
    22.7151  22.9999  22.9999  23.1232  23.1317  23.1317  23.1470  23.1470
    23.1886  23.1886  23.2200  23.2740  23.2740  23.3197  23.3521  23.3521
    23.4135  23.4135  23.4364  23.4746  23.4746  23.5790  23.6702  23.7326
    23.7326  23.7611  23.7611  23.8430  23.8547  23.8547  23.9874  23.9874
    24.1990  24.3990  24.5705  24.5752  24.5752  24.7156  24.7156  24.8933
    25.0062  25.0062  25.0725  25.1550  25.1550  25.1660  25.1769  25.4257
    25.4257  25.5306  25.5306  25.5344  25.5344  25.5528  25.5528  25.5977
    25.7880  26.0960  26.4278  26.4278  26.5464  26.5464  27.0833  27.0833
    27.5798  27.5798  27.7080

          k = 0.0558 0.1673 0.2789 ( 29815 PWs)   bands (ev):

   -49.5732 -49.5181 -49.4951 -49.4742 -49.4593 -49.4552 -49.4441 -49.4376
   -49.4327 -49.4299 -49.4225 -49.4214 -49.4208 -49.4163 -49.4155 -49.4069
   -49.4053 -49.4024 -49.3971 -49.3958 -49.3918 -49.3862 -49.3796 -49.3658
   -49.3620 -49.3615 -49.3614 -49.3588 -49.3587 -49.3575 -49.3560 -49.3555
   -19.9811 -19.9774 -19.9579 -19.9410 -19.9116 -19.9088 -19.8992 -19.8249
   -19.8156 -19.7806 -19.7796 -19.7761 -19.7761 -19.7721 -19.7506 -19.7466
   -19.7450 -19.7286 -19.7269 -19.7190 -19.7163 -19.7125 -19.7088 -19.6891
   -19.6703 -19.6323 -19.6165 -19.5982 -19.5981 -19.5837 -19.5775 -19.5751
   -19.5540 -19.5477 -19.5204 -19.5074 -19.4899 -19.4522 -19.4402 -19.4131
   -19.4020 -19.3971 -19.3738 -19.3646 -19.3598 -19.3434 -19.3424 -19.3393
   -19.3346 -19.3323 -19.3275 -19.3174 -19.3077 -19.3034 -19.3014 -19.2992
   -19.2990 -19.2946 -19.2608 -19.2583 -19.2487 -19.2444 -19.2338 -19.2328
   -19.1895 -19.1887 -19.1835 -19.1813 -19.1738 -19.1721 -19.1712 -19.1684
   -19.1589 -19.1530 -19.1442 -19.1397 -19.1395 -19.1368 -19.1311 -19.1265
   -19.1251 -19.1231 -19.1197 -19.1158 -19.1076 -19.1069 -19.1009 -19.0855
   -19.0847 -19.0828 -19.0784 -19.0666 -19.0540 -19.0535 -18.9922 -18.9783
    15.9609  17.2743  17.3567  17.3765  17.3822  17.5755  17.6447  17.7300
    17.7463  17.7675  17.7893  17.8386  17.8760  18.0278  18.0840  18.2506
    18.2554  18.2654  18.2964  18.4288  18.4374  18.5400  18.5512  18.6148
    18.6278  18.6280  18.7301  18.7562  18.7639  18.7681  18.7847  18.7912
    18.9248  18.9442  18.9602  19.0681  19.0986  19.1824  19.1965  19.3422
    19.3616  19.3900  19.4312  19.5294  19.5693  19.6327  19.6467  19.6684
    19.6760  19.7377  19.7590  19.8081  19.8961  19.9104  19.9233  19.9957
    20.0333  20.0702  20.1748  20.3022  20.3289  20.3736  20.3891  20.4386
    20.4516  20.4794  20.5125  20.5428  20.6147  20.6306  20.6384  20.6539
    20.6705  20.7686  20.7820  20.8232  20.8414  20.8898  20.9289  20.9417
    20.9973  21.0568  21.0573  21.0648  21.0891  21.0929  21.3182  21.3425
    21.3702  21.4299  21.4370  21.6646  21.6676  21.6849  21.8379  21.8786
    21.9553  21.9710  22.0083  22.1376  22.1757  22.2303  22.3030  22.3977
    22.4203  22.4553  22.5084  22.5633  22.6042  22.6130  22.7155  22.7972
    22.8271  22.9140  22.9198  22.9581  22.9623  22.9863  23.1011  23.1052
    23.1133  23.1320  23.2206  23.2478  23.3159  23.3584  23.4184  23.4339
    23.4519  23.4802  23.4836  23.6725  23.7678  23.7716  23.7923  23.8207
    23.8445  24.0059  24.0257  24.0640  24.0722  24.0760  24.1094  24.1226
    24.1304  24.2142  24.3306  24.4252  24.5880  24.7030  24.8048  24.8292
    24.8424  24.9176  24.9453  25.0591  25.0793  25.0825  25.2318  25.2326
    25.2947  25.2975  25.3621  25.4137  25.5302  25.5359  25.5473  25.5599
    25.6063  25.9844  26.0308  26.4269  26.5484  26.8609  26.9687  27.0450
    27.0616  27.1591  28.0835

          k = 0.0558 0.1673 0.3905 ( 29808 PWs)   bands (ev):

   -49.5633 -49.5353 -49.4886 -49.4705 -49.4688 -49.4535 -49.4506 -49.4378
   -49.4337 -49.4308 -49.4256 -49.4229 -49.4198 -49.4171 -49.4055 -49.4041
   -49.4032 -49.4023 -49.3975 -49.3860 -49.3825 -49.3785 -49.3758 -49.3731
   -49.3679 -49.3674 -49.3659 -49.3625 -49.3585 -49.3579 -49.3558 -49.3555
   -19.9549 -19.9481 -19.9220 -19.9012 -19.8866 -19.8858 -19.8743 -19.8643
   -19.8618 -19.8295 -19.8207 -19.8158 -19.8024 -19.7742 -19.7686 -19.7556
   -19.7549 -19.7525 -19.7484 -19.7380 -19.7138 -19.6991 -19.6975 -19.6776
   -19.6533 -19.6368 -19.6308 -19.6105 -19.6093 -19.5786 -19.5541 -19.5523
   -19.5465 -19.5328 -19.5237 -19.5048 -19.4884 -19.4751 -19.4751 -19.4569
   -19.4312 -19.4006 -19.3420 -19.3402 -19.3368 -19.3323 -19.3305 -19.3262
   -19.3204 -19.3108 -19.3103 -19.2848 -19.2781 -19.2741 -19.2726 -19.2696
   -19.2647 -19.2633 -19.2558 -19.2487 -19.2272 -19.2257 -19.2256 -19.2155
   -19.2115 -19.2099 -19.2092 -19.2089 -19.2086 -19.2024 -19.2023 -19.1749
   -19.1724 -19.1678 -19.1516 -19.1481 -19.1431 -19.1417 -19.1411 -19.1349
   -19.1321 -19.1292 -19.1136 -19.1132 -19.1090 -19.1056 -19.1010 -19.0957
   -19.0875 -19.0813 -19.0674 -19.0564 -19.0516 -19.0372 -19.0090 -18.9919
    16.2072  16.8850  17.5005  17.5438  17.5644  17.7098  17.7941  17.8607
    17.9013  17.9100  17.9375  17.9402  18.0011  18.0244  18.0439  18.0708
    18.1405  18.2053  18.2280  18.2505  18.3707  18.3777  18.4152  18.4560
    18.4572  18.4906  18.5703  18.6205  18.6210  18.6531  18.8031  18.8228
    18.8880  18.9003  18.9499  18.9572  19.0655  19.2685  19.2757  19.2986
    19.3069  19.4058  19.4185  19.4777  19.4826  19.5203  19.5458  19.5575
    19.5951  19.5978  19.7495  19.7540  19.7565  19.8695  20.0189  20.0296
    20.0366  20.0979  20.3003  20.3195  20.3521  20.3905  20.4086  20.4260
    20.4511  20.4842  20.4981  20.5675  20.5717  20.5815  20.6204  20.6520
    20.7481  20.7513  20.7888  20.9794  21.0425  21.0769  21.0959  21.1319
    21.1944  21.2170  21.2207  21.2369  21.2398  21.2410  21.2531  21.2912
    21.3862  21.4703  21.5306  21.5497  21.6099  21.6221  21.7097  21.7403
    21.9647  22.0521  22.1004  22.1731  22.1840  22.2388  22.3476  22.4205
    22.4379  22.4684  22.5027  22.5231  22.5247  22.5279  22.5966  22.6655
    22.7354  22.7895  22.8877  22.9169  22.9360  23.0016  23.0294  23.0479
    23.0719  23.1669  23.2111  23.2219  23.3168  23.3491  23.3606  23.4368
    23.4830  23.5243  23.6714  23.7076  23.7569  23.7583  23.8330  23.8496
    24.0402  24.0671  24.1349  24.2309  24.3572  24.3575  24.3794  24.3877
    24.4109  24.4227  24.4358  24.5304  24.5430  24.6270  24.6300  24.7286
    24.8060  24.9136  24.9197  24.9803  24.9812  24.9815  24.9869  24.9951
    25.1369  25.1412  25.2120  25.4590  25.5278  25.5312  25.5376  25.5425
    25.5429  25.7260  26.0119  26.2476  26.2788  26.4284  26.5940  26.7940
    27.2820  27.6084  27.9036

          k = 0.0558 0.1673-0.5020 ( 29792 PWs)   bands (ev):

   -49.5506 -49.5504 -49.4804 -49.4803 -49.4619 -49.4617 -49.4448 -49.4447
   -49.4289 -49.4287 -49.4285 -49.4283 -49.4186 -49.4184 -49.4044 -49.4042
   -49.3998 -49.3996 -49.3888 -49.3886 -49.3762 -49.3761 -49.3744 -49.3742
   -49.3717 -49.3715 -49.3674 -49.3672 -49.3583 -49.3581 -49.3557 -49.3555
   -19.9187 -19.9186 -19.9097 -19.9096 -19.8783 -19.8782 -19.8562 -19.8561
   -19.8544 -19.8543 -19.8541 -19.8540 -19.8136 -19.8135 -19.7646 -19.7646
   -19.7565 -19.7564 -19.7554 -19.7554 -19.6992 -19.6992 -19.6758 -19.6757
   -19.6437 -19.6436 -19.6358 -19.6357 -19.5889 -19.5888 -19.5536 -19.5535
   -19.5225 -19.5223 -19.5064 -19.5062 -19.5045 -19.5044 -19.4657 -19.4656
   -19.4348 -19.4346 -19.3412 -19.3411 -19.3307 -19.3306 -19.3043 -19.3041
   -19.2892 -19.2891 -19.2854 -19.2852 -19.2785 -19.2784 -19.2580 -19.2579
   -19.2476 -19.2475 -19.2407 -19.2406 -19.2379 -19.2378 -19.2357 -19.2356
   -19.2343 -19.2341 -19.2051 -19.2051 -19.1975 -19.1974 -19.1781 -19.1779
   -19.1758 -19.1757 -19.1605 -19.1604 -19.1589 -19.1588 -19.1371 -19.1369
   -19.1324 -19.1323 -19.1258 -19.1257 -19.1110 -19.1108 -19.0913 -19.0911
   -19.0909 -19.0908 -19.0563 -19.0563 -19.0307 -19.0306 -19.0119 -19.0118
    16.5205  16.5207  17.6748  17.6750  17.7561  17.7563  17.7907  17.7909
    17.8990  17.8991  17.9969  17.9969  18.0482  18.0484  18.1398  18.1398
    18.1460  18.1462  18.1792  18.1793  18.2691  18.2693  18.3215  18.3216
    18.3457  18.3458  18.5098  18.5099  18.6928  18.6930  18.7159  18.7160
    19.0037  19.0037  19.0257  19.0258  19.0813  19.0815  19.1670  19.1672
    19.4287  19.4287  19.4588  19.4589  19.4907  19.4907  19.5306  19.5306
    19.6029  19.6030  19.6630  19.6631  19.6750  19.6752  20.1507  20.1508
    20.2206  20.2207  20.2251  20.2252  20.2799  20.2801  20.3498  20.3498
    20.4917  20.4919  20.5213  20.5214  20.6919  20.6921  20.7334  20.7336
    20.8018  20.8018  20.8486  20.8486  20.9013  20.9013  21.0882  21.0882
    21.1992  21.1993  21.2955  21.2956  21.3750  21.3752  21.3828  21.3830
    21.4130  21.4131  21.4457  21.4457  21.8860  21.8861  21.9297  21.9298
    21.9616  21.9617  22.0117  22.0117  22.1757  22.1758  22.1797  22.1799
    22.4430  22.4432  22.6255  22.6255  22.6439  22.6441  22.7003  22.7003
    22.7015  22.7017  22.7654  22.7656  22.8304  22.8305  22.9401  22.9403
    23.1406  23.1407  23.1629  23.1631  23.2708  23.2709  23.5423  23.5425
    23.5789  23.5791  23.5793  23.5795  23.6490  23.6492  24.1100  24.1102
    24.1964  24.1966  24.2079  24.2079  24.4327  24.4328  24.4881  24.4881
    24.6167  24.6168  24.6713  24.6713  24.6718  24.6719  24.6935  24.6936
    24.6941  24.6942  24.7017  24.7018  24.7151  24.7151  24.9076  24.9077
    25.0504  25.0505  25.4834  25.4834  25.5345  25.5346  25.5397  25.5399
    25.7781  25.7782  26.0111  26.0113  26.0214  26.0214  26.5604  26.5606
    27.6370  27.6372  28.0662

          k = 0.0558 0.2789 0.2789 ( 29835 PWs)   bands (ev):

   -49.5666 -49.5132 -49.5132 -49.4730 -49.4707 -49.4523 -49.4423 -49.4423
   -49.4287 -49.4287 -49.4274 -49.4194 -49.4193 -49.4188 -49.4027 -49.4027
   -49.4021 -49.4021 -49.3929 -49.3929 -49.3880 -49.3880 -49.3741 -49.3654
   -49.3654 -49.3649 -49.3648 -49.3625 -49.3625 -49.3580 -49.3580 -49.3557
   -19.9667 -19.9667 -19.9291 -19.9076 -19.8948 -19.8863 -19.8863 -19.8242
   -19.8242 -19.8201 -19.8201 -19.7811 -19.7811 -19.7576 -19.7576 -19.7530
   -19.7530 -19.7505 -19.7505 -19.7424 -19.7423 -19.7142 -19.7142 -19.7140
   -19.6985 -19.6985 -19.6141 -19.6057 -19.5773 -19.5773 -19.5569 -19.5569
   -19.5482 -19.5413 -19.5062 -19.5062 -19.4315 -19.4315 -19.4306 -19.4019
   -19.4019 -19.3963 -19.3963 -19.3617 -19.3617 -19.3393 -19.3393 -19.3267
   -19.3267 -19.3206 -19.3204 -19.3203 -19.3057 -19.3057 -19.2834 -19.2834
   -19.2651 -19.2651 -19.2631 -19.2631 -19.2264 -19.2264 -19.2242 -19.2242
   -19.2093 -19.2093 -19.2078 -19.1989 -19.1771 -19.1771 -19.1757 -19.1686
   -19.1686 -19.1656 -19.1654 -19.1654 -19.1374 -19.1374 -19.1357 -19.1356
   -19.1330 -19.1252 -19.1112 -19.1092 -19.1092 -19.1070 -19.0990 -19.0990
   -19.0937 -19.0816 -19.0816 -19.0510 -19.0510 -19.0385 -19.0039 -18.9780
    16.1243  17.3990  17.3990  17.4719  17.4847  17.4847  17.6285  17.7134
    17.8805  17.8805  17.9117  17.9117  18.0193  18.1125  18.1629  18.1629
    18.2682  18.2949  18.2949  18.3368  18.3485  18.3485  18.4126  18.4126
    18.4836  18.4836  18.5384  18.5384  18.7436  18.8391  18.8392  18.8584
    18.8584  18.8785  18.8785  18.9710  18.9710  19.0729  19.0729  19.1551
    19.1552  19.2695  19.4193  19.4194  19.4914  19.4930  19.4930  19.7314
    19.7314  19.7455  19.7455  19.7925  19.7926  19.8028  19.8576  20.2031
    20.2031  20.3088  20.3088  20.3892  20.3892  20.4671  20.4671  20.5135
    20.5136  20.5248  20.5249  20.6019  20.6156  20.6915  20.6915  20.7821
    20.7836  20.8576  20.8576  21.0126  21.0134  21.0134  21.0688  21.0927
    21.1047  21.1467  21.1467  21.1593  21.1930  21.2079  21.2079  21.2119
    21.3773  21.3773  21.4990  21.4990  21.7347  21.7347  21.8754  21.8755
    21.9325  21.9325  22.0468  22.0468  22.0562  22.1321  22.1520  22.1520
    22.1919  22.1919  22.3697  22.3952  22.5419  22.5586  22.5586  22.5689
    22.5689  22.6982  22.7598  22.8950  22.8950  23.0480  23.0650  23.0650
    23.3545  23.3578  23.3578  23.4896  23.4896  23.5156  23.5157  23.6232
    23.6276  23.6391  23.6391  23.7290  23.7290  23.8318  23.8318  23.8392
    23.8392  23.8948  23.8948  24.1625  24.1901  24.1901  24.2455  24.3394
    24.3394  24.3463  24.3658  24.3658  24.5254  24.5802  24.7569  24.7569
    24.9646  25.0940  25.0940  25.1119  25.1211  25.1211  25.1290  25.1536
    25.3003  25.3004  25.3018  25.3018  25.3434  25.3434  25.3514  25.3514
    25.4532  25.8109  25.9168  25.9168  26.4406  26.4407  27.5006  27.5006
    27.7699  27.8109  27.8109

          k = 0.0558 0.2789 0.3905 ( 29801 PWs)   bands (ev):

   -49.5570 -49.5299 -49.5059 -49.4855 -49.4656 -49.4512 -49.4480 -49.4396
   -49.4360 -49.4320 -49.4269 -49.4218 -49.4163 -49.4078 -49.4025 -49.3992
   -49.3977 -49.3946 -49.3905 -49.3901 -49.3841 -49.3807 -49.3751 -49.3699
   -49.3697 -49.3690 -49.3690 -49.3648 -49.3633 -49.3608 -49.3572 -49.3561
   -19.9447 -19.9418 -19.8915 -19.8714 -19.8701 -19.8675 -19.8659 -19.8657
   -19.8531 -19.8157 -19.8156 -19.8141 -19.8004 -19.7987 -19.7812 -19.7792
   -19.7784 -19.7654 -19.7611 -19.7582 -19.7374 -19.7340 -19.7163 -19.7104
   -19.7036 -19.6727 -19.6410 -19.6396 -19.6085 -19.5832 -19.5377 -19.5276
   -19.5168 -19.4953 -19.4858 -19.4648 -19.4634 -19.4615 -19.4395 -19.4301
   -19.3882 -19.3880 -19.3694 -19.3556 -19.3471 -19.3440 -19.3258 -19.3228
   -19.3123 -19.3083 -19.3053 -19.2949 -19.2902 -19.2889 -19.2747 -19.2686
   -19.2584 -19.2569 -19.2562 -19.2552 -19.2474 -19.2343 -19.2233 -19.2197
   -19.2161 -19.2119 -19.1974 -19.1968 -19.1967 -19.1889 -19.1881 -19.1867
   -19.1740 -19.1633 -19.1609 -19.1548 -19.1508 -19.1497 -19.1478 -19.1471
   -19.1442 -19.1275 -19.1223 -19.1187 -19.1176 -19.1144 -19.1126 -19.1000
   -19.0863 -19.0861 -19.0693 -19.0379 -19.0306 -19.0234 -19.0210 -18.9858
    16.3625  17.0193  17.5783  17.6163  17.6301  17.6687  17.7342  17.8332
    17.9943  18.0201  18.0392  18.0608  18.0621  18.0751  18.0937  18.0982
    18.1549  18.1550  18.2207  18.2233  18.2753  18.3025  18.3363  18.3569
    18.3596  18.4158  18.5559  18.5694  18.5797  18.5807  18.6268  18.6894
    18.7650  18.8705  18.9301  18.9776  18.9993  19.0006  19.0356  19.0392
    19.1372  19.2307  19.2517  19.3370  19.3769  19.4932  19.5058  19.5361
    19.6223  19.7037  19.8218  19.8318  19.8581  19.8759  20.0445  20.1091
    20.1314  20.1528  20.2537  20.3943  20.4647  20.4651  20.5675  20.5752
    20.6059  20.6262  20.6272  20.7090  20.7648  20.7662  20.7706  20.9033
    20.9041  20.9797  20.9953  21.0114  21.0274  21.0405  21.1235  21.1747
    21.2173  21.2237  21.2592  21.2788  21.2912  21.3612  21.3924  21.3996
    21.4061  21.4751  21.5092  21.5363  21.6116  21.6765  21.7344  21.8210
    21.8843  21.8890  21.9239  21.9557  21.9818  22.0079  22.0324  22.0528
    22.1633  22.1738  22.1961  22.2472  22.3664  22.4003  22.4144  22.4788
    22.5811  22.5886  22.7556  22.7803  22.9083  22.9438  23.0355  23.1131
    23.2587  23.2891  23.3001  23.3533  23.4245  23.5127  23.5769  23.5859
    23.6676  23.7064  23.7551  23.8598  23.8699  23.8853  23.9586  24.0223
    24.0732  24.0748  24.2336  24.2343  24.2357  24.2836  24.4664  24.5137
    24.5331  24.5497  24.5885  24.5950  24.6097  24.6173  24.6185  24.6601
    24.7350  24.8874  24.9564  24.9742  24.9752  24.9877  25.0073  25.0121
    25.0193  25.0885  25.2946  25.3076  25.3130  25.3269  25.3804  25.4196
    25.7497  25.8707  25.8879  25.9101  25.9568  26.2829  27.1621  27.1842
    27.9428  28.1204  28.4451

          k = 0.0558 0.2789-0.5020 ( 29810 PWs)   bands (ev):

   -49.5447 -49.5445 -49.4967 -49.4965 -49.4591 -49.4589 -49.4426 -49.4424
   -49.4362 -49.4360 -49.4247 -49.4245 -49.4125 -49.4123 -49.3968 -49.3966
   -49.3938 -49.3937 -49.3877 -49.3875 -49.3791 -49.3789 -49.3765 -49.3763
   -49.3745 -49.3743 -49.3647 -49.3645 -49.3642 -49.3641 -49.3567 -49.3565
   -19.9125 -19.9124 -19.9076 -19.9075 -19.8472 -19.8471 -19.8433 -19.8431
   -19.8384 -19.8382 -19.8174 -19.8173 -19.8102 -19.8100 -19.8025 -19.8025
   -19.8001 -19.8000 -19.7732 -19.7731 -19.7228 -19.7227 -19.7149 -19.7147
   -19.6791 -19.6790 -19.6342 -19.6342 -19.6282 -19.6281 -19.4994 -19.4993
   -19.4969 -19.4969 -19.4778 -19.4777 -19.4603 -19.4601 -19.4412 -19.4412
   -19.4218 -19.4216 -19.3247 -19.3245 -19.3216 -19.3215 -19.3195 -19.3193
   -19.3095 -19.3095 -19.3074 -19.3073 -19.2943 -19.2943 -19.2846 -19.2844
   -19.2546 -19.2545 -19.2453 -19.2453 -19.2287 -19.2286 -19.2271 -19.2270
   -19.2091 -19.2089 -19.2030 -19.2029 -19.1989 -19.1988 -19.1859 -19.1858
   -19.1721 -19.1719 -19.1564 -19.1563 -19.1549 -19.1548 -19.1547 -19.1547
   -19.1440 -19.1438 -19.1318 -19.1317 -19.1172 -19.1170 -19.0975 -19.0975
   -19.0926 -19.0924 -19.0432 -19.0430 -19.0306 -19.0306 -19.0013 -19.0012
    16.6657  16.6660  17.8030  17.8032  17.8063  17.8065  17.8077  17.8078
    17.8916  17.8917  17.8977  17.8979  18.0029  18.0029  18.1623  18.1625
    18.2101  18.2102  18.2885  18.2885  18.3079  18.3080  18.3331  18.3332
    18.3532  18.3533  18.4537  18.4537  18.4765  18.4766  18.5982  18.5984
    18.7854  18.7856  18.8897  18.8898  19.0024  19.0024  19.1299  19.1301
    19.1390  19.1390  19.2746  19.2747  19.3864  19.3865  19.4207  19.4207
    19.7922  19.7922  19.8641  19.8642  19.9630  19.9632  19.9650  19.9651
    19.9980  19.9981  20.2733  20.2735  20.5230  20.5231  20.6429  20.6431
    20.6676  20.6676  20.7460  20.7462  20.7742  20.7743  20.8066  20.8067
    20.8917  20.8918  21.0530  21.0530  21.1652  21.1653  21.2547  21.2547
    21.2583  21.2583  21.3361  21.3361  21.3742  21.3743  21.3908  21.3909
    21.5638  21.5639  21.6040  21.6040  21.6193  21.6194  21.6261  21.6261
    21.8094  21.8094  21.8163  21.8163  21.9099  21.9100  21.9176  21.9177
    22.1336  22.1337  22.3670  22.3670  22.5124  22.5126  22.5427  22.5427
    22.5744  22.5745  22.6166  22.6167  22.7294  22.7296  22.9270  22.9271
    23.1182  23.1183  23.4413  23.4414  23.4813  23.4815  23.5472  23.5474
    23.6917  23.6918  23.9495  23.9497  23.9894  23.9895  24.1086  24.1088
    24.2051  24.2052  24.2793  24.2794  24.3643  24.3644  24.3657  24.3658
    24.6228  24.6228  24.6233  24.6234  24.7307  24.7307  24.7989  24.7989
    24.7992  24.7993  24.8211  24.8211  24.8413  24.8414  24.8432  24.8433
    24.9482  24.9482  25.3154  25.3156  25.3371  25.3372  25.3838  25.3839
    25.5367  25.5369  26.0864  26.0866  26.4912  26.4914  26.5755  26.5755
    28.3114  28.3116  28.6412

          k = 0.0558 0.3905 0.3905 ( 29842 PWs)   bands (ev):

   -49.5478 -49.5219 -49.5219 -49.4994 -49.4609 -49.4477 -49.4477 -49.4442
   -49.4380 -49.4334 -49.4334 -49.4262 -49.4003 -49.4003 -49.3940 -49.3940
   -49.3934 -49.3934 -49.3866 -49.3866 -49.3841 -49.3841 -49.3741 -49.3741
   -49.3736 -49.3736 -49.3714 -49.3714 -49.3653 -49.3594 -49.3594 -49.3570
   -19.9244 -19.9244 -19.8598 -19.8598 -19.8577 -19.8577 -19.8533 -19.8459
   -19.8403 -19.8403 -19.8225 -19.8130 -19.8130 -19.8031 -19.8031 -19.7781
   -19.7781 -19.7637 -19.7637 -19.7622 -19.7622 -19.7612 -19.7612 -19.7225
   -19.7225 -19.7204 -19.6802 -19.6337 -19.6280 -19.5729 -19.5729 -19.4989
   -19.4778 -19.4778 -19.4420 -19.4420 -19.4364 -19.4036 -19.4036 -19.3882
   -19.3882 -19.3871 -19.3870 -19.3699 -19.3699 -19.3206 -19.3205 -19.3195
   -19.3195 -19.3050 -19.3049 -19.2972 -19.2957 -19.2957 -19.2923 -19.2923
   -19.2784 -19.2784 -19.2469 -19.2469 -19.2385 -19.2385 -19.2347 -19.2255
   -19.2255 -19.2006 -19.2006 -19.1967 -19.1885 -19.1885 -19.1884 -19.1884
   -19.1703 -19.1652 -19.1652 -19.1635 -19.1635 -19.1566 -19.1485 -19.1414
   -19.1353 -19.1295 -19.1255 -19.1234 -19.1234 -19.1162 -19.1114 -19.0931
   -19.0931 -19.0882 -19.0882 -19.0387 -19.0171 -19.0139 -19.0139 -18.9872
    16.5888  17.2140  17.2141  17.7344  17.7483  17.8049  17.8167  17.8167
    17.9160  18.0798  18.0798  18.1112  18.1116  18.1116  18.1869  18.1869
    18.1966  18.1966  18.2094  18.2094  18.2493  18.2511  18.2511  18.3131
    18.3131  18.3806  18.4332  18.4975  18.4976  18.7051  18.7051  18.7074
    18.7074  18.7110  18.7110  18.7175  18.7175  18.9584  18.9584  18.9661
    18.9661  19.0253  19.0253  19.2765  19.2765  19.4152  19.6151  19.6151
    19.6192  19.6193  19.7995  19.9512  19.9512  19.9721  19.9939  20.0499
    20.0499  20.3806  20.3956  20.3956  20.5565  20.6715  20.6715  20.7747
    20.7999  20.7999  20.8075  20.8075  20.8081  20.8081  20.8492  20.8492
    20.9209  20.9643  21.1392  21.1392  21.2349  21.2349  21.2398  21.2917
    21.2929  21.3142  21.3177  21.3566  21.4088  21.4088  21.4496  21.4496
    21.5868  21.5868  21.6025  21.6025  21.6170  21.6348  21.6348  21.6991
    21.7622  21.7622  21.8024  21.8024  21.8151  21.8278  21.8778  21.8778
    21.9014  21.9015  22.0347  22.1056  22.1056  22.1376  22.1376  22.4205
    22.5740  22.5740  22.5898  22.5898  22.6842  22.6842  22.7486  22.8311
    23.1480  23.4843  23.5318  23.5318  23.5570  23.5570  23.8290  23.8290
    23.8386  23.8386  23.9404  23.9404  24.0013  24.0013  24.0720  24.1123
    24.2592  24.2592  24.3691  24.3954  24.3955  24.4134  24.4134  24.4231
    24.4231  24.5117  24.6209  24.7214  24.7596  24.7809  24.7809  24.7839
    24.7839  24.8301  24.8919  24.9507  24.9507  24.9987  24.9987  25.0141
    25.0141  25.0409  25.0446  25.0446  25.0619  25.0619  25.2364  25.2637
    25.2637  25.5963  25.7676  25.7676  26.5424  26.5424  27.8423  27.8423
    27.9048  27.9048  28.6225

          k = 0.0558 0.3905-0.5020 ( 29834 PWs)   bands (ev):

   -49.5360 -49.5359 -49.5117 -49.5115 -49.4550 -49.4548 -49.4433 -49.4431
   -49.4394 -49.4392 -49.4302 -49.4300 -49.3975 -49.3973 -49.3898 -49.3896
   -49.3884 -49.3882 -49.3861 -49.3860 -49.3818 -49.3816 -49.3796 -49.3794
   -49.3785 -49.3783 -49.3730 -49.3728 -49.3622 -49.3620 -49.3581 -49.3580
   -19.8967 -19.8966 -19.8949 -19.8948 -19.8399 -19.8398 -19.8398 -19.8398
   -19.8237 -19.8235 -19.8150 -19.8148 -19.8092 -19.8091 -19.8048 -19.8047
   -19.7866 -19.7865 -19.7738 -19.7737 -19.7635 -19.7633 -19.7503 -19.7501
   -19.7218 -19.7217 -19.6758 -19.6757 -19.6065 -19.6064 -19.5358 -19.5358
   -19.4397 -19.4397 -19.4306 -19.4305 -19.4174 -19.4172 -19.4030 -19.4028
   -19.3775 -19.3774 -19.3511 -19.3509 -19.3469 -19.3467 -19.3451 -19.3450
   -19.3368 -19.3368 -19.3009 -19.3007 -19.2858 -19.2858 -19.2784 -19.2782
   -19.2627 -19.2625 -19.2561 -19.2561 -19.2544 -19.2544 -19.2363 -19.2362
   -19.2152 -19.2150 -19.2144 -19.2143 -19.1814 -19.1812 -19.1775 -19.1774
   -19.1773 -19.1773 -19.1694 -19.1694 -19.1447 -19.1446 -19.1402 -19.1401
   -19.1363 -19.1362 -19.1308 -19.1306 -19.1126 -19.1124 -19.1073 -19.1072
   -19.1023 -19.1022 -19.0614 -19.0612 -19.0116 -19.0115 -18.9967 -18.9967
    16.8771  16.8773  17.4608  17.4610  17.9002  17.9003  17.9210  17.9210
    17.9960  17.9962  18.0418  18.0418  18.0497  18.0499  18.0846  18.0847
    18.2182  18.2182  18.2244  18.2244  18.3318  18.3320  18.4282  18.4283
    18.4284  18.4284  18.4662  18.4662  18.4704  18.4705  18.5051  18.5053
    18.6845  18.6846  18.7094  18.7095  18.8231  18.8233  18.8671  18.8671
    18.8909  18.8909  19.1827  19.1828  19.4054  19.4056  19.4208  19.4210
    19.7651  19.7652  19.7758  19.7760  20.0296  20.0297  20.1196  20.1196
    20.2381  20.2382  20.3282  20.3282  20.5121  20.5123  20.7690  20.7692
    20.8282  20.8282  20.8800  20.8800  20.9800  20.9800  21.0322  21.0323
    21.1441  21.1443  21.1674  21.1674  21.1957  21.1957  21.3549  21.3549
    21.3554  21.3554  21.3787  21.3788  21.4028  21.4029  21.4341  21.4342
    21.5026  21.5027  21.5401  21.5402  21.5605  21.5606  21.5875  21.5876
    21.6914  21.6915  21.6984  21.6984  21.8460  21.8460  21.8711  21.8712
    21.8780  21.8781  22.0466  22.0467  22.2962  22.2964  22.2988  22.2988
    22.3411  22.3412  22.3611  22.3612  22.5156  22.5158  22.7000  22.7002
    23.3537  23.3539  23.6268  23.6269  23.7407  23.7408  23.7862  23.7863
    23.8146  23.8147  24.0580  24.0581  24.1337  24.1338  24.1541  24.1543
    24.2319  24.2320  24.3153  24.3154  24.4318  24.4318  24.5748  24.5750
    24.6409  24.6410  24.7335  24.7336  24.8026  24.8026  24.8050  24.8051
    24.8226  24.8226  24.8906  24.8907  24.8937  24.8938  24.9298  24.9299
    24.9345  24.9345  25.0162  25.0164  25.0709  25.0711  25.1312  25.1313
    25.2500  25.2500  25.6145  25.6147  27.2039  27.2041  27.2043  27.2043
    28.5641  28.5643  28.6322

          k = 0.0558-0.5020-0.5020 ( 29808 PWs)   bands (ev):

   -49.5250 -49.5248 -49.5248 -49.5246 -49.4497 -49.4495 -49.4495 -49.4493
   -49.4353 -49.4351 -49.4351 -49.4349 -49.3843 -49.3843 -49.3841 -49.3841
   -49.3841 -49.3841 -49.3839 -49.3839 -49.3837 -49.3837 -49.3835 -49.3835
   -49.3835 -49.3835 -49.3833 -49.3833 -49.3600 -49.3599 -49.3599 -49.3597
   -19.8720 -19.8720 -19.8720 -19.8720 -19.8720 -19.8720 -19.8719 -19.8719
   -19.7971 -19.7971 -19.7970 -19.7970 -19.7970 -19.7970 -19.7968 -19.7968
   -19.7851 -19.7850 -19.7849 -19.7848 -19.7665 -19.7664 -19.7664 -19.7663
   -19.7257 -19.7256 -19.7256 -19.7255 -19.5722 -19.5722 -19.5722 -19.5722
   -19.3856 -19.3856 -19.3856 -19.3856 -19.3856 -19.3856 -19.3856 -19.3856
   -19.3793 -19.3793 -19.3791 -19.3791 -19.3791 -19.3791 -19.3789 -19.3789
   -19.3150 -19.3150 -19.3150 -19.3150 -19.2710 -19.2710 -19.2708 -19.2708
   -19.2708 -19.2708 -19.2707 -19.2707 -19.2679 -19.2679 -19.2679 -19.2679
   -19.1978 -19.1978 -19.1977 -19.1977 -19.1976 -19.1976 -19.1975 -19.1975
   -19.1608 -19.1607 -19.1607 -19.1606 -19.1461 -19.1461 -19.1461 -19.1461
   -19.1227 -19.1227 -19.1227 -19.1227 -19.1179 -19.1178 -19.1178 -19.1178
   -19.0848 -19.0846 -19.0846 -19.0844 -19.0001 -19.0001 -19.0001 -19.0001
    17.1461  17.1464  17.1464  17.1466  17.9861  17.9862  17.9862  17.9862
    18.0388  18.0388  18.0388  18.0389  18.1137  18.1137  18.1137  18.1137
    18.2338  18.2338  18.2340  18.2340  18.2340  18.2340  18.2342  18.2342
    18.5538  18.5538  18.5539  18.5540  18.5540  18.5540  18.5541  18.5541
    18.6655  18.6655  18.6655  18.6656  18.6656  18.6656  18.6656  18.6656
    18.9272  18.9273  18.9273  18.9273  19.5741  19.5742  19.5743  19.5743
    19.5743  19.5744  19.5745  19.5745  20.1577  20.1577  20.1577  20.1577
    20.3946  20.3947  20.3947  20.3948  20.6819  20.6820  20.6820  20.6821
    20.9086  20.9086  20.9086  20.9086  20.9229  20.9230  20.9230  20.9230
    21.2805  21.2805  21.2805  21.2805  21.2805  21.2805  21.2806  21.2806
    21.3811  21.3812  21.3812  21.3813  21.5196  21.5197  21.5197  21.5198
    21.5347  21.5347  21.5347  21.5347  21.6781  21.6782  21.6782  21.6783
    21.6991  21.6992  21.6992  21.6992  21.6993  21.6993  21.6993  21.6993
    21.9740  21.9741  21.9741  21.9742  22.0963  22.0963  22.0964  22.0964
    22.0964  22.0964  22.0965  22.0965  22.6072  22.6074  22.6074  22.6076
    23.5965  23.5966  23.5966  23.5968  23.8039  23.8040  23.8040  23.8041
    24.0168  24.0168  24.0169  24.0169  24.0170  24.0170  24.0171  24.0171
    24.5448  24.5449  24.5449  24.5450  24.6742  24.6742  24.6743  24.6743
    24.6743  24.6743  24.6744  24.6745  24.6763  24.6764  24.6764  24.6765
    24.9160  24.9161  24.9161  24.9162  24.9444  24.9444  24.9445  24.9445
    24.9445  24.9445  24.9445  24.9445  24.9553  24.9554  24.9554  24.9554
    25.2138  25.2139  25.2139  25.2140  27.8995  27.8996  27.8996  27.8996
    27.8997  27.8997  27.8997

          k = 0.1673 0.1673 0.1673 ( 29815 PWs)   bands (ev):

   -49.5765 -49.4973 -49.4973 -49.4973 -49.4463 -49.4463 -49.4463 -49.4389
   -49.4389 -49.4389 -49.4243 -49.4092 -49.4091 -49.4091 -49.4091 -49.4091
   -49.4091 -49.4085 -49.4085 -49.4085 -49.3875 -49.3875 -49.3875 -49.3590
   -49.3589 -49.3589 -49.3584 -49.3584 -49.3584 -49.3583 -49.3583 -49.3583
   -19.9851 -19.9851 -19.9851 -19.9474 -19.9167 -19.9167 -19.9167 -19.7772
   -19.7772 -19.7772 -19.7577 -19.7577 -19.7577 -19.7577 -19.7577 -19.7577
   -19.7365 -19.7365 -19.7365 -19.7365 -19.7365 -19.7365 -19.6682 -19.6682
   -19.6682 -19.6261 -19.6261 -19.6261 -19.5765 -19.5765 -19.5765 -19.5765
   -19.5765 -19.5765 -19.4904 -19.4904 -19.4904 -19.3990 -19.3990 -19.3990
   -19.3752 -19.3752 -19.3752 -19.3752 -19.3752 -19.3752 -19.3717 -19.3717
   -19.3717 -19.3315 -19.3315 -19.3315 -19.3262 -19.3262 -19.3262 -19.3262
   -19.3262 -19.3262 -19.2596 -19.2596 -19.2596 -19.2145 -19.2145 -19.2145
   -19.2035 -19.2035 -19.2035 -19.1609 -19.1609 -19.1609 -19.1534 -19.1533
   -19.1533 -19.1362 -19.1362 -19.1362 -19.1362 -19.1362 -19.1362 -19.1253
   -19.1253 -19.1253 -19.1088 -19.1088 -19.1088 -19.1024 -19.1024 -19.1024
   -19.0999 -19.0999 -19.0657 -19.0657 -19.0657 -19.0414 -18.9780 -18.9780
    15.8760  17.3135  17.3135  17.3135  17.4990  17.6553  17.6553  17.6553
    17.6977  17.6977  17.6977  17.7808  17.7808  17.7808  18.1782  18.1782
    18.1782  18.5378  18.5378  18.5378  18.5378  18.5378  18.5378  18.5971
    18.5971  18.5971  18.7360  18.7360  18.7360  18.9736  18.9736  18.9736
    19.0120  19.0120  19.0120  19.0121  19.0121  19.0121  19.3443  19.3443
    19.3443  19.3443  19.3443  19.3443  19.5171  19.5171  19.5172  19.8659
    19.8659  19.8659  20.0088  20.0088  20.0088  20.0088  20.0088  20.0088
    20.1681  20.1681  20.1681  20.2531  20.2531  20.2531  20.2531  20.2531
    20.2531  20.5437  20.5437  20.5437  20.7447  20.7447  20.7447  20.7501
    20.7752  20.7752  20.7752  20.7752  20.7752  20.7752  20.7982  20.7982
    20.7982  20.8585  20.8585  20.9976  20.9976  20.9976  21.0175  21.0175
    21.5536  21.5536  21.5537  21.8410  21.8410  21.8410  21.9148  21.9148
    21.9149  22.0900  22.0901  22.0901  22.2888  22.2888  22.2888  22.3458
    22.3458  22.3458  22.3458  22.3458  22.3458  22.7682  22.7682  22.7683
    22.9339  22.9340  22.9340  23.0584  23.0584  23.0584  23.0944  23.0944
    23.0944  23.1576  23.1576  23.1576  23.1576  23.1576  23.1576  23.2512
    23.2512  23.5662  23.7416  23.7416  23.7416  23.7416  23.7416  23.7416
    24.0066  24.0066  24.0066  24.0165  24.0165  24.0165  24.1141  24.1141
    24.1141  24.4234  24.4234  24.4234  24.6011  24.6011  24.6011  24.8056
    24.8056  24.8056  24.8918  24.8918  25.1988  25.1988  25.1988  25.4283
    25.4283  25.4283  25.4283  25.4283  25.4283  25.5459  25.5459  25.5459
    26.0370  26.0370  26.0371  26.5173  26.5173  26.5173  27.6608  27.6608
    27.6608  27.6608  27.6608

          k = 0.1673 0.1673 0.2789 ( 29831 PWs)   bands (ev):

   -49.5699 -49.5157 -49.4930 -49.4930 -49.4581 -49.4581 -49.4445 -49.4364
   -49.4364 -49.4294 -49.4204 -49.4160 -49.4160 -49.4091 -49.4090 -49.4086
   -49.4086 -49.4036 -49.3973 -49.3973 -49.3893 -49.3808 -49.3808 -49.3656
   -49.3627 -49.3627 -49.3608 -49.3608 -49.3589 -49.3588 -49.3585 -49.3584
   -19.9741 -19.9633 -19.9633 -19.9132 -19.9012 -19.9012 -19.8929 -19.8274
   -19.7999 -19.7999 -19.7767 -19.7767 -19.7722 -19.7722 -19.7719 -19.7719
   -19.7525 -19.7525 -19.7399 -19.7399 -19.7377 -19.7377 -19.7139 -19.6953
   -19.6445 -19.6445 -19.6255 -19.6255 -19.5843 -19.5843 -19.5505 -19.5505
   -19.5347 -19.5347 -19.5245 -19.5244 -19.4357 -19.4357 -19.4290 -19.4136
   -19.4136 -19.3944 -19.3944 -19.3583 -19.3377 -19.3377 -19.3326 -19.3326
   -19.3268 -19.3268 -19.3253 -19.3253 -19.3234 -19.3208 -19.3053 -19.3053
   -19.2996 -19.2996 -19.2507 -19.2333 -19.2256 -19.2256 -19.2239 -19.2238
   -19.2238 -19.1937 -19.1934 -19.1934 -19.1814 -19.1814 -19.1706 -19.1706
   -19.1700 -19.1700 -19.1578 -19.1402 -19.1402 -19.1359 -19.1359 -19.1335
   -19.1306 -19.1306 -19.1192 -19.1192 -19.1059 -19.0919 -19.0880 -19.0880
   -19.0792 -19.0786 -19.0685 -19.0681 -19.0560 -19.0560 -18.9891 -18.9816
    16.0417  17.3296  17.4144  17.4281  17.4281  17.5557  17.7604  17.7604
    17.7930  17.7931  17.8093  17.8560  17.9132  17.9132  18.0765  18.2684
    18.2684  18.3103  18.3103  18.3106  18.4313  18.4313  18.5044  18.5917
    18.5917  18.6513  18.6513  18.6740  18.6740  18.7610  18.8630  18.8630
    18.8811  18.8811  18.8901  18.8901  18.9824  18.9824  19.1001  19.1001
    19.3556  19.3556  19.3795  19.3796  19.5915  19.5915  19.7249  19.7249
    19.7873  19.7887  19.7887  19.8413  19.8824  19.8824  20.0724  20.0724
    20.0847  20.0847  20.2596  20.2597  20.2701  20.2701  20.3800  20.4654
    20.4654  20.5725  20.6551  20.6597  20.6598  20.7104  20.7104  20.7800
    20.7800  20.7902  20.7902  20.8858  20.9036  20.9048  20.9048  20.9101
    21.0850  21.0995  21.1112  21.1112  21.1282  21.1378  21.3296  21.3296
    21.3823  21.3823  21.5800  21.5840  21.5840  21.5873  21.8201  21.8530
    21.8530  22.0283  22.0283  22.0456  22.0588  22.0588  22.3268  22.4547
    22.4547  22.4931  22.4931  22.5701  22.5972  22.5972  22.6906  22.6906
    22.7180  22.8485  22.8485  22.9269  22.9269  22.9492  22.9493  23.0710
    23.0908  23.0908  23.1208  23.1566  23.1566  23.2888  23.3129  23.4111
    23.4304  23.4304  23.7927  23.7927  23.8266  23.8550  23.8550  24.0811
    24.0811  24.0860  24.0860  24.0953  24.0954  24.1447  24.2315  24.2315
    24.2610  24.2610  24.2739  24.6267  24.6267  24.6348  24.6455  24.7191
    24.7998  24.8952  24.8953  25.0200  25.1379  25.1637  25.1637  25.2395
    25.2395  25.2415  25.2415  25.4342  25.4342  25.4502  25.5174  25.5174
    25.5496  25.5496  25.9201  26.7070  26.7070  27.1152  27.1152  27.2543
    27.4769  27.5631  27.5631

          k = 0.1673 0.1673 0.3905 ( 29833 PWs)   bands (ev):

   -49.5601 -49.5326 -49.4867 -49.4867 -49.4690 -49.4690 -49.4417 -49.4340
   -49.4327 -49.4327 -49.4223 -49.4223 -49.4091 -49.4089 -49.4087 -49.4086
   -49.4033 -49.3992 -49.3918 -49.3865 -49.3865 -49.3755 -49.3745 -49.3745
   -49.3689 -49.3689 -49.3644 -49.3644 -49.3588 -49.3587 -49.3585 -49.3584
   -19.9517 -19.9317 -19.9317 -19.8786 -19.8786 -19.8763 -19.8701 -19.8579
   -19.8470 -19.8470 -19.8152 -19.8152 -19.7777 -19.7777 -19.7668 -19.7667
   -19.7667 -19.7631 -19.7631 -19.7580 -19.7429 -19.7429 -19.7180 -19.7180
   -19.6679 -19.6679 -19.5847 -19.5847 -19.5786 -19.5786 -19.5532 -19.5531
   -19.5198 -19.5198 -19.4938 -19.4938 -19.4808 -19.4808 -19.4508 -19.4508
   -19.4226 -19.4226 -19.3640 -19.3388 -19.3246 -19.3245 -19.3244 -19.3243
   -19.3052 -19.3027 -19.3027 -19.2853 -19.2853 -19.2842 -19.2766 -19.2766
   -19.2684 -19.2684 -19.2607 -19.2517 -19.2456 -19.2456 -19.2437 -19.2070
   -19.2070 -19.2062 -19.2062 -19.2004 -19.2004 -19.1911 -19.1911 -19.1854
   -19.1782 -19.1782 -19.1534 -19.1494 -19.1494 -19.1411 -19.1379 -19.1379
   -19.1354 -19.1354 -19.1332 -19.1332 -19.1279 -19.1233 -19.0846 -19.0727
   -19.0718 -19.0718 -19.0542 -19.0542 -19.0508 -19.0376 -19.0053 -18.9932
    16.2830  16.9474  17.5570  17.5951  17.5951  17.6676  17.9123  17.9168
    17.9168  17.9260  17.9260  17.9679  18.0075  18.0499  18.0533  18.0533
    18.1070  18.1070  18.2578  18.2578  18.2954  18.3762  18.3762  18.3949
    18.3949  18.5016  18.6506  18.6506  18.6598  18.6598  18.7166  18.7166
    18.8096  18.8096  18.8116  18.8116  19.0513  19.0513  19.1142  19.1142
    19.3693  19.3693  19.4455  19.4456  19.4940  19.4940  19.5810  19.5810
    19.6703  19.6704  19.6976  19.6976  19.9157  19.9634  19.9634  20.0481
    20.1596  20.1597  20.2086  20.3082  20.3082  20.3675  20.3675  20.4955
    20.5249  20.5249  20.5306  20.5306  20.7738  20.8001  20.8001  20.8035
    20.8035  20.8781  20.9826  20.9826  21.0103  21.1695  21.1695  21.2071
    21.2137  21.2137  21.2154  21.2154  21.2218  21.2661  21.2661  21.2875
    21.3202  21.3490  21.5160  21.5269  21.5837  21.7859  21.8010  21.8010
    21.9014  21.9014  21.9292  21.9292  21.9849  21.9849  22.2301  22.2301
    22.3272  22.4591  22.5853  22.6294  22.6294  22.6479  22.6479  22.8094
    22.8267  22.8267  22.8334  22.8335  22.8726  22.8726  22.9427  22.9823
    22.9823  23.0062  23.0062  23.1132  23.1132  23.2119  23.2119  23.4037
    23.6539  23.6636  23.7601  23.7601  23.7604  23.7614  23.9008  23.9008
    24.1770  24.1770  24.3177  24.3177  24.3472  24.3915  24.3915  24.3920
    24.4087  24.4087  24.4336  24.4336  24.4791  24.4791  24.5467  24.9896
    24.9963  24.9963  25.0000  25.0007  25.0007  25.0051  25.0051  25.0874
    25.0874  25.2723  25.3205  25.3843  25.4161  25.4161  25.4445  25.4445
    25.4858  25.4858  25.7480  26.5533  26.5534  26.8077  26.9566  26.9566
    27.4108  27.4108  27.9359

          k = 0.1673 0.1673-0.5020 ( 29796 PWs)   bands (ev):

   -49.5477 -49.5475 -49.4787 -49.4787 -49.4785 -49.4785 -49.4383 -49.4381
   -49.4281 -49.4280 -49.4279 -49.4279 -49.4090 -49.4088 -49.4088 -49.4086
   -49.3953 -49.3951 -49.3883 -49.3881 -49.3770 -49.3770 -49.3768 -49.3768
   -49.3691 -49.3691 -49.3689 -49.3689 -49.3588 -49.3586 -49.3586 -49.3584
   -19.9186 -19.9185 -19.8923 -19.8922 -19.8921 -19.8920 -19.8497 -19.8497
   -19.8495 -19.8495 -19.8204 -19.8203 -19.8126 -19.8124 -19.7756 -19.7756
   -19.7756 -19.7756 -19.7523 -19.7523 -19.7522 -19.7522 -19.6933 -19.6933
   -19.6932 -19.6932 -19.5741 -19.5741 -19.5741 -19.5741 -19.5296 -19.5296
   -19.5295 -19.5295 -19.4864 -19.4864 -19.4862 -19.4862 -19.4560 -19.4560
   -19.4559 -19.4559 -19.3240 -19.3239 -19.3239 -19.3238 -19.3139 -19.3137
   -19.3012 -19.3012 -19.2850 -19.2848 -19.2718 -19.2718 -19.2716 -19.2716
   -19.2426 -19.2426 -19.2425 -19.2425 -19.2398 -19.2398 -19.2397 -19.2396
   -19.2367 -19.2367 -19.2366 -19.2366 -19.1860 -19.1859 -19.1627 -19.1627
   -19.1626 -19.1625 -19.1622 -19.1622 -19.1620 -19.1620 -19.1506 -19.1505
   -19.1479 -19.1477 -19.1347 -19.1345 -19.1345 -19.1344 -19.0782 -19.0780
   -19.0598 -19.0598 -19.0597 -19.0597 -19.0261 -19.0259 -19.0123 -19.0122
    16.5901  16.5903  17.7293  17.7295  17.8074  17.8075  17.8075  17.8077
    17.8333  17.8334  18.0852  18.0852  18.0854  18.0854  18.1150  18.1152
    18.1227  18.1228  18.1229  18.1229  18.2424  18.2424  18.3556  18.3556
    18.3558  18.3558  18.5483  18.5484  18.5484  18.5484  18.7334  18.7334
    18.7334  18.7335  18.9936  18.9936  18.9938  18.9938  19.2948  19.2948
    19.2948  19.2948  19.3940  19.3940  19.3941  19.3942  19.5462  19.5462
    19.5462  19.5462  19.8267  19.8267  19.8267  19.8268  20.0470  20.0472
    20.2616  20.2616  20.2617  20.2618  20.2882  20.2884  20.4000  20.4000
    20.4001  20.4001  20.8081  20.8081  20.8082  20.8082  20.8417  20.8419
    20.8538  20.8538  20.8538  20.8538  21.0805  21.0805  21.0805  21.0805
    21.1575  21.1576  21.3637  21.3638  21.3836  21.3838  21.4159  21.4159
    21.4159  21.4160  21.5390  21.5391  21.7978  21.7979  21.7980  21.7980
    21.8489  21.8490  21.9286  21.9287  21.9455  21.9455  21.9457  21.9457
    22.5614  22.5615  22.5615  22.5615  22.7407  22.7407  22.7408  22.7408
    22.7450  22.7451  22.8313  22.8313  22.8314  22.8314  22.9531  22.9531
    22.9532  22.9532  23.0043  23.0043  23.0044  23.0045  23.3028  23.3029
    23.5214  23.5216  24.0117  24.0117  24.0400  24.0400  24.0402  24.0402
    24.0940  24.0941  24.0941  24.0943  24.0944  24.0944  24.6654  24.6654
    24.6655  24.6655  24.7150  24.7150  24.7151  24.7152  24.7407  24.7407
    24.7408  24.7408  24.7501  24.7501  24.7502  24.7502  24.7970  24.7970
    25.1650  25.1650  25.4609  25.4611  25.4611  25.4613  25.5271  25.5273
    25.9820  25.9820  25.9821  25.9821  26.0916  26.0918  27.2040  27.2040
    27.2041  27.2042  28.4992

          k = 0.1673 0.2789 0.2789 ( 29818 PWs)   bands (ev):

   -49.5634 -49.5108 -49.5108 -49.4889 -49.4714 -49.4557 -49.4557 -49.4360
   -49.4340 -49.4184 -49.4184 -49.4153 -49.4153 -49.4103 -49.4027 -49.4027
   -49.4021 -49.4021 -49.3979 -49.3978 -49.3831 -49.3831 -49.3756 -49.3654
   -49.3654 -49.3649 -49.3648 -49.3633 -49.3633 -49.3603 -49.3603 -49.3589
   -19.9568 -19.9568 -19.9392 -19.8863 -19.8806 -19.8806 -19.8757 -19.8234
   -19.8234 -19.8111 -19.8111 -19.7829 -19.7829 -19.7785 -19.7784 -19.7702
   -19.7702 -19.7662 -19.7660 -19.7660 -19.7633 -19.7633 -19.7066 -19.7066
   -19.6706 -19.6706 -19.6662 -19.5756 -19.5547 -19.5547 -19.5531 -19.5423
   -19.5423 -19.5118 -19.5118 -19.4740 -19.4592 -19.4592 -19.4213 -19.3794
   -19.3793 -19.3760 -19.3760 -19.3720 -19.3719 -19.3641 -19.3641 -19.3159
   -19.3159 -19.3155 -19.3071 -19.3071 -19.3020 -19.3020 -19.2988 -19.2988
   -19.2839 -19.2839 -19.2626 -19.2626 -19.2254 -19.2254 -19.2198 -19.2136
   -19.2136 -19.1964 -19.1950 -19.1920 -19.1920 -19.1890 -19.1773 -19.1773
   -19.1764 -19.1764 -19.1749 -19.1677 -19.1677 -19.1431 -19.1431 -19.1411
   -19.1411 -19.1391 -19.1199 -19.1061 -19.0974 -19.0936 -19.0898 -19.0878
   -19.0878 -19.0600 -19.0600 -19.0555 -19.0555 -19.0409 -18.9974 -18.9833
    16.2007  17.4370  17.4370  17.5216  17.5280  17.5280  17.5869  17.8375
    17.8420  17.9184  17.9184  17.9876  17.9876  18.0571  18.1715  18.1715
    18.1981  18.1981  18.2139  18.2889  18.3414  18.3414  18.4154  18.4154
    18.5916  18.5917  18.6369  18.6369  18.6880  18.6880  18.7229  18.7571
    18.7572  18.7883  18.7883  18.9015  18.9015  19.0276  19.0276  19.0422
    19.0917  19.0917  19.3609  19.3609  19.6232  19.6232  19.7126  19.7334
    19.7334  19.7367  19.7995  19.7996  19.8402  19.8402  20.0760  20.0760
    20.0785  20.2751  20.2751  20.3420  20.3420  20.4199  20.4956  20.4956
    20.5468  20.5468  20.5954  20.6693  20.6693  20.7382  20.7382  20.9099
    20.9171  20.9382  20.9382  20.9802  21.0779  21.0897  21.0897  21.1308
    21.1542  21.1542  21.1600  21.2186  21.2686  21.2686  21.2834  21.2999
    21.2999  21.3890  21.4603  21.4603  21.5953  21.5953  21.7774  21.7828
    21.7828  21.8966  21.9328  21.9329  22.1696  22.1696  22.2143  22.2143
    22.2996  22.2997  22.3250  22.3889  22.3889  22.6028  22.6821  22.6968
    22.7050  22.7233  22.7233  22.7682  22.7682  23.0317  23.0318  23.0934
    23.2037  23.2156  23.2156  23.2636  23.2637  23.2945  23.3302  23.3302
    23.4252  23.4252  23.4909  23.5811  23.5811  23.8786  23.8786  24.1105
    24.1464  24.1464  24.1844  24.1845  24.3880  24.3880  24.3922  24.4027
    24.4628  24.4628  24.4660  24.4660  24.6253  24.6793  24.6793  24.7350
    24.7882  24.8033  25.0995  25.1405  25.1405  25.1644  25.1644  25.2190
    25.2573  25.2573  25.2594  25.2594  25.3373  25.3373  25.4376  25.4376
    25.4385  25.4386  25.4613  26.6209  27.0288  27.0288  27.4897  27.4897
    27.7461  27.7461  28.1044

          k = 0.1673 0.2789 0.3905 ( 29793 PWs)   bands (ev):

   -49.5539 -49.5272 -49.5037 -49.4837 -49.4829 -49.4660 -49.4521 -49.4421
   -49.4307 -49.4211 -49.4156 -49.4144 -49.4118 -49.4075 -49.4019 -49.4008
   -49.3986 -49.3962 -49.3903 -49.3875 -49.3865 -49.3774 -49.3749 -49.3708
   -49.3708 -49.3704 -49.3681 -49.3650 -49.3639 -49.3630 -49.3599 -49.3592
   -19.9387 -19.9300 -19.9064 -19.8705 -19.8646 -19.8626 -19.8542 -19.8501
   -19.8299 -19.8228 -19.8136 -19.8129 -19.8127 -19.8048 -19.7894 -19.7869
   -19.7825 -19.7785 -19.7633 -19.7623 -19.7608 -19.7524 -19.7511 -19.7238
   -19.7210 -19.6936 -19.6227 -19.5723 -19.5715 -19.5288 -19.5224 -19.5213
   -19.5204 -19.4984 -19.4865 -19.4824 -19.4732 -19.4521 -19.4137 -19.4133
   -19.4127 -19.4059 -19.3916 -19.3577 -19.3407 -19.3256 -19.3127 -19.3088
   -19.3072 -19.2999 -19.2994 -19.2980 -19.2948 -19.2828 -19.2812 -19.2739
   -19.2696 -19.2663 -19.2620 -19.2611 -19.2571 -19.2542 -19.2429 -19.2299
   -19.2167 -19.2135 -19.2130 -19.2013 -19.2008 -19.1933 -19.1866 -19.1831
   -19.1712 -19.1708 -19.1641 -19.1631 -19.1581 -19.1571 -19.1540 -19.1520
   -19.1517 -19.1432 -19.1422 -19.1176 -19.1070 -19.1056 -19.0819 -19.0800
   -19.0657 -19.0594 -19.0592 -19.0420 -19.0336 -19.0274 -19.0132 -18.9905
    16.4322  17.0694  17.5899  17.6639  17.6685  17.6693  17.6939  17.9110
    17.9604  17.9809  17.9914  18.0139  18.0727  18.0842  18.0925  18.0988
    18.1120  18.1532  18.1796  18.2609  18.3087  18.3355  18.3394  18.3946
    18.4278  18.4974  18.5102  18.5565  18.5592  18.5833  18.6847  18.7120
    18.7220  18.7515  18.7959  18.8068  18.8305  18.8427  18.8742  19.0998
    19.2425  19.2822  19.3488  19.3557  19.3842  19.4009  19.5560  19.5969
    19.6068  19.7851  19.8601  19.8853  19.9012  19.9095  20.0433  20.0784
    20.0843  20.1510  20.1830  20.3144  20.3530  20.4719  20.5036  20.6400
    20.6492  20.6574  20.6874  20.8335  20.8583  20.9284  20.9380  20.9485
    20.9860  21.0188  21.0509  21.0678  21.0889  21.0908  21.1334  21.1678
    21.1750  21.2282  21.2470  21.2556  21.3413  21.3655  21.3842  21.4173
    21.4390  21.4537  21.4656  21.4894  21.5674  21.6554  21.7147  21.7564
    21.7621  21.8006  21.8526  21.8786  21.9024  21.9515  22.0090  22.0090
    22.0722  22.1633  22.2804  22.3561  22.4228  22.5150  22.5382  22.6847
    22.6881  22.7837  22.7958  22.8553  22.9202  22.9266  22.9490  22.9589
    22.9870  23.0250  23.1610  23.1824  23.2182  23.2470  23.3390  23.3665
    23.3775  23.5915  23.6036  23.6207  23.6831  23.7327  24.0381  24.1721
    24.2271  24.2564  24.2594  24.2764  24.3249  24.3328  24.4730  24.5500
    24.5653  24.5912  24.6440  24.6617  24.6626  24.6840  24.6847  24.7045
    24.8699  24.9648  24.9834  25.0067  25.0098  25.0307  25.0407  25.0774
    25.0979  25.1347  25.2786  25.2881  25.2884  25.3226  25.3502  25.3852
    25.3948  25.9503  25.9544  26.4783  26.6479  26.9059  27.1672  27.4071
    27.7324  28.1168  28.2587

          k = 0.1673 0.2789-0.5020 ( 29804 PWs)   bands (ev):

   -49.5418 -49.5417 -49.4947 -49.4945 -49.4753 -49.4751 -49.4476 -49.4474
   -49.4264 -49.4262 -49.4133 -49.4131 -49.4120 -49.4118 -49.3997 -49.3995
   -49.3910 -49.3908 -49.3873 -49.3871 -49.3796 -49.3794 -49.3785 -49.3784
   -49.3725 -49.3723 -49.3667 -49.3665 -49.3646 -49.3644 -49.3596 -49.3594
   -19.9096 -19.9096 -19.8951 -19.8950 -19.8668 -19.8667 -19.8398 -19.8396
   -19.8371 -19.8369 -19.8105 -19.8103 -19.8054 -19.8054 -19.7994 -19.7993
   -19.7861 -19.7860 -19.7783 -19.7783 -19.7596 -19.7595 -19.7365 -19.7364
   -19.7234 -19.7233 -19.5787 -19.5787 -19.5720 -19.5720 -19.5101 -19.5100
   -19.4855 -19.4854 -19.4676 -19.4676 -19.4549 -19.4548 -19.4491 -19.4490
   -19.4375 -19.4374 -19.3303 -19.3301 -19.3264 -19.3264 -19.3105 -19.3104
   -19.3093 -19.3091 -19.3020 -19.3019 -19.2812 -19.2812 -19.2793 -19.2791
   -19.2495 -19.2493 -19.2493 -19.2492 -19.2415 -19.2415 -19.2329 -19.2327
   -19.2298 -19.2297 -19.2287 -19.2287 -19.2242 -19.2241 -19.1994 -19.1993
   -19.1666 -19.1665 -19.1635 -19.1633 -19.1591 -19.1589 -19.1434 -19.1433
   -19.1381 -19.1380 -19.1291 -19.1289 -19.1286 -19.1285 -19.0733 -19.0731
   -19.0665 -19.0665 -19.0342 -19.0342 -19.0341 -19.0340 -19.0054 -19.0053
    16.7266  16.7268  17.7787  17.7788  17.8018  17.8019  17.8369  17.8370
    17.8534  17.8535  17.9058  17.9059  17.9958  17.9959  18.1283  18.1283
    18.2462  18.2464  18.2707  18.2707  18.3306  18.3307  18.4076  18.4076
    18.4246  18.4247  18.4742  18.4742  18.4824  18.4825  18.5124  18.5125
    18.7161  18.7163  18.7423  18.7423  18.8894  18.8895  19.0762  19.0762
    19.2111  19.2113  19.3949  19.3950  19.4191  19.4191  19.4869  19.4870
    19.5647  19.5647  19.9128  19.9130  19.9825  19.9826  20.0220  20.0221
    20.0950  20.0950  20.2722  20.2724  20.2938  20.2939  20.6551  20.6551
    20.7118  20.7120  20.8671  20.8671  20.9248  20.9249  20.9307  20.9307
    21.0541  21.0541  21.0636  21.0636  21.1643  21.1645  21.1892  21.1892
    21.2493  21.2493  21.3562  21.3563  21.3593  21.3594  21.3851  21.3853
    21.4651  21.4651  21.6074  21.6074  21.6639  21.6639  21.6953  21.6954
    21.7243  21.7244  21.7482  21.7482  21.7536  21.7538  21.7924  21.7924
    22.3186  22.3186  22.3906  22.3907  22.4245  22.4245  22.6446  22.6447
    22.7460  22.7462  22.7519  22.7520  22.7956  22.7958  22.7985  22.7986
    22.9977  22.9978  23.0558  23.0559  23.2321  23.2322  23.3198  23.3200
    23.5135  23.5137  23.9113  23.9115  23.9315  23.9315  23.9651  23.9651
    24.0280  24.0282  24.3191  24.3191  24.4020  24.4021  24.5008  24.5010
    24.5723  24.5723  24.7669  24.7671  24.8124  24.8125  24.8462  24.8462
    24.8479  24.8479  24.8984  24.8984  24.9178  24.9179  24.9312  24.9312
    25.0810  25.0812  25.1685  25.1685  25.3308  25.3309  25.3341  25.3343
    25.9159  25.9159  26.5650  26.5651  26.6680  26.6681  26.7646  26.7648
    27.9494  27.9496  28.9329

          k = 0.1673 0.3905 0.3905 ( 29815 PWs)   bands (ev):

   -49.5449 -49.5194 -49.5194 -49.4973 -49.4773 -49.4617 -49.4617 -49.4495
   -49.4277 -49.4195 -49.4194 -49.4147 -49.3998 -49.3998 -49.3940 -49.3939
   -49.3934 -49.3934 -49.3891 -49.3891 -49.3816 -49.3816 -49.3741 -49.3741
   -49.3736 -49.3736 -49.3718 -49.3718 -49.3673 -49.3618 -49.3618 -49.3599
   -19.9167 -19.9167 -19.8736 -19.8575 -19.8575 -19.8511 -19.8511 -19.8444
   -19.8387 -19.8387 -19.8147 -19.8147 -19.8065 -19.8065 -19.7933 -19.7933
   -19.7911 -19.7911 -19.7824 -19.7767 -19.7767 -19.7675 -19.7675 -19.7653
   -19.7258 -19.6752 -19.6752 -19.5772 -19.5706 -19.5467 -19.5467 -19.4841
   -19.4732 -19.4732 -19.4637 -19.4456 -19.4456 -19.4192 -19.4192 -19.3821
   -19.3821 -19.3778 -19.3778 -19.3705 -19.3705 -19.3472 -19.3472 -19.3189
[...]
   -19.2546 -19.2546 -19.2545 -19.2545 -19.2080 -19.2080 -19.2079 -19.2079
   -19.2078 -19.2078 -19.2077 -19.2077 -19.1911 -19.1911 -19.1911 -19.1911
   -19.0776 -19.0776 -19.0776 -19.0776 -19.0587 -19.0586 -19.0586 -19.0585
   -19.0566 -19.0564 -19.0564 -19.0563 -19.0123 -19.0123 -19.0122 -19.0122
    17.2328  17.2330  17.2330  17.2332  17.6940  17.6941  17.6941  17.6942
    18.1305  18.1305  18.1305  18.1306  18.1810  18.1810  18.1810  18.1811
    18.1812  18.1812  18.1812  18.1812  18.2700  18.2701  18.2701  18.2701
    18.4630  18.4631  18.4631  18.4631  18.4632  18.4632  18.4632  18.4632
    18.8611  18.8611  18.8612  18.8612  18.8613  18.8613  18.8614  18.8614
    19.0273  19.0273  19.0273  19.0273  19.6008  19.6009  19.6010  19.6010
    19.6010  19.6010  19.6011  19.6012  19.7848  19.7849  19.7849  19.7850
    20.3380  20.3380  20.3381  20.3381  20.8344  20.8344  20.8344  20.8345
    21.0896  21.0897  21.0897  21.0897  21.1601  21.1602  21.1602  21.1602
    21.2080  21.2080  21.2080  21.2081  21.2081  21.2081  21.2081  21.2081
    21.3251  21.3252  21.3252  21.3253  21.3516  21.3516  21.3516  21.3517
    21.4025  21.4025  21.4025  21.4026  21.6296  21.6297  21.6297  21.6297
    21.6298  21.6298  21.6298  21.6298  21.7721  21.7722  21.7722  21.7722
    22.1051  22.1051  22.1052  22.1052  22.2981  22.2981  22.2981  22.2981
    22.2982  22.2982  22.2982  22.2982  22.9386  22.9387  22.9387  22.9388
    23.2092  23.2093  23.2093  23.2095  23.2618  23.2618  23.2619  23.2619
    23.2620  23.2620  23.2620  23.2620  23.6575  23.6576  23.6576  23.6577
    23.6734  23.6735  23.6735  23.6736  24.1047  24.1048  24.1048  24.1049
    25.1295  25.1295  25.1295  25.1295  25.1296  25.1296  25.1296  25.1296
    25.1677  25.1678  25.1678  25.1678  25.1951  25.1951  25.1951  25.1951
    25.1952  25.1952  25.1952  25.1953  25.2460  25.2460  25.2460  25.2461
    26.8496  26.8497  26.8497  26.8498  28.1594  28.1594  28.1595  28.1595
    28.1595  28.1596  28.1596

          k = 0.3905 0.3905 0.3905 ( 29803 PWs)   bands (ev):

   -49.5308 -49.5074 -49.5074 -49.5074 -49.4874 -49.4874 -49.4874 -49.4708
   -49.3975 -49.3975 -49.3975 -49.3939 -49.3939 -49.3938 -49.3938 -49.3938
   -49.3938 -49.3935 -49.3935 -49.3934 -49.3772 -49.3772 -49.3772 -49.3741
   -49.3740 -49.3740 -49.3738 -49.3738 -49.3738 -49.3737 -49.3737 -49.3736
   -19.8807 -19.8807 -19.8807 -19.8427 -19.8427 -19.8427 -19.8315 -19.8315
   -19.8315 -19.8267 -19.8267 -19.8267 -19.8267 -19.8267 -19.8267 -19.8220
   -19.8220 -19.8220 -19.8220 -19.8220 -19.8220 -19.7942 -19.7942 -19.7942
   -19.6805 -19.5644 -19.5644 -19.5644 -19.4519 -19.4519 -19.4519 -19.4519
   -19.4519 -19.4519 -19.4461 -19.4461 -19.4461 -19.4433 -19.4433 -19.4433
   -19.4184 -19.4184 -19.4184 -19.3413 -19.3413 -19.3413 -19.3413 -19.3413
   -19.3413 -19.3230 -19.3230 -19.3230 -19.3227 -19.3102 -19.3102 -19.3102
   -19.2698 -19.2698 -19.2698 -19.2507 -19.2507 -19.2507 -19.2507 -19.2507
   -19.2507 -19.2319 -19.2319 -19.2319 -19.2152 -19.2152 -19.2152 -19.2104
   -19.2104 -19.2104 -19.2104 -19.2104 -19.2104 -19.1884 -19.1884 -19.1884
   -19.0831 -19.0831 -19.0831 -19.0632 -19.0632 -19.0536 -19.0536 -19.0536
   -19.0365 -19.0365 -19.0364 -19.0328 -19.0328 -19.0328 -19.0150 -19.0150
    16.9369  17.3952  17.3952  17.3952  17.6206  17.6392  17.6392  17.6392
    17.9684  17.9684  17.9684  18.1977  18.1977  18.1977  18.2820  18.2820
    18.2820  18.2882  18.2882  18.2882  18.2883  18.2883  18.2883  18.3836
    18.3836  18.3836  18.3836  18.3836  18.3836  18.4107  18.4107  18.4107
    18.6684  18.6684  18.6684  19.0468  19.0468  19.0469  19.1530  19.1530
    19.1530  19.1530  19.1530  19.1530  19.5141  19.5141  19.5141  19.5215
    19.5215  19.5215  19.5215  19.5215  19.5215  19.8265  19.8265  19.8265
    20.3625  20.3625  20.3625  20.4497  20.6464  20.6464  20.6465  21.0676
    21.0676  21.0676  21.0676  21.0676  21.0676  21.1627  21.1627  21.2592
    21.2592  21.2593  21.3089  21.3089  21.3165  21.3165  21.3165  21.3260
    21.3260  21.3260  21.3378  21.3378  21.3378  21.3566  21.3810  21.3810
    21.3810  21.4163  21.4163  21.4163  21.4166  21.4166  21.4166  21.4166
    21.4166  21.4166  21.5293  21.5293  21.5293  21.9472  21.9472  21.9472
    22.1644  22.1644  22.1644  22.4811  22.4811  22.4811  22.4811  22.4811
    22.4811  22.4817  22.4817  22.4817  22.8245  22.8245  22.8245  23.0154
    23.0154  23.0154  23.0154  23.0154  23.0154  23.1331  23.1331  23.1332
    23.2270  23.2270  23.2632  23.2633  23.2633  23.4200  23.4200  23.4200
    23.7060  23.7061  23.7061  23.9417  23.9417  24.1123  24.1123  24.1123
    25.0809  25.0809  25.0809  25.1357  25.1357  25.1357  25.1357  25.1357
    25.1357  25.2054  25.2054  25.2054  25.2054  25.2054  25.2054  25.2732
    25.2732  25.2732  25.2901  25.2901  25.2901  25.3851  25.3851  25.3851
    27.0688  27.0688  27.0688  27.9848  27.9848  27.9848  27.9848  27.9848
    27.9848  28.2630  28.2630

          k = 0.3905 0.3905-0.5020 ( 29818 PWs)   bands (ev):

   -49.5203 -49.5201 -49.4984 -49.4984 -49.4982 -49.4982 -49.4799 -49.4797
   -49.3959 -49.3959 -49.3957 -49.3957 -49.3939 -49.3937 -49.3937 -49.3935
   -49.3848 -49.3848 -49.3846 -49.3846 -49.3830 -49.3830 -49.3828 -49.3828
   -49.3754 -49.3754 -49.3752 -49.3752 -49.3741 -49.3739 -49.3739 -49.3737
   -19.8672 -19.8672 -19.8550 -19.8549 -19.8548 -19.8547 -19.8324 -19.8324
   -19.8323 -19.8323 -19.8288 -19.8288 -19.8288 -19.8288 -19.8269 -19.8268
   -19.8268 -19.8267 -19.8166 -19.8165 -19.8107 -19.8107 -19.8106 -19.8106
   -19.6229 -19.6228 -19.5049 -19.5049 -19.5049 -19.5048 -19.4498 -19.4498
   -19.4497 -19.4497 -19.4363 -19.4363 -19.4362 -19.4362 -19.3966 -19.3966
   -19.3965 -19.3965 -19.3831 -19.3831 -19.3755 -19.3755 -19.3731 -19.3729
   -19.3304 -19.3304 -19.3303 -19.3303 -19.3238 -19.3238 -19.3237 -19.3237
   -19.2592 -19.2592 -19.2591 -19.2591 -19.2526 -19.2524 -19.2327 -19.2327
   -19.2325 -19.2325 -19.2319 -19.2319 -19.2319 -19.2319 -19.2216 -19.2216
   -19.2215 -19.2215 -19.2031 -19.2029 -19.2001 -19.2001 -19.2001 -19.2000
   -19.0686 -19.0686 -19.0638 -19.0638 -19.0637 -19.0637 -19.0488 -19.0486
   -19.0331 -19.0331 -19.0331 -19.0331 -19.0327 -19.0325 -19.0193 -19.0192
    17.1503  17.1505  17.5076  17.5076  17.5077  17.5077  17.6172  17.6173
    18.0876  18.0878  18.1054  18.1054  18.1054  18.1054  18.2739  18.2739
    18.2740  18.2740  18.3210  18.3211  18.3212  18.3212  18.3337  18.3337
    18.3337  18.3337  18.3523  18.3523  18.3524  18.3525  18.3673  18.3674
    18.8347  18.8349  18.9118  18.9118  18.9118  18.9118  19.2967  19.2968
    19.2968  19.2968  19.3086  19.3086  19.3087  19.3088  19.3466  19.3466
    19.3467  19.3467  19.6401  19.6402  19.6948  19.6949  19.6949  19.6950
    20.4282  20.4283  20.5179  20.5179  20.5179  20.5179  21.0028  21.0028
    21.2106  21.2106  21.2106  21.2107  21.2259  21.2261  21.2287  21.2287
    21.2345  21.2345  21.2346  21.2346  21.2870  21.2870  21.2870  21.2870
    21.2926  21.2926  21.2926  21.2927  21.3296  21.3296  21.3390  21.3390
    21.3479  21.3480  21.3660  21.3660  21.3661  21.3661  21.3733  21.3733
    21.3734  21.3734  21.7996  21.7996  21.7996  21.7996  21.8506  21.8508
    22.1799  22.1799  22.1799  22.1800  22.2065  22.2066  22.6267  22.6268
    22.6269  22.6269  22.7216  22.7217  22.7217  22.7218  22.7524  22.7524
    22.7524  22.7525  23.1224  23.1225  23.1351  23.1353  23.2009  23.2011
    23.2011  23.2012  23.2298  23.2298  23.2299  23.2299  23.4532  23.4533
    23.6028  23.6028  23.8333  23.8333  23.8334  23.8334  23.9976  23.9977
    25.1713  25.1713  25.1713  25.1714  25.2038  25.2038  25.2038  25.2038
    25.2074  25.2074  25.2562  25.2562  25.2563  25.2563  25.2626  25.2626
    25.2626  25.2627  25.3158  25.3158  25.3159  25.3160  25.3661  25.3661
    27.5031  27.5031  27.5032  27.5032  27.9604  27.9605  28.1077  28.1078
    28.1079  28.1080  28.9064

          k = 0.3905-0.5020-0.5020 ( 29828 PWs)   bands (ev):

   -49.5104 -49.5102 -49.5102 -49.5100 -49.4900 -49.4899 -49.4899 -49.4897
   -49.3950 -49.3948 -49.3948 -49.3946 -49.3841 -49.3841 -49.3840 -49.3840
   -49.3840 -49.3839 -49.3838 -49.3838 -49.3838 -49.3837 -49.3837 -49.3836
   -49.3836 -49.3836 -49.3835 -49.3834 -49.3747 -49.3745 -49.3745 -49.3743
   -19.8488 -19.8488 -19.8487 -19.8487 -19.8487 -19.8487 -19.8486 -19.8486
   -19.8334 -19.8333 -19.8333 -19.8332 -19.8294 -19.8293 -19.8293 -19.8291
   -19.8228 -19.8228 -19.8228 -19.8228 -19.8227 -19.8227 -19.8226 -19.8226
   -19.5639 -19.5638 -19.5638 -19.5638 -19.4452 -19.4451 -19.4451 -19.4451
   -19.4432 -19.4432 -19.4432 -19.4431 -19.3863 -19.3863 -19.3862 -19.3862
   -19.3862 -19.3862 -19.3862 -19.3862 -19.3848 -19.3848 -19.3847 -19.3847
   -19.3847 -19.3847 -19.3846 -19.3846 -19.3254 -19.3253 -19.3253 -19.3253
   -19.2443 -19.2442 -19.2442 -19.2442 -19.2422 -19.2422 -19.2422 -19.2422
   -19.2421 -19.2421 -19.2420 -19.2420 -19.2176 -19.2176 -19.2175 -19.2175
   -19.2174 -19.2174 -19.2173 -19.2173 -19.2114 -19.2113 -19.2113 -19.2113
   -19.0572 -19.0572 -19.0572 -19.0572 -19.0441 -19.0440 -19.0440 -19.0439
   -19.0438 -19.0438 -19.0438 -19.0437 -19.0240 -19.0240 -19.0240 -19.0240
    17.3168  17.3170  17.3170  17.3172  17.5523  17.5524  17.5524  17.5525
    18.1987  18.1987  18.1987  18.1987  18.1993  18.1993  18.1993  18.1993
    18.1994  18.1994  18.1994  18.1995  18.2838  18.2838  18.2838  18.2838
    18.3473  18.3474  18.3474  18.3474  18.3475  18.3475  18.3475  18.3475
    19.0787  19.0787  19.0787  19.0787  19.0789  19.0789  19.0789  19.0789
    19.1387  19.1387  19.1387  19.1387  19.4917  19.4917  19.4918  19.4918
    19.4918  19.4919  19.4919  19.4920  19.5190  19.5191  19.5191  19.5192
    20.4932  20.4932  20.4932  20.4932  20.7755  20.7755  20.7756  20.7756
    21.2380  21.2380  21.2380  21.2381  21.2510  21.2510  21.2510  21.2510
    21.2825  21.2826  21.2826  21.2826  21.2826  21.2827  21.2827  21.2827
    21.2903  21.2903  21.2904  21.2904  21.3257  21.3258  21.3258  21.3259
    21.3355  21.3355  21.3355  21.3355  21.5422  21.5422  21.5423  21.5423
    21.5424  21.5424  21.5424  21.5424  21.6016  21.6016  21.6016  21.6017
    22.3638  22.3639  22.3639  22.3640  22.4462  22.4463  22.4463  22.4463
    22.4463  22.4463  22.4464  22.4464  22.9144  22.9144  22.9144  22.9144
    22.9145  22.9145  22.9146  22.9146  22.9307  22.9308  22.9308  22.9309
    23.1997  23.1999  23.1999  23.2000  23.4953  23.4953  23.4953  23.4954
    23.5716  23.5717  23.5717  23.5718  23.7970  23.7971  23.7971  23.7973
    25.2488  25.2488  25.2489  25.2489  25.2489  25.2489  25.2489  25.2489
    25.2708  25.2709  25.2709  25.2709  25.3177  25.3177  25.3177  25.3177
    25.3178  25.3178  25.3178  25.3178  25.3190  25.3191  25.3191  25.3191
    27.7744  27.7745  27.7745  27.7746  28.4216  28.4217  28.4217  28.4217
    28.4218  28.4218  28.4218

          k =-0.5020-0.5020-0.5020 ( 29824 PWs)   bands (ev):

   -49.5012 -49.5010 -49.5010 -49.5010 -49.5008 -49.5008 -49.5008 -49.5006
   -49.3842 -49.3841 -49.3840 -49.3840 -49.3840 -49.3840 -49.3840 -49.3839
   -49.3839 -49.3839 -49.3838 -49.3838 -49.3838 -49.3838 -49.3837 -49.3837
   -49.3836 -49.3836 -49.3836 -49.3836 -49.3836 -49.3835 -49.3835 -49.3834
   -19.8361 -19.8361 -19.8361 -19.8361 -19.8360 -19.8360 -19.8360 -19.8360
   -19.8360 -19.8360 -19.8360 -19.8359 -19.8359 -19.8358 -19.8358 -19.8358
   -19.8358 -19.8358 -19.8358 -19.8357 -19.8357 -19.8357 -19.8357 -19.8357
   -19.5032 -19.5031 -19.5031 -19.5031 -19.5031 -19.5030 -19.5030 -19.5030
   -19.3860 -19.3859 -19.3859 -19.3859 -19.3859 -19.3859 -19.3859 -19.3858
   -19.3858 -19.3858 -19.3858 -19.3858 -19.3858 -19.3858 -19.3858 -19.3858
   -19.3858 -19.3857 -19.3857 -19.3857 -19.3857 -19.3857 -19.3857 -19.3857
   -19.2294 -19.2294 -19.2294 -19.2293 -19.2293 -19.2293 -19.2293 -19.2293
   -19.2293 -19.2293 -19.2293 -19.2293 -19.2292 -19.2292 -19.2292 -19.2291
   -19.2291 -19.2291 -19.2291 -19.2291 -19.2291 -19.2291 -19.2291 -19.2290
   -19.0394 -19.0394 -19.0394 -19.0393 -19.0393 -19.0393 -19.0393 -19.0393
   -19.0391 -19.0391 -19.0391 -19.0391 -19.0391 -19.0391 -19.0391 -19.0391
    17.4246  17.4247  17.4247  17.4248  17.4249  17.4249  17.4249  17.4251
    18.2560  18.2560  18.2560  18.2560  18.2560  18.2560  18.2560  18.2561
    18.2561  18.2561  18.2561  18.2561  18.2562  18.2562  18.2562  18.2562
    18.2562  18.2562  18.2562  18.2562  18.2562  18.2562  18.2562  18.2562
    19.3014  19.3014  19.3015  19.3015  19.3015  19.3015  19.3015  19.3015
    19.3015  19.3016  19.3016  19.3016  19.3016  19.3017  19.3017  19.3017
    19.3017  19.3017  19.3017  19.3017  19.3018  19.3018  19.3018  19.3018
    20.6534  20.6534  20.6534  20.6534  20.6534  20.6534  20.6534  20.6534
    21.2951  21.2951  21.2951  21.2951  21.2951  21.2951  21.2952  21.2952
    21.2952  21.2952  21.2953  21.2953  21.2953  21.2953  21.2953  21.2953
    21.4154  21.4154  21.4154  21.4154  21.4154  21.4154  21.4155  21.4155
    21.4155  21.4155  21.4155  21.4155  21.4155  21.4155  21.4155  21.4156
    21.4156  21.4156  21.4156  21.4156  21.4156  21.4156  21.4156  21.4156
    22.6428  22.6429  22.6429  22.6429  22.6429  22.6429  22.6430  22.6430
    22.6430  22.6430  22.6430  22.6430  22.6430  22.6431  22.6431  22.6431
    22.6431  22.6431  22.6431  22.6431  22.6431  22.6431  22.6432  22.6432
    23.4910  23.4910  23.4911  23.4911  23.4911  23.4911  23.4912  23.4912
    23.4912  23.4912  23.4912  23.4913  23.4913  23.4913  23.4913  23.4914
    25.3258  25.3258  25.3258  25.3258  25.3258  25.3258  25.3258  25.3258
    25.3259  25.3259  25.3259  25.3259  25.3259  25.3259  25.3260  25.3260
    25.3260  25.3260  25.3260  25.3260  25.3260  25.3260  25.3260  25.3260
    28.7447  28.7448  28.7448  28.7448  28.7448  28.7449  28.7449  28.7449
    28.7449  28.7449  28.7450

     the Fermi energy is    23.4576 ev

!    total energy              =  -13813.29566983 Ry

     total all-electron energy =   -289989.686009 Ry
     estimated scf accuracy    <       0.00000013 Ry
     smearing contrib. (-TS)   =       0.02139076 Ry
     internal energy E=F+TS    =  -13813.31706059 Ry

     The total energy is F=E-TS. E is the sum of the following terms:
     one-electron contribution =    -965.00269573 Ry
     hartree contribution      =     906.92052524 Ry
     xc contribution           =    -928.54004628 Ry
     ewald contribution        =   -5237.23448111 Ry
     one-center paw contrib.   =   -7589.46036272 Ry

     convergence has been achieved in  13 iterations

     Forces acting on atoms (cartesian axes, Ry/au):

     atom    1 type  1   force =     0.00000000    0.00000000    0.00000000
     atom    2 type  1   force =    -0.00000121   -0.00000121    0.00000000
     atom    3 type  1   force =    -0.00000121    0.00000000   -0.00000121
     atom    4 type  1   force =     0.00000000   -0.00000121   -0.00000121
     atom    5 type  1   force =     0.00000000    0.00000000    0.00000000
     atom    6 type  1   force =    -0.00000219   -0.00000219    0.00000000
     atom    7 type  1   force =    -0.00000121   -0.00000000    0.00000121
     atom    8 type  1   force =     0.00000000   -0.00000121    0.00000121
     atom    9 type  1   force =     0.00000000    0.00000000    0.00000000
     atom   10 type  1   force =    -0.00000121    0.00000121   -0.00000000
     atom   11 type  1   force =    -0.00000219    0.00000000   -0.00000219
     atom   12 type  1   force =    -0.00000000    0.00000121   -0.00000121
     atom   13 type  1   force =     0.00000000    0.00000000    0.00000000
     atom   14 type  1   force =    -0.00000219    0.00000219    0.00000000
     atom   15 type  1   force =    -0.00000219    0.00000000    0.00000219
     atom   16 type  1   force =    -0.00000000    0.00000121    0.00000121
     atom   17 type  1   force =     0.00000000    0.00000000    0.00000000
     atom   18 type  1   force =     0.00000121   -0.00000121   -0.00000000
     atom   19 type  1   force =     0.00000121    0.00000000   -0.00000121
     atom   20 type  1   force =     0.00000000   -0.00000219   -0.00000219
     atom   21 type  1   force =     0.00000000    0.00000000    0.00000000
     atom   22 type  1   force =     0.00000219   -0.00000219    0.00000000
     atom   23 type  1   force =     0.00000121   -0.00000000    0.00000121
     atom   24 type  1   force =     0.00000000   -0.00000219    0.00000219
     atom   25 type  1   force =     0.00000000    0.00000000    0.00000000
     atom   26 type  1   force =     0.00000121    0.00000121    0.00000000
     atom   27 type  1   force =     0.00000219    0.00000000   -0.00000219
     atom   28 type  1   force =     0.00000000    0.00000219   -0.00000219
     atom   29 type  1   force =     0.00000000    0.00000000    0.00000000
     atom   30 type  1   force =     0.00000219    0.00000219    0.00000000
     atom   31 type  1   force =     0.00000219    0.00000000    0.00000219
     atom   32 type  1   force =     0.00000000    0.00000219    0.00000219

     Total force =     0.000012     Total SCF correction =     0.000162
     SCF correction compared to forces is large: reduce conv_thr to get better values


     Computing stress (Cartesian axis) and pressure

          total   stress  (Ry/bohr**3)                   (kbar)     P=       34.25
   0.00023281   0.00000000   0.00000000           34.25        0.00        0.00
   0.00000000   0.00023281   0.00000000            0.00       34.25        0.00
   0.00000000   0.00000000   0.00023281            0.00        0.00       34.25


     Writing output data file /scratch/FkElRBWJrqWtYvQL.save/
 
     init_run     :     14.91s CPU     15.41s WALL (       1 calls)
     electrons    :    576.40s CPU    585.11s WALL (       1 calls)
     forces       :      5.08s CPU      5.14s WALL (       1 calls)
     stress       :     31.26s CPU     31.53s WALL (       1 calls)

     Called by init_run:
     wfcinit      :     13.93s CPU     14.36s WALL (       1 calls)
     potinit      :      0.17s CPU      0.19s WALL (       1 calls)
     hinit0       :      0.51s CPU      0.52s WALL (       1 calls)

     Called by electrons:
     c_bands      :    515.27s CPU    522.62s WALL (      14 calls)
     sum_band     :     58.74s CPU     59.84s WALL (      14 calls)
     v_of_rho     :      0.86s CPU      0.88s WALL (      14 calls)
     newd         :      0.30s CPU      0.43s WALL (      14 calls)
     PAW_pot      :      1.18s CPU      1.27s WALL (      14 calls)
     mix_rho      :      0.11s CPU      0.13s WALL (      14 calls)

     Called by c_bands:
     init_us_2    :      1.83s CPU      1.88s WALL (    1085 calls)
     cegterg      :    507.89s CPU    514.93s WALL (     490 calls)

     Called by *egterg:
     cdiaghg      :     70.02s CPU     70.98s WALL (    1892 calls)
     h_psi        :    261.09s CPU    265.52s WALL (    1962 calls)
     s_psi        :     17.93s CPU     18.05s WALL (    1962 calls)
     g_psi        :      0.50s CPU      0.50s WALL (    1437 calls)

     Called by h_psi:
     h_psi:calbec :     36.62s CPU     36.84s WALL (    1962 calls)
     vloc_psi     :    206.11s CPU    209.89s WALL (    1962 calls)
     add_vuspsi   :     17.11s CPU     17.52s WALL (    1962 calls)

     General routines
     calbec       :     55.95s CPU     56.31s WALL (    2627 calls)
     fft          :      1.03s CPU      1.06s WALL (     206 calls)
     ffts         :      0.03s CPU      0.03s WALL (      28 calls)
     fftw         :    240.19s CPU    244.40s WALL (  929476 calls)
     interpolate  :      0.04s CPU      0.04s WALL (      14 calls)
 
     Parallel routines
     fft_scatt_xy :     16.09s CPU     16.34s WALL (  929710 calls)
     fft_scatt_yz :    197.39s CPU    200.97s WALL (  929710 calls)
 
     PWSCF        :  10m36.92s CPU  10m48.48s WALL

 
   This run was terminated on:  12: 6: 2  23Nov2021            

=------------------------------------------------------------------------------=
   JOB DONE.
=------------------------------------------------------------------------------=
