
     Program PWSCF v.6.7MaX starts on 23Nov2021 at 13:35:23 

     This program is part of the open-source Quantum ESPRESSO suite
     for quantum simulation of materials; please cite
         "P. Giannozzi et al., J. Phys.:Condens. Matter 21 395502 (2009);
         "P. Giannozzi et al., J. Phys.:Condens. Matter 29 465901 (2017);
          URL http://www.quantum-espresso.org", 
     in publications or presentations arising from this work. More details at
     http://www.quantum-espresso.org/quote

     Parallel version (MPI & OpenMP), running on      72 processor cores
     Number of MPI processes:                72
     Threads/MPI process:                     1

     MPI processes distributed on     1 nodes
     R & G space division:  proc/nbgrp/npool/nimage =      72
     Reading input from /rds/homes/b/bxp912/jobs/20211014_ru_eos/wd/eos/eos_011.in
Warning: card &CELL ignored
Warning: card CELL_DYNAMICS = 'BFGS', ignored
Warning: card CELL_FACTOR = 2.0, ignored
Warning: card PRESS = 0.0, ignored
Warning: card / ignored

     Current dimensions of program PWSCF are:
     Max number of different atomic species (ntypx) = 10
     Max number of k-points (npk) =  40000
     Max angular momentum in pseudopotentials (lmaxx) =  3
     file Ru.pbe-spn-kjpaw_psl.1.0.0.UPF: wavefunction(s)  4D renormalized

     Subspace diagonalization in iterative solution of the eigenvalue problem:
     one sub-group per band group will be used
     ELPA distributed-memory algorithm (size of sub-group:  8*  8 procs)

     Found symmetry operation: I + (  0.2500  0.2500  0.0000)
     This is a supercell, fractional translations are disabled
     Message from routine setup:
     using ibrav=0 with symmetry is DISCOURAGED, use correct ibrav instead
 
     Parallelization info
     --------------------
     sticks:   dense  smooth     PW     G-vecs:    dense   smooth      PW
     Min          99      65     18                 6335     3397     484
     Max         100      66     19                 6344     3406     488
     Sum        7161    4709   1305               456295   244881   35033
 


     bravais-lattice index     =            0
     lattice parameter (alat)  =      14.4007  a.u.
     unit-cell volume          =    3031.4664 (a.u.)^3
     number of atoms/cell      =           32
     number of atomic types    =            1
     number of electrons       =       512.00
     number of Kohn-Sham states=          307
     kinetic-energy cutoff     =      71.0000  Ry
     charge density cutoff     =     430.0000  Ry
     scf convergence threshold =      1.0E-06
     mixing beta               =       0.1000
     number of iterations used =           10  plain     mixing
     Exchange-correlation= SLA  PW   PBX  PBC
                           (   1   4   3   4   0   0   0)

     celldm(1)=  14.400742  celldm(2)=   0.000000  celldm(3)=   0.000000
     celldm(4)=   0.000000  celldm(5)=   0.000000  celldm(6)=   0.000000

     crystal axes: (cart. coord. in units of alat)
               a(1) = (   1.005000   0.000000   0.000000 )  
               a(2) = (   0.000000   1.005000   0.000000 )  
               a(3) = (   0.000000   0.000000   1.005000 )  

     reciprocal axes: (cart. coord. in units 2 pi/alat)
               b(1) = (  0.995025  0.000000  0.000000 )  
               b(2) = (  0.000000  0.995025  0.000000 )  
               b(3) = (  0.000000  0.000000  0.995025 )  


     PseudoPot. # 1 for Ru read from file:
     /rds/homes/b/bxp912/pp/Ru.pbe-spn-kjpaw_psl.1.0.0.UPF
     MD5 check sum: 0ae1f594dea09af7be8575c3a481d1ae
     Pseudo is Projector augmented-wave + core cor, Zval = 16.0
     Generated using "atomic" code by A. Dal Corso  v.5.1
     Shape of augmentation charge: PSQ
     Using radial grid of 1233 points,  6 beta functions with: 
                l(1) =   0
                l(2) =   0
                l(3) =   1
                l(4) =   1
                l(5) =   2
                l(6) =   2
     Q(r) pseudized with 0 coefficients 


     atomic species   valence    mass     pseudopotential
        Ru            16.00   101.07000     Ru( 1.00)

     48 Sym. Ops., with inversion, found



   Cartesian axes

     site n.     atom                  positions (alat units)
         1           Ru  tau(   1) = (   0.0000000   0.0000000   0.0000000  )
         2           Ru  tau(   2) = (   0.2512500   0.2512500   0.0000000  )
         3           Ru  tau(   3) = (   0.2512500   0.0000000   0.2512495  )
         4           Ru  tau(   4) = (   0.0000000   0.2512500   0.2512495  )
         5           Ru  tau(   5) = (   0.0000000   0.0000000   0.5025000  )
         6           Ru  tau(   6) = (   0.2512489   0.2512489   0.5025000  )
         7           Ru  tau(   7) = (   0.2512500   0.0000000   0.7537495  )
         8           Ru  tau(   8) = (   0.0000000   0.2512500   0.7537495  )
         9           Ru  tau(   9) = (   0.0000000   0.5025002   0.0000000  )
        10           Ru  tau(  10) = (   0.2512500   0.7537504   0.0000000  )
        11           Ru  tau(  11) = (   0.2512489   0.5025002   0.2512484  )
        12           Ru  tau(  12) = (   0.0000000   0.7537504   0.2512495  )
        13           Ru  tau(  13) = (   0.0000000   0.5025002   0.5025000  )
        14           Ru  tau(  14) = (   0.2512489   0.7537515   0.5025000  )
        15           Ru  tau(  15) = (   0.2512489   0.5025002   0.7537505  )
        16           Ru  tau(  16) = (   0.0000000   0.7537504   0.7537495  )
        17           Ru  tau(  17) = (   0.5025002   0.0000000   0.0000000  )
        18           Ru  tau(  18) = (   0.7537504   0.2512500   0.0000000  )
        19           Ru  tau(  19) = (   0.7537504   0.0000000   0.2512495  )
        20           Ru  tau(  20) = (   0.5025002   0.2512489   0.2512484  )
        21           Ru  tau(  21) = (   0.5025002   0.0000000   0.5025000  )
        22           Ru  tau(  22) = (   0.7537515   0.2512489   0.5025000  )
        23           Ru  tau(  23) = (   0.7537504   0.0000000   0.7537495  )
        24           Ru  tau(  24) = (   0.5025002   0.2512489   0.7537505  )
        25           Ru  tau(  25) = (   0.5025002   0.5025002   0.0000000  )
        26           Ru  tau(  26) = (   0.7537504   0.7537504   0.0000000  )
        27           Ru  tau(  27) = (   0.7537515   0.5025002   0.2512484  )
        28           Ru  tau(  28) = (   0.5025002   0.7537515   0.2512484  )
        29           Ru  tau(  29) = (   0.5025002   0.5025002   0.5025000  )
        30           Ru  tau(  30) = (   0.7537515   0.7537515   0.5025000  )
        31           Ru  tau(  31) = (   0.7537515   0.5025002   0.7537505  )
        32           Ru  tau(  32) = (   0.5025002   0.7537515   0.7537505  )

     number of k points=    35  Marzari-Vanderbilt smearing, width (Ry)=  0.0400
                       cart. coord. in units 2pi/alat
        k(    1) = (   0.0552792   0.0552792   0.0552792), wk =   0.0219479
        k(    2) = (   0.0552792   0.0552792   0.1658375), wk =   0.0658436
        k(    3) = (   0.0552792   0.0552792   0.2763958), wk =   0.0658436
        k(    4) = (   0.0552792   0.0552792   0.3869541), wk =   0.0658436
        k(    5) = (   0.0552792   0.0552792  -0.4975124), wk =   0.0329218
        k(    6) = (   0.0552792   0.1658375   0.1658375), wk =   0.0658436
        k(    7) = (   0.0552792   0.1658375   0.2763958), wk =   0.1316872
        k(    8) = (   0.0552792   0.1658375   0.3869541), wk =   0.1316872
        k(    9) = (   0.0552792   0.1658375  -0.4975124), wk =   0.0658436
        k(   10) = (   0.0552792   0.2763958   0.2763958), wk =   0.0658436
        k(   11) = (   0.0552792   0.2763958   0.3869541), wk =   0.1316872
        k(   12) = (   0.0552792   0.2763958  -0.4975124), wk =   0.0658436
        k(   13) = (   0.0552792   0.3869541   0.3869541), wk =   0.0658436
        k(   14) = (   0.0552792   0.3869541  -0.4975124), wk =   0.0658436
        k(   15) = (   0.0552792  -0.4975124  -0.4975124), wk =   0.0164609
        k(   16) = (   0.1658375   0.1658375   0.1658375), wk =   0.0219479
        k(   17) = (   0.1658375   0.1658375   0.2763958), wk =   0.0658436
        k(   18) = (   0.1658375   0.1658375   0.3869541), wk =   0.0658436
        k(   19) = (   0.1658375   0.1658375  -0.4975124), wk =   0.0329218
        k(   20) = (   0.1658375   0.2763958   0.2763958), wk =   0.0658436
        k(   21) = (   0.1658375   0.2763958   0.3869541), wk =   0.1316872
        k(   22) = (   0.1658375   0.2763958  -0.4975124), wk =   0.0658436
        k(   23) = (   0.1658375   0.3869541   0.3869541), wk =   0.0658436
        k(   24) = (   0.1658375   0.3869541  -0.4975124), wk =   0.0658436
        k(   25) = (   0.1658375  -0.4975124  -0.4975124), wk =   0.0164609
        k(   26) = (   0.2763958   0.2763958   0.2763958), wk =   0.0219479
        k(   27) = (   0.2763958   0.2763958   0.3869541), wk =   0.0658436
        k(   28) = (   0.2763958   0.2763958  -0.4975124), wk =   0.0329218
        k(   29) = (   0.2763958   0.3869541   0.3869541), wk =   0.0658436
        k(   30) = (   0.2763958   0.3869541  -0.4975124), wk =   0.0658436
        k(   31) = (   0.2763958  -0.4975124  -0.4975124), wk =   0.0164609
        k(   32) = (   0.3869541   0.3869541   0.3869541), wk =   0.0219479
        k(   33) = (   0.3869541   0.3869541  -0.4975124), wk =   0.0329218
        k(   34) = (   0.3869541  -0.4975124  -0.4975124), wk =   0.0164609
        k(   35) = (  -0.4975124  -0.4975124  -0.4975124), wk =   0.0027435

     Dense  grid:   456295 G-vectors     FFT dimensions: (  96,  96,  96)

     Smooth grid:   244881 G-vectors     FFT dimensions: (  80,  80,  80)

     Estimated max dynamical RAM per process >     108.58 MB

     Estimated total dynamical RAM >       7.63 GB

     Check: negative core charge=   -0.000002

     Initial potential from superposition of free atoms

     starting charge  511.97959, renormalised to  512.00000
     Starting wfcs are  320 randomized atomic wfcs
     Checking if some PAW data can be deallocated... 

     total cpu time spent up to now is       15.5 secs

     Self-consistent Calculation

     iteration #  1     ecut=    71.00 Ry     beta= 0.10
     Davidson diagonalization with overlap
     ethr =  1.00E-02,  avg # of iterations =  3.5

     Threshold (ethr) on eigenvalues was too large:
     Diagonalizing with lowered threshold

     Davidson diagonalization with overlap
     ethr =  8.17E-05,  avg # of iterations =  5.3

     total cpu time spent up to now is      107.0 secs

     total energy              =  -13813.40422744 Ry
     estimated scf accuracy    <       0.63246064 Ry

     iteration #  2     ecut=    71.00 Ry     beta= 0.10
     Davidson diagonalization with overlap
     ethr =  1.24E-04,  avg # of iterations =  1.0

     total cpu time spent up to now is      134.2 secs

     total energy              =  -13813.19872341 Ry
     estimated scf accuracy    <       0.39359030 Ry

     iteration #  3     ecut=    71.00 Ry     beta= 0.10
     Davidson diagonalization with overlap
     ethr =  7.69E-05,  avg # of iterations =  2.4

     total cpu time spent up to now is      179.1 secs

     total energy              =  -13813.29395666 Ry
     estimated scf accuracy    <       0.01030546 Ry

     iteration #  4     ecut=    71.00 Ry     beta= 0.10
     Davidson diagonalization with overlap
     c_bands:  1 eigenvalues not converged
     ethr =  2.01E-06,  avg # of iterations =  3.2

     total cpu time spent up to now is      223.0 secs

     total energy              =  -13813.29336015 Ry
     estimated scf accuracy    <       0.00678539 Ry

     iteration #  5     ecut=    71.00 Ry     beta= 0.10
     Davidson diagonalization with overlap
     ethr =  1.33E-06,  avg # of iterations =  2.0

     total cpu time spent up to now is      260.5 secs

     total energy              =  -13813.29840316 Ry
     estimated scf accuracy    <       0.00740913 Ry

     iteration #  6     ecut=    71.00 Ry     beta= 0.10
     Davidson diagonalization with overlap
     ethr =  1.33E-06,  avg # of iterations =  3.3

     total cpu time spent up to now is      306.2 secs

     total energy              =  -13813.29335526 Ry
     estimated scf accuracy    <       0.01763411 Ry

     iteration #  7     ecut=    71.00 Ry     beta= 0.10
     Davidson diagonalization with overlap
     ethr =  1.33E-06,  avg # of iterations =  2.6

     total cpu time spent up to now is      346.6 secs

     total energy              =  -13813.29476594 Ry
     estimated scf accuracy    <       0.00121823 Ry

     iteration #  8     ecut=    71.00 Ry     beta= 0.10
     Davidson diagonalization with overlap
     ethr =  2.38E-07,  avg # of iterations =  2.4

     total cpu time spent up to now is      379.0 secs

     total energy              =  -13813.29487271 Ry
     estimated scf accuracy    <       0.00020963 Ry

     iteration #  9     ecut=    71.00 Ry     beta= 0.10
     Davidson diagonalization with overlap
     ethr =  4.09E-08,  avg # of iterations =  1.8

     total cpu time spent up to now is      408.0 secs

     total energy              =  -13813.29480031 Ry
     estimated scf accuracy    <       0.00016117 Ry

     iteration # 10     ecut=    71.00 Ry     beta= 0.10
     Davidson diagonalization with overlap
     ethr =  3.15E-08,  avg # of iterations =  2.4

     total cpu time spent up to now is      443.6 secs

     total energy              =  -13813.29482211 Ry
     estimated scf accuracy    <       0.00000599 Ry

     iteration # 11     ecut=    71.00 Ry     beta= 0.10
     Davidson diagonalization with overlap
     ethr =  1.17E-09,  avg # of iterations =  4.3

     total cpu time spent up to now is      491.4 secs

     total energy              =  -13813.29483108 Ry
     estimated scf accuracy    <       0.00000316 Ry

     iteration # 12     ecut=    71.00 Ry     beta= 0.10
     Davidson diagonalization with overlap
     ethr =  6.16E-10,  avg # of iterations =  3.0

     total cpu time spent up to now is      529.9 secs

     total energy              =  -13813.29482395 Ry
     estimated scf accuracy    <       0.00001629 Ry

     iteration # 13     ecut=    71.00 Ry     beta= 0.10
     Davidson diagonalization with overlap
     ethr =  6.16E-10,  avg # of iterations =  3.1

     total cpu time spent up to now is      573.4 secs

     End of self-consistent calculation

          k = 0.0553 0.0553 0.0553 ( 30746 PWs)   bands (ev):

   -50.3025 -50.2088 -50.2088 -50.2088 -50.1907 -50.1907 -50.1907 -50.1570
   -50.1570 -50.1570 -50.1482 -50.1472 -50.1471 -50.1471 -50.1471 -50.1471
   -50.1471 -50.1466 -50.1465 -50.1465 -50.1388 -50.1388 -50.1388 -50.0962
   -50.0962 -50.0962 -50.0957 -50.0957 -50.0957 -50.0956 -50.0956 -50.0956
   -20.6833 -20.6833 -20.6833 -20.6796 -20.6241 -20.6241 -20.6241 -20.4331
   -20.4331 -20.4331 -20.4223 -20.4223 -20.4223 -20.4223 -20.4223 -20.4223
   -20.4030 -20.4030 -20.4030 -20.3816 -20.3816 -20.3816 -20.3816 -20.3816
   -20.3816 -20.3336 -20.3336 -20.3335 -20.3335 -20.3335 -20.3335 -20.2387
   -20.2387 -20.2387 -20.1694 -20.1694 -20.1694 -20.1616 -20.1616 -20.1616
   -20.1298 -20.1298 -20.1298 -20.1298 -20.1298 -20.1298 -20.0916 -20.0916
   -20.0916 -20.0851 -20.0851 -20.0851 -20.0851 -20.0851 -20.0851 -20.0800
   -20.0800 -20.0800 -20.0758 -20.0758 -20.0758 -19.9207 -19.9207 -19.9207
   -19.9202 -19.9202 -19.9202 -19.8900 -19.8900 -19.8900 -19.8899 -19.8899
   -19.8899 -19.8760 -19.8760 -19.8760 -19.8643 -19.8643 -19.8643 -19.8633
   -19.8633 -19.8633 -19.8633 -19.8632 -19.8632 -19.8613 -19.8613 -19.8613
   -19.8587 -19.8587 -19.8457 -19.8457 -19.8457 -19.7378 -19.7312 -19.7312
    15.0081  16.6091  16.6091  16.6091  16.8681  16.8857  16.8857  16.8857
    17.0703  17.0703  17.0703  17.2458  17.2458  17.2459  17.4251  17.4251
    17.4251  17.9908  17.9908  17.9908  17.9908  17.9909  17.9909  18.3029
    18.3029  18.3030  18.5352  18.5352  18.5353  18.5706  18.5706  18.5706
    18.6480  18.6480  18.6480  18.6481  18.6481  18.6481  18.6510  18.6510
    18.6510  19.1426  19.1426  19.1426  19.1426  19.1426  19.1427  19.2848
    19.2848  19.2848  19.3171  19.3171  19.3171  19.3171  19.3171  19.3171
    19.3811  19.3811  19.3811  19.6321  19.6321  19.6322  19.6367  19.6367
    19.6367  19.6368  19.6368  19.6368  19.6384  19.6384  19.6384  19.6384
    19.6385  19.6385  19.8078  19.8078  19.8078  20.0892  20.0892  20.0892
    20.1244  20.1244  20.1392  20.1392  20.1392  20.2147  20.2454  20.2454
    21.1968  21.1968  21.1969  21.3591  21.3591  21.3591  21.4163  21.4163
    21.4163  21.5139  21.5139  21.5139  21.5139  21.5139  21.5139  21.5278
    21.5278  21.5278  21.8156  21.8156  21.8156  21.9320  21.9320  21.9321
    22.1762  22.1762  22.1762  22.2550  22.2550  22.2550  22.2550  22.2550
    22.2551  22.2717  22.2718  22.2718  22.3083  22.3083  22.3084  22.4963
    22.4963  22.4963  22.4963  22.4963  22.4963  22.5504  22.5504  22.6656
    22.6656  22.6656  23.3081  23.3081  23.3081  23.3615  23.3615  23.3615
    23.4645  23.4645  23.4645  23.5624  24.2635  24.2635  24.2635  24.3056
    24.3056  24.3396  24.3396  24.3396  24.6182  24.6182  24.6182  24.6480
    24.6480  24.6480  24.7981  24.7981  24.7981  24.7981  24.7981  24.7981
    24.8030  24.8030  24.8030  26.2200  26.2200  26.2200  26.4102  26.4102
    26.4102  26.7454  26.7454

          k = 0.0553 0.0553 0.1658 ( 30702 PWs)   bands (ev):

   -50.2994 -50.2265 -50.2070 -50.2070 -50.1893 -50.1893 -50.1729 -50.1667
   -50.1667 -50.1567 -50.1553 -50.1553 -50.1498 -50.1471 -50.1471 -50.1466
   -50.1465 -50.1451 -50.1390 -50.1374 -50.1373 -50.1306 -50.1306 -50.0993
   -50.0974 -50.0974 -50.0971 -50.0971 -50.0962 -50.0961 -50.0957 -50.0957
   -20.6763 -20.6726 -20.6726 -20.6649 -20.6161 -20.6161 -20.6117 -20.4625
   -20.4498 -20.4498 -20.4373 -20.4373 -20.4349 -20.4349 -20.4297 -20.4278
   -20.4278 -20.4054 -20.4054 -20.3915 -20.3915 -20.3788 -20.3788 -20.3775
   -20.3775 -20.3413 -20.3413 -20.3250 -20.3250 -20.3136 -20.2869 -20.2869
   -20.2507 -20.2507 -20.2081 -20.2081 -20.1772 -20.1772 -20.1674 -20.1674
   -20.1379 -20.1020 -20.1020 -20.0906 -20.0906 -20.0900 -20.0900 -20.0847
   -20.0845 -20.0845 -20.0750 -20.0750 -20.0747 -20.0713 -20.0713 -20.0706
   -20.0697 -20.0697 -20.0661 -20.0538 -20.0538 -19.9510 -19.9497 -19.9275
   -19.9275 -19.9127 -19.9127 -19.8968 -19.8967 -19.8947 -19.8947 -19.8867
   -19.8867 -19.8810 -19.8810 -19.8809 -19.8755 -19.8744 -19.8744 -19.8643
   -19.8640 -19.8632 -19.8632 -19.8623 -19.8622 -19.8603 -19.8595 -19.8567
   -19.8567 -19.8562 -19.8460 -19.8344 -19.8344 -19.7543 -19.7365 -19.7346
    15.0931  16.6585  16.6717  16.6717  16.9068  16.9405  16.9417  16.9417
    16.9590  17.1077  17.1308  17.1308  17.3070  17.3070  17.4574  17.4895
    17.4895  17.8724  17.8724  18.0385  18.0386  18.0477  18.0477  18.0506
    18.2321  18.3388  18.3388  18.3411  18.3411  18.3910  18.3952  18.3952
    18.5833  18.5833  18.6025  18.6025  18.6236  18.6236  18.6985  18.6985
    18.7467  18.7467  18.8468  19.1208  19.1208  19.1464  19.1465  19.1963
    19.1963  19.2117  19.2117  19.2733  19.2733  19.3550  19.3550  19.3932
    19.4580  19.4580  19.4877  19.4877  19.5772  19.5895  19.5895  19.6192
    19.6192  19.6435  19.6435  19.6439  19.6439  19.8768  19.8768  19.9109
    19.9109  19.9259  19.9740  20.0176  20.0483  20.0483  20.1215  20.1552
    20.1573  20.1745  20.1745  20.1907  20.1907  20.2012  20.2875  20.2913
    20.9720  20.9720  21.0955  21.0955  21.1890  21.2185  21.3259  21.3259
    21.3555  21.4492  21.4492  21.4829  21.6222  21.6222  21.6238  21.6557
    21.6557  21.7009  21.7009  21.7171  21.7923  21.7923  22.1126  22.1127
    22.1269  22.1269  22.1433  22.1434  22.2565  22.2566  22.2707  22.2707
    22.3868  22.3868  22.4109  22.4109  22.4809  22.5052  22.5111  22.5111
    22.5576  22.5743  22.7150  22.7150  22.7279  22.7769  22.7769  22.8608
    22.8932  22.8932  22.9026  22.9533  22.9533  23.1389  23.1581  23.3692
    23.3692  23.5555  23.5555  23.6234  24.0706  24.0706  24.1780  24.1780
    24.1923  24.2242  24.2882  24.2882  24.2925  24.4854  24.5568  24.6738
    24.6738  24.6750  24.6750  24.6954  24.7968  24.7968  24.7979  24.7979
    24.9861  24.9861  25.2100  25.7103  25.7103  26.1096  26.1629  26.2272
    26.2272  26.6912  26.6912

          k = 0.0553 0.0553 0.2764 ( 30638 PWs)   bands (ev):

   -50.2932 -50.2434 -50.2036 -50.2036 -50.1864 -50.1864 -50.1760 -50.1760
   -50.1631 -50.1631 -50.1561 -50.1559 -50.1513 -50.1471 -50.1470 -50.1467
   -50.1466 -50.1436 -50.1395 -50.1281 -50.1281 -50.1228 -50.1228 -50.1055
   -50.1008 -50.1008 -50.0999 -50.0999 -50.0961 -50.0960 -50.0958 -50.0957
   -20.6586 -20.6514 -20.6514 -20.6401 -20.6004 -20.6004 -20.5871 -20.5061
   -20.4920 -20.4920 -20.4719 -20.4718 -20.4718 -20.4406 -20.4406 -20.4350
   -20.4350 -20.4060 -20.4060 -20.3839 -20.3832 -20.3832 -20.3815 -20.3815
   -20.3469 -20.3469 -20.3440 -20.3440 -20.3102 -20.3102 -20.2721 -20.2721
   -20.2448 -20.2448 -20.2419 -20.2419 -20.2045 -20.2045 -20.2031 -20.2031
   -20.1072 -20.1072 -20.0906 -20.0832 -20.0832 -20.0758 -20.0758 -20.0644
   -20.0604 -20.0591 -20.0591 -20.0531 -20.0531 -20.0466 -20.0466 -20.0436
   -20.0436 -20.0265 -20.0176 -20.0176 -20.0102 -19.9797 -19.9778 -19.9414
   -19.9414 -19.9188 -19.9188 -19.9150 -19.9150 -19.9101 -19.9101 -19.9081
   -19.8999 -19.8999 -19.8960 -19.8960 -19.8807 -19.8745 -19.8668 -19.8668
   -19.8666 -19.8631 -19.8631 -19.8624 -19.8624 -19.8563 -19.8563 -19.8537
   -19.8468 -19.8318 -19.8303 -19.8298 -19.8298 -19.7837 -19.7470 -19.7444
    15.2604  16.5658  16.7542  16.7937  16.7937  17.0015  17.0529  17.0529
    17.0866  17.1820  17.2513  17.2513  17.3729  17.4255  17.4255  17.6144
    17.6144  17.6699  17.6699  17.8192  17.9039  18.0043  18.0043  18.0720
    18.1294  18.1294  18.1593  18.1593  18.2186  18.2186  18.3034  18.3034
    18.4163  18.4163  18.4385  18.4386  18.5777  18.5777  18.6646  18.6646
    18.8259  18.8259  19.0252  19.0252  19.0872  19.0872  19.0874  19.0875
    19.1067  19.1067  19.1233  19.1488  19.1488  19.2379  19.2379  19.3947
    19.3947  19.4576  19.5106  19.5106  19.5842  19.5842  19.6364  19.6364
    19.6536  19.6536  19.7253  19.7253  19.7501  19.9166  19.9779  19.9779
    19.9866  19.9866  20.0321  20.0838  20.2372  20.2865  20.2865  20.2922
    20.3086  20.3086  20.3091  20.3794  20.3827  20.4133  20.7019  20.7019
    20.7551  20.7551  20.7604  20.7604  20.9724  21.0824  21.0824  21.1169
    21.1269  21.1835  21.5350  21.5756  21.5756  21.7794  21.7794  21.7974
    21.7974  21.8357  21.8358  21.9104  21.9105  22.0281  22.0281  22.1243
    22.1243  22.2314  22.2490  22.2490  22.2563  22.2564  22.2857  22.2857
    22.3377  22.3377  22.3469  22.4024  22.4320  22.4320  22.5458  22.6146
    22.6146  22.6217  22.6845  22.6845  22.8197  22.9498  23.0183  23.0186
    23.0186  23.0998  23.0998  23.1424  23.1716  23.1716  23.1895  23.4020
    23.4020  23.5428  23.5429  23.7812  23.8039  23.8039  23.9763  23.9763
    24.0073  24.1382  24.1383  24.1383  24.1678  24.2291  24.4469  24.4469
    24.4481  24.4481  24.5025  24.7959  24.7959  24.7975  24.7975  24.9465
    25.2111  25.2111  25.4130  25.4130  25.5854  25.7078  25.7078  25.7586
    26.0463  26.5778  26.5778

          k = 0.0553 0.0553 0.3870 ( 30617 PWs)   bands (ev):

   -50.2842 -50.2590 -50.1986 -50.1986 -50.1846 -50.1846 -50.1822 -50.1822
   -50.1704 -50.1703 -50.1552 -50.1528 -50.1470 -50.1469 -50.1467 -50.1466
   -50.1423 -50.1402 -50.1402 -50.1195 -50.1195 -50.1157 -50.1157 -50.1146
   -50.1057 -50.1057 -50.1041 -50.1040 -50.0961 -50.0960 -50.0958 -50.0957
   -20.6311 -20.6209 -20.6209 -20.6064 -20.5774 -20.5774 -20.5522 -20.5511
   -20.5383 -20.5383 -20.5192 -20.5122 -20.5122 -20.4481 -20.4396 -20.4396
   -20.4265 -20.4265 -20.4207 -20.4207 -20.3961 -20.3961 -20.3570 -20.3570
   -20.3305 -20.3305 -20.3124 -20.3123 -20.2990 -20.2990 -20.2902 -20.2902
   -20.2783 -20.2783 -20.2386 -20.2386 -20.2360 -20.2360 -20.2002 -20.2002
   -20.1318 -20.1318 -20.0814 -20.0814 -20.0774 -20.0774 -20.0492 -20.0456
   -20.0389 -20.0184 -20.0184 -20.0154 -20.0154 -20.0120 -20.0120 -20.0119
   -20.0119 -20.0062 -20.0037 -19.9842 -19.9842 -19.9831 -19.9616 -19.9616
   -19.9473 -19.9473 -19.9471 -19.9471 -19.9446 -19.9405 -19.9295 -19.9295
   -19.9274 -19.9274 -19.9072 -19.8852 -19.8852 -19.8730 -19.8689 -19.8630
   -19.8629 -19.8626 -19.8625 -19.8616 -19.8616 -19.8519 -19.8519 -19.8515
   -19.8480 -19.8317 -19.8317 -19.8253 -19.8054 -19.8033 -19.7623 -19.7597
    15.5045  16.1776  16.8892  16.9688  16.9688  17.1512  17.2179  17.2179
    17.2231  17.2662  17.2922  17.4285  17.4285  17.4307  17.4307  17.5927
    17.5927  17.6068  17.6133  17.6984  17.6984  17.7661  17.7915  17.7915
    17.9591  17.9591  18.0116  18.0116  18.2333  18.2333  18.2526  18.2526
    18.3212  18.3212  18.5022  18.5022  18.5267  18.5267  18.7446  18.7446
    18.7532  18.7533  18.8395  18.8395  18.9848  18.9848  19.0153  19.0153
    19.0595  19.0595  19.1211  19.1211  19.1351  19.1351  19.3777  19.3777
    19.3909  19.4299  19.4299  19.5547  19.6557  19.6557  19.6620  19.6620
    19.6790  19.6790  19.7970  19.8486  19.8566  19.8854  19.8854  19.8969
    19.8970  20.0192  20.0897  20.0897  20.3626  20.4259  20.4259  20.4322
    20.4322  20.4520  20.4520  20.4603  20.5166  20.5190  20.7368  20.7428
    20.7428  20.7984  20.8735  20.8904  20.9027  20.9027  20.9112  20.9212
    21.3744  21.3744  21.6972  21.6972  21.7056  21.7668  21.7668  21.8885
    21.8885  21.8935  21.9424  21.9624  21.9624  22.0077  22.0077  22.0414
    22.0414  22.0910  22.0910  22.1008  22.1008  22.1594  22.2149  22.2150
    22.2493  22.2493  22.2749  22.2749  22.3599  22.3599  22.5732  22.5732
    22.6915  22.7078  22.7078  22.8189  22.8920  23.0228  23.0228  23.1508
    23.3378  23.3392  23.3392  23.4424  23.4488  23.4488  23.4871  23.4872
    23.7042  23.7042  23.7051  23.7621  23.8551  23.8551  23.8602  23.9183
    23.9183  23.9362  23.9749  23.9754  24.1476  24.1476  24.1513  24.1513
    24.2024  24.2024  24.2793  24.7252  24.7252  24.7959  24.7960  24.7969
    24.7969  24.9456  25.1885  25.1885  25.3112  25.8102  25.8102  25.8666
    26.2402  26.3974  26.3974

          k = 0.0553 0.0553-0.4975 ( 30612 PWs)   bands (ev):

   -50.2728 -50.2726 -50.1923 -50.1923 -50.1922 -50.1921 -50.1769 -50.1769
   -50.1767 -50.1767 -50.1542 -50.1540 -50.1470 -50.1468 -50.1468 -50.1466
   -50.1412 -50.1411 -50.1264 -50.1262 -50.1121 -50.1121 -50.1119 -50.1119
   -50.1094 -50.1094 -50.1093 -50.1092 -50.0961 -50.0959 -50.0959 -50.0957
   -20.5950 -20.5949 -20.5826 -20.5825 -20.5824 -20.5823 -20.5653 -20.5652
   -20.5478 -20.5478 -20.5476 -20.5476 -20.5045 -20.5043 -20.4325 -20.4325
   -20.4325 -20.4325 -20.4129 -20.4129 -20.4129 -20.4128 -20.3283 -20.3283
   -20.3282 -20.3282 -20.3075 -20.3075 -20.3073 -20.3073 -20.2756 -20.2756
   -20.2755 -20.2755 -20.2654 -20.2654 -20.2652 -20.2652 -20.1633 -20.1633
   -20.1631 -20.1631 -20.0796 -20.0794 -20.0794 -20.0793 -20.0297 -20.0295
   -20.0266 -20.0264 -19.9891 -19.9890 -19.9876 -19.9876 -19.9875 -19.9875
   -19.9813 -19.9813 -19.9812 -19.9812 -19.9790 -19.9790 -19.9789 -19.9789
   -19.9670 -19.9669 -19.9668 -19.9667 -19.9546 -19.9546 -19.9544 -19.9544
   -19.9421 -19.9421 -19.8783 -19.8781 -19.8718 -19.8718 -19.8717 -19.8717
   -19.8712 -19.8710 -19.8629 -19.8627 -19.8627 -19.8626 -19.8497 -19.8495
   -19.8395 -19.8395 -19.8394 -19.8394 -19.7821 -19.7819 -19.7796 -19.7795
    15.8153  15.8155  17.0518  17.0520  17.1859  17.1861  17.1861  17.1863
    17.3540  17.3540  17.4342  17.4342  17.4344  17.4344  17.4366  17.4368
    17.4945  17.4945  17.6673  17.6673  17.6675  17.6675  17.7947  17.7947
    17.7949  17.7949  18.0058  18.0058  18.0060  18.0060  18.3872  18.3872
    18.3873  18.3873  18.5245  18.5245  18.5246  18.5246  18.6693  18.6693
    18.6694  18.6695  18.8627  18.8628  18.8629  18.8629  19.0620  19.0620
    19.0620  19.0620  19.0849  19.0849  19.0849  19.0849  19.3835  19.3835
    19.3835  19.3835  19.6390  19.6392  19.6640  19.6640  19.6641  19.6641
    19.6719  19.6720  19.7818  19.7820  19.7820  19.7821  19.9378  19.9379
    20.1387  20.1387  20.1387  20.1387  20.2445  20.2445  20.2445  20.2445
    20.5307  20.5308  20.6037  20.6037  20.6038  20.6039  20.6507  20.6507
    20.6961  20.6963  20.6989  20.6991  21.3505  21.3506  21.3506  21.3506
    21.3555  21.3555  21.3870  21.3870  21.7487  21.7487  21.7488  21.7488
    21.9358  21.9359  22.0276  22.0276  22.0277  22.0277  22.0582  22.0583
    22.0584  22.0584  22.1372  22.1372  22.1373  22.1374  22.1476  22.1476
    22.1477  22.1478  22.2142  22.2142  22.2144  22.2144  22.4588  22.4588
    22.4590  22.4590  22.7822  22.7824  23.3760  23.3761  23.3761  23.3763
    23.3840  23.3842  23.4711  23.4712  23.6459  23.6459  23.6461  23.6461
    23.6961  23.6962  23.7273  23.7274  23.8053  23.8053  23.8054  23.8054
    23.8215  23.8215  23.8216  23.8216  24.0937  24.0938  24.2646  24.2646
    24.2646  24.2646  24.2944  24.2946  24.6794  24.6794  24.6794  24.6794
    24.7962  24.7964  24.7964  24.7965  25.6211  25.6212  26.1420  26.1420
    26.1421  26.1422  26.6278

          k = 0.0553 0.1658 0.1658 ( 30637 PWs)   bands (ev):

   -50.2963 -50.2245 -50.2245 -50.2053 -50.1878 -50.1780 -50.1717 -50.1717
   -50.1661 -50.1661 -50.1550 -50.1550 -50.1529 -50.1482 -50.1440 -50.1440
   -50.1435 -50.1435 -50.1376 -50.1376 -50.1311 -50.1311 -50.1240 -50.0993
   -50.0992 -50.0988 -50.0987 -50.0977 -50.0977 -50.0969 -50.0969 -50.0961
   -20.6694 -20.6694 -20.6583 -20.6467 -20.6082 -20.6044 -20.6044 -20.4686
   -20.4686 -20.4627 -20.4627 -20.4338 -20.4327 -20.4327 -20.4308 -20.4308
   -20.4268 -20.4268 -20.4217 -20.4217 -20.4032 -20.4032 -20.4009 -20.4009
   -20.3438 -20.3219 -20.3219 -20.3185 -20.3185 -20.3013 -20.3013 -20.2796
   -20.2796 -20.2637 -20.2478 -20.1936 -20.1732 -20.1732 -20.1377 -20.1377
   -20.1269 -20.1269 -20.1057 -20.1037 -20.1037 -20.0845 -20.0845 -20.0722
   -20.0722 -20.0697 -20.0697 -20.0680 -20.0678 -20.0678 -20.0665 -20.0665
   -20.0581 -20.0581 -20.0310 -20.0310 -20.0174 -19.9579 -19.9578 -19.9438
   -19.9438 -19.9212 -19.9170 -19.9084 -19.8943 -19.8943 -19.8937 -19.8937
   -19.8877 -19.8865 -19.8861 -19.8860 -19.8843 -19.8843 -19.8728 -19.8695
   -19.8695 -19.8667 -19.8665 -19.8665 -19.8588 -19.8572 -19.8572 -19.8564
   -19.8498 -19.8498 -19.8353 -19.8353 -19.8183 -19.7751 -19.7414 -19.7338
    15.1767  16.7213  16.7214  16.7284  16.9261  16.9783  17.0007  17.0008
    17.0298  17.0298  17.1676  17.1676  17.1949  17.3538  17.5241  17.5241
    17.5359  17.9046  17.9046  17.9311  17.9311  18.0942  18.0942  18.0949
    18.0949  18.1185  18.1186  18.1844  18.2621  18.2621  18.3938  18.4291
    18.4292  18.4459  18.4460  18.4807  18.6470  18.7143  18.7143  18.7199
    18.7199  18.7352  18.7352  18.8718  18.8719  19.0853  19.0853  19.1814
    19.1814  19.2085  19.2658  19.2658  19.3011  19.3011  19.3517  19.3517
    19.3608  19.5495  19.5495  19.5511  19.5511  19.6417  19.6417  19.7109
    19.7109  19.7516  19.8207  19.8207  19.9405  19.9405  19.9551  19.9551
    19.9860  19.9860  20.0312  20.0917  20.0917  20.1084  20.1203  20.1333
    20.1662  20.1662  20.1951  20.2401  20.2714  20.2714  20.3081  20.3324
    20.8396  20.9347  20.9751  20.9751  21.2240  21.2240  21.3855  21.3883
    21.3883  21.3979  21.3979  21.4680  21.4681  21.4897  21.4897  21.5150
    21.5150  21.6664  21.7316  21.8296  21.8296  21.8529  21.8529  21.9035
    21.9786  22.2568  22.2568  22.3662  22.3812  22.3812  22.3979  22.3980
    22.4375  22.4375  22.4600  22.5147  22.5147  22.5549  22.5858  22.5858
    22.6509  22.6509  22.6674  22.7092  22.7092  22.8032  22.8945  22.9508
    22.9508  22.9840  22.9840  23.0627  23.0738  23.0738  23.1955  23.1955
    23.3984  23.5898  23.7564  23.7583  23.7583  23.8956  23.8956  24.0630
    24.1711  24.1711  24.2346  24.3134  24.3134  24.3309  24.3340  24.5730
    24.5730  24.6728  24.6728  24.6764  24.6764  24.6938  24.6938  24.7365
    24.9393  25.2184  25.5640  25.5640  25.6535  25.6536  26.1737  26.1737
    26.6916  26.6916  26.7800

          k = 0.0553 0.1658 0.2764 ( 30629 PWs)   bands (ev):

   -50.2903 -50.2412 -50.2206 -50.2020 -50.1888 -50.1851 -50.1752 -50.1694
   -50.1650 -50.1626 -50.1559 -50.1549 -50.1544 -50.1504 -50.1497 -50.1421
   -50.1406 -50.1381 -50.1333 -50.1322 -50.1286 -50.1236 -50.1177 -50.1053
   -50.1020 -50.1016 -50.1015 -50.0992 -50.0991 -50.0980 -50.0967 -50.0961
   -20.6555 -20.6522 -20.6343 -20.6188 -20.5926 -20.5900 -20.5812 -20.5128
   -20.5043 -20.4726 -20.4713 -20.4683 -20.4681 -20.4650 -20.4447 -20.4413
   -20.4401 -20.4248 -20.4235 -20.4163 -20.4135 -20.4104 -20.4066 -20.3887
   -20.3713 -20.3369 -20.3227 -20.3061 -20.3054 -20.2928 -20.2867 -20.2848
   -20.2658 -20.2599 -20.2352 -20.2223 -20.2068 -20.1725 -20.1615 -20.1361
   -20.1272 -20.1223 -20.1016 -20.0926 -20.0881 -20.0737 -20.0725 -20.0700
   -20.0656 -20.0637 -20.0592 -20.0497 -20.0409 -20.0368 -20.0350 -20.0326
   -20.0322 -20.0286 -19.9977 -19.9954 -19.9869 -19.9826 -19.9734 -19.9723
   -19.9329 -19.9320 -19.9276 -19.9254 -19.9186 -19.9171 -19.9161 -19.9137
   -19.9048 -19.8993 -19.8917 -19.8873 -19.8873 -19.8849 -19.8793 -19.8755
   -19.8743 -19.8719 -19.8692 -19.8657 -19.8580 -19.8574 -19.8519 -19.8375
   -19.8371 -19.8351 -19.8313 -19.8201 -19.8090 -19.8079 -19.7519 -19.7394
    15.3414  16.6285  16.8175  16.8397  16.8440  17.0001  17.0687  17.1178
    17.1529  17.1690  17.2407  17.2868  17.3217  17.4400  17.4426  17.6239
    17.6542  17.6885  17.7268  17.8135  17.8673  17.9378  17.9558  17.9643
    17.9923  18.0465  18.1173  18.1460  18.1558  18.1808  18.1840  18.2055
    18.3260  18.3508  18.3584  18.4584  18.4997  18.5585  18.5594  18.7355
    18.7448  18.7677  18.7980  18.9193  18.9384  19.0000  19.0152  19.0483
    19.0603  19.1091  19.1411  19.1789  19.2525  19.2611  19.2982  19.3706
    19.3788  19.4173  19.5389  19.6454  19.6916  19.7150  19.7496  19.7707
    19.8083  19.8350  19.8626  19.8766  19.9453  19.9571  19.9873  20.0030
    20.0151  20.0845  20.1245  20.1474  20.1573  20.2282  20.2535  20.2650
    20.3308  20.3859  20.3882  20.3960  20.3996  20.4161  20.6362  20.6469
    20.6793  20.7310  20.7534  20.9725  20.9740  20.9750  21.1378  21.1750
    21.2524  21.2662  21.3019  21.4274  21.4607  21.5141  21.5829  21.6771
    21.6951  21.7313  21.7830  21.8157  21.8721  21.8844  21.9762  22.0573
    22.0869  22.1606  22.1663  22.2022  22.2203  22.2430  22.3469  22.3549
    22.3653  22.3691  22.4673  22.4895  22.5513  22.5923  22.6574  22.6696
    22.6870  22.7162  22.7183  22.8969  22.9885  22.9900  23.0084  23.0358
    23.0633  23.2124  23.2322  23.2737  23.2814  23.2855  23.3126  23.3299
    23.3373  23.4133  23.5245  23.6168  23.7708  23.8821  23.9790  24.0019
    24.0165  24.0867  24.1133  24.2225  24.2415  24.2447  24.3885  24.3893
    24.4483  24.4509  24.5119  24.5691  24.6725  24.6778  24.6887  24.7006
    24.7474  25.1273  25.1563  25.5397  25.6562  25.9840  26.0650  26.1649
    26.1803  26.2470  27.1521

          k = 0.0553 0.1658 0.3870 ( 30618 PWs)   bands (ev):

   -50.2814 -50.2565 -50.2148 -50.1987 -50.1972 -50.1836 -50.1810 -50.1696
   -50.1659 -50.1633 -50.1587 -50.1563 -50.1535 -50.1511 -50.1408 -50.1395
   -50.1388 -50.1379 -50.1337 -50.1234 -50.1203 -50.1167 -50.1143 -50.1119
   -50.1073 -50.1068 -50.1055 -50.1025 -50.0989 -50.0983 -50.0965 -50.0962
   -20.6315 -20.6254 -20.6015 -20.5823 -20.5697 -20.5690 -20.5579 -20.5488
   -20.5471 -20.5169 -20.5094 -20.5050 -20.4921 -20.4665 -20.4614 -20.4496
   -20.4490 -20.4469 -20.4431 -20.4335 -20.4113 -20.3982 -20.3964 -20.3781
   -20.3560 -20.3412 -20.3353 -20.3172 -20.3157 -20.2881 -20.2657 -20.2633
   -20.2581 -20.2464 -20.2378 -20.2209 -20.2057 -20.1938 -20.1935 -20.1762
   -20.1538 -20.1259 -20.0723 -20.0708 -20.0672 -20.0635 -20.0619 -20.0580
   -20.0521 -20.0439 -20.0430 -20.0199 -20.0139 -20.0103 -20.0088 -20.0061
   -20.0012 -20.0004 -19.9933 -19.9868 -19.9669 -19.9659 -19.9649 -19.9564
   -19.9529 -19.9518 -19.9506 -19.9504 -19.9501 -19.9447 -19.9446 -19.9196
   -19.9170 -19.9130 -19.8979 -19.8950 -19.8904 -19.8890 -19.8888 -19.8831
   -19.8806 -19.8779 -19.8635 -19.8633 -19.8594 -19.8560 -19.8511 -19.8472
   -19.8397 -19.8339 -19.8211 -19.8108 -19.8066 -19.7932 -19.7673 -19.7518
    15.5816  16.2448  16.9534  17.0016  17.0199  17.1280  17.2119  17.2846
    17.2894  17.3266  17.3491  17.3564  17.4431  17.4644  17.4830  17.5077
    17.5389  17.5642  17.6497  17.6651  17.7193  17.7439  17.8137  17.8404
    17.8525  17.8550  17.9866  18.0251  18.0333  18.0437  18.2148  18.2370
    18.3009  18.3098  18.3199  18.3662  18.4650  18.6583  18.6637  18.6765
    18.6922  18.7875  18.8090  18.8490  18.8663  18.9004  18.9166  18.9248
    18.9646  18.9835  19.1131  19.1146  19.1249  19.2277  19.3833  19.3921
    19.4011  19.4692  19.6608  19.6632  19.7132  19.7264  19.7618  19.7680
    19.7890  19.8306  19.8501  19.9119  19.9177  19.9238  19.9705  19.9820
    20.0924  20.0973  20.1140  20.3155  20.3744  20.4004  20.4249  20.4602
    20.5177  20.5390  20.5449  20.5458  20.5616  20.5626  20.5652  20.5945
    20.6864  20.7769  20.8242  20.8594  20.9168  20.9257  21.0142  21.0409
    21.2460  21.3298  21.3894  21.4588  21.4706  21.5214  21.6260  21.6803
    21.6989  21.7288  21.7759  21.7817  21.7943  21.7975  21.8679  21.9331
    21.9961  22.0536  22.1481  22.1717  22.1939  22.2527  22.2813  22.3020
    22.3078  22.4127  22.4541  22.4675  22.5490  22.5844  22.5905  22.6676
    22.7158  22.7551  22.8926  22.9283  22.9769  22.9808  23.0531  23.0685
    23.2457  23.2749  23.3412  23.4328  23.5498  23.5544  23.5750  23.5830
    23.6053  23.6164  23.6279  23.7178  23.7308  23.8092  23.8112  23.9067
    23.9818  24.0841  24.0898  24.1488  24.1494  24.1499  24.1534  24.1628
    24.2966  24.3009  24.3720  24.6069  24.6726  24.6733  24.6794  24.6841
    24.6845  24.8694  25.1388  25.3686  25.4084  25.5583  25.7005  25.8990
    26.3896  26.7107  26.9822

          k = 0.0553 0.1658-0.4975 ( 30608 PWs)   bands (ev):

   -50.2701 -50.2699 -50.2075 -50.2074 -50.1911 -50.1909 -50.1759 -50.1757
   -50.1616 -50.1614 -50.1613 -50.1611 -50.1525 -50.1523 -50.1398 -50.1396
   -50.1357 -50.1355 -50.1259 -50.1257 -50.1147 -50.1145 -50.1131 -50.1129
   -50.1107 -50.1105 -50.1069 -50.1067 -50.0987 -50.0985 -50.0965 -50.0963
   -20.5984 -20.5984 -20.5903 -20.5902 -20.5615 -20.5614 -20.5419 -20.5418
   -20.5403 -20.5401 -20.5393 -20.5392 -20.5030 -20.5028 -20.4579 -20.4578
   -20.4505 -20.4504 -20.4494 -20.4494 -20.3982 -20.3981 -20.3766 -20.3765
   -20.3472 -20.3471 -20.3403 -20.3402 -20.2968 -20.2967 -20.2652 -20.2651
   -20.2368 -20.2367 -20.2221 -20.2220 -20.2195 -20.2195 -20.1853 -20.1852
   -20.1571 -20.1569 -20.0717 -20.0715 -20.0622 -20.0621 -20.0379 -20.0378
   -20.0242 -20.0240 -20.0203 -20.0201 -20.0140 -20.0139 -19.9953 -19.9952
   -19.9861 -19.9859 -19.9799 -19.9798 -19.9771 -19.9770 -19.9751 -19.9751
   -19.9735 -19.9733 -19.9470 -19.9470 -19.9399 -19.9397 -19.9220 -19.9218
   -19.9203 -19.9202 -19.9063 -19.9062 -19.9039 -19.9038 -19.8852 -19.8850
   -19.8809 -19.8807 -19.8746 -19.8745 -19.8612 -19.8610 -19.8432 -19.8430
   -19.8426 -19.8425 -19.8110 -19.8109 -19.7873 -19.7871 -19.7701 -19.7700
    15.8876  15.8879  17.1170  17.1171  17.2067  17.2069  17.2385  17.2387
    17.3086  17.3086  17.4064  17.4064  17.4899  17.4901  17.4912  17.4914
    17.5481  17.5482  17.5874  17.5875  17.6984  17.6986  17.7056  17.7057
    17.7473  17.7474  17.8826  17.8827  18.0694  18.0696  18.1354  18.1355
    18.4118  18.4119  18.4279  18.4281  18.4804  18.4806  18.5696  18.5698
    18.8010  18.8010  18.8390  18.8391  18.8666  18.8666  18.8978  18.8978
    18.9669  18.9669  19.0345  19.0346  19.0557  19.0558  19.5194  19.5195
    19.5662  19.5664  19.5871  19.5873  19.6411  19.6413  19.6887  19.6888
    19.8475  19.8476  19.8556  19.8556  20.0390  20.0391  20.0605  20.0607
    20.1394  20.1394  20.1769  20.1769  20.2400  20.2400  20.4202  20.4202
    20.5253  20.5253  20.6170  20.6171  20.6911  20.6912  20.6985  20.6987
    20.7303  20.7303  20.7624  20.7625  21.1628  21.1628  21.2020  21.2020
    21.2382  21.2383  21.2868  21.2868  21.4612  21.4613  21.4658  21.4659
    21.7174  21.7176  21.8826  21.8827  21.9100  21.9101  21.9541  21.9541
    21.9663  21.9665  22.0302  22.0303  22.0918  22.0920  22.1983  22.1985
    22.3862  22.3863  22.4100  22.4101  22.5108  22.5109  22.7688  22.7690
    22.7997  22.7998  22.8063  22.8065  22.8734  22.8736  23.3176  23.3177
    23.3997  23.3998  23.4109  23.4109  23.6245  23.6246  23.6786  23.6786
    23.8015  23.8016  23.8534  23.8534  23.8544  23.8545  23.8751  23.8751
    23.8752  23.8752  23.8830  23.8831  23.8925  23.8926  24.0773  24.0774
    24.2142  24.2143  24.6303  24.6303  24.6765  24.6766  24.6814  24.6816
    24.9227  24.9229  25.1426  25.1427  25.1483  25.1483  25.6768  25.6770
    26.7290  26.7292  27.1513

          k = 0.0553 0.2764 0.2764 ( 30629 PWs)   bands (ev):

   -50.2844 -50.2368 -50.2368 -50.2009 -50.1989 -50.1825 -50.1736 -50.1735
   -50.1615 -50.1614 -50.1603 -50.1531 -50.1531 -50.1526 -50.1383 -50.1383
   -50.1378 -50.1377 -50.1296 -50.1296 -50.1252 -50.1251 -50.1128 -50.1050
   -50.1050 -50.1045 -50.1045 -50.1024 -50.1024 -50.0984 -50.0984 -50.0964
   -20.6424 -20.6424 -20.6079 -20.5882 -20.5771 -20.5694 -20.5694 -20.5122
   -20.5122 -20.5085 -20.5085 -20.4731 -20.4731 -20.4518 -20.4518 -20.4472
   -20.4472 -20.4447 -20.4447 -20.4373 -20.4373 -20.4115 -20.4114 -20.4114
   -20.3973 -20.3973 -20.3205 -20.3124 -20.2869 -20.2869 -20.2684 -20.2684
   -20.2596 -20.2532 -20.2221 -20.2221 -20.1536 -20.1536 -20.1533 -20.1266
   -20.1266 -20.1215 -20.1215 -20.0904 -20.0904 -20.0688 -20.0688 -20.0585
   -20.0585 -20.0529 -20.0524 -20.0524 -20.0393 -20.0393 -20.0186 -20.0186
   -20.0018 -20.0018 -19.9999 -19.9999 -19.9662 -19.9662 -19.9646 -19.9646
   -19.9509 -19.9509 -19.9491 -19.9417 -19.9215 -19.9215 -19.9200 -19.9139
   -19.9139 -19.9110 -19.9110 -19.9110 -19.8856 -19.8856 -19.8837 -19.8835
   -19.8808 -19.8743 -19.8614 -19.8595 -19.8595 -19.8575 -19.8498 -19.8498
   -19.8445 -19.8342 -19.8342 -19.8059 -19.8059 -19.7947 -19.7626 -19.7392
    15.5008  16.7509  16.7510  16.9326  16.9412  16.9413  17.0494  17.1340
    17.2990  17.2990  17.3576  17.3576  17.4581  17.4761  17.5710  17.5710
    17.6466  17.6783  17.7279  17.7279  17.7306  17.7306  17.8380  17.8380
    17.8699  17.8699  17.9632  17.9632  18.1596  18.2303  18.2303  18.2443
    18.2443  18.2904  18.2904  18.3707  18.3707  18.4645  18.4645  18.5347
    18.5347  18.6585  18.8003  18.8003  18.8652  18.8652  18.8737  19.1113
    19.1113  19.1294  19.1294  19.1583  19.1725  19.1725  19.2284  19.5531
    19.5531  19.6715  19.6715  19.7400  19.7400  19.8040  19.8040  19.8413
    19.8413  19.8592  19.8592  19.9492  19.9657  20.0367  20.0368  20.1081
    20.1250  20.1745  20.1745  20.3252  20.3252  20.3452  20.3991  20.4223
    20.4319  20.4578  20.4578  20.4835  20.5170  20.5283  20.5335  20.5335
    20.6800  20.6800  20.8127  20.8127  21.0387  21.0387  21.1724  21.1724
    21.2280  21.2280  21.3205  21.3206  21.3492  21.4190  21.4410  21.4410
    21.4781  21.4781  21.6504  21.6719  21.7982  21.8266  21.8266  21.8275
    21.8276  21.9470  22.0251  22.1550  22.1550  22.2966  22.3140  22.3140
    22.5890  22.5990  22.5991  22.7232  22.7232  22.7491  22.7492  22.8432
    22.8504  22.8646  22.8646  22.9462  22.9462  23.0506  23.0506  23.0578
    23.0578  23.1071  23.1072  23.3640  23.3906  23.3906  23.4475  23.5368
    23.5368  23.5399  23.5622  23.5622  23.7130  23.7634  23.9334  23.9334
    24.1318  24.2556  24.2556  24.2809  24.2831  24.2831  24.2883  24.3128
    24.4537  24.4537  24.4550  24.4550  24.4944  24.4944  24.5045  24.5045
    24.5990  24.9601  25.0476  25.0476  25.5539  25.5539  26.6097  26.6097
    26.8416  26.9052  26.9052

          k = 0.0553 0.2764 0.3870 ( 30623 PWs)   bands (ev):

   -50.2758 -50.2516 -50.2303 -50.2121 -50.1943 -50.1815 -50.1787 -50.1712
   -50.1680 -50.1644 -50.1598 -50.1554 -50.1504 -50.1429 -50.1381 -50.1352
   -50.1338 -50.1310 -50.1274 -50.1271 -50.1218 -50.1187 -50.1137 -50.1091
   -50.1089 -50.1083 -50.1083 -50.1046 -50.1032 -50.1010 -50.0978 -50.0967
   -20.6223 -20.6196 -20.5736 -20.5553 -20.5546 -20.5522 -20.5503 -20.5499
   -20.5392 -20.5044 -20.5044 -20.5034 -20.4909 -20.4888 -20.4730 -20.4714
   -20.4705 -20.4582 -20.4546 -20.4520 -20.4332 -20.4298 -20.4134 -20.4083
   -20.4022 -20.3735 -20.3446 -20.3437 -20.3153 -20.2916 -20.2507 -20.2415
   -20.2316 -20.2111 -20.2035 -20.1840 -20.1831 -20.1814 -20.1610 -20.1524
   -20.1145 -20.1133 -20.0969 -20.0844 -20.0766 -20.0743 -20.0577 -20.0547
   -20.0453 -20.0417 -20.0390 -20.0292 -20.0250 -20.0235 -20.0110 -20.0042
   -19.9958 -19.9945 -19.9939 -19.9928 -19.9857 -19.9735 -19.9636 -19.9608
   -19.9572 -19.9534 -19.9398 -19.9397 -19.9396 -19.9321 -19.9314 -19.9303
   -19.9182 -19.9091 -19.9069 -19.9011 -19.8972 -19.8964 -19.8950 -19.8944
   -19.8904 -19.8762 -19.8716 -19.8678 -19.8671 -19.8640 -19.8626 -19.8511
   -19.8386 -19.8383 -19.8226 -19.7940 -19.7875 -19.7806 -19.7784 -19.7463
    15.7334  16.3767  16.9274  17.0726  17.0787  17.1190  17.1491  17.2483
    17.4041  17.4189  17.4625  17.4748  17.4812  17.4876  17.4940  17.5242
    17.5315  17.5889  17.6189  17.6527  17.6540  17.6850  17.7595  17.7681
    17.7913  17.8018  17.9519  17.9670  17.9976  18.0041  18.0413  18.1064
    18.1702  18.2590  18.3231  18.3841  18.3855  18.3933  18.4367  18.4410
    18.5310  18.6138  18.6424  18.7152  18.7528  18.8809  18.8860  18.9198
    18.9863  19.0719  19.2016  19.2089  19.2384  19.2478  19.4146  19.4565
    19.5011  19.5219  19.5908  19.7314  19.8181  19.8213  19.8996  19.9273
    19.9392  19.9575  19.9702  20.0559  20.0869  20.1111  20.1143  20.2217
    20.2223  20.2895  20.3115  20.3335  20.3374  20.3718  20.4518  20.5010
    20.5402  20.5480  20.5794  20.5817  20.5967  20.6807  20.7039  20.7107
    20.7178  20.7881  20.8202  20.8310  20.9191  20.9809  21.0239  21.1210
    21.1816  21.1880  21.2199  21.2365  21.2768  21.3000  21.3236  21.3241
    21.4281  21.4445  21.4662  21.5299  21.6468  21.6793  21.6919  21.7373
    21.8508  21.8570  22.0208  22.0442  22.1637  22.2015  22.2777  22.3514
    22.5037  22.5293  22.5389  22.5835  22.6564  22.7453  22.8057  22.8133
    22.8950  22.9267  22.9737  23.0778  23.0867  23.1021  23.1712  23.2317
    23.2794  23.2796  23.4331  23.4359  23.4372  23.4826  23.6585  23.7015
    23.7196  23.7347  23.7748  23.7811  23.7948  23.8002  23.8033  23.8430
    23.9116  24.0585  24.1250  24.1431  24.1440  24.1556  24.1733  24.1780
    24.1859  24.2510  24.4533  24.4605  24.4657  24.4788  24.5298  24.5693
    24.8882  25.0075  25.0307  25.0422  25.0878  25.4042  26.2680  26.2734
    27.0380  27.2135  27.5015

          k = 0.0553 0.2764-0.4975 ( 30624 PWs)   bands (ev):

   -50.2649 -50.2647 -50.2221 -50.2219 -50.1885 -50.1883 -50.1739 -50.1737
   -50.1682 -50.1680 -50.1579 -50.1577 -50.1471 -50.1469 -50.1330 -50.1328
   -50.1304 -50.1302 -50.1249 -50.1247 -50.1173 -50.1171 -50.1150 -50.1148
   -50.1131 -50.1129 -50.1044 -50.1042 -50.1040 -50.1038 -50.0973 -50.0971
   -20.5928 -20.5927 -20.5884 -20.5883 -20.5330 -20.5329 -20.5301 -20.5299
   -20.5256 -20.5254 -20.5057 -20.5056 -20.4998 -20.4997 -20.4924 -20.4924
   -20.4902 -20.4901 -20.4658 -20.4656 -20.4197 -20.4195 -20.4127 -20.4125
   -20.3794 -20.3793 -20.3388 -20.3388 -20.3328 -20.3327 -20.2158 -20.2158
   -20.2134 -20.2133 -20.1960 -20.1959 -20.1801 -20.1799 -20.1617 -20.1616
   -20.1452 -20.1450 -20.0565 -20.0563 -20.0537 -20.0535 -20.0514 -20.0513
   -20.0423 -20.0423 -20.0409 -20.0408 -20.0285 -20.0284 -20.0201 -20.0199
   -19.9925 -19.9923 -19.9842 -19.9842 -19.9688 -19.9687 -19.9674 -19.9673
   -19.9505 -19.9504 -19.9442 -19.9441 -19.9415 -19.9414 -19.9295 -19.9294
   -19.9166 -19.9165 -19.9029 -19.9027 -19.9015 -19.9013 -19.9010 -19.9009
   -19.8909 -19.8907 -19.8800 -19.8799 -19.8668 -19.8666 -19.8487 -19.8486
   -19.8443 -19.8441 -19.7987 -19.7985 -19.7874 -19.7874 -19.7604 -19.7603
    16.0299  16.0302  17.1490  17.1492  17.2444  17.2446  17.2576  17.2577
    17.2982  17.2983  17.3404  17.3405  17.4106  17.4106  17.5844  17.5845
    17.6000  17.6002  17.6936  17.6936  17.7133  17.7133  17.7382  17.7383
    17.7603  17.7604  17.8822  17.8823  17.8945  17.8946  17.9942  17.9943
    18.1929  18.1930  18.2962  18.2964  18.4011  18.4011  18.5211  18.5211
    18.5247  18.5248  18.6734  18.6736  18.7688  18.7689  18.7942  18.7942
    19.1529  19.1529  19.2382  19.2383  19.3177  19.3178  19.3388  19.3390
    19.3731  19.3733  19.6343  19.6344  19.8774  19.8776  19.9705  19.9706
    19.9947  19.9947  20.0912  20.0914  20.0980  20.0980  20.1426  20.1426
    20.2303  20.2304  20.3676  20.3676  20.4751  20.4752  20.5766  20.5767
    20.5817  20.5817  20.6500  20.6501  20.6902  20.6903  20.7068  20.7069
    20.8708  20.8709  20.8953  20.8953  20.9094  20.9094  20.9285  20.9285
    21.0966  21.0966  21.0999  21.0999  21.2060  21.2062  21.2143  21.2144
    21.4208  21.4209  21.6334  21.6335  21.7853  21.7855  21.8017  21.8017
    21.8465  21.8466  21.8865  21.8866  21.9931  21.9933  22.1710  22.1711
    22.3688  22.3689  22.6759  22.6760  22.7127  22.7128  22.7741  22.7743
    22.9144  22.9145  23.1620  23.1622  23.2021  23.2023  23.3141  23.3143
    23.4072  23.4074  23.4790  23.4791  23.5581  23.5581  23.5588  23.5588
    23.8072  23.8072  23.8077  23.8079  23.9107  23.9108  23.9758  23.9758
    23.9761  23.9761  23.9953  23.9953  24.0155  24.0156  24.0173  24.0174
    24.1167  24.1168  24.4679  24.4681  24.4887  24.4888  24.5357  24.5357
    24.6847  24.6849  25.2180  25.2181  25.6118  25.6120  25.6848  25.6848
    27.3915  27.3917  27.7179

          k = 0.0553 0.3870 0.3870 ( 30604 PWs)   bands (ev):

   -50.2676 -50.2445 -50.2445 -50.2244 -50.1901 -50.1784 -50.1784 -50.1753
   -50.1697 -50.1657 -50.1657 -50.1593 -50.1361 -50.1361 -50.1305 -50.1305
   -50.1300 -50.1300 -50.1239 -50.1239 -50.1217 -50.1217 -50.1129 -50.1129
   -50.1123 -50.1123 -50.1104 -50.1104 -50.1050 -50.0997 -50.0996 -50.0975
   -20.6037 -20.6037 -20.5446 -20.5446 -20.5427 -20.5427 -20.5386 -20.5324
   -20.5274 -20.5274 -20.5104 -20.5020 -20.5020 -20.4933 -20.4933 -20.4704
   -20.4704 -20.4570 -20.4570 -20.4554 -20.4553 -20.4548 -20.4548 -20.4190
   -20.4189 -20.4177 -20.3804 -20.3383 -20.3326 -20.2828 -20.2828 -20.2153
   -20.1958 -20.1958 -20.1635 -20.1635 -20.1573 -20.1282 -20.1282 -20.1142
   -20.1142 -20.1131 -20.1131 -20.0978 -20.0978 -20.0517 -20.0516 -20.0516
   -20.0516 -20.0386 -20.0386 -20.0315 -20.0299 -20.0299 -20.0266 -20.0266
   -20.0144 -20.0144 -19.9853 -19.9853 -19.9776 -19.9776 -19.9744 -19.9658
   -19.9658 -19.9428 -19.9428 -19.9384 -19.9321 -19.9321 -19.9320 -19.9320
   -19.9150 -19.9104 -19.9104 -19.9094 -19.9094 -19.9028 -19.8954 -19.8885
   -19.8834 -19.8780 -19.8741 -19.8724 -19.8724 -19.8660 -19.8614 -19.8447
   -19.8447 -19.8399 -19.8399 -19.7945 -19.7751 -19.7721 -19.7721 -19.7475
    15.9547  16.5681  16.5681  17.0948  17.1873  17.2145  17.2592  17.2592
    17.3267  17.4716  17.4716  17.4898  17.5519  17.5520  17.6057  17.6057
    17.6058  17.6058  17.6310  17.6310  17.6385  17.6585  17.6585  17.7394
    17.7394  17.8116  17.8526  17.9216  17.9216  18.1027  18.1027  18.1082
    18.1082  18.1102  18.1102  18.1227  18.1227  18.3539  18.3540  18.3685
    18.3685  18.4183  18.4183  18.6687  18.6687  18.7891  19.0016  19.0016
    19.0080  19.0080  19.1608  19.3279  19.3279  19.3415  19.3455  19.4187
    19.4187  19.7367  19.7447  19.7447  19.9093  19.9971  19.9971  20.1187
    20.1241  20.1241  20.1302  20.1302  20.1442  20.1442  20.1698  20.1698
    20.2503  20.2987  20.4477  20.4477  20.5398  20.5398  20.5632  20.6122
    20.6133  20.6179  20.6355  20.6756  20.7245  20.7245  20.7487  20.7488
    20.8959  20.8959  20.9024  20.9124  20.9124  20.9420  20.9420  20.9789
    21.0642  21.0642  21.0883  21.0883  21.1164  21.1272  21.1593  21.1593
    21.1819  21.1819  21.3262  21.3961  21.3962  21.4260  21.4260  21.6990
    21.8459  21.8459  21.8596  21.8596  21.9385  21.9385  21.9996  22.0903
    22.3971  22.7141  22.7647  22.7647  22.7854  22.7854  23.0444  23.0444
    23.0566  23.0566  23.1528  23.1528  23.2123  23.2124  23.2806  23.3168
    23.4595  23.4595  23.5613  23.5895  23.5896  23.6057  23.6058  23.6147
    23.6147  23.6986  23.8060  23.9029  23.9352  23.9583  23.9583  23.9612
    23.9612  24.0034  24.0687  24.1206  24.1207  24.1661  24.1661  24.1800
    24.1800  24.2042  24.2096  24.2096  24.2265  24.2266  24.3927  24.4206
    24.4206  24.7503  24.9072  24.9072  25.6563  25.6563  26.9151  26.9151
    26.9876  26.9876  27.7040

          k = 0.0553 0.3870-0.4975 ( 30586 PWs)   bands (ev):

   -50.2572 -50.2570 -50.2354 -50.2352 -50.1849 -50.1847 -50.1745 -50.1743
   -50.1710 -50.1708 -50.1628 -50.1627 -50.1336 -50.1334 -50.1268 -50.1266
   -50.1256 -50.1254 -50.1235 -50.1233 -50.1196 -50.1194 -50.1177 -50.1175
   -50.1167 -50.1165 -50.1118 -50.1116 -50.1022 -50.1020 -50.0986 -50.0984
   -20.5784 -20.5783 -20.5768 -20.5767 -20.5265 -20.5265 -20.5264 -20.5264
   -20.5121 -20.5119 -20.5042 -20.5040 -20.4983 -20.4982 -20.4948 -20.4946
   -20.4780 -20.4779 -20.4659 -20.4658 -20.4568 -20.4567 -20.4450 -20.4448
   -20.4185 -20.4184 -20.3763 -20.3762 -20.3134 -20.3134 -20.2489 -20.2489
   -20.1612 -20.1611 -20.1528 -20.1528 -20.1410 -20.1408 -20.1280 -20.1278
   -20.1035 -20.1035 -20.0803 -20.0801 -20.0767 -20.0765 -20.0747 -20.0747
   -20.0672 -20.0672 -20.0346 -20.0344 -20.0212 -20.0211 -20.0142 -20.0140
   -19.9997 -19.9996 -19.9928 -19.9928 -19.9925 -19.9924 -19.9756 -19.9755
   -19.9564 -19.9562 -19.9558 -19.9557 -19.9252 -19.9250 -19.9220 -19.9220
   -19.9219 -19.9219 -19.9144 -19.9144 -19.8917 -19.8916 -19.8878 -19.8877
   -19.8842 -19.8841 -19.8793 -19.8791 -19.8622 -19.8620 -19.8576 -19.8576
   -19.8532 -19.8530 -19.8153 -19.8151 -19.7699 -19.7699 -19.7563 -19.7563
    16.2372  16.2374  16.8111  16.8113  17.3229  17.3229  17.3478  17.3479
    17.4281  17.4283  17.4464  17.4464  17.4707  17.4708  17.4846  17.4848
    17.6119  17.6119  17.6611  17.6612  17.7616  17.7618  17.8399  17.8400
    17.8523  17.8524  17.8669  17.8669  17.8716  17.8717  17.9210  17.9212
    18.0924  18.0925  18.1234  18.1235  18.2311  18.2312  18.2595  18.2596
    18.2800  18.2800  18.5676  18.5676  18.8008  18.8009  18.8129  18.8131
    19.1480  19.1482  19.1590  19.1592  19.3980  19.3981  19.4697  19.4698
    19.5997  19.5998  19.6639  19.6639  19.8654  19.8655  20.1132  20.1133
    20.1596  20.1596  20.2176  20.2176  20.2953  20.2953  20.3457  20.3457
    20.4537  20.4539  20.4703  20.4703  20.4957  20.4958  20.6568  20.6568
    20.6726  20.6726  20.6944  20.6945  20.7175  20.7176  20.7492  20.7492
    20.7987  20.7987  20.8507  20.8508  20.8534  20.8534  20.8810  20.8811
    20.9964  20.9965  21.0038  21.0038  21.1467  21.1467  21.1694  21.1695
    21.1758  21.1759  21.3240  21.3241  21.5633  21.5635  21.5661  21.5661
    21.6223  21.6224  21.6411  21.6412  21.7894  21.7896  21.9653  21.9655
    22.5941  22.5943  22.8507  22.8509  22.9620  22.9621  23.0048  23.0050
    23.0349  23.0351  23.2636  23.2637  23.3382  23.3384  23.3579  23.3581
    23.4317  23.4318  23.5126  23.5128  23.6247  23.6247  23.7607  23.7608
    23.8244  23.8245  23.9123  23.9124  23.9784  23.9784  23.9801  23.9801
    23.9984  23.9984  24.0632  24.0632  24.0661  24.0661  24.1000  24.1001
    24.1044  24.1045  24.1827  24.1829  24.2366  24.2368  24.2925  24.2926
    24.4090  24.4090  24.7633  24.7635  26.2965  26.2965  26.3014  26.3015
    27.6213  27.6214  27.6938

          k = 0.0553-0.4975-0.4975 ( 30584 PWs)   bands (ev):

   -50.2473 -50.2472 -50.2472 -50.2470 -50.1802 -50.1801 -50.1801 -50.1799
   -50.1674 -50.1672 -50.1672 -50.1670 -50.1219 -50.1218 -50.1217 -50.1217
   -50.1217 -50.1217 -50.1215 -50.1215 -50.1214 -50.1213 -50.1212 -50.1212
   -50.1212 -50.1212 -50.1210 -50.1210 -50.1003 -50.1001 -50.1001 -50.0999
   -20.5559 -20.5559 -20.5558 -20.5558 -20.5558 -20.5558 -20.5557 -20.5557
   -20.4877 -20.4877 -20.4875 -20.4875 -20.4875 -20.4875 -20.4874 -20.4874
   -20.4769 -20.4767 -20.4767 -20.4766 -20.4594 -20.4593 -20.4593 -20.4592
   -20.4220 -20.4219 -20.4219 -20.4218 -20.2822 -20.2822 -20.2822 -20.2821
   -20.1118 -20.1118 -20.1118 -20.1118 -20.1118 -20.1118 -20.1118 -20.1118
   -20.1062 -20.1062 -20.1060 -20.1060 -20.1060 -20.1060 -20.1058 -20.1058
   -20.0466 -20.0466 -20.0466 -20.0466 -20.0072 -20.0072 -20.0071 -20.0071
   -20.0071 -20.0071 -20.0069 -20.0069 -20.0048 -20.0048 -20.0048 -20.0048
   -19.9405 -19.9405 -19.9404 -19.9404 -19.9404 -19.9404 -19.9403 -19.9403
   -19.9065 -19.9064 -19.9064 -19.9063 -19.8933 -19.8933 -19.8933 -19.8933
   -19.8718 -19.8718 -19.8718 -19.8718 -19.8674 -19.8673 -19.8673 -19.8672
   -19.8368 -19.8366 -19.8366 -19.8364 -19.7594 -19.7594 -19.7594 -19.7594
    16.5014  16.5016  16.5016  16.5018  17.3813  17.3813  17.3813  17.3814
    17.4820  17.4821  17.4821  17.4821  17.5137  17.5137  17.5137  17.5137
    17.6583  17.6583  17.6585  17.6585  17.6585  17.6585  17.6587  17.6587
    17.9736  17.9736  17.9737  17.9738  17.9738  17.9738  17.9739  17.9739
    18.0613  18.0613  18.0613  18.0613  18.0613  18.0613  18.0614  18.0614
    18.3239  18.3239  18.3239  18.3240  18.9638  18.9638  18.9639  18.9640
    18.9640  18.9640  18.9641  18.9641  19.5217  19.5217  19.5217  19.5217
    19.7437  19.7438  19.7438  19.7439  20.0128  20.0130  20.0130  20.0130
    20.2342  20.2342  20.2342  20.2342  20.2413  20.2414  20.2414  20.2414
    20.5842  20.5842  20.5842  20.5842  20.5843  20.5843  20.5843  20.5843
    20.6969  20.6970  20.6970  20.6971  20.8316  20.8317  20.8317  20.8318
    20.8463  20.8463  20.8463  20.8463  20.9842  20.9842  20.9842  20.9843
    20.9883  20.9883  20.9883  20.9883  20.9884  20.9884  20.9884  20.9884
    21.2530  21.2531  21.2531  21.2532  21.3869  21.3869  21.3869  21.3869
    21.3870  21.3870  21.3870  21.3871  21.8771  21.8772  21.8773  21.8774
    22.8263  22.8264  22.8264  22.8266  23.0204  23.0206  23.0206  23.0207
    23.2260  23.2260  23.2261  23.2261  23.2261  23.2261  23.2262  23.2263
    23.7337  23.7338  23.7338  23.7339  23.8560  23.8560  23.8561  23.8561
    23.8562  23.8562  23.8563  23.8563  23.8563  23.8564  23.8564  23.8565
    24.0849  24.0849  24.0850  24.0851  24.1142  24.1142  24.1142  24.1143
    24.1143  24.1143  24.1143  24.1143  24.1250  24.1250  24.1250  24.1250
    24.3790  24.3791  24.3791  24.3792  26.9755  26.9756  26.9756  26.9756
    26.9757  26.9757  26.9757

          k = 0.1658 0.1658 0.1658 ( 30620 PWs)   bands (ev):

   -50.2933 -50.2226 -50.2226 -50.2226 -50.1772 -50.1771 -50.1771 -50.1706
   -50.1706 -50.1706 -50.1576 -50.1441 -50.1440 -50.1440 -50.1440 -50.1440
   -50.1440 -50.1435 -50.1435 -50.1435 -50.1248 -50.1248 -50.1248 -50.0993
   -50.0992 -50.0992 -50.0988 -50.0988 -50.0988 -50.0988 -50.0987 -50.0987
   -20.6592 -20.6592 -20.6592 -20.6246 -20.5972 -20.5972 -20.5972 -20.4691
   -20.4691 -20.4691 -20.4513 -20.4513 -20.4513 -20.4513 -20.4513 -20.4513
   -20.4324 -20.4324 -20.4324 -20.4324 -20.4324 -20.4324 -20.3694 -20.3694
   -20.3694 -20.3312 -20.3312 -20.3312 -20.2862 -20.2862 -20.2862 -20.2862
   -20.2862 -20.2862 -20.2073 -20.2073 -20.2073 -20.1232 -20.1232 -20.1232
   -20.1022 -20.1022 -20.1022 -20.1022 -20.1022 -20.1022 -20.0995 -20.0995
   -20.0995 -20.0630 -20.0630 -20.0630 -20.0577 -20.0577 -20.0577 -20.0577
   -20.0577 -20.0577 -19.9965 -19.9965 -19.9965 -19.9557 -19.9557 -19.9557
   -19.9457 -19.9457 -19.9457 -19.9070 -19.9070 -19.9070 -19.8999 -19.8999
   -19.8999 -19.8842 -19.8842 -19.8842 -19.8842 -19.8842 -19.8842 -19.8745
   -19.8745 -19.8745 -19.8589 -19.8589 -19.8589 -19.8529 -19.8529 -19.8529
   -19.8510 -19.8510 -19.8197 -19.8197 -19.8197 -19.7968 -19.7390 -19.7390
    15.2588  16.7778  16.7778  16.7778  16.9260  17.0503  17.0503  17.0503
    17.0807  17.0807  17.0807  17.2315  17.2315  17.2315  17.5712  17.5712
    17.5712  17.9605  17.9605  17.9606  17.9606  17.9607  17.9607  17.9607
    17.9607  17.9607  18.1534  18.1534  18.1535  18.3674  18.3674  18.3674
    18.3864  18.3864  18.3864  18.3864  18.3864  18.3864  18.7264  18.7264
    18.7264  18.7264  18.7264  18.7264  18.9074  18.9074  18.9074  19.2311
    19.2311  19.2311  19.3838  19.3838  19.3838  19.3838  19.3838  19.3838
    19.5138  19.5138  19.5138  19.5896  19.5897  19.5897  19.5897  19.5897
    19.5897  19.8965  19.8965  19.8965  20.0664  20.0664  20.0664  20.0911
    20.1010  20.1010  20.1010  20.1010  20.1010  20.1010  20.1371  20.1371
    20.1371  20.1974  20.1974  20.3311  20.3311  20.3311  20.3476  20.3476
    20.8649  20.8649  20.8649  21.1431  21.1431  21.1431  21.1939  21.1939
    21.1939  21.3781  21.3781  21.3781  21.5732  21.5733  21.5733  21.6253
    21.6253  21.6253  21.6253  21.6253  21.6253  22.0267  22.0267  22.0267
    22.1917  22.1918  22.1918  22.3083  22.3083  22.3083  22.3357  22.3357
    22.3357  22.4076  22.4076  22.4076  22.4076  22.4076  22.4076  22.4899
    22.4899  22.7915  22.9648  22.9649  22.9649  22.9649  22.9649  22.9649
    23.2142  23.2142  23.2142  23.2286  23.2286  23.2286  23.3171  23.3171
    23.3171  23.6148  23.6148  23.6148  23.7831  23.7831  23.7831  23.9797
    23.9797  23.9797  24.0627  24.0627  24.3550  24.3550  24.3550  24.5755
    24.5755  24.5755  24.5755  24.5755  24.5755  24.6868  24.6868  24.6869
    25.1621  25.1621  25.1621  25.6514  25.6514  25.6514  26.7357  26.7357
    26.7357  26.7357  26.7357

          k = 0.1658 0.1658 0.2764 ( 30625 PWs)   bands (ev):

   -50.2873 -50.2390 -50.2187 -50.2187 -50.1877 -50.1876 -50.1755 -50.1683
   -50.1683 -50.1620 -50.1540 -50.1501 -50.1501 -50.1440 -50.1439 -50.1436
   -50.1435 -50.1392 -50.1335 -50.1335 -50.1263 -50.1187 -50.1187 -50.1052
   -50.1026 -50.1026 -50.1010 -50.1010 -50.0992 -50.0991 -50.0989 -50.0988
   -20.6492 -20.6392 -20.6392 -20.5932 -20.5831 -20.5830 -20.5755 -20.5151
   -20.4900 -20.4899 -20.4692 -20.4692 -20.4646 -20.4646 -20.4644 -20.4644
   -20.4469 -20.4469 -20.4351 -20.4351 -20.4335 -20.4335 -20.4110 -20.3944
   -20.3479 -20.3479 -20.3303 -20.3303 -20.2933 -20.2933 -20.2625 -20.2625
   -20.2481 -20.2481 -20.2385 -20.2385 -20.1567 -20.1566 -20.1513 -20.1373
   -20.1373 -20.1202 -20.1202 -20.0874 -20.0679 -20.0679 -20.0633 -20.0633
   -20.0586 -20.0586 -20.0570 -20.0570 -20.0543 -20.0532 -20.0387 -20.0387
   -20.0336 -20.0336 -19.9888 -19.9730 -19.9658 -19.9658 -19.9639 -19.9638
   -19.9638 -19.9368 -19.9364 -19.9364 -19.9257 -19.9257 -19.9157 -19.9156
   -19.9151 -19.9151 -19.9042 -19.8878 -19.8878 -19.8839 -19.8839 -19.8819
   -19.8792 -19.8792 -19.8683 -19.8683 -19.8565 -19.8436 -19.8397 -19.8397
   -19.8313 -19.8312 -19.8223 -19.8215 -19.8108 -19.8108 -19.7491 -19.7424
    15.4203  16.6834  16.8735  16.8888  16.8888  16.9787  17.1454  17.1454
    17.1820  17.1820  17.2302  17.3042  17.3577  17.3577  17.4885  17.6613
    17.6613  17.6923  17.7410  17.7410  17.7907  17.7907  17.9300  18.0138
    18.0138  18.0617  18.0617  18.0695  18.0696  18.1557  18.2603  18.2603
    18.2721  18.2721  18.2935  18.2935  18.3800  18.3800  18.4779  18.4779
    18.7376  18.7376  18.7579  18.7579  18.9766  18.9766  19.1084  19.1084
    19.1515  19.1516  19.1675  19.2153  19.2429  19.2429  19.4350  19.4350
    19.4449  19.4449  19.5982  19.5982  19.6235  19.6235  19.7397  19.8216
    19.8216  19.9074  19.9889  19.9889  20.0001  20.0305  20.0305  20.1026
    20.1026  20.1153  20.1153  20.2236  20.2284  20.2421  20.2421  20.2471
    20.4126  20.4263  20.4351  20.4403  20.4403  20.4662  20.6342  20.6342
    20.7012  20.7013  20.8780  20.8780  20.8921  20.8976  21.1187  21.1537
    21.1537  21.3190  21.3190  21.3395  21.3494  21.3494  21.5881  21.7323
    21.7323  21.7657  21.7658  21.8385  21.8664  21.8664  21.9440  21.9440
    21.9710  22.1094  22.1094  22.1820  22.1820  22.2004  22.2005  22.3070
    22.3432  22.3432  22.3659  22.4057  22.4057  22.5318  22.5491  22.6467
    22.6683  22.6683  23.0132  23.0132  23.0418  23.0671  23.0671  23.2896
    23.2897  23.2944  23.2944  23.2994  23.2994  23.3460  23.4341  23.4341
    23.4587  23.4587  23.4744  23.8095  23.8095  23.8172  23.8281  23.8995
    23.9730  24.0656  24.0656  24.1873  24.2972  24.3218  24.3218  24.3958
    24.3958  24.3977  24.3977  24.5811  24.5811  24.5951  24.6598  24.6598
    24.6933  24.6933  25.0505  25.8338  25.8338  26.2059  26.2059  26.3703
    26.5823  26.6440  26.6440

          k = 0.1658 0.1658 0.3870 ( 30626 PWs)   bands (ev):

   -50.2786 -50.2541 -50.2131 -50.2131 -50.1973 -50.1973 -50.1730 -50.1662
   -50.1650 -50.1650 -50.1558 -50.1558 -50.1440 -50.1438 -50.1437 -50.1436
   -50.1388 -50.1351 -50.1287 -50.1239 -50.1238 -50.1140 -50.1132 -50.1132
   -50.1082 -50.1082 -50.1042 -50.1042 -50.0992 -50.0991 -50.0989 -50.0988
   -20.6286 -20.6104 -20.6104 -20.5624 -20.5624 -20.5598 -20.5538 -20.5435
   -20.5329 -20.5329 -20.5044 -20.5044 -20.4697 -20.4697 -20.4598 -20.4598
   -20.4594 -20.4564 -20.4564 -20.4518 -20.4381 -20.4381 -20.4150 -20.4150
   -20.3693 -20.3693 -20.2937 -20.2937 -20.2874 -20.2874 -20.2647 -20.2647
   -20.2344 -20.2344 -20.2108 -20.2108 -20.1979 -20.1979 -20.1713 -20.1713
   -20.1459 -20.1459 -20.0921 -20.0695 -20.0566 -20.0565 -20.0562 -20.0562
   -20.0387 -20.0361 -20.0360 -20.0201 -20.0201 -20.0194 -20.0124 -20.0124
   -20.0052 -20.0052 -19.9981 -19.9888 -19.9840 -19.9840 -19.9822 -19.9491
   -19.9491 -19.9482 -19.9482 -19.9428 -19.9428 -19.9339 -19.9339 -19.9289
   -19.9225 -19.9225 -19.9002 -19.8962 -19.8962 -19.8887 -19.8854 -19.8854
   -19.8835 -19.8835 -19.8816 -19.8816 -19.8756 -19.8723 -19.8369 -19.8261
   -19.8250 -19.8250 -19.8091 -19.8091 -19.8056 -19.7936 -19.7640 -19.7530
    15.6559  16.3064  17.0084  17.0504  17.0504  17.0842  17.2786  17.2787
    17.3327  17.3327  17.3402  17.4124  17.4223  17.4461  17.4930  17.4930
    17.5427  17.5427  17.6138  17.6138  17.7285  17.7751  17.7751  17.7868
    17.7868  17.9019  18.0625  18.0625  18.0801  18.0801  18.1015  18.1015
    18.2208  18.2208  18.2227  18.2227  18.4489  18.4489  18.4996  18.4996
    18.7515  18.7515  18.8189  18.8189  18.8821  18.8821  18.9519  18.9519
    19.0347  19.0347  19.0752  19.0752  19.2909  19.3219  19.3219  19.4181
    19.5287  19.5287  19.5750  19.6463  19.6463  19.7280  19.7280  19.8473
    19.8578  19.8578  19.8734  19.8734  20.1157  20.1233  20.1233  20.1279
    20.1279  20.2165  20.3184  20.3184  20.3437  20.4756  20.4756  20.5245
    20.5245  20.5299  20.5419  20.5419  20.5439  20.5813  20.5892  20.5892
    20.6417  20.6698  20.8194  20.8276  20.8916  21.0898  21.0999  21.0999
    21.1990  21.1991  21.2115  21.2115  21.2778  21.2778  21.4978  21.4978
    21.5927  21.7122  21.8548  21.8962  21.8962  21.9176  21.9176  22.0540
    22.0868  22.0868  22.0920  22.0920  22.1312  22.1313  22.1965  22.2387
    22.2387  22.2561  22.2561  22.3630  22.3630  22.4473  22.4473  22.6363
    22.8813  22.8855  22.9748  22.9825  22.9832  22.9832  23.1158  23.1158
    23.3788  23.3788  23.5123  23.5123  23.5437  23.5854  23.5854  23.5857
    23.6029  23.6029  23.6266  23.6266  23.6705  23.6705  23.7347  24.1544
    24.1640  24.1640  24.1662  24.1683  24.1683  24.1713  24.1713  24.2496
    24.2496  24.4303  24.4709  24.5422  24.5665  24.5665  24.5909  24.5909
    24.6299  24.6299  24.8860  25.6625  25.6625  25.9266  26.0714  26.0714
    26.5007  26.5007  27.0335

          k = 0.1658 0.1658-0.4975 ( 30614 PWs)   bands (ev):

   -50.2675 -50.2673 -50.2060 -50.2060 -50.2058 -50.2058 -50.1700 -50.1698
   -50.1609 -50.1609 -50.1607 -50.1607 -50.1440 -50.1438 -50.1438 -50.1436
   -50.1317 -50.1315 -50.1255 -50.1253 -50.1154 -50.1154 -50.1152 -50.1152
   -50.1084 -50.1084 -50.1082 -50.1082 -50.0992 -50.0990 -50.0990 -50.0988
   -20.5984 -20.5983 -20.5743 -20.5742 -20.5742 -20.5741 -20.5360 -20.5360
   -20.5358 -20.5358 -20.5084 -20.5083 -20.5020 -20.5019 -20.4680 -20.4680
   -20.4680 -20.4680 -20.4466 -20.4466 -20.4465 -20.4465 -20.3925 -20.3925
   -20.3924 -20.3924 -20.2840 -20.2840 -20.2839 -20.2839 -20.2425 -20.2425
   -20.2424 -20.2424 -20.2038 -20.2038 -20.2037 -20.2037 -20.1764 -20.1764
   -20.1763 -20.1763 -20.0560 -20.0559 -20.0559 -20.0558 -20.0467 -20.0465
   -20.0347 -20.0347 -20.0203 -20.0201 -20.0078 -20.0078 -20.0077 -20.0076
   -19.9815 -19.9815 -19.9814 -19.9814 -19.9788 -19.9787 -19.9786 -19.9785
   -19.9762 -19.9762 -19.9761 -19.9761 -19.9286 -19.9286 -19.9083 -19.9083
   -19.9082 -19.9082 -19.9076 -19.9076 -19.9074 -19.9074 -19.8972 -19.8971
   -19.8951 -19.8949 -19.8829 -19.8828 -19.8828 -19.8826 -19.8311 -19.8309
   -19.8141 -19.8141 -19.8141 -19.8141 -19.7831 -19.7829 -19.7704 -19.7703
    15.9560  15.9563  17.1703  17.1704  17.2411  17.2411  17.2555  17.2557
    17.2557  17.2558  17.4390  17.4390  17.4391  17.4391  17.5310  17.5310
    17.5312  17.5312  17.5545  17.5547  17.6500  17.6501  17.7803  17.7803
    17.7804  17.7804  17.9377  17.9377  17.9378  17.9378  18.1503  18.1503
    18.1503  18.1503  18.3937  18.3937  18.3939  18.3939  18.6793  18.6793
    18.6793  18.6793  18.7782  18.7782  18.7783  18.7783  18.9145  18.9145
    18.9145  18.9145  19.1950  19.1950  19.1951  19.1951  19.4190  19.4191
    19.6265  19.6266  19.6267  19.6267  19.6486  19.6487  19.7360  19.7361
    19.7361  19.7362  20.1318  20.1318  20.1319  20.1320  20.1813  20.1813
    20.1813  20.1813  20.1820  20.1821  20.4127  20.4128  20.4128  20.4128
    20.4855  20.4855  20.6805  20.6806  20.6993  20.6994  20.7299  20.7300
    20.7300  20.7300  20.8523  20.8524  21.0821  21.0821  21.0822  21.0822
    21.1214  21.1215  21.2074  21.2074  21.2406  21.2406  21.2407  21.2407
    21.8204  21.8205  21.8205  21.8205  22.0028  22.0029  22.0030  22.0030
    22.0080  22.0081  22.0935  22.0935  22.0937  22.0937  22.2068  22.2068
    22.2069  22.2069  22.2577  22.2577  22.2578  22.2579  22.5318  22.5319
    22.7492  22.7494  23.2233  23.2234  23.2483  23.2483  23.2485  23.2485
    23.3013  23.3013  23.3017  23.3019  23.3019  23.3020  23.8452  23.8452
    23.8453  23.8453  23.8955  23.8955  23.8957  23.8957  23.9202  23.9202
    23.9203  23.9203  23.9285  23.9286  23.9286  23.9287  23.9731  23.9732
    24.3220  24.3221  24.6064  24.6066  24.6066  24.6068  24.6747  24.6749
    25.1114  25.1114  25.1114  25.1114  25.2284  25.2286  26.3056  26.3056
    26.3058  26.3058  27.5791

          k = 0.1658 0.2764 0.2764 ( 30622 PWs)   bands (ev):

   -50.2815 -50.2346 -50.2346 -50.2151 -50.1995 -50.1855 -50.1855 -50.1679
   -50.1662 -50.1523 -50.1523 -50.1495 -50.1495 -50.1451 -50.1383 -50.1383
   -50.1378 -50.1378 -50.1340 -50.1340 -50.1208 -50.1208 -50.1141 -50.1050
   -50.1050 -50.1046 -50.1046 -50.1032 -50.1032 -50.1005 -50.1005 -50.0993
   -20.6334 -20.6334 -20.6173 -20.5694 -20.5643 -20.5643 -20.5588 -20.5115
   -20.5115 -20.5002 -20.5002 -20.4747 -20.4747 -20.4703 -20.4703 -20.4632
   -20.4632 -20.4592 -20.4592 -20.4592 -20.4565 -20.4565 -20.4046 -20.4046
   -20.3715 -20.3715 -20.3677 -20.2846 -20.2662 -20.2662 -20.2647 -20.2550
   -20.2550 -20.2271 -20.2271 -20.1918 -20.1788 -20.1788 -20.1448 -20.1065
   -20.1065 -20.1029 -20.1029 -20.0993 -20.0993 -20.0913 -20.0913 -20.0487
   -20.0487 -20.0483 -20.0404 -20.0404 -20.0354 -20.0354 -20.0329 -20.0329
   -20.0192 -20.0192 -19.9996 -19.9996 -19.9658 -19.9658 -19.9605 -19.9549
   -19.9548 -19.9394 -19.9379 -19.9348 -19.9348 -19.9319 -19.9220 -19.9220
   -19.9209 -19.9209 -19.9196 -19.9130 -19.9130 -19.8907 -19.8907 -19.8886
   -19.8886 -19.8869 -19.8683 -19.8565 -19.8487 -19.8448 -19.8418 -19.8395
   -19.8395 -19.8144 -19.8144 -19.8100 -19.8100 -19.7969 -19.7568 -19.7440
    15.5756  16.7901  16.7902  16.9799  16.9837  16.9837  17.0061  17.1983
    17.2561  17.3359  17.3359  17.4296  17.4296  17.4946  17.5697  17.5757
    17.5758  17.5826  17.5826  17.6855  17.7721  17.7721  17.8413  17.8414
    17.9822  17.9822  18.0546  18.0546  18.1053  18.1054  18.1364  18.1576
    18.1576  18.1768  18.1768  18.2896  18.2896  18.4239  18.4240  18.4399
    18.4830  18.4830  18.7408  18.7408  19.0010  19.0010  19.0887  19.0988
    19.1071  19.1071  19.1811  19.1811  19.2165  19.2165  19.4324  19.4420
    19.4420  19.6390  19.6390  19.6833  19.6833  19.7781  19.8249  19.8250
    19.8775  19.8775  19.9425  19.9931  19.9931  20.0645  20.0645  20.2356
    20.2471  20.2720  20.2720  20.3141  20.3997  20.3998  20.4075  20.4569
    20.4649  20.4649  20.4844  20.5434  20.5917  20.5917  20.6054  20.6054
    20.6069  20.6912  20.7761  20.7761  20.9058  20.9058  21.0813  21.0832
    21.0832  21.1927  21.2103  21.2104  21.4552  21.4552  21.5013  21.5014
    21.5805  21.5806  21.5898  21.6525  21.6525  21.8744  21.9417  21.9476
    21.9721  21.9854  21.9854  22.0296  22.0296  22.2856  22.2856  22.3401
    22.4445  22.4612  22.4612  22.5051  22.5051  22.5320  22.5720  22.5720
    22.6623  22.6623  22.7154  22.8028  22.8028  23.0920  23.0920  23.3144
    23.3517  23.3517  23.3881  23.3881  23.5831  23.5831  23.5876  23.5961
    23.6549  23.6549  23.6562  23.6562  23.8101  23.8594  23.8594  23.9130
    23.9665  23.9765  24.2612  24.3016  24.3016  24.3225  24.3225  24.3741
    24.4127  24.4127  24.4147  24.4147  24.4927  24.4927  24.5833  24.5833
    24.5873  24.5873  24.6063  25.7492  26.1250  26.1250  26.5988  26.5988
    26.8203  26.8203  27.1903

          k = 0.1658 0.2764 0.3870 ( 30640 PWs)   bands (ev):

   -50.2731 -50.2493 -50.2283 -50.2105 -50.2097 -50.1947 -50.1823 -50.1734
   -50.1632 -50.1547 -50.1498 -50.1487 -50.1464 -50.1426 -50.1375 -50.1366
   -50.1346 -50.1325 -50.1273 -50.1248 -50.1239 -50.1157 -50.1135 -50.1099
   -50.1099 -50.1095 -50.1075 -50.1047 -50.1037 -50.1030 -50.1001 -50.0995
   -20.6168 -20.6088 -20.5873 -20.5545 -20.5496 -20.5478 -20.5396 -20.5364
   -20.5171 -20.5109 -20.5025 -20.5021 -20.5019 -20.4948 -20.4805 -20.4784
   -20.4743 -20.4706 -20.4569 -20.4558 -20.4545 -20.4465 -20.4454 -20.4201
   -20.4179 -20.3928 -20.3276 -20.2823 -20.2817 -20.2426 -20.2358 -20.2348
   -20.2348 -20.2148 -20.2038 -20.2002 -20.1920 -20.1728 -20.1371 -20.1366
   -20.1365 -20.1307 -20.1172 -20.0867 -20.0708 -20.0570 -20.0457 -20.0419
   -20.0407 -20.0340 -20.0334 -20.0320 -20.0281 -20.0180 -20.0167 -20.0098
   -20.0063 -20.0028 -19.9990 -19.9984 -19.9948 -19.9921 -19.9817 -19.9696
   -19.9580 -19.9549 -19.9544 -19.9439 -19.9433 -19.9363 -19.9302 -19.9270
   -19.9164 -19.9148 -19.9098 -19.9084 -19.9040 -19.9028 -19.9006 -19.8989
   -19.8983 -19.8908 -19.8897 -19.8669 -19.8574 -19.8558 -19.8345 -19.8325
   -19.8197 -19.8139 -19.8134 -19.7978 -19.7902 -19.7843 -19.7713 -19.7505
    15.8019  16.4271  16.9425  17.0823  17.1167  17.1179  17.1443  17.2724
    17.3450  17.3734  17.3744  17.4400  17.4652  17.4852  17.5239  17.5242
    17.5370  17.5881  17.6128  17.6890  17.7175  17.7336  17.7395  17.8240
    17.8538  17.8916  17.9082  17.9583  17.9779  18.0043  18.0821  18.1219
    18.1371  18.1577  18.2003  18.2163  18.2378  18.2407  18.2651  18.4944
    18.6258  18.6677  18.7319  18.7402  18.7718  18.7785  18.9440  18.9641
    18.9813  19.1629  19.2247  19.2492  19.2793  19.2805  19.4022  19.4459
    19.4552  19.5198  19.5492  19.6513  19.7138  19.8239  19.8364  19.9741
    19.9755  19.9878  20.0148  20.1561  20.1907  20.2558  20.2616  20.2651
    20.3214  20.3330  20.3647  20.3983  20.3985  20.3996  20.4471  20.4963
    20.5011  20.5507  20.5541  20.5763  20.6618  20.6843  20.7014  20.7151
    20.7551  20.7680  20.7813  20.7854  20.8763  20.9625  21.0046  21.0603
    21.0640  21.1007  21.1372  21.1754  21.1808  21.2487  21.2853  21.3009
    21.3467  21.4242  21.5616  21.6181  21.7013  21.7871  21.8098  21.9500
    21.9553  22.0441  22.0595  22.1162  22.1777  22.1812  22.1936  22.2123
    22.2297  22.2762  22.4063  22.4301  22.4520  22.4901  22.5751  22.6050
    22.6118  22.8212  22.8311  22.8496  22.9047  22.9560  23.2448  23.3761
    23.4280  23.4542  23.4592  23.4752  23.5225  23.5294  23.6641  23.7361
    23.7521  23.7776  23.8276  23.8439  23.8447  23.8631  23.8663  23.8853
    24.0433  24.1318  24.1505  24.1740  24.1769  24.1967  24.2063  24.2399
    24.2595  24.2942  24.4345  24.4419  24.4422  24.4732  24.5054  24.5338
    24.5431  25.0833  25.0915  25.5925  25.7715  26.0102  26.2588  26.5070
    26.8310  27.1916  27.3500

          k = 0.1658 0.2764-0.4975 ( 30630 PWs)   bands (ev):

   -50.2623 -50.2621 -50.2203 -50.2201 -50.2030 -50.2028 -50.1783 -50.1781
   -50.1594 -50.1592 -50.1478 -50.1476 -50.1466 -50.1464 -50.1356 -50.1354
   -50.1279 -50.1277 -50.1246 -50.1244 -50.1177 -50.1175 -50.1168 -50.1166
   -50.1114 -50.1112 -50.1062 -50.1060 -50.1043 -50.1041 -50.0999 -50.0997
   -20.5902 -20.5901 -20.5769 -20.5768 -20.5511 -20.5510 -20.5269 -20.5267
   -20.5244 -20.5242 -20.5001 -20.4999 -20.4952 -20.4952 -20.4896 -20.4895
   -20.4776 -20.4775 -20.4700 -20.4699 -20.4534 -20.4533 -20.4321 -20.4319
   -20.4200 -20.4199 -20.2882 -20.2881 -20.2813 -20.2812 -20.2254 -20.2253
   -20.2032 -20.2032 -20.1858 -20.1857 -20.1751 -20.1750 -20.1699 -20.1697
   -20.1595 -20.1593 -20.0615 -20.0613 -20.0577 -20.0577 -20.0437 -20.0435
   -20.0422 -20.0420 -20.0359 -20.0359 -20.0165 -20.0164 -20.0152 -20.0150
   -19.9876 -19.9875 -19.9875 -19.9873 -19.9807 -19.9807 -19.9726 -19.9724
   -19.9689 -19.9688 -19.9687 -19.9687 -19.9645 -19.9644 -19.9419 -19.9418
   -19.9119 -19.9118 -19.9093 -19.9092 -19.9052 -19.9051 -19.8909 -19.8907
   -19.8856 -19.8855 -19.8773 -19.8771 -19.8771 -19.8770 -19.8266 -19.8264
   -19.8203 -19.8203 -19.7907 -19.7906 -19.7905 -19.7903 -19.7641 -19.7641
    16.0903  16.0906  17.1313  17.1315  17.2059  17.2060  17.2752  17.2753
    17.3011  17.3012  17.3491  17.3493  17.3629  17.3630  17.5361  17.5361
    17.6767  17.6767  17.6792  17.6793  17.7372  17.7373  17.8047  17.8047
    17.8470  17.8471  17.8868  17.8868  17.9005  17.9005  17.9292  17.9293
    18.1250  18.1252  18.1536  18.1536  18.2878  18.2879  18.4718  18.4719
    18.6033  18.6035  18.7830  18.7831  18.7940  18.7940  18.8627  18.8628
    18.9383  18.9383  19.2889  19.2890  19.3473  19.3474  19.3957  19.3959
    19.4449  19.4450  19.6360  19.6362  19.6529  19.6530  19.9825  19.9825
    20.0371  20.0372  20.1926  20.1926  20.2491  20.2492  20.2617  20.2618
    20.3683  20.3683  20.3964  20.3965  20.4741  20.4742  20.5149  20.5150
    20.5732  20.5732  20.6598  20.6598  20.6764  20.6765  20.7010  20.7012
    20.7674  20.7674  20.8877  20.8877  20.9643  20.9644  21.0015  21.0016
    21.0279  21.0280  21.0349  21.0349  21.0567  21.0568  21.0876  21.0876
    21.5862  21.5862  21.6675  21.6676  21.6877  21.6877  21.9139  21.9141
    22.0094  22.0095  22.0155  22.0156  22.0459  22.0460  22.0566  22.0567
    22.2530  22.2531  22.3051  22.3053  22.4753  22.4754  22.5584  22.5585
    22.7423  22.7424  23.1271  23.1273  23.1452  23.1452  23.1785  23.1785
    23.2381  23.2382  23.5137  23.5138  23.5950  23.5952  23.6896  23.6898
    23.7565  23.7565  23.9449  23.9450  23.9886  23.9887  24.0208  24.0209
    24.0223  24.0224  24.0698  24.0698  24.0883  24.0883  24.1011  24.1011
    24.2456  24.2458  24.3260  24.3260  24.4823  24.4825  24.4856  24.4857
    25.0500  25.0500  25.6765  25.6765  25.7857  25.7858  25.8787  25.8789
    27.0356  27.0358  28.0074

          k = 0.1658 0.3870 0.3870 ( 30622 PWs)   bands (ev):

   -50.2650 -50.2423 -50.2423 -50.2226 -50.2048 -50.1909 -50.1909 -50.1800
   -50.1606 -50.1532 -50.1532 -50.1490 -50.1357 -50.1357 -50.1305 -50.1305
   -50.1300 -50.1300 -50.1262 -50.1262 -50.1195 -50.1195 -50.1128 -50.1128
   -50.1124 -50.1123 -50.1107 -50.1107 -50.1068 -50.1019 -50.1018 -50.1001
   -20.5967 -20.5967 -20.5572 -20.5426 -20.5426 -20.5369 -20.5369 -20.5312
   -20.5259 -20.5259 -20.5036 -20.5036 -20.4963 -20.4963 -20.4839 -20.4839
   -20.4822 -20.4822 -20.4738 -20.4689 -20.4689 -20.4606 -20.4606 -20.4586
   -20.4222 -20.3756 -20.3756 -20.2867 -20.2799 -20.2589 -20.2589 -20.2019
   -20.1918 -20.1917 -20.1821 -20.1668 -20.1668 -20.1424 -20.1424 -20.1089
[...]
   -19.9925 -19.9925 -19.9924 -19.9924 -19.9499 -19.9499 -19.9499 -19.9499
   -19.9498 -19.9498 -19.9497 -19.9497 -19.9346 -19.9346 -19.9346 -19.9346
   -19.8305 -19.8304 -19.8304 -19.8304 -19.8132 -19.8131 -19.8131 -19.8130
   -19.8110 -19.8109 -19.8109 -19.8107 -19.7706 -19.7706 -19.7706 -19.7706
    16.5943  16.5945  16.5945  16.5947  17.0789  17.0790  17.0790  17.0791
    17.5674  17.5674  17.5674  17.5674  17.6094  17.6094  17.6095  17.6095
    17.6096  17.6096  17.6097  17.6097  17.6808  17.6808  17.6808  17.6808
    17.8740  17.8740  17.8741  17.8741  17.8741  17.8742  17.8742  17.8742
    18.2666  18.2666  18.2666  18.2666  18.2667  18.2668  18.2668  18.2668
    18.4220  18.4220  18.4220  18.4220  18.9821  18.9821  18.9823  18.9823
    18.9823  18.9823  18.9824  18.9824  19.1587  19.1588  19.1588  19.1589
    19.6879  19.6879  19.6879  19.6879  20.1468  20.1468  20.1468  20.1469
    20.3990  20.3991  20.3991  20.3991  20.4870  20.4871  20.4871  20.4872
    20.5149  20.5149  20.5149  20.5149  20.5150  20.5150  20.5150  20.5150
    20.6446  20.6447  20.6447  20.6447  20.6689  20.6690  20.6690  20.6691
    20.7192  20.7192  20.7192  20.7193  20.9201  20.9201  20.9201  20.9201
    20.9202  20.9202  20.9203  20.9203  21.0578  21.0579  21.0579  21.0579
    21.3948  21.3949  21.3949  21.3949  21.5802  21.5802  21.5802  21.5802
    21.5802  21.5802  21.5803  21.5803  22.1947  22.1948  22.1948  22.1950
    22.4552  22.4553  22.4553  22.4554  22.5038  22.5039  22.5039  22.5039
    22.5040  22.5040  22.5041  22.5041  22.8828  22.8829  22.8829  22.8830
    22.8965  22.8966  22.8967  22.8967  23.3106  23.3107  23.3107  23.3108
    24.2900  24.2900  24.2900  24.2900  24.2900  24.2900  24.2900  24.2901
    24.3266  24.3267  24.3267  24.3267  24.3521  24.3521  24.3521  24.3521
    24.3522  24.3522  24.3523  24.3523  24.3994  24.3995  24.3995  24.3996
    25.9642  25.9644  25.9644  25.9645  27.2334  27.2335  27.2335  27.2335
    27.2335  27.2336  27.2336

          k = 0.3870 0.3870 0.3870 ( 30604 PWs)   bands (ev):

   -50.2525 -50.2316 -50.2316 -50.2316 -50.2138 -50.2137 -50.2137 -50.1989
   -50.1337 -50.1337 -50.1337 -50.1305 -50.1305 -50.1304 -50.1304 -50.1303
   -50.1303 -50.1301 -50.1301 -50.1300 -50.1156 -50.1155 -50.1155 -50.1128
   -50.1128 -50.1127 -50.1125 -50.1125 -50.1125 -50.1124 -50.1124 -50.1123
   -20.5638 -20.5638 -20.5638 -20.5291 -20.5291 -20.5291 -20.5192 -20.5192
   -20.5192 -20.5146 -20.5146 -20.5146 -20.5146 -20.5146 -20.5146 -20.5104
   -20.5104 -20.5104 -20.5104 -20.5104 -20.5104 -20.4850 -20.4850 -20.4850
   -20.3804 -20.2742 -20.2742 -20.2742 -20.1723 -20.1723 -20.1723 -20.1723
   -20.1723 -20.1723 -20.1662 -20.1662 -20.1661 -20.1644 -20.1644 -20.1644
   -20.1418 -20.1418 -20.1418 -20.0713 -20.0713 -20.0713 -20.0713 -20.0713
   -20.0713 -20.0546 -20.0546 -20.0546 -20.0535 -20.0429 -20.0429 -20.0429
   -20.0065 -20.0065 -20.0065 -19.9890 -19.9890 -19.9890 -19.9890 -19.9890
   -19.9890 -19.9719 -19.9719 -19.9719 -19.9566 -19.9566 -19.9566 -19.9521
   -19.9521 -19.9521 -19.9521 -19.9521 -19.9521 -19.9321 -19.9321 -19.9321
   -19.8354 -19.8354 -19.8354 -19.8173 -19.8173 -19.8084 -19.8084 -19.8084
   -19.7928 -19.7928 -19.7928 -19.7893 -19.7893 -19.7893 -19.7731 -19.7731
    16.3013  16.7599  16.7599  16.7599  17.0154  17.0154  17.0154  17.0164
    17.4084  17.4084  17.4084  17.6205  17.6205  17.6205  17.6941  17.6941
    17.6941  17.7159  17.7159  17.7159  17.7159  17.7159  17.7159  17.7968
    17.7968  17.7968  17.7968  17.7968  17.7968  17.8300  17.8300  17.8301
    18.0804  18.0804  18.0804  18.4451  18.4451  18.4451  18.5450  18.5450
    18.5450  18.5450  18.5450  18.5450  18.8931  18.8931  18.8931  18.9045
    18.9045  18.9045  18.9045  18.9045  18.9045  19.2025  19.2025  19.2025
    19.7072  19.7072  19.7072  19.7967  19.9702  19.9702  19.9702  20.3789
    20.3789  20.3789  20.3789  20.3789  20.3789  20.4892  20.4892  20.5805
    20.5805  20.5805  20.6192  20.6192  20.6192  20.6285  20.6285  20.6429
    20.6459  20.6459  20.6459  20.6578  20.6578  20.6578  20.6797  20.6797
    20.6797  20.7158  20.7158  20.7158  20.7158  20.7158  20.7158  20.7316
    20.7316  20.7316  20.8217  20.8217  20.8218  21.2438  21.2438  21.2438
    21.4347  21.4347  21.4347  21.7550  21.7550  21.7550  21.7551  21.7551
    21.7551  21.7575  21.7575  21.7575  22.0852  22.0853  22.0853  22.2685
    22.2685  22.2685  22.2686  22.2686  22.2686  22.3804  22.3804  22.3804
    22.4698  22.4698  22.5065  22.5066  22.5066  22.6566  22.6566  22.6566
    22.9285  22.9285  22.9285  23.1556  23.1556  23.3172  23.3172  23.3172
    24.2437  24.2437  24.2437  24.2956  24.2956  24.2956  24.2956  24.2956
    24.2956  24.3624  24.3624  24.3624  24.3624  24.3624  24.3624  24.4260
    24.4260  24.4260  24.4414  24.4414  24.4414  24.5328  24.5328  24.5328
    26.1753  26.1753  26.1753  27.0650  27.0650  27.0650  27.0650  27.0650
    27.0650  27.3461  27.3461

          k = 0.3870 0.3870-0.4975 ( 30604 PWs)   bands (ev):

   -50.2431 -50.2429 -50.2236 -50.2236 -50.2234 -50.2234 -50.2071 -50.2069
   -50.1322 -50.1322 -50.1321 -50.1320 -50.1305 -50.1303 -50.1303 -50.1301
   -50.1223 -50.1223 -50.1222 -50.1221 -50.1207 -50.1207 -50.1205 -50.1205
   -50.1140 -50.1140 -50.1138 -50.1138 -50.1128 -50.1126 -50.1126 -50.1124
   -20.5515 -20.5515 -20.5404 -20.5403 -20.5402 -20.5401 -20.5198 -20.5198
   -20.5197 -20.5197 -20.5166 -20.5166 -20.5165 -20.5165 -20.5149 -20.5148
   -20.5148 -20.5147 -20.5055 -20.5054 -20.5001 -20.5001 -20.4999 -20.4999
   -20.3276 -20.3275 -20.2198 -20.2198 -20.2198 -20.2198 -20.1704 -20.1704
   -20.1704 -20.1703 -20.1581 -20.1580 -20.1580 -20.1580 -20.1219 -20.1219
   -20.1218 -20.1218 -20.1087 -20.1086 -20.1025 -20.1025 -20.1003 -20.1002
   -20.0614 -20.0614 -20.0613 -20.0612 -20.0554 -20.0553 -20.0553 -20.0553
   -19.9968 -19.9968 -19.9967 -19.9967 -19.9908 -19.9906 -19.9725 -19.9725
   -19.9723 -19.9723 -19.9718 -19.9718 -19.9718 -19.9718 -19.9623 -19.9623
   -19.9623 -19.9623 -19.9455 -19.9453 -19.9428 -19.9428 -19.9427 -19.9427
   -19.8222 -19.8221 -19.8177 -19.8177 -19.8176 -19.8176 -19.8041 -19.8039
   -19.7897 -19.7897 -19.7897 -19.7897 -19.7893 -19.7891 -19.7770 -19.7770
    16.5145  16.5147  16.8779  16.8779  16.8781  16.8781  17.0041  17.0042
    17.5196  17.5198  17.5403  17.5403  17.5403  17.5404  17.6931  17.6931
    17.6931  17.6931  17.7343  17.7344  17.7344  17.7345  17.7583  17.7583
    17.7583  17.7583  17.7727  17.7727  17.7728  17.7729  17.7821  17.7822
    18.2410  18.2412  18.3135  18.3135  18.3136  18.3136  18.6862  18.6862
    18.6862  18.6862  18.6973  18.6973  18.6974  18.6974  18.7311  18.7311
    18.7312  18.7312  19.0192  19.0193  19.0734  19.0735  19.0735  19.0736
    19.7732  19.7732  19.8509  19.8509  19.8509  19.8509  20.3076  20.3077
    20.5159  20.5159  20.5159  20.5160  20.5399  20.5399  20.5400  20.5401
    20.5478  20.5480  20.5527  20.5527  20.5892  20.5892  20.5892  20.5892
    20.6135  20.6135  20.6135  20.6136  20.6402  20.6403  20.6487  20.6487
    20.6658  20.6660  20.6739  20.6739  20.6739  20.6740  20.6838  20.6838
    20.6839  20.6839  21.0838  21.0838  21.0838  21.0838  21.1315  21.1317
    21.4666  21.4667  21.4667  21.4668  21.4931  21.4932  21.8953  21.8953
    21.8954  21.8955  21.9874  21.9874  21.9875  21.9875  22.0158  22.0158
    22.0158  22.0159  22.3712  22.3713  22.3825  22.3826  22.4466  22.4468
    22.4468  22.4469  22.4737  22.4737  22.4739  22.4739  22.6865  22.6866
    22.8315  22.8315  23.0504  23.0504  23.0505  23.0505  23.2083  23.2085
    24.3298  24.3298  24.3298  24.3298  24.3605  24.3605  24.3606  24.3606
    24.3637  24.3638  24.4097  24.4097  24.4098  24.4098  24.4159  24.4160
    24.4160  24.4160  24.4671  24.4672  24.4672  24.4673  24.5142  24.5142
    26.5971  26.5971  26.5972  26.5972  27.0428  27.0429  27.1902  27.1902
    27.1903  27.1904  27.9649

          k = 0.3870-0.4975-0.4975 ( 30640 PWs)   bands (ev):

   -50.2343 -50.2341 -50.2341 -50.2339 -50.2161 -50.2159 -50.2159 -50.2157
   -50.1315 -50.1313 -50.1313 -50.1311 -50.1218 -50.1217 -50.1216 -50.1216
   -50.1216 -50.1216 -50.1215 -50.1215 -50.1214 -50.1214 -50.1213 -50.1213
   -50.1213 -50.1213 -50.1211 -50.1211 -50.1133 -50.1132 -50.1132 -50.1130
   -20.5347 -20.5347 -20.5347 -20.5347 -20.5346 -20.5346 -20.5346 -20.5346
   -20.5208 -20.5207 -20.5207 -20.5206 -20.5171 -20.5170 -20.5170 -20.5169
   -20.5112 -20.5112 -20.5111 -20.5111 -20.5110 -20.5110 -20.5109 -20.5109
   -20.2737 -20.2736 -20.2736 -20.2736 -20.1662 -20.1661 -20.1661 -20.1660
   -20.1635 -20.1634 -20.1634 -20.1634 -20.1124 -20.1124 -20.1124 -20.1123
   -20.1123 -20.1123 -20.1123 -20.1123 -20.1110 -20.1110 -20.1110 -20.1110
   -20.1109 -20.1109 -20.1109 -20.1108 -20.0568 -20.0567 -20.0567 -20.0567
   -19.9831 -19.9831 -19.9831 -19.9831 -19.9813 -19.9813 -19.9813 -19.9813
   -19.9811 -19.9811 -19.9811 -19.9811 -19.9588 -19.9588 -19.9587 -19.9587
   -19.9586 -19.9586 -19.9585 -19.9585 -19.9531 -19.9531 -19.9531 -19.9531
   -19.8118 -19.8118 -19.8118 -19.8118 -19.7998 -19.7997 -19.7996 -19.7996
   -19.7995 -19.7995 -19.7995 -19.7994 -19.7814 -19.7814 -19.7814 -19.7814
    16.6837  16.6839  16.6839  16.6841  16.9314  16.9315  16.9315  16.9317
    17.6267  17.6267  17.6267  17.6267  17.6268  17.6268  17.6268  17.6269
    17.6296  17.6297  17.6297  17.6297  17.7009  17.7009  17.7009  17.7009
    17.7658  17.7658  17.7658  17.7658  17.7660  17.7660  17.7660  17.7660
    18.4755  18.4755  18.4755  18.4755  18.4757  18.4757  18.4757  18.4757
    18.5311  18.5311  18.5311  18.5312  18.8745  18.8745  18.8746  18.8746
    18.8746  18.8746  18.8747  18.8747  18.9016  18.9017  18.9018  18.9018
    19.8311  19.8311  19.8311  19.8311  20.0921  20.0921  20.0921  20.0922
    20.5418  20.5418  20.5418  20.5419  20.5737  20.5738  20.5738  20.5738
    20.5859  20.5859  20.5860  20.5860  20.5860  20.5860  20.5860  20.5861
    20.6111  20.6112  20.6112  20.6112  20.6446  20.6447  20.6447  20.6448
    20.6547  20.6547  20.6547  20.6548  20.8352  20.8352  20.8352  20.8352
    20.8353  20.8353  20.8353  20.8354  20.8929  20.8930  20.8930  20.8931
    21.6435  21.6436  21.6436  21.6437  21.7228  21.7228  21.7228  21.7228
    21.7229  21.7229  21.7229  21.7229  22.1716  22.1716  22.1716  22.1716
    22.1717  22.1717  22.1718  22.1718  22.1880  22.1881  22.1881  22.1882
    22.4449  22.4450  22.4450  22.4451  22.7280  22.7281  22.7281  22.7282
    22.8001  22.8002  22.8002  22.8003  23.0165  23.0166  23.0166  23.0167
    24.4032  24.4032  24.4032  24.4032  24.4032  24.4032  24.4033  24.4033
    24.4243  24.4243  24.4244  24.4244  24.4684  24.4684  24.4685  24.4685
    24.4685  24.4685  24.4686  24.4686  24.4693  24.4693  24.4693  24.4694
    26.8639  26.8640  26.8640  26.8641  27.4921  27.4921  27.4922  27.4922
    27.4922  27.4922  27.4923

          k =-0.4975-0.4975-0.4975 ( 30592 PWs)   bands (ev):

   -50.2261 -50.2259 -50.2259 -50.2259 -50.2257 -50.2257 -50.2257 -50.2255
   -50.1218 -50.1217 -50.1217 -50.1216 -50.1216 -50.1216 -50.1216 -50.1216
   -50.1215 -50.1215 -50.1215 -50.1214 -50.1214 -50.1214 -50.1214 -50.1213
   -50.1213 -50.1213 -50.1212 -50.1212 -50.1212 -50.1212 -50.1211 -50.1210
   -20.5232 -20.5232 -20.5232 -20.5232 -20.5232 -20.5231 -20.5231 -20.5231
   -20.5231 -20.5231 -20.5231 -20.5230 -20.5230 -20.5230 -20.5229 -20.5229
   -20.5229 -20.5229 -20.5229 -20.5229 -20.5228 -20.5228 -20.5228 -20.5228
   -20.2182 -20.2182 -20.2182 -20.2181 -20.2181 -20.2181 -20.2181 -20.2180
   -20.1121 -20.1121 -20.1120 -20.1120 -20.1120 -20.1120 -20.1120 -20.1120
   -20.1120 -20.1120 -20.1120 -20.1120 -20.1119 -20.1119 -20.1119 -20.1119
   -20.1119 -20.1119 -20.1119 -20.1119 -20.1119 -20.1119 -20.1118 -20.1118
   -19.9696 -19.9696 -19.9696 -19.9696 -19.9696 -19.9695 -19.9695 -19.9695
   -19.9695 -19.9695 -19.9695 -19.9695 -19.9694 -19.9694 -19.9694 -19.9693
   -19.9693 -19.9693 -19.9693 -19.9693 -19.9693 -19.9693 -19.9693 -19.9693
   -19.7954 -19.7954 -19.7954 -19.7954 -19.7954 -19.7953 -19.7953 -19.7953
   -19.7952 -19.7952 -19.7952 -19.7952 -19.7952 -19.7951 -19.7951 -19.7951
    16.7975  16.7977  16.7977  16.7977  16.7979  16.7979  16.7979  16.7980
    17.6800  17.6800  17.6800  17.6801  17.6801  17.6801  17.6801  17.6801
    17.6801  17.6801  17.6801  17.6801  17.6802  17.6802  17.6802  17.6802
    17.6802  17.6803  17.6803  17.6803  17.6803  17.6803  17.6803  17.6803
    18.6901  18.6901  18.6902  18.6902  18.6902  18.6902  18.6902  18.6902
    18.6902  18.6902  18.6902  18.6903  18.6903  18.6903  18.6904  18.6904
    18.6904  18.6904  18.6904  18.6904  18.6904  18.6904  18.6905  18.6905
    19.9790  19.9790  19.9790  19.9790  19.9790  19.9790  19.9790  19.9790
    20.6158  20.6158  20.6158  20.6158  20.6159  20.6159  20.6159  20.6159
    20.6159  20.6159  20.6160  20.6160  20.6160  20.6160  20.6160  20.6160
    20.7130  20.7130  20.7130  20.7130  20.7130  20.7130  20.7131  20.7131
    20.7131  20.7131  20.7131  20.7131  20.7131  20.7131  20.7131  20.7132
    20.7132  20.7132  20.7132  20.7132  20.7132  20.7132  20.7132  20.7133
    21.9116  21.9116  21.9117  21.9117  21.9117  21.9117  21.9117  21.9118
    21.9118  21.9118  21.9118  21.9118  21.9118  21.9118  21.9118  21.9118
    21.9119  21.9119  21.9119  21.9119  21.9119  21.9119  21.9120  21.9120
    22.7238  22.7238  22.7238  22.7238  22.7238  22.7239  22.7239  22.7239
    22.7239  22.7239  22.7239  22.7240  22.7240  22.7240  22.7240  22.7241
    24.4761  24.4761  24.4761  24.4762  24.4762  24.4762  24.4762  24.4762
    24.4762  24.4762  24.4762  24.4762  24.4763  24.4763  24.4763  24.4763
    24.4763  24.4763  24.4763  24.4764  24.4764  24.4764  24.4764  24.4764
    27.8099  27.8099  27.8100  27.8100  27.8100  27.8100  27.8100  27.8101
    27.8101  27.8101  27.8101

     the Fermi energy is    22.6924 ev

!    total energy              =  -13813.29482816 Ry

     total all-electron energy =   -289989.685167 Ry
     estimated scf accuracy    <       0.00000024 Ry
     smearing contrib. (-TS)   =       0.01920490 Ry
     internal energy E=F+TS    =  -13813.31403306 Ry

     The total energy is F=E-TS. E is the sum of the following terms:
     one-electron contribution =   -1033.48469475 Ry
     hartree contribution      =     927.42213097 Ry
     xc contribution           =    -927.49540911 Ry
     ewald contribution        =   -5190.33387382 Ry
     one-center paw contrib.   =   -7589.42218637 Ry

     convergence has been achieved in  13 iterations

     Forces acting on atoms (cartesian axes, Ry/au):

     atom    1 type  1   force =     0.00000000    0.00000000    0.00000000
     atom    2 type  1   force =    -0.00000239   -0.00000239    0.00000000
     atom    3 type  1   force =    -0.00000239    0.00000000   -0.00000239
     atom    4 type  1   force =     0.00000000   -0.00000239   -0.00000239
     atom    5 type  1   force =     0.00000000    0.00000000    0.00000000
     atom    6 type  1   force =    -0.00000099   -0.00000099    0.00000000
     atom    7 type  1   force =    -0.00000239    0.00000000    0.00000239
     atom    8 type  1   force =     0.00000000   -0.00000239    0.00000239
     atom    9 type  1   force =     0.00000000    0.00000000    0.00000000
     atom   10 type  1   force =    -0.00000239    0.00000239   -0.00000000
     atom   11 type  1   force =    -0.00000099    0.00000000   -0.00000099
     atom   12 type  1   force =     0.00000000    0.00000239   -0.00000239
     atom   13 type  1   force =     0.00000000    0.00000000    0.00000000
     atom   14 type  1   force =    -0.00000099    0.00000099    0.00000000
     atom   15 type  1   force =    -0.00000099    0.00000000    0.00000099
     atom   16 type  1   force =     0.00000000    0.00000239    0.00000239
     atom   17 type  1   force =     0.00000000    0.00000000    0.00000000
     atom   18 type  1   force =     0.00000239   -0.00000239   -0.00000000
     atom   19 type  1   force =     0.00000239    0.00000000   -0.00000239
     atom   20 type  1   force =    -0.00000000   -0.00000099   -0.00000099
     atom   21 type  1   force =     0.00000000    0.00000000    0.00000000
     atom   22 type  1   force =     0.00000099   -0.00000099    0.00000000
     atom   23 type  1   force =     0.00000239    0.00000000    0.00000239
     atom   24 type  1   force =     0.00000000   -0.00000099    0.00000099
     atom   25 type  1   force =     0.00000000    0.00000000    0.00000000
     atom   26 type  1   force =     0.00000239    0.00000239    0.00000000
     atom   27 type  1   force =     0.00000099    0.00000000   -0.00000099
     atom   28 type  1   force =     0.00000000    0.00000099   -0.00000099
     atom   29 type  1   force =     0.00000000    0.00000000    0.00000000
     atom   30 type  1   force =     0.00000099    0.00000099    0.00000000
     atom   31 type  1   force =     0.00000099    0.00000000    0.00000099
     atom   32 type  1   force =    -0.00000000    0.00000099    0.00000099

     Total force =     0.000013     Total SCF correction =     0.000099
     SCF correction compared to forces is large: reduce conv_thr to get better values


     Computing stress (Cartesian axis) and pressure

          total   stress  (Ry/bohr**3)                   (kbar)     P=      -47.75
  -0.00032457   0.00000000   0.00000000          -47.75        0.00        0.00
   0.00000000  -0.00032457   0.00000000            0.00      -47.75        0.00
   0.00000000   0.00000000  -0.00032457            0.00        0.00      -47.75


     Writing output data file /scratch/EdUUjdatumpOuMWA.save/
 
     init_run     :     12.39s CPU     12.62s WALL (       1 calls)
     electrons    :    549.36s CPU    558.08s WALL (       1 calls)
     forces       :      5.46s CPU      5.54s WALL (       1 calls)
     stress       :     32.29s CPU     32.57s WALL (       1 calls)

     Called by init_run:
     wfcinit      :     11.76s CPU     11.91s WALL (       1 calls)
     potinit      :      0.16s CPU      0.18s WALL (       1 calls)
     hinit0       :      0.21s CPU      0.22s WALL (       1 calls)

     Called by electrons:
     c_bands      :    492.82s CPU    500.23s WALL (      14 calls)
     sum_band     :     54.24s CPU     55.27s WALL (      14 calls)
     v_of_rho     :      0.20s CPU      0.22s WALL (      14 calls)
     newd         :      0.50s CPU      0.64s WALL (      14 calls)
     PAW_pot      :      1.28s CPU      1.37s WALL (      14 calls)
     mix_rho      :      0.06s CPU      0.07s WALL (      14 calls)

     Called by c_bands:
     init_us_2    :      2.23s CPU      2.28s WALL (    1085 calls)
     cegterg      :    484.93s CPU    492.03s WALL (     490 calls)

     Called by *egterg:
     cdiaghg      :     59.77s CPU     60.41s WALL (    1862 calls)
     h_psi        :    254.96s CPU    259.23s WALL (    1932 calls)
     s_psi        :     18.63s CPU     18.76s WALL (    1932 calls)
     g_psi        :      0.44s CPU      0.45s WALL (    1407 calls)

     Called by h_psi:
     h_psi:calbec :     35.81s CPU     36.20s WALL (    1932 calls)
     vloc_psi     :    199.90s CPU    203.33s WALL (    1932 calls)
     add_vuspsi   :     18.09s CPU     18.52s WALL (    1932 calls)

     General routines
     calbec       :     55.64s CPU     56.16s WALL (    2597 calls)
     fft          :      0.61s CPU      0.63s WALL (     206 calls)
     ffts         :      0.03s CPU      0.04s WALL (      28 calls)
     fftw         :    229.78s CPU    233.64s WALL (  929880 calls)
     interpolate  :      0.18s CPU      0.19s WALL (      14 calls)
 
     Parallel routines
     fft_scatt_xy :     15.99s CPU     16.26s WALL (  930114 calls)
     fft_scatt_yz :    186.74s CPU    189.96s WALL (  930114 calls)
 
     PWSCF        :  10m 9.31s CPU  10m20.38s WALL

 
   This run was terminated on:  13:45:44  23Nov2021            

=------------------------------------------------------------------------------=
   JOB DONE.
=------------------------------------------------------------------------------=
