
     Program PWSCF v.6.7MaX starts on 23Nov2021 at 12:17:27 

     This program is part of the open-source Quantum ESPRESSO suite
     for quantum simulation of materials; please cite
         "P. Giannozzi et al., J. Phys.:Condens. Matter 21 395502 (2009);
         "P. Giannozzi et al., J. Phys.:Condens. Matter 29 465901 (2017);
          URL http://www.quantum-espresso.org", 
     in publications or presentations arising from this work. More details at
     http://www.quantum-espresso.org/quote

     Parallel version (MPI & OpenMP), running on      72 processor cores
     Number of MPI processes:                72
     Threads/MPI process:                     1

     MPI processes distributed on     1 nodes
     R & G space division:  proc/nbgrp/npool/nimage =      72
     Reading input from /rds/homes/b/bxp912/jobs/20211014_ru_eos/wd/eos/eos_004.in
Warning: card &CELL ignored
Warning: card CELL_DYNAMICS = 'BFGS', ignored
Warning: card CELL_FACTOR = 2.0, ignored
Warning: card PRESS = 0.0, ignored
Warning: card / ignored

     Current dimensions of program PWSCF are:
     Max number of different atomic species (ntypx) = 10
     Max number of k-points (npk) =  40000
     Max angular momentum in pseudopotentials (lmaxx) =  3
     file Ru.pbe-spn-kjpaw_psl.1.0.0.UPF: wavefunction(s)  4D renormalized

     Subspace diagonalization in iterative solution of the eigenvalue problem:
     one sub-group per band group will be used
     ELPA distributed-memory algorithm (size of sub-group:  8*  8 procs)

     Found symmetry operation: I + (  0.2500  0.2500  0.0000)
     This is a supercell, fractional translations are disabled
     Message from routine setup:
     using ibrav=0 with symmetry is DISCOURAGED, use correct ibrav instead
 
     Parallelization info
     --------------------
     sticks:   dense  smooth     PW     G-vecs:    dense   smooth      PW
     Min          98      64     17                 6204     3330     473
     Max         100      65     18                 6208     3337     480
     Sum        7073    4669   1281               446791   240129   34265
 


     bravais-lattice index     =            0
     lattice parameter (alat)  =      14.4007  a.u.
     unit-cell volume          =    2968.5625 (a.u.)^3
     number of atoms/cell      =           32
     number of atomic types    =            1
     number of electrons       =       512.00
     number of Kohn-Sham states=          307
     kinetic-energy cutoff     =      71.0000  Ry
     charge density cutoff     =     430.0000  Ry
     scf convergence threshold =      1.0E-06
     mixing beta               =       0.1000
     number of iterations used =           10  plain     mixing
     Exchange-correlation= SLA  PW   PBX  PBC
                           (   1   4   3   4   0   0   0)

     celldm(1)=  14.400742  celldm(2)=   0.000000  celldm(3)=   0.000000
     celldm(4)=   0.000000  celldm(5)=   0.000000  celldm(6)=   0.000000

     crystal axes: (cart. coord. in units of alat)
               a(1) = (   0.998000   0.000000   0.000000 )  
               a(2) = (   0.000000   0.998000   0.000000 )  
               a(3) = (   0.000000   0.000000   0.998000 )  

     reciprocal axes: (cart. coord. in units 2 pi/alat)
               b(1) = (  1.002004  0.000000  0.000000 )  
               b(2) = (  0.000000  1.002004  0.000000 )  
               b(3) = (  0.000000  0.000000  1.002004 )  


     PseudoPot. # 1 for Ru read from file:
     /rds/homes/b/bxp912/pp/Ru.pbe-spn-kjpaw_psl.1.0.0.UPF
     MD5 check sum: 0ae1f594dea09af7be8575c3a481d1ae
     Pseudo is Projector augmented-wave + core cor, Zval = 16.0
     Generated using "atomic" code by A. Dal Corso  v.5.1
     Shape of augmentation charge: PSQ
     Using radial grid of 1233 points,  6 beta functions with: 
                l(1) =   0
                l(2) =   0
                l(3) =   1
                l(4) =   1
                l(5) =   2
                l(6) =   2
     Q(r) pseudized with 0 coefficients 


     atomic species   valence    mass     pseudopotential
        Ru            16.00   101.07000     Ru( 1.00)

     48 Sym. Ops., with inversion, found



   Cartesian axes

     site n.     atom                  positions (alat units)
         1           Ru  tau(   1) = (   0.0000000   0.0000000   0.0000000  )
         2           Ru  tau(   2) = (   0.2495000   0.2495000   0.0000000  )
         3           Ru  tau(   3) = (   0.2495000   0.0000000   0.2494995  )
         4           Ru  tau(   4) = (   0.0000000   0.2495000   0.2494995  )
         5           Ru  tau(   5) = (   0.0000000   0.0000000   0.4990000  )
         6           Ru  tau(   6) = (   0.2494990   0.2494990   0.4990000  )
         7           Ru  tau(   7) = (   0.2495000   0.0000000   0.7484995  )
         8           Ru  tau(   8) = (   0.0000000   0.2495000   0.7484995  )
         9           Ru  tau(   9) = (   0.0000000   0.4990002   0.0000000  )
        10           Ru  tau(  10) = (   0.2495000   0.7485004   0.0000000  )
        11           Ru  tau(  11) = (   0.2494990   0.4990002   0.2494984  )
        12           Ru  tau(  12) = (   0.0000000   0.7485004   0.2494995  )
        13           Ru  tau(  13) = (   0.0000000   0.4990002   0.4990000  )
        14           Ru  tau(  14) = (   0.2494990   0.7485015   0.4990000  )
        15           Ru  tau(  15) = (   0.2494990   0.4990002   0.7485005  )
        16           Ru  tau(  16) = (   0.0000000   0.7485004   0.7484995  )
        17           Ru  tau(  17) = (   0.4990002   0.0000000   0.0000000  )
        18           Ru  tau(  18) = (   0.7485004   0.2495000   0.0000000  )
        19           Ru  tau(  19) = (   0.7485004   0.0000000   0.2494995  )
        20           Ru  tau(  20) = (   0.4990002   0.2494990   0.2494984  )
        21           Ru  tau(  21) = (   0.4990002   0.0000000   0.4990000  )
        22           Ru  tau(  22) = (   0.7485015   0.2494990   0.4990000  )
        23           Ru  tau(  23) = (   0.7485004   0.0000000   0.7484995  )
        24           Ru  tau(  24) = (   0.4990002   0.2494990   0.7485005  )
        25           Ru  tau(  25) = (   0.4990002   0.4990002   0.0000000  )
        26           Ru  tau(  26) = (   0.7485004   0.7485004   0.0000000  )
        27           Ru  tau(  27) = (   0.7485015   0.4990002   0.2494984  )
        28           Ru  tau(  28) = (   0.4990002   0.7485015   0.2494984  )
        29           Ru  tau(  29) = (   0.4990002   0.4990002   0.4990000  )
        30           Ru  tau(  30) = (   0.7485015   0.7485015   0.4990000  )
        31           Ru  tau(  31) = (   0.7485015   0.4990002   0.7485005  )
        32           Ru  tau(  32) = (   0.4990002   0.7485015   0.7485005  )

     number of k points=    35  Marzari-Vanderbilt smearing, width (Ry)=  0.0400
                       cart. coord. in units 2pi/alat
        k(    1) = (   0.0556669   0.0556669   0.0556669), wk =   0.0219479
        k(    2) = (   0.0556669   0.0556669   0.1670007), wk =   0.0658436
        k(    3) = (   0.0556669   0.0556669   0.2783344), wk =   0.0658436
        k(    4) = (   0.0556669   0.0556669   0.3896682), wk =   0.0658436
        k(    5) = (   0.0556669   0.0556669  -0.5010020), wk =   0.0329218
        k(    6) = (   0.0556669   0.1670007   0.1670007), wk =   0.0658436
        k(    7) = (   0.0556669   0.1670007   0.2783344), wk =   0.1316872
        k(    8) = (   0.0556669   0.1670007   0.3896682), wk =   0.1316872
        k(    9) = (   0.0556669   0.1670007  -0.5010020), wk =   0.0658436
        k(   10) = (   0.0556669   0.2783344   0.2783344), wk =   0.0658436
        k(   11) = (   0.0556669   0.2783344   0.3896682), wk =   0.1316872
        k(   12) = (   0.0556669   0.2783344  -0.5010020), wk =   0.0658436
        k(   13) = (   0.0556669   0.3896682   0.3896682), wk =   0.0658436
        k(   14) = (   0.0556669   0.3896682  -0.5010020), wk =   0.0658436
        k(   15) = (   0.0556669  -0.5010020  -0.5010020), wk =   0.0164609
        k(   16) = (   0.1670007   0.1670007   0.1670007), wk =   0.0219479
        k(   17) = (   0.1670007   0.1670007   0.2783344), wk =   0.0658436
        k(   18) = (   0.1670007   0.1670007   0.3896682), wk =   0.0658436
        k(   19) = (   0.1670007   0.1670007  -0.5010020), wk =   0.0329218
        k(   20) = (   0.1670007   0.2783344   0.2783344), wk =   0.0658436
        k(   21) = (   0.1670007   0.2783344   0.3896682), wk =   0.1316872
        k(   22) = (   0.1670007   0.2783344  -0.5010020), wk =   0.0658436
        k(   23) = (   0.1670007   0.3896682   0.3896682), wk =   0.0658436
        k(   24) = (   0.1670007   0.3896682  -0.5010020), wk =   0.0658436
        k(   25) = (   0.1670007  -0.5010020  -0.5010020), wk =   0.0164609
        k(   26) = (   0.2783344   0.2783344   0.2783344), wk =   0.0219479
        k(   27) = (   0.2783344   0.2783344   0.3896682), wk =   0.0658436
        k(   28) = (   0.2783344   0.2783344  -0.5010020), wk =   0.0329218
        k(   29) = (   0.2783344   0.3896682   0.3896682), wk =   0.0658436
        k(   30) = (   0.2783344   0.3896682  -0.5010020), wk =   0.0658436
        k(   31) = (   0.2783344  -0.5010020  -0.5010020), wk =   0.0164609
        k(   32) = (   0.3896682   0.3896682   0.3896682), wk =   0.0219479
        k(   33) = (   0.3896682   0.3896682  -0.5010020), wk =   0.0329218
        k(   34) = (   0.3896682  -0.5010020  -0.5010020), wk =   0.0164609
        k(   35) = (  -0.5010020  -0.5010020  -0.5010020), wk =   0.0027435

     Dense  grid:   446791 G-vectors     FFT dimensions: (  96,  96,  96)

     Smooth grid:   240129 G-vectors     FFT dimensions: (  80,  80,  80)

     Estimated max dynamical RAM per process >     106.36 MB

     Estimated total dynamical RAM >       7.48 GB

     Check: negative core charge=   -0.000003

     Initial potential from superposition of free atoms

     starting charge  511.97959, renormalised to  512.00000
     Starting wfcs are  320 randomized atomic wfcs
     Checking if some PAW data can be deallocated... 

     total cpu time spent up to now is       17.9 secs

     Self-consistent Calculation

     iteration #  1     ecut=    71.00 Ry     beta= 0.10
     Davidson diagonalization with overlap
     ethr =  1.00E-02,  avg # of iterations =  3.3

     Threshold (ethr) on eigenvalues was too large:
     Diagonalizing with lowered threshold

     Davidson diagonalization with overlap
     ethr =  8.35E-05,  avg # of iterations =  5.4

     total cpu time spent up to now is      113.3 secs

     total energy              =  -13813.41245436 Ry
     estimated scf accuracy    <       0.64022470 Ry

     iteration #  2     ecut=    71.00 Ry     beta= 0.10
     Davidson diagonalization with overlap
     ethr =  1.25E-04,  avg # of iterations =  1.1

     total cpu time spent up to now is      151.2 secs

     total energy              =  -13813.20180758 Ry
     estimated scf accuracy    <       0.40071369 Ry

     iteration #  3     ecut=    71.00 Ry     beta= 0.10
     Davidson diagonalization with overlap
     ethr =  7.83E-05,  avg # of iterations =  2.3

     total cpu time spent up to now is      194.4 secs

     total energy              =  -13813.29870881 Ry
     estimated scf accuracy    <       0.01014311 Ry

     iteration #  4     ecut=    71.00 Ry     beta= 0.10
     Davidson diagonalization with overlap
     ethr =  1.98E-06,  avg # of iterations =  3.1

     total cpu time spent up to now is      232.1 secs

     total energy              =  -13813.29802692 Ry
     estimated scf accuracy    <       0.00674269 Ry

     iteration #  5     ecut=    71.00 Ry     beta= 0.10
     Davidson diagonalization with overlap
     ethr =  1.32E-06,  avg # of iterations =  2.2

     total cpu time spent up to now is      274.1 secs

     total energy              =  -13813.30307077 Ry
     estimated scf accuracy    <       0.00792032 Ry

     iteration #  6     ecut=    71.00 Ry     beta= 0.10
     Davidson diagonalization with overlap
     ethr =  1.32E-06,  avg # of iterations =  3.1

     total cpu time spent up to now is      319.6 secs

     total energy              =  -13813.29786469 Ry
     estimated scf accuracy    <       0.01590777 Ry

     iteration #  7     ecut=    71.00 Ry     beta= 0.10
     Davidson diagonalization with overlap
     ethr =  1.32E-06,  avg # of iterations =  2.3

     total cpu time spent up to now is      362.2 secs

     total energy              =  -13813.29941159 Ry
     estimated scf accuracy    <       0.00088979 Ry

     iteration #  8     ecut=    71.00 Ry     beta= 0.10
     Davidson diagonalization with overlap
     ethr =  1.74E-07,  avg # of iterations =  2.5

     total cpu time spent up to now is      399.6 secs

     total energy              =  -13813.29945394 Ry
     estimated scf accuracy    <       0.00021916 Ry

     iteration #  9     ecut=    71.00 Ry     beta= 0.10
     Davidson diagonalization with overlap
     ethr =  4.28E-08,  avg # of iterations =  1.9

     total cpu time spent up to now is      433.3 secs

     total energy              =  -13813.29939489 Ry
     estimated scf accuracy    <       0.00013068 Ry

     iteration # 10     ecut=    71.00 Ry     beta= 0.10
     Davidson diagonalization with overlap
     ethr =  2.55E-08,  avg # of iterations =  2.4

     total cpu time spent up to now is      474.5 secs

     total energy              =  -13813.29941384 Ry
     estimated scf accuracy    <       0.00000439 Ry

     iteration # 11     ecut=    71.00 Ry     beta= 0.10
     Davidson diagonalization with overlap
     ethr =  8.57E-10,  avg # of iterations =  4.5

     total cpu time spent up to now is      523.8 secs

     total energy              =  -13813.29941999 Ry
     estimated scf accuracy    <       0.00000187 Ry

     iteration # 12     ecut=    71.00 Ry     beta= 0.10
     Davidson diagonalization with overlap
     ethr =  3.66E-10,  avg # of iterations =  3.3

     total cpu time spent up to now is      567.9 secs

     total energy              =  -13813.29941566 Ry
     estimated scf accuracy    <       0.00001025 Ry

     iteration # 13     ecut=    71.00 Ry     beta= 0.10
     Davidson diagonalization with overlap
     ethr =  3.66E-10,  avg # of iterations =  3.1

     total cpu time spent up to now is      613.1 secs

     End of self-consistent calculation

          k = 0.0557 0.0557 0.0557 ( 29972 PWs)   bands (ev):

   -49.7479 -49.6455 -49.6455 -49.6455 -49.6257 -49.6257 -49.6257 -49.5888
   -49.5888 -49.5888 -49.5792 -49.5781 -49.5780 -49.5780 -49.5780 -49.5780
   -49.5780 -49.5774 -49.5774 -49.5773 -49.5689 -49.5689 -49.5689 -49.5223
   -49.5223 -49.5223 -49.5218 -49.5218 -49.5218 -49.5218 -49.5217 -49.5217
   -20.1625 -20.1625 -20.1625 -20.1583 -20.0984 -20.0984 -20.0984 -19.8942
   -19.8942 -19.8941 -19.8825 -19.8825 -19.8825 -19.8825 -19.8825 -19.8825
   -19.8619 -19.8619 -19.8619 -19.8386 -19.8386 -19.8386 -19.8386 -19.8386
   -19.8386 -19.7870 -19.7870 -19.7870 -19.7870 -19.7870 -19.7870 -19.6857
   -19.6857 -19.6857 -19.6110 -19.6110 -19.6110 -19.6032 -19.6032 -19.6032
   -19.5686 -19.5686 -19.5686 -19.5686 -19.5686 -19.5686 -19.5276 -19.5276
   -19.5276 -19.5205 -19.5205 -19.5205 -19.5205 -19.5205 -19.5205 -19.5144
   -19.5144 -19.5144 -19.5098 -19.5098 -19.5098 -19.3440 -19.3440 -19.3440
   -19.3435 -19.3435 -19.3435 -19.3112 -19.3112 -19.3112 -19.3110 -19.3110
   -19.3110 -19.2958 -19.2958 -19.2958 -19.2832 -19.2832 -19.2832 -19.2821
   -19.2821 -19.2821 -19.2821 -19.2821 -19.2821 -19.2801 -19.2800 -19.2800
   -19.2772 -19.2772 -19.2633 -19.2633 -19.2633 -19.1483 -19.1412 -19.1412
    15.4806  17.0192  17.0192  17.0192  17.3079  17.3256  17.3256  17.3256
    17.4905  17.4905  17.4905  17.7410  17.7410  17.7410  17.9088  17.9088
    17.9088  18.4395  18.4395  18.4395  18.4395  18.4395  18.4395  18.7563
    18.7563  18.7563  19.0317  19.0317  19.0317  19.0376  19.0376  19.0376
    19.1387  19.1387  19.1388  19.1453  19.1453  19.1453  19.1453  19.1453
    19.1453  19.6340  19.6340  19.6340  19.6340  19.6340  19.6340  19.7792
    19.7792  19.7792  19.8108  19.8108  19.8108  19.8108  19.8108  19.8108
    19.8753  19.8753  19.8754  20.1428  20.1428  20.1428  20.1428  20.1428
    20.1428  20.1438  20.1438  20.1438  20.1439  20.1439  20.1440  20.1440
    20.1440  20.1440  20.3127  20.3127  20.3128  20.5979  20.5979  20.5979
    20.6345  20.6345  20.6497  20.6497  20.6497  20.7298  20.7615  20.7615
    21.7480  21.7480  21.7480  21.9219  21.9219  21.9220  21.9653  21.9653
    21.9653  22.0666  22.0666  22.0666  22.0666  22.0666  22.0666  22.0805
    22.0805  22.0805  22.3812  22.3812  22.3812  22.5026  22.5026  22.5026
    22.7534  22.7534  22.7534  22.8302  22.8302  22.8302  22.8302  22.8302
    22.8302  22.8495  22.8495  22.8495  22.8912  22.8912  22.8913  23.0816
    23.0816  23.0816  23.0816  23.0816  23.0816  23.1431  23.1431  23.2565
    23.2565  23.2565  23.9256  23.9256  23.9256  23.9697  23.9697  23.9697
    24.0873  24.0873  24.0873  24.1702  24.9151  24.9151  24.9151  24.9573
    24.9573  24.9927  24.9927  24.9927  25.2786  25.2786  25.2786  25.3010
    25.3010  25.3010  25.4676  25.4676  25.4677  25.4677  25.4677  25.4677
    25.4727  25.4727  25.4727  26.9268  26.9268  26.9268  27.0810  27.0810
    27.0810  27.4639  27.4639

          k = 0.0557 0.0557 0.1670 ( 29994 PWs)   bands (ev):

   -49.7445 -49.6649 -49.6436 -49.6436 -49.6241 -49.6241 -49.6062 -49.5995
   -49.5995 -49.5885 -49.5870 -49.5870 -49.5809 -49.5780 -49.5779 -49.5774
   -49.5774 -49.5757 -49.5692 -49.5674 -49.5673 -49.5600 -49.5600 -49.5257
   -49.5237 -49.5237 -49.5234 -49.5234 -49.5223 -49.5222 -49.5218 -49.5218
   -20.1549 -20.1509 -20.1509 -20.1427 -20.0899 -20.0899 -20.0852 -19.9256
   -19.9120 -19.9120 -19.8987 -19.8987 -19.8960 -19.8960 -19.8906 -19.8881
   -19.8881 -19.8645 -19.8645 -19.8492 -19.8492 -19.8355 -19.8355 -19.8347
   -19.8347 -19.7953 -19.7953 -19.7777 -19.7777 -19.7658 -19.7369 -19.7369
   -19.6986 -19.6986 -19.6525 -19.6525 -19.6199 -19.6199 -19.6089 -19.6089
   -19.5773 -19.5388 -19.5388 -19.5266 -19.5266 -19.5252 -19.5252 -19.5206
   -19.5197 -19.5197 -19.5091 -19.5091 -19.5088 -19.5056 -19.5056 -19.5044
   -19.5039 -19.5039 -19.5003 -19.4870 -19.4870 -19.3764 -19.3751 -19.3513
   -19.3513 -19.3354 -19.3354 -19.3184 -19.3183 -19.3158 -19.3158 -19.3073
   -19.3073 -19.3015 -19.3015 -19.3011 -19.2952 -19.2942 -19.2942 -19.2832
   -19.2829 -19.2821 -19.2821 -19.2811 -19.2810 -19.2792 -19.2784 -19.2752
   -19.2752 -19.2745 -19.2637 -19.2513 -19.2513 -19.1661 -19.1469 -19.1449
    15.5674  17.0707  17.0835  17.0835  17.3481  17.3833  17.3833  17.4008
    17.4405  17.5288  17.5531  17.5531  17.8035  17.8035  17.9261  17.9747
    17.9747  18.3177  18.3177  18.4881  18.4881  18.4968  18.4978  18.4978
    18.7196  18.7961  18.7961  18.8243  18.8243  18.8732  18.9020  18.9020
    19.0651  19.0651  19.0869  19.0869  19.1016  19.1016  19.1752  19.1752
    19.2385  19.2385  19.3161  19.6125  19.6125  19.6379  19.6379  19.6901
    19.6902  19.7038  19.7038  19.7613  19.7613  19.8531  19.8531  19.8813
    19.9637  19.9637  19.9778  19.9778  20.0763  20.0960  20.0960  20.1305
    20.1305  20.1388  20.1388  20.1509  20.1510  20.3989  20.3989  20.4149
    20.4150  20.4437  20.4999  20.5236  20.5555  20.5555  20.6313  20.6681
    20.6683  20.6986  20.6986  20.7027  20.7027  20.7136  20.8049  20.8088
    21.5137  21.5137  21.6470  21.6470  21.7349  21.7615  21.8728  21.8728
    21.9029  21.9999  21.9999  22.0380  22.1796  22.1796  22.1843  22.2129
    22.2129  22.2604  22.2604  22.2957  22.3572  22.3572  22.6853  22.6854
    22.7052  22.7052  22.7195  22.7195  22.8320  22.8320  22.8467  22.8467
    22.9688  22.9688  22.9915  22.9915  23.0707  23.0907  23.1023  23.1023
    23.1472  23.1678  23.3077  23.3077  23.3248  23.3719  23.3719  23.4584
    23.4919  23.4920  23.5029  23.5546  23.5546  23.7433  23.7706  23.9886
    23.9886  24.1814  24.1814  24.2517  24.7114  24.7114  24.8254  24.8254
    24.8396  24.8742  24.9391  24.9391  24.9436  25.1407  25.2106  25.3383
    25.3383  25.3396  25.3396  25.3609  25.4662  25.4662  25.4674  25.4674
    25.6453  25.6453  25.8728  26.4040  26.4040  26.7786  26.8674  26.9340
    26.9340  27.4073  27.4073

          k = 0.0557 0.0557 0.2783 ( 30010 PWs)   bands (ev):

   -49.7378 -49.6834 -49.6399 -49.6399 -49.6210 -49.6210 -49.6097 -49.6097
   -49.5955 -49.5955 -49.5878 -49.5876 -49.5826 -49.5780 -49.5779 -49.5775
   -49.5774 -49.5742 -49.5697 -49.5572 -49.5572 -49.5515 -49.5515 -49.5326
   -49.5273 -49.5273 -49.5264 -49.5264 -49.5223 -49.5222 -49.5219 -49.5218
   -20.1360 -20.1283 -20.1283 -20.1162 -20.0731 -20.0731 -20.0589 -19.9724
   -19.9574 -19.9574 -19.9358 -19.9352 -19.9352 -19.9022 -19.9022 -19.8962
   -19.8962 -19.8648 -19.8648 -19.8414 -19.8408 -19.8408 -19.8385 -19.8385
   -19.8018 -19.8018 -19.7981 -19.7981 -19.7619 -19.7618 -19.7214 -19.7214
   -19.6919 -19.6919 -19.6886 -19.6886 -19.6492 -19.6492 -19.6472 -19.6472
   -19.5438 -19.5438 -19.5264 -19.5183 -19.5182 -19.5101 -19.5101 -19.4978
   -19.4936 -19.4926 -19.4926 -19.4863 -19.4863 -19.4791 -19.4791 -19.4757
   -19.4757 -19.4578 -19.4482 -19.4482 -19.4407 -19.4072 -19.4051 -19.3663
   -19.3663 -19.3417 -19.3417 -19.3377 -19.3377 -19.3327 -19.3327 -19.3303
   -19.3216 -19.3216 -19.3174 -19.3174 -19.3010 -19.2942 -19.2863 -19.2863
   -19.2857 -19.2820 -19.2820 -19.2813 -19.2812 -19.2749 -19.2749 -19.2719
   -19.2646 -19.2488 -19.2473 -19.2465 -19.2465 -19.1975 -19.1582 -19.1554
    15.7383  17.0649  17.1704  17.2089  17.2089  17.4461  17.4980  17.4980
    17.5320  17.6050  17.6780  17.6780  17.8268  17.9245  17.9245  18.1028
    18.1028  18.1094  18.1095  18.2591  18.3792  18.4789  18.4789  18.5457
    18.5806  18.5806  18.6122  18.6122  18.7277  18.7278  18.7669  18.7669
    18.8747  18.8747  18.9433  18.9433  19.0466  19.0466  19.1300  19.1300
    19.3078  19.3078  19.5134  19.5134  19.5770  19.5770  19.5800  19.5800
    19.5940  19.5940  19.6013  19.6405  19.6405  19.7387  19.7387  19.8987
    19.8987  19.9456  20.0160  20.0160  20.0753  20.0753  20.1457  20.1457
    20.1614  20.1614  20.2199  20.2199  20.2472  20.4189  20.4823  20.4823
    20.4902  20.4902  20.5405  20.5921  20.7505  20.8014  20.8014  20.8247
    20.8293  20.8452  20.8452  20.8997  20.9031  20.9524  21.2328  21.2328
    21.2970  21.2970  21.2986  21.2986  21.5078  21.6220  21.6220  21.6569
    21.6701  21.7292  22.0910  22.1317  22.1317  22.3437  22.3437  22.3617
    22.3617  22.3991  22.3991  22.4771  22.4771  22.5985  22.5986  22.6998
    22.6999  22.8246  22.8246  22.8255  22.8391  22.8391  22.8628  22.8628
    22.9186  22.9186  22.9314  22.9919  23.0225  23.0225  23.1396  23.2092
    23.2092  23.2166  23.2749  23.2749  23.4160  23.5523  23.6218  23.6218
    23.6261  23.7061  23.7061  23.7499  23.7802  23.7802  23.8020  24.0219
    24.0219  24.1682  24.1682  24.4150  24.4382  24.4382  24.6159  24.6159
    24.6472  24.7832  24.7832  24.7846  24.8140  24.8750  25.1026  25.1026
    25.1038  25.1038  25.1607  25.4653  25.4653  25.4669  25.4670  25.6094
    25.8905  25.8905  26.0834  26.0834  26.2498  26.4010  26.4010  26.4343
    26.7462  27.2891  27.2891

          k = 0.0557 0.0557 0.3897 ( 29989 PWs)   bands (ev):

   -49.7280 -49.7004 -49.6344 -49.6344 -49.6191 -49.6191 -49.6164 -49.6164
   -49.6035 -49.6035 -49.5869 -49.5842 -49.5779 -49.5778 -49.5776 -49.5775
   -49.5727 -49.5705 -49.5705 -49.5479 -49.5479 -49.5436 -49.5436 -49.5425
   -49.5327 -49.5327 -49.5309 -49.5309 -49.5223 -49.5221 -49.5220 -49.5218
   -20.1065 -20.0956 -20.0956 -20.0800 -20.0484 -20.0484 -20.0218 -20.0203
   -20.0070 -20.0070 -19.9865 -19.9785 -19.9785 -19.9100 -19.9010 -19.9010
   -19.8870 -19.8870 -19.8805 -19.8805 -19.8542 -19.8542 -19.8126 -19.8126
   -19.7837 -19.7836 -19.7647 -19.7647 -19.7504 -19.7504 -19.7405 -19.7405
   -19.7277 -19.7277 -19.6858 -19.6857 -19.6825 -19.6825 -19.6438 -19.6438
   -19.5702 -19.5702 -19.5162 -19.5162 -19.5119 -19.5119 -19.4815 -19.4777
   -19.4708 -19.4490 -19.4490 -19.4455 -19.4455 -19.4420 -19.4420 -19.4418
   -19.4418 -19.4355 -19.4328 -19.4123 -19.4123 -19.4111 -19.3880 -19.3880
   -19.3723 -19.3723 -19.3722 -19.3722 -19.3696 -19.3660 -19.3536 -19.3536
   -19.3511 -19.3511 -19.3294 -19.3060 -19.3060 -19.2926 -19.2883 -19.2819
   -19.2818 -19.2815 -19.2814 -19.2806 -19.2806 -19.2703 -19.2703 -19.2696
   -19.2659 -19.2486 -19.2486 -19.2423 -19.2206 -19.2185 -19.1746 -19.1717
    15.9873  16.6721  17.3116  17.3888  17.3888  17.6009  17.6643  17.6681
    17.6681  17.7168  17.7180  17.8613  17.8613  17.8638  17.8638  18.0476
    18.0719  18.0951  18.0952  18.1634  18.1634  18.2312  18.2842  18.2842
    18.4107  18.4107  18.5202  18.5202  18.7060  18.7060  18.7355  18.7355
    18.7780  18.7780  18.9634  18.9635  18.9901  18.9902  19.2104  19.2105
    19.2228  19.2228  19.3184  19.3184  19.4659  19.4659  19.5129  19.5129
    19.5544  19.5544  19.6215  19.6215  19.6274  19.6275  19.8774  19.8806
    19.8806  19.9343  19.9343  20.0450  20.1645  20.1645  20.1702  20.1702
    20.1729  20.1729  20.2952  20.3482  20.3588  20.3864  20.3864  20.3991
    20.3991  20.5250  20.5961  20.5961  20.8797  20.9450  20.9450  20.9573
    20.9573  20.9729  20.9729  20.9804  21.0412  21.0437  21.2651  21.2810
    21.2810  21.3506  21.4061  21.4427  21.4471  21.4471  21.4481  21.4586
    21.9350  21.9350  22.2581  22.2581  22.2661  22.3304  22.3304  22.4666
    22.4666  22.4712  22.5231  22.5327  22.5327  22.5767  22.5767  22.6134
    22.6134  22.6635  22.6635  22.6755  22.6755  22.7364  22.7900  22.7900
    22.8310  22.8311  22.8523  22.8523  22.9425  22.9425  23.1656  23.1656
    23.2887  23.3074  23.3074  23.4266  23.4957  23.6255  23.6255  23.7587
    23.9535  23.9539  23.9539  24.0608  24.0674  24.0675  24.1070  24.1071
    24.3329  24.3329  24.3342  24.3926  24.4911  24.4911  24.4938  24.5546
    24.5546  24.5755  24.6134  24.6148  24.7919  24.7919  24.7957  24.7957
    24.8499  24.8500  24.9300  25.3897  25.3897  25.4653  25.4654  25.4664
    25.4664  25.6020  25.8668  25.8668  25.9850  26.4928  26.4928  26.5597
    26.9294  27.1012  27.1013

          k = 0.0557 0.0557-0.5010 ( 29994 PWs)   bands (ev):

   -49.7155 -49.7153 -49.6275 -49.6275 -49.6273 -49.6273 -49.6106 -49.6106
   -49.6104 -49.6104 -49.5857 -49.5855 -49.5779 -49.5777 -49.5777 -49.5775
   -49.5716 -49.5714 -49.5554 -49.5552 -49.5397 -49.5397 -49.5395 -49.5395
   -49.5368 -49.5368 -49.5366 -49.5366 -49.5222 -49.5220 -49.5220 -49.5219
   -20.0677 -20.0676 -20.0545 -20.0544 -20.0543 -20.0542 -20.0360 -20.0359
   -20.0167 -20.0167 -20.0165 -20.0165 -19.9703 -19.9701 -19.8934 -19.8934
   -19.8933 -19.8933 -19.8723 -19.8723 -19.8723 -19.8723 -19.7818 -19.7818
   -19.7817 -19.7817 -19.7590 -19.7590 -19.7588 -19.7588 -19.7254 -19.7254
   -19.7253 -19.7253 -19.7139 -19.7139 -19.7137 -19.7137 -19.6040 -19.6040
   -19.6038 -19.6038 -19.5141 -19.5140 -19.5139 -19.5138 -19.4607 -19.4605
   -19.4574 -19.4572 -19.4174 -19.4173 -19.4160 -19.4160 -19.4158 -19.4158
   -19.4089 -19.4089 -19.4088 -19.4088 -19.4064 -19.4064 -19.4063 -19.4063
   -19.3936 -19.3936 -19.3935 -19.3934 -19.3806 -19.3806 -19.3804 -19.3804
   -19.3670 -19.3669 -19.2992 -19.2991 -19.2916 -19.2916 -19.2915 -19.2915
   -19.2907 -19.2905 -19.2818 -19.2816 -19.2816 -19.2815 -19.2677 -19.2675
   -19.2570 -19.2570 -19.2569 -19.2569 -19.1957 -19.1955 -19.1931 -19.1929
    16.3040  16.3042  17.4825  17.4826  17.6119  17.6120  17.6121  17.6122
    17.8106  17.8106  17.8662  17.8664  17.8911  17.8911  17.8912  17.8913
    17.9517  17.9517  18.1088  18.1088  18.1090  18.1090  18.3007  18.3007
    18.3009  18.3009  18.5035  18.5035  18.5036  18.5036  18.8435  18.8436
    18.8436  18.8436  18.9859  18.9859  18.9861  18.9861  19.1396  19.1396
    19.1397  19.1397  19.3377  19.3377  19.3378  19.3378  19.5598  19.5598
    19.5599  19.5599  19.5791  19.5792  19.5792  19.5792  19.8868  19.8868
    19.8868  19.8868  20.1338  20.1339  20.1658  20.1660  20.1725  20.1725
    20.1726  20.1727  20.2792  20.2793  20.2793  20.2795  20.4404  20.4406
    20.6515  20.6516  20.6516  20.6516  20.7570  20.7570  20.7570  20.7570
    21.0528  21.0528  21.1282  21.1283  21.1284  21.1284  21.1764  21.1765
    21.2264  21.2266  21.2293  21.2295  21.9155  21.9156  21.9156  21.9156
    21.9222  21.9222  21.9522  21.9522  22.3114  22.3115  22.3116  22.3116
    22.5043  22.5045  22.6074  22.6074  22.6075  22.6075  22.6316  22.6316
    22.6317  22.6318  22.7101  22.7102  22.7103  22.7103  22.7247  22.7247
    22.7248  22.7248  22.7903  22.7903  22.7905  22.7905  23.0462  23.0462
    23.0464  23.0464  23.3823  23.3824  23.9920  23.9921  23.9921  23.9923
    24.0044  24.0046  24.0907  24.0908  24.2719  24.2719  24.2720  24.2721
    24.3246  24.3246  24.3563  24.3564  24.4369  24.4369  24.4370  24.4370
    24.4535  24.4536  24.4537  24.4537  24.7385  24.7386  24.9142  24.9142
    24.9143  24.9143  24.9390  24.9392  25.3421  25.3421  25.3421  25.3422
    25.4656  25.4658  25.4658  25.4660  26.3052  26.3054  26.8361  26.8361
    26.8362  26.8363  27.3298

          k = 0.0557 0.1670 0.1670 ( 30007 PWs)   bands (ev):

   -49.7412 -49.6627 -49.6627 -49.6417 -49.6226 -49.6118 -49.6049 -49.6049
   -49.5988 -49.5988 -49.5866 -49.5866 -49.5844 -49.5792 -49.5747 -49.5747
   -49.5741 -49.5740 -49.5676 -49.5676 -49.5606 -49.5605 -49.5527 -49.5257
   -49.5257 -49.5252 -49.5251 -49.5240 -49.5240 -49.5231 -49.5231 -49.5223
   -20.1475 -20.1475 -20.1358 -20.1232 -20.0814 -20.0773 -20.0773 -19.9323
   -19.9323 -19.9259 -19.9259 -19.8950 -19.8934 -19.8934 -19.8918 -19.8918
   -19.8873 -19.8873 -19.8815 -19.8815 -19.8622 -19.8622 -19.8593 -19.8593
   -19.7986 -19.7748 -19.7748 -19.7707 -19.7707 -19.7523 -19.7523 -19.7291
   -19.7291 -19.7125 -19.6951 -19.6376 -19.6152 -19.6152 -19.5771 -19.5771
   -19.5655 -19.5655 -19.5423 -19.5411 -19.5410 -19.5193 -19.5193 -19.5065
   -19.5065 -19.5034 -19.5034 -19.5017 -19.5016 -19.5015 -19.5007 -19.5007
   -19.4915 -19.4915 -19.4626 -19.4626 -19.4480 -19.3839 -19.3839 -19.3687
   -19.3687 -19.3446 -19.3400 -19.3305 -19.3155 -19.3155 -19.3148 -19.3148
   -19.3087 -19.3075 -19.3066 -19.3066 -19.3049 -19.3049 -19.2925 -19.2888
   -19.2888 -19.2859 -19.2859 -19.2858 -19.2774 -19.2757 -19.2757 -19.2749
   -19.2681 -19.2681 -19.2523 -19.2523 -19.2341 -19.1884 -19.1521 -19.1440
    15.6528  17.1352  17.1352  17.1415  17.3688  17.4215  17.4734  17.4734
    17.5018  17.5019  17.5909  17.5909  17.6198  17.8504  17.9944  17.9944
    18.0213  18.3502  18.3502  18.3781  18.3781  18.5423  18.5423  18.5459
    18.5459  18.6085  18.6085  18.6935  18.7492  18.7492  18.8519  18.9070
    18.9071  18.9300  18.9300  18.9484  19.1121  19.1914  19.1914  19.1985
    19.1985  19.2341  19.2341  19.3424  19.3424  19.5761  19.5761  19.6794
    19.6794  19.6988  19.7531  19.7531  19.7844  19.7844  19.8354  19.8354
    19.8649  20.0503  20.0503  20.0582  20.0582  20.1496  20.1496  20.2177
    20.2177  20.2647  20.3412  20.3412  20.4437  20.4437  20.4636  20.4636
    20.5106  20.5106  20.5376  20.6137  20.6137  20.6184  20.6320  20.6433
    20.6901  20.6901  20.7074  20.7538  20.7860  20.7860  20.8260  20.8512
    21.3760  21.4800  21.5130  21.5130  21.7678  21.7678  21.9336  21.9482
    21.9482  21.9535  21.9535  22.0225  22.0226  22.0416  22.0417  22.0686
    22.0686  22.2271  22.2910  22.3975  22.3975  22.4186  22.4186  22.4693
    22.5492  22.8326  22.8326  22.9526  22.9627  22.9628  22.9783  22.9783
    23.0195  23.0195  23.0489  23.1030  23.1030  23.1474  23.1792  23.1792
    23.2418  23.2418  23.2629  23.3022  23.3022  23.4042  23.4951  23.5564
    23.5564  23.5861  23.5861  23.6673  23.6788  23.6788  23.8090  23.8090
    24.0187  24.2167  24.3870  24.3912  24.3912  24.5307  24.5307  24.7062
    24.8180  24.8180  24.8837  24.9654  24.9654  24.9778  24.9870  25.2335
    25.2336  25.3373  25.3373  25.3410  25.3410  25.3592  25.3592  25.4036
    25.5967  25.8981  26.2330  26.2330  26.3451  26.3451  26.8782  26.8782
    27.3793  27.3793  27.4988

          k = 0.0557 0.1670 0.2783 ( 29992 PWs)   bands (ev):

   -49.7345 -49.6809 -49.6584 -49.6381 -49.6236 -49.6195 -49.6088 -49.6024
   -49.5976 -49.5949 -49.5876 -49.5866 -49.5860 -49.5816 -49.5808 -49.5725
   -49.5709 -49.5681 -49.5629 -49.5617 -49.5578 -49.5523 -49.5458 -49.5324
   -49.5287 -49.5283 -49.5281 -49.5256 -49.5255 -49.5244 -49.5229 -49.5223
   -20.1327 -20.1291 -20.1099 -20.0933 -20.0647 -20.0620 -20.0525 -19.9796
   -19.9705 -19.9362 -19.9352 -19.9318 -19.9317 -19.9279 -19.9067 -19.9028
   -19.9013 -19.8852 -19.8836 -19.8758 -19.8732 -19.8695 -19.8658 -19.8464
   -19.8280 -19.7909 -19.7754 -19.7574 -19.7573 -19.7433 -19.7371 -19.7348
   -19.7142 -19.7080 -19.6813 -19.6683 -19.6512 -19.6143 -19.6026 -19.5759
   -19.5653 -19.5604 -19.5377 -19.5285 -19.5238 -19.5078 -19.5068 -19.5039
   -19.4992 -19.4970 -19.4923 -19.4823 -19.4728 -19.4686 -19.4666 -19.4643
   -19.4642 -19.4599 -19.4268 -19.4243 -19.4150 -19.4107 -19.4004 -19.3993
   -19.3570 -19.3562 -19.3511 -19.3489 -19.3416 -19.3399 -19.3390 -19.3362
   -19.3269 -19.3212 -19.3126 -19.3081 -19.3080 -19.3054 -19.2997 -19.2952
   -19.2940 -19.2918 -19.2886 -19.2848 -19.2767 -19.2760 -19.2701 -19.2550
   -19.2542 -19.2524 -19.2481 -19.2364 -19.2242 -19.2234 -19.1634 -19.1499
    15.8209  17.1284  17.2354  17.2557  17.2611  17.4459  17.5149  17.6000
    17.6163  17.6208  17.6659  17.7145  17.7513  17.8955  17.9393  18.1094
    18.1277  18.1279  18.1682  18.2902  18.3092  18.4105  18.4130  18.4661
    18.4846  18.4971  18.5920  18.6187  18.6327  18.6366  18.6430  18.6593
    18.7900  18.8107  18.8247  18.9309  18.9638  19.0419  19.0531  19.2056
    19.2227  19.2499  19.2887  19.3922  19.4270  19.4902  19.5045  19.5289
    19.5374  19.5961  19.6200  19.6664  19.7509  19.7640  19.7826  19.8550
    19.8857  19.9230  20.0316  20.1542  20.1855  20.2252  20.2452  20.2880
    20.3068  20.3344  20.3663  20.3927  20.4639  20.4787  20.4919  20.5074
    20.5230  20.6143  20.6340  20.6709  20.6871  20.7409  20.7795  20.7866
    20.8473  20.9062  20.9063  20.9143  20.9366  20.9376  21.1646  21.1857
    21.2145  21.2724  21.2831  21.5088  21.5115  21.5249  21.6803  21.7202
    21.7971  21.8123  21.8493  21.9777  22.0147  22.0691  22.1409  22.2354
    22.2570  22.2923  22.3451  22.3947  22.4394  22.4490  22.5490  22.6306
    22.6604  22.7441  22.7499  22.7876  22.7953  22.8189  22.9313  22.9362
    22.9449  22.9598  23.0510  23.0770  23.1436  23.1859  23.2470  23.2618
    23.2797  23.3081  23.3113  23.4978  23.5926  23.5951  23.6157  23.6439
    23.6685  23.8270  23.8468  23.8860  23.8941  23.8980  23.9299  23.9440
    23.9518  24.0337  24.1490  24.2430  24.4039  24.5180  24.6187  24.6428
    24.6564  24.7303  24.7578  24.8706  24.8905  24.8938  25.0418  25.0426
    25.1039  25.1067  25.1705  25.2233  25.3369  25.3425  25.3538  25.3663
    25.4127  25.7912  25.8336  26.2268  26.3473  26.6631  26.7649  26.8465
    26.8627  26.9534  27.8734

          k = 0.0557 0.1670 0.3897 ( 29972 PWs)   bands (ev):

   -49.7249 -49.6977 -49.6521 -49.6344 -49.6328 -49.6179 -49.6151 -49.6026
   -49.5986 -49.5958 -49.5907 -49.5881 -49.5850 -49.5824 -49.5711 -49.5697
   -49.5689 -49.5680 -49.5633 -49.5521 -49.5487 -49.5448 -49.5421 -49.5395
   -49.5345 -49.5340 -49.5325 -49.5292 -49.5253 -49.5247 -49.5227 -49.5224
   -20.1070 -20.1004 -20.0748 -20.0543 -20.0402 -20.0394 -20.0279 -20.0182
   -20.0159 -19.9840 -19.9756 -19.9708 -19.9575 -19.9299 -19.9244 -19.9116
   -19.9110 -19.9087 -19.9047 -19.8944 -19.8707 -19.8564 -19.8547 -19.8352
   -19.8114 -19.7953 -19.7894 -19.7696 -19.7682 -19.7382 -19.7142 -19.7123
   -19.7066 -19.6934 -19.6844 -19.6660 -19.6498 -19.6369 -19.6369 -19.6189
   -19.5938 -19.5639 -19.5064 -19.5047 -19.5013 -19.4969 -19.4952 -19.4910
   -19.4852 -19.4759 -19.4754 -19.4503 -19.4438 -19.4399 -19.4384 -19.4355
   -19.4306 -19.4293 -19.4219 -19.4150 -19.3938 -19.3925 -19.3921 -19.3824
   -19.3785 -19.3770 -19.3762 -19.3760 -19.3756 -19.3696 -19.3695 -19.3427
   -19.3402 -19.3357 -19.3198 -19.3164 -19.3114 -19.3101 -19.3095 -19.3035
   -19.3007 -19.2979 -19.2826 -19.2822 -19.2781 -19.2747 -19.2700 -19.2650
   -19.2570 -19.2509 -19.2373 -19.2264 -19.2217 -19.2076 -19.1799 -19.1631
    16.0658  16.7403  17.3774  17.4218  17.4419  17.5788  17.6629  17.7321
    17.7771  17.7786  17.7901  17.8087  17.8755  17.8984  17.9177  17.9441
    18.0049  18.0607  18.1014  18.1152  18.2291  18.2295  18.2797  18.3183
    18.3206  18.3468  18.4390  18.4884  18.4911  18.5117  18.6707  18.6910
    18.7559  18.7674  18.8081  18.8242  18.9304  19.1311  19.1380  19.1587
    19.1684  19.2666  19.2811  19.3360  19.3438  19.3807  19.4041  19.4149
    19.4530  19.4596  19.6089  19.6099  19.6115  19.7248  19.8779  19.8882
    19.8893  19.9564  20.1569  20.1711  20.2084  20.2408  20.2644  20.2763
    20.3019  20.3370  20.3523  20.4212  20.4259  20.4306  20.4742  20.5010
    20.6005  20.6041  20.6367  20.8300  20.8921  20.9245  20.9449  20.9807
    21.0421  21.0644  21.0688  21.0842  21.0849  21.0880  21.0975  21.1343
    21.2285  21.3139  21.3713  21.3943  21.4539  21.4652  21.5531  21.5828
    21.8027  21.8893  21.9403  22.0123  22.0234  22.0773  22.1851  22.2535
    22.2712  22.3016  22.3391  22.3590  22.3595  22.3610  22.4325  22.5006
    22.5689  22.6238  22.7212  22.7491  22.7689  22.8329  22.8609  22.8799
    22.8996  22.9970  23.0406  23.0520  23.1437  23.1768  23.1870  23.2636
    23.3102  23.3510  23.4960  23.5320  23.5821  23.5822  23.6573  23.6737
    23.8611  23.8887  23.9561  24.0511  24.1753  24.1766  24.1982  24.2065
    24.2294  24.2411  24.2538  24.3473  24.3600  24.4427  24.4455  24.5434
    24.6203  24.7267  24.7327  24.7930  24.7938  24.7941  24.7991  24.8075
    24.9476  24.9518  25.0226  25.2669  25.3350  25.3379  25.3442  25.3491
    25.3494  25.5329  25.8151  26.0494  26.0825  26.2321  26.3925  26.5922
    27.0808  27.4060  27.6959

          k = 0.0557 0.1670-0.5010 ( 29978 PWs)   bands (ev):

   -49.7126 -49.7124 -49.6441 -49.6440 -49.6261 -49.6259 -49.6095 -49.6093
   -49.5939 -49.5937 -49.5936 -49.5934 -49.5839 -49.5837 -49.5700 -49.5698
   -49.5655 -49.5653 -49.5548 -49.5546 -49.5426 -49.5424 -49.5408 -49.5406
   -49.5382 -49.5380 -49.5340 -49.5338 -49.5251 -49.5249 -49.5226 -49.5224
   -20.0715 -20.0714 -20.0627 -20.0627 -20.0320 -20.0319 -20.0104 -20.0102
   -20.0087 -20.0085 -20.0081 -20.0081 -19.9686 -19.9685 -19.9206 -19.9205
   -19.9127 -19.9126 -19.9115 -19.9115 -19.8564 -19.8564 -19.8335 -19.8334
   -19.8020 -19.8019 -19.7943 -19.7942 -19.7481 -19.7480 -19.7137 -19.7136
   -19.6832 -19.6831 -19.6675 -19.6673 -19.6654 -19.6653 -19.6277 -19.6276
   -19.5974 -19.5973 -19.5057 -19.5056 -19.4954 -19.4953 -19.4695 -19.4693
   -19.4548 -19.4546 -19.4509 -19.4507 -19.4442 -19.4441 -19.4241 -19.4240
   -19.4140 -19.4139 -19.4071 -19.4071 -19.4044 -19.4043 -19.4022 -19.4022
   -19.4008 -19.4006 -19.3722 -19.3722 -19.3647 -19.3645 -19.3456 -19.3454
   -19.3435 -19.3435 -19.3285 -19.3284 -19.3267 -19.3266 -19.3056 -19.3054
   -19.3011 -19.3009 -19.2946 -19.2945 -19.2800 -19.2799 -19.2607 -19.2605
   -19.2603 -19.2602 -19.2264 -19.2263 -19.2012 -19.2010 -19.1828 -19.1827
    16.3775  16.3777  17.5492  17.5494  17.6325  17.6327  17.6665  17.6666
    17.7660  17.7661  17.8639  17.8639  17.9229  17.9231  17.9979  17.9980
    18.0065  18.0065  18.0459  18.0459  18.1407  18.1409  18.1923  18.1924
    18.2014  18.2015  18.3686  18.3687  18.5524  18.5526  18.5853  18.5854
    18.8705  18.8706  18.8911  18.8913  18.9460  18.9462  19.0326  19.0328
    19.2872  19.2873  19.3192  19.3194  19.3500  19.3501  19.3880  19.3880
    19.4596  19.4596  19.5214  19.5215  19.5356  19.5358  20.0086  20.0088
    20.0766  20.0767  20.0780  20.0782  20.1362  20.1363  20.2008  20.2008
    20.3468  20.3469  20.3713  20.3714  20.5450  20.5451  20.5818  20.5819
    20.6527  20.6527  20.6972  20.6973  20.7525  20.7525  20.9379  20.9379
    21.0476  21.0476  21.1428  21.1429  21.2210  21.2212  21.2288  21.2290
    21.2593  21.2594  21.2919  21.2920  21.7229  21.7229  21.7655  21.7656
    21.7985  21.7985  21.8482  21.8482  22.0148  22.0150  22.0190  22.0191
    22.2797  22.2798  22.4580  22.4581  22.4786  22.4788  22.5320  22.5321
    22.5360  22.5362  22.5999  22.6000  22.6641  22.6642  22.7731  22.7733
    22.9706  22.9708  22.9934  22.9935  23.0996  23.0997  23.3681  23.3683
    23.4035  23.4037  23.4049  23.4051  23.4743  23.4745  23.9315  23.9317
    24.0169  24.0171  24.0284  24.0284  24.2506  24.2507  24.3057  24.3058
    24.4330  24.4332  24.4870  24.4870  24.4876  24.4877  24.5091  24.5093
    24.5096  24.5097  24.5172  24.5173  24.5297  24.5298  24.7205  24.7206
    24.8620  24.8620  25.2911  25.2911  25.3411  25.3413  25.3463  25.3465
    25.5852  25.5853  25.8153  25.8155  25.8245  25.8245  26.3612  26.3614
    27.4322  27.4324  27.8600

          k = 0.0557 0.2783 0.2783 ( 29980 PWs)   bands (ev):

   -49.7281 -49.6761 -49.6761 -49.6368 -49.6347 -49.6167 -49.6070 -49.6070
   -49.5937 -49.5937 -49.5925 -49.5846 -49.5846 -49.5841 -49.5684 -49.5684
   -49.5678 -49.5678 -49.5588 -49.5588 -49.5540 -49.5540 -49.5405 -49.5320
   -49.5320 -49.5315 -49.5315 -49.5292 -49.5292 -49.5248 -49.5248 -49.5226
   -20.1186 -20.1186 -20.0817 -20.0606 -20.0482 -20.0399 -20.0399 -19.9789
   -19.9789 -19.9749 -19.9749 -19.9367 -19.9367 -19.9138 -19.9138 -19.9091
   -19.9091 -19.9066 -19.9066 -19.8987 -19.8987 -19.8710 -19.8710 -19.8708
   -19.8557 -19.8557 -19.7731 -19.7647 -19.7370 -19.7370 -19.7170 -19.7170
   -19.7083 -19.7015 -19.6673 -19.6673 -19.5940 -19.5940 -19.5933 -19.5650
   -19.5650 -19.5596 -19.5596 -19.5258 -19.5258 -19.5035 -19.5035 -19.4916
   -19.4916 -19.4856 -19.4852 -19.4852 -19.4709 -19.4709 -19.4490 -19.4490
   -19.4310 -19.4310 -19.4291 -19.4291 -19.3930 -19.3930 -19.3910 -19.3910
   -19.3763 -19.3763 -19.3748 -19.3663 -19.3448 -19.3448 -19.3433 -19.3364
   -19.3364 -19.3336 -19.3333 -19.3333 -19.3060 -19.3060 -19.3042 -19.3042
   -19.3015 -19.2940 -19.2802 -19.2782 -19.2782 -19.2761 -19.2681 -19.2681
   -19.2629 -19.2512 -19.2512 -19.2211 -19.2211 -19.2089 -19.1749 -19.1496
    15.9834  17.2526  17.2526  17.3506  17.3625  17.3625  17.4980  17.5829
    17.7495  17.7495  17.7870  17.7870  17.8931  17.9690  18.0296  18.0296
    18.1282  18.1673  18.1673  18.1882  18.2093  18.2093  18.2832  18.2833
    18.3453  18.3454  18.4090  18.4090  18.6122  18.7020  18.7021  18.7201
    18.7201  18.7461  18.7461  18.8358  18.8358  18.9358  18.9359  19.0155
    19.0155  19.1319  19.2800  19.2800  19.3515  19.3516  19.3523  19.5918
    19.5918  19.6068  19.6068  19.6530  19.6530  19.6575  19.7159  20.0566
    20.0566  20.1654  20.1654  20.2433  20.2433  20.3176  20.3176  20.3621
    20.3621  20.3746  20.3746  20.4550  20.4693  20.5440  20.5441  20.6314
    20.6342  20.7036  20.7036  20.8583  20.8583  20.8624  20.9180  20.9418
    20.9533  20.9914  20.9915  21.0072  21.0408  21.0561  21.0561  21.0579
    21.2201  21.2201  21.3445  21.3445  21.5780  21.5780  21.7172  21.7172
    21.7739  21.7739  21.8830  21.8831  21.8971  21.9715  21.9920  21.9920
    22.0312  22.0312  22.2078  22.2324  22.3741  22.3940  22.3940  22.4015
    22.4015  22.5287  22.5944  22.7284  22.7284  22.8788  22.8958  22.8958
    23.1821  23.1869  23.1870  23.3170  23.3170  23.3430  23.3430  23.4473
    23.4524  23.4646  23.4646  23.5525  23.5525  23.6558  23.6558  23.6632
    23.6632  23.7174  23.7174  23.9825  24.0099  24.0099  24.0658  24.1586
    24.1586  24.1646  24.1848  24.1848  24.3424  24.3962  24.5714  24.5714
    24.7769  24.9051  24.9051  24.9246  24.9323  24.9323  24.9396  24.9641
    25.1096  25.1096  25.1110  25.1110  25.1521  25.1521  25.1605  25.1605
    25.2607  25.6191  25.7209  25.7209  26.2407  26.2407  27.2997  27.2997
    27.5605  27.6065  27.6065

          k = 0.0557 0.2783 0.3897 ( 29985 PWs)   bands (ev):

   -49.7188 -49.6923 -49.6690 -49.6491 -49.6297 -49.6156 -49.6125 -49.6043
   -49.6009 -49.5970 -49.5920 -49.5870 -49.5817 -49.5734 -49.5682 -49.5650
   -49.5635 -49.5604 -49.5565 -49.5561 -49.5503 -49.5470 -49.5415 -49.5364
   -49.5362 -49.5356 -49.5356 -49.5315 -49.5300 -49.5276 -49.5241 -49.5230
   -20.0971 -20.0941 -20.0448 -20.0252 -20.0240 -20.0214 -20.0198 -20.0195
   -20.0074 -19.9706 -19.9705 -19.9692 -19.9557 -19.9539 -19.9368 -19.9349
   -19.9341 -19.9212 -19.9171 -19.9143 -19.8939 -19.8905 -19.8731 -19.8674
   -19.8608 -19.8304 -19.7993 -19.7981 -19.7675 -19.7426 -19.6981 -19.6883
   -19.6777 -19.6564 -19.6474 -19.6267 -19.6254 -19.6236 -19.6020 -19.5927
   -19.5516 -19.5514 -19.5332 -19.5197 -19.5114 -19.5085 -19.4906 -19.4876
   -19.4774 -19.4735 -19.4706 -19.4603 -19.4557 -19.4543 -19.4405 -19.4342
   -19.4245 -19.4231 -19.4224 -19.4214 -19.4137 -19.4008 -19.3901 -19.3867
   -19.3830 -19.3790 -19.3646 -19.3642 -19.3641 -19.3563 -19.3556 -19.3542
   -19.3416 -19.3313 -19.3290 -19.3229 -19.3190 -19.3180 -19.3161 -19.3154
   -19.3123 -19.2962 -19.2911 -19.2874 -19.2865 -19.2833 -19.2816 -19.2692
   -19.2558 -19.2556 -19.2391 -19.2083 -19.2012 -19.1940 -19.1917 -19.1572
    16.2203  16.8741  17.4313  17.4940  17.5060  17.5450  17.6024  17.7014
    17.8648  17.8947  17.9125  17.9137  17.9298  17.9427  17.9621  17.9672
    18.0128  18.0275  18.0851  18.0949  18.1353  18.1634  18.2085  18.2224
    18.2317  18.2775  18.4198  18.4337  18.4487  18.4510  18.4950  18.5582
    18.6310  18.7328  18.7934  18.8444  18.8617  18.8629  18.9018  18.9036
    19.0007  19.0918  19.1145  19.1969  19.2363  19.3566  19.3650  19.3973
    19.4790  19.5613  19.6822  19.6916  19.7186  19.7345  19.9027  19.9621
    19.9896  20.0108  20.1042  20.2449  20.3195  20.3199  20.4170  20.4294
    20.4557  20.4763  20.4785  20.5620  20.6120  20.6188  20.6229  20.7499
    20.7503  20.8241  20.8412  20.8596  20.8709  20.8900  20.9723  21.0231
    21.0649  21.0716  21.1062  21.1216  21.1347  21.2081  21.2390  21.2461
    21.2477  21.3205  21.3541  21.3774  21.4557  21.5199  21.5743  21.6634
    21.7261  21.7312  21.7654  21.7936  21.8231  21.8485  21.8729  21.8884
    21.9974  22.0094  22.0315  22.0857  22.2044  22.2379  22.2517  22.3116
    22.4167  22.4238  22.5902  22.6146  22.7406  22.7766  22.8647  22.9414
    23.0887  23.1180  23.1286  23.1798  23.2515  23.3399  23.4032  23.4119
    23.4936  23.5308  23.5790  23.6837  23.6935  23.7089  23.7812  23.8442
    23.8944  23.8956  24.0532  24.0545  24.0558  24.1031  24.2844  24.3307
    24.3498  24.3661  24.4052  24.4116  24.4261  24.4331  24.4348  24.4760
    24.5495  24.7006  24.7691  24.7869  24.7879  24.8002  24.8194  24.8242
    24.8316  24.8998  25.1050  25.1167  25.1221  25.1358  25.1887  25.2279
    25.5555  25.6760  25.6946  25.7144  25.7609  26.0848  26.9604  26.9788
    27.7387  27.9159  28.2323

          k = 0.0557 0.2783-0.5010 ( 29998 PWs)   bands (ev):

   -49.7068 -49.7066 -49.6600 -49.6598 -49.6234 -49.6232 -49.6073 -49.6071
   -49.6011 -49.6009 -49.5898 -49.5896 -49.5780 -49.5778 -49.5626 -49.5624
   -49.5598 -49.5596 -49.5538 -49.5536 -49.5454 -49.5452 -49.5429 -49.5427
   -49.5409 -49.5407 -49.5313 -49.5311 -49.5309 -49.5307 -49.5236 -49.5234
   -20.0655 -20.0654 -20.0606 -20.0606 -20.0014 -20.0013 -19.9978 -19.9976
   -19.9930 -19.9928 -19.9721 -19.9720 -19.9653 -19.9652 -19.9576 -19.9576
   -19.9553 -19.9552 -19.9289 -19.9288 -19.8796 -19.8795 -19.8718 -19.8717
   -19.8366 -19.8365 -19.7928 -19.7928 -19.7867 -19.7867 -19.6606 -19.6606
   -19.6582 -19.6582 -19.6395 -19.6394 -19.6224 -19.6222 -19.6034 -19.6034
   -19.5847 -19.5845 -19.4895 -19.4893 -19.4865 -19.4863 -19.4843 -19.4841
   -19.4745 -19.4745 -19.4726 -19.4725 -19.4596 -19.4596 -19.4503 -19.4501
   -19.4208 -19.4207 -19.4118 -19.4118 -19.3954 -19.3953 -19.3939 -19.3938
   -19.3762 -19.3760 -19.3699 -19.3699 -19.3662 -19.3661 -19.3534 -19.3533
   -19.3398 -19.3396 -19.3246 -19.3244 -19.3231 -19.3230 -19.3228 -19.3228
   -19.3123 -19.3121 -19.3004 -19.3003 -19.2861 -19.2859 -19.2668 -19.2667
   -19.2620 -19.2618 -19.2134 -19.2133 -19.2012 -19.2011 -19.1723 -19.1723
    16.5221  16.5223  17.6553  17.6555  17.6799  17.6800  17.6839  17.6840
    17.7580  17.7580  17.7723  17.7725  17.8694  17.8694  18.0358  18.0360
    18.0691  18.0692  18.1545  18.1545  18.1740  18.1740  18.2042  18.2043
    18.2147  18.2148  18.3251  18.3252  18.3455  18.3456  18.4623  18.4624
    18.6520  18.6522  18.7561  18.7562  18.8671  18.8672  18.9937  18.9938
    18.9998  18.9999  19.1393  19.1394  19.2472  19.2473  19.2795  19.2795
    19.6482  19.6482  19.7232  19.7233  19.8191  19.8192  19.8226  19.8227
    19.8574  19.8575  20.1295  20.1297  20.3777  20.3779  20.4914  20.4915
    20.5159  20.5160  20.5987  20.5988  20.6218  20.6218  20.6571  20.6571
    20.7429  20.7429  20.8986  20.8986  21.0097  21.0098  21.1021  21.1021
    21.1060  21.1060  21.1817  21.1817  21.2202  21.2204  21.2368  21.2369
    21.4078  21.4079  21.4441  21.4441  21.4638  21.4639  21.4644  21.4644
    21.6486  21.6487  21.6547  21.6548  21.7514  21.7516  21.7593  21.7594
    21.9731  21.9732  22.2017  22.2017  22.3487  22.3488  22.3757  22.3757
    22.4105  22.4106  22.4522  22.4523  22.5636  22.5638  22.7565  22.7567
    22.9494  22.9496  23.2689  23.2690  23.3082  23.3084  23.3731  23.3733
    23.5165  23.5167  23.7721  23.7723  23.8121  23.8122  23.9296  23.9298
    24.0253  24.0255  24.0991  24.0991  24.1828  24.1829  24.1838  24.1838
    24.4390  24.4390  24.4395  24.4397  24.5459  24.5460  24.6134  24.6135
    24.6138  24.6139  24.6350  24.6350  24.6553  24.6553  24.6571  24.6572
    24.7608  24.7608  25.1244  25.1246  25.1459  25.1460  25.1927  25.1927
    25.3447  25.3449  25.8906  25.8908  26.2929  26.2930  26.3746  26.3746
    28.1040  28.1041  28.4331

          k = 0.0557 0.3897 0.3897 ( 30016 PWs)   bands (ev):

   -49.7098 -49.6845 -49.6845 -49.6626 -49.6251 -49.6122 -49.6122 -49.6088
   -49.6028 -49.5984 -49.5984 -49.5913 -49.5660 -49.5660 -49.5599 -49.5599
   -49.5593 -49.5593 -49.5527 -49.5527 -49.5502 -49.5502 -49.5405 -49.5405
   -49.5400 -49.5400 -49.5378 -49.5378 -49.5320 -49.5261 -49.5261 -49.5238
   -20.0771 -20.0771 -20.0138 -20.0138 -20.0117 -20.0117 -20.0073 -20.0004
   -19.9948 -19.9948 -19.9772 -19.9680 -19.9679 -19.9583 -19.9583 -19.9338
   -19.9338 -19.9196 -19.9196 -19.9181 -19.9181 -19.9171 -19.9171 -19.8791
   -19.8791 -19.8773 -19.8378 -19.7923 -19.7866 -19.7326 -19.7326 -19.6602
   -19.6394 -19.6394 -19.6044 -19.6044 -19.5987 -19.5668 -19.5667 -19.5517
   -19.5517 -19.5505 -19.5505 -19.5338 -19.5338 -19.4852 -19.4852 -19.4844
   -19.4844 -19.4701 -19.4701 -19.4626 -19.4611 -19.4611 -19.4576 -19.4576
   -19.4442 -19.4442 -19.4132 -19.4132 -19.4050 -19.4050 -19.4013 -19.3923
   -19.3923 -19.3678 -19.3678 -19.3638 -19.3560 -19.3560 -19.3560 -19.3560
   -19.3381 -19.3330 -19.3330 -19.3315 -19.3315 -19.3248 -19.3168 -19.3096
   -19.3039 -19.2982 -19.2942 -19.2922 -19.2922 -19.2852 -19.2804 -19.2625
   -19.2625 -19.2576 -19.2576 -19.2090 -19.1879 -19.1848 -19.1848 -19.1585
    16.4455  17.0681  17.0681  17.6007  17.6113  17.6719  17.6912  17.6912
    17.7832  17.9428  17.9428  17.9712  17.9857  17.9857  18.0560  18.0561
    18.0693  18.0693  18.0734  18.0734  18.1117  18.1176  18.1176  18.1840
    18.1840  18.2526  18.3025  18.3680  18.3680  18.5707  18.5707  18.5712
    18.5712  18.5786  18.5786  18.5807  18.5807  18.8222  18.8222  18.8316
    18.8316  18.8887  18.8887  19.1396  19.1396  19.2741  19.4770  19.4771
    19.4817  19.4817  19.6556  19.8110  19.8110  19.8301  19.8477  19.9078
    19.9078  20.2357  20.2491  20.2491  20.4109  20.5197  20.5197  20.6271
    20.6475  20.6475  20.6549  20.6549  20.6584  20.6584  20.6961  20.6961
    20.7698  20.8144  20.9833  20.9833  21.0782  21.0782  21.0875  21.1388
    21.1400  21.1573  21.1642  21.2033  21.2548  21.2548  21.2916  21.2916
    21.4313  21.4313  21.4472  21.4472  21.4558  21.4789  21.4789  21.5366
    21.6051  21.6051  21.6414  21.6414  21.6578  21.6701  21.7158  21.7158
    21.7392  21.7393  21.8752  21.9459  21.9459  21.9774  21.9774  22.2580
    22.4101  22.4101  22.4254  22.4254  22.5161  22.5161  22.5797  22.6643
    22.9789  23.3108  23.3590  23.3590  23.3832  23.3832  23.6523  23.6523
    23.6624  23.6625  23.7629  23.7630  23.8236  23.8236  23.8937  23.9331
    24.0791  24.0791  24.1871  24.2139  24.2139  24.2314  24.2314  24.2410
    24.2410  24.3285  24.4373  24.5369  24.5738  24.5956  24.5956  24.5986
    24.5986  24.6438  24.7063  24.7637  24.7637  24.8111  24.8111  24.8261
    24.8261  24.8524  24.8565  24.8565  24.8737  24.8737  25.0463  25.0737
    25.0737  25.4056  25.5737  25.5737  26.3425  26.3425  27.6332  27.6332
    27.6979  27.6979  28.4154

          k = 0.0557 0.3897-0.5010 ( 30018 PWs)   bands (ev):

   -49.6984 -49.6982 -49.6746 -49.6744 -49.6193 -49.6191 -49.6080 -49.6078
   -49.6041 -49.6039 -49.5952 -49.5950 -49.5633 -49.5631 -49.5558 -49.5556
   -49.5545 -49.5543 -49.5523 -49.5521 -49.5480 -49.5478 -49.5459 -49.5457
   -49.5448 -49.5446 -49.5394 -49.5392 -49.5289 -49.5287 -49.5250 -49.5248
   -20.0500 -20.0499 -20.0482 -20.0481 -19.9943 -19.9942 -19.9942 -19.9942
   -19.9785 -19.9783 -19.9700 -19.9698 -19.9642 -19.9641 -19.9600 -19.9599
   -19.9422 -19.9420 -19.9295 -19.9294 -19.9194 -19.9193 -19.9065 -19.9064
   -19.8785 -19.8784 -19.8334 -19.8333 -19.7655 -19.7655 -19.6963 -19.6963
   -19.6021 -19.6021 -19.5932 -19.5931 -19.5804 -19.5802 -19.5662 -19.5660
   -19.5409 -19.5409 -19.5153 -19.5151 -19.5113 -19.5111 -19.5094 -19.5094
   -19.5013 -19.5013 -19.4661 -19.4660 -19.4515 -19.4514 -19.4441 -19.4440
   -19.4287 -19.4286 -19.4220 -19.4220 -19.4207 -19.4207 -19.4029 -19.4027
   -19.3821 -19.3820 -19.3814 -19.3813 -19.3490 -19.3488 -19.3452 -19.3452
   -19.3451 -19.3450 -19.3373 -19.3372 -19.3130 -19.3129 -19.3086 -19.3085
   -19.3048 -19.3047 -19.2994 -19.2993 -19.2815 -19.2813 -19.2764 -19.2763
   -19.2715 -19.2713 -19.2313 -19.2311 -19.1825 -19.1824 -19.1679 -19.1679
    16.7325  16.7328  17.3141  17.3143  17.7759  17.7760  17.7862  17.7863
    17.8682  17.8684  17.9077  17.9077  17.9225  17.9227  17.9463  17.9464
    18.0816  18.0817  18.0977  18.0977  18.2035  18.2037  18.2958  18.2960
    18.2986  18.2988  18.3312  18.3312  18.3355  18.3356  18.3736  18.3738
    18.5512  18.5512  18.5775  18.5776  18.6898  18.6900  18.7303  18.7303
    18.7533  18.7533  19.0441  19.0442  19.2694  19.2695  19.2840  19.2841
    19.6262  19.6264  19.6370  19.6372  19.8875  19.8875  19.9732  19.9732
    20.0944  20.0945  20.1785  20.1785  20.3666  20.3668  20.6214  20.6216
    20.6776  20.6776  20.7309  20.7309  20.8257  20.8257  20.8775  20.8775
    20.9885  20.9887  21.0102  21.0102  21.0379  21.0379  21.1979  21.1979
    21.2013  21.2013  21.2246  21.2247  21.2485  21.2485  21.2799  21.2800
    21.3439  21.3440  21.3849  21.3850  21.4011  21.4011  21.4282  21.4284
    21.5350  21.5351  21.5420  21.5421  21.6885  21.6886  21.7131  21.7132
    21.7199  21.7200  21.8838  21.8838  22.1310  22.1312  22.1336  22.1336
    22.1793  22.1794  22.1990  22.1991  22.3521  22.3523  22.5346  22.5348
    23.1827  23.1828  23.4520  23.4521  23.5653  23.5654  23.6101  23.6103
    23.6390  23.6391  23.8790  23.8791  23.9544  23.9546  23.9748  23.9749
    24.0516  24.0517  24.1344  24.1346  24.2500  24.2500  24.3914  24.3915
    24.4569  24.4571  24.5485  24.5486  24.6169  24.6169  24.6191  24.6192
    24.6369  24.6369  24.7042  24.7043  24.7072  24.7073  24.7429  24.7429
    24.7475  24.7475  24.8284  24.8286  24.8829  24.8830  24.9422  24.9423
    25.0604  25.0604  25.4226  25.4228  26.9996  26.9996  27.0003  27.0005
    28.3515  28.3516  28.4205

          k = 0.0557-0.5010-0.5010 ( 30012 PWs)   bands (ev):

   -49.6876 -49.6874 -49.6874 -49.6873 -49.6142 -49.6140 -49.6140 -49.6138
   -49.6001 -49.6000 -49.6000 -49.5998 -49.5504 -49.5504 -49.5503 -49.5502
   -49.5502 -49.5502 -49.5501 -49.5500 -49.5499 -49.5499 -49.5497 -49.5497
   -49.5497 -49.5497 -49.5495 -49.5495 -49.5268 -49.5266 -49.5266 -49.5265
   -20.0258 -20.0258 -20.0257 -20.0257 -20.0257 -20.0257 -20.0257 -20.0257
   -19.9525 -19.9525 -19.9523 -19.9523 -19.9523 -19.9523 -19.9522 -19.9522
   -19.9408 -19.9406 -19.9406 -19.9404 -19.9224 -19.9223 -19.9223 -19.9222
   -19.8823 -19.8822 -19.8822 -19.8821 -19.7319 -19.7319 -19.7319 -19.7319
   -19.5491 -19.5491 -19.5491 -19.5491 -19.5491 -19.5491 -19.5491 -19.5491
   -19.5429 -19.5429 -19.5428 -19.5428 -19.5428 -19.5428 -19.5426 -19.5426
   -19.4798 -19.4798 -19.4798 -19.4798 -19.4368 -19.4368 -19.4367 -19.4367
   -19.4367 -19.4367 -19.4365 -19.4365 -19.4339 -19.4339 -19.4339 -19.4339
   -19.3651 -19.3651 -19.3650 -19.3650 -19.3649 -19.3649 -19.3648 -19.3648
   -19.3288 -19.3287 -19.3287 -19.3286 -19.3144 -19.3144 -19.3144 -19.3144
   -19.2915 -19.2915 -19.2915 -19.2915 -19.2868 -19.2867 -19.2867 -19.2866
   -19.2543 -19.2542 -19.2541 -19.2540 -19.1712 -19.1712 -19.1712 -19.1712
    17.0005  17.0007  17.0007  17.0009  17.8498  17.8499  17.8499  17.8500
    17.9135  17.9136  17.9136  17.9137  17.9785  17.9786  17.9786  17.9786
    18.1043  18.1043  18.1044  18.1045  18.1045  18.1045  18.1046  18.1046
    18.4232  18.4232  18.4234  18.4234  18.4234  18.4234  18.4236  18.4236
    18.5294  18.5294  18.5294  18.5294  18.5294  18.5295  18.5295  18.5295
    18.7913  18.7914  18.7914  18.7914  19.4368  19.4368  19.4370  19.4370
    19.4370  19.4370  19.4371  19.4372  20.0145  20.0145  20.0146  20.0146
    20.2481  20.2482  20.2482  20.2483  20.5313  20.5314  20.5314  20.5315
    20.7565  20.7565  20.7565  20.7565  20.7693  20.7693  20.7693  20.7693
    21.1235  21.1235  21.1235  21.1236  21.1236  21.1236  21.1236  21.1236
    21.2271  21.2272  21.2272  21.2273  21.3648  21.3648  21.3648  21.3649
    21.3797  21.3798  21.3798  21.3798  21.5219  21.5220  21.5220  21.5221
    21.5389  21.5389  21.5389  21.5389  21.5390  21.5391  21.5391  21.5391
    21.8115  21.8115  21.8116  21.8116  21.9366  21.9366  21.9367  21.9367
    21.9367  21.9367  21.9368  21.9368  22.4428  22.4430  22.4430  22.4432
    23.4230  23.4232  23.4232  23.4233  23.6274  23.6275  23.6275  23.6276
    23.8386  23.8386  23.8387  23.8388  23.8388  23.8388  23.8389  23.8389
    24.3620  24.3621  24.3621  24.3622  24.4898  24.4898  24.4899  24.4900
    24.4900  24.4900  24.4901  24.4901  24.4916  24.4917  24.4917  24.4918
    24.7287  24.7288  24.7288  24.7289  24.7574  24.7574  24.7574  24.7574
    24.7574  24.7575  24.7575  24.7575  24.7683  24.7683  24.7683  24.7683
    25.0256  25.0258  25.0258  25.0258  27.6911  27.6912  27.6912  27.6912
    27.6912  27.6913  27.6913

          k = 0.1670 0.1670 0.1670 ( 30037 PWs)   bands (ev):

   -49.7379 -49.6606 -49.6606 -49.6606 -49.6109 -49.6109 -49.6109 -49.6037
   -49.6037 -49.6037 -49.5895 -49.5747 -49.5747 -49.5746 -49.5746 -49.5746
   -49.5746 -49.5741 -49.5741 -49.5740 -49.5536 -49.5536 -49.5536 -49.5257
   -49.5257 -49.5257 -49.5252 -49.5252 -49.5252 -49.5252 -49.5251 -49.5251
   -20.1366 -20.1366 -20.1366 -20.0997 -20.0697 -20.0697 -20.0697 -19.9328
   -19.9328 -19.9328 -19.9137 -19.9137 -19.9137 -19.9137 -19.9137 -19.9137
   -19.8931 -19.8931 -19.8931 -19.8931 -19.8931 -19.8931 -19.8260 -19.8260
   -19.8260 -19.7848 -19.7848 -19.7848 -19.7362 -19.7362 -19.7362 -19.7362
   -19.7362 -19.7362 -19.6518 -19.6518 -19.6518 -19.5621 -19.5621 -19.5620
   -19.5389 -19.5389 -19.5389 -19.5389 -19.5389 -19.5389 -19.5356 -19.5356
   -19.5356 -19.4963 -19.4963 -19.4963 -19.4909 -19.4909 -19.4909 -19.4909
   -19.4909 -19.4909 -19.4256 -19.4256 -19.4256 -19.3815 -19.3815 -19.3815
   -19.3707 -19.3707 -19.3707 -19.3291 -19.3291 -19.3291 -19.3215 -19.3215
   -19.3215 -19.3047 -19.3047 -19.3047 -19.3047 -19.3047 -19.3047 -19.2941
   -19.2941 -19.2941 -19.2778 -19.2778 -19.2778 -19.2715 -19.2715 -19.2715
   -19.2692 -19.2692 -19.2356 -19.2356 -19.2356 -19.2116 -19.1495 -19.1495
    15.7365  17.1930  17.1930  17.1930  17.3699  17.5259  17.5259  17.5259
    17.5515  17.5515  17.5515  17.6573  17.6573  17.6573  18.0415  18.0415
    18.0415  18.4079  18.4079  18.4079  18.4079  18.4079  18.4079  18.4536
    18.4536  18.4536  18.6049  18.6049  18.6049  18.8372  18.8372  18.8372
    18.8711  18.8711  18.8711  18.8711  18.8711  18.8711  19.2051  19.2051
    19.2051  19.2051  19.2051  19.2051  19.3799  19.3799  19.3800  19.7228
    19.7228  19.7228  19.8681  19.8682  19.8682  19.8682  19.8682  19.8682
    20.0206  20.0206  20.0207  20.1035  20.1035  20.1035  20.1035  20.1035
    20.1035  20.3981  20.3981  20.3981  20.5918  20.5918  20.5918  20.6018
    20.6233  20.6233  20.6233  20.6233  20.6233  20.6233  20.6493  20.6493
    20.6493  20.7097  20.7097  20.8476  20.8476  20.8476  20.8667  20.8667
    21.3986  21.3986  21.3986  21.6839  21.6839  21.6839  21.7523  21.7523
    21.7523  21.9298  21.9298  21.9298  22.1277  22.1277  22.1277  22.1835
    22.1835  22.1835  22.1835  22.1835  22.1835  22.6012  22.6012  22.6012
    22.7668  22.7669  22.7669  22.8895  22.8895  22.8895  22.9232  22.9232
    22.9232  22.9887  22.9887  22.9887  22.9887  22.9887  22.9888  23.0798
    23.0798  23.3913  23.5667  23.5667  23.5667  23.5667  23.5667  23.5667
    23.8281  23.8281  23.8281  23.8391  23.8391  23.8391  23.9345  23.9345
    23.9345  24.2411  24.2411  24.2411  24.4168  24.4168  24.4168  24.6196
    24.6196  24.6196  24.7050  24.7050  25.0087  25.0087  25.0087  25.2361
    25.2362  25.2362  25.2362  25.2362  25.2362  25.3523  25.3523  25.3523
    25.8398  25.8398  25.8398  26.3220  26.3220  26.3220  27.4522  27.4522
    27.4522  27.4522  27.4522

          k = 0.1670 0.1670 0.2783 ( 29992 PWs)   bands (ev):

   -49.7313 -49.6785 -49.6564 -49.6564 -49.6224 -49.6224 -49.6091 -49.6012
   -49.6012 -49.5944 -49.5856 -49.5813 -49.5813 -49.5746 -49.5745 -49.5742
   -49.5741 -49.5693 -49.5632 -49.5631 -49.5553 -49.5470 -49.5470 -49.5322
   -49.5294 -49.5294 -49.5276 -49.5276 -49.5257 -49.5256 -49.5253 -49.5252
   -20.1258 -20.1152 -20.1152 -20.0661 -20.0545 -20.0545 -20.0463 -19.9821
   -19.9551 -19.9551 -19.9325 -19.9325 -19.9279 -19.9279 -19.9276 -19.9276
   -19.9087 -19.9087 -19.8963 -19.8963 -19.8942 -19.8942 -19.8706 -19.8526
   -19.8027 -19.8027 -19.7840 -19.7840 -19.7438 -19.7438 -19.7107 -19.7107
   -19.6953 -19.6953 -19.6851 -19.6851 -19.5980 -19.5980 -19.5916 -19.5765
   -19.5765 -19.5578 -19.5578 -19.5225 -19.5021 -19.5021 -19.4972 -19.4972
   -19.4916 -19.4916 -19.4901 -19.4901 -19.4880 -19.4857 -19.4705 -19.4705
   -19.4649 -19.4649 -19.4169 -19.3999 -19.3923 -19.3923 -19.3906 -19.3905
   -19.3905 -19.3611 -19.3608 -19.3608 -19.3491 -19.3491 -19.3384 -19.3384
   -19.3379 -19.3379 -19.3260 -19.3086 -19.3086 -19.3044 -19.3044 -19.3021
   -19.2992 -19.2992 -19.2881 -19.2881 -19.2750 -19.2613 -19.2574 -19.2574
   -19.2486 -19.2483 -19.2384 -19.2379 -19.2261 -19.2261 -19.1603 -19.1531
    15.9013  17.1837  17.2927  17.3068  17.3068  17.4258  17.6302  17.6302
    17.6468  17.6469  17.6788  17.7319  17.7883  17.7883  17.9441  18.1317
    18.1317  18.1712  18.1821  18.1822  18.2869  18.2869  18.3752  18.4616
    18.4616  18.5203  18.5204  18.5360  18.5360  18.6247  18.7300  18.7300
    18.7413  18.7413  18.7558  18.7559  18.8467  18.8467  18.9600  18.9600
    19.2164  19.2164  19.2395  19.2395  19.4531  19.4531  19.5862  19.5862
    19.6451  19.6451  19.6479  19.7004  19.7384  19.7384  19.9312  19.9312
    19.9383  19.9383  20.1105  20.1105  20.1244  20.1244  20.2359  20.3205
    20.3205  20.4228  20.5077  20.5086  20.5086  20.5571  20.5571  20.6273
    20.6273  20.6381  20.6381  20.7368  20.7513  20.7556  20.7556  20.7609
    20.9337  20.9480  20.9602  20.9602  20.9719  20.9867  21.1728  21.1728
    21.2290  21.2290  21.4249  21.4249  21.4252  21.4321  21.6622  21.6956
    21.6956  21.8686  21.8686  21.8867  21.8991  21.8991  22.1602  22.2920
    22.2920  22.3293  22.3293  22.4053  22.4326  22.4327  22.5222  22.5222
    22.5495  22.6821  22.6821  22.7591  22.7592  22.7806  22.7806  22.8985
    22.9225  22.9225  22.9508  22.9875  22.9875  23.1183  23.1409  23.2390
    23.2588  23.2588  23.6171  23.6172  23.6498  23.6774  23.6774  23.9028
    23.9028  23.9077  23.9077  23.9161  23.9161  23.9646  24.0519  24.0519
    24.0802  24.0802  24.0938  24.4426  24.4426  24.4506  24.4613  24.5343
    24.6136  24.7083  24.7083  24.8324  24.9485  24.9740  24.9740  25.0494
    25.0494  25.0514  25.0514  25.2419  25.2419  25.2575  25.3241  25.3241
    25.3566  25.3566  25.7241  26.5101  26.5101  26.9101  26.9102  27.0550
    27.2751  27.3558  27.3558

          k = 0.1670 0.1670 0.3897 ( 29976 PWs)   bands (ev):

   -49.7218 -49.6950 -49.6503 -49.6503 -49.6330 -49.6330 -49.6064 -49.5989
   -49.5976 -49.5976 -49.5875 -49.5875 -49.5746 -49.5745 -49.5743 -49.5741
   -49.5690 -49.5649 -49.5578 -49.5526 -49.5526 -49.5419 -49.5409 -49.5409
   -49.5354 -49.5354 -49.5311 -49.5310 -49.5256 -49.5255 -49.5253 -49.5252
   -20.1039 -20.0843 -20.0843 -20.0324 -20.0324 -20.0299 -20.0238 -20.0121
   -20.0012 -20.0012 -19.9702 -19.9702 -19.9333 -19.9333 -19.9226 -19.9225
   -19.9225 -19.9190 -19.9190 -19.9140 -19.8993 -19.8993 -19.8748 -19.8748
   -19.8257 -19.8257 -19.7442 -19.7442 -19.7381 -19.7381 -19.7133 -19.7133
   -19.6806 -19.6806 -19.6552 -19.6552 -19.6422 -19.6422 -19.6130 -19.6130
   -19.5854 -19.5854 -19.5279 -19.5034 -19.4894 -19.4893 -19.4892 -19.4891
   -19.4704 -19.4679 -19.4679 -19.4507 -19.4507 -19.4497 -19.4423 -19.4423
   -19.4343 -19.4343 -19.4268 -19.4177 -19.4119 -19.4119 -19.4100 -19.3742
   -19.3742 -19.3734 -19.3734 -19.3676 -19.3676 -19.3584 -19.3584 -19.3529
   -19.3458 -19.3458 -19.3216 -19.3176 -19.3176 -19.3095 -19.3063 -19.3063
   -19.3039 -19.3039 -19.3018 -19.3018 -19.2964 -19.2920 -19.2541 -19.2425
   -19.2415 -19.2415 -19.2243 -19.2243 -19.2209 -19.2080 -19.1762 -19.1645
    16.1413  16.8026  17.4336  17.4725  17.4725  17.5362  17.7799  17.7799
    17.7835  17.7853  17.7853  17.8429  17.8757  17.9139  17.9273  17.9273
    17.9800  17.9800  18.1126  18.1126  18.1679  18.2408  18.2408  18.2580
    18.2580  18.3665  18.5182  18.5182  18.5294  18.5294  18.5781  18.5781
    18.6772  18.6772  18.6790  18.6790  18.9156  18.9156  18.9758  18.9758
    19.2302  19.2302  19.3044  19.3044  19.3562  19.3563  19.4393  19.4393
    19.5271  19.5271  19.5575  19.5575  19.7750  19.8188  19.8188  19.9063
    20.0177  20.0177  20.0660  20.1590  20.1591  20.2236  20.2236  20.3496
    20.3746  20.3746  20.3826  20.3826  20.6257  20.6475  20.6476  20.6512
    20.6513  20.7292  20.8331  20.8331  20.8603  21.0131  21.0131  21.0547
    21.0584  21.0584  21.0638  21.0638  21.0692  21.1138  21.1138  21.1282
    21.1675  21.1962  21.3610  21.3674  21.4279  21.6292  21.6431  21.6431
    21.7433  21.7433  21.7674  21.7674  21.8257  21.8257  22.0649  22.0649
    22.1615  22.2905  22.4208  22.4643  22.4643  22.4835  22.4835  22.6391
    22.6601  22.6601  22.6665  22.6665  22.7056  22.7057  22.7747  22.8149
    22.8149  22.8372  22.8372  22.9442  22.9443  23.0395  23.0396  23.2309
    23.4799  23.4884  23.5833  23.5851  23.5851  23.5860  23.7239  23.7239
    23.9972  23.9972  24.1363  24.1363  24.1662  24.2099  24.2099  24.2104
    24.2272  24.2272  24.2518  24.2518  24.2970  24.2970  24.3638  24.8014
    24.8088  24.8088  24.8121  24.8132  24.8132  24.8173  24.8173  24.8986
    24.8986  25.0825  25.1291  25.1944  25.2246  25.2246  25.2521  25.2521
    25.2929  25.2929  25.5537  26.3525  26.3525  26.6089  26.7570  26.7570
    27.2056  27.2056  27.7324

          k = 0.1670 0.1670-0.5010 ( 29982 PWs)   bands (ev):

   -49.7097 -49.7095 -49.6425 -49.6425 -49.6423 -49.6423 -49.6031 -49.6029
   -49.5931 -49.5931 -49.5929 -49.5929 -49.5746 -49.5744 -49.5744 -49.5742
   -49.5611 -49.5610 -49.5543 -49.5541 -49.5434 -49.5434 -49.5432 -49.5432
   -49.5357 -49.5357 -49.5355 -49.5355 -49.5256 -49.5254 -49.5254 -49.5252
   -20.0714 -20.0714 -20.0456 -20.0455 -20.0454 -20.0453 -20.0040 -20.0040
   -20.0039 -20.0038 -19.9750 -19.9749 -19.9676 -19.9675 -19.9314 -19.9314
   -19.9313 -19.9313 -19.9085 -19.9085 -19.9084 -19.9084 -19.8506 -19.8506
   -19.8505 -19.8505 -19.7339 -19.7339 -19.7338 -19.7338 -19.6901 -19.6901
   -19.6900 -19.6900 -19.6479 -19.6479 -19.6477 -19.6477 -19.6182 -19.6182
   -19.6180 -19.6180 -19.4889 -19.4887 -19.4887 -19.4886 -19.4790 -19.4788
   -19.4664 -19.4663 -19.4506 -19.4504 -19.4376 -19.4376 -19.4374 -19.4374
   -19.4091 -19.4091 -19.4090 -19.4090 -19.4063 -19.4062 -19.4061 -19.4060
   -19.4033 -19.4033 -19.4032 -19.4032 -19.3533 -19.3532 -19.3306 -19.3306
   -19.3305 -19.3305 -19.3302 -19.3302 -19.3300 -19.3300 -19.3188 -19.3187
   -19.3162 -19.3160 -19.3033 -19.3032 -19.3031 -19.3030 -19.2478 -19.2476
   -19.2298 -19.2298 -19.2297 -19.2297 -19.1967 -19.1966 -19.1832 -19.1831
    16.4468  16.4470  17.6035  17.6037  17.6832  17.6833  17.6834  17.6835
    17.6999  17.6999  17.9394  17.9394  17.9396  17.9396  17.9889  17.9891
    17.9895  17.9895  17.9896  17.9896  18.1090  18.1090  18.2261  18.2261
    18.2263  18.2263  18.4109  18.4109  18.4110  18.4110  18.6022  18.6022
    18.6023  18.6023  18.8586  18.8586  18.8588  18.8588  19.1562  19.1562
    19.1562  19.1562  19.2553  19.2553  19.2555  19.2555  19.4038  19.4039
    19.4039  19.4039  19.6844  19.6844  19.6845  19.6845  19.9057  19.9058
    20.1187  20.1187  20.1188  20.1189  20.1443  20.1444  20.2504  20.2504
    20.2505  20.2505  20.6557  20.6557  20.6558  20.6558  20.6933  20.6934
    20.7023  20.7023  20.7023  20.7023  20.9302  20.9302  20.9302  20.9303
    21.0063  21.0063  21.2099  21.2100  21.2296  21.2297  21.2615  21.2615
    21.2615  21.2616  21.3845  21.3845  21.6364  21.6365  21.6365  21.6366
    21.6848  21.6848  21.7660  21.7660  21.7868  21.7868  21.7869  21.7870
    22.3944  22.3944  22.3944  22.3944  22.5745  22.5745  22.5746  22.5747
    22.5790  22.5792  22.6651  22.6652  22.6653  22.6653  22.7850  22.7850
    22.7851  22.7852  22.8362  22.8362  22.8363  22.8363  23.1289  23.1291
    23.3475  23.3477  23.8341  23.8341  23.8616  23.8616  23.8618  23.8618
    23.9155  23.9156  23.9157  23.9157  23.9158  23.9158  24.4806  24.4806
    24.4806  24.4807  24.5304  24.5304  24.5305  24.5305  24.5559  24.5559
    24.5559  24.5560  24.5650  24.5650  24.5651  24.5651  24.6114  24.6114
    24.9750  24.9750  25.2684  25.2685  25.2685  25.2687  25.3349  25.3351
    25.7857  25.7858  25.7858  25.7858  25.8969  25.8971  27.0014  27.0014
    27.0016  27.0016  28.2918

          k = 0.1670 0.2783 0.2783 ( 29992 PWs)   bands (ev):

   -49.7250 -49.6738 -49.6738 -49.6524 -49.6354 -49.6200 -49.6200 -49.6008
   -49.5990 -49.5837 -49.5837 -49.5807 -49.5807 -49.5758 -49.5684 -49.5683
   -49.5678 -49.5678 -49.5637 -49.5636 -49.5493 -49.5493 -49.5419 -49.5320
   -49.5320 -49.5315 -49.5315 -49.5300 -49.5300 -49.5271 -49.5271 -49.5257
   -20.1089 -20.1089 -20.0917 -20.0399 -20.0343 -20.0343 -20.0293 -19.9782
   -19.9782 -19.9661 -19.9661 -19.9385 -19.9385 -19.9340 -19.9340 -19.9261
   -19.9261 -19.9220 -19.9219 -19.9219 -19.9192 -19.9192 -19.8636 -19.8636
   -19.8283 -19.8283 -19.8240 -19.7352 -19.7148 -19.7148 -19.7132 -19.7027
   -19.7027 -19.6728 -19.6728 -19.6356 -19.6212 -19.6212 -19.5842 -19.5431
   -19.5431 -19.5396 -19.5396 -19.5357 -19.5357 -19.5278 -19.5278 -19.4810
   -19.4810 -19.4805 -19.4722 -19.4722 -19.4672 -19.4672 -19.4641 -19.4641
   -19.4495 -19.4495 -19.4286 -19.4286 -19.3922 -19.3922 -19.3867 -19.3806
   -19.3806 -19.3638 -19.3624 -19.3593 -19.3593 -19.3564 -19.3451 -19.3450
   -19.3441 -19.3441 -19.3427 -19.3356 -19.3356 -19.3115 -19.3115 -19.3095
   -19.3095 -19.3075 -19.2885 -19.2752 -19.2667 -19.2628 -19.2593 -19.2572
   -19.2572 -19.2300 -19.2300 -19.2255 -19.2255 -19.2113 -19.1685 -19.1548
    16.0594  17.2909  17.2909  17.3998  17.4055  17.4055  17.4561  17.6968
    17.7065  17.7872  17.7872  17.8621  17.8621  17.9305  18.0389  18.0390
    18.0578  18.0578  18.0686  18.1530  18.2133  18.2133  18.2862  18.2862
    18.4544  18.4544  18.5058  18.5058  18.5569  18.5569  18.5910  18.6222
    18.6222  18.6506  18.6506  18.7637  18.7637  18.8917  18.8917  18.9066
    18.9546  18.9546  19.2212  19.2212  19.4831  19.4831  19.5721  19.5924
    19.5924  19.5929  19.6604  19.6604  19.6998  19.6999  19.9329  19.9334
    19.9334  20.1319  20.1319  20.1936  20.1936  20.2755  20.3444  20.3444
    20.3959  20.3959  20.4485  20.5169  20.5169  20.5864  20.5864  20.7608
    20.7635  20.7882  20.7882  20.8303  20.9270  20.9341  20.9341  20.9791
    20.9989  20.9989  21.0079  21.0666  21.1162  21.1162  21.1312  21.1434
    21.1434  21.2317  21.3063  21.3063  21.4401  21.4401  21.6207  21.6253
    21.6253  21.7381  21.7700  21.7700  22.0087  22.0088  22.0538  22.0538
    22.1377  22.1377  22.1592  22.2228  22.2228  22.4388  22.5167  22.5264
    22.5400  22.5571  22.5571  22.6018  22.6018  22.8637  22.8637  22.9238
    23.0327  23.0457  23.0457  23.0928  23.0928  23.1228  23.1594  23.1594
    23.2534  23.2534  23.3160  23.4056  23.4056  23.7014  23.7014  23.9312
    23.9674  23.9674  24.0050  24.0051  24.2067  24.2067  24.2110  24.2210
    24.2808  24.2808  24.2835  24.2835  24.4416  24.4945  24.4945  24.5498
    24.6030  24.6170  24.9106  24.9515  24.9515  24.9747  24.9747  25.0286
    25.0670  25.0670  25.0690  25.0690  25.1469  25.1469  25.2451  25.2451
    25.2467  25.2467  25.2686  26.4244  26.8250  26.8250  27.2888  27.2888
    27.5373  27.5373  27.8981

          k = 0.1670 0.2783 0.3897 ( 29986 PWs)   bands (ev):

   -49.7158 -49.6898 -49.6669 -49.6474 -49.6465 -49.6301 -49.6165 -49.6068
   -49.5957 -49.5864 -49.5809 -49.5798 -49.5773 -49.5731 -49.5676 -49.5665
   -49.5644 -49.5620 -49.5563 -49.5536 -49.5526 -49.5437 -49.5413 -49.5373
   -49.5373 -49.5369 -49.5347 -49.5316 -49.5306 -49.5297 -49.5266 -49.5259
   -20.0912 -20.0826 -20.0595 -20.0243 -20.0186 -20.0167 -20.0083 -20.0044
   -19.9845 -19.9775 -19.9686 -19.9678 -19.9677 -19.9600 -19.9448 -19.9424
   -19.9382 -19.9341 -19.9194 -19.9182 -19.9168 -19.9085 -19.9073 -19.8804
   -19.8777 -19.8510 -19.7813 -19.7321 -19.7313 -19.6895 -19.6829 -19.6819
   -19.6811 -19.6596 -19.6480 -19.6440 -19.6350 -19.6143 -19.5765 -19.5762
   -19.5756 -19.5691 -19.5550 -19.5218 -19.5051 -19.4904 -19.4777 -19.4739
   -19.4724 -19.4652 -19.4647 -19.4633 -19.4599 -19.4484 -19.4468 -19.4397
   -19.4355 -19.4322 -19.4280 -19.4272 -19.4233 -19.4204 -19.4093 -19.3966
   -19.3837 -19.3805 -19.3800 -19.3687 -19.3681 -19.3607 -19.3541 -19.3507
   -19.3391 -19.3385 -19.3321 -19.3311 -19.3262 -19.3251 -19.3222 -19.3203
   -19.3199 -19.3117 -19.3106 -19.2864 -19.2761 -19.2746 -19.2515 -19.2495
   -19.2357 -19.2294 -19.2291 -19.2124 -19.2040 -19.1980 -19.1841 -19.1618
    16.2898  16.9243  17.4437  17.5371  17.5411  17.5444  17.5702  17.7670
    17.8284  17.8440  17.8455  17.8848  17.9404  17.9511  17.9581  17.9724
    17.9796  18.0261  18.0521  18.1322  18.1756  18.2000  18.2043  18.2662
    18.2987  18.3610  18.3746  18.4218  18.4284  18.4530  18.5490  18.5791
    18.5904  18.6179  18.6618  18.6739  18.6971  18.7072  18.7370  18.9635
    19.1036  19.1438  19.2099  19.2171  19.2464  19.2607  19.4182  19.4543
    19.4659  19.6450  19.7171  19.7420  19.7613  19.7679  19.8989  19.9360
    19.9427  20.0090  20.0404  20.1649  20.2092  20.3261  20.3532  20.4899
    20.4974  20.5065  20.5359  20.6808  20.7081  20.7791  20.7842  20.7936
    20.8364  20.8642  20.8962  20.9172  20.9333  20.9349  20.9788  21.0167
    21.0233  21.0757  21.0908  21.1027  21.1884  21.2122  21.2305  21.2590
    21.2851  21.2994  21.3116  21.3307  21.4118  21.4995  21.5547  21.5997
    21.6049  21.6430  21.6913  21.7203  21.7397  21.7933  21.8458  21.8495
    21.9086  21.9965  22.1186  22.1897  22.2604  22.3511  22.3742  22.5193
    22.5231  22.6172  22.6301  22.6889  22.7530  22.7587  22.7787  22.7908
    22.8163  22.8563  22.9911  23.0130  23.0455  23.0766  23.1669  23.1949
    23.2051  23.4180  23.4296  23.4471  23.5078  23.5577  23.8594  23.9928
    24.0470  24.0757  24.0791  24.0959  24.1442  24.1518  24.2908  24.3666
    24.3821  24.4079  24.4601  24.4777  24.4781  24.4990  24.5003  24.5200
    24.6837  24.7771  24.7957  24.8191  24.8221  24.8428  24.8527  24.8887
    24.9090  24.9453  25.0884  25.0974  25.0977  25.1312  25.1598  25.1934
    25.2028  25.7548  25.7598  26.2786  26.4503  26.7040  26.9623  27.2040
    27.5292  27.9081  28.0537

          k = 0.1670 0.2783-0.5010 ( 29996 PWs)   bands (ev):

   -49.7040 -49.7038 -49.6580 -49.6579 -49.6391 -49.6389 -49.6122 -49.6120
   -49.5915 -49.5913 -49.5787 -49.5785 -49.5775 -49.5773 -49.5654 -49.5653
   -49.5570 -49.5568 -49.5534 -49.5532 -49.5459 -49.5457 -49.5448 -49.5447
   -49.5389 -49.5387 -49.5333 -49.5331 -49.5312 -49.5310 -49.5264 -49.5262
   -20.0626 -20.0626 -20.0484 -20.0483 -20.0207 -20.0206 -19.9943 -19.9942
   -19.9917 -19.9915 -19.9655 -19.9654 -19.9606 -19.9605 -19.9546 -19.9546
   -19.9417 -19.9416 -19.9339 -19.9338 -19.9156 -19.9155 -19.8930 -19.8929
   -19.8801 -19.8800 -19.7384 -19.7383 -19.7316 -19.7315 -19.6711 -19.6710
   -19.6471 -19.6470 -19.6293 -19.6292 -19.6170 -19.6170 -19.6114 -19.6112
   -19.6000 -19.5999 -19.4949 -19.4947 -19.4911 -19.4910 -19.4756 -19.4755
   -19.4744 -19.4742 -19.4673 -19.4673 -19.4468 -19.4468 -19.4450 -19.4448
   -19.4158 -19.4156 -19.4156 -19.4154 -19.4081 -19.4080 -19.3995 -19.3993
   -19.3962 -19.3962 -19.3955 -19.3954 -19.3909 -19.3909 -19.3667 -19.3666
   -19.3345 -19.3344 -19.3315 -19.3313 -19.3272 -19.3270 -19.3118 -19.3117
   -19.3065 -19.3064 -19.2977 -19.2975 -19.2973 -19.2972 -19.2430 -19.2428
   -19.2364 -19.2363 -19.2047 -19.2046 -19.2046 -19.2045 -19.1764 -19.1763
    16.5828  16.5831  17.6325  17.6327  17.6676  17.6676  17.7105  17.7106
    17.7292  17.7293  17.7805  17.7807  17.8531  17.8532  17.9949  17.9949
    18.1186  18.1188  18.1369  18.1369  18.1970  18.1970  18.2718  18.2719
    18.2946  18.2947  18.3451  18.3452  18.3484  18.3484  18.3811  18.3812
    18.5831  18.5832  18.6098  18.6098  18.7539  18.7541  18.9401  18.9401
    19.0743  19.0745  19.2571  19.2572  19.2782  19.2782  19.3463  19.3463
    19.4236  19.4236  19.7724  19.7725  19.8395  19.8395  19.8810  19.8812
    19.9484  19.9485  20.1291  20.1292  20.1496  20.1497  20.5035  20.5036
    20.5598  20.5599  20.7151  20.7151  20.7755  20.7757  20.7770  20.7771
    20.8996  20.8996  20.9134  20.9135  21.0088  21.0089  21.0374  21.0375
    21.0971  21.0971  21.1994  21.1994  21.2056  21.2057  21.2311  21.2313
    21.3079  21.3080  21.4450  21.4450  21.5062  21.5063  21.5392  21.5393
    21.5675  21.5676  21.5873  21.5873  21.5968  21.5969  21.6336  21.6336
    22.1535  22.1535  22.2278  22.2279  22.2584  22.2584  22.4801  22.4802
    22.5801  22.5803  22.5861  22.5862  22.6288  22.6290  22.6292  22.6294
    22.8300  22.8302  22.8867  22.8869  23.0616  23.0618  23.1483  23.1485
    23.3398  23.3400  23.7347  23.7349  23.7543  23.7544  23.7879  23.7879
    23.8501  23.8503  24.1376  24.1377  24.2202  24.2203  24.3180  24.3182
    24.3885  24.3885  24.5817  24.5819  24.6268  24.6269  24.6602  24.6603
    24.6619  24.6620  24.7117  24.7117  24.7309  24.7310  24.7442  24.7442
    24.8928  24.8929  24.9787  24.9787  25.1396  25.1397  25.1429  25.1430
    25.7207  25.7207  26.3647  26.3647  26.4690  26.4691  26.5648  26.5650
    27.7433  27.7435  28.7243

          k = 0.1670 0.3897 0.3897 ( 29979 PWs)   bands (ev):

   -49.7070 -49.6821 -49.6821 -49.6606 -49.6411 -49.6259 -49.6259 -49.6140
   -49.5928 -49.5847 -49.5847 -49.5801 -49.5655 -49.5655 -49.5599 -49.5599
   -49.5594 -49.5593 -49.5551 -49.5551 -49.5478 -49.5478 -49.5405 -49.5405
   -49.5401 -49.5400 -49.5382 -49.5382 -49.5340 -49.5285 -49.5285 -49.5266
   -20.0696 -20.0696 -20.0273 -20.0116 -20.0116 -20.0053 -20.0053 -19.9988
   -19.9932 -19.9932 -19.9696 -19.9696 -19.9617 -19.9617 -19.9485 -19.9485
   -19.9465 -19.9465 -19.9379 -19.9323 -19.9323 -19.9234 -19.9234 -19.9213
   -19.8824 -19.8327 -19.8327 -19.7369 -19.7302 -19.7070 -19.7070 -19.6457
   -19.6350 -19.6350 -19.6254 -19.6080 -19.6080 -19.5820 -19.5820 -19.5457
   -19.5457 -19.5415 -19.5415 -19.5343 -19.5343 -19.5113 -19.5113 -19.4838
[...]
   -19.4208 -19.4208 -19.4207 -19.4207 -19.3751 -19.3751 -19.3750 -19.3750
   -19.3749 -19.3749 -19.3749 -19.3749 -19.3586 -19.3586 -19.3586 -19.3586
   -19.2472 -19.2472 -19.2472 -19.2472 -19.2287 -19.2286 -19.2286 -19.2285
   -19.2266 -19.2265 -19.2265 -19.2263 -19.1831 -19.1831 -19.1831 -19.1831
    17.0886  17.0889  17.0889  17.0890  17.5554  17.5555  17.5555  17.5556
    18.0038  18.0038  18.0039  18.0039  18.0524  18.0524  18.0524  18.0524
    18.0526  18.0526  18.0526  18.0526  18.1374  18.1374  18.1374  18.1374
    18.3304  18.3305  18.3305  18.3305  18.3306  18.3306  18.3306  18.3306
    18.7273  18.7273  18.7273  18.7273  18.7275  18.7275  18.7275  18.7275
    18.8910  18.8910  18.8910  18.8910  19.4615  19.4615  19.4617  19.4617
    19.4617  19.4617  19.4618  19.4618  19.6438  19.6439  19.6440  19.6441
    20.1916  20.1916  20.1916  20.1916  20.6793  20.6793  20.6793  20.6794
    20.9340  20.9340  20.9340  20.9340  21.0086  21.0087  21.0087  21.0087
    21.0518  21.0518  21.0518  21.0518  21.0518  21.0518  21.0519  21.0519
    21.1720  21.1720  21.1720  21.1721  21.1979  21.1980  21.1980  21.1981
    21.2487  21.2487  21.2487  21.2488  21.4697  21.4697  21.4697  21.4697
    21.4698  21.4698  21.4699  21.4699  21.6111  21.6111  21.6112  21.6112
    21.9452  21.9452  21.9452  21.9453  22.1364  22.1364  22.1365  22.1365
    22.1365  22.1365  22.1366  22.1366  22.7711  22.7712  22.7712  22.7714
    23.0394  23.0395  23.0395  23.0397  23.0911  23.0911  23.0912  23.0912
    23.0912  23.0913  23.0913  23.0913  23.4830  23.4831  23.4831  23.4832
    23.4984  23.4985  23.4985  23.4986  23.9258  23.9259  23.9259  23.9260
    24.9403  24.9403  24.9403  24.9403  24.9404  24.9404  24.9404  24.9404
    24.9782  24.9783  24.9783  24.9783  25.0051  25.0051  25.0051  25.0052
    25.0052  25.0052  25.0053  25.0053  25.0552  25.0553  25.0553  25.0554
    26.6499  26.6501  26.6501  26.6502  27.9505  27.9506  27.9506  27.9506
    27.9507  27.9507  27.9508

          k = 0.3897 0.3897 0.3897 ( 29983 PWs)   bands (ev):

   -49.6933 -49.6705 -49.6705 -49.6705 -49.6509 -49.6509 -49.6509 -49.6348
   -49.5634 -49.5633 -49.5633 -49.5598 -49.5598 -49.5597 -49.5597 -49.5597
   -49.5597 -49.5594 -49.5594 -49.5593 -49.5435 -49.5435 -49.5435 -49.5405
   -49.5405 -49.5404 -49.5402 -49.5402 -49.5402 -49.5401 -49.5401 -49.5400
   -20.0343 -20.0343 -20.0343 -19.9970 -19.9970 -19.9970 -19.9862 -19.9862
   -19.9862 -19.9814 -19.9814 -19.9814 -19.9814 -19.9814 -19.9814 -19.9768
   -19.9768 -19.9768 -19.9768 -19.9768 -19.9768 -19.9496 -19.9496 -19.9496
   -19.8380 -19.7241 -19.7241 -19.7241 -19.6140 -19.6140 -19.6140 -19.6140
   -19.6140 -19.6140 -19.6082 -19.6082 -19.6082 -19.6056 -19.6056 -19.6056
   -19.5813 -19.5813 -19.5813 -19.5056 -19.5056 -19.5056 -19.5056 -19.5056
   -19.5056 -19.4878 -19.4878 -19.4878 -19.4873 -19.4752 -19.4752 -19.4752
   -19.4358 -19.4358 -19.4358 -19.4169 -19.4169 -19.4169 -19.4169 -19.4169
   -19.4169 -19.3987 -19.3987 -19.3986 -19.3822 -19.3822 -19.3822 -19.3775
   -19.3774 -19.3774 -19.3774 -19.3774 -19.3774 -19.3559 -19.3559 -19.3559
   -19.2526 -19.2525 -19.2525 -19.2332 -19.2332 -19.2237 -19.2237 -19.2237
   -19.2069 -19.2069 -19.2069 -19.2033 -19.2032 -19.2032 -19.1858 -19.1858
    16.7933  17.2518  17.2518  17.2518  17.4845  17.4986  17.4986  17.4986
    17.8424  17.8424  17.8424  18.0678  18.0678  18.0678  18.1496  18.1496
    18.1496  18.1594  18.1595  18.1595  18.1595  18.1595  18.1595  18.2515
    18.2515  18.2515  18.2515  18.2515  18.2515  18.2800  18.2800  18.2800
    18.5360  18.5360  18.5360  18.9114  18.9114  18.9114  19.0161  19.0161
    19.0161  19.0161  19.0161  19.0161  19.3742  19.3742  19.3742  19.3826
    19.3826  19.3826  19.3826  19.3826  19.3826  19.6860  19.6860  19.6860
    20.2148  20.2148  20.2148  20.3026  20.4939  20.4939  20.4940  20.9124
    20.9124  20.9124  20.9124  20.9124  20.9124  21.0111  21.0111  21.1064
    21.1064  21.1065  21.1558  21.1558  21.1593  21.1593  21.1593  21.1729
    21.1729  21.1729  21.1848  21.1848  21.1848  21.1955  21.2229  21.2229
    21.2229  21.2586  21.2586  21.2586  21.2586  21.2586  21.2586  21.2622
    21.2622  21.2622  21.3698  21.3698  21.3698  21.7889  21.7889  21.7889
    21.9999  21.9999  21.9999  22.3176  22.3176  22.3176  22.3176  22.3176
    22.3176  22.3186  22.3187  22.3187  22.6580  22.6581  22.6581  22.8472
    22.8472  22.8472  22.8472  22.8472  22.8472  22.9636  22.9636  22.9637
    23.0565  23.0565  23.0929  23.0929  23.0929  23.2481  23.2481  23.2481
    23.5309  23.5309  23.5309  23.7647  23.7647  23.9332  23.9332  23.9332
    24.8923  24.8923  24.8923  24.9464  24.9464  24.9464  24.9464  24.9464
    24.9464  25.0154  25.0154  25.0154  25.0154  25.0154  25.0154  25.0823
    25.0823  25.0823  25.0988  25.0988  25.0988  25.1931  25.1931  25.1931
    26.8673  26.8673  26.8673  27.7774  27.7774  27.7774  27.7774  27.7774
    27.7774  28.0563  28.0563

          k = 0.3897 0.3897-0.5010 ( 29990 PWs)   bands (ev):

   -49.6830 -49.6828 -49.6616 -49.6616 -49.6615 -49.6614 -49.6437 -49.6435
   -49.5618 -49.5618 -49.5616 -49.5616 -49.5598 -49.5596 -49.5596 -49.5594
   -49.5510 -49.5509 -49.5508 -49.5507 -49.5492 -49.5492 -49.5490 -49.5490
   -49.5418 -49.5418 -49.5416 -49.5416 -49.5405 -49.5403 -49.5403 -49.5401
   -20.0210 -20.0210 -20.0091 -20.0090 -20.0090 -20.0089 -19.9870 -19.9870
   -19.9869 -19.9869 -19.9835 -19.9835 -19.9834 -19.9834 -19.9816 -19.9815
   -19.9815 -19.9814 -19.9715 -19.9714 -19.9657 -19.9657 -19.9656 -19.9656
   -19.7815 -19.7814 -19.6658 -19.6658 -19.6658 -19.6658 -19.6120 -19.6120
   -19.6120 -19.6120 -19.5988 -19.5987 -19.5987 -19.5987 -19.5599 -19.5599
   -19.5598 -19.5598 -19.5465 -19.5464 -19.5391 -19.5391 -19.5368 -19.5367
   -19.4951 -19.4951 -19.4949 -19.4949 -19.4886 -19.4886 -19.4886 -19.4886
   -19.4254 -19.4253 -19.4252 -19.4252 -19.4189 -19.4187 -19.3993 -19.3993
   -19.3991 -19.3991 -19.3986 -19.3986 -19.3985 -19.3985 -19.3884 -19.3884
   -19.3884 -19.3884 -19.3703 -19.3701 -19.3674 -19.3674 -19.3674 -19.3673
   -19.2384 -19.2384 -19.2337 -19.2337 -19.2336 -19.2336 -19.2190 -19.2188
   -19.2036 -19.2036 -19.2036 -19.2036 -19.2032 -19.2030 -19.1900 -19.1900
    17.0068  17.0070  17.3655  17.3655  17.3657  17.3657  17.4790  17.4791
    17.9598  17.9600  17.9782  17.9782  17.9783  17.9783  18.1432  18.1432
    18.1432  18.1432  18.1890  18.1890  18.1891  18.1891  18.2042  18.2042
    18.2042  18.2042  18.2219  18.2219  18.2220  18.2220  18.2355  18.2357
    18.7011  18.7013  18.7771  18.7771  18.7771  18.7771  19.1593  19.1593
    19.1593  19.1593  19.1709  19.1709  19.1711  19.1711  19.2080  19.2080
    19.2080  19.2081  19.5002  19.5004  19.5549  19.5550  19.5550  19.5551
    20.2807  20.2807  20.3675  20.3675  20.3675  20.3676  20.8460  20.8460
    21.0540  21.0540  21.0540  21.0541  21.0732  21.0734  21.0765  21.0766
    21.0779  21.0779  21.0780  21.0780  21.1297  21.1297  21.1297  21.1297
    21.1398  21.1398  21.1398  21.1398  21.1763  21.1763  21.1814  21.1815
    21.1944  21.1945  21.2124  21.2124  21.2125  21.2125  21.2157  21.2157
    21.2157  21.2158  21.6382  21.6382  21.6383  21.6383  21.6885  21.6887
    22.0193  22.0193  22.0194  22.0194  22.0459  22.0460  22.4620  22.4621
    22.4622  22.4622  22.5563  22.5563  22.5564  22.5564  22.5865  22.5865
    22.5866  22.5866  22.9533  22.9533  22.9656  22.9658  23.0311  23.0312
    23.0312  23.0313  23.0595  23.0595  23.0596  23.0597  23.2806  23.2807
    23.4291  23.4291  23.6569  23.6570  23.6570  23.6571  23.8198  23.8200
    24.9817  24.9817  24.9817  24.9817  25.0137  25.0137  25.0138  25.0138
    25.0172  25.0173  25.0654  25.0654  25.0656  25.0656  25.0718  25.0718
    25.0718  25.0719  25.1245  25.1246  25.1246  25.1247  25.1741  25.1741
    27.2988  27.2988  27.2989  27.2989  27.7534  27.7536  27.9008  27.9009
    27.9010  27.9010  28.6941

          k = 0.3897-0.5010-0.5010 ( 29984 PWs)   bands (ev):

   -49.6733 -49.6732 -49.6732 -49.6730 -49.6535 -49.6533 -49.6533 -49.6531
   -49.5609 -49.5607 -49.5607 -49.5605 -49.5503 -49.5503 -49.5501 -49.5501
   -49.5501 -49.5501 -49.5500 -49.5500 -49.5499 -49.5499 -49.5498 -49.5498
   -49.5498 -49.5498 -49.5496 -49.5496 -49.5411 -49.5409 -49.5409 -49.5407
   -20.0030 -20.0030 -20.0030 -20.0030 -20.0029 -20.0029 -20.0029 -20.0029
   -19.9880 -19.9879 -19.9879 -19.9878 -19.9841 -19.9839 -19.9839 -19.9838
   -19.9776 -19.9776 -19.9776 -19.9776 -19.9775 -19.9775 -19.9774 -19.9774
   -19.7237 -19.7236 -19.7236 -19.7235 -19.6075 -19.6074 -19.6074 -19.6074
   -19.6054 -19.6053 -19.6053 -19.6053 -19.5497 -19.5497 -19.5497 -19.5497
   -19.5497 -19.5497 -19.5496 -19.5496 -19.5483 -19.5483 -19.5482 -19.5482
   -19.5482 -19.5482 -19.5481 -19.5481 -19.4901 -19.4900 -19.4900 -19.4900
   -19.4107 -19.4107 -19.4107 -19.4107 -19.4087 -19.4087 -19.4087 -19.4087
   -19.4085 -19.4085 -19.4085 -19.4085 -19.3845 -19.3845 -19.3845 -19.3845
   -19.3843 -19.3843 -19.3843 -19.3843 -19.3784 -19.3784 -19.3784 -19.3784
   -19.2273 -19.2273 -19.2273 -19.2273 -19.2145 -19.2143 -19.2143 -19.2143
   -19.2142 -19.2142 -19.2141 -19.2140 -19.1947 -19.1947 -19.1947 -19.1947
    17.1740  17.1742  17.1742  17.1743  17.4123  17.4124  17.4124  17.4126
    18.0704  18.0704  18.0704  18.0704  18.0706  18.0706  18.0706  18.0706
    18.0707  18.0707  18.0707  18.0707  18.1526  18.1526  18.1526  18.1526
    18.2165  18.2165  18.2165  18.2165  18.2166  18.2166  18.2166  18.2167
    18.9429  18.9429  18.9429  18.9429  18.9431  18.9431  18.9431  18.9431
    19.0018  19.0019  19.0019  19.0019  19.3527  19.3527  19.3528  19.3528
    19.3529  19.3529  19.3530  19.3530  19.3800  19.3801  19.3801  19.3802
    20.3440  20.3440  20.3440  20.3440  20.6214  20.6214  20.6214  20.6214
    21.0810  21.0811  21.0811  21.0811  21.0985  21.0985  21.0986  21.0986
    21.1255  21.1255  21.1256  21.1256  21.1256  21.1256  21.1257  21.1257
    21.1374  21.1375  21.1375  21.1375  21.1724  21.1725  21.1725  21.1726
    21.1822  21.1823  21.1823  21.1823  21.3828  21.3828  21.3829  21.3829
    21.3830  21.3830  21.3830  21.3830  21.4418  21.4419  21.4419  21.4419
    22.2017  22.2018  22.2018  22.2019  22.2834  22.2834  22.2834  22.2834
    22.2834  22.2834  22.2835  22.2835  22.7471  22.7471  22.7472  22.7472
    22.7472  22.7472  22.7473  22.7473  22.7635  22.7636  22.7636  22.7637
    23.0298  23.0299  23.0299  23.0300  23.3225  23.3226  23.3226  23.3226
    23.3979  23.3980  23.3980  23.3981  23.6212  23.6213  23.6214  23.6215
    25.0583  25.0583  25.0583  25.0583  25.0583  25.0583  25.0583  25.0584
    25.0800  25.0801  25.0801  25.0802  25.1263  25.1263  25.1263  25.1263
    25.1264  25.1264  25.1264  25.1264  25.1275  25.1276  25.1276  25.1276
    27.5691  27.5692  27.5692  27.5693  28.2120  28.2120  28.2121  28.2121
    28.2121  28.2122  28.2122

          k =-0.5010-0.5010-0.5010 ( 29992 PWs)   bands (ev):

   -49.6644 -49.6642 -49.6642 -49.6642 -49.6640 -49.6640 -49.6640 -49.6638
   -49.5504 -49.5503 -49.5502 -49.5501 -49.5501 -49.5501 -49.5501 -49.5501
   -49.5500 -49.5500 -49.5500 -49.5500 -49.5499 -49.5499 -49.5499 -49.5499
   -49.5498 -49.5498 -49.5497 -49.5497 -49.5497 -49.5497 -49.5496 -49.5495
   -19.9906 -19.9906 -19.9906 -19.9906 -19.9905 -19.9905 -19.9905 -19.9905
   -19.9905 -19.9905 -19.9904 -19.9904 -19.9904 -19.9903 -19.9903 -19.9903
   -19.9903 -19.9903 -19.9903 -19.9902 -19.9902 -19.9902 -19.9902 -19.9902
   -19.6641 -19.6641 -19.6641 -19.6640 -19.6640 -19.6640 -19.6640 -19.6639
   -19.5495 -19.5494 -19.5494 -19.5494 -19.5494 -19.5494 -19.5494 -19.5493
   -19.5493 -19.5493 -19.5493 -19.5493 -19.5493 -19.5493 -19.5493 -19.5493
   -19.5493 -19.5492 -19.5492 -19.5492 -19.5492 -19.5492 -19.5492 -19.5492
   -19.3961 -19.3961 -19.3961 -19.3961 -19.3961 -19.3961 -19.3961 -19.3961
   -19.3960 -19.3960 -19.3960 -19.3960 -19.3959 -19.3959 -19.3959 -19.3959
   -19.3959 -19.3959 -19.3959 -19.3959 -19.3958 -19.3958 -19.3958 -19.3958
   -19.2097 -19.2097 -19.2097 -19.2097 -19.2097 -19.2097 -19.2097 -19.2097
   -19.2095 -19.2095 -19.2095 -19.2095 -19.2095 -19.2094 -19.2094 -19.2094
    17.2831  17.2833  17.2833  17.2833  17.2835  17.2835  17.2835  17.2836
    18.1264  18.1264  18.1264  18.1264  18.1264  18.1264  18.1264  18.1264
    18.1264  18.1265  18.1265  18.1265  18.1265  18.1266  18.1266  18.1266
    18.1266  18.1266  18.1266  18.1266  18.1266  18.1266  18.1266  18.1266
    19.1637  19.1638  19.1638  19.1638  19.1639  19.1639  19.1639  19.1639
    19.1639  19.1639  19.1639  19.1639  19.1640  19.1640  19.1640  19.1640
    19.1640  19.1640  19.1641  19.1641  19.1641  19.1641  19.1641  19.1641
    20.5013  20.5013  20.5013  20.5013  20.5013  20.5013  20.5013  20.5014
    21.1422  21.1422  21.1422  21.1423  21.1423  21.1423  21.1423  21.1423
    21.1423  21.1423  21.1424  21.1424  21.1424  21.1424  21.1424  21.1424
    21.2570  21.2571  21.2571  21.2571  21.2571  21.2571  21.2571  21.2571
    21.2571  21.2571  21.2572  21.2572  21.2572  21.2572  21.2572  21.2572
    21.2572  21.2572  21.2572  21.2572  21.2573  21.2573  21.2573  21.2573
    22.4782  22.4782  22.4783  22.4783  22.4783  22.4783  22.4783  22.4784
    22.4784  22.4784  22.4784  22.4784  22.4784  22.4784  22.4784  22.4784
    22.4785  22.4785  22.4785  22.4785  22.4785  22.4785  22.4786  22.4786
    23.3182  23.3183  23.3183  23.3183  23.3183  23.3184  23.3184  23.3184
    23.3184  23.3184  23.3184  23.3185  23.3185  23.3185  23.3185  23.3186
    25.1343  25.1343  25.1343  25.1343  25.1344  25.1344  25.1344  25.1344
    25.1344  25.1344  25.1344  25.1344  25.1345  25.1345  25.1345  25.1345
    25.1345  25.1345  25.1345  25.1345  25.1345  25.1346  25.1346  25.1346
    28.5339  28.5340  28.5340  28.5340  28.5340  28.5340  28.5341  28.5341
    28.5341  28.5341  28.5342

     the Fermi energy is    23.2852 ev

!    total energy              =  -13813.29941887 Ry

     total all-electron energy =   -289989.689758 Ry
     estimated scf accuracy    <       0.00000015 Ry
     smearing contrib. (-TS)   =       0.02091420 Ry
     internal energy E=F+TS    =  -13813.32033306 Ry

     The total energy is F=E-TS. E is the sum of the following terms:
     one-electron contribution =    -980.30140574 Ry
     hartree contribution      =     911.47452470 Ry
     xc contribution           =    -928.30277481 Ry
     ewald contribution        =   -5226.73902123 Ry
     one-center paw contrib.   =   -7589.45165599 Ry

     convergence has been achieved in  13 iterations

     Forces acting on atoms (cartesian axes, Ry/au):

     atom    1 type  1   force =     0.00000000    0.00000000    0.00000000
     atom    2 type  1   force =    -0.00000119   -0.00000119    0.00000000
     atom    3 type  1   force =    -0.00000119    0.00000000   -0.00000119
     atom    4 type  1   force =    -0.00000000   -0.00000119   -0.00000119
     atom    5 type  1   force =     0.00000000    0.00000000    0.00000000
     atom    6 type  1   force =    -0.00000142   -0.00000142    0.00000000
     atom    7 type  1   force =    -0.00000119   -0.00000000    0.00000119
     atom    8 type  1   force =    -0.00000000   -0.00000119    0.00000119
     atom    9 type  1   force =     0.00000000    0.00000000    0.00000000
     atom   10 type  1   force =    -0.00000119    0.00000119    0.00000000
     atom   11 type  1   force =    -0.00000142    0.00000000   -0.00000142
     atom   12 type  1   force =     0.00000000    0.00000119   -0.00000119
     atom   13 type  1   force =     0.00000000    0.00000000    0.00000000
     atom   14 type  1   force =    -0.00000142    0.00000142   -0.00000000
     atom   15 type  1   force =    -0.00000142    0.00000000    0.00000142
     atom   16 type  1   force =    -0.00000000    0.00000119    0.00000119
     atom   17 type  1   force =     0.00000000    0.00000000    0.00000000
     atom   18 type  1   force =     0.00000119   -0.00000119    0.00000000
     atom   19 type  1   force =     0.00000119   -0.00000000   -0.00000119
     atom   20 type  1   force =     0.00000000   -0.00000142   -0.00000142
     atom   21 type  1   force =     0.00000000    0.00000000    0.00000000
     atom   22 type  1   force =     0.00000142   -0.00000142   -0.00000000
     atom   23 type  1   force =     0.00000119   -0.00000000    0.00000119
     atom   24 type  1   force =    -0.00000000   -0.00000142    0.00000142
     atom   25 type  1   force =     0.00000000    0.00000000    0.00000000
     atom   26 type  1   force =     0.00000119    0.00000119    0.00000000
     atom   27 type  1   force =     0.00000142    0.00000000   -0.00000142
     atom   28 type  1   force =    -0.00000000    0.00000142   -0.00000142
     atom   29 type  1   force =     0.00000000    0.00000000    0.00000000
     atom   30 type  1   force =     0.00000142    0.00000142    0.00000000
     atom   31 type  1   force =     0.00000142    0.00000000    0.00000142
     atom   32 type  1   force =     0.00000000    0.00000142    0.00000142

     Total force =     0.000009     Total SCF correction =     0.000137
     SCF correction compared to forces is large: reduce conv_thr to get better values


     Computing stress (Cartesian axis) and pressure

          total   stress  (Ry/bohr**3)                   (kbar)     P=       15.01
   0.00010201   0.00000000   0.00000000           15.01        0.00        0.00
   0.00000000   0.00010201   0.00000000            0.00       15.01        0.00
   0.00000000   0.00000000   0.00010201            0.00        0.00       15.01


     Writing output data file /scratch/TBwGoyKyRYjLEiIH.save/
 
     init_run     :     15.04s CPU     15.28s WALL (       1 calls)
     electrons    :    586.19s CPU    595.24s WALL (       1 calls)
     forces       :      5.19s CPU      5.25s WALL (       1 calls)
     stress       :     30.79s CPU     31.12s WALL (       1 calls)

     Called by init_run:
     wfcinit      :     14.01s CPU     14.21s WALL (       1 calls)
     potinit      :      0.17s CPU      0.17s WALL (       1 calls)
     hinit0       :      0.43s CPU      0.44s WALL (       1 calls)

     Called by electrons:
     c_bands      :    524.70s CPU    532.17s WALL (      14 calls)
     sum_band     :     59.12s CPU     60.32s WALL (      14 calls)
     v_of_rho     :      0.71s CPU      0.84s WALL (      14 calls)
     newd         :      0.34s CPU      0.44s WALL (      14 calls)
     PAW_pot      :      1.19s CPU      1.28s WALL (      14 calls)
     mix_rho      :      0.21s CPU      0.23s WALL (      14 calls)

     Called by c_bands:
     init_us_2    :      1.98s CPU      2.03s WALL (    1085 calls)
     cegterg      :    517.15s CPU    524.28s WALL (     490 calls)

     Called by *egterg:
     cdiaghg      :     68.32s CPU     69.26s WALL (    1875 calls)
     h_psi        :    257.13s CPU    261.10s WALL (    1945 calls)
     s_psi        :     17.91s CPU     18.05s WALL (    1945 calls)
     g_psi        :      0.51s CPU      0.52s WALL (    1420 calls)

     Called by h_psi:
     h_psi:calbec :     36.01s CPU     36.26s WALL (    1945 calls)
     vloc_psi     :    203.04s CPU    206.28s WALL (    1945 calls)
     add_vuspsi   :     16.88s CPU     17.35s WALL (    1945 calls)

     General routines
     calbec       :     54.75s CPU     55.13s WALL (    2610 calls)
     fft          :      0.83s CPU      0.97s WALL (     206 calls)
     ffts         :      0.02s CPU      0.02s WALL (      28 calls)
     fftw         :    237.37s CPU    241.11s WALL (  929202 calls)
     interpolate  :      0.03s CPU      0.04s WALL (      14 calls)
 
     Parallel routines
     fft_scatt_xy :     15.94s CPU     16.19s WALL (  929436 calls)
     fft_scatt_yz :    194.60s CPU    197.84s WALL (  929436 calls)
 
     PWSCF        :  10m46.98s CPU  10m58.40s WALL

 
   This run was terminated on:  12:28:26  23Nov2021            

=------------------------------------------------------------------------------=
   JOB DONE.
=------------------------------------------------------------------------------=
