
     Program PWSCF v.6.7MaX starts on 23Nov2021 at 11:44:17 

     This program is part of the open-source Quantum ESPRESSO suite
     for quantum simulation of materials; please cite
         "P. Giannozzi et al., J. Phys.:Condens. Matter 21 395502 (2009);
         "P. Giannozzi et al., J. Phys.:Condens. Matter 29 465901 (2017);
          URL http://www.quantum-espresso.org", 
     in publications or presentations arising from this work. More details at
     http://www.quantum-espresso.org/quote

     Parallel version (MPI & OpenMP), running on      72 processor cores
     Number of MPI processes:                72
     Threads/MPI process:                     1

     MPI processes distributed on     1 nodes
     R & G space division:  proc/nbgrp/npool/nimage =      72
     Reading input from /rds/homes/b/bxp912/jobs/20211014_ru_eos/wd/eos/eos_001.in
Warning: card &CELL ignored
Warning: card CELL_DYNAMICS = 'BFGS', ignored
Warning: card CELL_FACTOR = 2.0, ignored
Warning: card PRESS = 0.0, ignored
Warning: card / ignored

     Current dimensions of program PWSCF are:
     Max number of different atomic species (ntypx) = 10
     Max number of k-points (npk) =  40000
     Max angular momentum in pseudopotentials (lmaxx) =  3
     file Ru.pbe-spn-kjpaw_psl.1.0.0.UPF: wavefunction(s)  4D renormalized

     Subspace diagonalization in iterative solution of the eigenvalue problem:
     one sub-group per band group will be used
     ELPA distributed-memory algorithm (size of sub-group:  8*  8 procs)

     Found symmetry operation: I + (  0.2500  0.2500  0.0000)
     This is a supercell, fractional translations are disabled
     Message from routine setup:
     using ibrav=0 with symmetry is DISCOURAGED, use correct ibrav instead
 
     Parallelization info
     --------------------
     sticks:   dense  smooth     PW     G-vecs:    dense   smooth      PW
     Min          97      64     17                 6147     3300     469
     Max          98      65     18                 6154     3307     472
     Sum        7025    4645   1265               442831   237777   33881
 


     bravais-lattice index     =            0
     lattice parameter (alat)  =      14.4007  a.u.
     unit-cell volume          =    2941.8723 (a.u.)^3
     number of atoms/cell      =           32
     number of atomic types    =            1
     number of electrons       =       512.00
     number of Kohn-Sham states=          307
     kinetic-energy cutoff     =      71.0000  Ry
     charge density cutoff     =     430.0000  Ry
     scf convergence threshold =      1.0E-06
     mixing beta               =       0.1000
     number of iterations used =           10  plain     mixing
     Exchange-correlation= SLA  PW   PBX  PBC
                           (   1   4   3   4   0   0   0)

     celldm(1)=  14.400742  celldm(2)=   0.000000  celldm(3)=   0.000000
     celldm(4)=   0.000000  celldm(5)=   0.000000  celldm(6)=   0.000000

     crystal axes: (cart. coord. in units of alat)
               a(1) = (   0.995000   0.000000   0.000000 )  
               a(2) = (   0.000000   0.995000   0.000000 )  
               a(3) = (   0.000000   0.000000   0.995000 )  

     reciprocal axes: (cart. coord. in units 2 pi/alat)
               b(1) = (  1.005025  0.000000  0.000000 )  
               b(2) = (  0.000000  1.005025  0.000000 )  
               b(3) = (  0.000000  0.000000  1.005025 )  


     PseudoPot. # 1 for Ru read from file:
     /rds/homes/b/bxp912/pp/Ru.pbe-spn-kjpaw_psl.1.0.0.UPF
     MD5 check sum: 0ae1f594dea09af7be8575c3a481d1ae
     Pseudo is Projector augmented-wave + core cor, Zval = 16.0
     Generated using "atomic" code by A. Dal Corso  v.5.1
     Shape of augmentation charge: PSQ
     Using radial grid of 1233 points,  6 beta functions with: 
                l(1) =   0
                l(2) =   0
                l(3) =   1
                l(4) =   1
                l(5) =   2
                l(6) =   2
     Q(r) pseudized with 0 coefficients 


     atomic species   valence    mass     pseudopotential
        Ru            16.00   101.07000     Ru( 1.00)

     48 Sym. Ops., with inversion, found



   Cartesian axes

     site n.     atom                  positions (alat units)
         1           Ru  tau(   1) = (   0.0000000   0.0000000   0.0000000  )
         2           Ru  tau(   2) = (   0.2487500   0.2487500   0.0000000  )
         3           Ru  tau(   3) = (   0.2487500   0.0000000   0.2487495  )
         4           Ru  tau(   4) = (   0.0000000   0.2487500   0.2487495  )
         5           Ru  tau(   5) = (   0.0000000   0.0000000   0.4975000  )
         6           Ru  tau(   6) = (   0.2487490   0.2487490   0.4975000  )
         7           Ru  tau(   7) = (   0.2487500   0.0000000   0.7462495  )
         8           Ru  tau(   8) = (   0.0000000   0.2487500   0.7462495  )
         9           Ru  tau(   9) = (   0.0000000   0.4975002   0.0000000  )
        10           Ru  tau(  10) = (   0.2487500   0.7462504   0.0000000  )
        11           Ru  tau(  11) = (   0.2487490   0.4975002   0.2487484  )
        12           Ru  tau(  12) = (   0.0000000   0.7462504   0.2487495  )
        13           Ru  tau(  13) = (   0.0000000   0.4975002   0.4975000  )
        14           Ru  tau(  14) = (   0.2487490   0.7462515   0.4975000  )
        15           Ru  tau(  15) = (   0.2487490   0.4975002   0.7462505  )
        16           Ru  tau(  16) = (   0.0000000   0.7462504   0.7462495  )
        17           Ru  tau(  17) = (   0.4975002   0.0000000   0.0000000  )
        18           Ru  tau(  18) = (   0.7462504   0.2487500   0.0000000  )
        19           Ru  tau(  19) = (   0.7462504   0.0000000   0.2487495  )
        20           Ru  tau(  20) = (   0.4975002   0.2487490   0.2487484  )
        21           Ru  tau(  21) = (   0.4975002   0.0000000   0.4975000  )
        22           Ru  tau(  22) = (   0.7462515   0.2487490   0.4975000  )
        23           Ru  tau(  23) = (   0.7462504   0.0000000   0.7462495  )
        24           Ru  tau(  24) = (   0.4975002   0.2487490   0.7462505  )
        25           Ru  tau(  25) = (   0.4975002   0.4975002   0.0000000  )
        26           Ru  tau(  26) = (   0.7462504   0.7462504   0.0000000  )
        27           Ru  tau(  27) = (   0.7462515   0.4975002   0.2487484  )
        28           Ru  tau(  28) = (   0.4975002   0.7462515   0.2487484  )
        29           Ru  tau(  29) = (   0.4975002   0.4975002   0.4975000  )
        30           Ru  tau(  30) = (   0.7462515   0.7462515   0.4975000  )
        31           Ru  tau(  31) = (   0.7462515   0.4975002   0.7462505  )
        32           Ru  tau(  32) = (   0.4975002   0.7462515   0.7462505  )

     number of k points=    35  Marzari-Vanderbilt smearing, width (Ry)=  0.0400
                       cart. coord. in units 2pi/alat
        k(    1) = (   0.0558347   0.0558347   0.0558347), wk =   0.0219479
        k(    2) = (   0.0558347   0.0558347   0.1675042), wk =   0.0658436
        k(    3) = (   0.0558347   0.0558347   0.2791736), wk =   0.0658436
        k(    4) = (   0.0558347   0.0558347   0.3908431), wk =   0.0658436
        k(    5) = (   0.0558347   0.0558347  -0.5025126), wk =   0.0329218
        k(    6) = (   0.0558347   0.1675042   0.1675042), wk =   0.0658436
        k(    7) = (   0.0558347   0.1675042   0.2791736), wk =   0.1316872
        k(    8) = (   0.0558347   0.1675042   0.3908431), wk =   0.1316872
        k(    9) = (   0.0558347   0.1675042  -0.5025126), wk =   0.0658436
        k(   10) = (   0.0558347   0.2791736   0.2791736), wk =   0.0658436
        k(   11) = (   0.0558347   0.2791736   0.3908431), wk =   0.1316872
        k(   12) = (   0.0558347   0.2791736  -0.5025126), wk =   0.0658436
        k(   13) = (   0.0558347   0.3908431   0.3908431), wk =   0.0658436
        k(   14) = (   0.0558347   0.3908431  -0.5025126), wk =   0.0658436
        k(   15) = (   0.0558347  -0.5025126  -0.5025126), wk =   0.0164609
        k(   16) = (   0.1675042   0.1675042   0.1675042), wk =   0.0219479
        k(   17) = (   0.1675042   0.1675042   0.2791736), wk =   0.0658436
        k(   18) = (   0.1675042   0.1675042   0.3908431), wk =   0.0658436
        k(   19) = (   0.1675042   0.1675042  -0.5025126), wk =   0.0329218
        k(   20) = (   0.1675042   0.2791736   0.2791736), wk =   0.0658436
        k(   21) = (   0.1675042   0.2791736   0.3908431), wk =   0.1316872
        k(   22) = (   0.1675042   0.2791736  -0.5025126), wk =   0.0658436
        k(   23) = (   0.1675042   0.3908431   0.3908431), wk =   0.0658436
        k(   24) = (   0.1675042   0.3908431  -0.5025126), wk =   0.0658436
        k(   25) = (   0.1675042  -0.5025126  -0.5025126), wk =   0.0164609
        k(   26) = (   0.2791736   0.2791736   0.2791736), wk =   0.0219479
        k(   27) = (   0.2791736   0.2791736   0.3908431), wk =   0.0658436
        k(   28) = (   0.2791736   0.2791736  -0.5025126), wk =   0.0329218
        k(   29) = (   0.2791736   0.3908431   0.3908431), wk =   0.0658436
        k(   30) = (   0.2791736   0.3908431  -0.5025126), wk =   0.0658436
        k(   31) = (   0.2791736  -0.5025126  -0.5025126), wk =   0.0164609
        k(   32) = (   0.3908431   0.3908431   0.3908431), wk =   0.0219479
        k(   33) = (   0.3908431   0.3908431  -0.5025126), wk =   0.0329218
        k(   34) = (   0.3908431  -0.5025126  -0.5025126), wk =   0.0164609
        k(   35) = (  -0.5025126  -0.5025126  -0.5025126), wk =   0.0027435

     Dense  grid:   442831 G-vectors     FFT dimensions: (  96,  96,  96)

     Smooth grid:   237777 G-vectors     FFT dimensions: (  80,  80,  80)

     Estimated max dynamical RAM per process >     105.38 MB

     Estimated total dynamical RAM >       7.41 GB

     Check: negative core charge=   -0.000002

     Initial potential from superposition of free atoms

     starting charge  511.97959, renormalised to  512.00000
     Starting wfcs are  320 randomized atomic wfcs
     Checking if some PAW data can be deallocated... 

     total cpu time spent up to now is       17.1 secs

     Self-consistent Calculation

     iteration #  1     ecut=    71.00 Ry     beta= 0.10
     Davidson diagonalization with overlap
     ethr =  1.00E-02,  avg # of iterations =  3.5

     Threshold (ethr) on eigenvalues was too large:
     Diagonalizing with lowered threshold

     Davidson diagonalization with overlap
     ethr =  8.44E-05,  avg # of iterations =  5.4

     total cpu time spent up to now is      102.5 secs

     total energy              =  -13813.40736267 Ry
     estimated scf accuracy    <       0.64266115 Ry

     iteration #  2     ecut=    71.00 Ry     beta= 0.10
     Davidson diagonalization with overlap
     ethr =  1.26E-04,  avg # of iterations =  1.0

     total cpu time spent up to now is      135.9 secs

     total energy              =  -13813.19475873 Ry
     estimated scf accuracy    <       0.40325544 Ry

     iteration #  3     ecut=    71.00 Ry     beta= 0.10
     Davidson diagonalization with overlap
     ethr =  7.88E-05,  avg # of iterations =  2.3

     total cpu time spent up to now is      182.3 secs

     total energy              =  -13813.29224328 Ry
     estimated scf accuracy    <       0.01010644 Ry

     iteration #  4     ecut=    71.00 Ry     beta= 0.10
     Davidson diagonalization with overlap
     c_bands:  1 eigenvalues not converged
     ethr =  1.97E-06,  avg # of iterations =  3.5

     total cpu time spent up to now is      223.3 secs

     total energy              =  -13813.29156048 Ry
     estimated scf accuracy    <       0.00673006 Ry

     iteration #  5     ecut=    71.00 Ry     beta= 0.10
     Davidson diagonalization with overlap
     ethr =  1.31E-06,  avg # of iterations =  2.2

     total cpu time spent up to now is      264.1 secs

     total energy              =  -13813.29643881 Ry
     estimated scf accuracy    <       0.00785059 Ry

     iteration #  6     ecut=    71.00 Ry     beta= 0.10
     Davidson diagonalization with overlap
     ethr =  1.31E-06,  avg # of iterations =  3.0

     total cpu time spent up to now is      308.8 secs

     total energy              =  -13813.29135467 Ry
     estimated scf accuracy    <       0.01518635 Ry

     iteration #  7     ecut=    71.00 Ry     beta= 0.10
     Davidson diagonalization with overlap
     ethr =  1.31E-06,  avg # of iterations =  2.3

     total cpu time spent up to now is      347.8 secs

     total energy              =  -13813.29291133 Ry
     estimated scf accuracy    <       0.00079356 Ry

     iteration #  8     ecut=    71.00 Ry     beta= 0.10
     Davidson diagonalization with overlap
     ethr =  1.55E-07,  avg # of iterations =  2.4

     total cpu time spent up to now is      381.2 secs

     total energy              =  -13813.29293702 Ry
     estimated scf accuracy    <       0.00022076 Ry

     iteration #  9     ecut=    71.00 Ry     beta= 0.10
     Davidson diagonalization with overlap
     ethr =  4.31E-08,  avg # of iterations =  1.9

     total cpu time spent up to now is      414.2 secs

     total energy              =  -13813.29288053 Ry
     estimated scf accuracy    <       0.00012235 Ry

     iteration # 10     ecut=    71.00 Ry     beta= 0.10
     Davidson diagonalization with overlap
     ethr =  2.39E-08,  avg # of iterations =  2.5

     total cpu time spent up to now is      451.6 secs

     total energy              =  -13813.29289979 Ry
     estimated scf accuracy    <       0.00000342 Ry

     iteration # 11     ecut=    71.00 Ry     beta= 0.10
     Davidson diagonalization with overlap
     ethr =  6.68E-10,  avg # of iterations =  4.7

     total cpu time spent up to now is      501.9 secs

     total energy              =  -13813.29290498 Ry
     estimated scf accuracy    <       0.00000153 Ry

     iteration # 12     ecut=    71.00 Ry     beta= 0.10
     Davidson diagonalization with overlap
     ethr =  3.00E-10,  avg # of iterations =  3.2

     total cpu time spent up to now is      545.8 secs

     total energy              =  -13813.29290143 Ry
     estimated scf accuracy    <       0.00000860 Ry

     iteration # 13     ecut=    71.00 Ry     beta= 0.10
     Davidson diagonalization with overlap
     ethr =  3.00E-10,  avg # of iterations =  3.2

     total cpu time spent up to now is      589.2 secs

     End of self-consistent calculation

          k = 0.0558 0.0558 0.0558 ( 29681 PWs)   bands (ev):

   -49.5059 -49.3995 -49.3995 -49.3995 -49.3790 -49.3789 -49.3789 -49.3406
   -49.3406 -49.3406 -49.3306 -49.3294 -49.3294 -49.3294 -49.3294 -49.3294
   -49.3294 -49.3287 -49.3287 -49.3286 -49.3199 -49.3199 -49.3199 -49.2716
   -49.2715 -49.2715 -49.2710 -49.2710 -49.2710 -49.2710 -49.2709 -49.2709
   -19.9355 -19.9355 -19.9355 -19.9314 -19.8693 -19.8693 -19.8693 -19.6591
   -19.6591 -19.6591 -19.6472 -19.6472 -19.6472 -19.6472 -19.6472 -19.6472
   -19.6259 -19.6259 -19.6259 -19.6017 -19.6017 -19.6017 -19.6017 -19.6017
   -19.6017 -19.5485 -19.5485 -19.5485 -19.5485 -19.5485 -19.5485 -19.4443
   -19.4443 -19.4443 -19.3673 -19.3673 -19.3672 -19.3594 -19.3594 -19.3594
   -19.3236 -19.3236 -19.3236 -19.3236 -19.3236 -19.3236 -19.2813 -19.2813
   -19.2813 -19.2739 -19.2739 -19.2739 -19.2739 -19.2739 -19.2739 -19.2674
   -19.2674 -19.2674 -19.2626 -19.2626 -19.2626 -19.0919 -19.0919 -19.0919
   -19.0914 -19.0914 -19.0914 -19.0581 -19.0581 -19.0581 -19.0580 -19.0580
   -19.0580 -19.0422 -19.0422 -19.0422 -19.0292 -19.0292 -19.0292 -19.0281
   -19.0281 -19.0281 -19.0281 -19.0281 -19.0281 -19.0258 -19.0258 -19.0258
   -19.0230 -19.0230 -19.0087 -19.0087 -19.0087 -18.8905 -18.8832 -18.8832
    15.6879  17.1981  17.1981  17.1981  17.5000  17.5178  17.5178  17.5178
    17.6736  17.6736  17.6736  17.9578  17.9578  17.9578  18.1203  18.1203
    18.1203  18.6353  18.6354  18.6354  18.6354  18.6354  18.6354  18.9540
    18.9540  18.9540  19.2328  19.2328  19.2328  19.2573  19.2573  19.2573
    19.3516  19.3516  19.3517  19.3626  19.3626  19.3626  19.3626  19.3626
    19.3626  19.8486  19.8486  19.8486  19.8486  19.8486  19.8487  19.9952
    19.9952  19.9952  20.0263  20.0263  20.0263  20.0263  20.0263  20.0263
    20.0913  20.0913  20.0913  20.3635  20.3635  20.3635  20.3635  20.3635
    20.3635  20.3656  20.3656  20.3656  20.3656  20.3656  20.3656  20.3679
    20.3679  20.3679  20.5335  20.5335  20.5335  20.8199  20.8199  20.8199
    20.8570  20.8570  20.8724  20.8724  20.8724  20.9546  20.9867  20.9867
    21.9889  21.9889  21.9889  22.1682  22.1682  22.1683  22.2050  22.2050
    22.2050  22.3079  22.3079  22.3079  22.3079  22.3079  22.3079  22.3217
    22.3218  22.3218  22.6283  22.6283  22.6283  22.7519  22.7519  22.7519
    23.0055  23.0055  23.0055  23.0813  23.0813  23.0813  23.0813  23.0813
    23.0814  23.1018  23.1018  23.1018  23.1460  23.1460  23.1460  23.3372
    23.3372  23.3372  23.3372  23.3372  23.3372  23.4020  23.4020  23.5146
    23.5146  23.5146  24.1954  24.1954  24.1954  24.2361  24.2361  24.2361
    24.3595  24.3595  24.3595  24.4367  25.1999  25.1999  25.1999  25.2423
    25.2423  25.2783  25.2783  25.2783  25.5675  25.5675  25.5675  25.5867
    25.5867  25.5867  25.7604  25.7604  25.7604  25.7605  25.7605  25.7605
    25.7656  25.7656  25.7656  27.2362  27.2362  27.2362  27.3752  27.3752
    27.3752  27.7784  27.7784

          k = 0.0558 0.0558 0.1675 ( 29719 PWs)   bands (ev):

   -49.5024 -49.4196 -49.3975 -49.3975 -49.3773 -49.3773 -49.3587 -49.3517
   -49.3517 -49.3403 -49.3387 -49.3387 -49.3324 -49.3294 -49.3293 -49.3288
   -49.3287 -49.3270 -49.3202 -49.3183 -49.3183 -49.3106 -49.3106 -49.2751
   -49.2729 -49.2729 -49.2726 -49.2726 -49.2715 -49.2714 -49.2710 -49.2710
   -19.9278 -19.9237 -19.9237 -19.9153 -19.8606 -19.8606 -19.8557 -19.6916
   -19.6776 -19.6776 -19.6638 -19.6638 -19.6610 -19.6610 -19.6555 -19.6527
   -19.6527 -19.6287 -19.6287 -19.6127 -19.6127 -19.5985 -19.5985 -19.5979
   -19.5979 -19.5571 -19.5571 -19.5390 -19.5390 -19.5269 -19.4969 -19.4969
   -19.4576 -19.4576 -19.4101 -19.4101 -19.3766 -19.3766 -19.3650 -19.3650
   -19.3326 -19.2928 -19.2928 -19.2803 -19.2803 -19.2785 -19.2785 -19.2743
   -19.2731 -19.2731 -19.2619 -19.2619 -19.2616 -19.2585 -19.2585 -19.2570
   -19.2568 -19.2567 -19.2532 -19.2395 -19.2395 -19.1253 -19.1240 -19.0995
   -19.0995 -19.0831 -19.0831 -19.0656 -19.0656 -19.0628 -19.0628 -19.0540
   -19.0540 -19.0482 -19.0482 -19.0477 -19.0416 -19.0405 -19.0405 -19.0292
   -19.0289 -19.0281 -19.0281 -19.0270 -19.0269 -19.0253 -19.0244 -19.0211
   -19.0211 -19.0203 -19.0092 -18.9964 -18.9964 -18.9087 -18.8891 -18.8869
    15.7756  17.2504  17.2631  17.2631  17.5409  17.5763  17.5763  17.5939
    17.6598  17.7124  17.7373  17.7373  18.0210  18.0210  18.1309  18.1870
    18.1870  18.5121  18.5121  18.6843  18.6843  18.6914  18.6942  18.6943
    18.9327  18.9945  18.9946  19.0364  19.0364  19.0839  19.1238  19.1238
    19.2668  19.2668  19.3070  19.3071  19.3101  19.3101  19.3834  19.3834
    19.4532  19.4532  19.5208  19.8274  19.8274  19.8526  19.8526  19.9060
    19.9060  19.9189  19.9189  19.9745  19.9745  20.0710  20.0710  20.0943
    20.1851  20.1851  20.1917  20.1917  20.2940  20.3173  20.3174  20.3542
    20.3543  20.3549  20.3549  20.3727  20.3727  20.6275  20.6275  20.6350
    20.6351  20.6704  20.7301  20.7445  20.7768  20.7768  20.8538  20.8912
    20.8919  20.9262  20.9262  20.9277  20.9277  20.9371  21.0307  21.0347
    21.7503  21.7504  21.8882  21.8882  21.9733  21.9985  22.1115  22.1115
    22.1418  22.2404  22.2404  22.2804  22.4230  22.4230  22.4292  22.4561
    22.4562  22.5047  22.5047  22.5490  22.6039  22.6039  22.9354  22.9354
    22.9579  22.9579  22.9712  22.9712  23.0833  23.0833  23.0982  23.0983
    23.2229  23.2229  23.2451  23.2451  23.3284  23.3464  23.3607  23.3607
    23.4047  23.4270  23.5665  23.5665  23.5857  23.6317  23.6317  23.7194
    23.7535  23.7535  23.7658  23.8180  23.8180  24.0081  24.0382  24.2593
    24.2593  24.4549  24.4549  24.5263  24.9917  24.9917  25.1085  25.1085
    25.1225  25.1583  25.2237  25.2237  25.2283  25.4273  25.4966  25.6289
    25.6289  25.6302  25.6302  25.6519  25.7589  25.7590  25.7602  25.7602
    25.9338  25.9338  26.1629  26.7076  26.7076  27.0719  27.1758  27.2433
    27.2433  27.7207  27.7207

          k = 0.0558 0.0558 0.2792 ( 29721 PWs)   bands (ev):

   -49.4954 -49.4388 -49.3936 -49.3936 -49.3740 -49.3740 -49.3623 -49.3623
   -49.3476 -49.3476 -49.3396 -49.3394 -49.3342 -49.3293 -49.3293 -49.3289
   -49.3288 -49.3254 -49.3207 -49.3078 -49.3078 -49.3018 -49.3018 -49.2822
   -49.2767 -49.2767 -49.2758 -49.2758 -49.2715 -49.2714 -49.2711 -49.2710
   -19.9084 -19.9004 -19.9004 -19.8880 -19.8433 -19.8433 -19.8287 -19.7397
   -19.7243 -19.7243 -19.7021 -19.7013 -19.7013 -19.6673 -19.6673 -19.6613
   -19.6613 -19.6287 -19.6287 -19.6047 -19.6042 -19.6042 -19.6017 -19.6017
   -19.5640 -19.5640 -19.5600 -19.5600 -19.5226 -19.5226 -19.4812 -19.4812
   -19.4506 -19.4506 -19.4470 -19.4470 -19.4068 -19.4067 -19.4045 -19.4045
   -19.2977 -19.2977 -19.2800 -19.2715 -19.2715 -19.2630 -19.2630 -19.2503
   -19.2459 -19.2452 -19.2452 -19.2388 -19.2388 -19.2312 -19.2312 -19.2277
   -19.2277 -19.2092 -19.1995 -19.1995 -19.1919 -19.1571 -19.1549 -19.1149
   -19.1149 -19.0895 -19.0895 -19.0854 -19.0854 -19.0804 -19.0804 -19.0778
   -19.0689 -19.0689 -19.0645 -19.0645 -19.0476 -19.0405 -19.0326 -19.0325
   -19.0317 -19.0280 -19.0280 -19.0272 -19.0272 -19.0207 -19.0207 -19.0176
   -19.0101 -18.9939 -18.9923 -18.9914 -18.9914 -18.9412 -18.9006 -18.8977
    15.9481  17.2838  17.3519  17.3899  17.3899  17.6404  17.6925  17.6925
    17.7267  17.7894  17.8641  17.8641  18.0251  18.1431  18.1431  18.3013
    18.3013  18.3164  18.3164  18.4509  18.5869  18.6863  18.6863  18.7527
    18.7775  18.7775  18.8099  18.8099  18.9507  18.9507  18.9692  18.9692
    19.0746  19.0747  19.1640  19.1641  19.2511  19.2511  19.3330  19.3330
    19.5177  19.5177  19.7269  19.7269  19.7913  19.7913  19.7953  19.7953
    19.8069  19.8069  19.8097  19.8553  19.8553  19.9579  19.9579  20.1192
    20.1192  20.1585  20.2369  20.2370  20.2895  20.2895  20.3684  20.3684
    20.3833  20.3833  20.4356  20.4356  20.4641  20.6381  20.7024  20.7024
    20.7100  20.7100  20.7624  20.8139  20.9745  21.0261  21.0261  21.0496
    21.0646  21.0801  21.0801  21.1268  21.1303  21.1885  21.4647  21.4647
    21.5338  21.5338  21.5340  21.5340  21.7415  21.8575  21.8575  21.8926
    21.9073  21.9674  22.3338  22.3745  22.3745  22.5902  22.5902  22.6082
    22.6082  22.6451  22.6451  22.7246  22.7246  22.8476  22.8476  22.9512
    22.9513  23.0760  23.0760  23.0856  23.0938  23.0938  23.1148  23.1148
    23.1723  23.1723  23.1867  23.2501  23.2811  23.2811  23.3997  23.4692
    23.4692  23.4766  23.5327  23.5327  23.6764  23.8155  23.8853  23.8853
    23.8916  23.9710  23.9710  24.0152  24.0460  24.0460  24.0698  24.2931
    24.2931  24.4415  24.4415  24.6921  24.7155  24.7155  24.8955  24.8955
    24.9270  25.0651  25.0651  25.0672  25.0964  25.1575  25.3892  25.3892
    25.3905  25.3905  25.4485  25.7580  25.7581  25.7597  25.7597  25.8995
    26.1878  26.1878  26.3767  26.3767  26.5409  26.7043  26.7043  26.7301
    27.0525  27.6004  27.6004

          k = 0.0558 0.0558 0.3908 ( 29715 PWs)   bands (ev):

   -49.4852 -49.4565 -49.3880 -49.3880 -49.3721 -49.3720 -49.3693 -49.3693
   -49.3558 -49.3558 -49.3386 -49.3358 -49.3293 -49.3292 -49.3289 -49.3288
   -49.3239 -49.3215 -49.3215 -49.2981 -49.2981 -49.2937 -49.2937 -49.2925
   -49.2823 -49.2823 -49.2805 -49.2804 -49.2714 -49.2713 -49.2711 -49.2710
   -19.8779 -19.8667 -19.8667 -19.8507 -19.8179 -19.8179 -19.7907 -19.7888
   -19.7754 -19.7754 -19.7543 -19.7458 -19.7458 -19.6754 -19.6662 -19.6662
   -19.6518 -19.6518 -19.6450 -19.6450 -19.6178 -19.6178 -19.5751 -19.5751
   -19.5451 -19.5451 -19.5258 -19.5258 -19.5110 -19.5110 -19.5006 -19.5006
   -19.4875 -19.4875 -19.4445 -19.4445 -19.4409 -19.4409 -19.4008 -19.4008
   -19.3249 -19.3249 -19.2694 -19.2694 -19.2648 -19.2648 -19.2336 -19.2296
   -19.2227 -19.2003 -19.2003 -19.1966 -19.1966 -19.1930 -19.1930 -19.1927
   -19.1927 -19.1862 -19.1834 -19.1625 -19.1625 -19.1611 -19.1374 -19.1374
   -19.1211 -19.1211 -19.1210 -19.1209 -19.1184 -19.1150 -19.1020 -19.1020
   -19.0993 -19.0993 -19.0769 -19.0528 -19.0528 -19.0389 -19.0344 -19.0279
   -19.0278 -19.0274 -19.0273 -19.0267 -19.0267 -19.0161 -19.0161 -19.0152
   -19.0114 -18.9936 -18.9936 -18.9875 -18.9649 -18.9627 -18.9175 -18.9146
    16.1992  16.8892  17.4959  17.5720  17.5720  17.7975  17.8568  17.8648
    17.8648  17.9037  17.9137  18.0501  18.0501  18.0528  18.0528  18.2370
    18.2751  18.3152  18.3153  18.3667  18.3667  18.4344  18.4997  18.4998
    18.6079  18.6079  18.7430  18.7430  18.9039  18.9039  18.9551  18.9551
    18.9774  18.9774  19.1646  19.1646  19.1924  19.1924  19.4137  19.4137
    19.4277  19.4278  19.5277  19.5277  19.6760  19.6760  19.7304  19.7304
    19.7707  19.7707  19.8404  19.8404  19.8426  19.8426  20.0897  20.1005
    20.1005  20.1548  20.1548  20.2589  20.3869  20.3869  20.3884  20.3884
    20.3923  20.3924  20.5125  20.5661  20.5779  20.6050  20.6050  20.6182
    20.6182  20.7457  20.8171  20.8171  21.1053  21.1715  21.1715  21.1867
    21.1867  21.2003  21.2003  21.2073  21.2702  21.2727  21.4956  21.5158
    21.5158  21.5924  21.6385  21.6826  21.6845  21.6855  21.6855  21.6933
    22.1802  22.1802  22.5031  22.5031  22.5108  22.5766  22.5766  22.7198
    22.7198  22.7241  22.7775  22.7818  22.7818  22.8252  22.8252  22.8632
    22.8633  22.9135  22.9135  22.9265  22.9265  22.9884  23.0411  23.0411
    23.0853  23.0853  23.1045  23.1045  23.1971  23.1971  23.4245  23.4246
    23.5496  23.5697  23.5697  23.6927  23.7594  23.8888  23.8888  24.0243
    24.2224  24.2224  24.2225  24.3310  24.3378  24.3378  24.3779  24.3779
    24.6077  24.6077  24.6094  24.6681  24.7691  24.7692  24.7709  24.8327
    24.8327  24.8550  24.8925  24.8943  25.0735  25.0735  25.0773  25.0773
    25.1331  25.1331  25.2144  25.6804  25.6804  25.7581  25.7581  25.7591
    25.7592  25.8896  26.1636  26.1636  26.2798  26.7915  26.7915  26.8629
    27.2311  27.4093  27.4093

          k = 0.0558 0.0558-0.5025 ( 29740 PWs)   bands (ev):

   -49.4723 -49.4721 -49.3808 -49.3808 -49.3806 -49.3806 -49.3632 -49.3632
   -49.3631 -49.3630 -49.3374 -49.3372 -49.3293 -49.3291 -49.3291 -49.3289
   -49.3227 -49.3225 -49.3058 -49.3056 -49.2896 -49.2896 -49.2894 -49.2894
   -49.2866 -49.2866 -49.2864 -49.2864 -49.2714 -49.2712 -49.2712 -49.2710
   -19.8380 -19.8379 -19.8244 -19.8243 -19.8242 -19.8241 -19.8053 -19.8052
   -19.7852 -19.7852 -19.7850 -19.7850 -19.7374 -19.7372 -19.6583 -19.6583
   -19.6582 -19.6582 -19.6366 -19.6366 -19.6366 -19.6366 -19.5434 -19.5434
   -19.5433 -19.5433 -19.5197 -19.5197 -19.5195 -19.5195 -19.4853 -19.4853
   -19.4852 -19.4852 -19.4733 -19.4733 -19.4731 -19.4731 -19.3598 -19.3598
   -19.3596 -19.3596 -19.2672 -19.2670 -19.2670 -19.2668 -19.2120 -19.2119
   -19.2087 -19.2085 -19.1676 -19.1675 -19.1663 -19.1663 -19.1661 -19.1661
   -19.1588 -19.1588 -19.1587 -19.1587 -19.1562 -19.1562 -19.1561 -19.1561
   -19.1431 -19.1431 -19.1430 -19.1429 -19.1297 -19.1297 -19.1295 -19.1295
   -19.1157 -19.1156 -19.0462 -19.0460 -19.0379 -19.0379 -19.0378 -19.0378
   -19.0369 -19.0367 -19.0278 -19.0276 -19.0276 -19.0274 -19.0132 -19.0130
   -19.0023 -19.0023 -19.0023 -19.0023 -18.9393 -18.9391 -18.9366 -18.9364
    16.5185  16.5187  17.6704  17.6706  17.7977  17.7979  17.7979  17.7981
    18.0101  18.0101  18.0536  18.0537  18.0907  18.0907  18.0909  18.0909
    18.1515  18.1515  18.3014  18.3014  18.3016  18.3016  18.5224  18.5224
    18.5226  18.5226  18.7212  18.7212  18.7213  18.7214  19.0426  19.0426
    19.0427  19.0427  19.1872  19.1873  19.1874  19.1874  19.3449  19.3449
    19.3450  19.3451  19.5450  19.5450  19.5451  19.5451  19.7776  19.7776
    19.7776  19.7776  19.7951  19.7951  19.7952  19.7952  20.1068  20.1068
    20.1069  20.1069  20.3496  20.3498  20.3813  20.3815  20.3948  20.3948
    20.3949  20.3950  20.4962  20.4963  20.4963  20.4965  20.6598  20.6599
    20.8755  20.8755  20.8756  20.8756  20.9807  20.9807  20.9807  20.9807
    21.2806  21.2807  21.3571  21.3572  21.3573  21.3573  21.4059  21.4060
    21.4579  21.4581  21.4609  21.4610  22.1629  22.1630  22.1630  22.1630
    22.1704  22.1704  22.1996  22.1997  22.5572  22.5572  22.5574  22.5574
    22.7526  22.7528  22.8611  22.8611  22.8611  22.8611  22.8820  22.8820
    22.8822  22.8822  22.9604  22.9604  22.9605  22.9605  22.9768  22.9768
    22.9770  22.9770  23.0419  23.0419  23.0421  23.0421  23.3029  23.3029
    23.3031  23.3031  23.6444  23.6446  24.2611  24.2612  24.2613  24.2614
    24.2760  24.2762  24.3615  24.3615  24.5454  24.5455  24.5456  24.5456
    24.5992  24.5993  24.6312  24.6312  24.7129  24.7129  24.7130  24.7131
    24.7298  24.7298  24.7299  24.7299  25.0203  25.0205  25.1983  25.1984
    25.1984  25.1984  25.2212  25.2213  25.6320  25.6320  25.6321  25.6321
    25.7583  25.7585  25.7585  25.7587  26.6045  26.6047  27.1398  27.1399
    27.1400  27.1401  27.6370

          k = 0.0558 0.1675 0.1675 ( 29731 PWs)   bands (ev):

   -49.4989 -49.4174 -49.4174 -49.3956 -49.3757 -49.3645 -49.3574 -49.3574
   -49.3510 -49.3510 -49.3384 -49.3384 -49.3359 -49.3306 -49.3259 -49.3259
   -49.3253 -49.3252 -49.3186 -49.3186 -49.3112 -49.3112 -49.3031 -49.2750
   -49.2750 -49.2745 -49.2744 -49.2732 -49.2732 -49.2723 -49.2723 -49.2715
   -19.9202 -19.9202 -19.9080 -19.8952 -19.8519 -19.8477 -19.8477 -19.6984
   -19.6984 -19.6918 -19.6918 -19.6600 -19.6581 -19.6581 -19.6568 -19.6568
   -19.6521 -19.6521 -19.6460 -19.6460 -19.6263 -19.6263 -19.6231 -19.6231
   -19.5607 -19.5361 -19.5361 -19.5318 -19.5318 -19.5128 -19.5128 -19.4887
   -19.4887 -19.4719 -19.4539 -19.3948 -19.3716 -19.3716 -19.3323 -19.3323
   -19.3203 -19.3203 -19.2962 -19.2953 -19.2953 -19.2725 -19.2725 -19.2594
   -19.2594 -19.2561 -19.2561 -19.2544 -19.2544 -19.2542 -19.2535 -19.2535
   -19.2440 -19.2440 -19.2143 -19.2143 -19.1993 -19.1330 -19.1330 -19.1174
   -19.1174 -19.0926 -19.0878 -19.0779 -19.0626 -19.0626 -19.0617 -19.0617
   -19.0556 -19.0544 -19.0533 -19.0533 -19.0516 -19.0516 -19.0388 -19.0350
   -19.0350 -19.0322 -19.0322 -19.0318 -19.0231 -19.0215 -19.0215 -19.0206
   -19.0138 -19.0138 -18.9974 -18.9974 -18.9787 -18.9318 -18.8944 -18.8860
    15.8618  17.3157  17.3157  17.3218  17.5622  17.6151  17.6673  17.6673
    17.7215  17.7216  17.7755  17.7755  17.8050  18.0679  18.1999  18.1999
    18.2336  18.5446  18.5446  18.5732  18.5733  18.7377  18.7377  18.7427
    18.7427  18.8226  18.8227  18.9164  18.9621  18.9621  19.0518  19.1157
    19.1157  19.1416  19.1416  19.1524  19.3150  19.3998  19.3998  19.4075
    19.4076  19.4520  19.4520  19.5477  19.5477  19.7906  19.7906  19.8974
    19.8974  19.9130  19.9659  19.9659  19.9953  19.9954  20.0464  20.0464
    20.0855  20.2686  20.2686  20.2798  20.2798  20.3716  20.3716  20.4397
    20.4398  20.4891  20.5689  20.5689  20.6633  20.6633  20.6858  20.6859
    20.7402  20.7402  20.7585  20.8411  20.8419  20.8420  20.8553  20.8659
    20.9192  20.9192  20.9310  20.9779  21.0105  21.0105  21.0520  21.0777
    21.6104  21.7185  21.7478  21.7478  22.0052  22.0052  22.1729  22.1884
    22.1885  22.2008  22.2009  22.2647  22.2647  22.2826  22.2826  22.3104
    22.3104  22.4720  22.5353  22.6457  22.6457  22.6656  22.6656  22.7164
    22.7985  23.0840  23.0840  23.2089  23.2167  23.2167  23.2318  23.2318
    23.2736  23.2736  23.3061  23.3600  23.3600  23.4063  23.4390  23.4390
    23.4999  23.4999  23.5237  23.5613  23.5613  23.6670  23.7583  23.8212
    23.8212  23.8491  23.8491  23.9313  23.9431  23.9431  24.0771  24.0771
    24.2897  24.4907  24.6629  24.6678  24.6678  24.8085  24.8085  24.9874
    25.1009  25.1009  25.1674  25.2504  25.2504  25.2607  25.2724  25.5224
    25.5224  25.6279  25.6279  25.6316  25.6316  25.6502  25.6502  25.6953
    25.8843  26.1956  26.5258  26.5258  26.6477  26.6477  27.1865  27.1865
    27.6807  27.6807  27.8134

          k = 0.0558 0.1675 0.2792 ( 29724 PWs)   bands (ev):

   -49.4920 -49.4363 -49.4129 -49.3919 -49.3767 -49.3725 -49.3613 -49.3547
   -49.3497 -49.3470 -49.3394 -49.3383 -49.3377 -49.3331 -49.3323 -49.3237
   -49.3220 -49.3191 -49.3137 -49.3124 -49.3084 -49.3027 -49.2959 -49.2820
   -49.2782 -49.2777 -49.2776 -49.2749 -49.2748 -49.2736 -49.2721 -49.2715
   -19.9049 -19.9012 -19.8815 -19.8644 -19.8347 -19.8318 -19.8221 -19.7472
   -19.7378 -19.7022 -19.7014 -19.6979 -19.6979 -19.6938 -19.6721 -19.6680
   -19.6664 -19.6499 -19.6482 -19.6401 -19.6375 -19.6336 -19.6299 -19.6100
   -19.5910 -19.5527 -19.5366 -19.5182 -19.5181 -19.5034 -19.4973 -19.4948
   -19.4735 -19.4671 -19.4396 -19.4265 -19.4087 -19.3707 -19.3585 -19.3313
   -19.3199 -19.3151 -19.2914 -19.2822 -19.2774 -19.2606 -19.2597 -19.2565
   -19.2519 -19.2495 -19.2446 -19.2345 -19.2247 -19.2203 -19.2183 -19.2162
   -19.2160 -19.2115 -19.1774 -19.1747 -19.1651 -19.1608 -19.1500 -19.1490
   -19.1052 -19.1045 -19.0992 -19.0970 -19.0894 -19.0877 -19.0867 -19.0839
   -19.0744 -19.0685 -19.0595 -19.0550 -19.0548 -19.0520 -19.0464 -19.0416
   -19.0403 -19.0383 -19.0348 -19.0309 -19.0225 -19.0219 -19.0157 -19.0003
   -18.9993 -18.9976 -18.9931 -18.9812 -18.9685 -18.9680 -18.9060 -18.8921
    16.0314  17.3478  17.4177  17.4372  17.4431  17.6407  17.7099  17.7953
    17.8117  17.8414  17.8513  17.9010  17.9387  18.0944  18.1568  18.3196
    18.3216  18.3346  18.3609  18.4985  18.5018  18.6051  18.6207  18.6896
    18.6938  18.6998  18.7995  18.8253  18.8298  18.8342  18.8559  18.8574
    18.9926  19.0113  19.0283  19.1370  19.1664  19.2531  19.2685  19.4108
    19.4314  19.4605  19.5029  19.5985  19.6408  19.7044  19.7183  19.7385
    19.7456  19.8090  19.8289  19.8794  19.9692  19.9841  19.9940  20.0664
    20.1075  20.1442  20.2468  20.3767  20.4010  20.4483  20.4615  20.5143
    20.5243  20.5523  20.5860  20.6183  20.6906  20.7069  20.7121  20.7276
    20.7447  20.8462  20.8563  20.8998  20.9191  20.9647  21.0040  21.0198
    21.0727  21.1325  21.1332  21.1404  21.1653  21.1716  21.3954  21.4214
    21.4485  21.5092  21.5144  21.7429  21.7461  21.7654  21.9172  21.9583
    22.0348  22.0508  22.0883  22.2180  22.2566  22.3114  22.3846  22.4792
    22.5024  22.5373  22.5905  22.6482  22.6871  22.6955  22.7993  22.8811
    22.9109  22.9996  23.0054  23.0439  23.0464  23.0704  23.1865  23.1901
    23.1980  23.2187  23.3059  23.3337  23.4025  23.4452  23.5045  23.5205
    23.5386  23.5667  23.5703  23.7604  23.8559  23.8604  23.8811  23.9096
    23.9330  24.0959  24.1157  24.1535  24.1617  24.1655  24.1997  24.2124
    24.2202  24.3050  24.4219  24.5169  24.6806  24.7960  24.8984  24.9230
    24.9360  25.0118  25.0396  25.1539  25.1742  25.1775  25.3274  25.3282
    25.3906  25.3934  25.4585  25.5095  25.6275  25.6332  25.6447  25.6573
    25.7037  26.0816  26.1299  26.5275  26.6497  26.9604  27.0712  27.1449
    27.1617  27.2626  28.1892

          k = 0.0558 0.1675 0.3908 ( 29716 PWs)   bands (ev):

   -49.4820 -49.4537 -49.4064 -49.3880 -49.3863 -49.3708 -49.3679 -49.3549
   -49.3508 -49.3479 -49.3426 -49.3399 -49.3367 -49.3339 -49.3222 -49.3208
   -49.3199 -49.3190 -49.3141 -49.3024 -49.2989 -49.2948 -49.2921 -49.2894
   -49.2841 -49.2836 -49.2821 -49.2787 -49.2746 -49.2740 -49.2719 -49.2716
   -19.8784 -19.8716 -19.8452 -19.8243 -19.8094 -19.8086 -19.7970 -19.7870
   -19.7844 -19.7518 -19.7429 -19.7379 -19.7245 -19.6959 -19.6903 -19.6771
   -19.6765 -19.6740 -19.6699 -19.6593 -19.6350 -19.6201 -19.6185 -19.5984
   -19.5738 -19.5571 -19.5512 -19.5306 -19.5294 -19.4983 -19.4736 -19.4718
   -19.4660 -19.4521 -19.4429 -19.4238 -19.4073 -19.3938 -19.3937 -19.3755
   -19.3494 -19.3185 -19.2594 -19.2574 -19.2541 -19.2495 -19.2476 -19.2433
   -19.2375 -19.2277 -19.2274 -19.2015 -19.1948 -19.1907 -19.1892 -19.1862
   -19.1812 -19.1798 -19.1723 -19.1651 -19.1434 -19.1419 -19.1419 -19.1316
   -19.1275 -19.1258 -19.1252 -19.1249 -19.1246 -19.1183 -19.1182 -19.0906
   -19.0881 -19.0834 -19.0671 -19.0635 -19.0584 -19.0570 -19.0563 -19.0501
   -19.0473 -19.0443 -19.0287 -19.0282 -19.0240 -19.0206 -19.0160 -19.0105
   -19.0023 -18.9961 -18.9820 -18.9709 -18.9660 -18.9515 -18.9230 -18.9057
    16.2784  16.9578  17.5624  17.6051  17.6260  17.7757  17.8600  17.9254
    17.9637  17.9761  18.0063  18.0117  18.0642  18.0877  18.1074  18.1345
    18.2086  18.2781  18.2917  18.3186  18.4417  18.4525  18.4834  18.5240
    18.5271  18.5630  18.6364  18.6863  18.6870  18.7243  18.8696  18.8890
    18.9544  18.9671  19.0213  19.0240  19.1334  19.3377  19.3449  19.3690
    19.3766  19.4758  19.4876  19.5489  19.5524  19.5905  19.6171  19.6292
    19.6666  19.6673  19.8202  19.8265  19.8295  19.9423  20.0898  20.1007
    20.1106  20.1690  20.3723  20.3941  20.4244  20.4658  20.4810  20.5012
    20.5261  20.5583  20.5714  20.6410  20.6450  20.6574  20.6939  20.7280
    20.8222  20.8253  20.8652  21.0546  21.1180  21.1535  21.1719  21.2079
    21.2710  21.2937  21.2971  21.3133  21.3161  21.3200  21.3314  21.3700
    21.4655  21.5490  21.6107  21.6279  21.6883  21.7010  21.7885  21.8196
    22.0462  22.1340  22.1809  22.2540  22.2648  22.3200  22.4292  22.5045
    22.5218  22.5524  22.5850  22.6057  22.6070  22.6126  22.6791  22.7484
    22.8191  22.8728  22.9715  23.0012  23.0200  23.0864  23.1142  23.1323
    23.1586  23.2523  23.2968  23.3073  23.4039  23.4358  23.4480  23.5240
    23.5699  23.6114  23.7596  23.7960  23.8448  23.8468  23.9213  23.9381
    24.1303  24.1569  24.2248  24.3213  24.4485  24.4487  24.4706  24.4789
    24.5021  24.5141  24.5273  24.6225  24.6350  24.7197  24.7228  24.8217
    24.8994  25.0076  25.0137  25.0745  25.0755  25.0757  25.0814  25.0894
    25.2322  25.2365  25.3073  25.5556  25.6248  25.6284  25.6349  25.6398
    25.6402  25.8232  26.1110  26.3473  26.3776  26.5272  26.6954  26.8955
    27.3833  27.7103  28.0082

          k = 0.0558 0.1675-0.5025 ( 29730 PWs)   bands (ev):

   -49.4692 -49.4690 -49.3981 -49.3979 -49.3794 -49.3792 -49.3621 -49.3619
   -49.3459 -49.3457 -49.3455 -49.3454 -49.3355 -49.3353 -49.3211 -49.3209
   -49.3164 -49.3162 -49.3053 -49.3051 -49.2926 -49.2924 -49.2907 -49.2905
   -49.2880 -49.2878 -49.2836 -49.2834 -49.2744 -49.2742 -49.2718 -49.2716
   -19.8418 -19.8418 -19.8328 -19.8328 -19.8012 -19.8011 -19.7788 -19.7786
   -19.7769 -19.7768 -19.7767 -19.7766 -19.7357 -19.7356 -19.6863 -19.6863
   -19.6781 -19.6780 -19.6769 -19.6769 -19.6202 -19.6202 -19.5967 -19.5965
   -19.5642 -19.5641 -19.5561 -19.5560 -19.5088 -19.5087 -19.4731 -19.4730
   -19.4417 -19.4415 -19.4254 -19.4252 -19.4236 -19.4235 -19.3843 -19.3842
   -19.3530 -19.3529 -19.2585 -19.2584 -19.2479 -19.2478 -19.2212 -19.2210
   -19.2060 -19.2058 -19.2022 -19.2020 -19.1952 -19.1952 -19.1745 -19.1744
   -19.1640 -19.1639 -19.1569 -19.1569 -19.1541 -19.1540 -19.1519 -19.1519
   -19.1505 -19.1503 -19.1211 -19.1210 -19.1135 -19.1133 -19.0938 -19.0936
   -19.0915 -19.0914 -19.0759 -19.0758 -19.0745 -19.0744 -19.0523 -19.0521
   -19.0476 -19.0475 -19.0409 -19.0408 -19.0260 -19.0258 -19.0061 -19.0059
   -19.0057 -19.0056 -18.9708 -18.9708 -18.9450 -18.9448 -18.9260 -18.9259
    16.5925  16.5927  17.7379  17.7381  17.8183  17.8184  17.8532  17.8534
    17.9660  17.9660  18.0638  18.0638  18.1112  18.1114  18.2068  18.2068
    18.2205  18.2207  18.2463  18.2463  18.3337  18.3339  18.3865  18.3866
    18.4183  18.4184  18.5809  18.5810  18.7634  18.7636  18.7816  18.7816
    19.0706  19.0707  19.0933  19.0935  19.1494  19.1495  19.2346  19.2347
    19.4998  19.4998  19.5289  19.5291  19.5614  19.5615  19.6024  19.6024
    19.6750  19.6751  19.7343  19.7344  19.7451  19.7452  20.2221  20.2222
    20.2922  20.2924  20.2997  20.2999  20.3522  20.3523  20.4247  20.4247
    20.5646  20.5648  20.5968  20.5969  20.7658  20.7659  20.8097  20.8098
    20.8768  20.8769  20.9247  20.9247  20.9761  20.9762  21.1638  21.1638
    21.2755  21.2755  21.3723  21.3723  21.4524  21.4526  21.4603  21.4605
    21.4902  21.4903  21.5230  21.5230  21.9681  21.9682  22.0124  22.0124
    22.0437  22.0438  22.0939  22.0940  22.2566  22.2567  22.2605  22.2607
    22.5252  22.5253  22.7097  22.7098  22.7270  22.7272  22.7847  22.7849
    22.7849  22.7849  22.8486  22.8488  22.9140  22.9142  23.0241  23.0243
    23.2260  23.2262  23.2482  23.2484  23.3569  23.3570  23.6300  23.6301
    23.6665  23.6667  23.6677  23.6679  23.7369  23.7371  24.1998  24.1999
    24.2867  24.2868  24.2982  24.2982  24.5243  24.5243  24.5798  24.5798
    24.7090  24.7092  24.7639  24.7640  24.7644  24.7645  24.7862  24.7864
    24.7869  24.7870  24.7944  24.7945  24.8083  24.8084  25.0018  25.0018
    25.1452  25.1453  25.5801  25.5801  25.6317  25.6319  25.6370  25.6372
    25.8751  25.8753  26.1096  26.1098  26.1204  26.1204  26.6606  26.6608
    27.7400  27.7402  28.1701

          k = 0.0558 0.2792 0.2792 ( 29736 PWs)   bands (ev):

   -49.4854 -49.4313 -49.4313 -49.3906 -49.3883 -49.3696 -49.3595 -49.3595
   -49.3457 -49.3457 -49.3444 -49.3362 -49.3362 -49.3357 -49.3194 -49.3194
   -49.3188 -49.3187 -49.3095 -49.3095 -49.3045 -49.3045 -49.2904 -49.2816
   -49.2816 -49.2810 -49.2810 -49.2786 -49.2786 -49.2741 -49.2741 -49.2718
   -19.8904 -19.8904 -19.8524 -19.8307 -19.8177 -19.8091 -19.8091 -19.7465
   -19.7465 -19.7423 -19.7423 -19.7028 -19.7028 -19.6792 -19.6792 -19.6745
   -19.6745 -19.6720 -19.6720 -19.6637 -19.6637 -19.6353 -19.6353 -19.6351
   -19.6195 -19.6195 -19.5342 -19.5259 -19.4971 -19.4971 -19.4765 -19.4765
   -19.4678 -19.4607 -19.4252 -19.4251 -19.3497 -19.3497 -19.3489 -19.3198
   -19.3198 -19.3142 -19.3142 -19.2792 -19.2792 -19.2567 -19.2567 -19.2438
   -19.2438 -19.2377 -19.2375 -19.2374 -19.2227 -19.2227 -19.2002 -19.2002
   -19.1816 -19.1816 -19.1797 -19.1797 -19.1425 -19.1425 -19.1403 -19.1403
   -19.1253 -19.1252 -19.1238 -19.1147 -19.0928 -19.0928 -19.0914 -19.0841
   -19.0841 -19.0812 -19.0809 -19.0809 -19.0527 -19.0527 -19.0510 -19.0509
   -19.0482 -19.0403 -19.0261 -19.0242 -19.0242 -19.0220 -19.0139 -19.0139
   -19.0086 -18.9963 -18.9963 -18.9655 -18.9654 -18.9527 -18.9178 -18.8917
    16.1953  17.4727  17.4727  17.5329  17.5462  17.5462  17.6941  17.7790
    17.9463  17.9463  17.9743  17.9743  18.0828  18.1847  18.2299  18.2299
    18.3386  18.3590  18.3590  18.4116  18.4185  18.4185  18.4776  18.4776
    18.5531  18.5531  18.6035  18.6035  18.8096  18.9081  18.9081  18.9280
    18.9280  18.9450  18.9450  19.0389  19.0389  19.1418  19.1418  19.2254
    19.2254  19.3387  19.4894  19.4894  19.5614  19.5641  19.5641  19.8016
    19.8016  19.8151  19.8152  19.8627  19.8627  19.8759  19.9288  20.2768
    20.2768  20.3809  20.3809  20.4625  20.4625  20.5422  20.5422  20.5897
    20.5897  20.6005  20.6005  20.6757  20.6891  20.7657  20.7657  20.8564
    20.8602  20.9350  20.9350  21.0881  21.0915  21.0915  21.1446  21.1686
    21.1808  21.2248  21.2248  21.2358  21.2696  21.2842  21.2842  21.2893
    21.4564  21.4564  21.5766  21.5766  21.8134  21.8135  21.9550  21.9550
    22.0123  22.0123  22.1291  22.1292  22.1363  22.2128  22.2325  22.2325
    22.2727  22.2727  22.4511  22.4771  22.6263  22.6414  22.6414  22.6531
    22.6531  22.7835  22.8429  22.9788  22.9788  23.1331  23.1500  23.1500
    23.4412  23.4437  23.4437  23.5763  23.5764  23.6024  23.6025  23.7117
    23.7157  23.7268  23.7268  23.8177  23.8177  23.9203  23.9203  23.9277
    23.9277  23.9841  23.9841  24.2530  24.2807  24.2807  24.3359  24.4303
    24.4303  24.4376  24.4568  24.4568  24.6174  24.6728  24.8503  24.8503
    25.0590  25.1890  25.1890  25.2061  25.2160  25.2160  25.2243  25.2489
    25.3963  25.3963  25.3978  25.3978  25.4396  25.4397  25.4475  25.4475
    25.5500  25.9074  26.0154  26.0154  26.5412  26.5412  27.6017  27.6017
    27.8752  27.9137  27.9137

          k = 0.0558 0.2792 0.3908 ( 29719 PWs)   bands (ev):

   -49.4756 -49.4482 -49.4239 -49.4033 -49.3831 -49.3685 -49.3653 -49.3567
   -49.3531 -49.3491 -49.3439 -49.3388 -49.3332 -49.3246 -49.3192 -49.3158
   -49.3143 -49.3111 -49.3070 -49.3066 -49.3006 -49.2971 -49.2914 -49.2862
   -49.2860 -49.2853 -49.2853 -49.2810 -49.2795 -49.2770 -49.2733 -49.2722
   -19.8682 -19.8652 -19.8145 -19.7941 -19.7928 -19.7901 -19.7886 -19.7884
   -19.7756 -19.7379 -19.7378 -19.7362 -19.7223 -19.7207 -19.7031 -19.7010
   -19.7002 -19.6871 -19.6827 -19.6798 -19.6587 -19.6554 -19.6375 -19.6315
   -19.6246 -19.5935 -19.5615 -19.5600 -19.5286 -19.5030 -19.4570 -19.4469
   -19.4359 -19.4143 -19.4046 -19.3834 -19.3819 -19.3800 -19.3579 -19.3483
   -19.3061 -19.3058 -19.2870 -19.2731 -19.2645 -19.2614 -19.2430 -19.2400
   -19.2292 -19.2252 -19.2223 -19.2118 -19.2071 -19.2057 -19.1913 -19.1853
   -19.1749 -19.1734 -19.1727 -19.1716 -19.1637 -19.1506 -19.1394 -19.1357
   -19.1321 -19.1279 -19.1133 -19.1127 -19.1126 -19.1047 -19.1039 -19.1025
   -19.0897 -19.0788 -19.0764 -19.0702 -19.0662 -19.0652 -19.0631 -19.0624
   -19.0596 -19.0426 -19.0374 -19.0338 -19.0327 -19.0295 -19.0276 -19.0148
   -19.0011 -19.0008 -18.9840 -18.9522 -18.9448 -18.9375 -18.9352 -18.8996
    16.4341  17.0924  17.6524  17.6778  17.6925  17.7309  17.8005  17.8994
    18.0594  18.0831  18.1023  18.1286  18.1355  18.1416  18.1573  18.1667
    18.2190  18.2265  18.2879  18.2889  18.3457  18.3724  18.4006  18.4238
    18.4245  18.4854  18.6243  18.6376  18.6456  18.6459  18.6931  18.7553
    18.8323  18.9397  18.9988  19.0446  19.0679  19.0705  19.1029  19.1074
    19.2058  19.3006  19.3206  19.4075  19.4477  19.5619  19.5766  19.6059
    19.6945  19.7753  19.8919  19.9023  19.9282  19.9470  20.1157  20.1831
    20.2027  20.2241  20.3289  20.4695  20.5374  20.5383  20.6432  20.6485
    20.6815  20.7005  20.7031  20.7828  20.8403  20.8417  20.8448  20.9805
    20.9815  21.0580  21.0728  21.0877  21.1062  21.1162  21.1995  21.2510
    21.2939  21.3001  21.3361  21.3578  21.3700  21.4382  21.4695  21.4767
    21.4857  21.5529  21.5872  21.6163  21.6900  21.7553  21.8150  21.9003
    21.9639  21.9684  22.0036  22.0373  22.0616  22.0881  22.1127  22.1355
    22.2468  22.2566  22.2790  22.3284  22.4479  22.4819  22.4962  22.5629
    22.6638  22.6714  22.8388  22.8637  22.9926  23.0278  23.1214  23.1995
    23.3442  23.3752  23.3864  23.4406  23.5115  23.5997  23.6642  23.6735
    23.7551  23.7947  23.8436  23.9484  23.9586  23.9741  24.0478  24.1119
    24.1632  24.1649  24.3244  24.3248  24.3261  24.3743  24.5579  24.6057
    24.6253  24.6421  24.6807  24.6872  24.7020  24.7099  24.7108  24.7527
    24.8284  24.9813  25.0507  25.0684  25.0694  25.0820  25.1018  25.1067
    25.1138  25.1834  25.3900  25.4036  25.4090  25.4230  25.4768  25.5160
    25.8474  25.9686  25.9851  26.0086  26.0554  26.3826  27.2636  27.2875
    28.0455  28.2233  28.5522

          k = 0.0558 0.2792-0.5025 ( 29700 PWs)   bands (ev):

   -49.4632 -49.4630 -49.4146 -49.4144 -49.3765 -49.3763 -49.3598 -49.3596
   -49.3533 -49.3532 -49.3416 -49.3414 -49.3293 -49.3292 -49.3134 -49.3132
   -49.3104 -49.3102 -49.3042 -49.3040 -49.2955 -49.2953 -49.2928 -49.2926
   -49.2908 -49.2906 -49.2808 -49.2807 -49.2804 -49.2802 -49.2728 -49.2726
   -19.8356 -19.8356 -19.8307 -19.8306 -19.7697 -19.7696 -19.7657 -19.7655
   -19.7607 -19.7605 -19.7396 -19.7395 -19.7322 -19.7321 -19.7245 -19.7244
   -19.7221 -19.7220 -19.6949 -19.6948 -19.6441 -19.6440 -19.6360 -19.6358
   -19.5999 -19.5998 -19.5545 -19.5545 -19.5485 -19.5484 -19.4183 -19.4182
   -19.4158 -19.4158 -19.3965 -19.3964 -19.3788 -19.3787 -19.3597 -19.3596
   -19.3399 -19.3397 -19.2418 -19.2416 -19.2387 -19.2386 -19.2366 -19.2364
   -19.2265 -19.2265 -19.2243 -19.2243 -19.2112 -19.2112 -19.2013 -19.2011
   -19.1711 -19.1710 -19.1617 -19.1616 -19.1448 -19.1447 -19.1433 -19.1432
   -19.1251 -19.1249 -19.1190 -19.1190 -19.1148 -19.1147 -19.1016 -19.1016
   -19.0877 -19.0875 -19.0719 -19.0717 -19.0704 -19.0702 -19.0702 -19.0701
   -19.0594 -19.0592 -19.0470 -19.0469 -19.0322 -19.0320 -19.0124 -19.0123
   -19.0074 -19.0072 -18.9575 -18.9573 -18.9448 -18.9448 -18.9152 -18.9152
    16.7381  16.7383  17.8699  17.8699  17.8700  17.8701  17.8773  17.8775
    17.9589  17.9589  17.9608  17.9610  18.0700  18.0700  18.2259  18.2261
    18.2810  18.2811  18.3559  18.3559  18.3753  18.3753  18.3979  18.3980
    18.4229  18.4230  18.5183  18.5183  18.5424  18.5425  18.6666  18.6668
    18.8524  18.8526  18.9569  18.9570  19.0704  19.0704  19.1984  19.1986
    19.2089  19.2090  19.3427  19.3428  19.4564  19.4565  19.4917  19.4917
    19.8647  19.8647  19.9349  19.9350  20.0336  20.0338  20.0385  20.0385
    20.0686  20.0688  20.3456  20.3458  20.5960  20.5961  20.7192  20.7193
    20.7439  20.7439  20.8201  20.8202  20.8509  20.8509  20.8818  20.8819
    20.9666  20.9666  21.1307  21.1307  21.2435  21.2436  21.3314  21.3315
    21.3348  21.3348  21.4137  21.4138  21.4516  21.4518  21.4682  21.4683
    21.6422  21.6423  21.6844  21.6844  21.6975  21.6976  21.7075  21.7075
    21.8902  21.8903  21.8976  21.8976  21.9896  21.9897  21.9972  21.9973
    22.2143  22.2144  22.4502  22.4502  22.5947  22.5949  22.6268  22.6268
    22.6568  22.6569  22.6993  22.6994  22.8127  22.8129  23.0127  23.0129
    23.2030  23.2032  23.5280  23.5281  23.5684  23.5686  23.6348  23.6350
    23.7797  23.7799  24.0387  24.0389  24.0786  24.0787  24.1987  24.1989
    24.2955  24.2956  24.3700  24.3700  24.4556  24.4556  24.4573  24.4573
    24.7152  24.7152  24.7157  24.7158  24.8236  24.8237  24.8921  24.8922
    24.8925  24.8926  24.9147  24.9147  24.9349  24.9350  24.9368  24.9368
    25.0425  25.0425  25.4114  25.4116  25.4333  25.4334  25.4800  25.4800
    25.6333  25.6335  26.1849  26.1851  26.5910  26.5912  26.6765  26.6765
    28.4158  28.4160  28.7461

          k = 0.0558 0.3908 0.3908 ( 29752 PWs)   bands (ev):

   -49.4663 -49.4401 -49.4401 -49.4173 -49.3783 -49.3649 -49.3649 -49.3614
   -49.3551 -49.3505 -49.3505 -49.3432 -49.3169 -49.3169 -49.3106 -49.3106
   -49.3100 -49.3099 -49.3030 -49.3030 -49.3005 -49.3005 -49.2905 -49.2905
   -49.2899 -49.2899 -49.2876 -49.2876 -49.2815 -49.2755 -49.2755 -49.2730
   -19.8477 -19.8477 -19.7824 -19.7824 -19.7802 -19.7802 -19.7758 -19.7684
   -19.7627 -19.7627 -19.7448 -19.7352 -19.7352 -19.7251 -19.7251 -19.6998
   -19.6998 -19.6853 -19.6853 -19.6838 -19.6838 -19.6828 -19.6828 -19.6437
   -19.6437 -19.6416 -19.6010 -19.5540 -19.5484 -19.4926 -19.4926 -19.4178
   -19.3964 -19.3964 -19.3603 -19.3603 -19.3549 -19.3216 -19.3216 -19.3060
   -19.3060 -19.3048 -19.3048 -19.2875 -19.2875 -19.2378 -19.2378 -19.2367
   -19.2366 -19.2219 -19.2219 -19.2140 -19.2126 -19.2125 -19.2091 -19.2091
   -19.1951 -19.1950 -19.1633 -19.1633 -19.1547 -19.1547 -19.1509 -19.1417
   -19.1417 -19.1165 -19.1165 -19.1127 -19.1042 -19.1042 -19.1042 -19.1042
   -19.0859 -19.0807 -19.0807 -19.0790 -19.0790 -19.0721 -19.0639 -19.0568
   -19.0505 -19.0447 -19.0407 -19.0385 -19.0385 -19.0313 -19.0264 -19.0080
   -19.0080 -19.0030 -19.0030 -18.9530 -18.9312 -18.9280 -18.9280 -18.9010
    16.6610  17.2875  17.2875  17.7962  17.8226  17.8718  17.8797  17.8797
    17.9827  18.1487  18.1487  18.1749  18.1749  18.1816  18.2526  18.2526
    18.2606  18.2606  18.2777  18.2777  18.3183  18.3183  18.3184  18.3780
    18.3781  18.4449  18.4989  18.5627  18.5627  18.7726  18.7726  18.7759
    18.7759  18.7776  18.7776  18.7863  18.7863  19.0268  19.0268  19.0337
    19.0337  19.0940  19.0940  19.3454  19.3454  19.4861  19.6845  19.6846
    19.6884  19.6884  19.8719  20.0217  20.0217  20.0434  20.0674  20.1213
    20.1213  20.4534  20.4692  20.4692  20.6297  20.7478  20.7478  20.8489
    20.8766  20.8766  20.8834  20.8834  20.8843  20.8843  20.9262  20.9262
    20.9969  21.0396  21.2176  21.2176  21.3137  21.3137  21.3164  21.3686
    21.3698  21.3932  21.3949  21.4337  21.4863  21.4863  21.5290  21.5290
    21.6650  21.6650  21.6806  21.6806  21.6981  21.7132  21.7132  21.7809
    21.8412  21.8412  21.8834  21.8834  21.8941  21.9071  21.9593  21.9593
    21.9830  21.9830  22.1149  22.1859  22.1859  22.2181  22.2182  22.5021
    22.6564  22.6564  22.6725  22.6725  22.7688  22.7688  22.8336  22.9149
    23.2330  23.5715  23.6186  23.6186  23.6444  23.6444  23.9179  23.9179
    23.9272  23.9272  24.0296  24.0296  24.0907  24.0907  24.1616  24.2025
    24.3498  24.3498  24.4606  24.4868  24.4868  24.5049  24.5049  24.5147
    24.5147  24.6038  24.7132  24.8142  24.8530  24.8741  24.8741  24.8772
    24.8772  24.9238  24.9852  25.0448  25.0448  25.0931  25.0931  25.1086
    25.1086  25.1358  25.1393  25.1393  25.1566  25.1566  25.3320  25.3593
    25.3593  25.6923  25.8652  25.8652  26.6429  26.6429  27.9476  27.9476
    28.0089  28.0089  28.7267

          k = 0.0558 0.3908-0.5025 ( 29732 PWs)   bands (ev):

   -49.4544 -49.4543 -49.4298 -49.4296 -49.3723 -49.3721 -49.3605 -49.3603
   -49.3565 -49.3563 -49.3473 -49.3471 -49.3141 -49.3139 -49.3063 -49.3061
   -49.3049 -49.3047 -49.3026 -49.3024 -49.2982 -49.2980 -49.2960 -49.2958
   -49.2948 -49.2947 -49.2892 -49.2891 -49.2783 -49.2781 -49.2742 -49.2741
   -19.8197 -19.8196 -19.8178 -19.8178 -19.7623 -19.7622 -19.7622 -19.7622
   -19.7458 -19.7457 -19.7371 -19.7369 -19.7313 -19.7312 -19.7268 -19.7267
   -19.7084 -19.7083 -19.6956 -19.6955 -19.6851 -19.6849 -19.6718 -19.6716
   -19.6431 -19.6430 -19.5966 -19.5965 -19.5265 -19.5265 -19.4551 -19.4551
   -19.3581 -19.3580 -19.3489 -19.3488 -19.3355 -19.3353 -19.3209 -19.3207
   -19.2952 -19.2952 -19.2685 -19.2683 -19.2643 -19.2641 -19.2625 -19.2624
   -19.2541 -19.2541 -19.2177 -19.2176 -19.2026 -19.2025 -19.1950 -19.1949
   -19.1792 -19.1790 -19.1727 -19.1727 -19.1708 -19.1708 -19.1526 -19.1525
   -19.1312 -19.1311 -19.1305 -19.1303 -19.0971 -19.0969 -19.0931 -19.0931
   -19.0929 -19.0929 -19.0850 -19.0849 -19.0601 -19.0599 -19.0555 -19.0554
   -19.0515 -19.0514 -19.0460 -19.0458 -19.0276 -19.0275 -19.0223 -19.0222
   -19.0172 -19.0171 -18.9759 -18.9757 -18.9256 -18.9256 -18.9106 -18.9106
    16.9499  16.9501  17.5347  17.5349  17.9626  17.9627  17.9887  17.9888
    18.0603  18.0604  18.1093  18.1093  18.1136  18.1138  18.1542  18.1543
    18.2869  18.2869  18.2880  18.2881  18.3963  18.3964  18.4933  18.4935
    18.4949  18.4950  18.5341  18.5341  18.5383  18.5383  18.5712  18.5714
    18.7515  18.7516  18.7757  18.7758  18.8901  18.8903  18.9359  18.9359
    18.9601  18.9602  19.2524  19.2525  19.4738  19.4740  19.4896  19.4898
    19.8349  19.8350  19.8456  19.8457  20.1011  20.1011  20.1932  20.1933
    20.3103  20.3104  20.4036  20.4036  20.5853  20.5855  20.8432  20.8434
    20.9040  20.9040  20.9549  20.9550  21.0577  21.0577  21.1101  21.1101
    21.2224  21.2226  21.2465  21.2465  21.2751  21.2751  21.4321  21.4322
    21.4346  21.4346  21.4561  21.4562  21.4804  21.4805  21.5116  21.5117
    21.5825  21.5825  21.6182  21.6182  21.6408  21.6408  21.6676  21.6677
    21.7701  21.7702  21.7770  21.7770  21.9251  21.9252  21.9506  21.9507
    21.9575  21.9576  22.1286  22.1286  22.3793  22.3795  22.3819  22.3819
    22.4225  22.4226  22.4426  22.4427  22.5978  22.5980  22.7831  22.7833
    23.4397  23.4399  23.7147  23.7148  23.8289  23.8290  23.8747  23.8749
    23.9029  23.9031  24.1480  24.1481  24.2238  24.2240  24.2444  24.2445
    24.3226  24.3226  24.4062  24.4064  24.5233  24.5233  24.6671  24.6673
    24.7334  24.7335  24.8266  24.8267  24.8960  24.8960  24.8985  24.8986
    24.9159  24.9160  24.9844  24.9844  24.9875  24.9875  25.0239  25.0239
    25.0285  25.0286  25.1107  25.1109  25.1655  25.1656  25.2262  25.2263
    25.3454  25.3454  25.7111  25.7112  27.3063  27.3065  27.3073  27.3073
    28.6711  28.6713  28.7387

          k = 0.0558-0.5025-0.5025 ( 29760 PWs)   bands (ev):

   -49.4433 -49.4431 -49.4431 -49.4429 -49.3670 -49.3668 -49.3668 -49.3666
   -49.3524 -49.3522 -49.3522 -49.3520 -49.3007 -49.3007 -49.3005 -49.3005
   -49.3005 -49.3005 -49.3004 -49.3003 -49.3001 -49.3001 -49.3000 -49.3000
   -49.2999 -49.2999 -49.2998 -49.2998 -49.2762 -49.2760 -49.2760 -49.2758
   -19.7948 -19.7948 -19.7947 -19.7947 -19.7947 -19.7947 -19.7946 -19.7946
   -19.7191 -19.7191 -19.7189 -19.7189 -19.7189 -19.7189 -19.7188 -19.7188
   -19.7070 -19.7068 -19.7068 -19.7066 -19.6882 -19.6881 -19.6881 -19.6880
   -19.6470 -19.6469 -19.6469 -19.6468 -19.4919 -19.4919 -19.4919 -19.4919
   -19.3034 -19.3034 -19.3034 -19.3034 -19.3034 -19.3034 -19.3034 -19.3034
   -19.2970 -19.2970 -19.2968 -19.2968 -19.2968 -19.2968 -19.2966 -19.2966
   -19.2323 -19.2322 -19.2322 -19.2322 -19.1876 -19.1876 -19.1874 -19.1874
   -19.1874 -19.1874 -19.1873 -19.1873 -19.1844 -19.1844 -19.1844 -19.1844
   -19.1136 -19.1136 -19.1135 -19.1135 -19.1135 -19.1135 -19.1133 -19.1133
   -19.0764 -19.0763 -19.0763 -19.0762 -19.0615 -19.0615 -19.0615 -19.0615
   -19.0378 -19.0378 -19.0378 -19.0378 -19.0331 -19.0329 -19.0329 -19.0329
   -18.9996 -18.9994 -18.9994 -18.9992 -18.9140 -18.9140 -18.9140 -18.9140
    17.2195  17.2197  17.2197  17.2199  18.0546  18.0547  18.0547  18.0547
    18.1017  18.1018  18.1018  18.1018  18.1816  18.1817  18.1817  18.1817
    18.2989  18.2989  18.2991  18.2991  18.2991  18.2991  18.2993  18.2993
    18.6194  18.6194  18.6196  18.6196  18.6196  18.6196  18.6198  18.6198
    18.7340  18.7340  18.7340  18.7340  18.7340  18.7340  18.7340  18.7340
    18.9955  18.9956  18.9956  18.9957  19.6432  19.6432  19.6433  19.6434
    19.6434  19.6434  19.6435  19.6435  20.2296  20.2296  20.2296  20.2297
    20.4682  20.4684  20.4684  20.4685  20.7576  20.7577  20.7577  20.7578
    20.9851  20.9851  20.9851  20.9852  21.0003  21.0003  21.0003  21.0003
    21.3595  21.3595  21.3595  21.3595  21.3595  21.3595  21.3595  21.3595
    21.4586  21.4587  21.4587  21.4588  21.5975  21.5975  21.5975  21.5976
    21.6126  21.6126  21.6126  21.6126  21.7567  21.7568  21.7568  21.7568
    21.7797  21.7798  21.7798  21.7798  21.7799  21.7799  21.7799  21.7799
    22.0558  22.0559  22.0559  22.0560  22.1766  22.1766  22.1767  22.1767
    22.1767  22.1767  22.1768  22.1768  22.6899  22.6900  22.6900  22.6902
    23.6837  23.6838  23.6839  23.6840  23.8927  23.8928  23.8928  23.8929
    24.1064  24.1064  24.1065  24.1066  24.1066  24.1066  24.1067  24.1067
    24.6368  24.6369  24.6369  24.6370  24.7669  24.7669  24.7670  24.7670
    24.7670  24.7671  24.7672  24.7672  24.7693  24.7693  24.7694  24.7695
    25.0102  25.0103  25.0103  25.0104  25.0385  25.0385  25.0385  25.0386
    25.0386  25.0386  25.0386  25.0386  25.0494  25.0495  25.0495  25.0495
    25.3085  25.3086  25.3086  25.3087  28.0044  28.0044  28.0045  28.0045
    28.0045  28.0045  28.0046

          k = 0.1675 0.1675 0.1675 ( 29695 PWs)   bands (ev):

   -49.4955 -49.4152 -49.4152 -49.4152 -49.3636 -49.3635 -49.3635 -49.3561
   -49.3561 -49.3561 -49.3413 -49.3259 -49.3259 -49.3259 -49.3259 -49.3258
   -49.3258 -49.3253 -49.3253 -49.3252 -49.3040 -49.3040 -49.3040 -49.2751
   -49.2750 -49.2750 -49.2745 -49.2745 -49.2745 -49.2745 -49.2744 -49.2744
   -19.9089 -19.9089 -19.9089 -19.8710 -19.8397 -19.8397 -19.8397 -19.6989
   -19.6989 -19.6989 -19.6793 -19.6793 -19.6793 -19.6792 -19.6792 -19.6792
   -19.6578 -19.6578 -19.6578 -19.6578 -19.6578 -19.6578 -19.5889 -19.5889
   -19.5889 -19.5464 -19.5464 -19.5464 -19.4962 -19.4962 -19.4962 -19.4962
   -19.4962 -19.4962 -19.4092 -19.4092 -19.4092 -19.3170 -19.3170 -19.3170
   -19.2930 -19.2930 -19.2930 -19.2930 -19.2930 -19.2929 -19.2892 -19.2892
   -19.2892 -19.2487 -19.2487 -19.2487 -19.2433 -19.2433 -19.2433 -19.2433
   -19.2433 -19.2433 -19.1762 -19.1762 -19.1762 -19.1306 -19.1306 -19.1306
   -19.1195 -19.1195 -19.1194 -19.0763 -19.0763 -19.0763 -19.0687 -19.0687
   -19.0687 -19.0514 -19.0514 -19.0514 -19.0514 -19.0514 -19.0514 -19.0404
   -19.0404 -19.0404 -19.0238 -19.0238 -19.0238 -19.0173 -19.0173 -19.0173
   -19.0147 -19.0147 -18.9802 -18.9802 -18.9802 -18.9558 -18.8917 -18.8917
    15.9462  17.3741  17.3741  17.3741  17.5639  17.7204  17.7204  17.7204
    17.7713  17.7713  17.7713  17.8429  17.8429  17.8429  18.2469  18.2469
    18.2470  18.6031  18.6031  18.6031  18.6031  18.6032  18.6032  18.6693
    18.6693  18.6693  18.8019  18.8019  18.8019  19.0422  19.0422  19.0422
    19.0829  19.0829  19.0829  19.0829  19.0829  19.0829  19.4142  19.4142
    19.4142  19.4143  19.4143  19.4143  19.5861  19.5861  19.5861  19.9378
    19.9378  19.9378  20.0795  20.0795  20.0795  20.0795  20.0795  20.0795
    20.2423  20.2423  20.2423  20.3284  20.3284  20.3284  20.3284  20.3284
    20.3284  20.6169  20.6169  20.6169  20.8216  20.8216  20.8216  20.8247
    20.8516  20.8516  20.8516  20.8516  20.8516  20.8517  20.8730  20.8730
    20.8731  20.9333  20.9333  21.0730  21.0730  21.0730  21.0933  21.0933
    21.6316  21.6316  21.6316  21.9199  21.9199  21.9199  21.9966  21.9966
    21.9966  22.1706  22.1707  22.1707  22.3697  22.3698  22.3698  22.4273
    22.4273  22.4273  22.4274  22.4274  22.4274  22.8522  22.8522  22.8523
    23.0179  23.0180  23.0180  23.1433  23.1434  23.1434  23.1805  23.1805
    23.1805  23.2425  23.2425  23.2425  23.2425  23.2425  23.2426  23.3375
    23.3375  23.6543  23.8296  23.8296  23.8296  23.8296  23.8296  23.8296
    24.0964  24.0964  24.0964  24.1058  24.1058  24.1058  24.2045  24.2045
    24.2045  24.5151  24.5151  24.5151  24.6938  24.6938  24.6938  24.8992
    24.8992  24.8992  24.9857  24.9857  25.2945  25.2945  25.2945  25.5250
    25.5250  25.5250  25.5250  25.5250  25.5250  25.6433  25.6433  25.6433
    26.1363  26.1363  26.1363  26.6155  26.6155  26.6155  27.7658  27.7658
    27.7658  27.7658  27.7658

          k = 0.1675 0.1675 0.2792 ( 29741 PWs)   bands (ev):

   -49.4887 -49.4338 -49.4108 -49.4108 -49.3755 -49.3755 -49.3617 -49.3535
   -49.3535 -49.3464 -49.3373 -49.3328 -49.3328 -49.3259 -49.3258 -49.3254
   -49.3253 -49.3203 -49.3140 -49.3139 -49.3058 -49.2972 -49.2971 -49.2818
   -49.2788 -49.2788 -49.2770 -49.2770 -49.2750 -49.2749 -49.2746 -49.2745
   -19.8979 -19.8869 -19.8869 -19.8364 -19.8242 -19.8242 -19.8158 -19.7497
   -19.7220 -19.7220 -19.6984 -19.6984 -19.6939 -19.6939 -19.6936 -19.6936
   -19.6740 -19.6740 -19.6614 -19.6614 -19.6591 -19.6591 -19.6350 -19.6163
   -19.5649 -19.5649 -19.5458 -19.5458 -19.5041 -19.5041 -19.4699 -19.4699
   -19.4540 -19.4540 -19.4436 -19.4436 -19.3540 -19.3540 -19.3473 -19.3317
   -19.3317 -19.3122 -19.3122 -19.2758 -19.2550 -19.2550 -19.2498 -19.2498
   -19.2439 -19.2439 -19.2424 -19.2424 -19.2407 -19.2378 -19.2223 -19.2223
   -19.2165 -19.2165 -19.1672 -19.1496 -19.1418 -19.1418 -19.1401 -19.1400
   -19.1400 -19.1096 -19.1092 -19.1092 -19.0971 -19.0971 -19.0862 -19.0862
   -19.0856 -19.0856 -19.0733 -19.0555 -19.0555 -19.0511 -19.0511 -19.0487
   -19.0457 -19.0457 -19.0343 -19.0343 -19.0208 -19.0067 -19.0028 -19.0028
   -18.9939 -18.9933 -18.9831 -18.9827 -18.9705 -18.9705 -18.9029 -18.8953
    16.1124  17.4031  17.4756  17.4891  17.4891  17.6211  17.8260  17.8260
    17.8666  17.8666  17.8749  17.9184  17.9760  17.9760  18.1431  18.3372
    18.3372  18.3747  18.3747  18.3806  18.5040  18.5040  18.5694  18.6571
    18.6571  18.7171  18.7171  18.7434  18.7434  18.8296  18.9299  18.9299
    18.9514  18.9514  18.9575  18.9575  19.0506  19.0506  19.1706  19.1706
    19.4256  19.4256  19.4500  19.4500  19.6611  19.6611  19.7946  19.7946
    19.8574  19.8610  19.8610  19.9122  19.9548  19.9548  20.1433  20.1433
    20.1584  20.1584  20.3347  20.3347  20.3433  20.3434  20.4525  20.5382
    20.5382  20.6478  20.7292  20.7358  20.7358  20.7876  20.7876  20.8568
    20.8568  20.8667  20.8667  20.9607  20.9798  20.9798  20.9802  20.9851
    21.1611  21.1757  21.1871  21.1871  21.2068  21.2138  21.4084  21.4084
    21.4593  21.4593  21.6579  21.6641  21.6641  21.6654  21.8995  21.9321
    21.9321  22.1086  22.1086  22.1255  22.1391  22.1391  22.4106  22.5364
    22.5364  22.5754  22.5754  22.6529  22.6800  22.6800  22.7753  22.7753
    22.8028  22.9322  22.9322  23.0113  23.0113  23.0341  23.0341  23.1578
    23.1755  23.1755  23.2062  23.2416  23.2417  23.3745  23.3994  23.4977
    23.5167  23.5167  23.8811  23.8811  23.9155  23.9444  23.9444  24.1707
    24.1708  24.1757  24.1757  24.1855  24.1855  24.2353  24.3218  24.3218
    24.3520  24.3520  24.3644  24.7193  24.7193  24.7275  24.7381  24.8121
    24.8936  24.9893  24.9893  25.1144  25.2332  25.2591  25.2591  25.3351
    25.3351  25.3372  25.3372  25.5309  25.5309  25.5471  25.6146  25.6146
    25.6467  25.6467  26.0187  26.8060  26.8060  27.2184  27.2184  27.3547
    27.5785  27.6674  27.6674

          k = 0.1675 0.1675 0.3908 ( 29696 PWs)   bands (ev):

   -49.4788 -49.4510 -49.4045 -49.4044 -49.3865 -49.3865 -49.3589 -49.3511
   -49.3498 -49.3498 -49.3393 -49.3392 -49.3258 -49.3257 -49.3255 -49.3254
   -49.3200 -49.3158 -49.3084 -49.3030 -49.3030 -49.2918 -49.2908 -49.2908
   -49.2851 -49.2851 -49.2806 -49.2806 -49.2749 -49.2748 -49.2746 -49.2745
   -19.8752 -19.8550 -19.8550 -19.8013 -19.8013 -19.7991 -19.7928 -19.7804
   -19.7694 -19.7694 -19.7373 -19.7373 -19.6994 -19.6994 -19.6885 -19.6883
   -19.6883 -19.6847 -19.6847 -19.6796 -19.6643 -19.6643 -19.6392 -19.6392
   -19.5886 -19.5886 -19.5045 -19.5045 -19.4985 -19.4985 -19.4726 -19.4726
   -19.4389 -19.4389 -19.4126 -19.4126 -19.3996 -19.3996 -19.3693 -19.3693
   -19.3407 -19.3407 -19.2816 -19.2561 -19.2417 -19.2416 -19.2415 -19.2414
   -19.2220 -19.2197 -19.2197 -19.2020 -19.2020 -19.2010 -19.1932 -19.1932
   -19.1850 -19.1850 -19.1772 -19.1683 -19.1620 -19.1620 -19.1599 -19.1229
   -19.1229 -19.1221 -19.1221 -19.1163 -19.1163 -19.1069 -19.1069 -19.1011
   -19.0938 -19.0938 -19.0688 -19.0647 -19.0647 -19.0563 -19.0532 -19.0532
   -19.0506 -19.0506 -19.0484 -19.0484 -19.0432 -19.0384 -18.9993 -18.9873
   -18.9864 -18.9864 -18.9686 -18.9686 -18.9652 -18.9519 -18.9192 -18.9071
    16.3544  17.0203  17.6191  17.6567  17.6567  17.7337  17.9770  17.9830
    17.9830  17.9996  17.9996  18.0307  18.0738  18.1167  18.1167  18.1183
    18.1708  18.1708  18.3309  18.3309  18.3595  18.4443  18.4443  18.4637
    18.4638  18.5695  18.7172  18.7172  18.7254  18.7254  18.7862  18.7862
    18.8762  18.8762  18.8782  18.8782  19.1195  19.1195  19.1838  19.1838
    19.4393  19.4393  19.5166  19.5166  19.5632  19.5632  19.6522  19.6522
    19.7424  19.7424  19.7681  19.7681  19.9864  20.0361  20.0361  20.1193
    20.2310  20.2310  20.2803  20.3833  20.3833  20.4398  20.4398  20.5689
    20.6006  20.6006  20.6051  20.6051  20.8482  20.8768  20.8768  20.8801
    20.8801  20.9529  21.0577  21.0577  21.0858  21.2482  21.2482  21.2837
    21.2916  21.2916  21.2918  21.2918  21.2986  21.3427  21.3427  21.3677
    21.3969  21.4259  21.5939  21.6072  21.6621  21.8647  21.8804  21.8804
    21.9809  21.9809  22.0106  22.0106  22.0650  22.0650  22.3132  22.3132
    22.4105  22.5440  22.6680  22.7124  22.7124  22.7306  22.7306  22.8951
    22.9105  22.9105  22.9174  22.9174  22.9565  22.9565  23.0272  23.0665
    23.0665  23.0911  23.0912  23.1981  23.1981  23.2987  23.2987  23.4906
    23.7414  23.7517  23.8481  23.8481  23.8496  23.8497  23.9897  23.9897
    24.2675  24.2675  24.4090  24.4090  24.4382  24.4828  24.4828  24.4834
    24.5000  24.5000  24.5251  24.5251  24.5707  24.5707  24.6387  25.0843
    25.0907  25.0907  25.0944  25.0951  25.0951  25.0996  25.0996  25.1824
    25.1824  25.3678  25.4169  25.4799  25.5125  25.5125  25.5413  25.5413
    25.5828  25.5828  25.8457  26.6544  26.6544  26.9077  27.0571  27.0571
    27.5141  27.5141  28.0383

          k = 0.1675 0.1675-0.5025 ( 29732 PWs)   bands (ev):

   -49.4662 -49.4660 -49.3964 -49.3964 -49.3962 -49.3962 -49.3554 -49.3552
   -49.3451 -49.3451 -49.3449 -49.3449 -49.3258 -49.3256 -49.3256 -49.3254
   -49.3119 -49.3117 -49.3048 -49.3046 -49.2934 -49.2934 -49.2932 -49.2932
   -49.2854 -49.2854 -49.2852 -49.2852 -49.2749 -49.2747 -49.2747 -49.2746
   -19.8418 -19.8417 -19.8152 -19.8151 -19.8151 -19.8150 -19.7722 -19.7722
   -19.7720 -19.7720 -19.7426 -19.7425 -19.7347 -19.7346 -19.6974 -19.6974
   -19.6973 -19.6973 -19.6738 -19.6738 -19.6737 -19.6737 -19.6143 -19.6143
   -19.6142 -19.6142 -19.4938 -19.4938 -19.4938 -19.4938 -19.4489 -19.4489
   -19.4489 -19.4489 -19.4052 -19.4052 -19.4050 -19.4050 -19.3745 -19.3745
   -19.3744 -19.3744 -19.2412 -19.2411 -19.2410 -19.2409 -19.2309 -19.2308
   -19.2182 -19.2181 -19.2017 -19.2015 -19.1884 -19.1884 -19.1883 -19.1882
   -19.1589 -19.1589 -19.1588 -19.1588 -19.1561 -19.1561 -19.1560 -19.1559
   -19.1529 -19.1529 -19.1529 -19.1529 -19.1019 -19.1018 -19.0782 -19.0782
   -19.0781 -19.0781 -19.0778 -19.0778 -19.0776 -19.0776 -19.0660 -19.0659
   -19.0632 -19.0630 -19.0499 -19.0498 -19.0498 -19.0496 -18.9928 -18.9927
   -18.9743 -18.9743 -18.9743 -18.9742 -18.9403 -18.9401 -18.9264 -18.9263
    16.6622  16.6624  17.7925  17.7927  17.8698  17.8699  17.8699  17.8701
    17.9004  17.9005  18.1586  18.1586  18.1588  18.1588  18.1784  18.1786
    18.1898  18.1898  18.1900  18.1900  18.3095  18.3095  18.4207  18.4207
    18.4209  18.4209  18.6174  18.6175  18.6175  18.6175  18.7994  18.7994
    18.7994  18.7994  19.0615  19.0615  19.0617  19.0617  19.3645  19.3645
    19.3646  19.3646  19.4638  19.4638  19.4639  19.4639  19.6178  19.6178
    19.6178  19.6178  19.8982  19.8982  19.8983  19.8983  20.1181  20.1182
    20.3334  20.3334  20.3335  20.3336  20.3606  20.3607  20.4753  20.4753
    20.4754  20.4754  20.8847  20.8847  20.8849  20.8849  20.9164  20.9165
    20.9300  20.9300  20.9300  20.9300  21.1560  21.1560  21.1561  21.1561
    21.2336  21.2336  21.4410  21.4411  21.4611  21.4612  21.4935  21.4935
    21.4936  21.4936  21.6167  21.6168  21.8791  21.8791  21.8792  21.8792
    21.9316  21.9316  22.0105  22.0105  22.0253  22.0253  22.0254  22.0255
    22.6455  22.6455  22.6455  22.6455  22.8242  22.8242  22.8244  22.8244
    22.8284  22.8286  22.9148  22.9148  22.9149  22.9149  23.0376  23.0376
    23.0377  23.0378  23.0889  23.0889  23.0890  23.0890  23.3902  23.3904
    23.6089  23.6091  24.1010  24.1010  24.1297  24.1297  24.1299  24.1299
    24.1837  24.1838  24.1839  24.1840  24.1842  24.1842  24.7584  24.7584
    24.7584  24.7585  24.8079  24.8079  24.8080  24.8080  24.8337  24.8337
    24.8337  24.8337  24.8432  24.8432  24.8433  24.8433  24.8903  24.8904
    25.2605  25.2605  25.5578  25.5580  25.5580  25.5581  25.6237  25.6239
    26.0808  26.0808  26.0808  26.0808  26.1896  26.1897  27.3059  27.3059
    27.3061  27.3061  28.6036

          k = 0.1675 0.2792 0.2792 ( 29714 PWs)   bands (ev):

   -49.4821 -49.4289 -49.4289 -49.4067 -49.3890 -49.3730 -49.3730 -49.3531
   -49.3511 -49.3353 -49.3353 -49.3322 -49.3322 -49.3270 -49.3194 -49.3193
   -49.3188 -49.3188 -49.3145 -49.3145 -49.2995 -49.2995 -49.2919 -49.2816
   -49.2816 -49.2811 -49.2810 -49.2795 -49.2795 -49.2765 -49.2764 -49.2751
   -19.8804 -19.8804 -19.8626 -19.8091 -19.8033 -19.8033 -19.7985 -19.7457
   -19.7457 -19.7333 -19.7333 -19.7047 -19.7047 -19.7003 -19.7003 -19.6918
   -19.6918 -19.6878 -19.6876 -19.6876 -19.6849 -19.6849 -19.6276 -19.6276
   -19.5914 -19.5914 -19.5869 -19.4954 -19.4742 -19.4742 -19.4725 -19.4617
   -19.4617 -19.4308 -19.4308 -19.3928 -19.3777 -19.3777 -19.3394 -19.2970
   -19.2970 -19.2937 -19.2937 -19.2896 -19.2896 -19.2817 -19.2817 -19.2329
   -19.2329 -19.2325 -19.2241 -19.2241 -19.2189 -19.2189 -19.2156 -19.2156
   -19.2006 -19.2006 -19.1791 -19.1791 -19.1416 -19.1416 -19.1359 -19.1296
   -19.1296 -19.1122 -19.1109 -19.1078 -19.1078 -19.1048 -19.0929 -19.0929
   -19.0921 -19.0920 -19.0905 -19.0832 -19.0832 -19.0584 -19.0584 -19.0564
   -19.0564 -19.0542 -19.0351 -19.0211 -19.0123 -19.0084 -19.0046 -19.0025
   -19.0025 -18.9745 -18.9745 -18.9699 -18.9699 -18.9552 -18.9113 -18.8971
    16.2718  17.5105  17.5106  17.5829  17.5895  17.5895  17.6527  17.9033
    17.9151  17.9844  17.9844  18.0507  18.0507  18.1207  18.2381  18.2381
    18.2686  18.2686  18.2870  18.3571  18.4058  18.4058  18.4804  18.4804
    18.6607  18.6607  18.7027  18.7028  18.7539  18.7539  18.7893  18.8250
    18.8250  18.8576  18.8576  18.9708  18.9708  19.0960  19.0960  19.1104
    19.1607  19.1607  19.4312  19.4312  19.6936  19.6936  19.7833  19.8044
    19.8044  19.8090  19.8695  19.8695  19.9108  19.9108  20.1477  20.1478
    20.1517  20.3470  20.3470  20.4167  20.4167  20.4925  20.5716  20.5716
    20.6227  20.6227  20.6693  20.7460  20.7460  20.8145  20.8145  20.9849
    20.9944  21.0136  21.0136  21.0556  21.1538  21.1679  21.1679  21.2070
    21.2324  21.2324  21.2364  21.2950  21.3451  21.3452  21.3600  21.3786
    21.3786  21.4681  21.5377  21.5377  21.6733  21.6734  21.8562  21.8620
    21.8620  21.9763  22.0148  22.0148  22.2505  22.2505  22.2950  22.2950
    22.3811  22.3811  22.4085  22.4724  22.4724  22.6852  22.7653  22.7826
    22.7880  22.8068  22.8069  22.8518  22.8518  23.1162  23.1162  23.1787
    23.2897  23.3010  23.3010  23.3495  23.3496  23.3808  23.4160  23.4160
    23.5116  23.5116  23.5788  23.6694  23.6694  23.9677  23.9677  24.2007
    24.2364  24.2364  24.2747  24.2747  24.4792  24.4792  24.4833  24.4940
    24.5544  24.5544  24.5577  24.5577  24.7176  24.7722  24.7722  24.8281
    24.8814  24.8970  25.1945  25.2356  25.2356  25.2599  25.2599  25.3148
    25.3530  25.3531  25.3551  25.3551  25.4331  25.4331  25.5345  25.5345
    25.5351  25.5351  25.5582  26.7198  27.1314  27.1314  27.5908  27.5908
    27.8511  27.8511  28.2082

          k = 0.1675 0.2792 0.3908 ( 29707 PWs)   bands (ev):

   -49.4726 -49.4455 -49.4217 -49.4015 -49.4006 -49.3835 -49.3694 -49.3593
   -49.3477 -49.3381 -49.3324 -49.3312 -49.3286 -49.3243 -49.3186 -49.3174
   -49.3152 -49.3128 -49.3069 -49.3040 -49.3030 -49.2937 -49.2912 -49.2871
   -49.2870 -49.2866 -49.2844 -49.2811 -49.2801 -49.2792 -49.2760 -49.2753
   -19.8621 -19.8533 -19.8295 -19.7932 -19.7872 -19.7852 -19.7768 -19.7726
   -19.7523 -19.7450 -19.7358 -19.7350 -19.7348 -19.7268 -19.7113 -19.7088
   -19.7044 -19.7003 -19.6850 -19.6839 -19.6825 -19.6740 -19.6726 -19.6451
   -19.6422 -19.6146 -19.5429 -19.4920 -19.4912 -19.4480 -19.4416 -19.4405
   -19.4395 -19.4173 -19.4053 -19.4011 -19.3919 -19.3705 -19.3319 -19.3314
   -19.3307 -19.3238 -19.3095 -19.2751 -19.2580 -19.2428 -19.2296 -19.2257
   -19.2241 -19.2167 -19.2162 -19.2149 -19.2118 -19.1995 -19.1979 -19.1906
   -19.1861 -19.1828 -19.1786 -19.1776 -19.1736 -19.1706 -19.1593 -19.1461
   -19.1327 -19.1295 -19.1290 -19.1172 -19.1167 -19.1091 -19.1023 -19.0988
   -19.0868 -19.0866 -19.0796 -19.0787 -19.0736 -19.0726 -19.0694 -19.0674
   -19.0671 -19.0585 -19.0575 -19.0327 -19.0219 -19.0206 -18.9966 -18.9947
   -18.9803 -18.9739 -18.9737 -18.9564 -18.9478 -18.9416 -18.9273 -18.9043
    16.5039  17.1424  17.6635  17.7257  17.7309  17.7359  17.7560  17.9835
    18.0268  18.0497  18.0648  18.0789  18.1392  18.1476  18.1623  18.1636
    18.1785  18.2172  18.2437  18.3256  18.3756  18.4036  18.4074  18.4591
    18.4927  18.5660  18.5784  18.6242  18.6250  18.6488  18.7529  18.7788
    18.7881  18.8187  18.8634  18.8736  18.8976  18.9109  18.9432  19.1684
    19.3124  19.3518  19.4187  19.4254  19.4535  19.4714  19.6252  19.6686
    19.6777  19.8555  19.9321  19.9574  19.9715  19.9807  20.1159  20.1500
    20.1554  20.2224  20.2547  20.3897  20.4253  20.5452  20.5793  20.7155
    20.7256  20.7333  20.7637  20.9102  20.9337  21.0035  21.0153  21.0264
    21.0612  21.0966  21.1287  21.1436  21.1672  21.1693  21.2112  21.2438
    21.2512  21.3049  21.3256  21.3325  21.4182  21.4426  21.4614  21.4970
    21.5164  21.5313  21.5430  21.5693  21.6456  21.7339  21.7952  21.8352
    21.8411  21.8798  21.9337  21.9582  21.9843  22.0310  22.0891  22.0911
    22.1546  22.2473  22.3618  22.4399  22.5045  22.5974  22.6207  22.7679
    22.7711  22.8675  22.8792  22.9390  23.0043  23.0110  23.0346  23.0435
    23.0730  23.1098  23.2465  23.2675  23.3051  23.3327  23.4256  23.4527
    23.4642  23.6787  23.6911  23.7081  23.7712  23.8206  24.1280  24.2622
    24.3176  24.3473  24.3500  24.3672  24.4158  24.4238  24.5647  24.6422
    24.6574  24.6834  24.7365  24.7543  24.7554  24.7770  24.7774  24.7974
    24.9636  25.0593  25.0778  25.1011  25.1042  25.1252  25.1352  25.1723
    25.1929  25.2299  25.3743  25.3840  25.3843  25.4189  25.4460  25.4818
    25.4913  26.0486  26.0523  26.5788  26.7474  27.0076  27.2703  27.5092
    27.8347  28.2217  28.3618

          k = 0.1675 0.2792-0.5025 ( 29718 PWs)   bands (ev):

   -49.4603 -49.4601 -49.4126 -49.4124 -49.3929 -49.3927 -49.3649 -49.3647
   -49.3434 -49.3432 -49.3301 -49.3299 -49.3288 -49.3286 -49.3163 -49.3161
   -49.3075 -49.3073 -49.3038 -49.3036 -49.2960 -49.2958 -49.2949 -49.2947
   -49.2888 -49.2886 -49.2829 -49.2827 -49.2808 -49.2806 -49.2757 -49.2755
   -19.8327 -19.8327 -19.8180 -19.8179 -19.7895 -19.7895 -19.7622 -19.7620
   -19.7594 -19.7593 -19.7325 -19.7324 -19.7275 -19.7274 -19.7214 -19.7213
   -19.7080 -19.7079 -19.7002 -19.7001 -19.6812 -19.6810 -19.6579 -19.6577
   -19.6447 -19.6446 -19.4985 -19.4984 -19.4918 -19.4917 -19.4291 -19.4291
   -19.4043 -19.4043 -19.3863 -19.3863 -19.3734 -19.3733 -19.3676 -19.3674
   -19.3558 -19.3557 -19.2474 -19.2472 -19.2436 -19.2436 -19.2275 -19.2274
   -19.2263 -19.2261 -19.2188 -19.2188 -19.1979 -19.1979 -19.1959 -19.1957
   -19.1660 -19.1658 -19.1657 -19.1655 -19.1578 -19.1578 -19.1490 -19.1489
   -19.1461 -19.1461 -19.1449 -19.1448 -19.1403 -19.1403 -19.1153 -19.1152
   -19.0822 -19.0821 -19.0790 -19.0788 -19.0745 -19.0744 -19.0587 -19.0586
   -19.0534 -19.0533 -19.0443 -19.0441 -19.0437 -19.0436 -18.9879 -18.9877
   -18.9811 -18.9810 -18.9485 -18.9484 -18.9484 -18.9483 -18.9194 -18.9193
    16.7990  16.7992  17.8522  17.8524  17.8693  17.8694  17.9004  17.9006
    17.9159  17.9160  17.9687  17.9689  18.0676  18.0677  18.1953  18.1953
    18.3103  18.3105  18.3379  18.3380  18.3978  18.3979  18.4758  18.4759
    18.4900  18.4901  18.5391  18.5391  18.5498  18.5499  18.5784  18.5785
    18.7830  18.7832  18.8089  18.8089  18.9575  18.9576  19.1446  19.1446
    19.2799  19.2801  19.4641  19.4643  19.4899  19.4899  19.5577  19.5577
    19.6356  19.6356  19.9834  19.9836  20.0544  20.0545  20.0928  20.0930
    20.1687  20.1687  20.3442  20.3444  20.3663  20.3664  20.7313  20.7314
    20.7883  20.7885  20.9435  20.9435  20.9998  20.9999  21.0079  21.0080
    21.1319  21.1319  21.1390  21.1391  21.2426  21.2427  21.2654  21.2655
    21.3258  21.3258  21.4352  21.4352  21.4366  21.4366  21.4626  21.4627
    21.5441  21.5442  21.6891  21.6891  21.7431  21.7432  21.7738  21.7739
    21.8031  21.8032  21.8292  21.8292  21.8325  21.8326  21.8723  21.8723
    22.4016  22.4016  22.4725  22.4726  22.5080  22.5081  22.7273  22.7274
    22.8294  22.8296  22.8353  22.8354  22.8793  22.8795  22.8839  22.8840
    23.0820  23.0822  23.1408  23.1410  23.3178  23.3179  23.4061  23.4062
    23.6009  23.6011  24.0001  24.0003  24.0205  24.0206  24.0542  24.0542
    24.1175  24.1177  24.4103  24.4104  24.4934  24.4936  24.5928  24.5929
    24.6647  24.6648  24.8601  24.8602  24.9058  24.9058  24.9397  24.9398
    24.9414  24.9415  24.9923  24.9923  25.0118  25.0119  25.0253  25.0253
    25.1757  25.1759  25.2640  25.2640  25.4269  25.4271  25.4303  25.4304
    26.0141  26.0141  26.6659  26.6659  26.7681  26.7683  26.8651  26.8653
    28.0531  28.0532  29.0381

          k = 0.1675 0.3908 0.3908 ( 29730 PWs)   bands (ev):

   -49.4634 -49.4376 -49.4376 -49.4152 -49.3950 -49.3791 -49.3791 -49.3668
   -49.3447 -49.3364 -49.3363 -49.3315 -49.3164 -49.3164 -49.3105 -49.3105
   -49.3100 -49.3100 -49.3056 -49.3056 -49.2980 -49.2980 -49.2904 -49.2904
   -49.2899 -49.2899 -49.2881 -49.2880 -49.2836 -49.2780 -49.2780 -49.2760
   -19.8399 -19.8399 -19.7963 -19.7801 -19.7801 -19.7736 -19.7736 -19.7669
   -19.7611 -19.7611 -19.7368 -19.7368 -19.7285 -19.7285 -19.7152 -19.7152
   -19.7130 -19.7129 -19.7043 -19.6985 -19.6984 -19.6892 -19.6892 -19.6869
   -19.6471 -19.5960 -19.5960 -19.4969 -19.4904 -19.4661 -19.4661 -19.4029
   -19.3919 -19.3919 -19.3824 -19.3640 -19.3640 -19.3374 -19.3374 -19.2998
[...]
   -19.1710 -19.1710 -19.1709 -19.1709 -19.1239 -19.1239 -19.1238 -19.1238
   -19.1237 -19.1237 -19.1236 -19.1236 -19.1069 -19.1069 -19.1069 -19.1069
   -18.9923 -18.9923 -18.9923 -18.9923 -18.9732 -18.9731 -18.9731 -18.9730
   -18.9711 -18.9709 -18.9709 -18.9708 -18.9263 -18.9263 -18.9263 -18.9263
    17.3054  17.3056  17.3056  17.3058  17.7637  17.7639  17.7639  17.7640
    18.1942  18.1942  18.1942  18.1942  18.2456  18.2457  18.2457  18.2457
    18.2458  18.2458  18.2459  18.2459  18.3367  18.3368  18.3368  18.3368
    18.5297  18.5297  18.5298  18.5298  18.5298  18.5299  18.5299  18.5299
    18.9284  18.9284  18.9285  18.9285  18.9286  18.9286  18.9287  18.9287
    19.0959  19.0959  19.0959  19.0959  19.6709  19.6709  19.6710  19.6710
    19.6711  19.6711  19.6712  19.6712  19.8556  19.8558  19.8558  19.8559
    20.4117  20.4117  20.4117  20.4117  20.9124  20.9125  20.9125  20.9125
    21.1679  21.1680  21.1680  21.1680  21.2363  21.2363  21.2363  21.2364
    21.2866  21.2866  21.2866  21.2866  21.2867  21.2867  21.2867  21.2867
    21.4022  21.4022  21.4022  21.4023  21.4288  21.4289  21.4289  21.4290
    21.4798  21.4798  21.4799  21.4799  21.7101  21.7101  21.7101  21.7101
    21.7102  21.7102  21.7103  21.7103  21.8531  21.8532  21.8532  21.8533
    22.1855  22.1855  22.1856  22.1856  22.3793  22.3794  22.3794  22.3794
    22.3794  22.3794  22.3795  22.3795  23.0228  23.0229  23.0229  23.0231
    23.2946  23.2947  23.2947  23.2948  23.3476  23.3477  23.3477  23.3477
    23.3478  23.3478  23.3479  23.3479  23.7453  23.7454  23.7454  23.7455
    23.7613  23.7615  23.7615  23.7616  24.1946  24.1947  24.1948  24.1949
    25.2246  25.2246  25.2247  25.2247  25.2247  25.2247  25.2247  25.2247
    25.2631  25.2631  25.2631  25.2632  25.2906  25.2906  25.2907  25.2907
    25.2908  25.2908  25.2908  25.2908  25.3419  25.3420  25.3420  25.3421
    26.9500  26.9501  26.9501  26.9502  28.2645  28.2645  28.2646  28.2646
    28.2646  28.2646  28.2647

          k = 0.3908 0.3908 0.3908 ( 29707 PWs)   bands (ev):

   -49.4492 -49.4255 -49.4254 -49.4254 -49.4052 -49.4052 -49.4052 -49.3883
   -49.3141 -49.3141 -49.3141 -49.3105 -49.3104 -49.3104 -49.3104 -49.3103
   -49.3103 -49.3101 -49.3101 -49.3100 -49.2935 -49.2935 -49.2935 -49.2904
   -49.2904 -49.2903 -49.2901 -49.2901 -49.2901 -49.2900 -49.2900 -49.2899
   -19.8035 -19.8035 -19.8035 -19.7651 -19.7651 -19.7651 -19.7538 -19.7538
   -19.7538 -19.7489 -19.7489 -19.7489 -19.7489 -19.7489 -19.7489 -19.7442
   -19.7442 -19.7442 -19.7442 -19.7442 -19.7442 -19.7161 -19.7161 -19.7161
   -19.6013 -19.4841 -19.4841 -19.4841 -19.3704 -19.3704 -19.3704 -19.3704
   -19.3704 -19.3704 -19.3646 -19.3646 -19.3646 -19.3616 -19.3616 -19.3616
   -19.3365 -19.3365 -19.3365 -19.2586 -19.2586 -19.2586 -19.2586 -19.2586
   -19.2586 -19.2402 -19.2401 -19.2401 -19.2400 -19.2273 -19.2273 -19.2273
   -19.1863 -19.1863 -19.1863 -19.1670 -19.1670 -19.1670 -19.1670 -19.1670
   -19.1670 -19.1481 -19.1481 -19.1481 -19.1313 -19.1313 -19.1313 -19.1263
   -19.1263 -19.1263 -19.1263 -19.1263 -19.1263 -19.1041 -19.1041 -19.1041
   -18.9978 -18.9978 -18.9978 -18.9778 -18.9778 -18.9680 -18.9680 -18.9680
   -18.9507 -18.9507 -18.9507 -18.9470 -18.9470 -18.9470 -18.9291 -18.9291
    17.0091  17.4673  17.4673  17.4674  17.6891  17.7100  17.7100  17.7100
    18.0317  18.0317  18.0317  18.2630  18.2630  18.2630  18.3485  18.3485
    18.3485  18.3530  18.3530  18.3530  18.3530  18.3530  18.3530  18.4500
    18.4500  18.4500  18.4500  18.4500  18.4500  18.4763  18.4763  18.4764
    18.7350  18.7350  18.7350  19.1150  19.1150  19.1150  19.2218  19.2219
    19.2219  19.2219  19.2219  19.2219  19.5844  19.5844  19.5844  19.5913
    19.5913  19.5913  19.5913  19.5914  19.5914  19.8971  19.8971  19.8971
    20.4367  20.4367  20.4368  20.5236  20.7232  20.7232  20.7232  21.1457
    21.1457  21.1457  21.1457  21.1457  21.1457  21.2389  21.2389  21.3361
    21.3361  21.3361  21.3859  21.3859  21.3956  21.3956  21.3956  21.4029
    21.4029  21.4029  21.4148  21.4148  21.4148  21.4377  21.4605  21.4605
    21.4605  21.4938  21.4938  21.4938  21.4960  21.4960  21.4960  21.4960
    21.4960  21.4960  21.6096  21.6096  21.6096  22.0268  22.0268  22.0268
    22.2471  22.2471  22.2471  22.5633  22.5633  22.5633  22.5633  22.5633
    22.5633  22.5636  22.5637  22.5637  22.9082  22.9082  22.9082  23.1000
    23.1000  23.1000  23.1000  23.1000  23.1000  23.2184  23.2184  23.2184
    23.3127  23.3127  23.3489  23.3490  23.3490  23.5065  23.5065  23.5065
    23.7941  23.7941  23.7941  24.0308  24.0308  24.2024  24.2024  24.2024
    25.1758  25.1758  25.1758  25.2310  25.2310  25.2310  25.2310  25.2310
    25.2310  25.3009  25.3009  25.3009  25.3009  25.3009  25.3009  25.3693
    25.3693  25.3693  25.3863  25.3863  25.3863  25.4818  25.4818  25.4818
    27.1702  27.1702  27.1702  28.0892  28.0892  28.0892  28.0892  28.0892
    28.0892  28.3671  28.3671

          k = 0.3908 0.3908-0.5025 ( 29728 PWs)   bands (ev):

   -49.4385 -49.4383 -49.4163 -49.4163 -49.4161 -49.4161 -49.3976 -49.3974
   -49.3125 -49.3125 -49.3123 -49.3123 -49.3104 -49.3102 -49.3102 -49.3101
   -49.3013 -49.3012 -49.3011 -49.3010 -49.2994 -49.2994 -49.2992 -49.2992
   -49.2917 -49.2917 -49.2916 -49.2915 -49.2904 -49.2902 -49.2902 -49.2900
   -19.7898 -19.7898 -19.7776 -19.7774 -19.7774 -19.7773 -19.7547 -19.7547
   -19.7546 -19.7546 -19.7511 -19.7511 -19.7511 -19.7511 -19.7492 -19.7491
   -19.7490 -19.7489 -19.7387 -19.7386 -19.7328 -19.7328 -19.7327 -19.7327
   -19.5431 -19.5430 -19.4240 -19.4240 -19.4240 -19.4239 -19.3682 -19.3682
   -19.3682 -19.3682 -19.3546 -19.3546 -19.3545 -19.3545 -19.3145 -19.3145
   -19.3144 -19.3144 -19.3011 -19.3010 -19.2931 -19.2931 -19.2907 -19.2906
   -19.2476 -19.2476 -19.2475 -19.2475 -19.2410 -19.2409 -19.2409 -19.2409
   -19.1757 -19.1756 -19.1755 -19.1755 -19.1690 -19.1688 -19.1489 -19.1489
   -19.1487 -19.1487 -19.1481 -19.1481 -19.1481 -19.1480 -19.1376 -19.1376
   -19.1376 -19.1376 -19.1190 -19.1188 -19.1160 -19.1159 -19.1159 -19.1159
   -18.9832 -18.9832 -18.9783 -18.9783 -18.9782 -18.9782 -18.9631 -18.9630
   -18.9473 -18.9473 -18.9473 -18.9473 -18.9470 -18.9468 -18.9334 -18.9334
    17.2226  17.2228  17.5790  17.5790  17.5792  17.5792  17.6867  17.6868
    18.1519  18.1520  18.1693  18.1693  18.1693  18.1693  18.3397  18.3397
    18.3397  18.3397  18.3875  18.3875  18.3876  18.3876  18.3988  18.3988
    18.3988  18.3988  18.4179  18.4179  18.4180  18.4180  18.4335  18.4336
    18.9019  18.9021  18.9795  18.9795  18.9796  18.9796  19.3659  19.3659
    19.3659  19.3659  19.3778  19.3778  19.3780  19.3780  19.4163  19.4164
    19.4164  19.4164  19.7104  19.7105  19.7652  19.7652  19.7653  19.7653
    20.5025  20.5025  20.5935  20.5936  20.5936  20.5936  21.0817  21.0817
    21.2893  21.2894  21.2894  21.2894  21.3027  21.3029  21.3051  21.3052
    21.3132  21.3132  21.3133  21.3133  21.3661  21.3661  21.3661  21.3661
    21.3695  21.3695  21.3695  21.3695  21.4066  21.4066  21.4182  21.4183
    21.4251  21.4252  21.4432  21.4432  21.4433  21.4433  21.4527  21.4527
    21.4527  21.4528  21.8808  21.8808  21.8808  21.8808  21.9322  21.9324
    22.2606  22.2606  22.2607  22.2607  22.2873  22.2874  22.7095  22.7096
    22.7097  22.7097  22.8048  22.8048  22.8049  22.8049  22.8358  22.8358
    22.8359  22.8359  23.2075  23.2076  23.2203  23.2205  23.2863  23.2865
    23.2865  23.2866  23.3154  23.3154  23.3155  23.3155  23.5401  23.5402
    23.6901  23.6902  23.9219  23.9220  23.9220  23.9221  24.0870  24.0871
    25.2667  25.2667  25.2667  25.2667  25.2993  25.2993  25.2994  25.2994
    25.3030  25.3030  25.3522  25.3522  25.3523  25.3523  25.3586  25.3586
    25.3586  25.3586  25.4120  25.4120  25.4121  25.4122  25.4627  25.4627
    27.6059  27.6060  27.6060  27.6060  28.0645  28.0646  28.2119  28.2119
    28.2120  28.2121  29.0133

          k = 0.3908-0.5025-0.5025 ( 29692 PWs)   bands (ev):

   -49.4284 -49.4283 -49.4283 -49.4281 -49.4078 -49.4077 -49.4077 -49.4075
   -49.3116 -49.3114 -49.3114 -49.3112 -49.3006 -49.3005 -49.3004 -49.3004
   -49.3004 -49.3004 -49.3003 -49.3002 -49.3002 -49.3002 -49.3001 -49.3001
   -49.3000 -49.3000 -49.2999 -49.2999 -49.2910 -49.2908 -49.2908 -49.2906
   -19.7713 -19.7713 -19.7712 -19.7712 -19.7711 -19.7711 -19.7711 -19.7711
   -19.7558 -19.7556 -19.7556 -19.7555 -19.7517 -19.7516 -19.7516 -19.7514
   -19.7450 -19.7450 -19.7450 -19.7450 -19.7449 -19.7449 -19.7448 -19.7448
   -19.4836 -19.4835 -19.4835 -19.4835 -19.3635 -19.3635 -19.3635 -19.3634
   -19.3617 -19.3616 -19.3616 -19.3616 -19.3040 -19.3040 -19.3040 -19.3040
   -19.3040 -19.3040 -19.3040 -19.3040 -19.3026 -19.3025 -19.3025 -19.3025
   -19.3025 -19.3024 -19.3024 -19.3024 -19.2425 -19.2425 -19.2425 -19.2424
   -19.1605 -19.1605 -19.1605 -19.1605 -19.1585 -19.1585 -19.1585 -19.1585
   -19.1583 -19.1583 -19.1583 -19.1583 -19.1336 -19.1336 -19.1336 -19.1336
   -19.1334 -19.1334 -19.1334 -19.1334 -19.1273 -19.1273 -19.1273 -19.1273
   -18.9717 -18.9717 -18.9717 -18.9717 -18.9585 -18.9584 -18.9583 -18.9583
   -18.9582 -18.9582 -18.9582 -18.9581 -18.9382 -18.9382 -18.9382 -18.9382
    17.3887  17.3889  17.3889  17.3891  17.6227  17.6228  17.6229  17.6230
    18.2631  18.2631  18.2631  18.2631  18.2640  18.2640  18.2640  18.2641
    18.2642  18.2642  18.2642  18.2642  18.3497  18.3498  18.3498  18.3498
    18.4131  18.4132  18.4132  18.4132  18.4133  18.4133  18.4133  18.4133
    19.1470  19.1470  19.1470  19.1470  19.1472  19.1472  19.1472  19.1472
    19.2075  19.2075  19.2075  19.2075  19.5616  19.5616  19.5617  19.5617
    19.5617  19.5618  19.5618  19.5618  19.5889  19.5890  19.5890  19.5891
    20.5683  20.5683  20.5683  20.5683  20.8531  20.8531  20.8531  20.8531
    21.3169  21.3170  21.3170  21.3170  21.3276  21.3276  21.3276  21.3276
    21.3615  21.3616  21.3616  21.3616  21.3616  21.3617  21.3617  21.3617
    21.3671  21.3672  21.3672  21.3673  21.4028  21.4029  21.4029  21.4029
    21.4125  21.4125  21.4125  21.4126  21.6224  21.6224  21.6224  21.6225
    21.6225  21.6226  21.6226  21.6226  21.6819  21.6820  21.6820  21.6821
    22.4454  22.4455  22.4455  22.4456  22.5282  22.5282  22.5282  22.5282
    22.5282  22.5282  22.5283  22.5283  22.9985  22.9985  22.9985  22.9985
    22.9986  22.9986  22.9987  22.9987  23.0148  23.0149  23.0149  23.0150
    23.2852  23.2853  23.2853  23.2855  23.5821  23.5822  23.5822  23.5823
    23.6590  23.6591  23.6591  23.6592  23.8854  23.8855  23.8855  23.8857
    25.3447  25.3447  25.3447  25.3447  25.3447  25.3447  25.3448  25.3448
    25.3668  25.3668  25.3668  25.3669  25.4139  25.4139  25.4140  25.4140
    25.4140  25.4140  25.4141  25.4141  25.4153  25.4154  25.4154  25.4155
    27.8777  27.8778  27.8778  27.8779  28.5271  28.5271  28.5272  28.5272
    28.5272  28.5273  28.5273

          k =-0.5025-0.5025-0.5025 ( 29824 PWs)   bands (ev):

   -49.4192 -49.4190 -49.4190 -49.4190 -49.4188 -49.4188 -49.4188 -49.4186
   -49.3006 -49.3005 -49.3005 -49.3004 -49.3004 -49.3004 -49.3004 -49.3004
   -49.3003 -49.3003 -49.3003 -49.3002 -49.3002 -49.3002 -49.3002 -49.3002
   -49.3001 -49.3001 -49.3000 -49.3000 -49.3000 -49.3000 -49.2999 -49.2998
   -19.7585 -19.7585 -19.7585 -19.7585 -19.7584 -19.7584 -19.7584 -19.7584
   -19.7584 -19.7584 -19.7583 -19.7583 -19.7583 -19.7582 -19.7582 -19.7582
   -19.7582 -19.7581 -19.7581 -19.7581 -19.7581 -19.7581 -19.7581 -19.7581
   -19.4223 -19.4222 -19.4222 -19.4222 -19.4222 -19.4222 -19.4222 -19.4221
   -19.3038 -19.3038 -19.3037 -19.3037 -19.3037 -19.3037 -19.3037 -19.3037
   -19.3037 -19.3036 -19.3036 -19.3036 -19.3036 -19.3036 -19.3036 -19.3036
   -19.3036 -19.3036 -19.3036 -19.3036 -19.3035 -19.3035 -19.3035 -19.3035
   -19.1456 -19.1456 -19.1455 -19.1455 -19.1455 -19.1455 -19.1455 -19.1455
   -19.1455 -19.1455 -19.1454 -19.1454 -19.1454 -19.1454 -19.1453 -19.1453
   -19.1453 -19.1453 -19.1453 -19.1453 -19.1453 -19.1452 -19.1452 -19.1452
   -18.9537 -18.9537 -18.9537 -18.9536 -18.9536 -18.9536 -18.9536 -18.9536
   -18.9535 -18.9534 -18.9534 -18.9534 -18.9534 -18.9534 -18.9534 -18.9534
    17.4957  17.4959  17.4959  17.4959  17.4961  17.4961  17.4961  17.4962
    18.3212  18.3212  18.3212  18.3212  18.3212  18.3212  18.3212  18.3212
    18.3212  18.3212  18.3212  18.3212  18.3213  18.3213  18.3214  18.3214
    18.3214  18.3214  18.3214  18.3214  18.3214  18.3214  18.3214  18.3214
    19.3706  19.3707  19.3707  19.3707  19.3707  19.3707  19.3707  19.3707
    19.3708  19.3708  19.3708  19.3708  19.3709  19.3709  19.3709  19.3709
    19.3709  19.3709  19.3709  19.3709  19.3710  19.3710  19.3710  19.3710
    20.7299  20.7299  20.7299  20.7299  20.7299  20.7299  20.7299  20.7300
    21.3720  21.3720  21.3720  21.3720  21.3720  21.3720  21.3721  21.3721
    21.3721  21.3721  21.3721  21.3722  21.3722  21.3722  21.3722  21.3722
    21.4950  21.4950  21.4950  21.4951  21.4951  21.4951  21.4951  21.4951
    21.4951  21.4951  21.4952  21.4952  21.4952  21.4952  21.4952  21.4952
    21.4952  21.4952  21.4952  21.4952  21.4952  21.4953  21.4953  21.4953
    22.7256  22.7257  22.7257  22.7257  22.7257  22.7257  22.7257  22.7258
    22.7258  22.7258  22.7258  22.7258  22.7258  22.7258  22.7258  22.7259
    22.7259  22.7259  22.7259  22.7259  22.7259  22.7259  22.7260  22.7260
    23.5779  23.5779  23.5780  23.5780  23.5780  23.5780  23.5780  23.5781
    23.5781  23.5781  23.5781  23.5781  23.5782  23.5782  23.5782  23.5782
    25.4221  25.4221  25.4221  25.4221  25.4221  25.4221  25.4222  25.4222
    25.4222  25.4222  25.4222  25.4222  25.4222  25.4223  25.4223  25.4223
    25.4223  25.4223  25.4223  25.4223  25.4223  25.4223  25.4223  25.4223
    28.8508  28.8508  28.8508  28.8509  28.8509  28.8509  28.8510  28.8510
    28.8510  28.8510  28.8511

     the Fermi energy is    23.5443 ev

!    total energy              =  -13813.29290441 Ry

     total all-electron energy =   -289989.683244 Ry
     estimated scf accuracy    <       0.00000012 Ry
     smearing contrib. (-TS)   =       0.02162665 Ry
     internal energy E=F+TS    =  -13813.31453106 Ry

     The total energy is F=E-TS. E is the sum of the following terms:
     one-electron contribution =    -957.33610957 Ry
     hartree contribution      =     904.64429186 Ry
     xc contribution           =    -928.65987973 Ry
     ewald contribution        =   -5242.49803335 Ry
     one-center paw contrib.   =   -7589.46480027 Ry

     convergence has been achieved in  13 iterations

     Forces acting on atoms (cartesian axes, Ry/au):

     atom    1 type  1   force =     0.00000000    0.00000000    0.00000000
     atom    2 type  1   force =    -0.00000156   -0.00000156   -0.00000000
     atom    3 type  1   force =    -0.00000156    0.00000000   -0.00000156
     atom    4 type  1   force =     0.00000000   -0.00000156   -0.00000156
     atom    5 type  1   force =     0.00000000    0.00000000    0.00000000
     atom    6 type  1   force =    -0.00000246   -0.00000246   -0.00000000
     atom    7 type  1   force =    -0.00000156   -0.00000000    0.00000156
     atom    8 type  1   force =     0.00000000   -0.00000156    0.00000156
     atom    9 type  1   force =     0.00000000    0.00000000    0.00000000
     atom   10 type  1   force =    -0.00000156    0.00000156    0.00000000
     atom   11 type  1   force =    -0.00000246    0.00000000   -0.00000246
     atom   12 type  1   force =    -0.00000000    0.00000156   -0.00000156
     atom   13 type  1   force =     0.00000000    0.00000000    0.00000000
     atom   14 type  1   force =    -0.00000246    0.00000246   -0.00000000
     atom   15 type  1   force =    -0.00000246    0.00000000    0.00000246
     atom   16 type  1   force =    -0.00000000    0.00000156    0.00000156
     atom   17 type  1   force =     0.00000000    0.00000000    0.00000000
     atom   18 type  1   force =     0.00000156   -0.00000156    0.00000000
     atom   19 type  1   force =     0.00000156    0.00000000   -0.00000156
     atom   20 type  1   force =    -0.00000000   -0.00000246   -0.00000246
     atom   21 type  1   force =     0.00000000    0.00000000    0.00000000
     atom   22 type  1   force =     0.00000246   -0.00000246   -0.00000000
     atom   23 type  1   force =     0.00000156    0.00000000    0.00000156
     atom   24 type  1   force =    -0.00000000   -0.00000246    0.00000246
     atom   25 type  1   force =     0.00000000    0.00000000    0.00000000
     atom   26 type  1   force =     0.00000156    0.00000156   -0.00000000
     atom   27 type  1   force =     0.00000246    0.00000000   -0.00000246
     atom   28 type  1   force =     0.00000000    0.00000246   -0.00000246
     atom   29 type  1   force =     0.00000000    0.00000000    0.00000000
     atom   30 type  1   force =     0.00000246    0.00000246   -0.00000000
     atom   31 type  1   force =     0.00000246    0.00000000    0.00000246
     atom   32 type  1   force =    -0.00000000    0.00000246    0.00000246

     Total force =     0.000014     Total SCF correction =     0.000177
     SCF correction compared to forces is large: reduce conv_thr to get better values


     Computing stress (Cartesian axis) and pressure

          total   stress  (Ry/bohr**3)                   (kbar)     P=       44.11
   0.00029984   0.00000000   0.00000000           44.11        0.00        0.00
   0.00000000   0.00029984   0.00000000            0.00       44.11        0.00
   0.00000000   0.00000000   0.00029984            0.00        0.00       44.11


     Writing output data file /scratch/xjoYKskYDeobkKdQ.save/
 
     init_run     :     13.95s CPU     14.26s WALL (       1 calls)
     electrons    :    561.98s CPU    572.14s WALL (       1 calls)
     forces       :      5.44s CPU      5.52s WALL (       1 calls)
     stress       :     30.59s CPU     30.84s WALL (       1 calls)

     Called by init_run:
     wfcinit      :     13.28s CPU     13.51s WALL (       1 calls)
     potinit      :      0.17s CPU      0.20s WALL (       1 calls)
     hinit0       :      0.08s CPU      0.08s WALL (       1 calls)

     Called by electrons:
     c_bands      :    506.23s CPU    514.90s WALL (      14 calls)
     sum_band     :     53.86s CPU     55.09s WALL (      14 calls)
     v_of_rho     :      0.20s CPU      0.22s WALL (      14 calls)
     newd         :      0.32s CPU      0.46s WALL (      14 calls)
     PAW_pot      :      1.27s CPU      1.35s WALL (      14 calls)
     mix_rho      :      0.15s CPU      0.17s WALL (      14 calls)

     Called by c_bands:
     init_us_2    :      1.94s CPU      1.99s WALL (    1085 calls)
     cegterg      :    498.71s CPU    507.08s WALL (     490 calls)

     Called by *egterg:
     cdiaghg      :     65.52s CPU     66.48s WALL (    1892 calls)
     h_psi        :    253.91s CPU    258.39s WALL (    1962 calls)
     s_psi        :     17.87s CPU     18.05s WALL (    1962 calls)
     g_psi        :      0.44s CPU      0.45s WALL (    1437 calls)

     Called by h_psi:
     h_psi:calbec :     35.72s CPU     36.19s WALL (    1962 calls)
     vloc_psi     :    200.13s CPU    203.56s WALL (    1962 calls)
     add_vuspsi   :     16.91s CPU     17.47s WALL (    1962 calls)

     General routines
     calbec       :     57.30s CPU     57.91s WALL (    2627 calls)
     fft          :      0.35s CPU      0.38s WALL (     206 calls)
     ffts         :      0.02s CPU      0.02s WALL (      28 calls)
     fftw         :    229.28s CPU    233.35s WALL (  929400 calls)
     interpolate  :      0.03s CPU      0.04s WALL (      14 calls)
 
     Parallel routines
     fft_scatt_xy :     15.97s CPU     16.24s WALL (  929634 calls)
     fft_scatt_yz :    185.92s CPU    189.33s WALL (  929634 calls)
 
     PWSCF        :  10m21.52s CPU  10m34.25s WALL

 
   This run was terminated on:  11:54:51  23Nov2021            

=------------------------------------------------------------------------------=
   JOB DONE.
=------------------------------------------------------------------------------=
