
     Program PWSCF v.6.7MaX starts on 23Nov2021 at 12:50:50 

     This program is part of the open-source Quantum ESPRESSO suite
     for quantum simulation of materials; please cite
         "P. Giannozzi et al., J. Phys.:Condens. Matter 21 395502 (2009);
         "P. Giannozzi et al., J. Phys.:Condens. Matter 29 465901 (2017);
          URL http://www.quantum-espresso.org", 
     in publications or presentations arising from this work. More details at
     http://www.quantum-espresso.org/quote

     Parallel version (MPI & OpenMP), running on      72 processor cores
     Number of MPI processes:                72
     Threads/MPI process:                     1

     MPI processes distributed on     1 nodes
     R & G space division:  proc/nbgrp/npool/nimage =      72
     Reading input from /rds/homes/b/bxp912/jobs/20211014_ru_eos/wd/eos/eos_007.in
Warning: card &CELL ignored
Warning: card CELL_DYNAMICS = 'BFGS', ignored
Warning: card CELL_FACTOR = 2.0, ignored
Warning: card PRESS = 0.0, ignored
Warning: card / ignored

     Current dimensions of program PWSCF are:
     Max number of different atomic species (ntypx) = 10
     Max number of k-points (npk) =  40000
     Max angular momentum in pseudopotentials (lmaxx) =  3
     file Ru.pbe-spn-kjpaw_psl.1.0.0.UPF: wavefunction(s)  4D renormalized

     Subspace diagonalization in iterative solution of the eigenvalue problem:
     one sub-group per band group will be used
     ELPA distributed-memory algorithm (size of sub-group:  8*  8 procs)

     Found symmetry operation: I + (  0.2500  0.2500  0.0000)
     This is a supercell, fractional translations are disabled
     Message from routine setup:
     using ibrav=0 with symmetry is DISCOURAGED, use correct ibrav instead
 
     Parallelization info
     --------------------
     sticks:   dense  smooth     PW     G-vecs:    dense   smooth      PW
     Min          99      65     17                 6267     3363     475
     Max         100      66     18                 6270     3368     482
     Sum        7129    4709   1281               451279   242361   34457
 


     bravais-lattice index     =            0
     lattice parameter (alat)  =      14.4007  a.u.
     unit-cell volume          =    2995.4137 (a.u.)^3
     number of atoms/cell      =           32
     number of atomic types    =            1
     number of electrons       =       512.00
     number of Kohn-Sham states=          307
     kinetic-energy cutoff     =      71.0000  Ry
     charge density cutoff     =     430.0000  Ry
     scf convergence threshold =      1.0E-06
     mixing beta               =       0.1000
     number of iterations used =           10  plain     mixing
     Exchange-correlation= SLA  PW   PBX  PBC
                           (   1   4   3   4   0   0   0)

     celldm(1)=  14.400742  celldm(2)=   0.000000  celldm(3)=   0.000000
     celldm(4)=   0.000000  celldm(5)=   0.000000  celldm(6)=   0.000000

     crystal axes: (cart. coord. in units of alat)
               a(1) = (   1.001000   0.000000   0.000000 )  
               a(2) = (   0.000000   1.001000   0.000000 )  
               a(3) = (   0.000000   0.000000   1.001000 )  

     reciprocal axes: (cart. coord. in units 2 pi/alat)
               b(1) = (  0.999001  0.000000  0.000000 )  
               b(2) = (  0.000000  0.999001  0.000000 )  
               b(3) = (  0.000000  0.000000  0.999001 )  


     PseudoPot. # 1 for Ru read from file:
     /rds/homes/b/bxp912/pp/Ru.pbe-spn-kjpaw_psl.1.0.0.UPF
     MD5 check sum: 0ae1f594dea09af7be8575c3a481d1ae
     Pseudo is Projector augmented-wave + core cor, Zval = 16.0
     Generated using "atomic" code by A. Dal Corso  v.5.1
     Shape of augmentation charge: PSQ
     Using radial grid of 1233 points,  6 beta functions with: 
                l(1) =   0
                l(2) =   0
                l(3) =   1
                l(4) =   1
                l(5) =   2
                l(6) =   2
     Q(r) pseudized with 0 coefficients 


     atomic species   valence    mass     pseudopotential
        Ru            16.00   101.07000     Ru( 1.00)

     48 Sym. Ops., with inversion, found



   Cartesian axes

     site n.     atom                  positions (alat units)
         1           Ru  tau(   1) = (   0.0000000   0.0000000   0.0000000  )
         2           Ru  tau(   2) = (   0.2502500   0.2502500   0.0000000  )
         3           Ru  tau(   3) = (   0.2502500   0.0000000   0.2502495  )
         4           Ru  tau(   4) = (   0.0000000   0.2502500   0.2502495  )
         5           Ru  tau(   5) = (   0.0000000   0.0000000   0.5005000  )
         6           Ru  tau(   6) = (   0.2502489   0.2502489   0.5005000  )
         7           Ru  tau(   7) = (   0.2502500   0.0000000   0.7507495  )
         8           Ru  tau(   8) = (   0.0000000   0.2502500   0.7507495  )
         9           Ru  tau(   9) = (   0.0000000   0.5005002   0.0000000  )
        10           Ru  tau(  10) = (   0.2502500   0.7507504   0.0000000  )
        11           Ru  tau(  11) = (   0.2502489   0.5005002   0.2502484  )
        12           Ru  tau(  12) = (   0.0000000   0.7507504   0.2502495  )
        13           Ru  tau(  13) = (   0.0000000   0.5005002   0.5005000  )
        14           Ru  tau(  14) = (   0.2502489   0.7507515   0.5005000  )
        15           Ru  tau(  15) = (   0.2502489   0.5005002   0.7507505  )
        16           Ru  tau(  16) = (   0.0000000   0.7507504   0.7507495  )
        17           Ru  tau(  17) = (   0.5005002   0.0000000   0.0000000  )
        18           Ru  tau(  18) = (   0.7507504   0.2502500   0.0000000  )
        19           Ru  tau(  19) = (   0.7507504   0.0000000   0.2502495  )
        20           Ru  tau(  20) = (   0.5005002   0.2502489   0.2502484  )
        21           Ru  tau(  21) = (   0.5005002   0.0000000   0.5005000  )
        22           Ru  tau(  22) = (   0.7507515   0.2502489   0.5005000  )
        23           Ru  tau(  23) = (   0.7507504   0.0000000   0.7507495  )
        24           Ru  tau(  24) = (   0.5005002   0.2502489   0.7507505  )
        25           Ru  tau(  25) = (   0.5005002   0.5005002   0.0000000  )
        26           Ru  tau(  26) = (   0.7507504   0.7507504   0.0000000  )
        27           Ru  tau(  27) = (   0.7507515   0.5005002   0.2502484  )
        28           Ru  tau(  28) = (   0.5005002   0.7507515   0.2502484  )
        29           Ru  tau(  29) = (   0.5005002   0.5005002   0.5005000  )
        30           Ru  tau(  30) = (   0.7507515   0.7507515   0.5005000  )
        31           Ru  tau(  31) = (   0.7507515   0.5005002   0.7507505  )
        32           Ru  tau(  32) = (   0.5005002   0.7507515   0.7507505  )

     number of k points=    35  Marzari-Vanderbilt smearing, width (Ry)=  0.0400
                       cart. coord. in units 2pi/alat
        k(    1) = (   0.0555001   0.0555001   0.0555001), wk =   0.0219479
        k(    2) = (   0.0555001   0.0555001   0.1665002), wk =   0.0658436
        k(    3) = (   0.0555001   0.0555001   0.2775003), wk =   0.0658436
        k(    4) = (   0.0555001   0.0555001   0.3885004), wk =   0.0658436
        k(    5) = (   0.0555001   0.0555001  -0.4995005), wk =   0.0329218
        k(    6) = (   0.0555001   0.1665002   0.1665002), wk =   0.0658436
        k(    7) = (   0.0555001   0.1665002   0.2775003), wk =   0.1316872
        k(    8) = (   0.0555001   0.1665002   0.3885004), wk =   0.1316872
        k(    9) = (   0.0555001   0.1665002  -0.4995005), wk =   0.0658436
        k(   10) = (   0.0555001   0.2775003   0.2775003), wk =   0.0658436
        k(   11) = (   0.0555001   0.2775003   0.3885004), wk =   0.1316872
        k(   12) = (   0.0555001   0.2775003  -0.4995005), wk =   0.0658436
        k(   13) = (   0.0555001   0.3885004   0.3885004), wk =   0.0658436
        k(   14) = (   0.0555001   0.3885004  -0.4995005), wk =   0.0658436
        k(   15) = (   0.0555001  -0.4995005  -0.4995005), wk =   0.0164609
        k(   16) = (   0.1665002   0.1665002   0.1665002), wk =   0.0219479
        k(   17) = (   0.1665002   0.1665002   0.2775003), wk =   0.0658436
        k(   18) = (   0.1665002   0.1665002   0.3885004), wk =   0.0658436
        k(   19) = (   0.1665002   0.1665002  -0.4995005), wk =   0.0329218
        k(   20) = (   0.1665002   0.2775003   0.2775003), wk =   0.0658436
        k(   21) = (   0.1665002   0.2775003   0.3885004), wk =   0.1316872
        k(   22) = (   0.1665002   0.2775003  -0.4995005), wk =   0.0658436
        k(   23) = (   0.1665002   0.3885004   0.3885004), wk =   0.0658436
        k(   24) = (   0.1665002   0.3885004  -0.4995005), wk =   0.0658436
        k(   25) = (   0.1665002  -0.4995005  -0.4995005), wk =   0.0164609
        k(   26) = (   0.2775003   0.2775003   0.2775003), wk =   0.0219479
        k(   27) = (   0.2775003   0.2775003   0.3885004), wk =   0.0658436
        k(   28) = (   0.2775003   0.2775003  -0.4995005), wk =   0.0329218
        k(   29) = (   0.2775003   0.3885004   0.3885004), wk =   0.0658436
        k(   30) = (   0.2775003   0.3885004  -0.4995005), wk =   0.0658436
        k(   31) = (   0.2775003  -0.4995005  -0.4995005), wk =   0.0164609
        k(   32) = (   0.3885004   0.3885004   0.3885004), wk =   0.0219479
        k(   33) = (   0.3885004   0.3885004  -0.4995005), wk =   0.0329218
        k(   34) = (   0.3885004  -0.4995005  -0.4995005), wk =   0.0164609
        k(   35) = (  -0.4995005  -0.4995005  -0.4995005), wk =   0.0027435

     Dense  grid:   451279 G-vectors     FFT dimensions: (  96,  96,  96)

     Smooth grid:   242361 G-vectors     FFT dimensions: (  80,  80,  80)

     Estimated max dynamical RAM per process >     107.37 MB

     Estimated total dynamical RAM >       7.55 GB

     Check: negative core charge=   -0.000002

     Initial potential from superposition of free atoms

     starting charge  511.97959, renormalised to  512.00000
     Starting wfcs are  320 randomized atomic wfcs
     Checking if some PAW data can be deallocated... 

     total cpu time spent up to now is       16.5 secs

     Self-consistent Calculation

     iteration #  1     ecut=    71.00 Ry     beta= 0.10
     Davidson diagonalization with overlap
     ethr =  1.00E-02,  avg # of iterations =  3.3

     Threshold (ethr) on eigenvalues was too large:
     Diagonalizing with lowered threshold

     Davidson diagonalization with overlap
     ethr =  8.31E-05,  avg # of iterations =  5.4

     total cpu time spent up to now is      103.3 secs

     total energy              =  -13813.41231266 Ry
     estimated scf accuracy    <       0.63729666 Ry

     iteration #  2     ecut=    71.00 Ry     beta= 0.10
     Davidson diagonalization with overlap
     ethr =  1.24E-04,  avg # of iterations =  1.0

     total cpu time spent up to now is      134.1 secs

     total energy              =  -13813.20373441 Ry
     estimated scf accuracy    <       0.39789779 Ry

     iteration #  3     ecut=    71.00 Ry     beta= 0.10
     Davidson diagonalization with overlap
     ethr =  7.77E-05,  avg # of iterations =  2.3

     total cpu time spent up to now is      178.2 secs

     total energy              =  -13813.29999543 Ry
     estimated scf accuracy    <       0.01022221 Ry

     iteration #  4     ecut=    71.00 Ry     beta= 0.10
     Davidson diagonalization with overlap
     ethr =  2.00E-06,  avg # of iterations =  3.1

     total cpu time spent up to now is      214.9 secs

     total energy              =  -13813.29935193 Ry
     estimated scf accuracy    <       0.00677916 Ry

     iteration #  5     ecut=    71.00 Ry     beta= 0.10
     Davidson diagonalization with overlap
     ethr =  1.32E-06,  avg # of iterations =  2.0

     total cpu time spent up to now is      252.4 secs

     total energy              =  -13813.30428603 Ry
     estimated scf accuracy    <       0.00741554 Ry

     iteration #  6     ecut=    71.00 Ry     beta= 0.10
     Davidson diagonalization with overlap
     ethr =  1.32E-06,  avg # of iterations =  3.4

     total cpu time spent up to now is      301.5 secs

     total energy              =  -13813.29919458 Ry
     estimated scf accuracy    <       0.01689986 Ry

     iteration #  7     ecut=    71.00 Ry     beta= 0.10
     Davidson diagonalization with overlap
     ethr =  1.32E-06,  avg # of iterations =  2.6

     total cpu time spent up to now is      344.5 secs

     total energy              =  -13813.30073726 Ry
     estimated scf accuracy    <       0.00101837 Ry

     iteration #  8     ecut=    71.00 Ry     beta= 0.10
     Davidson diagonalization with overlap
     ethr =  1.99E-07,  avg # of iterations =  2.4

     total cpu time spent up to now is      378.3 secs

     total energy              =  -13813.30080248 Ry
     estimated scf accuracy    <       0.00021900 Ry

     iteration #  9     ecut=    71.00 Ry     beta= 0.10
     Davidson diagonalization with overlap
     ethr =  4.28E-08,  avg # of iterations =  2.0

     total cpu time spent up to now is      411.1 secs

     total energy              =  -13813.30073813 Ry
     estimated scf accuracy    <       0.00014342 Ry

     iteration # 10     ecut=    71.00 Ry     beta= 0.10
     Davidson diagonalization with overlap
     ethr =  2.80E-08,  avg # of iterations =  2.4

     total cpu time spent up to now is      450.3 secs

     total energy              =  -13813.30075843 Ry
     estimated scf accuracy    <       0.00000501 Ry

     iteration # 11     ecut=    71.00 Ry     beta= 0.10
     Davidson diagonalization with overlap
     ethr =  9.79E-10,  avg # of iterations =  4.2

     total cpu time spent up to now is      500.9 secs

     total energy              =  -13813.30076561 Ry
     estimated scf accuracy    <       0.00000218 Ry

     iteration # 12     ecut=    71.00 Ry     beta= 0.10
     Davidson diagonalization with overlap
     ethr =  4.27E-10,  avg # of iterations =  3.1

     total cpu time spent up to now is      545.8 secs

     total energy              =  -13813.30076026 Ry
     estimated scf accuracy    <       0.00001257 Ry

     iteration # 13     ecut=    71.00 Ry     beta= 0.10
     Davidson diagonalization with overlap
     ethr =  4.27E-10,  avg # of iterations =  3.2

     total cpu time spent up to now is      589.3 secs

     End of self-consistent calculation

          k = 0.0555 0.0555 0.0555 ( 30317 PWs)   bands (ev):

   -49.9873 -49.8887 -49.8887 -49.8887 -49.8697 -49.8697 -49.8697 -49.8342
   -49.8342 -49.8342 -49.8249 -49.8238 -49.8238 -49.8238 -49.8238 -49.8238
   -49.8238 -49.8232 -49.8232 -49.8232 -49.8150 -49.8150 -49.8150 -49.7702
   -49.7702 -49.7702 -49.7697 -49.7697 -49.7697 -49.7697 -49.7696 -49.7696
   -20.3872 -20.3872 -20.3872 -20.3831 -20.3252 -20.3252 -20.3252 -20.1267
   -20.1267 -20.1267 -20.1155 -20.1155 -20.1155 -20.1155 -20.1155 -20.1154
   -20.0954 -20.0954 -20.0954 -20.0730 -20.0730 -20.0730 -20.0730 -20.0730
   -20.0730 -20.0229 -20.0229 -20.0229 -20.0229 -20.0229 -20.0229 -19.9245
   -19.9245 -19.9245 -19.8521 -19.8521 -19.8521 -19.8443 -19.8443 -19.8443
   -19.8109 -19.8109 -19.8109 -19.8109 -19.8109 -19.8109 -19.7711 -19.7711
   -19.7711 -19.7643 -19.7643 -19.7643 -19.7643 -19.7643 -19.7643 -19.7587
   -19.7587 -19.7587 -19.7541 -19.7541 -19.7541 -19.5931 -19.5931 -19.5931
   -19.5925 -19.5925 -19.5925 -19.5612 -19.5612 -19.5612 -19.5611 -19.5611
   -19.5611 -19.5464 -19.5464 -19.5464 -19.5343 -19.5342 -19.5342 -19.5332
   -19.5332 -19.5332 -19.5332 -19.5332 -19.5331 -19.5312 -19.5312 -19.5312
   -19.5285 -19.5285 -19.5149 -19.5149 -19.5149 -19.4030 -19.3961 -19.3961
    15.2762  16.8422  16.8422  16.8422  17.1180  17.1356  17.1356  17.1356
    17.3091  17.3091  17.3091  17.5269  17.5269  17.5269  17.6998  17.6998
    17.6998  18.2458  18.2458  18.2458  18.2458  18.2458  18.2458  18.5607
    18.5607  18.5607  18.8206  18.8206  18.8206  18.8327  18.8327  18.8327
    18.9282  18.9282  18.9282  18.9305  18.9305  18.9305  18.9306  18.9306
    18.9306  19.4218  19.4218  19.4218  19.4218  19.4218  19.4218  19.5657
    19.5657  19.5657  19.5976  19.5976  19.5976  19.5976  19.5976  19.5976
    19.6619  19.6619  19.6619  19.9227  19.9227  19.9227  19.9248  19.9248
    19.9248  19.9248  19.9248  19.9248  19.9249  19.9249  19.9249  19.9249
    19.9249  19.9249  20.0946  20.0946  20.0946  20.3783  20.3783  20.3783
    20.4143  20.4143  20.4293  20.4293  20.4293  20.5074  20.5387  20.5387
    21.5099  21.5099  21.5099  21.6787  21.6787  21.6787  21.7283  21.7283
    21.7283  21.8280  21.8280  21.8280  21.8280  21.8280  21.8280  21.8418
    21.8419  21.8419  22.1369  22.1370  22.1370  22.2562  22.2562  22.2562
    22.5041  22.5041  22.5041  22.5818  22.5818  22.5819  22.5819  22.5819
    22.5819  22.6000  22.6001  22.6001  22.6395  22.6395  22.6395  22.8288
    22.8289  22.8289  22.8289  22.8289  22.8289  22.8871  22.8871  23.0013
    23.0013  23.0013  23.6589  23.6589  23.6589  23.7068  23.7068  23.7068
    23.8183  23.8183  23.8183  23.9074  24.6336  24.6336  24.6336  24.6758
    24.6758  24.7106  24.7106  24.7106  24.9933  24.9933  24.9933  25.0188
    25.0188  25.0188  25.1784  25.1784  25.1784  25.1784  25.1784  25.1784
    25.1834  25.1834  25.1834  26.6213  26.6213  26.6214  26.7909  26.7909
    26.7909  27.1534  27.1534

          k = 0.0555 0.0555 0.1665 ( 30291 PWs)   bands (ev):

   -49.9840 -49.9074 -49.8869 -49.8869 -49.8682 -49.8682 -49.8509 -49.8444
   -49.8444 -49.8339 -49.8324 -49.8324 -49.8266 -49.8238 -49.8237 -49.8233
   -49.8232 -49.8216 -49.8153 -49.8135 -49.8135 -49.8064 -49.8064 -49.7735
   -49.7715 -49.7715 -49.7712 -49.7712 -49.7702 -49.7701 -49.7697 -49.7696
   -20.3798 -20.3760 -20.3760 -20.3679 -20.3169 -20.3169 -20.3123 -20.1574
   -20.1441 -20.1441 -20.1311 -20.1311 -20.1286 -20.1286 -20.1232 -20.1210
   -20.1210 -20.0979 -20.0979 -20.0832 -20.0832 -20.0699 -20.0699 -20.0690
   -20.0690 -20.0310 -20.0310 -20.0139 -20.0139 -20.0022 -19.9743 -19.9743
   -19.9370 -19.9370 -19.8924 -19.8924 -19.8606 -19.8606 -19.8500 -19.8500
   -19.8194 -19.7820 -19.7820 -19.7702 -19.7702 -19.7691 -19.7691 -19.7642
   -19.7635 -19.7635 -19.7535 -19.7535 -19.7532 -19.7498 -19.7498 -19.7489
   -19.7482 -19.7482 -19.7446 -19.7318 -19.7318 -19.6246 -19.6233 -19.6002
   -19.6002 -19.5848 -19.5848 -19.5682 -19.5682 -19.5659 -19.5659 -19.5576
   -19.5576 -19.5518 -19.5518 -19.5515 -19.5459 -19.5449 -19.5449 -19.5343
   -19.5339 -19.5331 -19.5331 -19.5321 -19.5321 -19.5303 -19.5294 -19.5264
   -19.5264 -19.5257 -19.5153 -19.5032 -19.5032 -19.4202 -19.4017 -19.3997
    15.3622  16.8928  16.9058  16.9058  17.1575  17.1926  17.1926  17.2100
    17.2243  17.3471  17.3709  17.3709  17.5889  17.5889  17.7236  17.7650
    17.7651  18.1255  18.1255  18.2940  18.2940  18.3035  18.3035  18.3043
    18.5090  18.5997  18.5997  18.6146  18.6146  18.6650  18.6830  18.6830
    18.8654  18.8655  18.8693  18.8693  18.8953  18.8953  18.9693  18.9693
    19.0262  19.0262  19.1136  19.4001  19.4001  19.4256  19.4257  19.4768
    19.4768  19.4912  19.4912  19.5506  19.5506  19.6379  19.6379  19.6706
    19.7452  19.7452  19.7663  19.7663  19.8609  19.8772  19.8772  19.9096
    19.9096  19.9251  19.9251  19.9318  19.9318  20.1732  20.1732  20.1973
    20.1973  20.2198  20.2726  20.3052  20.3366  20.3366  20.4112  20.4467
    20.4477  20.4722  20.4722  20.4817  20.4817  20.4924  20.5815  20.5854
    21.2797  21.2797  21.4087  21.4087  21.4991  21.5271  21.6367  21.6367
    21.6666  21.7622  21.7622  21.7983  21.9389  21.9390  21.9423  21.9723
    21.9723  22.0188  22.0188  22.0456  22.1133  22.1133  22.4381  22.4381
    22.4554  22.4554  22.4707  22.4707  22.5835  22.5835  22.5980  22.5980
    22.7175  22.7175  22.7408  22.7408  22.8160  22.8379  22.8469  22.8469
    22.8926  22.9115  23.0517  23.0517  23.0670  23.1149  23.1149  23.2004
    23.2334  23.2334  23.2434  23.2946  23.2947  23.4820  23.5061  23.7210
    23.7211  23.9110  23.9110  23.9803  24.4345  24.4345  24.5457  24.5457
    24.5600  24.5934  24.6580  24.6580  24.6623  24.8576  24.9281  25.0512
    25.0512  25.0525  25.0525  25.0734  25.1770  25.1770  25.1781  25.1782
    25.3604  25.3604  25.5863  26.1042  26.1042  26.4893  26.5629  26.6286
    26.6286  27.0978  27.0978

          k = 0.0555 0.0555 0.2775 ( 30272 PWs)   bands (ev):

   -49.9776 -49.9252 -49.8833 -49.8833 -49.8651 -49.8651 -49.8543 -49.8542
   -49.8406 -49.8406 -49.8332 -49.8330 -49.8282 -49.8238 -49.8237 -49.8233
   -49.8232 -49.8201 -49.8158 -49.8038 -49.8038 -49.7982 -49.7982 -49.7800
   -49.7750 -49.7750 -49.7742 -49.7741 -49.7702 -49.7701 -49.7698 -49.7697
   -20.3614 -20.3540 -20.3540 -20.3422 -20.3006 -20.3006 -20.2868 -20.2027
   -20.1881 -20.1881 -20.1672 -20.1668 -20.1668 -20.1345 -20.1345 -20.1287
   -20.1287 -20.0984 -20.0984 -20.0755 -20.0748 -20.0748 -20.0729 -20.0729
   -20.0371 -20.0371 -20.0337 -20.0337 -19.9986 -19.9986 -19.9591 -19.9591
   -19.9306 -19.9306 -19.9275 -19.9275 -19.8890 -19.8889 -19.8872 -19.8872
   -19.7871 -19.7871 -19.7700 -19.7622 -19.7622 -19.7544 -19.7544 -19.7424
   -19.7383 -19.7373 -19.7373 -19.7311 -19.7311 -19.7242 -19.7242 -19.7209
   -19.7209 -19.7034 -19.6941 -19.6941 -19.6866 -19.6545 -19.6525 -19.6146
   -19.6146 -19.5909 -19.5909 -19.5871 -19.5871 -19.5821 -19.5821 -19.5798
   -19.5714 -19.5714 -19.5674 -19.5674 -19.5514 -19.5448 -19.5371 -19.5371
   -19.5366 -19.5331 -19.5330 -19.5323 -19.5323 -19.5260 -19.5260 -19.5232
   -19.5161 -19.5006 -19.4991 -19.4985 -19.4985 -19.4507 -19.4126 -19.4099
    15.5316  16.8490  16.9908  17.0297  17.0297  17.2541  17.3058  17.3058
    17.3396  17.4225  17.4938  17.4938  17.6308  17.7088  17.7088  17.8917
    17.8917  17.9197  17.9197  18.0692  18.1739  18.2739  18.2739  18.3411
    18.3858  18.3859  18.4167  18.4167  18.5077  18.5077  18.5668  18.5668
    18.6768  18.6769  18.7252  18.7252  18.8442  18.8443  18.9291  18.9291
    19.0999  19.0999  19.3025  19.3025  19.3654  19.3654  19.3671  19.3671
    19.3835  19.3835  19.3950  19.4281  19.4281  19.5223  19.5223  19.6809
    19.6809  19.7349  19.7977  19.7977  19.8633  19.8633  19.9257  19.9257
    19.9420  19.9420  20.0064  20.0064  20.0326  20.2021  20.2646  20.2646
    20.2728  20.2728  20.3210  20.3727  20.5289  20.5791  20.5791  20.5972
    20.6021  20.6133  20.6133  20.6751  20.6784  20.7194  21.0035  21.0036
    21.0629  21.0629  21.0661  21.0661  21.2767  21.3890  21.3890  21.4237
    21.4356  21.4936  21.8509  21.8916  21.8916  22.1001  22.1001  22.1180
    22.1180  22.1559  22.1559  22.2324  22.2324  22.3522  22.3522  22.4513
    22.4513  22.5686  22.5761  22.5761  22.5874  22.5874  22.6136  22.6136
    22.6677  22.6677  22.6790  22.7371  22.7672  22.7672  22.8829  22.9523
    22.9524  22.9597  23.0200  23.0200  23.1585  23.2921  23.3613  23.3613
    23.3636  23.4443  23.4443  23.4875  23.5173  23.5174  23.5374  23.7540
    23.7540  23.8981  23.8981  24.1412  24.1642  24.1642  24.3396  24.3396
    24.3708  24.5046  24.5046  24.5054  24.5348  24.5960  24.8193  24.8193
    24.8205  24.8205  24.8764  25.1761  25.1761  25.1777  25.1777  25.3230
    25.5969  25.5970  25.7936  25.7936  25.9625  26.1014  26.1014  26.1423
    26.4438  26.9817  26.9817

          k = 0.0555 0.0555 0.3885 ( 30223 PWs)   bands (ev):

   -49.9681 -49.9415 -49.8780 -49.8780 -49.8633 -49.8633 -49.8607 -49.8607
   -49.8483 -49.8482 -49.8323 -49.8297 -49.8237 -49.8236 -49.8234 -49.8233
   -49.8187 -49.8165 -49.8165 -49.7948 -49.7948 -49.7907 -49.7907 -49.7896
   -49.7802 -49.7802 -49.7785 -49.7785 -49.7701 -49.7700 -49.7698 -49.7697
   -20.3328 -20.3222 -20.3222 -20.3071 -20.2767 -20.2767 -20.2507 -20.2493
   -20.2362 -20.2362 -20.2164 -20.2088 -20.2088 -20.1423 -20.1334 -20.1334
   -20.1198 -20.1198 -20.1136 -20.1136 -20.0881 -20.0881 -20.0475 -20.0475
   -20.0197 -20.0196 -20.0012 -20.0012 -19.9872 -19.9872 -19.9777 -19.9777
   -19.9654 -19.9654 -19.9244 -19.9244 -19.9215 -19.9215 -19.8840 -19.8840
   -19.8127 -19.8127 -19.7603 -19.7602 -19.7561 -19.7561 -19.7266 -19.7229
   -19.7161 -19.6949 -19.6949 -19.6916 -19.6916 -19.6882 -19.6882 -19.6880
   -19.6880 -19.6820 -19.6794 -19.6593 -19.6593 -19.6582 -19.6357 -19.6357
   -19.6206 -19.6206 -19.6205 -19.6205 -19.6180 -19.6141 -19.6024 -19.6024
   -19.6000 -19.6000 -19.5790 -19.5561 -19.5561 -19.5433 -19.5391 -19.5329
   -19.5328 -19.5325 -19.5324 -19.5316 -19.5316 -19.5215 -19.5215 -19.5209
   -19.5174 -19.5005 -19.5005 -19.4942 -19.4732 -19.4711 -19.4285 -19.4257
    15.7784  16.4582  17.1293  17.2075  17.2075  17.4067  17.4737  17.4737
    17.4738  17.5222  17.5343  17.6745  17.6745  17.6769  17.6769  17.8602
    17.8710  17.8779  17.8779  17.9626  17.9626  18.0303  18.0713  18.0713
    18.2158  18.2158  18.3003  18.3003  18.5103  18.5103  18.5185  18.5185
    18.5808  18.5808  18.7644  18.7644  18.7901  18.7901  19.0094  19.0094
    19.0201  19.0201  19.1115  19.1116  19.2582  19.2582  19.2980  19.2980
    19.3406  19.3406  19.4053  19.4053  19.4148  19.4148  19.6633  19.6633
    19.6675  19.7164  19.7164  19.8333  19.9447  19.9447  19.9507  19.9507
    19.9597  19.9597  20.0801  20.1326  20.1420  20.1702  20.1702  20.1823
    20.1823  20.3067  20.3775  20.3775  20.6565  20.7209  20.7209  20.7305
    20.7305  20.7480  20.7480  20.7559  20.8147  20.8172  21.0370  21.0487
    21.0487  21.1119  21.1762  21.2040  21.2118  21.2118  21.2163  21.2266
    21.6928  21.6928  22.0159  22.0159  22.0241  22.0870  22.0870  22.2167
    22.2167  22.2215  22.2720  22.2864  22.2864  22.3310  22.3310  22.3664
    22.3664  22.4162  22.4163  22.4273  22.4273  22.4872  22.5417  22.5417
    22.5798  22.5798  22.6030  22.6030  22.6909  22.6909  22.9097  22.9097
    23.0308  23.0483  23.0483  23.1639  23.2350  23.3652  23.3652  23.4962
    23.6876  23.6884  23.6884  23.7937  23.8002  23.8002  23.8393  23.8393
    24.0613  24.0613  24.0623  24.1203  24.2163  24.2164  24.2200  24.2798
    24.2798  24.2994  24.3376  24.3386  24.5136  24.5136  24.5173  24.5173
    24.5702  24.5702  24.6489  25.1026  25.1026  25.1761  25.1761  25.1771
    25.1772  25.3182  25.5737  25.5737  25.6938  26.1978  26.1978  26.2602
    26.6316  26.7971  26.7971

          k = 0.0555 0.0555-0.4995 ( 30260 PWs)   bands (ev):

   -49.9561 -49.9559 -49.8714 -49.8714 -49.8712 -49.8712 -49.8551 -49.8551
   -49.8549 -49.8549 -49.8312 -49.8310 -49.8237 -49.8235 -49.8235 -49.8233
   -49.8176 -49.8174 -49.8020 -49.8018 -49.7869 -49.7869 -49.7868 -49.7867
   -49.7841 -49.7841 -49.7840 -49.7840 -49.7701 -49.7699 -49.7699 -49.7698
   -20.2952 -20.2951 -20.2823 -20.2822 -20.2821 -20.2820 -20.2643 -20.2642
   -20.2459 -20.2459 -20.2457 -20.2457 -20.2007 -20.2006 -20.1261 -20.1260
   -20.1260 -20.1260 -20.1056 -20.1056 -20.1056 -20.1056 -20.0177 -20.0177
   -20.0176 -20.0176 -19.9957 -19.9957 -19.9956 -19.9955 -19.9628 -19.9628
   -19.9628 -19.9627 -19.9520 -19.9520 -19.9518 -19.9518 -19.8455 -19.8455
   -19.8453 -19.8453 -19.7583 -19.7582 -19.7582 -19.7580 -19.7064 -19.7062
   -19.7032 -19.7030 -19.6643 -19.6642 -19.6629 -19.6629 -19.6627 -19.6627
   -19.6561 -19.6561 -19.6560 -19.6560 -19.6537 -19.6537 -19.6536 -19.6536
   -19.6413 -19.6412 -19.6411 -19.6410 -19.6285 -19.6285 -19.6283 -19.6283
   -19.6154 -19.6153 -19.5494 -19.5492 -19.5422 -19.5422 -19.5421 -19.5421
   -19.5415 -19.5413 -19.5329 -19.5327 -19.5327 -19.5325 -19.5191 -19.5189
   -19.5087 -19.5087 -19.5086 -19.5086 -19.4490 -19.4488 -19.4465 -19.4464
    16.0925  16.0928  17.2966  17.2968  17.4280  17.4282  17.4282  17.4284
    17.6134  17.6134  17.6808  17.6810  17.6937  17.6937  17.6939  17.6939
    17.7542  17.7542  17.9182  17.9182  17.9184  17.9184  18.0819  18.0819
    18.0821  18.0821  18.2884  18.2884  18.2886  18.2886  18.6466  18.6466
    18.6467  18.6467  18.7867  18.7867  18.7869  18.7869  18.9365  18.9365
    18.9367  18.9367  19.1326  19.1326  19.1328  19.1328  19.3447  19.3447
    19.3448  19.3448  19.3657  19.3657  19.3657  19.3657  19.6693  19.6693
    19.6693  19.6693  19.9202  19.9204  19.9526  19.9528  19.9528  19.9529
    19.9530  19.9530  20.0645  20.0647  20.0647  20.0648  20.2235  20.2236
    20.4301  20.4301  20.4301  20.4301  20.5357  20.5358  20.5358  20.5358
    20.8274  20.8275  20.9018  20.9018  20.9019  20.9020  20.9495  20.9495
    20.9975  20.9977  21.0003  21.0005  21.6713  21.6713  21.6714  21.6714
    21.6772  21.6772  21.7079  21.7079  22.0684  22.0684  22.0686  22.0686
    22.2588  22.2590  22.3569  22.3569  22.3569  22.3569  22.3840  22.3840
    22.3841  22.3842  22.4627  22.4628  22.4629  22.4629  22.4754  22.4755
    22.4756  22.4756  22.5415  22.5415  22.5417  22.5417  22.7925  22.7925
    22.7927  22.7927  23.1231  23.1233  23.7259  23.7261  23.7261  23.7262
    23.7363  23.7365  23.8231  23.8232  24.0015  24.0016  24.0017  24.0017
    24.0531  24.0532  24.0846  24.0847  24.1641  24.1641  24.1642  24.1642
    24.1805  24.1805  24.1807  24.1807  24.4600  24.4601  24.6335  24.6336
    24.6336  24.6336  24.6604  24.6606  25.0558  25.0558  25.0558  25.0558
    25.1764  25.1766  25.1766  25.1768  26.0095  26.0097  26.5361  26.5361
    26.5363  26.5363  27.0263

          k = 0.0555 0.1665 0.1665 ( 30311 PWs)   bands (ev):

   -49.9808 -49.9053 -49.9053 -49.8851 -49.8667 -49.8563 -49.8497 -49.8497
   -49.8438 -49.8438 -49.8321 -49.8321 -49.8299 -49.8249 -49.8206 -49.8206
   -49.8200 -49.8200 -49.8138 -49.8138 -49.8070 -49.8070 -49.7995 -49.7734
   -49.7734 -49.7729 -49.7729 -49.7718 -49.7718 -49.7709 -49.7709 -49.7701
   -20.3727 -20.3727 -20.3612 -20.3490 -20.3087 -20.3047 -20.3047 -20.1637
   -20.1637 -20.1576 -20.1576 -20.1276 -20.1262 -20.1262 -20.1244 -20.1243
   -20.1202 -20.1201 -20.1146 -20.1146 -20.0957 -20.0957 -20.0930 -20.0930
   -20.0339 -20.0109 -20.0109 -20.0072 -20.0072 -19.9893 -19.9893 -19.9667
   -19.9667 -19.9505 -19.9337 -19.8777 -19.8561 -19.8561 -19.8192 -19.8191
   -19.8079 -19.8079 -19.7856 -19.7840 -19.7839 -19.7634 -19.7634 -19.7509
   -19.7509 -19.7480 -19.7480 -19.7462 -19.7461 -19.7461 -19.7450 -19.7450
   -19.7362 -19.7362 -19.7081 -19.7081 -19.6939 -19.6318 -19.6318 -19.6171
   -19.6171 -19.5937 -19.5893 -19.5802 -19.5655 -19.5655 -19.5648 -19.5648
   -19.5589 -19.5576 -19.5570 -19.5569 -19.5552 -19.5552 -19.5432 -19.5397
   -19.5397 -19.5368 -19.5367 -19.5367 -19.5286 -19.5269 -19.5269 -19.5261
   -19.5193 -19.5193 -19.5042 -19.5042 -19.4865 -19.4419 -19.4067 -19.3988
    15.4468  16.9566  16.9566  16.9632  17.1776  17.2301  17.2818  17.2818
    17.2851  17.2851  17.4082  17.4082  17.4364  17.6357  17.7913  17.7913
    17.8116  18.1578  18.1578  18.1851  18.1851  18.3489  18.3489  18.3512
    18.3512  18.3968  18.3968  18.4734  18.5388  18.5388  18.6542  18.7007
    18.7007  18.7210  18.7210  18.7465  18.9113  18.9854  18.9854  18.9918
    18.9918  19.0186  19.0186  19.1393  19.1393  19.3641  19.3641  19.4642
    19.4642  19.4870  19.5427  19.5427  19.5757  19.5758  19.6266  19.6266
    19.6471  19.8342  19.8343  19.8392  19.8392  19.9302  19.9302  19.9985
    19.9986  20.0430  20.1162  20.1163  20.2265  20.2265  20.2439  20.2439
    20.2839  20.2839  20.3190  20.3882  20.3882  20.3982  20.4111  20.4232
    20.4638  20.4638  20.4863  20.5320  20.5638  20.5638  20.6024  20.6272
    21.1444  21.2445  21.2807  21.2807  21.5331  21.5331  21.6970  21.7093
    21.7093  21.7106  21.7106  21.7831  21.7831  21.8033  21.8033  21.8296
    21.8296  21.9850  22.0495  22.1523  22.1523  22.1743  22.1743  22.2251
    22.3028  22.5839  22.5839  22.6993  22.7116  22.7116  22.7277  22.7277
    22.7682  22.7682  22.7945  22.8489  22.8490  22.8916  22.9227  22.9227
    22.9866  22.9866  23.0055  23.0462  23.0462  23.1446  23.2354  23.2948
    23.2948  23.3261  23.3261  23.4062  23.4175  23.4175  23.5440  23.5440
    23.7508  23.9459  24.1145  24.1178  24.1178  24.2563  24.2563  24.4284
    24.5386  24.5386  24.6033  24.6837  24.6837  24.6983  24.7049  24.9482
    24.9482  25.0502  25.0502  25.0539  25.0539  25.0717  25.0717  25.1154
    25.3126  25.6044  25.9438  25.9438  26.0462  26.0462  26.5737  26.5737
    27.0820  27.0820  27.1881

          k = 0.0555 0.1665 0.2775 ( 30265 PWs)   bands (ev):

   -49.9745 -49.9228 -49.9011 -49.8816 -49.8676 -49.8637 -49.8534 -49.8472
   -49.8426 -49.8400 -49.8331 -49.8320 -49.8315 -49.8273 -49.8265 -49.8185
   -49.8169 -49.8143 -49.8092 -49.8080 -49.8043 -49.7991 -49.7928 -49.7799
   -49.7764 -49.7759 -49.7758 -49.7733 -49.7733 -49.7721 -49.7707 -49.7702
   -20.3582 -20.3548 -20.3362 -20.3200 -20.2925 -20.2898 -20.2806 -20.2097
   -20.2009 -20.1677 -20.1665 -20.1633 -20.1631 -20.1597 -20.1388 -20.1352
   -20.1339 -20.1181 -20.1167 -20.1090 -20.1064 -20.1029 -20.0991 -20.0805
   -20.0625 -20.0265 -20.0116 -19.9943 -19.9939 -19.9804 -19.9744 -19.9722
   -19.9524 -19.9462 -19.9205 -19.9075 -19.8911 -19.8553 -19.8439 -19.8178
   -19.8079 -19.8030 -19.7812 -19.7721 -19.7675 -19.7522 -19.7511 -19.7483
   -19.7438 -19.7417 -19.7372 -19.7273 -19.7181 -19.7139 -19.7120 -19.7097
   -19.7095 -19.7056 -19.6733 -19.6710 -19.6620 -19.6577 -19.6478 -19.6468
   -19.6057 -19.6049 -19.6002 -19.5979 -19.5907 -19.5892 -19.5883 -19.5856
   -19.5765 -19.5709 -19.5628 -19.5584 -19.5582 -19.5557 -19.5500 -19.5459
   -19.5447 -19.5425 -19.5395 -19.5358 -19.5278 -19.5271 -19.5214 -19.5066
   -19.5060 -19.5041 -19.5000 -19.4886 -19.4768 -19.4759 -19.4177 -19.4046
    15.6134  16.9122  17.0551  17.0762  17.0811  17.2533  17.3222  17.4033
    17.4069  17.4231  17.4824  17.5299  17.5659  17.6988  17.7246  17.8997
    17.9232  17.9382  17.9776  18.0843  18.1185  18.2077  18.2179  18.2455
    18.2719  18.3026  18.3869  18.4146  18.4326  18.4377  18.4412  18.4634
    18.5897  18.6123  18.6234  18.7269  18.7634  18.8332  18.8399  19.0026
    19.0163  19.0416  19.0768  19.1881  19.2159  19.2785  19.2932  19.3215
    19.3314  19.3857  19.4133  19.4559  19.5355  19.5467  19.5735  19.6459
    19.6666  19.7044  19.8189  19.9344  19.9723  20.0048  20.0313  20.0645
    20.0916  20.1189  20.1489  20.1697  20.2399  20.2533  20.2741  20.2897
    20.3037  20.3854  20.4141  20.4448  20.4581  20.5195  20.5562  20.5574
    20.6244  20.6816  20.6827  20.6905  20.7045  20.7125  20.9365  20.9529
    20.9833  21.0385  21.0544  21.2773  21.2795  21.2873  21.4461  21.4848
    21.5619  21.5765  21.6129  21.7401  21.7755  21.8295  21.8999  21.9943
    22.0144  22.0501  22.1024  22.1445  22.1944  22.2052  22.3016  22.3830
    22.4127  22.4919  22.4976  22.5346  22.5470  22.5702  22.6789  22.6852
    22.6946  22.7044  22.7989  22.8233  22.8877  22.9295  22.9924  23.0060
    23.0237  23.0525  23.0552  23.2383  23.3324  23.3331  23.3533  23.3812
    23.4071  23.5614  23.5813  23.6215  23.6295  23.6335  23.6632  23.6788
    23.6864  23.7656  23.8793  23.9724  24.1304  24.2433  24.3424  24.3659
    24.3800  24.4523  24.4794  24.5906  24.6102  24.6134  24.7596  24.7604
    24.8207  24.8234  24.8860  24.9406  25.0499  25.0553  25.0665  25.0787
    25.1252  25.5043  25.5409  25.9299  26.0486  26.3696  26.4624  26.5519
    26.5677  26.6481  27.5617

          k = 0.0555 0.1665 0.3885 ( 30247 PWs)   bands (ev):

   -49.9651 -49.9389 -49.8951 -49.8781 -49.8765 -49.8622 -49.8595 -49.8474
   -49.8436 -49.8409 -49.8360 -49.8335 -49.8305 -49.8280 -49.8172 -49.8158
   -49.8150 -49.8141 -49.8096 -49.7988 -49.7956 -49.7918 -49.7893 -49.7867
   -49.7819 -49.7814 -49.7800 -49.7768 -49.7730 -49.7724 -49.7705 -49.7702
   -20.3333 -20.3269 -20.3020 -20.2821 -20.2687 -20.2679 -20.2566 -20.2471
   -20.2452 -20.2139 -20.2059 -20.2013 -20.1882 -20.1614 -20.1562 -20.1438
   -20.1432 -20.1409 -20.1371 -20.1271 -20.1041 -20.0902 -20.0885 -20.0695
   -20.0464 -20.0309 -20.0249 -20.0060 -20.0046 -19.9756 -19.9522 -19.9501
   -19.9447 -19.9321 -19.9233 -19.9055 -19.8898 -19.8774 -19.8772 -19.8595
   -19.8356 -19.8066 -19.7508 -19.7492 -19.7457 -19.7416 -19.7399 -19.7359
   -19.7300 -19.7212 -19.7205 -19.6963 -19.6900 -19.6862 -19.6847 -19.6820
   -19.6770 -19.6759 -19.6686 -19.6619 -19.6414 -19.6401 -19.6395 -19.6304
   -19.6266 -19.6253 -19.6242 -19.6242 -19.6238 -19.6180 -19.6179 -19.5918
   -19.5893 -19.5851 -19.5695 -19.5663 -19.5615 -19.5602 -19.5597 -19.5538
   -19.5512 -19.5485 -19.5335 -19.5333 -19.5292 -19.5258 -19.5210 -19.5165
   -19.5087 -19.5028 -19.4895 -19.4789 -19.4744 -19.4606 -19.4337 -19.4174
    15.8563  16.5259  17.1944  17.2404  17.2598  17.3841  17.4682  17.5410
    17.5715  17.5834  17.5924  17.6133  17.6889  17.7111  17.7300  17.7557
    17.8036  17.8461  17.9131  17.9141  18.0087  18.0197  18.0784  18.1119
    18.1195  18.1332  18.2437  18.2919  18.2980  18.3015  18.4739  18.4950
    18.5595  18.5699  18.5973  18.6265  18.7296  18.9269  18.9333  18.9506
    18.9627  19.0597  19.0772  19.1256  19.1376  19.1733  19.1935  19.2032
    19.2420  19.2541  19.3959  19.3961  19.3999  19.5100  19.6682  19.6707
    19.6779  19.7461  19.9438  19.9506  19.9947  20.0186  20.0502  20.0541
    20.0804  20.1183  20.1355  20.2038  20.2065  20.2092  20.2568  20.2768
    20.3812  20.3854  20.4109  20.6079  20.6687  20.6981  20.7204  20.7560
    20.8157  20.8375  20.8431  20.8512  20.8590  20.8623  20.8664  20.9012
    20.9943  21.0818  21.1349  21.1633  21.2220  21.2322  21.3204  21.3487
    21.5622  21.6476  21.7024  21.7733  21.7848  21.8373  21.9437  22.0057
    22.0239  22.0540  22.0959  22.1097  22.1151  22.1177  22.1887  22.2556
    22.3215  22.3776  22.4737  22.4997  22.5206  22.5823  22.6106  22.6304
    22.6438  22.7447  22.7873  22.7996  22.8867  22.9209  22.9293  23.0062
    23.0535  23.0936  23.2354  23.2712  23.3207  23.3224  23.3964  23.4123
    23.5952  23.6236  23.6905  23.7841  23.9051  23.9079  23.9291  23.9372
    23.9599  23.9713  23.9834  24.0754  24.0883  24.1690  24.1715  24.2683
    24.3445  24.4491  24.4550  24.5147  24.5155  24.5158  24.5201  24.5290
    24.6664  24.6706  24.7415  24.9817  25.0488  25.0508  25.0570  25.0618
    25.0621  25.2462  25.5229  25.7552  25.7912  25.9409  26.0935  26.2927
    26.7821  27.1055  27.3875

          k = 0.0555 0.1665-0.4995 ( 30270 PWs)   bands (ev):

   -49.9533 -49.9531 -49.8874 -49.8872 -49.8701 -49.8699 -49.8541 -49.8539
   -49.8391 -49.8389 -49.8388 -49.8386 -49.8295 -49.8293 -49.8161 -49.8159
   -49.8118 -49.8116 -49.8015 -49.8013 -49.7897 -49.7895 -49.7880 -49.7878
   -49.7855 -49.7853 -49.7814 -49.7812 -49.7729 -49.7727 -49.7705 -49.7703
   -20.2988 -20.2987 -20.2903 -20.2902 -20.2605 -20.2604 -20.2397 -20.2396
   -20.2381 -20.2379 -20.2373 -20.2372 -20.1993 -20.1991 -20.1524 -20.1524
   -20.1448 -20.1447 -20.1436 -20.1436 -20.0903 -20.0903 -20.0679 -20.0678
   -20.0373 -20.0372 -20.0300 -20.0299 -19.9849 -19.9849 -19.9518 -19.9517
   -19.9222 -19.9221 -19.9069 -19.9068 -19.9047 -19.9046 -19.8684 -19.8683
   -19.8391 -19.8389 -19.7501 -19.7500 -19.7402 -19.7401 -19.7150 -19.7148
   -19.7007 -19.7005 -19.6968 -19.6966 -19.6902 -19.6901 -19.6707 -19.6707
   -19.6611 -19.6609 -19.6545 -19.6544 -19.6518 -19.6517 -19.6497 -19.6496
   -19.6482 -19.6480 -19.6205 -19.6204 -19.6132 -19.6130 -19.5946 -19.5944
   -19.5927 -19.5926 -19.5781 -19.5780 -19.5760 -19.5759 -19.5559 -19.5557
   -19.5515 -19.5513 -19.5451 -19.5450 -19.5311 -19.5309 -19.5124 -19.5122
   -19.5119 -19.5118 -19.4790 -19.4789 -19.4545 -19.4543 -19.4366 -19.4364
    16.1656  16.1658  17.3626  17.3628  17.4487  17.4489  17.4817  17.4819
    17.5684  17.5685  17.6663  17.6663  17.7366  17.7368  17.7782  17.7784
    17.8085  17.8085  17.8479  17.8479  17.9498  17.9500  17.9871  17.9873
    18.0002  18.0003  18.1587  18.1588  18.3438  18.3440  18.3912  18.3912
    18.6726  18.6726  18.6911  18.6913  18.7450  18.7451  18.8328  18.8329
    19.0772  19.0772  19.1118  19.1120  19.1412  19.1412  19.1762  19.1763
    19.2467  19.2467  19.3111  19.3112  19.3284  19.3286  19.7975  19.7976
    19.8561  19.8562  19.8661  19.8663  19.9225  19.9227  19.9796  19.9796
    20.1313  20.1314  20.1485  20.1486  20.3266  20.3267  20.3566  20.3567
    20.4310  20.4310  20.4725  20.4725  20.5312  20.5313  20.7144  20.7144
    20.8221  20.8221  20.9158  20.9159  20.9922  20.9924  20.9999  21.0000
    21.0309  21.0310  21.0633  21.0634  21.4808  21.4808  21.5219  21.5219
    21.5563  21.5564  21.6055  21.6056  21.7758  21.7759  21.7801  21.7803
    22.0369  22.0370  22.2094  22.2094  22.2331  22.2332  22.2823  22.2824
    22.2900  22.2902  22.3539  22.3540  22.4170  22.4171  22.5249  22.5251
    22.7182  22.7184  22.7414  22.7416  22.8453  22.8454  23.1093  23.1095
    23.1426  23.1427  23.1463  23.1465  23.2148  23.2149  23.6664  23.6665
    23.7503  23.7505  23.7617  23.7617  23.9802  23.9802  24.0349  24.0349
    24.1602  24.1604  24.2133  24.2133  24.2141  24.2142  24.2353  24.2354
    24.2355  24.2356  24.2433  24.2434  24.2544  24.2545  24.4427  24.4427
    24.5821  24.5822  25.0055  25.0056  25.0540  25.0541  25.0590  25.0592
    25.2988  25.2990  25.5246  25.5248  25.5323  25.5323  26.0654  26.0656
    27.1283  27.1285  27.5537

          k = 0.0555 0.2775 0.2775 ( 30227 PWs)   bands (ev):

   -49.9683 -49.9182 -49.9181 -49.8804 -49.8783 -49.8610 -49.8517 -49.8516
   -49.8389 -49.8389 -49.8377 -49.8301 -49.8301 -49.8296 -49.8145 -49.8145
   -49.8139 -49.8139 -49.8053 -49.8053 -49.8007 -49.8007 -49.7877 -49.7795
   -49.7795 -49.7790 -49.7790 -49.7768 -49.7768 -49.7725 -49.7725 -49.7704
   -20.3445 -20.3445 -20.3087 -20.2882 -20.2764 -20.2683 -20.2683 -20.2090
   -20.2090 -20.2051 -20.2051 -20.1682 -20.1682 -20.1459 -20.1459 -20.1413
   -20.1413 -20.1388 -20.1388 -20.1312 -20.1311 -20.1042 -20.1042 -20.1042
   -20.0894 -20.0894 -20.0093 -20.0012 -19.9743 -19.9743 -19.9550 -19.9550
   -19.9463 -19.9397 -19.9069 -19.9069 -19.8356 -19.8355 -19.8351 -19.8075
   -19.8075 -19.8022 -19.8022 -19.7696 -19.7696 -19.7476 -19.7476 -19.7364
   -19.7364 -19.7306 -19.7302 -19.7302 -19.7163 -19.7163 -19.6950 -19.6950
   -19.6775 -19.6775 -19.6756 -19.6756 -19.6406 -19.6406 -19.6388 -19.6387
   -19.6244 -19.6244 -19.6228 -19.6148 -19.5939 -19.5939 -19.5924 -19.5858
   -19.5858 -19.5829 -19.5828 -19.5828 -19.5563 -19.5563 -19.5545 -19.5544
   -19.5517 -19.5447 -19.5313 -19.5294 -19.5294 -19.5273 -19.5194 -19.5194
   -19.5141 -19.5031 -19.5031 -19.4738 -19.4738 -19.4620 -19.4288 -19.4043
    15.7746  17.0356  17.0356  17.1702  17.1807  17.1807  17.3043  17.3890
    17.5549  17.5549  17.6017  17.6017  17.7053  17.7560  17.8316  17.8316
    17.9202  17.9677  17.9776  17.9777  18.0025  18.0025  18.0910  18.0910
    18.1400  18.1400  18.2166  18.2166  18.4169  18.4983  18.4983  18.5146
    18.5146  18.5494  18.5494  18.6350  18.6350  18.7323  18.7323  18.8079
    18.8079  18.9274  19.0728  19.0728  19.1415  19.1415  19.1456  19.3843
    19.3843  19.4007  19.4008  19.4418  19.4456  19.4456  19.5054  19.8391
    19.8391  19.9522  19.9522  20.0262  20.0262  20.0958  20.0958  20.1371
    20.1371  20.1517  20.1517  20.2367  20.2520  20.3250  20.3250  20.4053
    20.4144  20.4750  20.4750  20.6279  20.6279  20.6392  20.6940  20.7175
    20.7282  20.7609  20.7609  20.7811  20.8146  20.8291  20.8305  20.8305
    20.9868  20.9868  21.1149  21.1149  21.3451  21.3452  21.4820  21.4820
    21.5382  21.5382  21.6400  21.6400  21.6605  21.7329  21.7541  21.7541
    21.7924  21.7924  21.9671  21.9904  22.1252  22.1494  22.1494  22.1530
    22.1530  22.2772  22.3486  22.4808  22.4808  22.6274  22.6445  22.6445
    22.9260  22.9331  22.9331  23.0605  23.0605  23.0865  23.0866  23.1862
    23.1923  23.2055  23.2055  23.2905  23.2905  23.3944  23.3945  23.4017
    23.4017  23.4538  23.4538  23.7153  23.7423  23.7424  23.7988  23.8901
    23.8901  23.8948  23.9159  23.9159  24.0705  24.1229  24.2958  24.2958
    24.4983  24.6245  24.6245  24.6465  24.6518  24.6518  24.6583  24.6827
    24.8262  24.8262  24.8276  24.8276  24.8680  24.8680  24.8770  24.8770
    24.9748  25.3343  25.4300  25.4300  25.9439  25.9439  27.0015  27.0015
    27.2498  27.3034  27.3034

          k = 0.0555 0.2775 0.3885 ( 30271 PWs)   bands (ev):

   -49.9592 -49.9338 -49.9113 -49.8922 -49.8735 -49.8599 -49.8570 -49.8491
   -49.8458 -49.8420 -49.8372 -49.8325 -49.8273 -49.8193 -49.8143 -49.8113
   -49.8098 -49.8069 -49.8031 -49.8027 -49.7971 -49.7939 -49.7886 -49.7838
   -49.7836 -49.7829 -49.7829 -49.7790 -49.7776 -49.7753 -49.7719 -49.7708
   -20.3236 -20.3209 -20.2730 -20.2539 -20.2529 -20.2505 -20.2488 -20.2483
   -20.2369 -20.2009 -20.2009 -20.1997 -20.1866 -20.1847 -20.1682 -20.1664
   -20.1656 -20.1529 -20.1491 -20.1463 -20.1266 -20.1233 -20.1063 -20.1008
   -20.0944 -20.0647 -20.0347 -20.0336 -20.0040 -19.9795 -19.9366 -19.9272
   -19.9168 -19.8959 -19.8875 -19.8673 -19.8662 -19.8644 -19.8433 -19.8344
   -19.7946 -19.7940 -19.7766 -19.7636 -19.7555 -19.7528 -19.7355 -19.7325
   -19.7227 -19.7189 -19.7161 -19.7060 -19.7015 -19.7002 -19.6869 -19.6804
   -19.6712 -19.6699 -19.6693 -19.6682 -19.6608 -19.6482 -19.6378 -19.6346
   -19.6310 -19.6270 -19.6130 -19.6127 -19.6127 -19.6050 -19.6042 -19.6031
   -19.5906 -19.5809 -19.5786 -19.5727 -19.5688 -19.5678 -19.5662 -19.5656
   -19.5620 -19.5467 -19.5419 -19.5381 -19.5373 -19.5342 -19.5326 -19.5206
   -19.5076 -19.5073 -19.4912 -19.4613 -19.4545 -19.4475 -19.4452 -19.4117
    16.0097  16.6589  17.2134  17.3121  17.3216  17.3612  17.4067  17.5057
    17.6723  17.6927  17.7081  17.7270  17.7333  17.7462  17.7599  17.7791
    17.8017  17.8382  17.8837  17.9040  17.9274  17.9568  18.0184  18.0225
    18.0416  18.0720  18.2177  18.2321  18.2540  18.2581  18.2992  18.3632
    18.4320  18.5283  18.5904  18.6463  18.6554  18.6601  18.7020  18.7029
    18.7979  18.8853  18.9107  18.9889  19.0274  19.1535  19.1559  19.1911
    19.2661  19.3499  19.4747  19.4832  19.5113  19.5244  19.6920  19.7437
    19.7787  19.7998  19.8823  20.0231  20.1031  20.1047  20.1935  20.2127
    20.2326  20.2522  20.2590  20.3436  20.3851  20.3996  20.4034  20.5219
    20.5220  20.5931  20.6123  20.6341  20.6387  20.6663  20.7476  20.7977
    20.8384  20.8456  20.8787  20.8883  20.9023  20.9804  21.0109  21.0127
    21.0180  21.0906  21.1235  21.1413  21.2240  21.2872  21.3365  21.4293
    21.4911  21.4967  21.5298  21.5529  21.5873  21.6117  21.6357  21.6445
    21.7513  21.7652  21.7872  21.8457  21.9636  21.9967  22.0100  22.0635
    22.1724  22.1790  22.3443  22.3683  22.4915  22.5283  22.6111  22.6864
    22.8361  22.8637  22.8739  22.9221  22.9945  23.0831  23.1451  23.1534
    23.2351  23.2699  23.3176  23.4220  23.4314  23.4468  23.5177  23.5796
    23.6287  23.6296  23.7853  23.7873  23.7886  23.8351  24.0141  24.0589
    24.0776  24.0933  24.1329  24.1393  24.1534  24.1597  24.1620  24.2026
    24.2739  24.4232  24.4909  24.5088  24.5098  24.5217  24.5403  24.5450
    24.5527  24.6195  24.8234  24.8332  24.8385  24.8520  24.9041  24.9434
    25.2672  25.3871  25.4077  25.4240  25.4700  25.7907  26.6611  26.6740
    27.4359  27.6123  27.9164

          k = 0.0555 0.2775-0.4995 ( 30262 PWs)   bands (ev):

   -49.9477 -49.9476 -49.9027 -49.9025 -49.8674 -49.8672 -49.8520 -49.8518
   -49.8460 -49.8458 -49.8351 -49.8349 -49.8237 -49.8235 -49.8090 -49.8088
   -49.8062 -49.8060 -49.8005 -49.8003 -49.7924 -49.7922 -49.7899 -49.7898
   -49.7880 -49.7878 -49.7789 -49.7787 -49.7784 -49.7783 -49.7714 -49.7712
   -20.2930 -20.2929 -20.2883 -20.2883 -20.2307 -20.2306 -20.2275 -20.2273
   -20.2228 -20.2226 -20.2023 -20.2022 -20.1960 -20.1958 -20.1884 -20.1884
   -20.1861 -20.1860 -20.1606 -20.1605 -20.1127 -20.1125 -20.1052 -20.1051
   -20.0709 -20.0708 -20.0285 -20.0285 -20.0224 -20.0223 -19.9003 -19.9003
   -19.8979 -19.8978 -19.8797 -19.8796 -19.8632 -19.8630 -19.8444 -19.8444
   -19.8267 -19.8265 -19.7343 -19.7342 -19.7315 -19.7313 -19.7292 -19.7290
   -19.7197 -19.7197 -19.7180 -19.7180 -19.7053 -19.7053 -19.6964 -19.6962
   -19.6677 -19.6675 -19.6591 -19.6590 -19.6430 -19.6429 -19.6416 -19.6415
   -19.6242 -19.6241 -19.6179 -19.6179 -19.6147 -19.6146 -19.6022 -19.6021
   -19.5890 -19.5888 -19.5744 -19.5742 -19.5730 -19.5728 -19.5725 -19.5725
   -19.5622 -19.5620 -19.5508 -19.5507 -19.5370 -19.5368 -19.5182 -19.5181
   -19.5135 -19.5133 -19.4663 -19.4661 -19.4544 -19.4544 -19.4264 -19.4264
    16.3092  16.3094  17.4363  17.4365  17.4919  17.4921  17.4999  17.5001
    17.5594  17.5594  17.5859  17.5860  17.6712  17.6713  17.8477  17.8479
    17.8597  17.8598  17.9554  17.9554  17.9750  17.9750  18.0089  18.0090
    18.0126  18.0127  18.1340  18.1340  18.1508  18.1509  18.2602  18.2603
    18.4538  18.4540  18.5576  18.5577  18.6660  18.6660  18.7912  18.7913
    18.7931  18.7931  18.9382  18.9383  19.0405  19.0407  19.0698  19.0699
    19.4342  19.4342  19.5138  19.5139  19.6025  19.6025  19.6138  19.6139
    19.6484  19.6485  19.9158  19.9159  20.1618  20.1619  20.2664  20.2665
    20.2908  20.2908  20.3796  20.3798  20.3955  20.3955  20.4349  20.4349
    20.5216  20.5216  20.6692  20.6692  20.7787  20.7789  20.8752  20.8753
    20.8797  20.8797  20.9521  20.9522  20.9914  20.9915  21.0080  21.0081
    21.1760  21.1760  21.2069  21.2069  21.2245  21.2245  21.2327  21.2328
    21.4101  21.4101  21.4149  21.4150  21.5160  21.5161  21.5240  21.5241
    21.7346  21.7347  21.9561  21.9562  22.1054  22.1056  22.1277  22.1277
    22.1670  22.1671  22.2079  22.2080  22.3173  22.3174  22.5035  22.5037
    22.6987  22.6989  23.0128  23.0129  23.0510  23.0511  23.1144  23.1146
    23.2564  23.2566  23.5086  23.5087  23.5486  23.5488  23.6637  23.6639
    23.7584  23.7585  23.8313  23.8313  23.9133  23.9133  23.9135  23.9135
    24.1661  24.1661  24.1666  24.1668  24.2716  24.2716  24.3380  24.3381
    24.3383  24.3384  24.3587  24.3587  24.3789  24.3790  24.3808  24.3808
    24.4826  24.4826  24.8408  24.8410  24.8620  24.8621  24.9088  24.9088
    25.0595  25.0597  25.5999  25.6001  25.9985  25.9987  26.0765  26.0765
    27.7961  27.7962  28.1240

          k = 0.0555 0.3885 0.3885 ( 30262 PWs)   bands (ev):

   -49.9506 -49.9263 -49.9263 -49.9052 -49.8691 -49.8567 -49.8567 -49.8534
   -49.8476 -49.8434 -49.8434 -49.8366 -49.8122 -49.8122 -49.8064 -49.8063
   -49.8058 -49.8058 -49.7994 -49.7994 -49.7970 -49.7970 -49.7877 -49.7877
   -49.7872 -49.7872 -49.7851 -49.7851 -49.7795 -49.7739 -49.7739 -49.7716
   -20.3043 -20.3043 -20.2428 -20.2428 -20.2409 -20.2409 -20.2365 -20.2300
   -20.2246 -20.2246 -20.2072 -20.1984 -20.1984 -20.1891 -20.1891 -20.1654
   -20.1654 -20.1515 -20.1515 -20.1500 -20.1500 -20.1492 -20.1492 -20.1121
   -20.1121 -20.1105 -20.0719 -20.0280 -20.0222 -19.9701 -19.9701 -19.8998
   -19.8796 -19.8796 -19.8459 -19.8459 -19.8398 -19.8091 -19.8091 -19.7946
   -19.7946 -19.7934 -19.7934 -19.7773 -19.7773 -19.7298 -19.7298 -19.7293
   -19.7293 -19.7156 -19.7156 -19.7083 -19.7068 -19.7067 -19.7034 -19.7034
   -19.6905 -19.6905 -19.6603 -19.6603 -19.6523 -19.6523 -19.6488 -19.6400
   -19.6400 -19.6161 -19.6161 -19.6119 -19.6048 -19.6048 -19.6048 -19.6048
   -19.5872 -19.5824 -19.5824 -19.5812 -19.5812 -19.5744 -19.5667 -19.5597
   -19.5542 -19.5486 -19.5447 -19.5429 -19.5429 -19.5361 -19.5313 -19.5140
   -19.5140 -19.5092 -19.5092 -19.4620 -19.4415 -19.4385 -19.4385 -19.4130
    16.2332  16.8518  16.8518  17.3819  17.4283  17.4743  17.5047  17.5047
    17.5861  17.7393  17.7393  17.7632  17.7985  17.7985  17.8616  17.8616
    17.8715  17.8715  17.8801  17.8801  17.9074  17.9193  17.9193  17.9921
    17.9921  18.0623  18.1082  18.1753  18.1753  18.3688  18.3689  18.3710
    18.3710  18.3774  18.3775  18.3818  18.3818  18.6200  18.6200  18.6317
    18.6317  18.6856  18.6856  18.9362  18.9362  19.0646  19.2718  19.2718
    19.2772  19.2773  19.4419  19.6025  19.6025  19.6192  19.6307  19.6967
    19.6967  20.0203  20.0313  20.0313  20.1944  20.2941  20.2941  20.4077
    20.4213  20.4214  20.4282  20.4282  20.4362  20.4362  20.4687  20.4687
    20.5454  20.5918  20.7519  20.7519  20.8455  20.8455  20.8612  20.9114
    20.9126  20.9242  20.9359  20.9755  21.0258  21.0258  21.0571  21.0571
    21.2001  21.2001  21.2163  21.2163  21.2166  21.2471  21.2471  21.2955
    21.3716  21.3716  21.4024  21.4024  21.4241  21.4357  21.4753  21.4753
    21.4984  21.4985  21.6382  21.7085  21.7085  21.7393  21.7393  22.0167
    22.1665  22.1665  22.1811  22.1811  22.2665  22.2665  22.3291  22.4164
    22.7277  23.0531  23.1024  23.1024  23.1250  23.1250  23.3897  23.3897
    23.4008  23.4008  23.4994  23.4994  23.5596  23.5596  23.6289  23.6668
    23.8115  23.8115  23.9167  23.9442  23.9442  23.9611  23.9612  23.9704
    23.9704  24.0564  24.1647  24.2629  24.2980  24.3203  24.3203  24.3233
    24.3233  24.3672  24.4309  24.4859  24.4859  24.5325  24.5325  24.5470
    24.5470  24.5724  24.5771  24.5771  24.5941  24.5942  24.7639  24.7915
    24.7915  25.1224  25.2857  25.2857  26.0459  26.0459  27.3228  27.3228
    27.3909  27.3909  28.1079

          k = 0.0555 0.3885-0.4995 ( 30260 PWs)   bands (ev):

   -49.9396 -49.9394 -49.9168 -49.9166 -49.8635 -49.8633 -49.8526 -49.8525
   -49.8489 -49.8487 -49.8404 -49.8402 -49.8096 -49.8094 -49.8024 -49.8022
   -49.8011 -49.8010 -49.7990 -49.7988 -49.7949 -49.7947 -49.7929 -49.7927
   -49.7918 -49.7916 -49.7866 -49.7864 -49.7765 -49.7763 -49.7727 -49.7725
   -20.2780 -20.2779 -20.2762 -20.2761 -20.2240 -20.2239 -20.2238 -20.2238
   -20.2087 -20.2086 -20.2005 -20.2003 -20.1947 -20.1946 -20.1908 -20.1906
   -20.1734 -20.1733 -20.1610 -20.1609 -20.1512 -20.1511 -20.1389 -20.1388
   -20.1116 -20.1115 -20.0677 -20.0676 -20.0020 -20.0020 -19.9349 -19.9348
   -19.8435 -19.8435 -19.8348 -19.8348 -19.8224 -19.8222 -19.8088 -19.8086
   -19.7838 -19.7838 -19.7593 -19.7591 -19.7554 -19.7552 -19.7536 -19.7535
   -19.7457 -19.7457 -19.7116 -19.7114 -19.6975 -19.6975 -19.6903 -19.6901
   -19.6753 -19.6752 -19.6685 -19.6685 -19.6676 -19.6676 -19.6502 -19.6501
   -19.6301 -19.6300 -19.6295 -19.6294 -19.5979 -19.5977 -19.5944 -19.5943
   -19.5943 -19.5942 -19.5866 -19.5866 -19.5630 -19.5628 -19.5588 -19.5587
   -19.5551 -19.5550 -19.5499 -19.5498 -19.5323 -19.5321 -19.5275 -19.5274
   -19.5228 -19.5226 -19.4836 -19.4834 -19.4363 -19.4362 -19.4221 -19.4221
    16.5182  16.5185  17.0965  17.0967  17.5861  17.5861  17.5912  17.5913
    17.6782  17.6784  17.7085  17.7085  17.7335  17.7337  17.7409  17.7410
    17.8788  17.8788  17.9093  17.9093  18.0128  18.0130  18.0990  18.0991
    18.1059  18.1061  18.1307  18.1307  18.1352  18.1352  18.1782  18.1784
    18.3531  18.3532  18.3815  18.3816  18.4918  18.4920  18.5270  18.5270
    18.5489  18.5489  18.8383  18.8383  19.0671  19.0673  19.0806  19.0808
    19.4198  19.4200  19.4307  19.4309  19.6762  19.6762  19.7557  19.7558
    19.8809  19.8809  19.9561  19.9561  20.1502  20.1504  20.4021  20.4022
    20.4539  20.4539  20.5093  20.5093  20.5965  20.5965  20.6477  20.6477
    20.7575  20.7576  20.7769  20.7769  20.8036  20.8036  20.9641  20.9641
    20.9730  20.9731  20.9957  20.9958  21.0192  21.0192  21.0508  21.0509
    21.1083  21.1084  21.1543  21.1543  21.1644  21.1644  21.1918  21.1919
    21.3025  21.3026  21.3096  21.3097  21.4546  21.4547  21.4784  21.4784
    21.4850  21.4851  21.6419  21.6420  21.8857  21.8859  21.8884  21.8884
    21.9388  21.9389  21.9581  21.9582  22.1091  22.1093  22.2888  22.2890
    22.9285  22.9287  23.1923  23.1924  23.3047  23.3048  23.3487  23.3488
    23.3781  23.3783  23.6132  23.6133  23.6882  23.6884  23.7083  23.7085
    23.7838  23.7839  23.8658  23.8660  23.9799  23.9799  24.1189  24.1191
    24.1837  24.1839  24.2737  24.2738  24.3411  24.3411  24.3431  24.3431
    24.3611  24.3611  24.4273  24.4274  24.4303  24.4304  24.4652  24.4653
    24.4697  24.4697  24.5495  24.5497  24.6037  24.6038  24.6616  24.6616
    24.7790  24.7790  25.1377  25.1379  26.6957  26.6957  26.6982  26.6984
    28.0359  28.0360  28.1064

          k = 0.0555-0.4995-0.4995 ( 30292 PWs)   bands (ev):

   -49.9293 -49.9291 -49.9291 -49.9289 -49.8586 -49.8585 -49.8585 -49.8583
   -49.8451 -49.8449 -49.8449 -49.8447 -49.7972 -49.7972 -49.7971 -49.7971
   -49.7970 -49.7970 -49.7969 -49.7968 -49.7967 -49.7967 -49.7965 -49.7965
   -49.7965 -49.7965 -49.7963 -49.7963 -49.7745 -49.7744 -49.7743 -49.7742
   -20.2545 -20.2545 -20.2545 -20.2545 -20.2544 -20.2544 -20.2544 -20.2544
   -20.1834 -20.1834 -20.1833 -20.1833 -20.1833 -20.1833 -20.1831 -20.1831
   -20.1721 -20.1720 -20.1720 -20.1718 -20.1541 -20.1540 -20.1540 -20.1539
   -20.1152 -20.1151 -20.1151 -20.1150 -19.9695 -19.9694 -19.9694 -19.9694
   -19.7921 -19.7921 -19.7921 -19.7921 -19.7921 -19.7921 -19.7921 -19.7921
   -19.7862 -19.7862 -19.7860 -19.7860 -19.7860 -19.7860 -19.7858 -19.7858
   -19.7246 -19.7246 -19.7246 -19.7246 -19.6832 -19.6832 -19.6830 -19.6830
   -19.6830 -19.6830 -19.6829 -19.6829 -19.6805 -19.6805 -19.6805 -19.6805
   -19.6136 -19.6136 -19.6135 -19.6135 -19.6135 -19.6135 -19.6134 -19.6134
   -19.5784 -19.5783 -19.5783 -19.5782 -19.5645 -19.5645 -19.5645 -19.5645
   -19.5422 -19.5422 -19.5422 -19.5422 -19.5376 -19.5375 -19.5375 -19.5374
   -19.5059 -19.5058 -19.5057 -19.5056 -19.4253 -19.4253 -19.4253 -19.4253
    16.7846  16.7848  16.7848  16.7850  17.6475  17.6475  17.6475  17.6476
    17.7273  17.7274  17.7274  17.7274  17.7778  17.7778  17.7778  17.7778
    17.9117  17.9118  17.9119  17.9119  17.9120  17.9120  17.9121  17.9121
    18.2291  18.2291  18.2293  18.2293  18.2293  18.2293  18.2295  18.2295
    18.3272  18.3272  18.3272  18.3273  18.3273  18.3273  18.3273  18.3273
    18.5894  18.5895  18.5895  18.5896  19.2326  19.2326  19.2328  19.2328
    19.2328  19.2328  19.2330  19.2330  19.8018  19.8018  19.8018  19.8018
    20.0303  20.0304  20.0305  20.0306  20.3075  20.3076  20.3076  20.3077
    20.5307  20.5308  20.5308  20.5308  20.5411  20.5412  20.5412  20.5412
    20.8905  20.8905  20.8905  20.8905  20.8905  20.8905  20.8906  20.8906
    20.9982  20.9983  20.9983  20.9984  21.1346  21.1347  21.1347  21.1347
    21.1494  21.1495  21.1495  21.1495  21.2897  21.2898  21.2898  21.2899
    21.3010  21.3010  21.3010  21.3010  21.3011  21.3012  21.3012  21.3012
    21.5701  21.5702  21.5703  21.5703  21.6992  21.6992  21.6993  21.6993
    21.6993  21.6993  21.6994  21.6994  22.1986  22.1987  22.1987  22.1989
    23.1653  23.1655  23.1655  23.1656  23.3653  23.3654  23.3654  23.3655
    23.5740  23.5740  23.5741  23.5741  23.5741  23.5742  23.5743  23.5743
    24.0906  24.0907  24.0907  24.0907  24.2161  24.2161  24.2162  24.2162
    24.2162  24.2162  24.2163  24.2163  24.2172  24.2173  24.2173  24.2174
    24.4506  24.4507  24.4507  24.4508  24.4796  24.4796  24.4796  24.4796
    24.4796  24.4796  24.4797  24.4797  24.4904  24.4904  24.4904  24.4905
    24.7462  24.7463  24.7464  24.7464  27.3818  27.3819  27.3819  27.3819
    27.3820  27.3820  27.3820

          k = 0.1665 0.1665 0.1665 ( 30307 PWs)   bands (ev):

   -49.9776 -49.9032 -49.9032 -49.9032 -49.8554 -49.8554 -49.8554 -49.8485
   -49.8485 -49.8485 -49.8348 -49.8206 -49.8206 -49.8205 -49.8205 -49.8205
   -49.8205 -49.8200 -49.8200 -49.8199 -49.8003 -49.8003 -49.8003 -49.7735
   -49.7734 -49.7734 -49.7730 -49.7730 -49.7730 -49.7729 -49.7729 -49.7729
   -20.3621 -20.3621 -20.3620 -20.3262 -20.2973 -20.2973 -20.2973 -20.1642
   -20.1642 -20.1642 -20.1458 -20.1458 -20.1458 -20.1457 -20.1457 -20.1457
   -20.1259 -20.1259 -20.1259 -20.1259 -20.1259 -20.1259 -20.0605 -20.0605
   -20.0605 -20.0206 -20.0206 -20.0206 -19.9736 -19.9736 -19.9736 -19.9736
   -19.9736 -19.9736 -19.8916 -19.8916 -19.8916 -19.8043 -19.8043 -19.8043
   -19.7821 -19.7821 -19.7821 -19.7821 -19.7821 -19.7821 -19.7791 -19.7791
   -19.7791 -19.7410 -19.7410 -19.7410 -19.7357 -19.7357 -19.7357 -19.7357
   -19.7357 -19.7357 -19.6722 -19.6722 -19.6722 -19.6295 -19.6295 -19.6295
   -19.6190 -19.6190 -19.6190 -19.5788 -19.5788 -19.5787 -19.5713 -19.5713
   -19.5713 -19.5550 -19.5550 -19.5550 -19.5550 -19.5550 -19.5550 -19.5448
   -19.5448 -19.5448 -19.5288 -19.5288 -19.5288 -19.5226 -19.5226 -19.5226
   -19.5205 -19.5205 -19.4879 -19.4879 -19.4879 -19.4645 -19.4042 -19.4042
    15.5298  17.0138  17.0138  17.0138  17.1782  17.3336  17.3336  17.3336
    17.3347  17.3347  17.3348  17.4735  17.4735  17.4735  17.8384  17.8384
    17.8384  18.2148  18.2148  18.2148  18.2148  18.2149  18.2149  18.2406
    18.2406  18.2406  18.4100  18.4100  18.4101  18.6344  18.6344  18.6344
    18.6618  18.6618  18.6618  18.6618  18.6618  18.6618  18.9984  18.9984
    18.9984  18.9984  18.9984  18.9984  19.1760  19.1760  19.1760  19.5104
    19.5104  19.5104  19.6591  19.6591  19.6591  19.6591  19.6591  19.6591
    19.8017  19.8017  19.8017  19.8815  19.8815  19.8815  19.8815  19.8815
    19.8815  20.1816  20.1816  20.1816  20.3648  20.3648  20.3648  20.3813
    20.3976  20.3976  20.3976  20.3976  20.3976  20.3977  20.4281  20.4281
    20.4281  20.4886  20.4886  20.6246  20.6246  20.6246  20.6426  20.6426
    21.1682  21.1682  21.1682  21.4504  21.4504  21.4504  21.5110  21.5110
    21.5110  21.6916  21.6916  21.6916  21.8883  21.8883  21.8883  21.9425
    21.9425  21.9425  21.9425  21.9425  21.9425  22.3531  22.3531  22.3531
    22.5185  22.5185  22.5185  22.6385  22.6385  22.6385  22.6693  22.6693
    22.6693  22.7378  22.7378  22.7378  22.7378  22.7378  22.7378  22.8250
    22.8250  23.1319  23.3067  23.3068  23.3068  23.3068  23.3068  23.3068
    23.5629  23.5630  23.5630  23.5754  23.5755  23.5755  23.6677  23.6677
    23.6677  23.9704  23.9704  23.9704  24.1431  24.1431  24.1431  24.3432
    24.3432  24.3432  24.4275  24.4275  24.7263  24.7263  24.7263  24.9508
    24.9508  24.9508  24.9508  24.9508  24.9508  25.0648  25.0648  25.0648
    25.5470  25.5470  25.5470  26.0322  26.0322  26.0322  27.1425  27.1425
    27.1425  27.1425  27.1425

          k = 0.1665 0.1665 0.2775 ( 30277 PWs)   bands (ev):

   -49.9714 -49.9205 -49.8992 -49.8992 -49.8665 -49.8665 -49.8537 -49.8461
   -49.8461 -49.8395 -49.8311 -49.8270 -49.8270 -49.8205 -49.8205 -49.8201
   -49.8200 -49.8154 -49.8095 -49.8095 -49.8019 -49.7939 -49.7939 -49.7797
   -49.7770 -49.7770 -49.7753 -49.7752 -49.7734 -49.7733 -49.7730 -49.7729
   -20.3516 -20.3413 -20.3413 -20.2935 -20.2826 -20.2826 -20.2747 -20.2121
   -20.1859 -20.1859 -20.1641 -20.1641 -20.1595 -20.1595 -20.1592 -20.1592
   -20.1410 -20.1410 -20.1289 -20.1289 -20.1270 -20.1270 -20.1039 -20.0863
   -20.0381 -20.0381 -20.0198 -20.0198 -19.9810 -19.9810 -19.9488 -19.9488
   -19.9339 -19.9339 -19.9240 -19.9240 -19.8392 -19.8392 -19.8333 -19.8186
   -19.8186 -19.8006 -19.8006 -19.7664 -19.7464 -19.7464 -19.7417 -19.7417
   -19.7365 -19.7365 -19.7349 -19.7349 -19.7326 -19.7308 -19.7158 -19.7158
   -19.7105 -19.7105 -19.6639 -19.6474 -19.6400 -19.6400 -19.6382 -19.6381
   -19.6381 -19.6097 -19.6095 -19.6095 -19.5982 -19.5982 -19.5877 -19.5877
   -19.5871 -19.5871 -19.5758 -19.5588 -19.5588 -19.5547 -19.5547 -19.5525
   -19.5498 -19.5498 -19.5387 -19.5387 -19.5263 -19.5129 -19.5090 -19.5090
   -19.5003 -19.5001 -19.4906 -19.4900 -19.4787 -19.4787 -19.4147 -19.4077
    15.6932  16.9673  17.1118  17.1264  17.1264  17.2327  17.4300  17.4300
    17.4366  17.4366  17.4851  17.5473  17.6024  17.6024  17.7474  17.9286
    17.9286  17.9643  17.9917  17.9917  18.0725  18.0725  18.1830  18.2683
    18.2683  18.3257  18.3258  18.3311  18.3311  18.4222  18.5323  18.5323
    18.5335  18.5336  18.5563  18.5563  18.6452  18.6452  18.7518  18.7518
    19.0096  19.0096  19.0315  19.0315  19.2474  19.2474  19.3799  19.3800
    19.4319  19.4319  19.4405  19.4909  19.5244  19.5245  19.7208  19.7208
    19.7213  19.7213  19.8892  19.8892  19.9080  19.9080  20.0217  20.1052
    20.1052  20.2003  20.2841  20.2841  20.2886  20.3296  20.3296  20.4006
    20.4006  20.4122  20.4123  20.5153  20.5253  20.5339  20.5339  20.5391
    20.7087  20.7228  20.7358  20.7358  20.7399  20.7620  20.9401  20.9401
    21.0011  21.0011  21.1886  21.1886  21.1950  21.2014  21.4275  21.4617
    21.4617  21.6313  21.6313  21.6505  21.6617  21.6617  21.9130  22.0503
    22.0504  22.0859  22.0859  22.1605  22.1881  22.1881  22.2723  22.2723
    22.2995  22.4348  22.4349  22.5099  22.5099  22.5300  22.5300  22.6427
    22.6723  22.6723  22.6982  22.7363  22.7363  22.8651  22.8853  22.9832
    23.0038  23.0038  23.3563  23.3563  23.3872  23.4136  23.4136  23.6380
    23.6380  23.6428  23.6428  23.6497  23.6497  23.6973  23.7851  23.7851
    23.8117  23.8117  23.8263  24.1691  24.1691  24.1770  24.1878  24.2600
    24.3369  24.4306  24.4306  24.5537  24.6671  24.6922  24.6922  24.7670
    24.7670  24.7690  24.7690  24.9564  24.9564  24.9713  25.0371  25.0371
    25.0700  25.0700  25.4330  26.2178  26.2178  26.6058  26.6058  26.7590
    26.9756  27.0482  27.0482

          k = 0.1665 0.1665 0.3885 ( 30242 PWs)   bands (ev):

   -49.9622 -49.9364 -49.8933 -49.8933 -49.8767 -49.8767 -49.8511 -49.8439
   -49.8427 -49.8426 -49.8329 -49.8329 -49.8205 -49.8204 -49.8202 -49.8201
   -49.8151 -49.8112 -49.8043 -49.7993 -49.7993 -49.7890 -49.7881 -49.7881
   -49.7828 -49.7828 -49.7786 -49.7786 -49.7734 -49.7733 -49.7731 -49.7730
   -20.3302 -20.3113 -20.3113 -20.2611 -20.2611 -20.2585 -20.2525 -20.2414
   -20.2306 -20.2306 -20.2007 -20.2007 -20.1648 -20.1648 -20.1544 -20.1544
   -20.1542 -20.1509 -20.1509 -20.1460 -20.1318 -20.1318 -20.1079 -20.1079
   -20.0603 -20.0603 -19.9815 -19.9815 -19.9752 -19.9752 -19.9513 -19.9513
   -19.9196 -19.9196 -19.8950 -19.8950 -19.8821 -19.8821 -19.8540 -19.8540
   -19.8275 -19.8275 -19.7715 -19.7479 -19.7343 -19.7343 -19.7340 -19.7340
   -19.7158 -19.7133 -19.7133 -19.6966 -19.6966 -19.6958 -19.6885 -19.6885
   -19.6808 -19.6808 -19.6735 -19.6643 -19.6590 -19.6590 -19.6571 -19.6225
   -19.6225 -19.6217 -19.6217 -19.6160 -19.6160 -19.6069 -19.6069 -19.6017
   -19.5949 -19.5949 -19.5715 -19.5675 -19.5675 -19.5597 -19.5565 -19.5565
   -19.5542 -19.5542 -19.5523 -19.5523 -19.5465 -19.5427 -19.5059 -19.4946
   -19.4936 -19.4936 -19.4769 -19.4769 -19.4735 -19.4610 -19.4301 -19.4187
    15.9313  16.5879  17.2501  17.2903  17.2903  17.3410  17.5632  17.5632
    17.5898  17.5898  17.5922  17.6571  17.6798  17.7118  17.7398  17.7398
    17.7912  17.7912  17.8970  17.8970  17.9783  18.0396  18.0396  18.0546
    18.0546  18.1659  18.3215  18.3215  18.3355  18.3355  18.3723  18.3723
    18.4802  18.4802  18.4820  18.4820  18.7141  18.7141  18.7702  18.7702
    19.0235  19.0235  19.0947  19.0947  19.1515  19.1515  19.2288  19.2288
    19.3143  19.3143  19.3492  19.3493  19.5660  19.6041  19.6042  19.6956
    19.8066  19.8066  19.8541  19.9375  19.9375  20.0097  20.0097  20.1328
    20.1514  20.1514  20.1626  20.1627  20.4056  20.4211  20.4211  20.4251
    20.4252  20.5079  20.6109  20.6109  20.6373  20.7809  20.7809  20.8277
    20.8277  20.8281  20.8385  20.8385  20.8424  20.8873  20.8873  20.8917
    20.9405  20.9689  21.1306  21.1307  21.1963  21.3963  21.4085  21.4085
    21.5083  21.5083  21.5272  21.5272  21.5891  21.5891  21.8198  21.8198
    21.9156  22.0405  22.1764  22.2189  22.2189  22.2391  22.2391  22.3862
    22.4125  22.4125  22.4184  22.4184  22.4576  22.4576  22.5250  22.5661
    22.5661  22.5862  22.5862  22.6933  22.6933  22.7836  22.7836  22.9741
    23.2214  23.2280  23.3203  23.3252  23.3252  23.3254  23.4613  23.4613
    23.7301  23.7301  23.8668  23.8668  23.8973  23.9402  23.9402  23.9406
    23.9576  23.9576  23.9818  23.9818  24.0264  24.0264  24.0921  24.5219
    24.5303  24.5303  24.5331  24.5346  24.5346  24.5382  24.5382  24.6182
    24.6182  24.8007  24.8447  24.9126  24.9402  24.9403  24.9665  24.9665
    25.0065  25.0065  25.2652  26.0543  26.0543  26.3140  26.4607  26.4607
    26.9009  26.9009  27.4304

          k = 0.1665 0.1665-0.4995 ( 30260 PWs)   bands (ev):

   -49.9505 -49.9503 -49.8858 -49.8858 -49.8856 -49.8856 -49.8479 -49.8477
   -49.8383 -49.8383 -49.8381 -49.8381 -49.8205 -49.8203 -49.8203 -49.8201
   -49.8075 -49.8073 -49.8010 -49.8008 -49.7904 -49.7904 -49.7903 -49.7903
   -49.7830 -49.7830 -49.7828 -49.7828 -49.7734 -49.7732 -49.7732 -49.7730
   -20.2987 -20.2987 -20.2737 -20.2736 -20.2735 -20.2734 -20.2335 -20.2335
   -20.2334 -20.2333 -20.2052 -20.2051 -20.1983 -20.1981 -20.1630 -20.1630
   -20.1629 -20.1629 -20.1407 -20.1407 -20.1406 -20.1406 -20.0845 -20.0845
   -20.0844 -20.0844 -19.9713 -19.9713 -19.9713 -19.9712 -19.9286 -19.9286
   -19.9285 -19.9285 -19.8879 -19.8879 -19.8878 -19.8877 -19.8592 -19.8592
   -19.8591 -19.8591 -19.7338 -19.7337 -19.7336 -19.7335 -19.7242 -19.7240
   -19.7118 -19.7118 -19.6966 -19.6964 -19.6839 -19.6839 -19.6837 -19.6837
   -19.6563 -19.6563 -19.6562 -19.6562 -19.6535 -19.6535 -19.6534 -19.6533
   -19.6507 -19.6507 -19.6506 -19.6506 -19.6018 -19.6017 -19.5802 -19.5802
   -19.5801 -19.5801 -19.5795 -19.5795 -19.5793 -19.5793 -19.5686 -19.5685
   -19.5662 -19.5660 -19.5537 -19.5535 -19.5535 -19.5534 -19.4999 -19.4997
   -19.4822 -19.4822 -19.4822 -19.4822 -19.4501 -19.4499 -19.4369 -19.4368
    16.2345  16.2347  17.4165  17.4167  17.4986  17.4987  17.4988  17.4989
    17.5017  17.5018  17.7231  17.7231  17.7232  17.7233  17.7914  17.7915
    17.7916  17.7916  17.8014  17.8016  17.9108  17.9108  18.0337  18.0337
    18.0338  18.0338  18.2066  18.2066  18.2067  18.2067  18.4072  18.4072
    18.4072  18.4072  18.6579  18.6579  18.6581  18.6581  18.9502  18.9502
    18.9502  18.9502  19.0493  19.0493  19.0494  19.0494  19.1924  19.1924
    19.1925  19.1925  19.4730  19.4730  19.4731  19.4731  19.6956  19.6957
    19.9062  19.9063  19.9064  19.9065  19.9303  19.9305  20.0282  20.0282
    20.0283  20.0283  20.4294  20.4294  20.4295  20.4295  20.4726  20.4727
    20.4772  20.4772  20.4772  20.4773  20.7068  20.7068  20.7069  20.7069
    20.7815  20.7815  20.9813  20.9814  21.0006  21.0008  21.0320  21.0320
    21.0321  21.0321  21.1547  21.1548  21.3969  21.3969  21.3970  21.3970
    21.4412  21.4413  21.5245  21.5246  21.5510  21.5510  21.5511  21.5511
    22.1464  22.1464  22.1464  22.1464  22.3276  22.3277  22.3278  22.3278
    22.3324  22.3326  22.4183  22.4183  22.4185  22.4185  22.5353  22.5353
    22.5354  22.5354  22.5864  22.5864  22.5865  22.5865  22.8708  22.8710
    23.0891  23.0893  23.5703  23.5704  23.5967  23.5967  23.5969  23.5969
    23.6504  23.6504  23.6504  23.6505  23.6506  23.6507  24.2061  24.2061
    24.2062  24.2062  24.2562  24.2562  24.2563  24.2563  24.2813  24.2813
    24.2814  24.2814  24.2901  24.2901  24.2902  24.2902  24.3357  24.3357
    24.6929  24.6930  24.9824  24.9826  24.9826  24.9827  25.0497  25.0498
    25.4943  25.4944  25.4944  25.4944  25.6080  25.6082  26.7007  26.7007
    26.7009  26.7009  27.9838

          k = 0.1665 0.2775 0.2775 ( 30234 PWs)   bands (ev):

   -49.9653 -49.9159 -49.9159 -49.8953 -49.8790 -49.8642 -49.8642 -49.8457
   -49.8439 -49.8293 -49.8293 -49.8264 -49.8263 -49.8216 -49.8145 -49.8145
   -49.8140 -49.8139 -49.8099 -49.8099 -49.7961 -49.7961 -49.7891 -49.7795
   -49.7795 -49.7790 -49.7790 -49.7776 -49.7775 -49.7748 -49.7748 -49.7735
   -20.3351 -20.3351 -20.3184 -20.2684 -20.2629 -20.2629 -20.2578 -20.2083
   -20.2083 -20.1965 -20.1965 -20.1699 -20.1699 -20.1654 -20.1654 -20.1579
   -20.1579 -20.1538 -20.1537 -20.1537 -20.1510 -20.1510 -20.0971 -20.0971
   -20.0628 -20.0628 -20.0587 -19.9724 -19.9528 -19.9528 -19.9513 -19.9411
   -19.9411 -19.9121 -19.9121 -19.8757 -19.8619 -19.8619 -19.8263 -19.7864
   -19.7864 -19.7828 -19.7828 -19.7790 -19.7790 -19.7712 -19.7712 -19.7261
   -19.7261 -19.7257 -19.7176 -19.7176 -19.7126 -19.7126 -19.7098 -19.7098
   -19.6955 -19.6955 -19.6752 -19.6752 -19.6400 -19.6400 -19.6345 -19.6286
   -19.6286 -19.6125 -19.6110 -19.6078 -19.6078 -19.6049 -19.5942 -19.5942
   -19.5933 -19.5932 -19.5919 -19.5850 -19.5850 -19.5617 -19.5617 -19.5596
   -19.5596 -19.5578 -19.5390 -19.5263 -19.5181 -19.5142 -19.5109 -19.5087
   -19.5087 -19.4825 -19.4825 -19.4780 -19.4780 -19.4643 -19.4227 -19.4094
    15.8501  17.0743  17.0743  17.2186  17.2235  17.2235  17.2617  17.4813
    17.5120  17.5923  17.5923  17.6754  17.6754  17.7424  17.8419  17.8420
    17.8495  17.8496  17.8529  17.9512  18.0229  18.0229  18.0942  18.0942
    18.2505  18.2505  18.3110  18.3110  18.3620  18.3620  18.3948  18.4216
    18.4216  18.4460  18.4460  18.5590  18.5590  18.6897  18.6897  18.7051
    18.7509  18.7509  19.0137  19.0137  19.2750  19.2750  19.3634  19.3794
    19.3828  19.3828  19.4535  19.4535  19.4912  19.4912  19.7167  19.7213
    19.7213  19.9192  19.9192  19.9731  19.9731  20.0608  20.1200  20.1200
    20.1719  20.1719  20.2301  20.2905  20.2906  20.3609  20.3609  20.5354
    20.5391  20.5653  20.5653  20.6075  20.7027  20.7032  20.7032  20.7536
    20.7682  20.7682  20.7819  20.8408  20.8898  20.8898  20.9049  20.9109
    20.9109  20.9982  21.0774  21.0774  21.2095  21.2095  21.3879  21.3912
    21.3913  21.5026  21.5281  21.5282  21.7697  21.7697  21.8153  21.8153
    21.8971  21.8971  21.9131  21.9763  21.9763  22.1951  22.2709  22.2736
    22.2948  22.3102  22.3102  22.3547  22.3547  22.6141  22.6141  22.6717
    22.7786  22.7933  22.7933  22.8390  22.8390  22.8677  22.9058  22.9058
    22.9981  22.9981  23.0565  23.1451  23.1451  23.4382  23.4382  23.6648
    23.7014  23.7014  23.7386  23.7386  23.9374  23.9374  23.9417  23.9511
    24.0105  24.0105  24.0126  24.0126  24.1688  24.2201  24.2202  24.2747
    24.3280  24.3403  24.6300  24.6707  24.6707  24.6930  24.6930  24.7458
    24.7844  24.7844  24.7863  24.7863  24.8642  24.8642  24.9592  24.9592
    24.9618  24.9618  24.9825  26.1326  26.5225  26.5225  26.9906  26.9906
    27.2274  27.2274  27.5922

          k = 0.1665 0.2775 0.3885 ( 30269 PWs)   bands (ev):

   -49.9564 -49.9313 -49.9093 -49.8905 -49.8897 -49.8739 -49.8609 -49.8515
   -49.8407 -49.8318 -49.8266 -49.8255 -49.8231 -49.8191 -49.8137 -49.8127
   -49.8107 -49.8084 -49.8029 -49.8003 -49.7993 -49.7908 -49.7885 -49.7846
   -49.7846 -49.7842 -49.7821 -49.7791 -49.7781 -49.7773 -49.7744 -49.7737
   -20.3179 -20.3096 -20.2872 -20.2531 -20.2477 -20.2459 -20.2375 -20.2340
   -20.2143 -20.2076 -20.1990 -20.1984 -20.1982 -20.1908 -20.1760 -20.1737
   -20.1696 -20.1656 -20.1513 -20.1502 -20.1489 -20.1406 -20.1395 -20.1133
   -20.1108 -20.0848 -20.0171 -19.9696 -19.9689 -19.9283 -19.9216 -19.9206
   -19.9202 -19.8993 -19.8880 -19.8841 -19.8755 -19.8554 -19.8184 -19.8183
   -19.8178 -19.8115 -19.7978 -19.7657 -19.7494 -19.7350 -19.7230 -19.7192
   -19.7178 -19.7109 -19.7104 -19.7089 -19.7053 -19.6944 -19.6929 -19.6859
   -19.6820 -19.6786 -19.6746 -19.6739 -19.6702 -19.6674 -19.6565 -19.6440
   -19.6318 -19.6286 -19.6281 -19.6172 -19.6166 -19.6093 -19.6030 -19.5996
   -19.5885 -19.5874 -19.5816 -19.5804 -19.5758 -19.5746 -19.5720 -19.5702
   -19.5698 -19.5618 -19.5608 -19.5372 -19.5272 -19.5257 -19.5033 -19.5014
   -19.4880 -19.4819 -19.4815 -19.4653 -19.4572 -19.4513 -19.4378 -19.4161
    16.0787  16.7092  17.2270  17.3406  17.3584  17.3598  17.3864  17.5532
    17.6291  17.6324  17.6407  17.6928  17.7412  17.7438  17.7707  17.7829
    17.7845  17.8370  17.8625  17.9409  17.9779  17.9987  18.0036  18.0754
    18.1067  18.1583  18.1732  18.2216  18.2339  18.2594  18.3474  18.3817
    18.3947  18.4192  18.4625  18.4763  18.4988  18.5058  18.5332  18.7609
    18.8972  18.9382  19.0035  19.0112  19.0415  19.0524  19.2135  19.2425
    19.2566  19.4369  19.5044  19.5291  19.5532  19.5575  19.6843  19.7244
    19.7323  19.7979  19.8284  19.9430  19.9954  20.1093  20.1300  20.2671
    20.2719  20.2824  20.3108  20.4541  20.4848  20.5559  20.5573  20.5637
    20.6141  20.6347  20.6666  20.6932  20.7022  20.7034  20.7491  20.7921
    20.7979  20.8490  20.8589  20.8754  20.9611  20.9843  21.0020  21.0240
    21.0563  21.0699  21.0827  21.0951  21.1806  21.2677  21.3170  21.3668
    21.3714  21.4089  21.4519  21.4850  21.4981  21.5582  21.6036  21.6126
    21.6658  21.7491  21.8780  21.9427  22.0190  22.1075  22.1305  22.2735
    22.2779  22.3697  22.3837  22.4416  22.5046  22.5093  22.5259  22.5410
    22.5628  22.6058  22.7385  22.7613  22.7890  22.8233  22.9113  22.9402
    22.9489  23.1603  23.1711  23.1891  23.2473  23.2978  23.5939  23.7264
    23.7797  23.8072  23.8113  23.8278  23.8756  23.8830  24.0201  24.0942
    24.1100  24.1357  24.1869  24.2041  24.2043  24.2243  24.2264  24.2458
    24.4070  24.4983  24.5169  24.5405  24.5434  24.5637  24.5735  24.6084
    24.6284  24.6640  24.8059  24.8142  24.8145  24.8469  24.8770  24.9085
    24.9178  25.4646  25.4710  25.9821  26.1570  26.4041  26.6583  26.9028
    27.2274  27.5984  27.7496

          k = 0.1665 0.2775-0.4995 ( 30266 PWs)   bands (ev):

   -49.9450 -49.9449 -49.9008 -49.9006 -49.8826 -49.8824 -49.8567 -49.8565
   -49.8368 -49.8366 -49.8245 -49.8243 -49.8232 -49.8231 -49.8117 -49.8115
   -49.8035 -49.8034 -49.8001 -49.7999 -49.7928 -49.7926 -49.7919 -49.7917
   -49.7862 -49.7860 -49.7807 -49.7805 -49.7788 -49.7786 -49.7741 -49.7739
   -20.2902 -20.2902 -20.2765 -20.2764 -20.2495 -20.2494 -20.2241 -20.2240
   -20.2215 -20.2214 -20.1962 -20.1961 -20.1913 -20.1913 -20.1855 -20.1854
   -20.1729 -20.1728 -20.1653 -20.1652 -20.1477 -20.1476 -20.1256 -20.1255
   -20.1131 -20.1130 -19.9757 -19.9757 -19.9689 -19.9688 -19.9104 -19.9103
   -19.8872 -19.8871 -19.8695 -19.8695 -19.8580 -19.8579 -19.8525 -19.8523
   -19.8416 -19.8415 -19.7396 -19.7394 -19.7358 -19.7357 -19.7209 -19.7208
   -19.7196 -19.7194 -19.7128 -19.7128 -19.6929 -19.6928 -19.6912 -19.6910
   -19.6627 -19.6626 -19.6625 -19.6624 -19.6553 -19.6553 -19.6470 -19.6469
   -19.6434 -19.6434 -19.6432 -19.6431 -19.6386 -19.6386 -19.6151 -19.6150
   -19.5839 -19.5838 -19.5811 -19.5809 -19.5769 -19.5767 -19.5619 -19.5618
   -19.5567 -19.5566 -19.5480 -19.5478 -19.5478 -19.5477 -19.4951 -19.4949
   -19.4887 -19.4886 -19.4578 -19.4578 -19.4577 -19.4575 -19.4303 -19.4302
    16.3698  16.3700  17.4158  17.4160  17.4682  17.4682  17.5226  17.5227
    17.5444  17.5445  17.5943  17.5945  17.6412  17.6414  17.7967  17.7967
    17.9289  17.9291  17.9381  17.9381  17.9984  17.9985  18.0701  18.0702
    18.1014  18.1015  18.1491  18.1491  18.1532  18.1533  18.1860  18.1861
    18.3853  18.3855  18.4129  18.4129  18.5527  18.5528  18.7379  18.7379
    18.8709  18.8711  19.0524  19.0525  19.0690  19.0691  19.1374  19.1375
    19.2140  19.2140  19.5637  19.5638  19.6269  19.6270  19.6715  19.6717
    19.7309  19.7310  19.9162  19.9164  19.9352  19.9353  20.2784  20.2785
    20.3339  20.3341  20.4894  20.4894  20.5489  20.5490  20.5537  20.5538
    20.6700  20.6700  20.6903  20.6903  20.7778  20.7779  20.8119  20.8119
    20.8709  20.8709  20.9663  20.9664  20.9771  20.9772  21.0023  21.0024
    21.0744  21.0745  21.2040  21.2041  21.2722  21.2722  21.3071  21.3072
    21.3346  21.3347  21.3485  21.3486  21.3636  21.3637  21.3977  21.3978
    21.9084  21.9084  21.9858  21.9860  22.0118  22.0118  22.2356  22.2357
    22.3337  22.3338  22.3397  22.3398  22.3769  22.3771  22.3820  22.3821
    22.5808  22.5810  22.6355  22.6357  22.8084  22.8085  22.8935  22.8937
    23.0818  23.0819  23.4723  23.4725  23.4912  23.4913  23.5247  23.5247
    23.5857  23.5859  23.8681  23.8682  23.9501  23.9503  24.0466  24.0468
    24.1155  24.1155  24.3067  24.3068  24.3512  24.3512  24.3840  24.3841
    24.3856  24.3857  24.4344  24.4344  24.4533  24.4534  24.4664  24.4664
    24.6132  24.6133  24.6967  24.6967  24.8556  24.8558  24.8590  24.8591
    25.4309  25.4309  26.0673  26.0673  26.1736  26.1738  26.2683  26.2685
    27.4375  27.4376  28.4144

          k = 0.1665 0.3885 0.3885 ( 30256 PWs)   bands (ev):

   -49.9479 -49.9240 -49.9240 -49.9033 -49.8845 -49.8699 -49.8699 -49.8584
   -49.8380 -49.8302 -49.8302 -49.8258 -49.8118 -49.8118 -49.8063 -49.8063
   -49.8058 -49.8058 -49.8018 -49.8018 -49.7947 -49.7947 -49.7877 -49.7877
   -49.7872 -49.7872 -49.7855 -49.7855 -49.7814 -49.7762 -49.7762 -49.7743
   -20.2970 -20.2970 -20.2560 -20.2407 -20.2407 -20.2347 -20.2347 -20.2285
   -20.2231 -20.2231 -20.2000 -20.2000 -20.1923 -20.1923 -20.1795 -20.1795
   -20.1777 -20.1777 -20.1691 -20.1639 -20.1639 -20.1552 -20.1552 -20.1532
   -20.1154 -20.0671 -20.0671 -19.9742 -19.9675 -19.9452 -19.9452 -19.8858
   -19.8754 -19.8753 -19.8658 -19.8492 -19.8492 -19.8240 -19.8240 -19.7889
   -19.7889 -19.7846 -19.7846 -19.7777 -19.7777 -19.7551 -19.7551 -19.7287
[...]
   -19.6677 -19.6677 -19.6676 -19.6676 -19.6234 -19.6234 -19.6234 -19.6234
   -19.6233 -19.6232 -19.6232 -19.6232 -19.6074 -19.6074 -19.6074 -19.6074
   -19.4991 -19.4991 -19.4991 -19.4991 -19.4813 -19.4812 -19.4812 -19.4811
   -19.4791 -19.4789 -19.4789 -19.4788 -19.4369 -19.4369 -19.4369 -19.4369
    16.8749  16.8751  16.8751  16.8753  17.3495  17.3496  17.3496  17.3497
    17.8154  17.8155  17.8155  17.8155  17.8612  17.8612  17.8612  17.8612
    17.8614  17.8614  17.8614  17.8614  17.9402  17.9402  17.9402  17.9403
    18.1334  18.1334  18.1334  18.1334  18.1335  18.1335  18.1336  18.1336
    18.5284  18.5284  18.5284  18.5284  18.5286  18.5286  18.5286  18.5286
    18.6884  18.6885  18.6885  18.6885  19.2545  19.2545  19.2547  19.2547
    19.2547  19.2547  19.2548  19.2548  19.4343  19.4345  19.4345  19.4346
    19.9741  19.9741  19.9741  19.9741  20.4491  20.4492  20.4492  20.4492
    20.7028  20.7029  20.7029  20.7029  20.7834  20.7835  20.7835  20.7836
    20.8198  20.8198  20.8199  20.8199  20.8199  20.8199  20.8199  20.8199
    20.9443  20.9443  20.9444  20.9444  20.9695  20.9696  20.9696  20.9697
    21.0201  21.0201  21.0202  21.0202  21.2322  21.2322  21.2323  21.2323
    21.2324  21.2324  21.2324  21.2324  21.3720  21.3721  21.3721  21.3722
    21.7075  21.7076  21.7076  21.7077  21.8962  21.8962  21.8963  21.8963
    21.8963  21.8963  21.8964  21.8964  22.5222  22.5223  22.5223  22.5225
    22.7871  22.7872  22.7873  22.7874  22.8375  22.8375  22.8375  22.8375
    22.8376  22.8376  22.8377  22.8377  23.2238  23.2239  23.2239  23.2240
    23.2385  23.2386  23.2386  23.2387  23.6601  23.6602  23.6602  23.6603
    24.6594  24.6594  24.6594  24.6594  24.6594  24.6594  24.6594  24.6595
    24.6967  24.6968  24.6968  24.6968  24.7230  24.7230  24.7230  24.7231
    24.7231  24.7231  24.7232  24.7232  24.7719  24.7720  24.7720  24.7721
    26.3536  26.3537  26.3537  26.3538  27.6406  27.6406  27.6407  27.6407
    27.6407  27.6408  27.6408

          k = 0.3885 0.3885 0.3885 ( 30274 PWs)   bands (ev):

   -49.9348 -49.9128 -49.9128 -49.9128 -49.8940 -49.8939 -49.8939 -49.8784
   -49.8097 -49.8097 -49.8097 -49.8063 -49.8063 -49.8062 -49.8062 -49.8062
   -49.8061 -49.8059 -49.8059 -49.8058 -49.7906 -49.7906 -49.7906 -49.7877
   -49.7877 -49.7876 -49.7874 -49.7874 -49.7874 -49.7873 -49.7873 -49.7872
   -20.2628 -20.2628 -20.2628 -20.2266 -20.2266 -20.2266 -20.2162 -20.2162
   -20.2162 -20.2114 -20.2114 -20.2114 -20.2114 -20.2114 -20.2114 -20.2071
   -20.2071 -20.2071 -20.2071 -20.2071 -20.2071 -20.1806 -20.1806 -20.1806
   -20.0721 -19.9616 -19.9616 -19.9615 -19.8551 -19.8551 -19.8551 -19.8551
   -19.8551 -19.8551 -19.8491 -19.8491 -19.8491 -19.8469 -19.8469 -19.8469
   -19.8233 -19.8233 -19.8233 -19.7500 -19.7500 -19.7499 -19.7499 -19.7499
   -19.7499 -19.7326 -19.7326 -19.7326 -19.7319 -19.7204 -19.7204 -19.7204
   -19.6823 -19.6823 -19.6823 -19.6640 -19.6640 -19.6640 -19.6640 -19.6640
   -19.6640 -19.6463 -19.6463 -19.6462 -19.6303 -19.6303 -19.6303 -19.6257
   -19.6256 -19.6256 -19.6256 -19.6256 -19.6256 -19.6047 -19.6047 -19.6047
   -19.5043 -19.5043 -19.5043 -19.4855 -19.4855 -19.4763 -19.4763 -19.4763
   -19.4600 -19.4600 -19.4600 -19.4564 -19.4564 -19.4564 -19.4396 -19.4396
    16.5805  17.0391  17.0391  17.0391  17.2823  17.2898  17.2898  17.2898
    17.6551  17.6551  17.6551  17.8747  17.8747  17.8747  17.9529  17.9529
    17.9529  17.9680  17.9680  17.9680  17.9680  17.9680  17.9680  18.0552
    18.0552  18.0552  18.0552  18.0552  18.0552  18.0858  18.0858  18.0858
    18.3393  18.3393  18.3393  18.7100  18.7100  18.7100  18.8126  18.8126
    18.8126  18.8126  18.8127  18.8127  19.1664  19.1664  19.1664  19.1761
    19.1762  19.1762  19.1762  19.1762  19.1762  19.4773  19.4773  19.4773
    19.9955  19.9955  19.9955  20.0842  20.2676  20.2676  20.2676  20.6819
    20.6819  20.6819  20.6819  20.6819  20.6819  20.7858  20.7858  20.8794
    20.8794  20.8794  20.9259  20.9259  20.9260  20.9281  20.9281  20.9454
    20.9454  20.9454  20.9566  20.9573  20.9573  20.9573  20.9882  20.9882
    20.9882  21.0241  21.0241  21.0241  21.0241  21.0241  21.0241  21.0331
    21.0331  21.0331  21.1330  21.1330  21.1330  21.5535  21.5535  21.5535
    21.7557  21.7557  21.7557  22.0747  22.0747  22.0747  22.0747  22.0747
    22.0747  22.0763  22.0764  22.0764  22.4107  22.4107  22.4107  22.5973
    22.5973  22.5973  22.5973  22.5973  22.5973  22.7118  22.7118  22.7118
    22.8031  22.8031  22.8397  22.8397  22.8397  22.9927  22.9927  22.9927
    23.2707  23.2708  23.2708  23.5016  23.5016  23.6671  23.6671  23.6672
    24.6121  24.6121  24.6121  24.6652  24.6653  24.6653  24.6653  24.6653
    24.6653  24.7333  24.7333  24.7333  24.7333  24.7333  24.7333  24.7988
    24.7988  24.7988  24.8148  24.8148  24.8148  24.9078  24.9078  24.9078
    26.5682  26.5682  26.5682  27.4695  27.4695  27.4695  27.4695  27.4695
    27.4695  27.7494  27.7494

          k = 0.3885 0.3885-0.4995 ( 30262 PWs)   bands (ev):

   -49.9248 -49.9246 -49.9043 -49.9043 -49.9041 -49.9041 -49.8869 -49.8868
   -49.8082 -49.8082 -49.8080 -49.8080 -49.8063 -49.8061 -49.8061 -49.8059
   -49.7978 -49.7977 -49.7976 -49.7975 -49.7960 -49.7960 -49.7958 -49.7958
   -49.7889 -49.7889 -49.7887 -49.7887 -49.7876 -49.7874 -49.7874 -49.7873
   -20.2499 -20.2499 -20.2384 -20.2382 -20.2382 -20.2381 -20.2169 -20.2169
   -20.2168 -20.2167 -20.2135 -20.2135 -20.2134 -20.2134 -20.2117 -20.2116
   -20.2116 -20.2115 -20.2020 -20.2019 -20.1964 -20.1964 -20.1962 -20.1962
   -20.0172 -20.0171 -19.9050 -19.9050 -19.9049 -19.9049 -19.8531 -19.8531
   -19.8531 -19.8531 -19.8403 -19.8402 -19.8402 -19.8401 -19.8025 -19.8025
   -19.8024 -19.8024 -19.7892 -19.7892 -19.7825 -19.7824 -19.7802 -19.7800
   -19.7397 -19.7397 -19.7395 -19.7395 -19.7334 -19.7333 -19.7333 -19.7333
   -19.6722 -19.6722 -19.6721 -19.6720 -19.6660 -19.6658 -19.6469 -19.6469
   -19.6467 -19.6467 -19.6461 -19.6461 -19.6461 -19.6461 -19.6363 -19.6363
   -19.6363 -19.6362 -19.6187 -19.6185 -19.6159 -19.6159 -19.6159 -19.6158
   -19.4907 -19.4906 -19.4860 -19.4860 -19.4859 -19.4859 -19.4718 -19.4716
   -19.4568 -19.4568 -19.4568 -19.4568 -19.4564 -19.4562 -19.4436 -19.4435
    16.7939  16.7941  17.1548  17.1548  17.1549  17.1549  17.2738  17.2739
    17.7698  17.7700  17.7892  17.7892  17.7893  17.7893  17.9489  17.9489
    17.9489  17.9489  17.9927  17.9927  17.9928  17.9928  18.0117  18.0117
    18.0117  18.0118  18.0280  18.0280  18.0281  18.0281  18.0398  18.0399
    18.5024  18.5026  18.5769  18.5769  18.5770  18.5770  18.9550  18.9550
    18.9550  18.9551  18.9664  18.9664  18.9666  18.9666  19.0020  19.0021
    19.0021  19.0021  19.2925  19.2926  19.3470  19.3471  19.3471  19.3472
    20.0615  20.0615  20.1443  20.1443  20.1443  20.1443  20.6133  20.6133
    20.8215  20.8215  20.8215  20.8216  20.8455  20.8455  20.8456  20.8456
    20.8464  20.8465  20.8504  20.8504  20.8961  20.8961  20.8962  20.8962
    20.9126  20.9126  20.9126  20.9126  20.9476  20.9477  20.9485  20.9486
    20.9662  20.9663  20.9816  20.9816  20.9817  20.9817  20.9842  20.9842
    20.9843  20.9843  21.3987  21.3987  21.3987  21.3987  21.4478  21.4480
    21.7807  21.7807  21.7807  21.7808  21.8072  21.8073  22.2173  22.2174
    22.2175  22.2175  22.3107  22.3107  22.3108  22.3108  22.3401  22.3401
    22.3401  22.3401  22.7019  22.7020  22.7138  22.7140  22.7787  22.7788
    22.7788  22.7790  22.8066  22.8066  22.8067  22.8067  23.0240  23.0241
    23.1710  23.1711  23.3950  23.3950  23.3951  23.3951  23.5557  23.5559
    24.7001  24.7001  24.7001  24.7001  24.7316  24.7316  24.7316  24.7316
    24.7349  24.7350  24.7821  24.7821  24.7823  24.7823  24.7885  24.7885
    24.7885  24.7885  24.8405  24.8406  24.8406  24.8407  24.8890  24.8890
    26.9955  26.9956  26.9956  26.9957  27.4463  27.4464  27.5937  27.5938
    27.5938  27.5939  28.3790

          k = 0.3885-0.4995-0.4995 ( 30244 PWs)   bands (ev):

   -49.9155 -49.9153 -49.9153 -49.9151 -49.8964 -49.8963 -49.8963 -49.8961
   -49.8073 -49.8072 -49.8072 -49.8070 -49.7971 -49.7971 -49.7969 -49.7969
   -49.7969 -49.7969 -49.7968 -49.7968 -49.7968 -49.7967 -49.7967 -49.7966
   -49.7966 -49.7966 -49.7964 -49.7964 -49.7882 -49.7881 -49.7881 -49.7879
   -20.2324 -20.2324 -20.2324 -20.2324 -20.2323 -20.2323 -20.2323 -20.2323
   -20.2179 -20.2178 -20.2178 -20.2177 -20.2141 -20.2139 -20.2139 -20.2138
   -20.2078 -20.2078 -20.2078 -20.2077 -20.2077 -20.2077 -20.2076 -20.2076
   -19.9611 -19.9610 -19.9610 -19.9610 -19.8486 -19.8486 -19.8486 -19.8485
   -19.8463 -19.8463 -19.8463 -19.8462 -19.7927 -19.7927 -19.7926 -19.7926
   -19.7926 -19.7926 -19.7926 -19.7926 -19.7913 -19.7913 -19.7912 -19.7912
   -19.7912 -19.7912 -19.7911 -19.7911 -19.7348 -19.7348 -19.7348 -19.7347
   -19.6579 -19.6579 -19.6579 -19.6579 -19.6560 -19.6560 -19.6559 -19.6559
   -19.6558 -19.6558 -19.6558 -19.6558 -19.6325 -19.6325 -19.6325 -19.6325
   -19.6324 -19.6324 -19.6323 -19.6323 -19.6267 -19.6267 -19.6267 -19.6267
   -19.4798 -19.4798 -19.4798 -19.4798 -19.4673 -19.4672 -19.4672 -19.4672
   -19.4671 -19.4670 -19.4670 -19.4669 -19.4482 -19.4481 -19.4481 -19.4481
    16.9620  16.9622  16.9622  16.9624  17.2045  17.2046  17.2046  17.2047
    17.8789  17.8789  17.8789  17.8789  17.8790  17.8791  17.8791  17.8791
    17.8803  17.8803  17.8803  17.8804  17.9576  17.9576  17.9576  17.9576
    18.0219  18.0219  18.0219  18.0220  18.0221  18.0221  18.0221  18.0221
    18.7410  18.7411  18.7411  18.7411  18.7412  18.7412  18.7413  18.7413
    18.7986  18.7986  18.7986  18.7986  19.1462  19.1462  19.1463  19.1463
    19.1463  19.1464  19.1464  19.1465  19.1735  19.1736  19.1736  19.1737
    20.1224  20.1224  20.1224  20.1224  20.3926  20.3926  20.3926  20.3927
    20.8480  20.8481  20.8481  20.8481  20.8720  20.8720  20.8720  20.8720
    20.8923  20.8924  20.8924  20.8924  20.8924  20.8925  20.8925  20.8925
    20.9102  20.9103  20.9103  20.9103  20.9446  20.9446  20.9446  20.9447
    20.9545  20.9545  20.9545  20.9546  21.1462  21.1462  21.1462  21.1463
    21.1463  21.1464  21.1464  21.1464  21.2046  21.2047  21.2047  21.2048
    21.9607  21.9608  21.9608  21.9609  22.0413  22.0413  22.0414  22.0414
    22.0414  22.0414  22.0415  22.0415  22.4986  22.4986  22.4986  22.4986
    22.4987  22.4987  22.4988  22.4988  22.5150  22.5151  22.5151  22.5152
    22.7772  22.7773  22.7774  22.7775  23.0658  23.0659  23.0659  23.0659
    23.1397  23.1398  23.1398  23.1399  23.3601  23.3602  23.3602  23.3603
    24.7753  24.7753  24.7753  24.7753  24.7753  24.7753  24.7753  24.7754
    24.7968  24.7968  24.7968  24.7969  24.8421  24.8421  24.8421  24.8421
    24.8422  24.8422  24.8422  24.8422  24.8431  24.8432  24.8432  24.8433
    27.2643  27.2644  27.2644  27.2645  27.9008  27.9009  27.9009  27.9010
    27.9010  27.9010  27.9011

          k =-0.4995-0.4995-0.4995 ( 30280 PWs)   bands (ev):

   -49.9069 -49.9067 -49.9067 -49.9067 -49.9066 -49.9065 -49.9065 -49.9064
   -49.7972 -49.7971 -49.7970 -49.7970 -49.7970 -49.7970 -49.7970 -49.7969
   -49.7969 -49.7969 -49.7968 -49.7968 -49.7968 -49.7968 -49.7967 -49.7967
   -49.7966 -49.7966 -49.7966 -49.7966 -49.7966 -49.7965 -49.7964 -49.7964
   -20.2204 -20.2204 -20.2204 -20.2204 -20.2203 -20.2203 -20.2203 -20.2203
   -20.2203 -20.2203 -20.2202 -20.2202 -20.2202 -20.2201 -20.2201 -20.2201
   -20.2201 -20.2201 -20.2200 -20.2200 -20.2200 -20.2200 -20.2200 -20.2200
   -19.9034 -19.9033 -19.9033 -19.9033 -19.9033 -19.9032 -19.9032 -19.9032
   -19.7924 -19.7924 -19.7923 -19.7923 -19.7923 -19.7923 -19.7923 -19.7923
   -19.7923 -19.7923 -19.7923 -19.7922 -19.7922 -19.7922 -19.7922 -19.7922
   -19.7922 -19.7922 -19.7922 -19.7922 -19.7922 -19.7922 -19.7921 -19.7921
   -19.6439 -19.6439 -19.6439 -19.6438 -19.6438 -19.6438 -19.6438 -19.6438
   -19.6438 -19.6438 -19.6438 -19.6438 -19.6437 -19.6437 -19.6437 -19.6436
   -19.6436 -19.6436 -19.6436 -19.6436 -19.6436 -19.6436 -19.6436 -19.6435
   -19.4627 -19.4627 -19.4627 -19.4627 -19.4627 -19.4627 -19.4627 -19.4627
   -19.4625 -19.4625 -19.4625 -19.4625 -19.4625 -19.4624 -19.4624 -19.4624
    17.0732  17.0734  17.0734  17.0734  17.0736  17.0736  17.0736  17.0737
    17.9337  17.9337  17.9337  17.9337  17.9337  17.9337  17.9338  17.9338
    17.9338  17.9338  17.9338  17.9338  17.9339  17.9339  17.9339  17.9339
    17.9339  17.9339  17.9339  17.9339  17.9339  17.9339  17.9340  17.9340
    18.9592  18.9592  18.9593  18.9593  18.9593  18.9593  18.9593  18.9593
    18.9594  18.9594  18.9594  18.9594  18.9595  18.9595  18.9595  18.9595
    18.9595  18.9595  18.9595  18.9595  18.9596  18.9596  18.9596  18.9596
    20.2756  20.2756  20.2756  20.2756  20.2756  20.2756  20.2756  20.2756
    20.9150  20.9150  20.9150  20.9150  20.9150  20.9150  20.9151  20.9151
    20.9151  20.9151  20.9151  20.9151  20.9151  20.9152  20.9152  20.9152
    21.0220  21.0220  21.0220  21.0220  21.0220  21.0220  21.0220  21.0220
    21.0221  21.0221  21.0221  21.0221  21.0221  21.0221  21.0221  21.0221
    21.0222  21.0222  21.0222  21.0222  21.0222  21.0222  21.0222  21.0222
    22.2336  22.2336  22.2336  22.2336  22.2336  22.2336  22.2337  22.2337
    22.2337  22.2337  22.2337  22.2337  22.2337  22.2338  22.2338  22.2338
    22.2338  22.2338  22.2338  22.2338  22.2339  22.2339  22.2339  22.2340
    23.0615  23.0615  23.0616  23.0616  23.0616  23.0616  23.0616  23.0617
    23.0617  23.0617  23.0617  23.0618  23.0618  23.0618  23.0618  23.0619
    24.8500  24.8500  24.8500  24.8500  24.8500  24.8500  24.8500  24.8500
    24.8500  24.8501  24.8501  24.8501  24.8501  24.8501  24.8501  24.8502
    24.8502  24.8502  24.8502  24.8502  24.8502  24.8502  24.8502  24.8502
    28.2210  28.2211  28.2211  28.2211  28.2211  28.2211  28.2212  28.2212
    28.2212  28.2212  28.2212

     the Fermi energy is    23.0292 ev

!    total energy              =  -13813.30076388 Ry

     total all-electron energy =   -289989.691103 Ry
     estimated scf accuracy    <       0.00000018 Ry
     smearing contrib. (-TS)   =       0.02018865 Ry
     internal energy E=F+TS    =  -13813.32095253 Ry

     The total energy is F=E-TS. E is the sum of the following terms:
     one-electron contribution =   -1003.16285392 Ry
     hartree contribution      =     918.30759951 Ry
     xc contribution           =    -927.95239600 Ry
     ewald contribution        =   -5211.07446872 Ry
     one-center paw contrib.   =   -7589.43883341 Ry

     convergence has been achieved in  13 iterations

     Forces acting on atoms (cartesian axes, Ry/au):

     atom    1 type  1   force =     0.00000000    0.00000000    0.00000000
     atom    2 type  1   force =    -0.00000175   -0.00000175    0.00000000
     atom    3 type  1   force =    -0.00000175   -0.00000000   -0.00000175
     atom    4 type  1   force =     0.00000000   -0.00000175   -0.00000175
     atom    5 type  1   force =     0.00000000    0.00000000    0.00000000
     atom    6 type  1   force =    -0.00000082   -0.00000082    0.00000000
     atom    7 type  1   force =    -0.00000175    0.00000000    0.00000175
     atom    8 type  1   force =     0.00000000   -0.00000175    0.00000175
     atom    9 type  1   force =     0.00000000    0.00000000    0.00000000
     atom   10 type  1   force =    -0.00000175    0.00000175   -0.00000000
     atom   11 type  1   force =    -0.00000082    0.00000000   -0.00000082
     atom   12 type  1   force =     0.00000000    0.00000175   -0.00000175
     atom   13 type  1   force =     0.00000000    0.00000000    0.00000000
     atom   14 type  1   force =    -0.00000082    0.00000082    0.00000000
     atom   15 type  1   force =    -0.00000082    0.00000000    0.00000082
     atom   16 type  1   force =     0.00000000    0.00000175    0.00000175
     atom   17 type  1   force =     0.00000000    0.00000000    0.00000000
     atom   18 type  1   force =     0.00000175   -0.00000175   -0.00000000
     atom   19 type  1   force =     0.00000175    0.00000000   -0.00000175
     atom   20 type  1   force =     0.00000000   -0.00000082   -0.00000082
     atom   21 type  1   force =     0.00000000    0.00000000    0.00000000
     atom   22 type  1   force =     0.00000082   -0.00000082    0.00000000
     atom   23 type  1   force =     0.00000175    0.00000000    0.00000175
     atom   24 type  1   force =     0.00000000   -0.00000082    0.00000082
     atom   25 type  1   force =     0.00000000    0.00000000    0.00000000
     atom   26 type  1   force =     0.00000175    0.00000175    0.00000000
     atom   27 type  1   force =     0.00000082    0.00000000   -0.00000082
     atom   28 type  1   force =     0.00000000    0.00000082   -0.00000082
     atom   29 type  1   force =     0.00000000    0.00000000    0.00000000
     atom   30 type  1   force =     0.00000082    0.00000082    0.00000000
     atom   31 type  1   force =     0.00000082    0.00000000    0.00000082
     atom   32 type  1   force =     0.00000000    0.00000082    0.00000082

     Total force =     0.000009     Total SCF correction =     0.000099
     SCF correction compared to forces is large: reduce conv_thr to get better values


     Computing stress (Cartesian axis) and pressure

          total   stress  (Ry/bohr**3)                   (kbar)     P=      -12.74
  -0.00008659   0.00000000   0.00000000          -12.74        0.00        0.00
   0.00000000  -0.00008659   0.00000000            0.00      -12.74        0.00
   0.00000000   0.00000000  -0.00008659            0.00        0.00      -12.74


     Writing output data file /scratch/bSKYXJOWrNOjOsrI.save/
 
     init_run     :     13.42s CPU     13.68s WALL (       1 calls)
     electrons    :    564.67s CPU    572.82s WALL (       1 calls)
     forces       :      5.29s CPU      5.35s WALL (       1 calls)
     stress       :     31.36s CPU     31.62s WALL (       1 calls)

     Called by init_run:
     wfcinit      :     12.32s CPU     12.54s WALL (       1 calls)
     potinit      :      0.18s CPU      0.19s WALL (       1 calls)
     hinit0       :      0.41s CPU      0.42s WALL (       1 calls)

     Called by electrons:
     c_bands      :    504.97s CPU    511.73s WALL (      14 calls)
     sum_band     :     57.70s CPU     58.82s WALL (      14 calls)
     v_of_rho     :      0.21s CPU      0.23s WALL (      14 calls)
     newd         :      0.32s CPU      0.46s WALL (      14 calls)
     PAW_pot      :      1.32s CPU      1.39s WALL (      14 calls)
     mix_rho      :      0.16s CPU      0.18s WALL (      14 calls)

     Called by c_bands:
     init_us_2    :      1.95s CPU      1.98s WALL (    1085 calls)
     cegterg      :    497.28s CPU    503.81s WALL (     490 calls)

     Called by *egterg:
     cdiaghg      :     63.54s CPU     64.23s WALL (    1871 calls)
     h_psi        :    258.16s CPU    262.48s WALL (    1941 calls)
     s_psi        :     17.97s CPU     18.11s WALL (    1941 calls)
     g_psi        :      0.49s CPU      0.50s WALL (    1416 calls)

     Called by h_psi:
     h_psi:calbec :     36.25s CPU     36.58s WALL (    1941 calls)
     vloc_psi     :    203.85s CPU    207.40s WALL (    1941 calls)
     add_vuspsi   :     16.92s CPU     17.34s WALL (    1941 calls)

     General routines
     calbec       :     55.72s CPU     56.20s WALL (    2606 calls)
     fft          :      0.40s CPU      0.42s WALL (     206 calls)
     ffts         :      0.02s CPU      0.02s WALL (      28 calls)
     fftw         :    236.72s CPU    240.85s WALL (  929602 calls)
     interpolate  :      0.02s CPU      0.04s WALL (      14 calls)
 
     Parallel routines
     fft_scatt_xy :     15.99s CPU     16.24s WALL (  929836 calls)
     fft_scatt_yz :    193.34s CPU    196.85s WALL (  929836 calls)
 
     PWSCF        :  10m24.60s CPU  10m35.11s WALL

 
   This run was terminated on:  13: 1:25  23Nov2021            

=------------------------------------------------------------------------------=
   JOB DONE.
=------------------------------------------------------------------------------=
