
     Program PWSCF v.6.7MaX starts on 23Nov2021 at 12:28:49 

     This program is part of the open-source Quantum ESPRESSO suite
     for quantum simulation of materials; please cite
         "P. Giannozzi et al., J. Phys.:Condens. Matter 21 395502 (2009);
         "P. Giannozzi et al., J. Phys.:Condens. Matter 29 465901 (2017);
          URL http://www.quantum-espresso.org", 
     in publications or presentations arising from this work. More details at
     http://www.quantum-espresso.org/quote

     Parallel version (MPI & OpenMP), running on      72 processor cores
     Number of MPI processes:                72
     Threads/MPI process:                     1

     MPI processes distributed on     1 nodes
     R & G space division:  proc/nbgrp/npool/nimage =      72
     Reading input from /rds/homes/b/bxp912/jobs/20211014_ru_eos/wd/eos/eos_005.in
Warning: card &CELL ignored
Warning: card CELL_DYNAMICS = 'BFGS', ignored
Warning: card CELL_FACTOR = 2.0, ignored
Warning: card PRESS = 0.0, ignored
Warning: card / ignored

     Current dimensions of program PWSCF are:
     Max number of different atomic species (ntypx) = 10
     Max number of k-points (npk) =  40000
     Max angular momentum in pseudopotentials (lmaxx) =  3
     file Ru.pbe-spn-kjpaw_psl.1.0.0.UPF: wavefunction(s)  4D renormalized

     Subspace diagonalization in iterative solution of the eigenvalue problem:
     one sub-group per band group will be used
     ELPA distributed-memory algorithm (size of sub-group:  8*  8 procs)

     Found symmetry operation: I + (  0.2500  0.2500  0.0000)
     This is a supercell, fractional translations are disabled
     Message from routine setup:
     using ibrav=0 with symmetry is DISCOURAGED, use correct ibrav instead
 
     Parallelization info
     --------------------
     sticks:   dense  smooth     PW     G-vecs:    dense   smooth      PW
     Min          98      64     17                 6230     3334     475
     Max          99      65     18                 6235     3341     482
     Sum        7089    4669   1281               448759   240417   34457
 


     bravais-lattice index     =            0
     lattice parameter (alat)  =      14.4007  a.u.
     unit-cell volume          =    2977.4950 (a.u.)^3
     number of atoms/cell      =           32
     number of atomic types    =            1
     number of electrons       =       512.00
     number of Kohn-Sham states=          307
     kinetic-energy cutoff     =      71.0000  Ry
     charge density cutoff     =     430.0000  Ry
     scf convergence threshold =      1.0E-06
     mixing beta               =       0.1000
     number of iterations used =           10  plain     mixing
     Exchange-correlation= SLA  PW   PBX  PBC
                           (   1   4   3   4   0   0   0)

     celldm(1)=  14.400742  celldm(2)=   0.000000  celldm(3)=   0.000000
     celldm(4)=   0.000000  celldm(5)=   0.000000  celldm(6)=   0.000000

     crystal axes: (cart. coord. in units of alat)
               a(1) = (   0.999000   0.000000   0.000000 )  
               a(2) = (   0.000000   0.999000   0.000000 )  
               a(3) = (   0.000000   0.000000   0.999000 )  

     reciprocal axes: (cart. coord. in units 2 pi/alat)
               b(1) = (  1.001001  0.000000  0.000000 )  
               b(2) = (  0.000000  1.001001  0.000000 )  
               b(3) = (  0.000000  0.000000  1.001001 )  


     PseudoPot. # 1 for Ru read from file:
     /rds/homes/b/bxp912/pp/Ru.pbe-spn-kjpaw_psl.1.0.0.UPF
     MD5 check sum: 0ae1f594dea09af7be8575c3a481d1ae
     Pseudo is Projector augmented-wave + core cor, Zval = 16.0
     Generated using "atomic" code by A. Dal Corso  v.5.1
     Shape of augmentation charge: PSQ
     Using radial grid of 1233 points,  6 beta functions with: 
                l(1) =   0
                l(2) =   0
                l(3) =   1
                l(4) =   1
                l(5) =   2
                l(6) =   2
     Q(r) pseudized with 0 coefficients 


     atomic species   valence    mass     pseudopotential
        Ru            16.00   101.07000     Ru( 1.00)

     48 Sym. Ops., with inversion, found



   Cartesian axes

     site n.     atom                  positions (alat units)
         1           Ru  tau(   1) = (   0.0000000   0.0000000   0.0000000  )
         2           Ru  tau(   2) = (   0.2497500   0.2497500   0.0000000  )
         3           Ru  tau(   3) = (   0.2497500   0.0000000   0.2497495  )
         4           Ru  tau(   4) = (   0.0000000   0.2497500   0.2497495  )
         5           Ru  tau(   5) = (   0.0000000   0.0000000   0.4995000  )
         6           Ru  tau(   6) = (   0.2497490   0.2497490   0.4995000  )
         7           Ru  tau(   7) = (   0.2497500   0.0000000   0.7492495  )
         8           Ru  tau(   8) = (   0.0000000   0.2497500   0.7492495  )
         9           Ru  tau(   9) = (   0.0000000   0.4995002   0.0000000  )
        10           Ru  tau(  10) = (   0.2497500   0.7492504   0.0000000  )
        11           Ru  tau(  11) = (   0.2497490   0.4995002   0.2497484  )
        12           Ru  tau(  12) = (   0.0000000   0.7492504   0.2497495  )
        13           Ru  tau(  13) = (   0.0000000   0.4995002   0.4995000  )
        14           Ru  tau(  14) = (   0.2497490   0.7492515   0.4995000  )
        15           Ru  tau(  15) = (   0.2497490   0.4995002   0.7492505  )
        16           Ru  tau(  16) = (   0.0000000   0.7492504   0.7492495  )
        17           Ru  tau(  17) = (   0.4995002   0.0000000   0.0000000  )
        18           Ru  tau(  18) = (   0.7492504   0.2497500   0.0000000  )
        19           Ru  tau(  19) = (   0.7492504   0.0000000   0.2497495  )
        20           Ru  tau(  20) = (   0.4995002   0.2497490   0.2497484  )
        21           Ru  tau(  21) = (   0.4995002   0.0000000   0.4995000  )
        22           Ru  tau(  22) = (   0.7492515   0.2497490   0.4995000  )
        23           Ru  tau(  23) = (   0.7492504   0.0000000   0.7492495  )
        24           Ru  tau(  24) = (   0.4995002   0.2497490   0.7492505  )
        25           Ru  tau(  25) = (   0.4995002   0.4995002   0.0000000  )
        26           Ru  tau(  26) = (   0.7492504   0.7492504   0.0000000  )
        27           Ru  tau(  27) = (   0.7492515   0.4995002   0.2497484  )
        28           Ru  tau(  28) = (   0.4995002   0.7492515   0.2497484  )
        29           Ru  tau(  29) = (   0.4995002   0.4995002   0.4995000  )
        30           Ru  tau(  30) = (   0.7492515   0.7492515   0.4995000  )
        31           Ru  tau(  31) = (   0.7492515   0.4995002   0.7492505  )
        32           Ru  tau(  32) = (   0.4995002   0.7492515   0.7492505  )

     number of k points=    35  Marzari-Vanderbilt smearing, width (Ry)=  0.0400
                       cart. coord. in units 2pi/alat
        k(    1) = (   0.0556112   0.0556112   0.0556112), wk =   0.0219479
        k(    2) = (   0.0556112   0.0556112   0.1668335), wk =   0.0658436
        k(    3) = (   0.0556112   0.0556112   0.2780558), wk =   0.0658436
        k(    4) = (   0.0556112   0.0556112   0.3892782), wk =   0.0658436
        k(    5) = (   0.0556112   0.0556112  -0.5005005), wk =   0.0329218
        k(    6) = (   0.0556112   0.1668335   0.1668335), wk =   0.0658436
        k(    7) = (   0.0556112   0.1668335   0.2780558), wk =   0.1316872
        k(    8) = (   0.0556112   0.1668335   0.3892782), wk =   0.1316872
        k(    9) = (   0.0556112   0.1668335  -0.5005005), wk =   0.0658436
        k(   10) = (   0.0556112   0.2780558   0.2780558), wk =   0.0658436
        k(   11) = (   0.0556112   0.2780558   0.3892782), wk =   0.1316872
        k(   12) = (   0.0556112   0.2780558  -0.5005005), wk =   0.0658436
        k(   13) = (   0.0556112   0.3892782   0.3892782), wk =   0.0658436
        k(   14) = (   0.0556112   0.3892782  -0.5005005), wk =   0.0658436
        k(   15) = (   0.0556112  -0.5005005  -0.5005005), wk =   0.0164609
        k(   16) = (   0.1668335   0.1668335   0.1668335), wk =   0.0219479
        k(   17) = (   0.1668335   0.1668335   0.2780558), wk =   0.0658436
        k(   18) = (   0.1668335   0.1668335   0.3892782), wk =   0.0658436
        k(   19) = (   0.1668335   0.1668335  -0.5005005), wk =   0.0329218
        k(   20) = (   0.1668335   0.2780558   0.2780558), wk =   0.0658436
        k(   21) = (   0.1668335   0.2780558   0.3892782), wk =   0.1316872
        k(   22) = (   0.1668335   0.2780558  -0.5005005), wk =   0.0658436
        k(   23) = (   0.1668335   0.3892782   0.3892782), wk =   0.0658436
        k(   24) = (   0.1668335   0.3892782  -0.5005005), wk =   0.0658436
        k(   25) = (   0.1668335  -0.5005005  -0.5005005), wk =   0.0164609
        k(   26) = (   0.2780558   0.2780558   0.2780558), wk =   0.0219479
        k(   27) = (   0.2780558   0.2780558   0.3892782), wk =   0.0658436
        k(   28) = (   0.2780558   0.2780558  -0.5005005), wk =   0.0329218
        k(   29) = (   0.2780558   0.3892782   0.3892782), wk =   0.0658436
        k(   30) = (   0.2780558   0.3892782  -0.5005005), wk =   0.0658436
        k(   31) = (   0.2780558  -0.5005005  -0.5005005), wk =   0.0164609
        k(   32) = (   0.3892782   0.3892782   0.3892782), wk =   0.0219479
        k(   33) = (   0.3892782   0.3892782  -0.5005005), wk =   0.0329218
        k(   34) = (   0.3892782  -0.5005005  -0.5005005), wk =   0.0164609
        k(   35) = (  -0.5005005  -0.5005005  -0.5005005), wk =   0.0027435

     Dense  grid:   448759 G-vectors     FFT dimensions: (  96,  96,  96)

     Smooth grid:   240417 G-vectors     FFT dimensions: (  80,  80,  80)

     Estimated max dynamical RAM per process >     106.68 MB

     Estimated total dynamical RAM >       7.50 GB

     Check: negative core charge=   -0.000002

     Initial potential from superposition of free atoms

     starting charge  511.97959, renormalised to  512.00000
     Starting wfcs are  320 randomized atomic wfcs
     Checking if some PAW data can be deallocated... 

     total cpu time spent up to now is       19.0 secs

     Self-consistent Calculation

     iteration #  1     ecut=    71.00 Ry     beta= 0.10
     Davidson diagonalization with overlap
     ethr =  1.00E-02,  avg # of iterations =  3.3

     Threshold (ethr) on eigenvalues was too large:
     Diagonalizing with lowered threshold

     Davidson diagonalization with overlap
     ethr =  8.35E-05,  avg # of iterations =  5.4

     total cpu time spent up to now is      103.1 secs

     total energy              =  -13813.41299638 Ry
     estimated scf accuracy    <       0.63931257 Ry

     iteration #  2     ecut=    71.00 Ry     beta= 0.10
     Davidson diagonalization with overlap
     ethr =  1.25E-04,  avg # of iterations =  1.0

     total cpu time spent up to now is      136.0 secs

     total energy              =  -13813.20297004 Ry
     estimated scf accuracy    <       0.39985163 Ry

     iteration #  3     ecut=    71.00 Ry     beta= 0.10
     Davidson diagonalization with overlap
     ethr =  7.81E-05,  avg # of iterations =  2.3

     total cpu time spent up to now is      178.6 secs

     total energy              =  -13813.29971499 Ry
     estimated scf accuracy    <       0.01019165 Ry

     iteration #  4     ecut=    71.00 Ry     beta= 0.10
     Davidson diagonalization with overlap
     ethr =  1.99E-06,  avg # of iterations =  3.1

     total cpu time spent up to now is      213.4 secs

     total energy              =  -13813.29906110 Ry
     estimated scf accuracy    <       0.00676949 Ry

     iteration #  5     ecut=    71.00 Ry     beta= 0.10
     Davidson diagonalization with overlap
     ethr =  1.32E-06,  avg # of iterations =  2.1

     total cpu time spent up to now is      252.8 secs

     total energy              =  -13813.30391697 Ry
     estimated scf accuracy    <       0.00741917 Ry

     iteration #  6     ecut=    71.00 Ry     beta= 0.10
     Davidson diagonalization with overlap
     ethr =  1.32E-06,  avg # of iterations =  3.4

     total cpu time spent up to now is      302.1 secs

     total energy              =  -13813.29887691 Ry
     estimated scf accuracy    <       0.01642858 Ry

     iteration #  7     ecut=    71.00 Ry     beta= 0.10
     Davidson diagonalization with overlap
     ethr =  1.32E-06,  avg # of iterations =  2.6

     total cpu time spent up to now is      348.0 secs

     total energy              =  -13813.30042768 Ry
     estimated scf accuracy    <       0.00095513 Ry

     iteration #  8     ecut=    71.00 Ry     beta= 0.10
     Davidson diagonalization with overlap
     ethr =  1.87E-07,  avg # of iterations =  2.3

     total cpu time spent up to now is      384.7 secs

     total energy              =  -13813.30047883 Ry
     estimated scf accuracy    <       0.00022211 Ry

     iteration #  9     ecut=    71.00 Ry     beta= 0.10
     Davidson diagonalization with overlap
     ethr =  4.34E-08,  avg # of iterations =  1.9

     total cpu time spent up to now is      418.4 secs

     total energy              =  -13813.30041814 Ry
     estimated scf accuracy    <       0.00013529 Ry

     iteration # 10     ecut=    71.00 Ry     beta= 0.10
     Davidson diagonalization with overlap
     ethr =  2.64E-08,  avg # of iterations =  2.5

     total cpu time spent up to now is      455.8 secs

     total energy              =  -13813.30043780 Ry
     estimated scf accuracy    <       0.00000450 Ry

     iteration # 11     ecut=    71.00 Ry     beta= 0.10
     Davidson diagonalization with overlap
     ethr =  8.78E-10,  avg # of iterations =  4.2

     total cpu time spent up to now is      506.7 secs

     total energy              =  -13813.30044433 Ry
     estimated scf accuracy    <       0.00000200 Ry

     iteration # 12     ecut=    71.00 Ry     beta= 0.10
     Davidson diagonalization with overlap
     ethr =  3.90E-10,  avg # of iterations =  3.1

     total cpu time spent up to now is      552.7 secs

     total energy              =  -13813.30043959 Ry
     estimated scf accuracy    <       0.00001120 Ry

     iteration # 13     ecut=    71.00 Ry     beta= 0.10
     Davidson diagonalization with overlap
     ethr =  3.90E-10,  avg # of iterations =  3.1

     total cpu time spent up to now is      597.3 secs

     End of self-consistent calculation

          k = 0.0556 0.0556 0.0556 ( 30086 PWs)   bands (ev):

   -49.8280 -49.7269 -49.7269 -49.7269 -49.7074 -49.7074 -49.7074 -49.6709
   -49.6709 -49.6709 -49.6614 -49.6603 -49.6603 -49.6603 -49.6602 -49.6602
   -49.6602 -49.6597 -49.6597 -49.6596 -49.6513 -49.6513 -49.6513 -49.6053
   -49.6053 -49.6052 -49.6048 -49.6048 -49.6048 -49.6047 -49.6047 -49.6047
   -20.2377 -20.2377 -20.2377 -20.2335 -20.1742 -20.1742 -20.1742 -19.9719
   -19.9719 -19.9719 -19.9604 -19.9604 -19.9604 -19.9604 -19.9604 -19.9604
   -19.9400 -19.9400 -19.9400 -19.9170 -19.9170 -19.9170 -19.9170 -19.9170
   -19.9170 -19.8659 -19.8659 -19.8659 -19.8659 -19.8659 -19.8659 -19.7656
   -19.7656 -19.7656 -19.6917 -19.6917 -19.6917 -19.6839 -19.6839 -19.6839
   -19.6497 -19.6497 -19.6497 -19.6497 -19.6497 -19.6497 -19.6091 -19.6091
   -19.6091 -19.6021 -19.6021 -19.6021 -19.6021 -19.6021 -19.6021 -19.5961
   -19.5961 -19.5961 -19.5915 -19.5915 -19.5915 -19.4274 -19.4274 -19.4274
   -19.4268 -19.4268 -19.4268 -19.3949 -19.3949 -19.3949 -19.3947 -19.3946
   -19.3946 -19.3796 -19.3796 -19.3796 -19.3673 -19.3672 -19.3672 -19.3662
   -19.3662 -19.3662 -19.3662 -19.3662 -19.3661 -19.3642 -19.3642 -19.3642
   -19.3612 -19.3612 -19.3475 -19.3475 -19.3475 -19.2336 -19.2266 -19.2266
    15.4121  16.9600  16.9600  16.9600  17.2443  17.2621  17.2621  17.2621
    17.4298  17.4298  17.4298  17.6693  17.6693  17.6693  17.8388  17.8388
    17.8388  18.3747  18.3747  18.3747  18.3747  18.3747  18.3747  18.6909
    18.6909  18.6909  18.9650  18.9650  18.9650  18.9651  18.9652  18.9652
    19.0683  19.0683  19.0683  19.0734  19.0734  19.0734  19.0734  19.0734
    19.0735  19.5629  19.5629  19.5629  19.5630  19.5630  19.5630  19.7077
    19.7077  19.7077  19.7394  19.7394  19.7394  19.7395  19.7395  19.7395
    19.8039  19.8039  19.8039  20.0698  20.0698  20.0698  20.0698  20.0698
    20.0698  20.0698  20.0698  20.0698  20.0706  20.0706  20.0706  20.0706
    20.0706  20.0706  20.2397  20.2397  20.2398  20.5245  20.5245  20.5245
    20.5608  20.5608  20.5760  20.5760  20.5760  20.6554  20.6869  20.6869
    21.6683  21.6683  21.6683  21.8405  21.8405  21.8405  21.8860  21.8860
    21.8860  21.9867  21.9867  21.9868  21.9868  21.9868  21.9868  22.0006
    22.0006  22.0006  22.2995  22.2995  22.2995  22.4201  22.4201  22.4202
    22.6699  22.6700  22.6700  22.7471  22.7471  22.7471  22.7471  22.7471
    22.7471  22.7660  22.7661  22.7661  22.8070  22.8070  22.8070  22.9970
    22.9970  22.9970  22.9970  22.9971  22.9971  23.0574  23.0574  23.1711
    23.1711  23.1711  23.8363  23.8363  23.8363  23.8817  23.8817  23.8817
    23.9973  23.9973  23.9973  24.0822  24.8209  24.8209  24.8209  24.8631
    24.8631  24.8983  24.8983  24.8983  25.1831  25.1831  25.1831  25.2065
    25.2065  25.2065  25.3708  25.3708  25.3708  25.3708  25.3708  25.3708
    25.3759  25.3759  25.3759  26.8246  26.8246  26.8246  26.9839  26.9839
    26.9839  27.3600  27.3600

          k = 0.0556 0.0556 0.1668 ( 30087 PWs)   bands (ev):

   -49.8247 -49.7460 -49.7250 -49.7250 -49.7058 -49.7058 -49.6881 -49.6814
   -49.6814 -49.6706 -49.6691 -49.6691 -49.6631 -49.6603 -49.6602 -49.6597
   -49.6596 -49.6580 -49.6515 -49.6497 -49.6497 -49.6425 -49.6425 -49.6087
   -49.6066 -49.6066 -49.6063 -49.6063 -49.6053 -49.6052 -49.6048 -49.6047
   -20.2301 -20.2262 -20.2262 -20.2180 -20.1658 -20.1658 -20.1611 -20.0032
   -19.9897 -19.9897 -19.9765 -19.9765 -19.9738 -19.9738 -19.9684 -19.9660
   -19.9660 -19.9426 -19.9426 -19.9275 -19.9275 -19.9139 -19.9139 -19.9130
   -19.9130 -19.8742 -19.8742 -19.8568 -19.8568 -19.8449 -19.8163 -19.8163
   -19.7783 -19.7783 -19.7328 -19.7328 -19.7004 -19.7004 -19.6895 -19.6895
   -19.6583 -19.6202 -19.6202 -19.6081 -19.6081 -19.6068 -19.6068 -19.6021
   -19.6013 -19.6013 -19.5909 -19.5909 -19.5906 -19.5873 -19.5873 -19.5862
   -19.5857 -19.5857 -19.5820 -19.5690 -19.5690 -19.4595 -19.4582 -19.4346
   -19.4346 -19.4189 -19.4189 -19.4020 -19.4020 -19.3995 -19.3995 -19.3910
   -19.3910 -19.3852 -19.3852 -19.3849 -19.3792 -19.3781 -19.3781 -19.3672
   -19.3669 -19.3661 -19.3661 -19.3651 -19.3650 -19.3632 -19.3624 -19.3593
   -19.3593 -19.3585 -19.3479 -19.3356 -19.3356 -19.2512 -19.2322 -19.2302
    15.4987  17.0112  17.0240  17.0240  17.2843  17.3195  17.3195  17.3370
    17.3681  17.4680  17.4922  17.4922  17.7316  17.7317  17.8583  17.9045
    17.9046  18.2534  18.2534  18.4232  18.4232  18.4324  18.4328  18.4328
    18.6491  18.7304  18.7304  18.7541  18.7541  18.8035  18.8287  18.8287
    18.9983  18.9983  19.0140  19.0141  19.0326  19.0326  19.1063  19.1063
    19.1675  19.1675  19.2484  19.5414  19.5414  19.5669  19.5669  19.6187
    19.6188  19.6327  19.6327  19.6908  19.6908  19.7811  19.7811  19.8108
    19.8906  19.8906  19.9071  19.9071  20.0042  20.0227  20.0228  20.0566
    20.0566  20.0673  20.0673  20.0776  20.0776  20.3233  20.3233  20.3421
    20.3421  20.3687  20.4238  20.4506  20.4823  20.4823  20.5577  20.5940
    20.5945  20.6228  20.6228  20.6288  20.6288  20.6396  20.7301  20.7341
    21.4354  21.4354  21.5672  21.5673  21.6560  21.6831  21.7938  21.7938
    21.8238  21.9204  21.9204  21.9578  22.0991  22.0991  22.1033  22.1324
    22.1324  22.1796  22.1796  22.2119  22.2755  22.2756  22.6026  22.6026
    22.6216  22.6216  22.6362  22.6363  22.7489  22.7489  22.7635  22.7635
    22.8847  22.8847  22.9076  22.9076  22.9855  23.0061  23.0168  23.0168
    23.0620  23.0820  23.2220  23.2220  23.2385  23.2859  23.2859  23.3721
    23.4054  23.4054  23.4160  23.4676  23.4676  23.6558  23.6820  23.8990
    23.8991  24.0909  24.0909  24.1608  24.6187  24.6187  24.7318  24.7318
    24.7460  24.7802  24.8450  24.8450  24.8495  25.0460  25.1161  25.2422
    25.2422  25.2435  25.2435  25.2646  25.3694  25.3694  25.3706  25.3706
    25.5499  25.5499  25.7769  26.3036  26.3036  26.6817  26.7655  26.8318
    26.8318  27.3037  27.3037

          k = 0.0556 0.0556 0.2781 ( 30083 PWs)   bands (ev):

   -49.8180 -49.7643 -49.7213 -49.7213 -49.7027 -49.7027 -49.6915 -49.6915
   -49.6776 -49.6776 -49.6699 -49.6698 -49.6648 -49.6602 -49.6601 -49.6598
   -49.6597 -49.6565 -49.6520 -49.6397 -49.6397 -49.6341 -49.6340 -49.6154
   -49.6102 -49.6102 -49.6093 -49.6093 -49.6053 -49.6052 -49.6049 -49.6048
   -20.2114 -20.2038 -20.2038 -20.1918 -20.1492 -20.1492 -20.1352 -20.0494
   -20.0346 -20.0346 -20.0132 -20.0127 -20.0127 -19.9799 -19.9799 -19.9740
   -19.9740 -19.9429 -19.9429 -19.9197 -19.9191 -19.9191 -19.9169 -19.9169
   -19.8805 -19.8805 -19.8769 -19.8769 -19.8410 -19.8410 -19.8009 -19.8009
   -19.7717 -19.7717 -19.7685 -19.7685 -19.7294 -19.7294 -19.7275 -19.7275
   -19.6252 -19.6252 -19.6079 -19.5999 -19.5999 -19.5918 -19.5918 -19.5797
   -19.5755 -19.5745 -19.5745 -19.5682 -19.5682 -19.5611 -19.5611 -19.5578
   -19.5578 -19.5400 -19.5305 -19.5305 -19.5230 -19.4900 -19.4880 -19.4494
   -19.4494 -19.4251 -19.4251 -19.4212 -19.4212 -19.4162 -19.4162 -19.4138
   -19.4052 -19.4052 -19.4011 -19.4011 -19.3848 -19.3780 -19.3703 -19.3703
   -19.3696 -19.3661 -19.3660 -19.3653 -19.3653 -19.3589 -19.3589 -19.3560
   -19.3488 -19.3331 -19.3316 -19.3308 -19.3308 -19.2822 -19.2433 -19.2405
    15.6691  16.9926  17.1103  17.1489  17.1489  17.3819  17.4337  17.4337
    17.4676  17.5439  17.6164  17.6164  17.7613  17.8523  17.8523  18.0321
    18.0321  18.0460  18.0460  18.1956  18.3105  18.4103  18.4103  18.4772
    18.5155  18.5155  18.5468  18.5468  18.6541  18.6541  18.6999  18.6999
    18.8085  18.8085  18.8703  18.8703  18.9789  18.9789  19.0628  19.0628
    19.2383  19.2383  19.4428  19.4428  19.5062  19.5062  19.5087  19.5087
    19.5235  19.5235  19.5323  19.5694  19.5694  19.6663  19.6663  19.8258
    19.8258  19.8751  19.9429  19.9429  20.0043  20.0044  20.0720  20.0721
    20.0880  20.0880  20.1484  20.1485  20.1754  20.3464  20.4095  20.4095
    20.4175  20.4175  20.4671  20.5187  20.6764  20.7271  20.7271  20.7502
    20.7516  20.7676  20.7676  20.8245  20.8280  20.8744  21.1561  21.1561
    21.2186  21.2186  21.2208  21.2208  21.4305  21.5440  21.5440  21.5789
    21.5916  21.6503  22.0107  22.0513  22.0513  22.2622  22.2622  22.2802
    22.2802  22.3177  22.3177  22.3952  22.3953  22.5161  22.5161  22.6167
    22.6167  22.7395  22.7414  22.7415  22.7548  22.7549  22.7794  22.7794
    22.8346  22.8346  22.8469  22.9066  22.9370  22.9370  23.0536  23.1232
    23.1232  23.1307  23.1896  23.1896  23.3298  23.4652  23.5346  23.5346
    23.5382  23.6185  23.6185  23.6621  23.6922  23.6922  23.7134  23.9322
    23.9322  24.0778  24.0778  24.3234  24.3465  24.3465  24.5235  24.5235
    24.5547  24.6899  24.6899  24.6911  24.7205  24.7816  25.0078  25.0078
    25.0090  25.0090  25.0656  25.3685  25.3685  25.3701  25.3702  25.5135
    25.7923  25.7923  25.9864  25.9864  26.1536  26.3007  26.3007  26.3365
    26.6450  27.1862  27.1862

          k = 0.0556 0.0556 0.3893 ( 30099 PWs)   bands (ev):

   -49.8084 -49.7811 -49.7159 -49.7159 -49.7008 -49.7008 -49.6981 -49.6981
   -49.6854 -49.6854 -49.6690 -49.6664 -49.6602 -49.6601 -49.6599 -49.6598
   -49.6551 -49.6528 -49.6528 -49.6305 -49.6305 -49.6263 -49.6263 -49.6252
   -49.6155 -49.6155 -49.6138 -49.6138 -49.6052 -49.6051 -49.6049 -49.6048
   -20.1822 -20.1714 -20.1714 -20.1560 -20.1248 -20.1248 -20.0984 -20.0969
   -20.0837 -20.0837 -20.0633 -20.0555 -20.0555 -19.9877 -19.9788 -19.9788
   -19.9649 -19.9649 -19.9585 -19.9585 -19.9325 -19.9325 -19.8912 -19.8912
   -19.8626 -19.8626 -19.8439 -19.8439 -19.8296 -19.8296 -19.8199 -19.8199
   -19.8073 -19.8073 -19.7656 -19.7656 -19.7624 -19.7624 -19.7242 -19.7242
   -19.6514 -19.6514 -19.5979 -19.5979 -19.5936 -19.5936 -19.5636 -19.5598
   -19.5530 -19.5313 -19.5313 -19.5279 -19.5279 -19.5244 -19.5244 -19.5242
   -19.5242 -19.5180 -19.5153 -19.4950 -19.4950 -19.4937 -19.4709 -19.4709
   -19.4554 -19.4554 -19.4553 -19.4553 -19.4528 -19.4491 -19.4369 -19.4369
   -19.4344 -19.4344 -19.4129 -19.3897 -19.3897 -19.3765 -19.3722 -19.3659
   -19.3659 -19.3655 -19.3654 -19.3646 -19.3646 -19.3544 -19.3544 -19.3537
   -19.3501 -19.3329 -19.3329 -19.3266 -19.3051 -19.3031 -19.2596 -19.2567
    15.9173  16.6005  17.2506  17.3281  17.3281  17.5359  17.6005  17.6030
    17.6030  17.6517  17.6566  17.7988  17.7988  17.8013  17.8013  17.9849
    18.0047  18.0224  18.0224  18.0962  18.0962  18.1640  18.2129  18.2129
    18.3455  18.3455  18.4466  18.4466  18.6405  18.6406  18.6628  18.6628
    18.7120  18.7120  18.8968  18.8969  18.9232  18.9232  19.1432  19.1432
    19.1550  19.1550  19.2492  19.2492  19.3964  19.3964  19.4410  19.4410
    19.4828  19.4828  19.5491  19.5491  19.5563  19.5563  19.8072  19.8079
    19.8079  19.8613  19.8614  19.9742  20.0909  20.0909  20.0967  20.0968
    20.1016  20.1016  20.2232  20.2760  20.2863  20.3141  20.3141  20.3265
    20.3266  20.4519  20.5230  20.5230  20.8050  20.8700  20.8700  20.8814
    20.8814  20.8976  20.8977  20.9053  20.9654  20.9679  21.1888  21.2033
    21.2033  21.2707  21.3292  21.3628  21.3683  21.3683  21.3706  21.3810
    21.8539  21.8539  22.1771  22.1771  22.1851  22.2490  22.2490  22.3830
    22.3830  22.3876  22.4390  22.4503  22.4503  22.4945  22.4945  22.5308
    22.5308  22.5807  22.5808  22.5924  22.5925  22.6530  22.7069  22.7069
    22.7469  22.7470  22.7689  22.7689  22.8583  22.8583  23.0800  23.0800
    23.2024  23.2207  23.2207  23.3387  23.4084  23.5384  23.5384  23.6709
    23.8645  23.8650  23.8650  23.9714  23.9780  23.9780  24.0174  24.0175
    24.2420  24.2420  24.2432  24.3015  24.3991  24.3991  24.4021  24.4626
    24.4626  24.4831  24.5211  24.5224  24.6987  24.6988  24.7025  24.7025
    24.7563  24.7563  24.8359  25.2936  25.2936  25.3685  25.3686  25.3696
    25.3696  25.5070  25.7687  25.7687  25.8875  26.3941  26.3941  26.4594
    26.8297  26.9994  26.9994

          k = 0.0556 0.0556-0.5005 ( 30086 PWs)   bands (ev):

   -49.7960 -49.7958 -49.7091 -49.7091 -49.7089 -49.7089 -49.6924 -49.6924
   -49.6922 -49.6922 -49.6679 -49.6677 -49.6602 -49.6600 -49.6600 -49.6598
   -49.6539 -49.6537 -49.6379 -49.6377 -49.6225 -49.6225 -49.6223 -49.6223
   -49.6196 -49.6196 -49.6194 -49.6194 -49.6052 -49.6050 -49.6050 -49.6048
   -20.1438 -20.1437 -20.1307 -20.1306 -20.1305 -20.1304 -20.1124 -20.1123
   -20.0933 -20.0933 -20.0931 -20.0931 -20.0474 -20.0472 -19.9712 -19.9712
   -19.9711 -19.9711 -19.9503 -19.9503 -19.9503 -19.9503 -19.8607 -19.8607
   -19.8606 -19.8606 -19.8382 -19.8382 -19.8380 -19.8380 -19.8048 -19.8048
   -19.8047 -19.8047 -19.7936 -19.7936 -19.7934 -19.7934 -19.6848 -19.6848
   -19.6846 -19.6846 -19.5958 -19.5957 -19.5957 -19.5955 -19.5429 -19.5427
   -19.5396 -19.5394 -19.5000 -19.4999 -19.4986 -19.4986 -19.4984 -19.4984
   -19.4916 -19.4916 -19.4916 -19.4915 -19.4892 -19.4892 -19.4891 -19.4891
   -19.4765 -19.4765 -19.4764 -19.4763 -19.4635 -19.4635 -19.4633 -19.4633
   -19.4501 -19.4501 -19.3830 -19.3828 -19.3755 -19.3755 -19.3754 -19.3754
   -19.3746 -19.3744 -19.3659 -19.3657 -19.3657 -19.3655 -19.3518 -19.3516
   -19.3413 -19.3413 -19.3412 -19.3412 -19.2805 -19.2803 -19.2779 -19.2777
    16.2332  16.2334  17.4203  17.4205  17.5504  17.5505  17.5506  17.5507
    17.7446  17.7446  17.8042  17.8044  17.8250  17.8250  17.8252  17.8252
    17.8856  17.8856  18.0450  18.0450  18.0452  18.0452  18.2275  18.2275
    18.2276  18.2277  18.4315  18.4315  18.4317  18.4317  18.7776  18.7777
    18.7777  18.7778  18.9193  18.9193  18.9194  18.9194  19.0716  19.0716
    19.0718  19.0718  19.2691  19.2691  19.2692  19.2692  19.4878  19.4878
    19.4879  19.4879  19.5077  19.5077  19.5077  19.5077  19.8140  19.8140
    19.8140  19.8140  20.0623  20.0625  20.0945  20.0946  20.0990  20.0990
    20.0991  20.0992  20.2074  20.2075  20.2075  20.2077  20.3678  20.3680
    20.5774  20.5775  20.5775  20.5775  20.6830  20.6830  20.6830  20.6830
    20.9774  20.9774  21.0524  21.0525  21.0526  21.0527  21.1005  21.1006
    21.1498  21.1500  21.1527  21.1529  21.8338  21.8338  21.8338  21.8339
    21.8402  21.8402  21.8704  21.8704  22.2301  22.2301  22.2303  22.2303
    22.4222  22.4224  22.5236  22.5236  22.5236  22.5236  22.5487  22.5487
    22.5489  22.5489  22.6274  22.6274  22.6275  22.6275  22.6413  22.6413
    22.6414  22.6414  22.7071  22.7071  22.7072  22.7072  22.9613  22.9613
    22.9615  22.9615  23.2955  23.2957  23.9029  23.9031  23.9031  23.9032
    23.9147  23.9149  24.0012  24.0012  24.1814  24.1814  24.1816  24.1816
    24.2337  24.2338  24.2654  24.2654  24.3456  24.3456  24.3457  24.3457
    24.3622  24.3622  24.3623  24.3623  24.6453  24.6454  24.8203  24.8203
    24.8203  24.8203  24.8457  24.8459  25.2463  25.2463  25.2463  25.2463
    25.3688  25.3690  25.3690  25.3692  26.2062  26.2064  26.7356  26.7357
    26.7358  26.7359  27.2282

          k = 0.0556 0.1668 0.1668 ( 30104 PWs)   bands (ev):

   -49.8214 -49.7439 -49.7439 -49.7232 -49.7043 -49.6936 -49.6868 -49.6868
   -49.6808 -49.6808 -49.6688 -49.6688 -49.6665 -49.6614 -49.6570 -49.6570
   -49.6564 -49.6563 -49.6500 -49.6500 -49.6430 -49.6430 -49.6353 -49.6086
   -49.6086 -49.6081 -49.6080 -49.6069 -49.6069 -49.6060 -49.6060 -49.6052
   -20.2228 -20.2228 -20.2112 -20.1988 -20.1575 -20.1534 -20.1534 -20.0097
   -20.0097 -20.0034 -20.0034 -19.9728 -19.9713 -19.9713 -19.9696 -19.9696
   -19.9652 -19.9652 -19.9595 -19.9595 -19.9404 -19.9404 -19.9375 -19.9375
   -19.8773 -19.8538 -19.8538 -19.8498 -19.8498 -19.8316 -19.8316 -19.8086
   -19.8086 -19.7921 -19.7749 -19.7179 -19.6958 -19.6958 -19.6581 -19.6581
   -19.6466 -19.6466 -19.6237 -19.6223 -19.6223 -19.6010 -19.6010 -19.5883
   -19.5883 -19.5853 -19.5853 -19.5835 -19.5835 -19.5834 -19.5825 -19.5825
   -19.5733 -19.5733 -19.5447 -19.5447 -19.5303 -19.4669 -19.4668 -19.4519
   -19.4518 -19.4280 -19.4234 -19.4141 -19.3992 -19.3992 -19.3985 -19.3984
   -19.3924 -19.3912 -19.3904 -19.3904 -19.3886 -19.3886 -19.3764 -19.3728
   -19.3728 -19.3699 -19.3698 -19.3698 -19.3614 -19.3598 -19.3598 -19.3590
   -19.3522 -19.3522 -19.3366 -19.3366 -19.3186 -19.2732 -19.2373 -19.2293
    15.5838  17.0754  17.0754  17.0819  17.3048  17.3574  17.4093  17.4093
    17.4293  17.4293  17.5298  17.5298  17.5584  17.7785  17.9264  17.9264
    17.9511  18.2858  18.2858  18.3135  18.3136  18.4776  18.4776  18.4807
    18.4807  18.5376  18.5376  18.6198  18.6788  18.6788  18.7858  18.8380
    18.8380  18.8601  18.8601  18.8809  19.0449  19.1225  19.1225  19.1293
    19.1293  19.1620  19.1620  19.2745  19.2745  19.5052  19.5052  19.6074
    19.6074  19.6279  19.6826  19.6827  19.7146  19.7146  19.7655  19.7655
    19.7920  19.9781  19.9781  19.9849  19.9849  20.0762  20.0762  20.1443
    20.1443  20.1905  20.2659  20.2659  20.3711  20.3711  20.3901  20.3901
    20.4347  20.4347  20.4644  20.5382  20.5383  20.5448  20.5581  20.5697
    20.6144  20.6144  20.6334  20.6796  20.7116  20.7116  20.7512  20.7763
    21.2985  21.4012  21.4352  21.4353  21.6893  21.6893  21.8545  21.8687
    21.8687  21.8718  21.8718  21.9424  21.9425  21.9619  21.9619  21.9886
    21.9886  22.1461  22.2102  22.3154  22.3155  22.3368  22.3368  22.3876
    22.4668  22.7494  22.7494  22.8678  22.8787  22.8787  22.8945  22.8945
    22.9354  22.9354  22.9638  23.0180  23.0180  23.0618  23.0933  23.0933
    23.1564  23.1564  23.1767  23.2165  23.2165  23.3173  23.4082  23.4688
    23.4688  23.4991  23.4991  23.5799  23.5914  23.5914  23.7203  23.7203
    23.9290  24.1261  24.2957  24.2997  24.2997  24.4389  24.4389  24.6132
    24.7245  24.7245  24.7898  24.8711  24.8711  24.8842  24.8926  25.1380
    25.1380  25.2412  25.2412  25.2449  25.2449  25.2630  25.2630  25.3071
    25.5016  25.7998  26.1362  26.1362  26.2450  26.2450  26.7763  26.7763
    27.2798  27.2798  27.3948

          k = 0.0556 0.1668 0.2781 ( 30094 PWs)   bands (ev):

   -49.8148 -49.7619 -49.7396 -49.7196 -49.7052 -49.7013 -49.6906 -49.6843
   -49.6796 -49.6770 -49.6698 -49.6687 -49.6681 -49.6638 -49.6631 -49.6549
   -49.6532 -49.6505 -49.6453 -49.6441 -49.6403 -49.6349 -49.6285 -49.6152
   -49.6116 -49.6111 -49.6110 -49.6085 -49.6084 -49.6073 -49.6058 -49.6053
   -20.2081 -20.2046 -20.1856 -20.1691 -20.1409 -20.1382 -20.1288 -20.0566
   -20.0476 -20.0137 -20.0125 -20.0092 -20.0091 -20.0054 -19.9844 -19.9806
   -19.9791 -19.9631 -19.9616 -19.9538 -19.9512 -19.9476 -19.9438 -19.9247
   -19.9065 -19.8697 -19.8545 -19.8366 -19.8364 -19.8226 -19.8165 -19.8142
   -19.7939 -19.7877 -19.7614 -19.7484 -19.7315 -19.6950 -19.6833 -19.6568
   -19.6465 -19.6416 -19.6192 -19.6100 -19.6054 -19.5896 -19.5886 -19.5857
   -19.5811 -19.5789 -19.5742 -19.5643 -19.5549 -19.5507 -19.5487 -19.5464
   -19.5464 -19.5421 -19.5093 -19.5069 -19.4977 -19.4933 -19.4832 -19.4822
   -19.4402 -19.4394 -19.4345 -19.4322 -19.4250 -19.4233 -19.4224 -19.4197
   -19.4105 -19.4048 -19.3963 -19.3919 -19.3917 -19.3891 -19.3834 -19.3791
   -19.3779 -19.3757 -19.3726 -19.3688 -19.3607 -19.3601 -19.3542 -19.3392
   -19.3385 -19.3366 -19.3324 -19.3208 -19.3087 -19.3079 -19.2485 -19.2351
    15.7514  17.0560  17.1751  17.1957  17.2009  17.3815  17.4504  17.5354
    17.5480  17.5516  17.6045  17.6527  17.6893  17.8297  17.8675  18.0392
    18.0593  18.0644  18.1045  18.2213  18.2454  18.3443  18.3460  18.3922
    18.4134  18.4320  18.5234  18.5504  18.5675  18.5713  18.5726  18.5938
    18.7230  18.7443  18.7573  18.8626  18.8968  18.9721  18.9817  19.1377
    19.1536  19.1802  19.2178  19.3239  19.3563  19.4193  19.4338  19.4595
    19.4685  19.5257  19.5508  19.5960  19.6788  19.6912  19.7126  19.7851
    19.8124  19.8498  19.9604  20.0807  20.1142  20.1515  20.1736  20.2132
    20.2348  20.2623  20.2936  20.3180  20.3889  20.4033  20.4190  20.4346
    20.4496  20.5377  20.5604  20.5952  20.6104  20.6668  20.7052  20.7094
    20.7727  20.8310  20.8315  20.8394  20.8589  20.8623  21.0883  21.1078
    21.1372  21.1941  21.2066  21.4313  21.4339  21.4454  21.6019  21.6415
    21.7184  21.7334  21.7702  21.8982  21.9347  21.9889  22.0603  22.1548
    22.1758  22.2113  22.2639  22.3109  22.3574  22.3674  22.4662  22.5477
    22.5775  22.6596  22.6654  22.7029  22.7122  22.7357  22.8468  22.8522
    22.8612  22.8743  22.9667  22.9921  23.0580  23.1001  23.1618  23.1762
    23.1940  23.2226  23.2256  23.4109  23.5055  23.5074  23.5279  23.5560
    23.5811  23.7381  23.7579  23.7975  23.8055  23.8095  23.8406  23.8553
    23.8630  23.9439  24.0587  24.1524  24.3123  24.4261  24.5262  24.5501
    24.5639  24.6373  24.6646  24.7769  24.7967  24.7999  24.9473  24.9481
    25.0091  25.0119  25.0753  25.1287  25.2408  25.2464  25.2576  25.2700
    25.3165  25.6951  25.7356  26.1274  26.2473  26.5649  26.6636  26.7479
    26.7640  26.8512  27.7691

          k = 0.0556 0.1668 0.3893 ( 30075 PWs)   bands (ev):

   -49.8053 -49.7784 -49.7334 -49.7160 -49.7144 -49.6996 -49.6969 -49.6845
   -49.6806 -49.6778 -49.6728 -49.6702 -49.6672 -49.6646 -49.6535 -49.6520
   -49.6513 -49.6504 -49.6457 -49.6347 -49.6313 -49.6274 -49.6249 -49.6222
   -49.6173 -49.6168 -49.6153 -49.6121 -49.6082 -49.6076 -49.6057 -49.6053
   -20.1827 -20.1761 -20.1508 -20.1305 -20.1166 -20.1158 -20.1044 -20.0948
   -20.0927 -20.0609 -20.0526 -20.0479 -20.0347 -20.0073 -20.0020 -19.9893
   -19.9887 -19.9864 -19.9824 -19.9722 -19.9488 -19.9346 -19.9329 -19.9136
   -19.8900 -19.8741 -19.8682 -19.8487 -19.8473 -19.8176 -19.7938 -19.7919
   -19.7863 -19.7733 -19.7643 -19.7462 -19.7301 -19.7174 -19.7173 -19.6994
   -19.6748 -19.6451 -19.5882 -19.5865 -19.5831 -19.5788 -19.5771 -19.5729
   -19.5671 -19.5580 -19.5574 -19.5327 -19.5262 -19.5223 -19.5208 -19.5180
   -19.5131 -19.5118 -19.5045 -19.4976 -19.4766 -19.4754 -19.4749 -19.4654
   -19.4615 -19.4601 -19.4592 -19.4591 -19.4587 -19.4527 -19.4526 -19.4261
   -19.4236 -19.4192 -19.4033 -19.4000 -19.3951 -19.3938 -19.3932 -19.3873
   -19.3846 -19.3818 -19.3666 -19.3662 -19.3621 -19.3587 -19.3540 -19.3492
   -19.3412 -19.3352 -19.3217 -19.3109 -19.3063 -19.2922 -19.2649 -19.2483
    15.9956  16.6685  17.3162  17.3611  17.3810  17.5136  17.5978  17.6681
    17.7133  17.7153  17.7169  17.7433  17.8131  17.8358  17.8549  17.8811
    17.9376  17.9889  18.0384  18.0479  18.1553  18.1593  18.2124  18.2492
    18.2533  18.2753  18.3736  18.4226  18.4265  18.4413  18.6048  18.6254
    18.6901  18.7013  18.7376  18.7580  18.8632  19.0628  19.0695  19.0891
    19.0996  19.1973  19.2128  19.2656  19.2748  19.3113  19.3336  19.3441
    19.3824  19.3908  19.5382  19.5389  19.5394  19.6529  19.8077  19.8161
    19.8179  19.8861  20.0856  20.0973  20.1369  20.1664  20.1927  20.2019
    20.2278  20.2638  20.2797  20.3485  20.3534  20.3556  20.4014  20.4260
    20.5271  20.5309  20.5611  20.7557  20.8174  20.8487  20.8697  20.9055
    20.9663  20.9885  20.9933  21.0062  21.0094  21.0125  21.0202  21.0563
    21.1501  21.2362  21.2922  21.3170  21.3763  21.3872  21.4752  21.5044
    21.7222  21.8084  21.8607  21.9323  21.9436  21.9970  22.1043  22.1705
    22.1884  22.2187  22.2577  22.2758  22.2774  22.2796  22.3509  22.4186
    22.4861  22.5414  22.6384  22.6656  22.6858  22.7490  22.7772  22.7964
    22.8140  22.9126  22.9559  22.9675  23.0577  23.0912  23.1007  23.1774
    23.2243  23.2649  23.4088  23.4448  23.4947  23.4952  23.5700  23.5862
    23.7721  23.8000  23.8672  23.9617  24.0849  24.0867  24.1082  24.1163
    24.1392  24.1508  24.1633  24.2563  24.2691  24.3511  24.3538  24.4513
    24.5280  24.6338  24.6398  24.6998  24.7006  24.7010  24.7057  24.7143
    24.8534  24.8577  24.9285  25.1714  25.2392  25.2418  25.2481  25.2529
    25.2533  25.4369  25.7173  25.9509  25.9850  26.1346  26.2924  26.4919
    26.9808  27.3054  27.5926

          k = 0.0556 0.1668-0.5005 ( 30060 PWs)   bands (ev):

   -49.7931 -49.7929 -49.7256 -49.7254 -49.7077 -49.7075 -49.6913 -49.6911
   -49.6759 -49.6758 -49.6756 -49.6754 -49.6661 -49.6659 -49.6524 -49.6522
   -49.6479 -49.6477 -49.6373 -49.6371 -49.6253 -49.6251 -49.6235 -49.6233
   -49.6209 -49.6208 -49.6168 -49.6166 -49.6080 -49.6078 -49.6056 -49.6054
   -20.1475 -20.1474 -20.1389 -20.1388 -20.1084 -20.1083 -20.0871 -20.0869
   -20.0854 -20.0852 -20.0848 -20.0847 -20.0457 -20.0455 -19.9981 -19.9981
   -19.9903 -19.9902 -19.9892 -19.9892 -19.9347 -19.9347 -19.9119 -19.9118
   -19.8807 -19.8806 -19.8731 -19.8730 -19.8273 -19.8273 -19.7934 -19.7933
   -19.7632 -19.7631 -19.7476 -19.7474 -19.7455 -19.7454 -19.7082 -19.7081
   -19.6783 -19.6781 -19.5875 -19.5874 -19.5773 -19.5772 -19.5516 -19.5514
   -19.5371 -19.5369 -19.5332 -19.5330 -19.5265 -19.5264 -19.5066 -19.5066
   -19.4967 -19.4965 -19.4899 -19.4899 -19.4872 -19.4871 -19.4850 -19.4850
   -19.4836 -19.4834 -19.4553 -19.4553 -19.4478 -19.4477 -19.4289 -19.4288
   -19.4269 -19.4268 -19.4120 -19.4119 -19.4102 -19.4101 -19.3894 -19.3892
   -19.3849 -19.3847 -19.3784 -19.3783 -19.3641 -19.3639 -19.3449 -19.3448
   -19.3445 -19.3444 -19.3109 -19.3108 -19.2860 -19.2858 -19.2678 -19.2676
    16.3065  16.3067  17.4868  17.4870  17.5711  17.5712  17.6047  17.6048
    17.6999  17.6999  17.7977  17.7977  17.8606  17.8608  17.9243  17.9245
    17.9402  17.9403  17.9797  17.9797  18.0768  18.0770  18.1280  18.1281
    18.1297  18.1298  18.2983  18.2984  18.4826  18.4828  18.5204  18.5204
    18.8043  18.8044  18.8242  18.8244  18.8788  18.8789  18.9657  18.9659
    19.2169  19.2170  19.2498  19.2500  19.2801  19.2802  19.3171  19.3172
    19.3883  19.3884  19.4510  19.4511  19.4663  19.4664  19.9380  19.9381
    20.0028  20.0029  20.0072  20.0073  20.0647  20.0649  20.1268  20.1268
    20.2747  20.2748  20.2967  20.2968  20.4719  20.4721  20.5064  20.5066
    20.5785  20.5785  20.6220  20.6220  20.6784  20.6785  20.8631  20.8631
    20.9721  20.9722  21.0669  21.0669  21.1445  21.1446  21.1522  21.1524
    21.1829  21.1830  21.2154  21.2155  21.6418  21.6419  21.6840  21.6840
    21.7174  21.7175  21.7669  21.7670  21.9348  21.9350  21.9391  21.9392
    22.1984  22.1986  22.3748  22.3748  22.3965  22.3966  22.4485  22.4485
    22.4537  22.4539  22.5176  22.5177  22.5814  22.5815  22.6901  22.6902
    22.8862  22.8863  22.9090  22.9092  23.0145  23.0146  23.2815  23.2817
    23.3162  23.3163  23.3184  23.3185  23.3874  23.3876  23.8428  23.8429
    23.9277  23.9279  23.9391  23.9392  24.1601  24.1602  24.2151  24.2151
    24.3417  24.3419  24.3954  24.3954  24.3961  24.3962  24.4175  24.4176
    24.4179  24.4180  24.4255  24.4256  24.4376  24.4376  24.6275  24.6276
    24.7683  24.7683  25.1955  25.1955  25.2450  25.2451  25.2501  25.2503
    25.4893  25.4895  25.7180  25.7182  25.7267  25.7267  26.2622  26.2624
    27.3305  27.3307  27.7573

          k = 0.0556 0.2781 0.2781 ( 30079 PWs)   bands (ev):

   -49.8085 -49.7571 -49.7571 -49.7184 -49.7162 -49.6984 -49.6889 -49.6888
   -49.6758 -49.6758 -49.6746 -49.6668 -49.6668 -49.6662 -49.6508 -49.6507
   -49.6502 -49.6501 -49.6413 -49.6413 -49.6366 -49.6366 -49.6232 -49.6149
   -49.6149 -49.6143 -49.6143 -49.6121 -49.6120 -49.6077 -49.6077 -49.6055
   -20.1941 -20.1941 -20.1576 -20.1367 -20.1245 -20.1163 -20.1163 -20.0559
   -20.0559 -20.0519 -20.0519 -20.0142 -20.0142 -19.9914 -19.9914 -19.9868
   -19.9868 -19.9843 -19.9843 -19.9764 -19.9764 -19.9490 -19.9490 -19.9489
   -19.9339 -19.9339 -19.8521 -19.8438 -19.8164 -19.8164 -19.7967 -19.7967
   -19.7880 -19.7812 -19.7475 -19.7475 -19.6748 -19.6748 -19.6742 -19.6462
   -19.6462 -19.6408 -19.6408 -19.6074 -19.6074 -19.5852 -19.5852 -19.5735
   -19.5735 -19.5676 -19.5672 -19.5672 -19.5530 -19.5530 -19.5313 -19.5313
   -19.5135 -19.5135 -19.5116 -19.5116 -19.4759 -19.4759 -19.4739 -19.4739
   -19.4593 -19.4593 -19.4578 -19.4495 -19.4281 -19.4281 -19.4267 -19.4199
   -19.4199 -19.4170 -19.4168 -19.4168 -19.3898 -19.3898 -19.3880 -19.3879
   -19.3852 -19.3779 -19.3643 -19.3623 -19.3623 -19.3602 -19.3522 -19.3522
   -19.3470 -19.3355 -19.3355 -19.3057 -19.3057 -19.2936 -19.2599 -19.2349
    15.9135  17.1799  17.1799  17.2902  17.3016  17.3016  17.4332  17.5180
    17.6844  17.6844  17.7250  17.7250  17.8303  17.8977  17.9634  17.9634
    18.0586  18.1038  18.1039  18.1143  18.1401  18.1401  18.2189  18.2189
    18.2766  18.2766  18.3446  18.3447  18.5469  18.6339  18.6339  18.6513
    18.6513  18.6803  18.6803  18.7686  18.7686  18.8677  18.8677  18.9460
    18.9460  19.0635  19.2106  19.2106  19.2812  19.2813  19.2831  19.5223
    19.5224  19.5379  19.5379  19.5836  19.5836  19.5853  19.6455  19.9838
    19.9838  20.0941  20.0941  20.1707  20.1707  20.2434  20.2434  20.2868
    20.2868  20.2999  20.2999  20.3820  20.3966  20.4707  20.4707  20.5557
    20.5607  20.6270  20.6271  20.7812  20.7812  20.7877  20.8431  20.8668
    20.8780  20.9143  20.9143  20.9316  20.9651  20.9807  20.9807  20.9813
    21.1420  21.1420  21.2677  21.2677  21.5001  21.5001  21.6385  21.6385
    21.6950  21.6950  21.8017  21.8017  21.8179  21.8917  21.9124  21.9124
    21.9513  21.9513  22.1273  22.1514  22.2908  22.3121  22.3121  22.3183
    22.3183  22.4445  22.5121  22.6455  22.6455  22.7946  22.8117  22.8117
    23.0964  23.1020  23.1020  23.2311  23.2312  23.2572  23.2572  23.3599
    23.3654  23.3779  23.3779  23.4648  23.4648  23.5684  23.5684  23.5757
    23.5757  23.6292  23.6292  23.8931  23.9204  23.9204  23.9764  24.0687
    24.0687  24.0743  24.0948  24.0948  24.2514  24.3047  24.4791  24.4791
    24.6837  24.8112  24.8112  24.8315  24.8384  24.8384  24.8454  24.8699
    25.0147  25.0147  25.0161  25.0161  25.0570  25.0570  25.0656  25.0656
    25.1650  25.5237  25.6235  25.6235  26.1414  26.1414  27.1999  27.1999
    27.4565  27.5050  27.5050

          k = 0.0556 0.2781 0.3893 ( 30079 PWs)   bands (ev):

   -49.7992 -49.7731 -49.7501 -49.7304 -49.7113 -49.6974 -49.6943 -49.6863
   -49.6828 -49.6790 -49.6740 -49.6692 -49.6638 -49.6557 -49.6506 -49.6474
   -49.6459 -49.6429 -49.6390 -49.6386 -49.6329 -49.6296 -49.6242 -49.6192
   -49.6190 -49.6184 -49.6183 -49.6143 -49.6129 -49.6105 -49.6070 -49.6059
   -20.1728 -20.1700 -20.1212 -20.1017 -20.1006 -20.0981 -20.0963 -20.0960
   -20.0841 -20.0477 -20.0476 -20.0463 -20.0329 -20.0311 -20.0142 -20.0123
   -20.0115 -19.9987 -19.9947 -19.9919 -19.9717 -19.9684 -19.9512 -19.9454
   -19.9389 -19.9087 -19.8781 -19.8769 -19.8466 -19.8219 -19.7779 -19.7682
   -19.7577 -19.7366 -19.7277 -19.7072 -19.7060 -19.7042 -19.6827 -19.6736
   -19.6329 -19.6326 -19.6147 -19.6013 -19.5931 -19.5902 -19.5725 -19.5696
   -19.5595 -19.5556 -19.5527 -19.5425 -19.5379 -19.5366 -19.5229 -19.5166
   -19.5071 -19.5057 -19.5050 -19.5039 -19.4964 -19.4836 -19.4729 -19.4697
   -19.4660 -19.4620 -19.4478 -19.4474 -19.4473 -19.4396 -19.4388 -19.4375
   -19.4249 -19.4148 -19.4125 -19.4065 -19.4026 -19.4016 -19.3998 -19.3992
   -19.3959 -19.3800 -19.3751 -19.3713 -19.3704 -19.3673 -19.3656 -19.3533
   -19.3401 -19.3398 -19.3235 -19.2930 -19.2860 -19.2789 -19.2766 -19.2424
    16.1498  16.8020  17.3583  17.4332  17.4443  17.4835  17.5369  17.6359
    17.8004  17.8323  17.8389  17.8512  17.8640  17.8770  17.8944  17.9043
    17.9422  17.9642  18.0177  18.0310  18.0657  18.0943  18.1449  18.1555
    18.1681  18.2088  18.3522  18.3662  18.3835  18.3865  18.4295  18.4930
    18.5644  18.6644  18.7255  18.7781  18.7927  18.7950  18.8352  18.8361
    18.9328  19.0227  19.0463  19.1273  19.1664  19.2886  19.2950  19.3283
    19.4077  19.4906  19.6128  19.6219  19.6493  19.6642  19.8322  19.8890
    19.9190  19.9402  20.0299  20.1707  20.2471  20.2479  20.3422  20.3569
    20.3810  20.4013  20.4050  20.4889  20.5361  20.5455  20.5495  20.6736
    20.6738  20.7467  20.7646  20.7841  20.7932  20.8151  20.8971  20.9477
    20.9891  20.9960  21.0301  21.0435  21.0569  21.1319  21.1627  21.1691
    21.1698  21.2436  21.2769  21.2984  21.3782  21.4420  21.4947  21.5851
    21.6475  21.6527  21.6865  21.7130  21.7442  21.7693  21.7935  21.8068
    21.9150  21.9276  21.9497  22.0054  22.1238  22.1572  22.1708  22.2286
    22.3349  22.3419  22.5079  22.5321  22.6573  22.6935  22.7798  22.8560
    23.0042  23.0329  23.0434  23.0935  23.1655  23.2540  23.3168  23.3254
    23.4071  23.4435  23.4915  23.5961  23.6058  23.6212  23.6930  23.7557
    23.8055  23.8066  23.9636  23.9651  23.9664  24.0135  24.1939  24.2397
    24.2587  24.2748  24.3141  24.3205  24.3348  24.3416  24.3435  24.3845
    24.4573  24.6077  24.6760  24.6939  24.6948  24.7070  24.7260  24.7308
    24.7382  24.8060  25.0108  25.0218  25.0272  25.0408  25.0934  25.1327
    25.4590  25.5793  25.5986  25.6172  25.6635  25.9863  26.8602  26.8767
    27.6374  27.8142  28.1265

          k = 0.0556 0.2781-0.5005 ( 30102 PWs)   bands (ev):

   -49.7874 -49.7872 -49.7412 -49.7410 -49.7050 -49.7048 -49.6892 -49.6890
   -49.6830 -49.6828 -49.6719 -49.6717 -49.6602 -49.6600 -49.6451 -49.6449
   -49.6423 -49.6421 -49.6363 -49.6361 -49.6281 -49.6279 -49.6256 -49.6254
   -49.6236 -49.6234 -49.6142 -49.6140 -49.6138 -49.6136 -49.6065 -49.6063
   -20.1416 -20.1415 -20.1368 -20.1368 -20.0781 -20.0780 -20.0746 -20.0744
   -20.0698 -20.0696 -20.0491 -20.0490 -20.0425 -20.0423 -20.0348 -20.0348
   -20.0325 -20.0324 -20.0064 -20.0063 -19.9576 -19.9574 -19.9499 -19.9498
   -19.9150 -19.9149 -19.8717 -19.8717 -19.8656 -19.8655 -19.7408 -19.7408
   -19.7384 -19.7384 -19.7199 -19.7198 -19.7029 -19.7027 -19.6841 -19.6840
   -19.6657 -19.6655 -19.5714 -19.5713 -19.5685 -19.5683 -19.5663 -19.5661
   -19.5566 -19.5566 -19.5547 -19.5546 -19.5419 -19.5418 -19.5327 -19.5325
   -19.5034 -19.5033 -19.4946 -19.4945 -19.4783 -19.4782 -19.4768 -19.4767
   -19.4592 -19.4590 -19.4529 -19.4529 -19.4493 -19.4492 -19.4367 -19.4366
   -19.4232 -19.4230 -19.4082 -19.4081 -19.4068 -19.4066 -19.4064 -19.4063
   -19.3959 -19.3957 -19.3842 -19.3841 -19.3700 -19.3699 -19.3509 -19.3509
   -19.3461 -19.3460 -19.2981 -19.2979 -19.2859 -19.2859 -19.2574 -19.2573
    16.4508  16.4510  17.5819  17.5821  17.6170  17.6172  17.6224  17.6225
    17.6915  17.6915  17.7099  17.7101  17.8031  17.8031  17.9729  17.9731
    17.9990  17.9991  18.0878  18.0878  18.1074  18.1074  18.1401  18.1402
    18.1459  18.1459  18.2612  18.2612  18.2803  18.2804  18.3946  18.3948
    18.5857  18.5859  18.6897  18.6898  18.7999  18.7999  18.9259  18.9261
    18.9306  18.9307  19.0720  19.0721  19.1780  19.1782  19.2093  19.2094
    19.5766  19.5766  19.6532  19.6533  19.7466  19.7466  19.7527  19.7529
    19.7875  19.7876  20.0580  20.0581  20.3055  20.3056  20.4161  20.4162
    20.4406  20.4406  20.5254  20.5255  20.5460  20.5461  20.5827  20.5828
    20.6688  20.6689  20.8218  20.8218  20.9324  20.9325  21.0262  21.0262
    21.0303  21.0303  21.1049  21.1049  21.1437  21.1438  21.1602  21.1604
    21.3302  21.3303  21.3647  21.3647  21.3841  21.3841  21.3865  21.3866
    21.5688  21.5688  21.5745  21.5745  21.6726  21.6728  21.6806  21.6807
    21.8933  21.8934  22.1195  22.1195  22.2673  22.2674  22.2927  22.2927
    22.3290  22.3292  22.3705  22.3706  22.4812  22.4814  22.6718  22.6720
    22.8655  22.8657  23.1832  23.1833  23.2221  23.2223  23.2865  23.2867
    23.4295  23.4297  23.6839  23.6841  23.7239  23.7241  23.8406  23.8408
    23.9360  23.9361  24.0094  24.0095  24.0926  24.0926  24.0933  24.0934
    24.3477  24.3477  24.3482  24.3484  24.4541  24.4542  24.5212  24.5213
    24.5216  24.5217  24.5425  24.5426  24.5628  24.5629  24.5647  24.5647
    24.6677  24.6677  25.0295  25.0297  25.0509  25.0510  25.0976  25.0977
    25.2492  25.2494  25.7933  25.7935  26.1943  26.1945  26.2748  26.2748
    28.0009  28.0011  28.3296

          k = 0.0556 0.3893 0.3893 ( 30083 PWs)   bands (ev):

   -49.7904 -49.7654 -49.7654 -49.7438 -49.7068 -49.6940 -49.6940 -49.6907
   -49.6847 -49.6804 -49.6803 -49.6734 -49.6484 -49.6484 -49.6424 -49.6424
   -49.6418 -49.6418 -49.6353 -49.6352 -49.6328 -49.6328 -49.6233 -49.6233
   -49.6228 -49.6227 -49.6206 -49.6206 -49.6148 -49.6090 -49.6090 -49.6067
   -20.1531 -20.1531 -20.0904 -20.0904 -20.0884 -20.0884 -20.0840 -20.0772
   -20.0717 -20.0717 -20.0541 -20.0451 -20.0451 -20.0355 -20.0355 -20.0112
   -20.0112 -19.9972 -19.9972 -19.9957 -19.9956 -19.9948 -19.9948 -19.9571
   -19.9571 -19.9552 -19.9161 -19.8711 -19.8654 -19.8121 -19.8121 -19.7403
   -19.7198 -19.7198 -19.6852 -19.6852 -19.6794 -19.6479 -19.6479 -19.6330
   -19.6330 -19.6318 -19.6318 -19.6153 -19.6153 -19.5670 -19.5670 -19.5664
   -19.5664 -19.5523 -19.5523 -19.5448 -19.5433 -19.5433 -19.5399 -19.5399
   -19.5266 -19.5266 -19.4959 -19.4959 -19.4877 -19.4877 -19.4841 -19.4752
   -19.4752 -19.4509 -19.4509 -19.4468 -19.4393 -19.4393 -19.4393 -19.4393
   -19.4215 -19.4165 -19.4165 -19.4151 -19.4151 -19.4083 -19.4005 -19.3933
   -19.3877 -19.3820 -19.3780 -19.3761 -19.3761 -19.3692 -19.3644 -19.3466
   -19.3466 -19.3418 -19.3418 -19.2937 -19.2728 -19.2697 -19.2697 -19.2437
    16.3744  16.9957  16.9957  17.5275  17.5501  17.6058  17.6288  17.6288
    17.7173  17.8747  17.8747  17.9016  17.9231  17.9231  17.9910  17.9910
    18.0058  18.0058  18.0060  18.0060  18.0433  18.0513  18.0513  18.1198
    18.1198  18.1889  18.2375  18.3035  18.3035  18.5035  18.5035  18.5039
    18.5039  18.5126  18.5126  18.5128  18.5128  18.7546  18.7546  18.7647
    18.7647  18.8208  18.8208  19.0715  19.0715  19.2040  19.4084  19.4084
    19.4133  19.4133  19.5841  19.7412  19.7412  19.7595  19.7751  19.8372
    19.8372  20.1636  20.1762  20.1762  20.3385  20.4442  20.4442  20.5537
    20.5718  20.5718  20.5790  20.5790  20.5840  20.5840  20.6200  20.6200
    20.6947  20.7399  20.9058  20.9058  21.0003  21.0003  21.0118  21.0627
    21.0639  21.0793  21.0878  21.1271  21.1782  21.1782  21.2131  21.2131
    21.3539  21.3540  21.3699  21.3699  21.3757  21.4013  21.4013  21.4559
    21.5269  21.5270  21.5614  21.5614  21.5796  21.5916  21.6353  21.6353
    21.6586  21.6587  21.7959  21.8665  21.8665  21.8977  21.8977  22.1773
    22.3286  22.3286  22.3436  22.3436  22.4326  22.4326  22.4958  22.5813
    22.8948  23.2246  23.2731  23.2732  23.2967  23.2967  23.5644  23.5644
    23.5749  23.5749  23.6747  23.6748  23.7352  23.7352  23.8051  23.8439
    23.9895  23.9895  24.0966  24.1236  24.1236  24.1410  24.1410  24.1504
    24.1504  24.2374  24.3461  24.4452  24.4815  24.5035  24.5035  24.5064
    24.5064  24.5512  24.6141  24.6707  24.6707  24.7179  24.7179  24.7327
    24.7327  24.7587  24.7630  24.7630  24.7801  24.7801  24.9518  24.9792
    24.9793  25.3108  25.4773  25.4773  26.2432  26.2432  27.5293  27.5293
    27.5951  27.5951  28.3124

          k = 0.0556 0.3893-0.5005 ( 30116 PWs)   bands (ev):

   -49.7791 -49.7789 -49.7557 -49.7555 -49.7010 -49.7009 -49.6899 -49.6897
   -49.6861 -49.6859 -49.6773 -49.6771 -49.6457 -49.6455 -49.6383 -49.6382
   -49.6370 -49.6369 -49.6348 -49.6346 -49.6306 -49.6304 -49.6286 -49.6284
   -49.6274 -49.6273 -49.6221 -49.6219 -49.6118 -49.6116 -49.6079 -49.6077
   -20.1263 -20.1262 -20.1245 -20.1244 -20.0711 -20.0711 -20.0710 -20.0710
   -20.0555 -20.0553 -20.0471 -20.0469 -20.0413 -20.0412 -20.0372 -20.0371
   -20.0195 -20.0194 -20.0069 -20.0068 -19.9970 -19.9968 -19.9843 -19.9841
   -19.9565 -19.9564 -19.9118 -19.9117 -19.8446 -19.8446 -19.7761 -19.7761
   -19.6829 -19.6828 -19.6741 -19.6740 -19.6613 -19.6612 -19.6474 -19.6472
   -19.6222 -19.6222 -19.5969 -19.5967 -19.5930 -19.5928 -19.5911 -19.5911
   -19.5831 -19.5831 -19.5483 -19.5481 -19.5338 -19.5338 -19.5265 -19.5263
   -19.5113 -19.5111 -19.5045 -19.5045 -19.5033 -19.5033 -19.4856 -19.4855
   -19.4651 -19.4650 -19.4644 -19.4643 -19.4323 -19.4321 -19.4287 -19.4285
   -19.4285 -19.4284 -19.4207 -19.4207 -19.3967 -19.3965 -19.3924 -19.3923
   -19.3886 -19.3885 -19.3833 -19.3831 -19.3655 -19.3653 -19.3604 -19.3603
   -19.3556 -19.3554 -19.3157 -19.3156 -19.2674 -19.2674 -19.2530 -19.2530
    16.6608  16.6610  17.2412  17.2414  17.7141  17.7142  17.7192  17.7193
    17.8046  17.8048  17.8410  17.8410  17.8593  17.8595  17.8776  17.8776
    18.0138  18.0138  18.0346  18.0347  18.1397  18.1399  18.2300  18.2301
    18.2341  18.2343  18.2641  18.2641  18.2685  18.2685  18.3083  18.3084
    18.4849  18.4850  18.5119  18.5120  18.6236  18.6238  18.6622  18.6623
    18.6849  18.6849  18.9752  18.9753  19.2017  19.2019  19.2159  19.2161
    19.5572  19.5573  19.5680  19.5682  19.8168  19.8168  19.9004  19.9005
    20.0230  20.0231  20.1040  20.1040  20.2942  20.2944  20.5480  20.5482
    20.6027  20.6027  20.6567  20.6568  20.7490  20.7490  20.8006  20.8006
    20.9112  20.9114  20.9321  20.9321  20.9594  20.9595  21.1197  21.1197
    21.1249  21.1250  21.1480  21.1481  21.1718  21.1718  21.2033  21.2033
    21.2651  21.2651  21.3078  21.3078  21.3219  21.3219  21.3491  21.3492
    21.4572  21.4573  21.4643  21.4643  21.6103  21.6103  21.6346  21.6346
    21.6413  21.6414  21.8028  21.8028  22.0489  22.0491  22.0515  22.0516
    22.0988  22.0989  22.1184  22.1185  22.2708  22.2710  22.4523  22.4525
    23.0976  23.0978  23.3651  23.3652  23.4781  23.4782  23.5226  23.5228
    23.5517  23.5518  23.7901  23.7902  23.8653  23.8655  23.8856  23.8858
    23.9620  23.9621  24.0445  24.0447  24.1596  24.1596  24.3002  24.3004
    24.3655  24.3656  24.4565  24.4566  24.5246  24.5246  24.5267  24.5268
    24.5446  24.5446  24.6115  24.6116  24.6145  24.6146  24.6499  24.6500
    24.6545  24.6545  24.7350  24.7352  24.7894  24.7896  24.8483  24.8484
    24.9662  24.9662  25.3273  25.3274  26.8978  26.8979  26.8992  26.8994
    28.2458  28.2459  28.3153

          k = 0.0556-0.5005-0.5005 ( 30096 PWs)   bands (ev):

   -49.7685 -49.7683 -49.7683 -49.7681 -49.6960 -49.6958 -49.6958 -49.6956
   -49.6821 -49.6819 -49.6819 -49.6817 -49.6330 -49.6330 -49.6329 -49.6328
   -49.6328 -49.6328 -49.6327 -49.6326 -49.6325 -49.6325 -49.6323 -49.6323
   -49.6323 -49.6323 -49.6321 -49.6321 -49.6097 -49.6095 -49.6095 -49.6094
   -20.1023 -20.1023 -20.1023 -20.1023 -20.1022 -20.1022 -20.1022 -20.1022
   -20.0297 -20.0297 -20.0296 -20.0296 -20.0296 -20.0296 -20.0294 -20.0294
   -20.0182 -20.0180 -20.0180 -20.0178 -19.9999 -19.9998 -19.9998 -19.9997
   -19.9602 -19.9601 -19.9601 -19.9600 -19.8114 -19.8114 -19.8114 -19.8114
   -19.6305 -19.6305 -19.6305 -19.6305 -19.6304 -19.6304 -19.6304 -19.6304
   -19.6243 -19.6243 -19.6242 -19.6241 -19.6241 -19.6241 -19.6240 -19.6240
   -19.5617 -19.5617 -19.5617 -19.5617 -19.5193 -19.5193 -19.5191 -19.5191
   -19.5191 -19.5191 -19.5190 -19.5190 -19.5164 -19.5164 -19.5164 -19.5164
   -19.4483 -19.4483 -19.4481 -19.4481 -19.4481 -19.4481 -19.4480 -19.4480
   -19.4123 -19.4122 -19.4122 -19.4122 -19.3981 -19.3981 -19.3981 -19.3981
   -19.3754 -19.3754 -19.3754 -19.3754 -19.3708 -19.3707 -19.3707 -19.3706
   -19.3385 -19.3384 -19.3383 -19.3382 -19.2563 -19.2563 -19.2563 -19.2563
    16.9282  16.9284  16.9284  16.9286  17.7821  17.7822  17.7822  17.7822
    17.8512  17.8513  17.8513  17.8514  17.9114  17.9114  17.9114  17.9114
    18.0398  18.0399  18.0400  18.0400  18.0401  18.0401  18.0402  18.0402
    18.3583  18.3583  18.3584  18.3585  18.3585  18.3585  18.3586  18.3586
    18.4617  18.4618  18.4618  18.4618  18.4618  18.4618  18.4618  18.4618
    18.7238  18.7238  18.7238  18.7239  19.3685  19.3685  19.3687  19.3687
    19.3687  19.3687  19.3688  19.3688  19.9433  19.9434  19.9434  19.9434
    20.1752  20.1753  20.1754  20.1755  20.4564  20.4565  20.4566  20.4567
    20.6809  20.6809  20.6809  20.6809  20.6929  20.6929  20.6929  20.6930
    21.0455  21.0455  21.0455  21.0456  21.0456  21.0456  21.0456  21.0456
    21.1505  21.1506  21.1506  21.1507  21.2877  21.2878  21.2878  21.2879
    21.3027  21.3027  21.3027  21.3027  21.4442  21.4443  21.4443  21.4444
    21.4593  21.4593  21.4593  21.4593  21.4594  21.4594  21.4594  21.4595
    21.7307  21.7308  21.7308  21.7309  21.8572  21.8572  21.8572  21.8572
    21.8573  21.8573  21.8573  21.8573  22.3611  22.3613  22.3613  22.3614
    23.3368  23.3369  23.3370  23.3371  23.5397  23.5398  23.5398  23.5399
    23.7501  23.7501  23.7502  23.7502  23.7502  23.7502  23.7503  23.7504
    24.2712  24.2713  24.2713  24.2713  24.3982  24.3982  24.3983  24.3983
    24.3984  24.3984  24.3985  24.3985  24.3998  24.3998  24.3999  24.4000
    24.6357  24.6357  24.6357  24.6358  24.6644  24.6644  24.6644  24.6645
    24.6645  24.6645  24.6645  24.6645  24.6753  24.6753  24.6753  24.6753
    24.9321  24.9322  24.9322  24.9323  27.5876  27.5876  27.5876  27.5877
    27.5877  27.5877  27.5878

          k = 0.1668 0.1668 0.1668 ( 30109 PWs)   bands (ev):

   -49.8181 -49.7418 -49.7418 -49.7418 -49.6927 -49.6927 -49.6927 -49.6856
   -49.6856 -49.6856 -49.6716 -49.6570 -49.6570 -49.6569 -49.6569 -49.6569
   -49.6569 -49.6564 -49.6564 -49.6563 -49.6362 -49.6362 -49.6362 -49.6087
   -49.6086 -49.6086 -49.6081 -49.6081 -49.6081 -49.6081 -49.6081 -49.6080
   -20.2120 -20.2120 -20.2120 -20.1755 -20.1458 -20.1458 -20.1458 -20.0102
   -20.0102 -20.0102 -19.9914 -19.9914 -19.9914 -19.9914 -19.9914 -19.9913
   -19.9709 -19.9709 -19.9709 -19.9709 -19.9709 -19.9709 -19.9045 -19.9045
   -19.9044 -19.8637 -19.8637 -19.8637 -19.8156 -19.8156 -19.8156 -19.8156
   -19.8156 -19.8156 -19.7321 -19.7321 -19.7320 -19.6431 -19.6431 -19.6431
   -19.6203 -19.6203 -19.6203 -19.6203 -19.6203 -19.6203 -19.6171 -19.6171
   -19.6171 -19.5782 -19.5782 -19.5782 -19.5728 -19.5728 -19.5728 -19.5728
   -19.5728 -19.5728 -19.5081 -19.5081 -19.5081 -19.4645 -19.4645 -19.4645
   -19.4538 -19.4538 -19.4538 -19.4126 -19.4126 -19.4126 -19.4051 -19.4051
   -19.4051 -19.3885 -19.3885 -19.3885 -19.3885 -19.3885 -19.3885 -19.3780
   -19.3780 -19.3780 -19.3618 -19.3618 -19.3618 -19.3556 -19.3556 -19.3556
   -19.3533 -19.3533 -19.3200 -19.3200 -19.3200 -19.2962 -19.2347 -19.2347
    15.6673  17.1331  17.1331  17.1331  17.3058  17.4615  17.4615  17.4615
    17.4789  17.4789  17.4790  17.5958  17.5958  17.5958  17.9735  17.9735
    17.9735  18.3433  18.3433  18.3433  18.3433  18.3433  18.3433  18.3823
    18.3823  18.3823  18.5397  18.5397  18.5397  18.7693  18.7693  18.7694
    18.8010  18.8010  18.8010  18.8011  18.8011  18.8011  19.1359  19.1359
    19.1359  19.1360  19.1360  19.1360  19.3117  19.3117  19.3117  19.6517
    19.6517  19.6517  19.7982  19.7982  19.7982  19.7982  19.7982  19.7982
    19.9474  19.9474  19.9474  20.0292  20.0292  20.0292  20.0292  20.0292
    20.0292  20.3257  20.3257  20.3257  20.5158  20.5158  20.5158  20.5280
    20.5478  20.5478  20.5478  20.5478  20.5478  20.5478  20.5753  20.5753
    20.5753  20.6357  20.6357  20.7730  20.7730  20.7730  20.7917  20.7917
    21.3215  21.3215  21.3215  21.6058  21.6058  21.6058  21.6715  21.6715
    21.6716  21.8500  21.8501  21.8501  22.0476  22.0476  22.0476  22.1029
    22.1029  22.1029  22.1029  22.1029  22.1029  22.5182  22.5182  22.5182
    22.6837  22.6838  22.6838  22.8055  22.8055  22.8055  22.8382  22.8382
    22.8382  22.9047  22.9047  22.9048  22.9048  22.9048  22.9048  22.9945
    22.9945  23.3044  23.4797  23.4797  23.4797  23.4797  23.4797  23.4797
    23.7394  23.7394  23.7394  23.7509  23.7509  23.7509  23.8452  23.8452
    23.8452  24.1505  24.1505  24.1505  24.3252  24.3252  24.3252  24.5271
    24.5271  24.5271  24.6121  24.6121  24.9142  24.9142  24.9142  25.1406
    25.1406  25.1406  25.1406  25.1406  25.1406  25.2561  25.2561  25.2561
    25.7418  25.7418  25.7418  26.2250  26.2250  26.2250  27.3485  27.3485
    27.3485  27.3485  27.3485

          k = 0.1668 0.1668 0.2781 ( 30086 PWs)   bands (ev):

   -49.8116 -49.7595 -49.7376 -49.7376 -49.7041 -49.7040 -49.6909 -49.6832
   -49.6832 -49.6764 -49.6678 -49.6635 -49.6635 -49.6569 -49.6568 -49.6565
   -49.6564 -49.6517 -49.6456 -49.6456 -49.6378 -49.6296 -49.6296 -49.6151
   -49.6122 -49.6122 -49.6105 -49.6105 -49.6086 -49.6085 -49.6082 -49.6081
   -20.2014 -20.1908 -20.1908 -20.1422 -20.1308 -20.1308 -20.1227 -20.0590
   -20.0323 -20.0323 -20.0100 -20.0100 -20.0054 -20.0054 -20.0051 -20.0051
   -19.9865 -19.9865 -19.9741 -19.9741 -19.9721 -19.9721 -19.9486 -19.9308
   -19.8815 -19.8815 -19.8629 -19.8629 -19.8232 -19.8232 -19.7904 -19.7904
   -19.7751 -19.7751 -19.7650 -19.7650 -19.6787 -19.6787 -19.6725 -19.6575
   -19.6575 -19.6391 -19.6391 -19.6041 -19.5839 -19.5838 -19.5790 -19.5790
   -19.5736 -19.5736 -19.5720 -19.5720 -19.5699 -19.5678 -19.5526 -19.5526
   -19.5471 -19.5471 -19.4996 -19.4827 -19.4752 -19.4752 -19.4735 -19.4734
   -19.4734 -19.4443 -19.4440 -19.4440 -19.4324 -19.4324 -19.4219 -19.4219
   -19.4213 -19.4213 -19.4096 -19.3923 -19.3923 -19.3882 -19.3882 -19.3859
   -19.3831 -19.3831 -19.3719 -19.3719 -19.3591 -19.3455 -19.3416 -19.3416
   -19.3329 -19.3326 -19.3228 -19.3223 -19.3107 -19.3107 -19.2455 -19.2383
    15.8316  17.1112  17.2322  17.2465  17.2465  17.3611  17.5654  17.5654
    17.5742  17.5743  17.6140  17.6702  17.7261  17.7261  17.8783  18.0638
    18.0638  18.1020  18.1184  18.1184  18.2151  18.2151  18.3109  18.3969
    18.3970  18.4552  18.4553  18.4675  18.4675  18.5570  18.6638  18.6638
    18.6717  18.6718  18.6891  18.6891  18.7793  18.7793  18.8903  18.8903
    19.1472  19.1472  19.1699  19.1699  19.3843  19.3843  19.5172  19.5172
    19.5737  19.5737  19.5785  19.6303  19.6668  19.6668  19.8610  19.8610
    19.8655  19.8655  20.0364  20.0365  20.0520  20.0520  20.1643  20.2485
    20.2485  20.3483  20.4334  20.4335  20.4344  20.4810  20.4810  20.5514
    20.5514  20.5625  20.5625  20.6627  20.6756  20.6814  20.6815  20.6867
    20.8584  20.8726  20.8851  20.8851  20.8942  20.9115  21.0950  21.0950
    21.1527  21.1528  21.3458  21.3458  21.3482  21.3549  21.5836  21.6173
    21.6173  21.7892  21.7892  21.8076  21.8196  21.8196  22.0774  22.2112
    22.2112  22.2478  22.2479  22.3234  22.3508  22.3508  22.4385  22.4385
    22.4658  22.5994  22.5994  22.6757  22.6758  22.6967  22.6967  22.8129
    22.8388  22.8388  22.8662  22.9035  22.9035  23.0336  23.0554  23.1534
    23.1734  23.1734  23.5299  23.5299  23.5620  23.5891  23.5891  23.8142
    23.8142  23.8190  23.8190  23.8269  23.8269  23.8751  23.9626  23.9626
    23.9903  23.9903  24.0043  24.3511  24.3511  24.3591  24.3698  24.4425
    24.5210  24.6153  24.6153  24.7391  24.8543  24.8797  24.8797  24.9549
    24.9549  24.9569  24.9569  25.1464  25.1464  25.1617  25.2280  25.2280
    25.2607  25.2607  25.6266  26.4122  26.4122  26.8083  26.8083  26.9559
    27.1748  27.2529  27.2529

          k = 0.1668 0.1668 0.3893 ( 30094 PWs)   bands (ev):

   -49.8023 -49.7758 -49.7316 -49.7316 -49.7145 -49.7145 -49.6883 -49.6809
   -49.6796 -49.6796 -49.6696 -49.6696 -49.6569 -49.6568 -49.6566 -49.6565
   -49.6513 -49.6473 -49.6403 -49.6352 -49.6352 -49.6246 -49.6237 -49.6236
   -49.6182 -49.6182 -49.6139 -49.6139 -49.6086 -49.6084 -49.6082 -49.6081
   -20.1796 -20.1602 -20.1602 -20.1089 -20.1089 -20.1064 -20.1003 -20.0888
   -20.0779 -20.0779 -20.0473 -20.0473 -20.0108 -20.0108 -20.0001 -20.0001
   -20.0001 -19.9966 -19.9966 -19.9916 -19.9771 -19.9771 -19.9528 -19.9528
   -19.9042 -19.9042 -19.8236 -19.8236 -19.8175 -19.8175 -19.7929 -19.7929
   -19.7606 -19.7606 -19.7354 -19.7354 -19.7225 -19.7225 -19.6936 -19.6936
   -19.6664 -19.6664 -19.6095 -19.5852 -19.5714 -19.5713 -19.5711 -19.5711
   -19.5525 -19.5501 -19.5501 -19.5330 -19.5330 -19.5321 -19.5247 -19.5247
   -19.5169 -19.5169 -19.5094 -19.5002 -19.4947 -19.4947 -19.4927 -19.4573
   -19.4573 -19.4565 -19.4565 -19.4508 -19.4508 -19.4416 -19.4416 -19.4361
   -19.4292 -19.4292 -19.4052 -19.4012 -19.4012 -19.3933 -19.3901 -19.3901
   -19.3877 -19.3877 -19.3857 -19.3857 -19.3801 -19.3759 -19.3384 -19.3269
   -19.3259 -19.3259 -19.3089 -19.3089 -19.3055 -19.2927 -19.2612 -19.2496
    16.0710  16.7307  17.3722  17.4116  17.4116  17.4709  17.7073  17.7074
    17.7195  17.7198  17.7198  17.7808  17.8101  17.8463  17.8646  17.8646
    17.9168  17.9168  18.0404  18.0404  18.1044  18.1735  18.1735  18.1899
    18.1900  18.2994  18.4524  18.4524  18.4645  18.4645  18.5092  18.5093
    18.6113  18.6113  18.6131  18.6131  18.8482  18.8482  18.9070  18.9070
    19.1610  19.1610  19.2342  19.2342  19.2877  19.2878  19.3688  19.3688
    19.4559  19.4559  19.4878  19.4878  19.7051  19.7470  19.7470  19.8358
    19.9471  19.9471  19.9951  20.0849  20.0849  20.1520  20.1520  20.2771
    20.2999  20.2999  20.3090  20.3090  20.5521  20.5717  20.5717  20.5756
    20.5756  20.6552  20.7588  20.7588  20.7857  20.9354  20.9354  20.9789
    20.9812  20.9812  20.9884  20.9885  20.9934  21.0380  21.0380  21.0490
    21.0915  21.1201  21.2840  21.2881  21.3504  21.5513  21.5646  21.5646
    21.6647  21.6647  21.6870  21.6870  21.7466  21.7466  21.9829  21.9829
    22.0792  22.2068  22.3390  22.3822  22.3822  22.4017  22.4017  22.5544
    22.5772  22.5772  22.5835  22.5835  22.6226  22.6227  22.6911  22.7316
    22.7316  22.7532  22.7532  22.8603  22.8603  22.9539  22.9539  23.1449
    23.3934  23.4012  23.4952  23.4981  23.4981  23.4988  23.6360  23.6360
    23.9078  23.9078  24.0461  24.0461  24.0762  24.1196  24.1196  24.1201
    24.1370  24.1370  24.1615  24.1615  24.2064  24.2064  24.2729  24.7079
    24.7156  24.7156  24.7187  24.7199  24.7199  24.7239  24.7239  24.8047
    24.8048  24.9882  25.0339  25.1001  25.1294  25.1294  25.1565  25.1565
    25.1970  25.1970  25.4571  26.2526  26.2527  26.5102  26.6578  26.6578
    27.1036  27.1036  27.6313

          k = 0.1668 0.1668-0.5005 ( 30042 PWs)   bands (ev):

   -49.7903 -49.7901 -49.7239 -49.7239 -49.7237 -49.7237 -49.6850 -49.6848
   -49.6751 -49.6751 -49.6750 -49.6749 -49.6568 -49.6566 -49.6566 -49.6565
   -49.6436 -49.6434 -49.6369 -49.6367 -49.6260 -49.6260 -49.6259 -49.6258
   -49.6184 -49.6184 -49.6183 -49.6182 -49.6085 -49.6083 -49.6083 -49.6081
   -20.1475 -20.1474 -20.1219 -20.1218 -20.1217 -20.1216 -20.0808 -20.0808
   -20.0806 -20.0806 -20.0520 -20.0519 -20.0448 -20.0446 -20.0089 -20.0088
   -20.0088 -20.0088 -19.9861 -19.9861 -19.9861 -19.9861 -19.9288 -19.9288
   -19.9287 -19.9287 -19.8133 -19.8133 -19.8132 -19.8132 -19.7699 -19.7699
   -19.7698 -19.7698 -19.7282 -19.7281 -19.7280 -19.7280 -19.6988 -19.6988
   -19.6987 -19.6987 -19.5708 -19.5707 -19.5707 -19.5706 -19.5610 -19.5609
   -19.5486 -19.5485 -19.5329 -19.5327 -19.5200 -19.5200 -19.5199 -19.5198
   -19.4918 -19.4918 -19.4917 -19.4917 -19.4890 -19.4889 -19.4888 -19.4888
   -19.4861 -19.4861 -19.4860 -19.4860 -19.4365 -19.4364 -19.4142 -19.4142
   -19.4141 -19.4140 -19.4136 -19.4136 -19.4134 -19.4134 -19.4024 -19.4023
   -19.3999 -19.3997 -19.3871 -19.3869 -19.3869 -19.3868 -19.3322 -19.3320
   -19.3143 -19.3143 -19.3142 -19.3142 -19.2815 -19.2813 -19.2681 -19.2680
    16.3757  16.3759  17.5409  17.5411  17.6215  17.6216  17.6216  17.6217
    17.6336  17.6336  17.8670  17.8670  17.8672  17.8672  17.9232  17.9232
    17.9234  17.9234  17.9262  17.9264  18.0426  18.0427  18.1617  18.1617
    18.1619  18.1619  18.3425  18.3425  18.3426  18.3426  18.5370  18.5370
    18.5370  18.5370  18.7915  18.7915  18.7916  18.7917  19.0872  19.0872
    19.0873  19.0873  19.1864  19.1864  19.1865  19.1865  19.3331  19.3331
    19.3331  19.3331  19.6136  19.6136  19.6137  19.6137  19.8354  19.8355
    20.0476  20.0477  20.0478  20.0478  20.0727  20.0729  20.1760  20.1760
    20.1761  20.1761  20.5799  20.5799  20.5800  20.5801  20.6194  20.6196
    20.6269  20.6270  20.6270  20.6270  20.8555  20.8555  20.8555  20.8555
    20.9311  20.9311  21.1334  21.1335  21.1530  21.1531  21.1847  21.1847
    21.1848  21.1848  21.3076  21.3077  21.5562  21.5563  21.5563  21.5564
    21.6032  21.6033  21.6851  21.6852  21.7079  21.7079  21.7080  21.7080
    22.3114  22.3114  22.3114  22.3114  22.4919  22.4919  22.4920  22.4921
    22.4965  22.4967  22.5826  22.5826  22.5827  22.5827  22.7014  22.7014
    22.7016  22.7016  22.7526  22.7526  22.7527  22.7527  23.0425  23.0427
    23.2610  23.2612  23.7458  23.7459  23.7730  23.7730  23.7731  23.7731
    23.8268  23.8269  23.8269  23.8269  23.8270  23.8271  24.3887  24.3887
    24.3888  24.3888  24.4386  24.4386  24.4387  24.4388  24.4640  24.4640
    24.4641  24.4641  24.4730  24.4730  24.4731  24.4731  24.5191  24.5192
    24.8806  24.8806  25.1727  25.1728  25.1728  25.1730  25.2395  25.2396
    25.6882  25.6882  25.6882  25.6882  25.8002  25.8004  26.9007  26.9007
    26.9009  26.9009  28.1886

          k = 0.1668 0.2781 0.2781 ( 30093 PWs)   bands (ev):

   -49.8054 -49.7548 -49.7548 -49.7337 -49.7169 -49.7017 -49.7017 -49.6828
   -49.6809 -49.6659 -49.6659 -49.6629 -49.6629 -49.6581 -49.6507 -49.6507
   -49.6502 -49.6502 -49.6461 -49.6461 -49.6319 -49.6319 -49.6246 -49.6149
   -49.6148 -49.6143 -49.6143 -49.6129 -49.6128 -49.6100 -49.6100 -49.6086
   -20.1846 -20.1846 -20.1675 -20.1164 -20.1108 -20.1108 -20.1057 -20.0551
   -20.0551 -20.0432 -20.0432 -20.0159 -20.0159 -20.0114 -20.0114 -20.0036
   -20.0036 -19.9995 -19.9995 -19.9995 -19.9967 -19.9967 -19.9417 -19.9417
   -19.9067 -19.9067 -19.9025 -19.8145 -19.7944 -19.7944 -19.7929 -19.7824
   -19.7824 -19.7529 -19.7529 -19.7160 -19.7017 -19.7017 -19.6653 -19.6245
   -19.6245 -19.6210 -19.6210 -19.6172 -19.6171 -19.6093 -19.6093 -19.5630
   -19.5630 -19.5626 -19.5544 -19.5544 -19.5493 -19.5493 -19.5463 -19.5463
   -19.5318 -19.5318 -19.5111 -19.5111 -19.4751 -19.4751 -19.4696 -19.4636
   -19.4636 -19.4470 -19.4457 -19.4425 -19.4425 -19.4395 -19.4284 -19.4284
   -19.4275 -19.4275 -19.4261 -19.4191 -19.4191 -19.3953 -19.3953 -19.3932
   -19.3932 -19.3913 -19.3723 -19.3592 -19.3509 -19.3470 -19.3435 -19.3414
   -19.3414 -19.3145 -19.3145 -19.3100 -19.3100 -19.2960 -19.2536 -19.2400
    15.9893  17.2184  17.2184  17.3392  17.3446  17.3446  17.3910  17.6246
    17.6414  17.7220  17.7220  17.7996  17.7996  17.8676  17.9730  17.9730
    17.9881  17.9881  17.9964  18.0855  18.1496  18.1496  18.2220  18.2220
    18.3861  18.3862  18.4406  18.4406  18.4917  18.4917  18.5253  18.5551
    18.5551  18.5821  18.5821  18.6952  18.6952  18.8241  18.8241  18.8391
    18.8865  18.8865  19.1518  19.1518  19.4135  19.4135  19.5023  19.5215
    19.5222  19.5222  19.5912  19.5912  19.6300  19.6301  19.8605  19.8624
    19.8624  20.0608  20.0608  20.1198  20.1198  20.2037  20.2693  20.2693
    20.3209  20.3209  20.3754  20.4411  20.4411  20.5109  20.5109  20.6866
    20.6871  20.7136  20.7136  20.7557  20.8520  20.8568  20.8568  20.9037
    20.9217  20.9217  20.9323  20.9911  21.0405  21.0405  21.0555  21.0656
    21.0656  21.1535  21.2297  21.2297  21.3630  21.3630  21.5428  21.5470
    21.5470  21.6593  21.6890  21.6890  21.9288  21.9288  21.9740  21.9740
    22.0572  22.0572  22.0768  22.1403  22.1403  22.3572  22.4345  22.4417
    22.4579  22.4745  22.4745  22.5191  22.5191  22.7802  22.7802  22.8394
    22.9476  22.9613  22.9613  23.0079  23.0079  23.0374  23.0745  23.0746
    23.1680  23.1680  23.2291  23.3184  23.3184  23.6133  23.6133  23.8420
    23.8784  23.8784  23.9159  23.9159  24.1166  24.1166  24.1209  24.1306
    24.1904  24.1904  24.1928  24.1929  24.3503  24.4027  24.4027  24.4577
    24.5109  24.5244  24.8167  24.8575  24.8575  24.8804  24.8804  24.9339
    24.9724  24.9724  24.9744  24.9744  25.0523  25.0523  25.1494  25.1494
    25.1513  25.1513  25.1728  26.3267  26.7237  26.7237  27.1890  27.1890
    27.4336  27.4336  27.7957

          k = 0.1668 0.2781 0.3893 ( 30063 PWs)   bands (ev):

   -49.7963 -49.7706 -49.7480 -49.7287 -49.7279 -49.7117 -49.6983 -49.6887
   -49.6777 -49.6685 -49.6631 -49.6620 -49.6595 -49.6554 -49.6500 -49.6489
   -49.6468 -49.6445 -49.6389 -49.6362 -49.6352 -49.6264 -49.6240 -49.6201
   -49.6200 -49.6196 -49.6175 -49.6144 -49.6134 -49.6126 -49.6095 -49.6088
   -20.1670 -20.1585 -20.1357 -20.1008 -20.0952 -20.0934 -20.0850 -20.0812
   -20.0613 -20.0545 -20.0457 -20.0450 -20.0448 -20.0372 -20.0222 -20.0198
   -20.0155 -20.0116 -19.9970 -19.9958 -19.9944 -19.9861 -19.9849 -19.9583
   -19.9557 -19.9292 -19.8602 -19.8115 -19.8108 -19.7694 -19.7628 -19.7618
   -19.7611 -19.7398 -19.7283 -19.7243 -19.7155 -19.6950 -19.6574 -19.6572
   -19.6567 -19.6502 -19.6362 -19.6034 -19.5868 -19.5722 -19.5598 -19.5560
   -19.5545 -19.5474 -19.5469 -19.5455 -19.5420 -19.5307 -19.5291 -19.5221
   -19.5180 -19.5147 -19.5105 -19.5097 -19.5059 -19.5030 -19.4920 -19.4794
   -19.4667 -19.4635 -19.4630 -19.4518 -19.4513 -19.4439 -19.4374 -19.4340
   -19.4226 -19.4218 -19.4156 -19.4145 -19.4097 -19.4086 -19.4058 -19.4039
   -19.4035 -19.3954 -19.3944 -19.3703 -19.3601 -19.3586 -19.3358 -19.3338
   -19.3201 -19.3139 -19.3136 -19.2970 -19.2888 -19.2828 -19.2690 -19.2469
    16.2191  16.8523  17.3711  17.4714  17.4800  17.4826  17.5087  17.6954
    17.7628  17.7731  17.7760  17.8205  17.8746  17.8809  17.8954  17.9096
    17.9138  17.9628  17.9886  18.0682  18.1095  18.1326  18.1371  18.2024
    18.2344  18.2931  18.3072  18.3548  18.3633  18.3883  18.4816  18.5131
    18.5249  18.5514  18.5951  18.6078  18.6307  18.6398  18.6688  18.8957
    19.0345  19.0750  19.1408  19.1482  19.1778  19.1910  19.3497  19.3834
    19.3958  19.5754  19.6459  19.6708  19.6917  19.6975  19.8271  19.8653
    19.8723  19.9384  19.9695  20.0906  20.1376  20.2536  20.2785  20.4154
    20.4219  20.4315  20.4605  20.6050  20.6334  20.7049  20.7078  20.7167
    20.7620  20.7874  20.8194  20.8422  20.8559  20.8574  20.9019  20.9416
    20.9479  20.9999  21.0132  21.0266  21.1123  21.1360  21.1540  21.1803
    21.2085  21.2226  21.2350  21.2519  21.3345  21.4219  21.4751  21.5218
    21.5268  21.5647  21.6112  21.6416  21.6588  21.7146  21.7647  21.7702
    21.8273  21.9137  22.0381  22.1070  22.1796  22.2696  22.2926  22.4370
    22.4411  22.5343  22.5476  22.6061  22.6699  22.6752  22.6940  22.7072
    22.7314  22.7725  22.9066  22.9287  22.9596  22.9918  23.0814  23.1097
    23.1193  23.3318  23.3431  23.3607  23.4206  23.4708  23.7706  23.9036
    23.9576  23.9858  23.9895  24.0062  24.0543  24.0618  24.2002  24.2754
    24.2910  24.3168  24.3687  24.3862  24.3864  24.4071  24.4087  24.4282
    24.5911  24.6838  24.7024  24.7259  24.7288  24.7494  24.7592  24.7949
    24.8151  24.8512  24.9938  25.0026  25.0029  25.0360  25.0651  25.0980
    25.1075  25.6577  25.6631  26.1793  26.3521  26.6036  26.8605  27.1032
    27.4281  27.8045  27.9519

          k = 0.1668 0.2781-0.5005 ( 30086 PWs)   bands (ev):

   -49.7847 -49.7845 -49.7393 -49.7391 -49.7206 -49.7204 -49.6940 -49.6938
   -49.6736 -49.6734 -49.6610 -49.6608 -49.6597 -49.6595 -49.6479 -49.6477
   -49.6395 -49.6393 -49.6359 -49.6358 -49.6285 -49.6283 -49.6275 -49.6273
   -49.6217 -49.6215 -49.6161 -49.6159 -49.6141 -49.6139 -49.6093 -49.6091
   -20.1388 -20.1387 -20.1247 -20.1246 -20.0972 -20.0971 -20.0712 -20.0710
   -20.0686 -20.0684 -20.0427 -20.0426 -20.0377 -20.0377 -20.0319 -20.0318
   -20.0190 -20.0189 -20.0113 -20.0112 -19.9933 -19.9932 -19.9708 -19.9707
   -19.9581 -19.9580 -19.8177 -19.8177 -19.8110 -19.8110 -19.7512 -19.7511
   -19.7274 -19.7273 -19.7097 -19.7096 -19.6977 -19.6976 -19.6921 -19.6919
   -19.6809 -19.6807 -19.5768 -19.5766 -19.5730 -19.5729 -19.5577 -19.5576
   -19.5564 -19.5562 -19.5495 -19.5494 -19.5291 -19.5291 -19.5274 -19.5272
   -19.4984 -19.4982 -19.4982 -19.4981 -19.4908 -19.4908 -19.4823 -19.4822
   -19.4789 -19.4789 -19.4783 -19.4783 -19.4738 -19.4738 -19.4498 -19.4497
   -19.4180 -19.4179 -19.4150 -19.4149 -19.4107 -19.4106 -19.3955 -19.3954
   -19.3903 -19.3901 -19.3815 -19.3813 -19.3811 -19.3810 -19.3274 -19.3272
   -19.3209 -19.3208 -19.2894 -19.2894 -19.2893 -19.2892 -19.2614 -19.2613
    16.5115  16.5117  17.5600  17.5602  17.6008  17.6009  17.6476  17.6478
    17.6674  17.6675  17.7182  17.7184  17.7822  17.7823  17.9286  17.9286
    18.0552  18.0554  18.0703  18.0704  18.1305  18.1306  18.2044  18.2044
    18.2300  18.2301  18.2809  18.2810  18.2817  18.2818  18.3158  18.3159
    18.5169  18.5171  18.5440  18.5440  18.6866  18.6867  18.8724  18.8725
    19.0062  19.0064  19.1886  19.1887  19.2082  19.2082  19.2764  19.2764
    19.3535  19.3535  19.7026  19.7027  19.7683  19.7684  19.8110  19.8111
    19.8756  19.8757  20.0579  20.0580  20.0779  20.0780  20.4282  20.4282
    20.4842  20.4843  20.6396  20.6396  20.7007  20.7008  20.7013  20.7015
    20.8227  20.8228  20.8388  20.8388  20.9315  20.9316  20.9620  20.9620
    21.0214  21.0214  21.1214  21.1214  21.1291  21.1292  21.1546  21.1547
    21.2298  21.2298  21.3643  21.3643  21.4279  21.4279  21.4615  21.4616
    21.4896  21.4897  21.5074  21.5074  21.5187  21.5188  21.5546  21.5547
    22.0714  22.0715  22.1468  22.1469  22.1758  22.1758  22.3983  22.3984
    22.4977  22.4978  22.5036  22.5037  22.5445  22.5446  22.5465  22.5467
    22.7466  22.7468  22.8027  22.8028  22.9769  22.9770  23.0631  23.0632
    23.2535  23.2536  23.6469  23.6470  23.6663  23.6663  23.6998  23.6998
    23.7616  23.7618  24.0474  24.0475  24.1298  24.1300  24.2272  24.2274
    24.2971  24.2971  24.4897  24.4898  24.5346  24.5346  24.5678  24.5679
    24.5694  24.5695  24.6189  24.6189  24.6380  24.6381  24.6512  24.6512
    24.7992  24.7994  24.8843  24.8843  25.0445  25.0447  25.0479  25.0480
    25.6237  25.6237  26.2651  26.2652  26.3701  26.3703  26.4656  26.4658
    27.6409  27.6411  28.6205

          k = 0.1668 0.3893 0.3893 ( 30076 PWs)   bands (ev):

   -49.7876 -49.7631 -49.7631 -49.7418 -49.7226 -49.7075 -49.7075 -49.6958
   -49.6748 -49.6669 -49.6668 -49.6623 -49.6480 -49.6479 -49.6423 -49.6423
   -49.6419 -49.6418 -49.6377 -49.6377 -49.6305 -49.6305 -49.6233 -49.6232
   -49.6228 -49.6228 -49.6210 -49.6210 -49.6168 -49.6114 -49.6114 -49.6095
   -20.1457 -20.1456 -20.1038 -20.0882 -20.0882 -20.0821 -20.0821 -20.0757
   -20.0702 -20.0702 -20.0467 -20.0467 -20.0389 -20.0389 -20.0258 -20.0258
   -20.0239 -20.0239 -20.0152 -20.0098 -20.0098 -20.0009 -20.0009 -19.9989
   -19.9603 -19.9111 -19.9111 -19.8163 -19.8096 -19.7867 -19.7867 -19.7260
   -19.7154 -19.7154 -19.7058 -19.6887 -19.6887 -19.6630 -19.6630 -19.6271
   -19.6271 -19.6228 -19.6228 -19.6157 -19.6157 -19.5929 -19.5929 -19.5658
[...]
   -19.5034 -19.5034 -19.5033 -19.5033 -19.4582 -19.4582 -19.4581 -19.4581
   -19.4580 -19.4580 -19.4579 -19.4579 -19.4418 -19.4418 -19.4418 -19.4418
   -19.3315 -19.3315 -19.3315 -19.3315 -19.3133 -19.3131 -19.3131 -19.3130
   -19.3111 -19.3110 -19.3110 -19.3108 -19.2681 -19.2681 -19.2681 -19.2681
    17.0171  17.0173  17.0173  17.0175  17.4865  17.4866  17.4866  17.4867
    17.9408  17.9408  17.9408  17.9409  17.9884  17.9884  17.9885  17.9885
    17.9886  17.9886  17.9886  17.9887  18.0714  18.0714  18.0714  18.0714
    18.2645  18.2645  18.2646  18.2646  18.2646  18.2647  18.2647  18.2647
    18.6607  18.6607  18.6607  18.6608  18.6609  18.6609  18.6609  18.6610
    18.8232  18.8232  18.8232  18.8232  19.3923  19.3923  19.3924  19.3924
    19.3924  19.3924  19.3926  19.3926  19.5737  19.5739  19.5739  19.5740
    20.1188  20.1188  20.1188  20.1188  20.6022  20.6023  20.6023  20.6023
    20.8566  20.8566  20.8566  20.8566  20.9333  20.9333  20.9333  20.9334
    20.9741  20.9741  20.9742  20.9742  20.9742  20.9742  20.9742  20.9742
    21.0958  21.0958  21.0959  21.0959  21.1215  21.1215  21.1216  21.1216
    21.1722  21.1723  21.1723  21.1723  21.3902  21.3902  21.3902  21.3902
    21.3904  21.3904  21.3904  21.3904  21.5310  21.5311  21.5311  21.5312
    21.8656  21.8657  21.8657  21.8658  22.0561  22.0561  22.0561  22.0561
    22.0561  22.0561  22.0562  22.0562  22.6878  22.6879  22.6879  22.6881
    22.9550  22.9551  22.9551  22.9552  23.0062  23.0062  23.0063  23.0063
    23.0064  23.0064  23.0064  23.0065  23.3963  23.3964  23.3964  23.3964
    23.4114  23.4115  23.4115  23.4116  23.8369  23.8370  23.8370  23.8371
    24.8463  24.8463  24.8463  24.8463  24.8464  24.8464  24.8464  24.8464
    24.8840  24.8841  24.8841  24.8841  24.9107  24.9107  24.9107  24.9107
    24.9108  24.9108  24.9109  24.9109  24.9604  24.9605  24.9605  24.9605
    26.5507  26.5509  26.5509  26.5510  27.8468  27.8468  27.8469  27.8469
    27.8469  27.8469  27.8470

          k = 0.3893 0.3893 0.3893 ( 30061 PWs)   bands (ev):

   -49.7741 -49.7516 -49.7515 -49.7515 -49.7323 -49.7322 -49.7322 -49.7163
   -49.6458 -49.6458 -49.6458 -49.6423 -49.6423 -49.6422 -49.6422 -49.6422
   -49.6422 -49.6419 -49.6419 -49.6418 -49.6262 -49.6262 -49.6262 -49.6232
   -49.6232 -49.6232 -49.6229 -49.6229 -49.6229 -49.6228 -49.6228 -49.6227
   -20.1107 -20.1107 -20.1107 -20.0738 -20.0738 -20.0738 -20.0631 -20.0631
   -20.0631 -20.0583 -20.0583 -20.0583 -20.0583 -20.0583 -20.0583 -20.0538
   -20.0538 -20.0538 -20.0538 -20.0538 -20.0538 -20.0268 -20.0268 -20.0268
   -19.9163 -19.8036 -19.8036 -19.8036 -19.6947 -19.6947 -19.6947 -19.6947
   -19.6947 -19.6947 -19.6888 -19.6888 -19.6888 -19.6863 -19.6863 -19.6863
   -19.6623 -19.6623 -19.6623 -19.5874 -19.5874 -19.5874 -19.5874 -19.5874
   -19.5874 -19.5698 -19.5697 -19.5697 -19.5691 -19.5572 -19.5572 -19.5572
   -19.5183 -19.5183 -19.5183 -19.4996 -19.4996 -19.4996 -19.4996 -19.4996
   -19.4996 -19.4815 -19.4815 -19.4815 -19.4653 -19.4653 -19.4653 -19.4605
   -19.4605 -19.4605 -19.4605 -19.4605 -19.4605 -19.4392 -19.4392 -19.4392
   -19.3368 -19.3368 -19.3368 -19.3176 -19.3176 -19.3083 -19.3083 -19.3083
   -19.2916 -19.2916 -19.2916 -19.2880 -19.2880 -19.2880 -19.2708 -19.2708
    16.7221  17.1806  17.1806  17.1806  17.4168  17.4287  17.4287  17.4287
    17.7797  17.7797  17.7797  18.0032  18.0032  18.0032  18.0838  18.0838
    18.0838  18.0954  18.0954  18.0954  18.0954  18.0954  18.0954  18.1858
    18.1858  18.1858  18.1858  18.1858  18.1858  18.2150  18.2150  18.2150
    18.4702  18.4702  18.4702  18.8440  18.8440  18.8440  18.9480  18.9480
    18.9480  18.9480  18.9480  18.9480  19.3046  19.3046  19.3047  19.3135
    19.3135  19.3135  19.3135  19.3135  19.3135  19.6162  19.6162  19.6162
    20.1414  20.1414  20.1414  20.2295  20.4182  20.4182  20.4182  20.8352
    20.8352  20.8352  20.8352  20.8352  20.8353  20.9357  20.9357  21.0305
    21.0305  21.0305  21.0796  21.0796  21.0812  21.0812  21.0812  21.0968
    21.0968  21.0968  21.1086  21.1087  21.1087  21.1155  21.1443  21.1443
    21.1443  21.1801  21.1801  21.1801  21.1801  21.1801  21.1801  21.1855
    21.1855  21.1855  21.2905  21.2905  21.2906  21.7101  21.7101  21.7101
    21.9181  21.9181  21.9181  22.2363  22.2363  22.2363  22.2363  22.2363
    22.2363  22.2376  22.2376  22.2376  22.5753  22.5753  22.5753  22.7636
    22.7636  22.7636  22.7636  22.7636  22.7636  22.8793  22.8793  22.8794
    22.9717  22.9717  23.0081  23.0082  23.0082  23.1626  23.1626  23.1626
    23.4439  23.4439  23.4439  23.6766  23.6766  23.8442  23.8442  23.8442
    24.7985  24.7985  24.7985  24.8523  24.8523  24.8523  24.8523  24.8523
    24.8523  24.9210  24.9210  24.9210  24.9210  24.9210  24.9210  24.9874
    24.9874  24.9874  25.0037  25.0037  25.0037  25.0976  25.0976  25.0976
    26.7672  26.7672  26.7672  27.6743  27.6743  27.6743  27.6743  27.6743
    27.6743  27.9535  27.9535

          k = 0.3893 0.3893-0.5005 ( 30100 PWs)   bands (ev):

   -49.7639 -49.7637 -49.7428 -49.7428 -49.7426 -49.7426 -49.7251 -49.7249
   -49.6442 -49.6442 -49.6441 -49.6440 -49.6423 -49.6421 -49.6421 -49.6419
   -49.6336 -49.6335 -49.6334 -49.6333 -49.6318 -49.6318 -49.6316 -49.6316
   -49.6245 -49.6245 -49.6243 -49.6243 -49.6232 -49.6230 -49.6230 -49.6228
   -20.0976 -20.0976 -20.0858 -20.0857 -20.0856 -20.0855 -20.0639 -20.0639
   -20.0638 -20.0638 -20.0604 -20.0604 -20.0604 -20.0604 -20.0586 -20.0585
   -20.0585 -20.0583 -20.0486 -20.0485 -20.0429 -20.0429 -20.0428 -20.0428
   -19.8604 -19.8603 -19.7458 -19.7458 -19.7458 -19.7458 -19.6927 -19.6927
   -19.6927 -19.6927 -19.6796 -19.6795 -19.6795 -19.6795 -19.6411 -19.6410
   -19.6410 -19.6410 -19.6277 -19.6277 -19.6206 -19.6205 -19.6183 -19.6182
   -19.5769 -19.5769 -19.5768 -19.5768 -19.5705 -19.5705 -19.5705 -19.5705
   -19.5080 -19.5079 -19.5079 -19.5078 -19.5017 -19.5015 -19.4821 -19.4821
   -19.4820 -19.4820 -19.4814 -19.4814 -19.4814 -19.4814 -19.4714 -19.4714
   -19.4713 -19.4713 -19.4534 -19.4532 -19.4506 -19.4506 -19.4506 -19.4505
   -19.3228 -19.3228 -19.3181 -19.3181 -19.3180 -19.3180 -19.3036 -19.3034
   -19.2883 -19.2883 -19.2883 -19.2883 -19.2880 -19.2878 -19.2749 -19.2749
    16.9355  16.9357  17.2950  17.2950  17.2951  17.2952  17.4103  17.4104
    17.8962  17.8964  17.9150  17.9150  17.9150  17.9151  18.0782  18.0782
    18.0782  18.0782  18.1233  18.1233  18.1234  18.1234  18.1398  18.1398
    18.1398  18.1398  18.1570  18.1570  18.1571  18.1572  18.1700  18.1702
    18.6346  18.6348  18.7101  18.7101  18.7101  18.7102  19.0909  19.0909
    19.0910  19.0910  19.1025  19.1025  19.1026  19.1027  19.1391  19.1391
    19.1391  19.1391  19.4307  19.4309  19.4853  19.4854  19.4855  19.4855
    20.2073  20.2074  20.2928  20.2928  20.2928  20.2928  20.7681  20.7681
    20.9761  20.9762  20.9762  20.9762  20.9973  20.9975  21.0001  21.0001
    21.0002  21.0002  21.0009  21.0009  21.0515  21.0515  21.0515  21.0515
    21.0638  21.0638  21.0638  21.0638  21.1001  21.1001  21.1032  21.1032
    21.1180  21.1181  21.1361  21.1361  21.1362  21.1362  21.1373  21.1373
    21.1374  21.1374  21.5580  21.5581  21.5581  21.5581  21.6079  21.6081
    21.9394  21.9395  21.9395  21.9396  21.9661  21.9661  22.3802  22.3802
    22.3803  22.3803  22.4741  22.4741  22.4742  22.4742  22.5040  22.5040
    22.5041  22.5041  22.8692  22.8692  22.8814  22.8815  22.9466  22.9467
    22.9468  22.9469  22.9749  22.9749  22.9750  22.9750  23.1947  23.1948
    23.3427  23.3428  23.5693  23.5693  23.5694  23.5694  23.7314  23.7316
    24.8875  24.8875  24.8875  24.8875  24.9193  24.9193  24.9194  24.9194
    24.9228  24.9228  24.9706  24.9706  24.9707  24.9707  24.9770  24.9770
    24.9770  24.9771  25.0294  25.0295  25.0296  25.0297  25.0787  25.0787
    27.1973  27.1973  27.1974  27.1974  27.6506  27.6507  27.7980  27.7981
    27.7982  27.7982  28.5886

          k = 0.3893-0.5005-0.5005 ( 30088 PWs)   bands (ev):

   -49.7544 -49.7542 -49.7542 -49.7540 -49.7348 -49.7346 -49.7346 -49.7344
   -49.6434 -49.6432 -49.6432 -49.6430 -49.6329 -49.6329 -49.6327 -49.6327
   -49.6327 -49.6327 -49.6326 -49.6326 -49.6325 -49.6325 -49.6324 -49.6324
   -49.6324 -49.6324 -49.6322 -49.6322 -49.6238 -49.6236 -49.6236 -49.6234
   -20.0798 -20.0798 -20.0798 -20.0797 -20.0797 -20.0797 -20.0796 -20.0796
   -20.0649 -20.0648 -20.0648 -20.0647 -20.0610 -20.0609 -20.0609 -20.0607
   -20.0546 -20.0546 -20.0546 -20.0546 -20.0545 -20.0545 -20.0544 -20.0544
   -19.8031 -19.8030 -19.8030 -19.8030 -19.6882 -19.6881 -19.6881 -19.6880
   -19.6860 -19.6859 -19.6859 -19.6859 -19.6310 -19.6310 -19.6310 -19.6310
   -19.6310 -19.6310 -19.6310 -19.6309 -19.6296 -19.6296 -19.6295 -19.6295
   -19.6295 -19.6295 -19.6294 -19.6294 -19.5720 -19.5720 -19.5720 -19.5719
   -19.4934 -19.4934 -19.4934 -19.4934 -19.4914 -19.4914 -19.4914 -19.4914
   -19.4913 -19.4913 -19.4912 -19.4912 -19.4676 -19.4676 -19.4675 -19.4675
   -19.4674 -19.4674 -19.4673 -19.4673 -19.4615 -19.4615 -19.4615 -19.4615
   -19.3118 -19.3118 -19.3118 -19.3118 -19.2991 -19.2990 -19.2990 -19.2989
   -19.2988 -19.2988 -19.2988 -19.2987 -19.2796 -19.2796 -19.2796 -19.2796
    17.1030  17.1032  17.1032  17.1034  17.3427  17.3429  17.3429  17.3430
    18.0063  18.0063  18.0063  18.0064  18.0065  18.0065  18.0065  18.0065
    18.0070  18.0070  18.0070  18.0070  18.0873  18.0874  18.0874  18.0874
    18.1514  18.1514  18.1514  18.1514  18.1515  18.1515  18.1516  18.1516
    18.8753  18.8753  18.8753  18.8754  18.8755  18.8755  18.8755  18.8756
    18.9338  18.9338  18.9338  18.9339  19.2836  19.2836  19.2837  19.2837
    19.2837  19.2838  19.2838  19.2839  19.3109  19.3110  19.3110  19.3111
    20.2698  20.2698  20.2698  20.2698  20.5448  20.5448  20.5448  20.5448
    21.0031  21.0031  21.0031  21.0031  21.0227  21.0227  21.0228  21.0228
    21.0475  21.0475  21.0475  21.0476  21.0476  21.0476  21.0476  21.0476
    21.0614  21.0615  21.0615  21.0615  21.0962  21.0962  21.0963  21.0963
    21.1060  21.1061  21.1061  21.1061  21.3036  21.3036  21.3037  21.3037
    21.3038  21.3038  21.3038  21.3038  21.3624  21.3625  21.3625  21.3626
    22.1210  22.1211  22.1211  22.1212  22.2024  22.2024  22.2024  22.2024
    22.2025  22.2025  22.2025  22.2025  22.6639  22.6639  22.6640  22.6640
    22.6641  22.6641  22.6641  22.6641  22.6803  22.6804  22.6804  22.6806
    22.9453  22.9454  22.9454  22.9455  23.2366  23.2367  23.2367  23.2367
    23.3115  23.3116  23.3116  23.3117  23.5338  23.5339  23.5340  23.5341
    24.9635  24.9635  24.9636  24.9636  24.9636  24.9636  24.9636  24.9636
    24.9852  24.9853  24.9853  24.9853  25.0312  25.0312  25.0312  25.0312
    25.0313  25.0313  25.0313  25.0313  25.0323  25.0324  25.0324  25.0325
    27.4671  27.4672  27.4672  27.4673  28.1078  28.1079  28.1079  28.1079
    28.1080  28.1080  28.1081

          k =-0.5005-0.5005-0.5005 ( 29992 PWs)   bands (ev):

   -49.7455 -49.7454 -49.7454 -49.7454 -49.7452 -49.7452 -49.7452 -49.7450
   -49.6329 -49.6329 -49.6328 -49.6327 -49.6327 -49.6327 -49.6327 -49.6327
   -49.6326 -49.6326 -49.6326 -49.6326 -49.6325 -49.6325 -49.6325 -49.6325
   -49.6324 -49.6324 -49.6323 -49.6323 -49.6323 -49.6323 -49.6322 -49.6321
   -20.0675 -20.0675 -20.0674 -20.0674 -20.0674 -20.0674 -20.0674 -20.0673
   -20.0673 -20.0673 -20.0673 -20.0673 -20.0672 -20.0672 -20.0672 -20.0672
   -20.0671 -20.0671 -20.0671 -20.0671 -20.0671 -20.0670 -20.0670 -20.0670
   -19.7441 -19.7441 -19.7441 -19.7441 -19.7440 -19.7440 -19.7440 -19.7439
   -19.6307 -19.6307 -19.6307 -19.6306 -19.6306 -19.6306 -19.6306 -19.6306
   -19.6306 -19.6306 -19.6306 -19.6306 -19.6306 -19.6306 -19.6305 -19.6305
   -19.6305 -19.6305 -19.6305 -19.6305 -19.6305 -19.6305 -19.6305 -19.6304
   -19.4790 -19.4790 -19.4790 -19.4790 -19.4790 -19.4789 -19.4789 -19.4789
   -19.4789 -19.4789 -19.4789 -19.4789 -19.4788 -19.4788 -19.4788 -19.4787
   -19.4787 -19.4787 -19.4787 -19.4787 -19.4787 -19.4787 -19.4787 -19.4787
   -19.2944 -19.2944 -19.2944 -19.2944 -19.2944 -19.2944 -19.2944 -19.2944
   -19.2942 -19.2942 -19.2942 -19.2942 -19.2942 -19.2941 -19.2941 -19.2941
    17.2129  17.2130  17.2130  17.2131  17.2132  17.2132  17.2132  17.2134
    18.0619  18.0619  18.0619  18.0619  18.0619  18.0620  18.0620  18.0620
    18.0620  18.0620  18.0620  18.0620  18.0621  18.0621  18.0621  18.0621
    18.0621  18.0621  18.0621  18.0621  18.0622  18.0622  18.0622  18.0622
    19.0953  19.0953  19.0954  19.0954  19.0954  19.0954  19.0954  19.0954
    19.0954  19.0955  19.0955  19.0955  19.0955  19.0956  19.0956  19.0956
    19.0956  19.0956  19.0956  19.0956  19.0957  19.0957  19.0957  19.0957
    20.4257  20.4257  20.4257  20.4257  20.4258  20.4258  20.4258  20.4258
    21.0662  21.0662  21.0662  21.0662  21.0662  21.0662  21.0663  21.0663
    21.0663  21.0663  21.0663  21.0664  21.0664  21.0664  21.0664  21.0664
    21.1783  21.1784  21.1784  21.1784  21.1784  21.1784  21.1784  21.1784
    21.1785  21.1785  21.1785  21.1785  21.1785  21.1785  21.1785  21.1785
    21.1786  21.1786  21.1786  21.1786  21.1786  21.1786  21.1786  21.1786
    22.3963  22.3964  22.3964  22.3964  22.3964  22.3964  22.3965  22.3965
    22.3965  22.3965  22.3965  22.3965  22.3965  22.3965  22.3965  22.3966
    22.3966  22.3966  22.3966  22.3966  22.3966  22.3966  22.3967  22.3967
    23.2323  23.2323  23.2324  23.2324  23.2324  23.2325  23.2325  23.2325
    23.2325  23.2325  23.2325  23.2326  23.2326  23.2326  23.2326  23.2327
    25.0391  25.0391  25.0392  25.0392  25.0392  25.0392  25.0392  25.0392
    25.0392  25.0392  25.0392  25.0393  25.0393  25.0393  25.0393  25.0393
    25.0393  25.0393  25.0393  25.0394  25.0394  25.0394  25.0394  25.0394
    28.4292  28.4292  28.4292  28.4292  28.4293  28.4293  28.4293  28.4293
    28.4294  28.4294  28.4294

     the Fermi energy is    23.1996 ev

!    total energy              =  -13813.30044295 Ry

     total all-electron energy =   -289989.690782 Ry
     estimated scf accuracy    <       0.00000017 Ry
     smearing contrib. (-TS)   =       0.02067362 Ry
     internal energy E=F+TS    =  -13813.32111657 Ry

     The total energy is F=E-TS. E is the sum of the following terms:
     one-electron contribution =    -987.93376313 Ry
     hartree contribution      =     913.75236402 Ry
     xc contribution           =    -928.18531250 Ry
     ewald contribution        =   -5221.50705023 Ry
     one-center paw contrib.   =   -7589.44735473 Ry

     convergence has been achieved in  13 iterations

     Forces acting on atoms (cartesian axes, Ry/au):

     atom    1 type  1   force =     0.00000000    0.00000000    0.00000000
     atom    2 type  1   force =    -0.00000143   -0.00000143    0.00000000
     atom    3 type  1   force =    -0.00000143    0.00000000   -0.00000143
     atom    4 type  1   force =    -0.00000000   -0.00000143   -0.00000143
     atom    5 type  1   force =     0.00000000    0.00000000    0.00000000
     atom    6 type  1   force =    -0.00000162   -0.00000162   -0.00000000
     atom    7 type  1   force =    -0.00000143   -0.00000000    0.00000143
     atom    8 type  1   force =     0.00000000   -0.00000143    0.00000143
     atom    9 type  1   force =     0.00000000    0.00000000    0.00000000
     atom   10 type  1   force =    -0.00000143    0.00000143    0.00000000
     atom   11 type  1   force =    -0.00000162    0.00000000   -0.00000162
     atom   12 type  1   force =    -0.00000000    0.00000143   -0.00000143
     atom   13 type  1   force =     0.00000000    0.00000000    0.00000000
     atom   14 type  1   force =    -0.00000162    0.00000162    0.00000000
     atom   15 type  1   force =    -0.00000162    0.00000000    0.00000162
     atom   16 type  1   force =    -0.00000000    0.00000143    0.00000143
     atom   17 type  1   force =     0.00000000    0.00000000    0.00000000
     atom   18 type  1   force =     0.00000143   -0.00000143    0.00000000
     atom   19 type  1   force =     0.00000143    0.00000000   -0.00000143
     atom   20 type  1   force =    -0.00000000   -0.00000162   -0.00000162
     atom   21 type  1   force =     0.00000000    0.00000000    0.00000000
     atom   22 type  1   force =     0.00000162   -0.00000162    0.00000000
     atom   23 type  1   force =     0.00000143    0.00000000    0.00000143
     atom   24 type  1   force =     0.00000000   -0.00000162    0.00000162
     atom   25 type  1   force =     0.00000000    0.00000000    0.00000000
     atom   26 type  1   force =     0.00000143    0.00000143    0.00000000
     atom   27 type  1   force =     0.00000162    0.00000000   -0.00000162
     atom   28 type  1   force =    -0.00000000    0.00000162   -0.00000162
     atom   29 type  1   force =     0.00000000    0.00000000    0.00000000
     atom   30 type  1   force =     0.00000162    0.00000162   -0.00000000
     atom   31 type  1   force =     0.00000162    0.00000000    0.00000162
     atom   32 type  1   force =    -0.00000000    0.00000162    0.00000162

     Total force =     0.000011     Total SCF correction =     0.000124
     SCF correction compared to forces is large: reduce conv_thr to get better values


     Computing stress (Cartesian axis) and pressure

          total   stress  (Ry/bohr**3)                   (kbar)     P=        5.64
   0.00003834   0.00000000   0.00000000            5.64        0.00        0.00
   0.00000000   0.00003834   0.00000000            0.00        5.64        0.00
   0.00000000   0.00000000   0.00003834            0.00        0.00        5.64


     Writing output data file /scratch/qvIxABxuGFkyAXtQ.save/
 
     init_run     :     15.95s CPU     16.26s WALL (       1 calls)
     electrons    :    570.27s CPU    578.34s WALL (       1 calls)
     forces       :      5.07s CPU      5.13s WALL (       1 calls)
     stress       :     31.79s CPU     32.11s WALL (       1 calls)

     Called by init_run:
     wfcinit      :     15.10s CPU     15.33s WALL (       1 calls)
     potinit      :      0.18s CPU      0.19s WALL (       1 calls)
     hinit0       :      0.43s CPU      0.45s WALL (       1 calls)

     Called by electrons:
     c_bands      :    512.77s CPU    519.51s WALL (      14 calls)
     sum_band     :     54.95s CPU     55.98s WALL (      14 calls)
     v_of_rho     :      0.22s CPU      0.24s WALL (      14 calls)
     newd         :      0.51s CPU      0.63s WALL (      14 calls)
     PAW_pot      :      1.38s CPU      1.49s WALL (      14 calls)
     mix_rho      :      0.16s CPU      0.19s WALL (      14 calls)

     Called by c_bands:
     init_us_2    :      1.90s CPU      1.95s WALL (    1085 calls)
     cegterg      :    505.30s CPU    511.71s WALL (     490 calls)

     Called by *egterg:
     cdiaghg      :     66.39s CPU     67.10s WALL (    1872 calls)
     h_psi        :    261.71s CPU    265.79s WALL (    1942 calls)
     s_psi        :     17.72s CPU     17.88s WALL (    1942 calls)
     g_psi        :      0.46s CPU      0.47s WALL (    1417 calls)

     Called by h_psi:
     h_psi:calbec :     35.70s CPU     35.97s WALL (    1942 calls)
     vloc_psi     :    208.16s CPU    211.43s WALL (    1942 calls)
     add_vuspsi   :     16.64s CPU     17.16s WALL (    1942 calls)

     General routines
     calbec       :     53.93s CPU     54.32s WALL (    2607 calls)
     fft          :      0.85s CPU      0.88s WALL (     206 calls)
     ffts         :      0.03s CPU      0.04s WALL (      28 calls)
     fftw         :    238.78s CPU    242.46s WALL (  929154 calls)
     interpolate  :      0.19s CPU      0.20s WALL (      14 calls)
 
     Parallel routines
     fft_scatt_xy :     16.06s CPU     16.31s WALL (  929388 calls)
     fft_scatt_yz :    195.87s CPU    198.92s WALL (  929388 calls)
 
     PWSCF        :  10m32.56s CPU  10m43.22s WALL

 
   This run was terminated on:  12:39:32  23Nov2021            

=------------------------------------------------------------------------------=
   JOB DONE.
=------------------------------------------------------------------------------=
