
     Program PWSCF v.6.7MaX starts on 23Nov2021 at 13:12:56 

     This program is part of the open-source Quantum ESPRESSO suite
     for quantum simulation of materials; please cite
         "P. Giannozzi et al., J. Phys.:Condens. Matter 21 395502 (2009);
         "P. Giannozzi et al., J. Phys.:Condens. Matter 29 465901 (2017);
          URL http://www.quantum-espresso.org", 
     in publications or presentations arising from this work. More details at
     http://www.quantum-espresso.org/quote

     Parallel version (MPI & OpenMP), running on      72 processor cores
     Number of MPI processes:                72
     Threads/MPI process:                     1

     MPI processes distributed on     1 nodes
     R & G space division:  proc/nbgrp/npool/nimage =      72
     Reading input from /rds/homes/b/bxp912/jobs/20211014_ru_eos/wd/eos/eos_009.in
Warning: card &CELL ignored
Warning: card CELL_DYNAMICS = 'BFGS', ignored
Warning: card CELL_FACTOR = 2.0, ignored
Warning: card PRESS = 0.0, ignored
Warning: card / ignored

     Current dimensions of program PWSCF are:
     Max number of different atomic species (ntypx) = 10
     Max number of k-points (npk) =  40000
     Max angular momentum in pseudopotentials (lmaxx) =  3
     file Ru.pbe-spn-kjpaw_psl.1.0.0.UPF: wavefunction(s)  4D renormalized

     Subspace diagonalization in iterative solution of the eigenvalue problem:
     one sub-group per band group will be used
     ELPA distributed-memory algorithm (size of sub-group:  8*  8 procs)

     Found symmetry operation: I + (  0.2500  0.2500  0.0000)
     This is a supercell, fractional translations are disabled
     Message from routine setup:
     using ibrav=0 with symmetry is DISCOURAGED, use correct ibrav instead
 
     Parallelization info
     --------------------
     sticks:   dense  smooth     PW     G-vecs:    dense   smooth      PW
     Min          99      65     17                 6297     3379     478
     Max         100      66     19                 6304     3386     484
     Sum        7137    4709   1289               453463   243441   34697
 


     bravais-lattice index     =            0
     lattice parameter (alat)  =      14.4007  a.u.
     unit-cell volume          =    3013.4041 (a.u.)^3
     number of atoms/cell      =           32
     number of atomic types    =            1
     number of electrons       =       512.00
     number of Kohn-Sham states=          307
     kinetic-energy cutoff     =      71.0000  Ry
     charge density cutoff     =     430.0000  Ry
     scf convergence threshold =      1.0E-06
     mixing beta               =       0.1000
     number of iterations used =           10  plain     mixing
     Exchange-correlation= SLA  PW   PBX  PBC
                           (   1   4   3   4   0   0   0)

     celldm(1)=  14.400742  celldm(2)=   0.000000  celldm(3)=   0.000000
     celldm(4)=   0.000000  celldm(5)=   0.000000  celldm(6)=   0.000000

     crystal axes: (cart. coord. in units of alat)
               a(1) = (   1.003000   0.000000   0.000000 )  
               a(2) = (   0.000000   1.003000   0.000000 )  
               a(3) = (   0.000000   0.000000   1.003000 )  

     reciprocal axes: (cart. coord. in units 2 pi/alat)
               b(1) = (  0.997009  0.000000  0.000000 )  
               b(2) = (  0.000000  0.997009  0.000000 )  
               b(3) = (  0.000000  0.000000  0.997009 )  


     PseudoPot. # 1 for Ru read from file:
     /rds/homes/b/bxp912/pp/Ru.pbe-spn-kjpaw_psl.1.0.0.UPF
     MD5 check sum: 0ae1f594dea09af7be8575c3a481d1ae
     Pseudo is Projector augmented-wave + core cor, Zval = 16.0
     Generated using "atomic" code by A. Dal Corso  v.5.1
     Shape of augmentation charge: PSQ
     Using radial grid of 1233 points,  6 beta functions with: 
                l(1) =   0
                l(2) =   0
                l(3) =   1
                l(4) =   1
                l(5) =   2
                l(6) =   2
     Q(r) pseudized with 0 coefficients 


     atomic species   valence    mass     pseudopotential
        Ru            16.00   101.07000     Ru( 1.00)

     48 Sym. Ops., with inversion, found



   Cartesian axes

     site n.     atom                  positions (alat units)
         1           Ru  tau(   1) = (   0.0000000   0.0000000   0.0000000  )
         2           Ru  tau(   2) = (   0.2507500   0.2507500   0.0000000  )
         3           Ru  tau(   3) = (   0.2507500   0.0000000   0.2507495  )
         4           Ru  tau(   4) = (   0.0000000   0.2507500   0.2507495  )
         5           Ru  tau(   5) = (   0.0000000   0.0000000   0.5015000  )
         6           Ru  tau(   6) = (   0.2507489   0.2507489   0.5015000  )
         7           Ru  tau(   7) = (   0.2507500   0.0000000   0.7522495  )
         8           Ru  tau(   8) = (   0.0000000   0.2507500   0.7522495  )
         9           Ru  tau(   9) = (   0.0000000   0.5015002   0.0000000  )
        10           Ru  tau(  10) = (   0.2507500   0.7522504   0.0000000  )
        11           Ru  tau(  11) = (   0.2507489   0.5015002   0.2507484  )
        12           Ru  tau(  12) = (   0.0000000   0.7522504   0.2507495  )
        13           Ru  tau(  13) = (   0.0000000   0.5015002   0.5015000  )
        14           Ru  tau(  14) = (   0.2507489   0.7522515   0.5015000  )
        15           Ru  tau(  15) = (   0.2507489   0.5015002   0.7522505  )
        16           Ru  tau(  16) = (   0.0000000   0.7522504   0.7522495  )
        17           Ru  tau(  17) = (   0.5015002   0.0000000   0.0000000  )
        18           Ru  tau(  18) = (   0.7522504   0.2507500   0.0000000  )
        19           Ru  tau(  19) = (   0.7522504   0.0000000   0.2507495  )
        20           Ru  tau(  20) = (   0.5015002   0.2507489   0.2507484  )
        21           Ru  tau(  21) = (   0.5015002   0.0000000   0.5015000  )
        22           Ru  tau(  22) = (   0.7522515   0.2507489   0.5015000  )
        23           Ru  tau(  23) = (   0.7522504   0.0000000   0.7522495  )
        24           Ru  tau(  24) = (   0.5015002   0.2507489   0.7522505  )
        25           Ru  tau(  25) = (   0.5015002   0.5015002   0.0000000  )
        26           Ru  tau(  26) = (   0.7522504   0.7522504   0.0000000  )
        27           Ru  tau(  27) = (   0.7522515   0.5015002   0.2507484  )
        28           Ru  tau(  28) = (   0.5015002   0.7522515   0.2507484  )
        29           Ru  tau(  29) = (   0.5015002   0.5015002   0.5015000  )
        30           Ru  tau(  30) = (   0.7522515   0.7522515   0.5015000  )
        31           Ru  tau(  31) = (   0.7522515   0.5015002   0.7522505  )
        32           Ru  tau(  32) = (   0.5015002   0.7522515   0.7522505  )

     number of k points=    35  Marzari-Vanderbilt smearing, width (Ry)=  0.0400
                       cart. coord. in units 2pi/alat
        k(    1) = (   0.0553894   0.0553894   0.0553894), wk =   0.0219479
        k(    2) = (   0.0553894   0.0553894   0.1661682), wk =   0.0658436
        k(    3) = (   0.0553894   0.0553894   0.2769469), wk =   0.0658436
        k(    4) = (   0.0553894   0.0553894   0.3877257), wk =   0.0658436
        k(    5) = (   0.0553894   0.0553894  -0.4985045), wk =   0.0329218
        k(    6) = (   0.0553894   0.1661682   0.1661682), wk =   0.0658436
        k(    7) = (   0.0553894   0.1661682   0.2769469), wk =   0.1316872
        k(    8) = (   0.0553894   0.1661682   0.3877257), wk =   0.1316872
        k(    9) = (   0.0553894   0.1661682  -0.4985045), wk =   0.0658436
        k(   10) = (   0.0553894   0.2769469   0.2769469), wk =   0.0658436
        k(   11) = (   0.0553894   0.2769469   0.3877257), wk =   0.1316872
        k(   12) = (   0.0553894   0.2769469  -0.4985045), wk =   0.0658436
        k(   13) = (   0.0553894   0.3877257   0.3877257), wk =   0.0658436
        k(   14) = (   0.0553894   0.3877257  -0.4985045), wk =   0.0658436
        k(   15) = (   0.0553894  -0.4985045  -0.4985045), wk =   0.0164609
        k(   16) = (   0.1661682   0.1661682   0.1661682), wk =   0.0219479
        k(   17) = (   0.1661682   0.1661682   0.2769469), wk =   0.0658436
        k(   18) = (   0.1661682   0.1661682   0.3877257), wk =   0.0658436
        k(   19) = (   0.1661682   0.1661682  -0.4985045), wk =   0.0329218
        k(   20) = (   0.1661682   0.2769469   0.2769469), wk =   0.0658436
        k(   21) = (   0.1661682   0.2769469   0.3877257), wk =   0.1316872
        k(   22) = (   0.1661682   0.2769469  -0.4985045), wk =   0.0658436
        k(   23) = (   0.1661682   0.3877257   0.3877257), wk =   0.0658436
        k(   24) = (   0.1661682   0.3877257  -0.4985045), wk =   0.0658436
        k(   25) = (   0.1661682  -0.4985045  -0.4985045), wk =   0.0164609
        k(   26) = (   0.2769469   0.2769469   0.2769469), wk =   0.0219479
        k(   27) = (   0.2769469   0.2769469   0.3877257), wk =   0.0658436
        k(   28) = (   0.2769469   0.2769469  -0.4985045), wk =   0.0329218
        k(   29) = (   0.2769469   0.3877257   0.3877257), wk =   0.0658436
        k(   30) = (   0.2769469   0.3877257  -0.4985045), wk =   0.0658436
        k(   31) = (   0.2769469  -0.4985045  -0.4985045), wk =   0.0164609
        k(   32) = (   0.3877257   0.3877257   0.3877257), wk =   0.0219479
        k(   33) = (   0.3877257   0.3877257  -0.4985045), wk =   0.0329218
        k(   34) = (   0.3877257  -0.4985045  -0.4985045), wk =   0.0164609
        k(   35) = (  -0.4985045  -0.4985045  -0.4985045), wk =   0.0027435

     Dense  grid:   453463 G-vectors     FFT dimensions: (  96,  96,  96)

     Smooth grid:   243441 G-vectors     FFT dimensions: (  80,  80,  80)

     Estimated max dynamical RAM per process >     107.87 MB

     Estimated total dynamical RAM >       7.58 GB

     Check: negative core charge=   -0.000002

     Initial potential from superposition of free atoms

     starting charge  511.97959, renormalised to  512.00000
     Starting wfcs are  320 randomized atomic wfcs
     Checking if some PAW data can be deallocated... 

     total cpu time spent up to now is       18.4 secs

     Self-consistent Calculation

     iteration #  1     ecut=    71.00 Ry     beta= 0.10
     Davidson diagonalization with overlap
     ethr =  1.00E-02,  avg # of iterations =  3.5

     Threshold (ethr) on eigenvalues was too large:
     Diagonalizing with lowered threshold

     Davidson diagonalization with overlap
     ethr =  8.23E-05,  avg # of iterations =  5.3

     total cpu time spent up to now is      116.0 secs

     total energy              =  -13813.40939326 Ry
     estimated scf accuracy    <       0.63492968 Ry

     iteration #  2     ecut=    71.00 Ry     beta= 0.10
     Davidson diagonalization with overlap
     ethr =  1.24E-04,  avg # of iterations =  1.0

     total cpu time spent up to now is      152.6 secs

     total energy              =  -13813.20230688 Ry
     estimated scf accuracy    <       0.39579010 Ry

     iteration #  3     ecut=    71.00 Ry     beta= 0.10
     Davidson diagonalization with overlap
     ethr =  7.73E-05,  avg # of iterations =  2.4

     total cpu time spent up to now is      198.7 secs

     total energy              =  -13813.29807023 Ry
     estimated scf accuracy    <       0.01026067 Ry

     iteration #  4     ecut=    71.00 Ry     beta= 0.10
     Davidson diagonalization with overlap
     ethr =  2.00E-06,  avg # of iterations =  3.3

     total cpu time spent up to now is      241.6 secs

     total energy              =  -13813.29744733 Ry
     estimated scf accuracy    <       0.00678196 Ry

     iteration #  5     ecut=    71.00 Ry     beta= 0.10
     Davidson diagonalization with overlap
     ethr =  1.32E-06,  avg # of iterations =  2.1

     total cpu time spent up to now is      280.9 secs

     total energy              =  -13813.30245422 Ry
     estimated scf accuracy    <       0.00744841 Ry

     iteration #  6     ecut=    71.00 Ry     beta= 0.10
     Davidson diagonalization with overlap
     ethr =  1.32E-06,  avg # of iterations =  3.6

     total cpu time spent up to now is      325.1 secs

     total energy              =  -13813.29735424 Ry
     estimated scf accuracy    <       0.01725616 Ry

     iteration #  7     ecut=    71.00 Ry     beta= 0.10
     Davidson diagonalization with overlap
     ethr =  1.32E-06,  avg # of iterations =  2.3

     total cpu time spent up to now is      367.7 secs

     total energy              =  -13813.29884657 Ry
     estimated scf accuracy    <       0.00110047 Ry

     iteration #  8     ecut=    71.00 Ry     beta= 0.10
     Davidson diagonalization with overlap
     ethr =  2.15E-07,  avg # of iterations =  2.5

     total cpu time spent up to now is      400.5 secs

     total energy              =  -13813.29893315 Ry
     estimated scf accuracy    <       0.00021116 Ry

     iteration #  9     ecut=    71.00 Ry     beta= 0.10
     Davidson diagonalization with overlap
     ethr =  4.12E-08,  avg # of iterations =  1.7

     total cpu time spent up to now is      432.7 secs

     total energy              =  -13813.29886360 Ry
     estimated scf accuracy    <       0.00015543 Ry

     iteration # 10     ecut=    71.00 Ry     beta= 0.10
     Davidson diagonalization with overlap
     ethr =  3.04E-08,  avg # of iterations =  2.3

     total cpu time spent up to now is      475.0 secs

     total energy              =  -13813.29888415 Ry
     estimated scf accuracy    <       0.00000609 Ry

     iteration # 11     ecut=    71.00 Ry     beta= 0.10
     Davidson diagonalization with overlap
     ethr =  1.19E-09,  avg # of iterations =  4.0

     total cpu time spent up to now is      522.4 secs

     total energy              =  -13813.29889264 Ry
     estimated scf accuracy    <       0.00000271 Ry

     iteration # 12     ecut=    71.00 Ry     beta= 0.10
     Davidson diagonalization with overlap
     ethr =  5.29E-10,  avg # of iterations =  3.0

     total cpu time spent up to now is      564.9 secs

     total energy              =  -13813.29888606 Ry
     estimated scf accuracy    <       0.00001515 Ry

     iteration # 13     ecut=    71.00 Ry     beta= 0.10
     Davidson diagonalization with overlap
     ethr =  5.29E-10,  avg # of iterations =  3.2

     total cpu time spent up to now is      609.9 secs

     End of self-consistent calculation

          k = 0.0554 0.0554 0.0554 ( 30512 PWs)   bands (ev):

   -50.1455 -50.0493 -50.0493 -50.0493 -50.0308 -50.0308 -50.0308 -49.9962
   -49.9962 -49.9962 -49.9872 -49.9861 -49.9861 -49.9861 -49.9861 -49.9860
   -49.9860 -49.9855 -49.9855 -49.9855 -49.9775 -49.9775 -49.9775 -49.9339
   -49.9338 -49.9338 -49.9333 -49.9333 -49.9333 -49.9333 -49.9333 -49.9332
   -20.5358 -20.5358 -20.5358 -20.5318 -20.4751 -20.4751 -20.4751 -20.2804
   -20.2804 -20.2804 -20.2694 -20.2694 -20.2694 -20.2694 -20.2694 -20.2694
   -20.2497 -20.2497 -20.2497 -20.2278 -20.2278 -20.2278 -20.2278 -20.2278
   -20.2278 -20.1788 -20.1788 -20.1788 -20.1788 -20.1788 -20.1788 -20.0822
   -20.0822 -20.0821 -20.0113 -20.0113 -20.0113 -20.0035 -20.0035 -20.0035
   -19.9710 -19.9710 -19.9710 -19.9710 -19.9710 -19.9710 -19.9319 -19.9319
   -19.9319 -19.9253 -19.9253 -19.9253 -19.9253 -19.9253 -19.9253 -19.9200
   -19.9200 -19.9200 -19.9156 -19.9156 -19.9156 -19.7575 -19.7575 -19.7575
   -19.7569 -19.7569 -19.7569 -19.7263 -19.7263 -19.7263 -19.7261 -19.7261
   -19.7261 -19.7119 -19.7119 -19.7118 -19.7000 -19.7000 -19.6999 -19.6989
   -19.6989 -19.6988 -19.6988 -19.6988 -19.6988 -19.6969 -19.6969 -19.6969
   -19.6942 -19.6942 -19.6809 -19.6809 -19.6809 -19.5710 -19.5643 -19.5643
    15.1415  16.7253  16.7253  16.7253  16.9926  17.0102  17.0102  17.0102
    17.1893  17.1893  17.1893  17.3858  17.3858  17.3858  17.5619  17.5619
    17.5619  18.1178  18.1179  18.1179  18.1179  18.1179  18.1179  18.4314
    18.4314  18.4314  18.6773  18.6773  18.6774  18.7012  18.7012  18.7012
    18.7887  18.7887  18.7887  18.7887  18.7888  18.7888  18.7891  18.7891
    18.7891  19.2817  19.2817  19.2817  19.2817  19.2817  19.2817  19.4247
    19.4247  19.4247  19.4568  19.4568  19.4568  19.4569  19.4569  19.4569
    19.5210  19.5210  19.5210  19.7768  19.7768  19.7768  19.7802  19.7802
    19.7802  19.7803  19.7803  19.7803  19.7810  19.7810  19.7810  19.7811
    19.7811  19.7811  19.9506  19.9506  19.9507  20.2332  20.2332  20.2332
    20.2688  20.2688  20.2837  20.2837  20.2837  20.3606  20.3915  20.3915
    21.3528  21.3528  21.3528  21.5182  21.5182  21.5182  21.5717  21.5717
    21.5717  21.6704  21.6704  21.6704  21.6704  21.6704  21.6704  21.6842
    21.6842  21.6842  21.9756  21.9757  21.9757  22.0935  22.0935  22.0935
    22.3395  22.3396  22.3396  22.4178  22.4178  22.4178  22.4178  22.4178
    22.4179  22.4353  22.4353  22.4353  22.4733  22.4733  22.4733  22.6619
    22.6620  22.6620  22.6620  22.6620  22.6620  22.7181  22.7181  22.8328
    22.8328  22.8328  23.4828  23.4828  23.4828  23.5334  23.5334  23.5334
    23.6407  23.6407  23.6407  23.7341  24.4478  24.4478  24.4478  24.4899
    24.4899  24.5244  24.5244  24.5244  24.8050  24.8050  24.8050  24.8326
    24.8326  24.8326  24.9875  24.9875  24.9875  24.9875  24.9875  24.9875
    24.9924  24.9924  24.9924  26.4198  26.4198  26.4198  26.5997  26.5997
    26.5997  26.9486  26.9486

          k = 0.0554 0.0554 0.1662 ( 30502 PWs)   bands (ev):

   -50.1423 -50.0676 -50.0476 -50.0476 -50.0293 -50.0293 -50.0125 -50.0062
   -50.0062 -49.9959 -49.9944 -49.9944 -49.9888 -49.9861 -49.9860 -49.9856
   -49.9855 -49.9839 -49.9778 -49.9761 -49.9761 -49.9691 -49.9691 -49.9370
   -49.9351 -49.9351 -49.9348 -49.9348 -49.9338 -49.9337 -49.9333 -49.9333
   -20.5286 -20.5247 -20.5247 -20.5169 -20.4670 -20.4670 -20.4625 -20.3105
   -20.2975 -20.2975 -20.2847 -20.2847 -20.2823 -20.2823 -20.2770 -20.2749
   -20.2749 -20.2522 -20.2522 -20.2379 -20.2379 -20.2249 -20.2249 -20.2237
   -20.2237 -20.1867 -20.1867 -20.1700 -20.1700 -20.1584 -20.1311 -20.1311
   -20.0944 -20.0944 -20.0508 -20.0508 -20.0195 -20.0195 -20.0093 -20.0093
   -19.9793 -19.9426 -19.9426 -19.9310 -19.9310 -19.9301 -19.9301 -19.9251
   -19.9246 -19.9246 -19.9148 -19.9148 -19.9146 -19.9111 -19.9111 -19.9103
   -19.9096 -19.9096 -19.9060 -19.8934 -19.8934 -19.7884 -19.7872 -19.7645
   -19.7645 -19.7494 -19.7494 -19.7331 -19.7331 -19.7309 -19.7309 -19.7228
   -19.7228 -19.7171 -19.7171 -19.7169 -19.7113 -19.7103 -19.7103 -19.6999
   -19.6996 -19.6988 -19.6988 -19.6979 -19.6978 -19.6959 -19.6951 -19.6922
   -19.6922 -19.6916 -19.6813 -19.6695 -19.6695 -19.5879 -19.5698 -19.5678
    15.2270  16.7753  16.7883  16.7883  17.0317  17.0667  17.0667  17.0817
    17.0840  17.2270  17.2504  17.2504  17.4473  17.4474  17.5900  17.6267
    17.6267  17.9985  17.9985  18.1658  18.1658  18.1751  18.1751  18.1770
    18.3700  18.4699  18.4700  18.4761  18.4761  18.5275  18.5385  18.5385
    18.7257  18.7257  18.7335  18.7335  18.7589  18.7590  18.8334  18.8334
    18.8859  18.8859  18.9797  19.2599  19.2599  19.2855  19.2855  19.3360
    19.3360  19.3509  19.3509  19.4114  19.4114  19.4959  19.4959  19.5314
    19.6010  19.6010  19.6265  19.6265  19.7185  19.7328  19.7328  19.7638
    19.7638  19.7840  19.7840  19.7871  19.7871  20.0244  20.0244  20.0536
    20.0536  20.0722  20.1227  20.1609  20.1919  20.1919  20.2658  20.3004
    20.3020  20.3227  20.3227  20.3356  20.3356  20.3463  20.4340  20.4378
    21.1253  21.1253  21.2515  21.2515  21.3435  21.3722  21.4807  21.4807
    21.5105  21.6051  21.6051  21.6400  21.7800  21.7800  21.7824  21.8134
    21.8135  21.8593  21.8593  21.8807  21.9522  21.9522  22.2747  22.2748
    22.2905  22.2905  22.3064  22.3064  22.4194  22.4194  22.4337  22.4338
    22.5515  22.5515  22.5752  22.5752  22.6478  22.6709  22.6784  22.6784
    22.7245  22.7423  22.8827  22.8827  22.8968  22.9453  22.9453  23.0300
    23.0626  23.0627  23.0723  23.1232  23.1232  23.3097  23.3314  23.5444
    23.5444  23.7326  23.7326  23.8011  24.2518  24.2518  24.3611  24.3611
    24.3754  24.4081  24.4724  24.4724  24.4767  24.6708  24.7417  24.8617
    24.8617  24.8630  24.8630  24.8836  24.9861  24.9861  24.9873  24.9873
    25.1725  25.1725  25.3974  25.9064  25.9064  26.2986  26.3621  26.4271
    26.4271  26.8936  26.8936

          k = 0.0554 0.0554 0.2769 ( 30467 PWs)   bands (ev):

   -50.1360 -50.0849 -50.0441 -50.0440 -50.0264 -50.0264 -50.0157 -50.0157
   -50.0025 -50.0025 -49.9952 -49.9951 -49.9904 -49.9860 -49.9860 -49.9856
   -49.9855 -49.9825 -49.9783 -49.9665 -49.9665 -49.9612 -49.9611 -49.9434
   -49.9385 -49.9385 -49.9377 -49.9377 -49.9338 -49.9337 -49.9334 -49.9333
   -20.5105 -20.5032 -20.5032 -20.4917 -20.4510 -20.4510 -20.4374 -20.3548
   -20.3406 -20.3406 -20.3200 -20.3198 -20.3198 -20.2881 -20.2880 -20.2824
   -20.2824 -20.2527 -20.2527 -20.2302 -20.2296 -20.2296 -20.2278 -20.2278
   -20.1926 -20.1926 -20.1894 -20.1894 -20.1550 -20.1550 -20.1162 -20.1162
   -20.0882 -20.0882 -20.0853 -20.0853 -20.0473 -20.0473 -20.0457 -20.0457
   -19.9478 -19.9478 -19.9309 -19.9233 -19.9232 -19.9157 -19.9157 -19.9040
   -19.9000 -19.8988 -19.8988 -19.8927 -19.8927 -19.8860 -19.8860 -19.8829
   -19.8829 -19.8655 -19.8565 -19.8565 -19.8490 -19.8178 -19.8158 -19.7787
   -19.7787 -19.7554 -19.7554 -19.7517 -19.7517 -19.7467 -19.7467 -19.7446
   -19.7363 -19.7363 -19.7323 -19.7323 -19.7167 -19.7103 -19.7026 -19.7026
   -19.7022 -19.6988 -19.6987 -19.6980 -19.6980 -19.6918 -19.6918 -19.6891
   -19.6822 -19.6669 -19.6653 -19.6648 -19.6648 -19.6179 -19.5805 -19.5778
    15.3954  16.7067  16.8721  16.9113  16.9113  17.1273  17.1789  17.1789
    17.2126  17.3018  17.3721  17.3721  17.5014  17.5665  17.5665  17.7525
    17.7525  17.7944  17.7944  17.9438  18.0384  18.1385  18.1385  18.2060
    18.2572  18.2572  18.2875  18.2875  18.3625  18.3625  18.4346  18.4346
    18.5461  18.5461  18.5813  18.5813  18.7105  18.7105  18.7964  18.7964
    18.9625  18.9625  19.1633  19.1633  19.2258  19.2259  19.2266  19.2266
    19.2446  19.2446  19.2587  19.2879  19.2879  19.3795  19.3795  19.5372
    19.5372  19.5958  19.6536  19.6536  19.7233  19.7233  19.7805  19.7805
    19.7972  19.7973  19.8653  19.8653  19.8909  20.0588  20.1207  20.1207
    20.1292  20.1292  20.1761  20.2277  20.3825  20.4323  20.4323  20.4440
    20.4551  20.4603  20.4603  20.5267  20.5300  20.5657  20.8522  20.8522
    20.9084  20.9084  20.9126  20.9127  21.1240  21.2351  21.2351  21.2698
    21.2807  21.3380  21.6924  21.7330  21.7330  21.9391  21.9392  21.9571
    21.9571  21.9952  21.9952  22.0708  22.0708  22.1896  22.1896  22.2872
    22.2872  22.3993  22.4119  22.4119  22.4212  22.4212  22.4491  22.4491
    22.5021  22.5021  22.5123  22.5690  22.5989  22.5989  22.7136  22.7828
    22.7828  22.7901  22.8516  22.8516  22.9885  23.1203  23.1893  23.1893
    23.1903  23.2714  23.2714  23.3143  23.3438  23.3438  23.3627  23.5773
    23.5773  23.7198  23.7198  23.9605  23.9833  23.9834  24.1572  24.1573
    24.1883  24.3207  24.3207  24.3210  24.3506  24.4118  24.6324  24.6324
    24.6336  24.6336  24.6887  24.9852  24.9853  24.9868  24.9868  25.1340
    25.4032  25.4032  25.6025  25.6025  25.7731  25.9038  25.9038  25.9496
    26.2442  26.7789  26.7789

          k = 0.0554 0.0554 0.3877 ( 30435 PWs)   bands (ev):

   -50.1268 -50.1008 -50.0389 -50.0389 -50.0246 -50.0246 -50.0220 -50.0220
   -50.0099 -50.0099 -49.9944 -49.9919 -49.9860 -49.9859 -49.9857 -49.9856
   -49.9811 -49.9790 -49.9790 -49.9578 -49.9578 -49.9538 -49.9538 -49.9527
   -49.9436 -49.9436 -49.9419 -49.9419 -49.9338 -49.9336 -49.9335 -49.9334
   -20.4824 -20.4721 -20.4721 -20.4572 -20.4275 -20.4275 -20.4019 -20.4008
   -20.3878 -20.3878 -20.3683 -20.3610 -20.3610 -20.2957 -20.2870 -20.2870
   -20.2737 -20.2737 -20.2677 -20.2677 -20.2426 -20.2426 -20.2029 -20.2029
   -20.1756 -20.1756 -20.1573 -20.1573 -20.1437 -20.1437 -20.1346 -20.1346
   -20.1224 -20.1224 -20.0820 -20.0820 -20.0793 -20.0793 -20.0427 -20.0427
   -19.9729 -19.9729 -19.9214 -19.9214 -19.9174 -19.9174 -19.8885 -19.8849
   -19.8781 -19.8573 -19.8573 -19.8541 -19.8541 -19.8507 -19.8507 -19.8506
   -19.8506 -19.8448 -19.8422 -19.8224 -19.8224 -19.8213 -19.7993 -19.7993
   -19.7846 -19.7846 -19.7844 -19.7844 -19.7820 -19.7780 -19.7666 -19.7666
   -19.7644 -19.7644 -19.7437 -19.7213 -19.7213 -19.7088 -19.7046 -19.6986
   -19.6985 -19.6982 -19.6981 -19.6973 -19.6973 -19.6874 -19.6874 -19.6868
   -19.6834 -19.6667 -19.6667 -19.6604 -19.6400 -19.6379 -19.5961 -19.5933
    15.6408  16.3172  17.0089  17.0877  17.0877  17.2785  17.3453  17.3453
    17.3480  17.3937  17.4128  17.5511  17.5511  17.5533  17.5533  17.7347
    17.7347  17.7363  17.7384  17.8300  17.8300  17.8977  17.9308  17.9308
    18.0870  18.0870  18.1553  18.1553  18.3753  18.3753  18.3810  18.3810
    18.4505  18.4505  18.6328  18.6328  18.6579  18.6579  18.8765  18.8765
    18.8862  18.8862  18.9750  18.9750  19.1210  19.1210  19.1561  19.1561
    19.1995  19.1995  19.2626  19.2626  19.2744  19.2744  19.5199  19.5199
    19.5287  19.5726  19.5726  19.6935  19.7996  19.7996  19.8058  19.8058
    19.8188  19.8189  19.9381  19.9901  19.9988  20.0273  20.0273  20.0391
    20.0391  20.1624  20.2331  20.2331  20.5090  20.5729  20.5729  20.5808
    20.5808  20.5994  20.5995  20.6076  20.6651  20.6675  20.8864  20.8952
    20.8952  20.9544  21.0243  21.0465  21.0566  21.0566  21.0632  21.0734
    21.5330  21.5330  21.8560  21.8560  21.8643  21.9263  21.9263  22.0519
    22.0519  22.0568  22.1065  22.1238  22.1238  22.1687  22.1688  22.2033
    22.2033  22.2530  22.2530  22.2634  22.2635  22.3227  22.3777  22.3777
    22.4139  22.4139  22.4383  22.4383  22.5248  22.5248  22.7408  22.7408
    22.8605  22.8773  22.8773  22.9907  23.0628  23.1934  23.1934  23.3228
    23.5120  23.5131  23.5131  23.6174  23.6238  23.6238  23.6626  23.6626
    23.8821  23.8821  23.8830  23.9405  24.0350  24.0350  24.0394  24.0983
    24.0983  24.1171  24.1556  24.1563  24.3299  24.3299  24.3336  24.3336
    24.3856  24.3856  24.4634  24.9132  24.9132  24.9853  24.9853  24.9863
    24.9863  25.1311  25.3803  25.3803  25.5017  26.0032  26.0032  26.0626
    26.4351  26.5964  26.5964

          k = 0.0554 0.0554-0.4985 ( 30416 PWs)   bands (ev):

   -50.1150 -50.1148 -50.0325 -50.0325 -50.0323 -50.0323 -50.0166 -50.0166
   -50.0164 -50.0164 -49.9933 -49.9931 -49.9860 -49.9858 -49.9858 -49.9856
   -49.9801 -49.9799 -49.9648 -49.9646 -49.9501 -49.9501 -49.9500 -49.9499
   -49.9474 -49.9474 -49.9472 -49.9472 -49.9338 -49.9336 -49.9336 -49.9334
   -20.4456 -20.4455 -20.4329 -20.4328 -20.4327 -20.4327 -20.4153 -20.4152
   -20.3973 -20.3973 -20.3971 -20.3971 -20.3531 -20.3530 -20.2798 -20.2798
   -20.2798 -20.2798 -20.2598 -20.2598 -20.2597 -20.2597 -20.1735 -20.1735
   -20.1734 -20.1734 -20.1521 -20.1521 -20.1519 -20.1519 -20.1197 -20.1197
   -20.1197 -20.1197 -20.1093 -20.1093 -20.1091 -20.1091 -20.0049 -20.0049
   -20.0048 -20.0048 -19.9196 -19.9194 -19.9194 -19.9192 -19.8687 -19.8685
   -19.8655 -19.8653 -19.8273 -19.8272 -19.8259 -19.8259 -19.8257 -19.8257
   -19.8193 -19.8193 -19.8193 -19.8192 -19.8170 -19.8170 -19.8169 -19.8169
   -19.8047 -19.8046 -19.8045 -19.8044 -19.7921 -19.7921 -19.7919 -19.7919
   -19.7794 -19.7793 -19.7144 -19.7143 -19.7076 -19.7076 -19.7075 -19.7075
   -19.7070 -19.7068 -19.6985 -19.6983 -19.6983 -19.6982 -19.6850 -19.6849
   -19.6747 -19.6747 -19.6747 -19.6746 -19.6162 -19.6160 -19.6137 -19.6136
    15.9533  15.9535  17.1738  17.1739  17.3066  17.3067  17.3067  17.3069
    17.4832  17.4832  17.5583  17.5585  17.5634  17.5635  17.5636  17.5636
    17.6238  17.6239  17.7923  17.7923  17.7925  17.7925  17.9377  17.9377
    17.9379  17.9379  18.1465  18.1465  18.1467  18.1467  18.5164  18.5164
    18.5165  18.5165  18.6551  18.6551  18.6553  18.6553  18.8024  18.8024
    18.8026  18.8026  18.9972  18.9972  18.9973  18.9974  19.2028  19.2028
    19.2028  19.2029  19.2247  19.2247  19.2248  19.2248  19.5258  19.5258
    19.5258  19.5258  19.7791  19.7793  19.8078  19.8079  19.8080  19.8080
    19.8118  19.8119  19.9227  19.9228  19.9228  19.9230  20.0801  20.0802
    20.2838  20.2839  20.2839  20.2839  20.3896  20.3896  20.3896  20.3896
    20.6785  20.6786  20.7522  20.7522  20.7523  20.7524  20.7995  20.7996
    20.8463  20.8464  20.8491  20.8492  21.5102  21.5103  21.5103  21.5103
    21.5156  21.5157  21.5467  21.5468  21.9080  21.9080  21.9081  21.9081
    22.0967  22.0969  22.1916  22.1916  22.1916  22.1916  22.2205  22.2205
    22.2207  22.2207  22.2994  22.2994  22.2995  22.2995  22.3109  22.3109
    22.3110  22.3111  22.3773  22.3773  22.3774  22.3774  22.6250  22.6250
    22.6252  22.6252  22.9520  22.9522  23.5503  23.5504  23.5504  23.5506
    23.5594  23.5596  23.6465  23.6465  23.8230  23.8231  23.8232  23.8232
    23.8739  23.8740  23.9053  23.9053  23.9840  23.9840  23.9841  23.9841
    24.0003  24.0003  24.0004  24.0004  24.2761  24.2762  24.4483  24.4483
    24.4484  24.4484  24.4766  24.4768  24.8668  24.8668  24.8668  24.8668
    24.9855  24.9857  24.9857  24.9859  25.8145  25.8147  26.3382  26.3383
    26.3384  26.3384  26.8263

          k = 0.0554 0.1662 0.1662 ( 30477 PWs)   bands (ev):

   -50.1391 -50.0655 -50.0655 -50.0458 -50.0279 -50.0177 -50.0113 -50.0113
   -50.0056 -50.0056 -49.9941 -49.9941 -49.9920 -49.9872 -49.9829 -49.9829
   -49.9824 -49.9823 -49.9763 -49.9763 -49.9697 -49.9697 -49.9624 -49.9370
   -49.9370 -49.9365 -49.9364 -49.9354 -49.9354 -49.9346 -49.9345 -49.9337
   -20.5215 -20.5215 -20.5102 -20.4984 -20.4589 -20.4550 -20.4550 -20.3167
   -20.3167 -20.3107 -20.3107 -20.2812 -20.2800 -20.2800 -20.2781 -20.2781
   -20.2740 -20.2740 -20.2687 -20.2687 -20.2500 -20.2500 -20.2475 -20.2475
   -20.1894 -20.1669 -20.1669 -20.1634 -20.1634 -20.1459 -20.1459 -20.1237
   -20.1237 -20.1076 -20.0913 -20.0362 -20.0153 -20.0153 -19.9791 -19.9790
   -19.9680 -19.9680 -19.9462 -19.9444 -19.9444 -19.9246 -19.9246 -19.9121
   -19.9121 -19.9095 -19.9095 -19.9077 -19.9076 -19.9076 -19.9064 -19.9064
   -19.8978 -19.8977 -19.8702 -19.8702 -19.8563 -19.7955 -19.7955 -19.7811
   -19.7811 -19.7581 -19.7538 -19.7450 -19.7305 -19.7305 -19.7299 -19.7299
   -19.7240 -19.7227 -19.7221 -19.7221 -19.7204 -19.7204 -19.7087 -19.7052
   -19.7052 -19.7023 -19.7022 -19.7022 -19.6943 -19.6927 -19.6927 -19.6919
   -19.6852 -19.6852 -19.6704 -19.6704 -19.6531 -19.6092 -19.5747 -19.5670
    15.3111  16.8386  16.8386  16.8454  17.0514  17.1037  17.1423  17.1423
    17.1553  17.1553  17.2875  17.2875  17.3153  17.4942  17.6572  17.6572
    17.6732  18.0308  18.0308  18.0576  18.0576  18.2211  18.2211  18.2225
    18.2225  18.2571  18.2571  18.3283  18.3999  18.3999  18.5236  18.5644
    18.5644  18.5829  18.5829  18.6132  18.7787  18.8493  18.8493  18.8554
    18.8554  18.8764  18.8764  19.0051  19.0051  19.2242  19.2242  19.3222
    19.3222  19.3472  19.4037  19.4037  19.4379  19.4379  19.4887  19.4887
    19.5034  19.6914  19.6914  19.6946  19.6946  19.7854  19.7854  19.8541
    19.8541  19.8967  19.9679  19.9679  20.0830  20.0830  20.0990  20.0990
    20.1343  20.1343  20.1746  20.2394  20.2394  20.2528  20.2652  20.2777
    20.3144  20.3144  20.3402  20.3855  20.4171  20.4171  20.4547  20.4793
    20.9914  21.0890  21.1273  21.1273  21.3780  21.3780  21.5407  21.5481
    21.5482  21.5536  21.5536  21.6250  21.6250  21.6459  21.6459  21.6717
    21.6717  21.8251  21.8899  21.9903  21.9903  22.0130  22.0130  22.0637
    22.1401  22.4197  22.4197  22.5321  22.5458  22.5458  22.5622  22.5622
    22.6022  22.6022  22.6266  22.6812  22.6812  22.7226  22.7535  22.7535
    22.8181  22.8181  22.8357  22.8771  22.8771  22.9732  23.0642  23.1221
    23.1221  23.1544  23.1544  23.2338  23.2450  23.2450  23.3691  23.3691
    23.5739  23.7671  23.9347  23.9374  23.9374  24.0753  24.0753  24.2450
    24.3541  24.3541  24.4182  24.4978  24.4978  24.5138  24.5187  24.7599
    24.7599  24.8607  24.8608  24.8644  24.8644  24.8820  24.8820  24.9252
    25.1252  25.4106  25.7531  25.7531  25.8491  25.8491  26.3729  26.3729
    26.8859  26.8859  26.9832

          k = 0.0554 0.1662 0.2769 ( 30439 PWs)   bands (ev):

   -50.1329 -50.0826 -50.0615 -50.0424 -50.0288 -50.0250 -50.0149 -50.0089
   -50.0044 -50.0019 -49.9951 -49.9941 -49.9935 -49.9894 -49.9887 -49.9809
   -49.9794 -49.9768 -49.9719 -49.9707 -49.9671 -49.9619 -49.9559 -49.9432
   -49.9398 -49.9394 -49.9393 -49.9369 -49.9368 -49.9357 -49.9343 -49.9338
   -20.5074 -20.5039 -20.4857 -20.4699 -20.4430 -20.4404 -20.4314 -20.3618
   -20.3532 -20.3207 -20.3194 -20.3163 -20.3162 -20.3129 -20.2923 -20.2887
   -20.2875 -20.2720 -20.2706 -20.2632 -20.2605 -20.2572 -20.2533 -20.2351
   -20.2175 -20.1822 -20.1676 -20.1507 -20.1502 -20.1371 -20.1310 -20.1291
   -20.1096 -20.1037 -20.0784 -20.0655 -20.0496 -20.0145 -20.0033 -19.9775
   -19.9681 -19.9632 -19.9420 -19.9330 -19.9284 -19.9136 -19.9124 -19.9098
   -19.9052 -19.9033 -19.8988 -19.8891 -19.8801 -19.8760 -19.8742 -19.8717
   -19.8715 -19.8677 -19.8361 -19.8338 -19.8251 -19.8207 -19.8111 -19.8101
   -19.7699 -19.7690 -19.7646 -19.7623 -19.7553 -19.7538 -19.7529 -19.7503
   -19.7413 -19.7357 -19.7279 -19.7235 -19.7234 -19.7210 -19.7153 -19.7113
   -19.7101 -19.7078 -19.7050 -19.7014 -19.6936 -19.6929 -19.6873 -19.6727
   -19.6722 -19.6702 -19.6663 -19.6550 -19.6436 -19.6425 -19.5855 -19.5727
    15.4768  16.7697  16.9359  16.9575  16.9621  17.1262  17.1950  17.2599
    17.2794  17.2956  17.3611  17.4080  17.4434  17.5689  17.5830  17.7612
    17.7882  17.8129  17.8518  17.9484  17.9925  18.0722  18.0907  18.1000
    18.1315  18.1741  18.2516  18.2798  18.2937  18.3088  18.3121  18.3340
    18.4574  18.4811  18.4904  18.5922  18.6311  18.6953  18.6992  18.8686
    18.8800  18.9042  18.9369  19.0532  19.0766  19.1387  19.1537  19.1844
    19.1954  19.2468  19.2767  19.3169  19.3934  19.4033  19.4354  19.5078
    19.5221  19.5603  19.6784  19.7894  19.8314  19.8594  19.8899  19.9170
    19.9494  19.9765  20.0052  20.0226  20.0920  20.1046  20.1302  20.1458
    20.1589  20.2343  20.2687  20.2955  20.3070  20.3733  20.4042  20.4107
    20.4771  20.5332  20.5349  20.5427  20.5514  20.5638  20.7858  20.7993
    20.8307  20.8842  20.9034  21.1243  21.1262  21.1305  21.2914  21.3293
    21.4066  21.4208  21.4569  21.5832  21.6175  21.6712  21.7408  21.8351
    21.8542  21.8901  21.9421  21.9794  22.0327  22.0442  22.1382  22.2195
    22.2492  22.3255  22.3313  22.3677  22.3830  22.4060  22.5123  22.5194
    22.5293  22.5361  22.6325  22.6557  22.7189  22.7603  22.8243  22.8372
    22.8547  22.8837  22.8861  23.0669  23.1601  23.1606  23.1802  23.2078
    23.2346  23.3862  23.4060  23.4469  23.4548  23.4588  23.4872  23.5037
    23.5112  23.5887  23.7012  23.7939  23.9499  24.0620  24.1600  24.1832
    24.1975  24.2687  24.2956  24.4059  24.4251  24.4283  24.5733  24.5741
    24.6337  24.6364  24.6982  24.7541  24.8604  24.8658  24.8768  24.8889
    24.9355  25.3150  25.3478  25.7340  25.8516  26.1760  26.2629  26.3576
    26.3731  26.4468  27.3560

          k = 0.0554 0.1662 0.3877 ( 30441 PWs)   bands (ev):

   -50.1238 -50.0983 -50.0556 -50.0390 -50.0375 -50.0235 -50.0208 -50.0091
   -50.0054 -50.0027 -49.9980 -49.9955 -49.9926 -49.9902 -49.9796 -49.9782
   -49.9775 -49.9767 -49.9723 -49.9617 -49.9586 -49.9549 -49.9524 -49.9499
   -49.9452 -49.9447 -49.9434 -49.9403 -49.9366 -49.9360 -49.9342 -49.9339
   -20.4829 -20.4766 -20.4522 -20.4327 -20.4197 -20.4189 -20.4077 -20.3985
   -20.3966 -20.3659 -20.3582 -20.3537 -20.3406 -20.3145 -20.3093 -20.2971
   -20.2966 -20.2944 -20.2906 -20.2809 -20.2582 -20.2447 -20.2429 -20.2244
   -20.2017 -20.1867 -20.1807 -20.1622 -20.1607 -20.1324 -20.1096 -20.1073
   -20.1020 -20.0898 -20.0811 -20.0638 -20.0483 -20.0362 -20.0359 -20.0184
   -19.9953 -19.9669 -19.9121 -19.9106 -19.9071 -19.9032 -19.9015 -19.8975
   -19.8917 -19.8832 -19.8824 -19.8587 -19.8526 -19.8489 -19.8473 -19.8446
   -19.8398 -19.8388 -19.8316 -19.8249 -19.8048 -19.8036 -19.8028 -19.7940
   -19.7904 -19.7892 -19.7880 -19.7879 -19.7876 -19.7820 -19.7819 -19.7563
   -19.7539 -19.7497 -19.7344 -19.7313 -19.7266 -19.7252 -19.7249 -19.7192
   -19.7165 -19.7138 -19.6991 -19.6989 -19.6949 -19.6915 -19.6867 -19.6825
   -19.6749 -19.6690 -19.6559 -19.6455 -19.6412 -19.6275 -19.6012 -19.5853
    15.7183  16.3847  17.0735  17.1206  17.1394  17.2556  17.3395  17.4147
    17.4274  17.4545  17.4703  17.4844  17.5656  17.5873  17.6061  17.6313
    17.6707  17.7046  17.7814  17.7887  17.8633  17.8813  17.9456  17.9756
    17.9867  17.9923  18.1147  18.1621  18.1628  18.1704  18.3438  18.3656
    18.4297  18.4394  18.4581  18.4958  18.5968  18.7921  18.7980  18.8131
    18.8270  18.9231  18.9426  18.9868  19.0014  19.0363  19.0545  19.0634
    19.1027  19.1183  19.2541  19.2547  19.2619  19.3683  19.5264  19.5296
    19.5390  19.6072  19.8030  19.8052  19.8535  19.8719  19.9074  19.9086
    19.9341  19.9739  19.9923  20.0586  20.0602  20.0660  20.1131  20.1288
    20.2363  20.2408  20.2619  20.4612  20.5210  20.5487  20.5721  20.6076
    20.6662  20.6877  20.6939  20.6974  20.7098  20.7132  20.7139  20.7473
    20.8397  20.9287  20.9789  21.0108  21.0689  21.0784  21.1667  21.1942
    21.4035  21.4880  21.5453  21.6155  21.6271  21.6788  21.7843  21.8423
    21.8607  21.8907  21.9353  21.9450  21.9541  21.9570  22.0277  22.0937
    22.1582  22.2150  22.3103  22.3351  22.3567  22.4169  22.4453  22.4656
    22.4751  22.5781  22.6201  22.6329  22.7172  22.7520  22.7592  22.8362
    22.8840  22.9237  23.0634  23.0991  23.1482  23.1510  23.2241  23.2397
    23.4197  23.4486  23.5152  23.6078  23.7268  23.7305  23.7514  23.7594
    23.7819  23.7931  23.8050  23.8959  23.9089  23.9884  23.9906  24.0868
    24.1624  24.2659  24.2717  24.3310  24.3317  24.3321  24.3360  24.3452
    24.4808  24.4850  24.5560  24.7935  24.8599  24.8613  24.8675  24.8722
    24.8725  25.0570  25.3301  25.5611  25.5990  25.7488  25.8962  26.0950
    26.5850  26.9072  27.1840

          k = 0.0554 0.1662-0.4985 ( 30454 PWs)   bands (ev):

   -50.1123 -50.1121 -50.0481 -50.0479 -50.0312 -50.0310 -50.0156 -50.0154
   -50.0010 -50.0008 -50.0006 -50.0005 -49.9916 -49.9914 -49.9786 -49.9784
   -49.9744 -49.9742 -49.9643 -49.9641 -49.9529 -49.9527 -49.9511 -49.9509
   -49.9487 -49.9485 -49.9448 -49.9446 -49.9364 -49.9362 -49.9341 -49.9339
   -20.4491 -20.4491 -20.4408 -20.4407 -20.4115 -20.4114 -20.3913 -20.3912
   -20.3897 -20.3895 -20.3888 -20.3887 -20.3516 -20.3515 -20.3057 -20.3057
   -20.2982 -20.2981 -20.2970 -20.2970 -20.2448 -20.2448 -20.2228 -20.2227
   -20.1928 -20.1927 -20.1857 -20.1856 -20.1414 -20.1413 -20.1091 -20.1090
   -20.0801 -20.0799 -20.0651 -20.0649 -20.0627 -20.0626 -20.0274 -20.0273
   -19.9987 -19.9985 -19.9115 -19.9113 -19.9018 -19.9017 -19.8771 -19.8769
   -19.8631 -19.8629 -19.8591 -19.8589 -19.8527 -19.8527 -19.8337 -19.8336
   -19.8242 -19.8241 -19.8178 -19.8178 -19.8151 -19.8150 -19.8130 -19.8129
   -19.8115 -19.8113 -19.7844 -19.7844 -19.7772 -19.7770 -19.7589 -19.7587
   -19.7571 -19.7570 -19.7428 -19.7427 -19.7406 -19.7405 -19.7212 -19.7210
   -19.7169 -19.7167 -19.7105 -19.7104 -19.6968 -19.6966 -19.6784 -19.6782
   -19.6779 -19.6778 -19.6456 -19.6456 -19.6215 -19.6213 -19.6040 -19.6039
    16.0259  16.0262  17.2394  17.2395  17.3273  17.3275  17.3597  17.3599
    17.4380  17.4380  17.5359  17.5359  17.6135  17.6137  17.6334  17.6336
    17.6778  17.6778  17.7172  17.7172  17.8236  17.8238  17.8458  17.8459
    17.8733  17.8734  18.0201  18.0202  18.2061  18.2063  18.2628  18.2629
    18.5417  18.5418  18.5590  18.5592  18.6122  18.6123  18.7007  18.7009
    18.9385  18.9386  18.9749  18.9750  19.0033  19.0034  19.0365  19.0365
    19.1062  19.1063  19.1722  19.1723  19.1916  19.1917  19.6579  19.6581
    19.7106  19.7107  19.7261  19.7263  19.7813  19.7815  19.8336  19.8336
    19.9889  19.9890  20.0014  20.0015  20.1823  20.1824  20.2080  20.2081
    20.2846  20.2847  20.3241  20.3241  20.3851  20.3851  20.5668  20.5668
    20.6732  20.6732  20.7659  20.7659  20.8411  20.8412  20.8487  20.8488
    20.8801  20.8801  20.9123  20.9124  21.3211  21.3212  21.3612  21.3613
    21.3966  21.3967  21.4455  21.4455  21.6179  21.6180  21.6224  21.6225
    21.8766  21.8767  22.0453  22.0454  22.0709  22.0711  22.1175  22.1176
    22.1276  22.1278  22.1914  22.1916  22.2538  22.2539  22.3610  22.3612
    22.5515  22.5517  22.5751  22.5752  22.6774  22.6775  22.9384  22.9386
    22.9704  22.9706  22.9757  22.9758  23.0434  23.0436  23.4913  23.4915
    23.5743  23.5745  23.5856  23.5856  23.8017  23.8017  23.8561  23.8561
    23.9802  23.9803  24.0326  24.0327  24.0336  24.0337  24.0545  24.0546
    24.0546  24.0547  24.0624  24.0625  24.0728  24.0728  24.2593  24.2593
    24.3974  24.3975  24.8171  24.8172  24.8645  24.8646  24.8695  24.8697
    25.1100  25.1101  25.3328  25.3330  25.3395  25.3395  25.8703  25.8705
    26.9278  26.9280  27.3517

          k = 0.0554 0.2769 0.2769 ( 30442 PWs)   bands (ev):

   -50.1269 -50.0780 -50.0780 -50.0412 -50.0392 -50.0223 -50.0132 -50.0132
   -50.0008 -50.0008 -49.9996 -49.9922 -49.9922 -49.9917 -49.9770 -49.9770
   -49.9765 -49.9765 -49.9681 -49.9681 -49.9635 -49.9635 -49.9509 -49.9429
   -49.9429 -49.9424 -49.9424 -49.9403 -49.9402 -49.9361 -49.9361 -49.9340
   -20.4939 -20.4939 -20.4588 -20.4387 -20.4273 -20.4194 -20.4194 -20.3611
   -20.3611 -20.3573 -20.3573 -20.3212 -20.3212 -20.2994 -20.2994 -20.2948
   -20.2948 -20.2922 -20.2922 -20.2848 -20.2848 -20.2584 -20.2583 -20.2583
   -20.2439 -20.2439 -20.1654 -20.1574 -20.1312 -20.1312 -20.1123 -20.1123
   -20.1035 -20.0970 -20.0651 -20.0651 -19.9952 -19.9951 -19.9948 -19.9677
   -19.9676 -19.9625 -19.9625 -19.9306 -19.9306 -19.9088 -19.9088 -19.8981
   -19.8981 -19.8924 -19.8919 -19.8919 -19.8784 -19.8784 -19.8574 -19.8574
   -19.8403 -19.8403 -19.8384 -19.8384 -19.8040 -19.8040 -19.8023 -19.8023
   -19.7884 -19.7884 -19.7866 -19.7789 -19.7583 -19.7583 -19.7568 -19.7505
   -19.7505 -19.7476 -19.7475 -19.7475 -19.7216 -19.7216 -19.7197 -19.7196
   -19.7170 -19.7101 -19.6970 -19.6951 -19.6951 -19.6931 -19.6852 -19.6852
   -19.6800 -19.6693 -19.6693 -19.6405 -19.6405 -19.6290 -19.5964 -19.5724
    15.6371  16.8926  16.8926  17.0510  17.0605  17.0605  17.1763  17.2610
    17.4265  17.4265  17.4792  17.4792  17.5813  17.6154  17.7008  17.7008
    17.7828  17.8223  17.8523  17.8523  17.8660  17.8660  17.9640  17.9641
    18.0044  18.0044  18.0895  18.0895  18.2878  18.3638  18.3638  18.3789
    18.3789  18.4194  18.4194  18.5023  18.5024  18.5979  18.5979  18.6708
    18.6708  18.7925  18.9361  18.9361  19.0028  19.0028  19.0092  19.2473
    19.2473  19.2646  19.2646  19.2995  19.3086  19.3086  19.3664  19.6955
    19.6955  19.8114  19.8114  19.8826  19.8826  19.9493  19.9493  19.9886
    19.9886  20.0048  20.0048  20.0924  20.1083  20.1803  20.1803  20.2561
    20.2692  20.3241  20.3241  20.4759  20.4759  20.4917  20.5460  20.5694
    20.5795  20.6087  20.6087  20.6317  20.6653  20.6781  20.6815  20.6815
    20.8328  20.8328  20.9633  20.9633  21.1914  21.1914  21.3266  21.3266
    21.3825  21.3825  21.4796  21.4796  21.5043  21.5754  21.5970  21.5970
    21.6346  21.6347  21.8082  21.8305  21.9610  21.9879  21.9879  21.9891
    21.9891  22.1114  22.1863  22.3173  22.3173  22.4613  22.4786  22.4786
    22.7569  22.7654  22.7654  22.8912  22.8912  22.9172  22.9172  23.0140
    23.0207  23.0344  23.0344  23.1177  23.1177  23.2219  23.2219  23.2291
    23.2291  23.2798  23.2798  23.5390  23.5658  23.5658  23.6225  23.7128
    23.7128  23.7166  23.7383  23.7383  23.8911  23.9425  24.1138  24.1138
    24.3143  24.4393  24.4393  24.4630  24.4667  24.4667  24.4726  24.4970
    24.6392  24.6392  24.6406  24.6406  24.6805  24.6805  24.6900  24.6900
    24.7862  25.1464  25.2380  25.2380  25.7481  25.7481  26.8048  26.8048
    27.0449  27.1034  27.1034

          k = 0.0554 0.2769 0.3877 ( 30445 PWs)   bands (ev):

   -50.1181 -50.0933 -50.0714 -50.0527 -50.0345 -50.0213 -50.0184 -50.0107
   -50.0075 -50.0038 -49.9991 -49.9945 -49.9895 -49.9817 -49.9768 -49.9739
   -49.9724 -49.9696 -49.9659 -49.9655 -49.9601 -49.9569 -49.9518 -49.9470
   -49.9469 -49.9463 -49.9462 -49.9424 -49.9410 -49.9388 -49.9355 -49.9344
   -20.4734 -20.4707 -20.4238 -20.4051 -20.4043 -20.4019 -20.4000 -20.3996
   -20.3886 -20.3532 -20.3532 -20.3521 -20.3392 -20.3373 -20.3211 -20.3194
   -20.3186 -20.3061 -20.3024 -20.2997 -20.2804 -20.2770 -20.2604 -20.2550
   -20.2488 -20.2197 -20.1903 -20.1892 -20.1602 -20.1361 -20.0942 -20.0849
   -20.0748 -20.0540 -20.0461 -20.0262 -20.0252 -20.0235 -20.0028 -19.9940
   -19.9551 -19.9543 -19.9374 -19.9246 -19.9166 -19.9142 -19.8973 -19.8942
   -19.8846 -19.8809 -19.8781 -19.8682 -19.8639 -19.8624 -19.8495 -19.8429
   -19.8342 -19.8328 -19.8322 -19.8311 -19.8238 -19.8115 -19.8013 -19.7983
   -19.7947 -19.7908 -19.7770 -19.7768 -19.7768 -19.7692 -19.7685 -19.7673
   -19.7550 -19.7456 -19.7434 -19.7376 -19.7336 -19.7328 -19.7312 -19.7306
   -19.7268 -19.7121 -19.7074 -19.7036 -19.7028 -19.6997 -19.6983 -19.6865
   -19.6737 -19.6734 -19.6576 -19.6283 -19.6216 -19.6147 -19.6124 -19.5796
    15.8709  16.5171  17.0697  17.1920  17.1997  17.2397  17.2774  17.3765
    17.5452  17.5477  17.5849  17.6035  17.6037  17.6164  17.6264  17.6549
    17.6624  17.7131  17.7508  17.7779  17.7902  17.8204  17.8905  17.8928
    17.9160  17.9364  18.0843  18.0990  18.1253  18.1307  18.1698  18.2343
    18.3006  18.3931  18.4563  18.5154  18.5193  18.5262  18.5689  18.5714
    18.6639  18.7490  18.7761  18.8515  18.8896  19.0178  19.0193  19.0549
    19.1256  19.2104  19.3377  19.3456  19.3744  19.3856  19.5528  19.5995
    19.6394  19.6604  19.7360  19.8766  19.9601  19.9625  20.0460  20.0695
    20.0853  20.1043  20.1140  20.1992  20.2354  20.2549  20.2584  20.3712
    20.3715  20.4406  20.4613  20.4852  20.4855  20.5185  20.5991  20.6488
    20.6888  20.6963  20.7285  20.7344  20.7489  20.8300  20.8576  20.8603
    20.8674  20.9388  20.9713  20.9855  21.0710  21.1335  21.1796  21.2746
    21.3358  21.3417  21.3743  21.3941  21.4315  21.4552  21.4791  21.4836
    21.5890  21.6042  21.6260  21.6872  21.8046  21.8374  21.8503  21.8997
    22.0110  22.0174  22.1819  22.2056  22.3270  22.3643  22.4437  22.5182
    22.6693  22.6959  22.7058  22.7521  22.8248  22.9136  22.9748  22.9827
    23.0644  23.0976  23.1450  23.2493  23.2584  23.2738  23.3438  23.4050
    23.4534  23.4539  23.6085  23.6109  23.6122  23.6582  23.8356  23.8795
    23.8979  23.9133  23.9532  23.9595  23.9734  23.9792  23.9819  24.0221
    24.0921  24.2401  24.3072  24.3252  24.3262  24.3379  24.3561  24.3608
    24.3686  24.4345  24.6376  24.6461  24.6514  24.6647  24.7162  24.7556
    25.0769  25.1965  25.2184  25.2323  25.2782  25.5967  26.4637  26.4729
    27.2361  27.4121  27.7081

          k = 0.0554 0.2769-0.4985 ( 30446 PWs)   bands (ev):

   -50.1069 -50.1067 -50.0630 -50.0628 -50.0286 -50.0284 -50.0135 -50.0133
   -50.0077 -50.0075 -49.9971 -49.9969 -49.9860 -49.9858 -49.9716 -49.9714
   -49.9690 -49.9688 -49.9633 -49.9631 -49.9555 -49.9553 -49.9531 -49.9529
   -49.9512 -49.9510 -49.9423 -49.9421 -49.9419 -49.9417 -49.9350 -49.9348
   -20.4434 -20.4433 -20.4389 -20.4388 -20.3824 -20.3823 -20.3793 -20.3791
   -20.3747 -20.3745 -20.3545 -20.3544 -20.3484 -20.3483 -20.3409 -20.3409
   -20.3386 -20.3386 -20.3137 -20.3136 -20.2667 -20.2666 -20.2595 -20.2593
   -20.2257 -20.2256 -20.1842 -20.1842 -20.1781 -20.1780 -20.0586 -20.0586
   -20.0562 -20.0561 -20.0384 -20.0383 -20.0222 -20.0221 -20.0036 -20.0036
   -19.9865 -19.9863 -19.8960 -19.8958 -19.8932 -19.8930 -19.8910 -19.8908
   -19.8817 -19.8816 -19.8801 -19.8800 -19.8675 -19.8675 -19.8589 -19.8587
   -19.8308 -19.8306 -19.8222 -19.8222 -19.8065 -19.8064 -19.8051 -19.8050
   -19.7880 -19.7879 -19.7817 -19.7816 -19.7787 -19.7786 -19.7665 -19.7664
   -19.7534 -19.7532 -19.7393 -19.7391 -19.7379 -19.7377 -19.7374 -19.7373
   -19.7272 -19.7270 -19.7160 -19.7159 -19.7025 -19.7024 -19.6841 -19.6840
   -19.6795 -19.6794 -19.6331 -19.6329 -19.6216 -19.6215 -19.5941 -19.5940
    16.1689  16.1691  17.2920  17.2922  17.3677  17.3679  17.3784  17.3785
    17.4283  17.4283  17.4627  17.4629  17.5404  17.5404  17.7215  17.7216
    17.7234  17.7236  17.8240  17.8240  17.8436  17.8437  17.8730  17.8731
    17.8860  17.8861  18.0077  18.0077  18.0221  18.0222  18.1267  18.1268
    18.3229  18.3230  18.4264  18.4266  18.5331  18.5331  18.6566  18.6566
    18.6574  18.6576  18.8053  18.8054  18.9041  18.9043  18.9315  18.9315
    19.2930  19.2930  19.3755  19.3756  19.4595  19.4596  19.4758  19.4760
    19.5103  19.5104  19.7745  19.7746  20.0191  20.0192  20.1178  20.1180
    20.1422  20.1422  20.2349  20.2351  20.2461  20.2462  20.2882  20.2882
    20.3754  20.3755  20.5178  20.5178  20.6263  20.6264  20.7254  20.7254
    20.7302  20.7302  20.8005  20.8006  20.8402  20.8404  20.8568  20.8570
    21.0228  21.0229  21.0504  21.0505  21.0663  21.0663  21.0800  21.0801
    21.2527  21.2527  21.2567  21.2568  21.3604  21.3605  21.3686  21.3687
    21.5771  21.5772  21.7941  21.7942  21.9448  21.9449  21.9640  21.9640
    22.0062  22.0063  22.0466  22.0467  22.1546  22.1548  22.3366  22.3367
    22.5331  22.5333  22.8437  22.8438  22.8812  22.8813  22.9436  22.9438
    23.0847  23.0849  23.3346  23.3348  23.3747  23.3749  23.4882  23.4884
    23.5821  23.5823  23.6545  23.6545  23.7351  23.7351  23.7353  23.7353
    23.9859  23.9859  23.9865  23.9866  24.0904  24.0905  24.1562  24.1563
    24.1565  24.1566  24.1763  24.1763  24.1965  24.1966  24.1983  24.1984
    24.2989  24.2989  24.6536  24.6538  24.6746  24.6747  24.7215  24.7215
    24.8714  24.8716  25.4082  25.4083  25.8043  25.8045  25.8798  25.8799
    27.5930  27.5931  27.9201

          k = 0.0554 0.3877 0.3877 ( 30430 PWs)   bands (ev):

   -50.1097 -50.0860 -50.0860 -50.0654 -50.0302 -50.0182 -50.0181 -50.0149
   -50.0093 -50.0051 -50.0051 -49.9985 -49.9748 -49.9748 -49.9691 -49.9690
   -49.9685 -49.9685 -49.9623 -49.9623 -49.9600 -49.9600 -49.9509 -49.9509
   -49.9504 -49.9504 -49.9484 -49.9484 -49.9429 -49.9374 -49.9374 -49.9352
   -20.4545 -20.4545 -20.3942 -20.3942 -20.3923 -20.3923 -20.3880 -20.3817
   -20.3765 -20.3765 -20.3593 -20.3507 -20.3507 -20.3417 -20.3417 -20.3184
   -20.3184 -20.3048 -20.3048 -20.3032 -20.3032 -20.3025 -20.3025 -20.2661
   -20.2661 -20.2647 -20.2267 -20.1837 -20.1780 -20.1270 -20.1270 -20.0581
   -20.0383 -20.0383 -20.0053 -20.0053 -19.9991 -19.9693 -19.9693 -19.9550
   -19.9550 -19.9539 -19.9538 -19.9382 -19.9382 -19.8913 -19.8913 -19.8911
   -19.8910 -19.8777 -19.8777 -19.8705 -19.8689 -19.8689 -19.8656 -19.8656
   -19.8531 -19.8531 -19.8234 -19.8234 -19.8156 -19.8156 -19.8122 -19.8036
   -19.8036 -19.7801 -19.7801 -19.7758 -19.7691 -19.7691 -19.7691 -19.7691
   -19.7517 -19.7470 -19.7470 -19.7459 -19.7459 -19.7392 -19.7317 -19.7247
   -19.7195 -19.7139 -19.7100 -19.7083 -19.7083 -19.7017 -19.6971 -19.6800
   -19.6800 -19.6752 -19.6752 -19.6289 -19.6090 -19.6059 -19.6059 -19.5810
    16.0933  16.7093  16.7093  17.2377  17.3074  17.3439  17.3815  17.3815
    17.4559  17.6049  17.6049  17.6260  17.6748  17.6748  17.7332  17.7332
    17.7381  17.7381  17.7551  17.7551  17.7724  17.7884  17.7884  17.8653
    17.8653  17.9365  17.9799  18.0480  18.0480  18.2352  18.2353  18.2391
    18.2391  18.2433  18.2433  18.2518  18.2518  18.4865  18.4865  18.4996
    18.4996  18.5515  18.5515  18.8019  18.8019  18.9263  19.1362  19.1362
    19.1421  19.1421  19.3008  19.4647  19.4647  19.4798  19.4875  19.5572
    19.5572  19.8780  19.8875  19.8875  20.0514  20.1450  20.1450  20.2627
    20.2721  20.2721  20.2786  20.2786  20.2896  20.2896  20.3187  20.3187
    20.3973  20.4447  20.5992  20.5992  20.6920  20.6921  20.7117  20.7612
    20.7624  20.7705  20.7852  20.8250  20.8746  20.8746  20.9023  20.9023
    21.0475  21.0475  21.0588  21.0638  21.0638  21.0940  21.0940  21.1365
    21.2173  21.2173  21.2447  21.2447  21.2697  21.2809  21.3166  21.3166
    21.3395  21.3395  21.4816  21.5518  21.5518  21.5820  21.5821  21.8572
    22.0056  22.0056  22.0197  22.0197  22.1018  22.1018  22.1637  22.2527
    22.5617  22.8830  22.9329  22.9329  22.9545  22.9545  23.2164  23.2164
    23.2280  23.2280  23.3254  23.3254  23.3853  23.3853  23.4541  23.4911
    23.6348  23.6348  23.7383  23.7662  23.7662  23.7827  23.7828  23.7919
    23.7919  23.8768  23.9847  24.0822  24.1159  24.1386  24.1386  24.1415
    24.1415  24.1846  24.2491  24.3026  24.3026  24.3486  24.3486  24.3628
    24.3628  24.3876  24.3926  24.3926  24.4096  24.4096  24.5776  24.6053
    24.6053  24.9356  25.0957  25.0957  25.8503  25.8503  27.1181  27.1181
    27.1884  27.1884  27.9051

          k = 0.0554 0.3877-0.4985 ( 30432 PWs)   bands (ev):

   -50.0990 -50.0988 -50.0767 -50.0765 -50.0248 -50.0246 -50.0142 -50.0140
   -50.0106 -50.0104 -50.0022 -50.0020 -49.9722 -49.9720 -49.9652 -49.9650
   -49.9640 -49.9638 -49.9619 -49.9617 -49.9579 -49.9577 -49.9559 -49.9557
   -49.9549 -49.9547 -49.9498 -49.9496 -49.9400 -49.9398 -49.9363 -49.9361
   -20.4286 -20.4286 -20.4270 -20.4269 -20.3758 -20.3757 -20.3756 -20.3756
   -20.3610 -20.3608 -20.3529 -20.3527 -20.3470 -20.3469 -20.3433 -20.3431
   -20.3262 -20.3261 -20.3140 -20.3139 -20.3046 -20.3044 -20.2925 -20.2923
   -20.2655 -20.2654 -20.2225 -20.2224 -20.1583 -20.1583 -20.0925 -20.0924
   -20.0029 -20.0029 -19.9944 -19.9944 -19.9823 -19.9821 -19.9690 -19.9688
   -19.9442 -19.9442 -19.9204 -19.9202 -19.9167 -19.9165 -19.9147 -19.9147
   -19.9070 -19.9070 -19.8737 -19.8736 -19.8600 -19.8599 -19.8529 -19.8527
   -19.8382 -19.8380 -19.8313 -19.8313 -19.8307 -19.8306 -19.8136 -19.8134
   -19.7939 -19.7938 -19.7933 -19.7932 -19.7622 -19.7620 -19.7588 -19.7588
   -19.7587 -19.7586 -19.7512 -19.7511 -19.7280 -19.7279 -19.7239 -19.7238
   -19.7203 -19.7202 -19.7153 -19.7151 -19.6979 -19.6977 -19.6932 -19.6931
   -19.6887 -19.6885 -19.6501 -19.6499 -19.6038 -19.6037 -19.5899 -19.5898
    16.3771  16.3773  16.9531  16.9533  17.4540  17.4540  17.4691  17.4692
    17.5527  17.5529  17.5769  17.5769  17.6053  17.6054  17.6086  17.6088
    17.7448  17.7448  17.7848  17.7848  17.8868  17.8869  17.9690  17.9691
    17.9786  17.9788  17.9983  17.9983  18.0029  18.0029  18.0492  18.0493
    18.2223  18.2224  18.2520  18.2521  18.3609  18.3611  18.3927  18.3928
    18.4139  18.4139  18.7024  18.7024  18.9335  18.9336  18.9462  18.9464
    19.2835  19.2836  19.2944  19.2945  19.5366  19.5366  19.6122  19.6122
    19.7398  19.7398  19.8094  19.8094  20.0073  20.0075  20.2571  20.2573
    20.3062  20.3062  20.3629  20.3629  20.4453  20.4453  20.4961  20.4961
    20.6050  20.6051  20.6229  20.6230  20.6490  20.6490  20.8098  20.8098
    20.8222  20.8223  20.8445  20.8446  20.8678  20.8678  20.8994  20.8995
    20.9529  20.9529  21.0020  21.0020  21.0082  21.0083  21.0358  21.0359
    21.1489  21.1490  21.1561  21.1562  21.3001  21.3001  21.3233  21.3234
    21.3298  21.3299  21.4823  21.4824  21.7239  21.7240  21.7266  21.7266
    21.7799  21.7801  21.7990  21.7991  21.9487  21.9488  22.1264  22.1266
    22.7607  22.7608  23.0209  23.0210  23.1327  23.1328  23.1761  23.1762
    23.2058  23.2060  23.4377  23.4378  23.5125  23.5127  23.5324  23.5326
    23.6071  23.6072  23.6885  23.6887  23.8016  23.8016  23.9391  23.9393
    24.0034  24.0035  24.0923  24.0924  24.1590  24.1590  24.1609  24.1609
    24.1790  24.1791  24.2445  24.2446  24.2475  24.2475  24.2819  24.2820
    24.2864  24.2864  24.3654  24.3655  24.4194  24.4196  24.4763  24.4764
    24.5933  24.5933  24.9498  24.9499  26.4953  26.4953  26.4990  26.4991
    27.8277  27.8278  27.8992

          k = 0.0554-0.4985-0.4985 ( 30444 PWs)   bands (ev):

   -50.0889 -50.0887 -50.0887 -50.0885 -50.0201 -50.0199 -50.0199 -50.0197
   -50.0068 -50.0067 -50.0067 -50.0065 -49.9602 -49.9601 -49.9600 -49.9600
   -49.9600 -49.9600 -49.9598 -49.9598 -49.9597 -49.9596 -49.9595 -49.9595
   -49.9595 -49.9595 -49.9593 -49.9593 -49.9380 -49.9379 -49.9379 -49.9377
   -20.4057 -20.4057 -20.4056 -20.4056 -20.4056 -20.4056 -20.4056 -20.4056
   -20.3361 -20.3361 -20.3359 -20.3359 -20.3359 -20.3359 -20.3358 -20.3358
   -20.3251 -20.3249 -20.3249 -20.3247 -20.3073 -20.3072 -20.3072 -20.3071
   -20.2691 -20.2690 -20.2690 -20.2689 -20.1264 -20.1264 -20.1264 -20.1263
   -19.9525 -19.9525 -19.9525 -19.9525 -19.9525 -19.9525 -19.9525 -19.9525
   -19.9467 -19.9467 -19.9466 -19.9466 -19.9466 -19.9466 -19.9464 -19.9464
   -19.8862 -19.8862 -19.8862 -19.8862 -19.8458 -19.8458 -19.8457 -19.8457
   -19.8457 -19.8457 -19.8455 -19.8455 -19.8433 -19.8433 -19.8433 -19.8433
   -19.7777 -19.7777 -19.7776 -19.7776 -19.7776 -19.7776 -19.7775 -19.7775
   -19.7431 -19.7430 -19.7430 -19.7429 -19.7296 -19.7296 -19.7296 -19.7296
   -19.7077 -19.7077 -19.7077 -19.7077 -19.7031 -19.7030 -19.7030 -19.7029
   -19.6720 -19.6719 -19.6719 -19.6717 -19.5930 -19.5930 -19.5930 -19.5930
    16.6423  16.6425  16.6425  16.6427  17.5138  17.5139  17.5139  17.5140
    17.6042  17.6043  17.6043  17.6043  17.6452  17.6453  17.6453  17.6453
    17.7846  17.7846  17.7848  17.7848  17.7848  17.7848  17.7849  17.7850
    18.1009  18.1009  18.1011  18.1011  18.1011  18.1011  18.1013  18.1013
    18.1937  18.1938  18.1938  18.1938  18.1938  18.1938  18.1938  18.1938
    18.4561  18.4562  18.4562  18.4563  19.0977  19.0977  19.0979  19.0979
    19.0979  19.0979  19.0981  19.0981  19.6612  19.6612  19.6613  19.6613
    19.8865  19.8866  19.8866  19.8867  20.1596  20.1597  20.1597  20.1598
    20.3818  20.3819  20.3819  20.3819  20.3906  20.3907  20.3907  20.3907
    20.7367  20.7367  20.7367  20.7368  20.7368  20.7368  20.7368  20.7368
    20.8470  20.8471  20.8471  20.8472  20.9826  20.9826  20.9826  20.9827
    20.9973  20.9973  20.9973  20.9974  21.1364  21.1365  21.1365  21.1366
    21.1440  21.1440  21.1440  21.1440  21.1441  21.1442  21.1442  21.1442
    21.4109  21.4110  21.4110  21.4111  21.5425  21.5425  21.5425  21.5426
    21.5426  21.5426  21.5426  21.5427  22.0372  22.0374  22.0374  22.0376
    22.9952  22.9953  22.9953  22.9955  23.1922  23.1923  23.1923  23.1924
    23.3993  23.3993  23.3994  23.3994  23.3995  23.3995  23.3996  23.3996
    23.9114  23.9115  23.9115  23.9116  24.0353  24.0353  24.0354  24.0355
    24.0355  24.0355  24.0356  24.0356  24.0360  24.0361  24.0361  24.0362
    24.2670  24.2671  24.2671  24.2672  24.2962  24.2962  24.2962  24.2962
    24.2962  24.2962  24.2963  24.2963  24.3070  24.3070  24.3070  24.3070
    24.5619  24.5620  24.5620  24.5621  27.1778  27.1779  27.1779  27.1779
    27.1780  27.1780  27.1780

          k = 0.1662 0.1662 0.1662 ( 30452 PWs)   bands (ev):

   -50.1360 -50.0635 -50.0635 -50.0635 -50.0169 -50.0169 -50.0169 -50.0101
   -50.0101 -50.0101 -49.9968 -49.9830 -49.9829 -49.9829 -49.9829 -49.9829
   -49.9829 -49.9824 -49.9824 -49.9823 -49.9632 -49.9631 -49.9631 -49.9370
   -49.9370 -49.9369 -49.9365 -49.9365 -49.9365 -49.9365 -49.9365 -49.9364
   -20.5111 -20.5111 -20.5111 -20.4759 -20.4477 -20.4477 -20.4477 -20.3172
   -20.3172 -20.3172 -20.2990 -20.2990 -20.2990 -20.2990 -20.2990 -20.2990
   -20.2797 -20.2797 -20.2797 -20.2797 -20.2797 -20.2797 -20.2154 -20.2154
   -20.2154 -20.1764 -20.1764 -20.1764 -20.1305 -20.1305 -20.1305 -20.1305
   -20.1305 -20.1305 -20.0500 -20.0500 -20.0500 -19.9644 -19.9644 -19.9644
   -19.9428 -19.9428 -19.9428 -19.9428 -19.9428 -19.9428 -19.9399 -19.9399
   -19.9399 -19.9026 -19.9026 -19.9026 -19.8973 -19.8973 -19.8973 -19.8973
   -19.8973 -19.8973 -19.8349 -19.8349 -19.8349 -19.7933 -19.7933 -19.7933
   -19.7830 -19.7830 -19.7830 -19.7435 -19.7435 -19.7435 -19.7362 -19.7362
   -19.7362 -19.7203 -19.7202 -19.7202 -19.7202 -19.7202 -19.7202 -19.7103
   -19.7103 -19.7103 -19.6945 -19.6945 -19.6945 -19.6884 -19.6884 -19.6884
   -19.6864 -19.6864 -19.6544 -19.6544 -19.6544 -19.6314 -19.5723 -19.5723
    15.3937  16.8954  16.8954  16.8954  17.0516  17.1919  17.1919  17.1919
    17.2067  17.2067  17.2067  17.3521  17.3521  17.3521  17.7043  17.7043
    17.7043  18.0873  18.0873  18.0873  18.0873  18.0873  18.0873  18.1000
    18.1000  18.1000  18.2813  18.2813  18.2813  18.5004  18.5004  18.5004
    18.5235  18.5236  18.5236  18.5236  18.5236  18.5236  18.8619  18.8619
    18.8619  18.8619  18.8619  18.8619  19.0412  19.0412  19.0412  19.3702
    19.3702  19.3702  19.5209  19.5210  19.5210  19.5210  19.5210  19.5210
    19.6572  19.6572  19.6572  19.7349  19.7350  19.7350  19.7350  19.7350
    19.7350  20.0385  20.0385  20.0385  20.2150  20.2150  20.2150  20.2357
    20.2487  20.2487  20.2487  20.2487  20.2487  20.2487  20.2820  20.2820
    20.2821  20.3425  20.3425  20.4774  20.4774  20.4774  20.4946  20.4946
    21.0159  21.0159  21.0160  21.2962  21.2962  21.2962  21.3518  21.3518
    21.3518  21.5342  21.5343  21.5343  21.7302  21.7302  21.7302  21.7833
    21.7833  21.7833  21.7833  21.7833  21.7833  22.1893  22.1893  22.1893
    22.3545  22.3545  22.3545  22.4727  22.4728  22.4728  22.5017  22.5018
    22.5018  22.5721  22.5721  22.5721  22.5721  22.5721  22.5721  22.6568
    22.6568  22.9609  23.1351  23.1352  23.1352  23.1352  23.1352  23.1352
    23.3879  23.3879  23.3879  23.4014  23.4014  23.4014  23.4917  23.4917
    23.4917  23.7919  23.7919  23.7919  23.9623  23.9624  23.9624  24.1607
    24.1607  24.1607  24.2444  24.2444  24.5399  24.5399  24.5399  24.7624
    24.7624  24.7624  24.7624  24.7624  24.7624  24.8751  24.8751  24.8751
    25.3537  25.3537  25.3538  25.8410  25.8410  25.8410  26.9382  26.9382
    26.9382  26.9382  26.9383

          k = 0.1662 0.1662 0.2769 ( 30426 PWs)   bands (ev):

   -50.1299 -50.0803 -50.0595 -50.0595 -50.0277 -50.0277 -50.0152 -50.0078
   -50.0078 -50.0014 -49.9932 -49.9891 -49.9891 -49.9829 -49.9828 -49.9825
   -49.9824 -49.9779 -49.9721 -49.9721 -49.9648 -49.9570 -49.9570 -49.9431
   -49.9404 -49.9404 -49.9388 -49.9387 -49.9370 -49.9369 -49.9366 -49.9365
   -20.5009 -20.4907 -20.4907 -20.4438 -20.4333 -20.4333 -20.4256 -20.3641
   -20.3384 -20.3384 -20.3171 -20.3171 -20.3126 -20.3126 -20.3122 -20.3122
   -20.2945 -20.2945 -20.2825 -20.2825 -20.2808 -20.2808 -20.2579 -20.2410
   -20.1936 -20.1936 -20.1756 -20.1756 -20.1377 -20.1377 -20.1062 -20.1062
   -20.0915 -20.0915 -20.0818 -20.0818 -19.9985 -19.9985 -19.9928 -19.9786
   -19.9786 -19.9610 -19.9610 -19.9275 -19.9078 -19.9077 -19.9031 -19.9031
   -19.8982 -19.8982 -19.8966 -19.8966 -19.8940 -19.8926 -19.8779 -19.8779
   -19.8727 -19.8727 -19.8270 -19.8109 -19.8036 -19.8036 -19.8017 -19.8016
   -19.8016 -19.7739 -19.7736 -19.7736 -19.7626 -19.7626 -19.7523 -19.7523
   -19.7518 -19.7518 -19.7407 -19.7239 -19.7239 -19.7200 -19.7199 -19.7178
   -19.7152 -19.7152 -19.7041 -19.7041 -19.6920 -19.6789 -19.6750 -19.6750
   -19.6664 -19.6663 -19.6571 -19.6564 -19.6454 -19.6454 -19.5826 -19.5757
    15.5561  16.8247  16.9922  17.0072  17.0072  17.1052  17.2871  17.2871
    17.3088  17.3088  17.3571  17.4254  17.4797  17.4797  17.6174  17.7944
    17.7945  17.8278  17.8659  17.8659  17.9310  17.9310  18.0561  18.1406
    18.1406  18.1959  18.1959  18.1972  18.1972  18.2885  18.3964  18.3964
    18.4017  18.4017  18.4244  18.4244  18.5121  18.5121  18.6143  18.6143
    18.8731  18.8731  18.8941  18.8942  19.1115  19.1115  19.2437  19.2437
    19.2911  19.2912  19.3035  19.3526  19.3831  19.3831  19.5773  19.5774
    19.5826  19.5826  19.7431  19.7431  19.7652  19.7652  19.8802  19.9629
    19.9629  20.0533  20.1359  20.1359  20.1438  20.1794  20.1794  20.2510
    20.2510  20.2632  20.2632  20.3689  20.3762  20.3875  20.3875  20.3926
    20.5601  20.5740  20.5868  20.5875  20.5875  20.6135  20.7866  20.7866
    20.8506  20.8507  21.0326  21.0327  21.0430  21.0489  21.2725  21.3071
    21.3071  21.4746  21.4746  21.4944  21.5050  21.5050  21.7499  21.8907
    21.8907  21.9252  21.9252  21.9989  22.0266  22.0266  22.1074  22.1074
    22.1345  22.2715  22.2715  22.3453  22.3453  22.3646  22.3646  22.4741
    22.5071  22.5071  22.5314  22.5704  22.5704  22.6978  22.7166  22.8143
    22.8354  22.8354  23.1841  23.1841  23.2138  23.2396  23.2396  23.4632
    23.4632  23.4679  23.4679  23.4739  23.4739  23.5209  23.6089  23.6089
    23.6345  23.6345  23.6497  23.9886  23.9886  23.9964  24.0073  24.0790
    24.1542  24.2473  24.2474  24.3698  24.4815  24.5063  24.5063  24.5806
    24.5807  24.5826  24.5826  24.7680  24.7680  24.7824  24.8477  24.8477
    24.8809  24.8809  25.2410  26.0250  26.0250  26.4050  26.4050  26.5638
    26.7781  26.8452  26.8452

          k = 0.1662 0.1662 0.3877 ( 30431 PWs)   bands (ev):

   -50.1210 -50.0958 -50.0538 -50.0538 -50.0376 -50.0376 -50.0127 -50.0057
   -50.0045 -50.0044 -49.9950 -49.9949 -49.9828 -49.9827 -49.9825 -49.9824
   -49.9775 -49.9738 -49.9671 -49.9622 -49.9622 -49.9521 -49.9513 -49.9513
   -49.9461 -49.9461 -49.9420 -49.9420 -49.9369 -49.9368 -49.9366 -49.9365
   -20.4799 -20.4613 -20.4613 -20.4122 -20.4122 -20.4096 -20.4036 -20.3929
   -20.3822 -20.3822 -20.3530 -20.3530 -20.3178 -20.3178 -20.3076 -20.3076
   -20.3074 -20.3042 -20.3042 -20.2994 -20.2855 -20.2855 -20.2620 -20.2620
   -20.2154 -20.2154 -20.1381 -20.1381 -20.1319 -20.1319 -20.1086 -20.1086
   -20.0776 -20.0775 -20.0535 -20.0535 -20.0406 -20.0406 -20.0133 -20.0133
   -19.9872 -19.9872 -19.9325 -19.9093 -19.8960 -19.8960 -19.8957 -19.8957
   -19.8778 -19.8753 -19.8753 -19.8590 -19.8590 -19.8582 -19.8511 -19.8511
   -19.8436 -19.8436 -19.8364 -19.8272 -19.8221 -19.8221 -19.8203 -19.7865
   -19.7865 -19.7856 -19.7856 -19.7801 -19.7800 -19.7710 -19.7710 -19.7659
   -19.7593 -19.7593 -19.7365 -19.7325 -19.7325 -19.7249 -19.7216 -19.7216
   -19.7195 -19.7195 -19.7176 -19.7176 -19.7117 -19.7082 -19.6721 -19.6610
   -19.6599 -19.6599 -19.6436 -19.6436 -19.6402 -19.6280 -19.5977 -19.5865
    15.7929  16.4465  17.1288  17.1699  17.1700  17.2121  17.4203  17.4203
    17.4607  17.4607  17.4657  17.5343  17.5506  17.5785  17.6160  17.6160
    17.6665  17.6665  17.7548  17.7548  17.8530  17.9068  17.9068  17.9202
    17.9202  18.0334  18.1915  18.1915  18.2074  18.2074  18.2364  18.2364
    18.3501  18.3501  18.3519  18.3519  18.5810  18.5810  18.6344  18.6344
    18.8870  18.8870  18.9562  18.9562  19.0163  19.0163  19.0898  19.0898
    19.1739  19.1740  19.2117  19.2117  19.4279  19.4624  19.4625  19.5563
    19.6672  19.6672  19.7140  19.7913  19.7913  19.8683  19.8683  19.9895
    20.0040  20.0040  20.0174  20.0175  20.2601  20.2716  20.2716  20.2759
    20.2759  20.3617  20.4641  20.4641  20.4900  20.6276  20.6276  20.6755
    20.6755  20.6785  20.6897  20.6897  20.6926  20.7358  20.7377  20.7377
    20.7905  20.8188  20.9744  20.9786  21.0434  21.2425  21.2536  21.2536
    21.3531  21.3531  21.3687  21.3687  21.4329  21.4329  21.6581  21.6581
    21.7535  21.8756  22.0150  22.0569  22.0570  22.0777  22.0778  22.2194
    22.2490  22.2490  22.2546  22.2546  22.2938  22.2938  22.3601  22.4018
    22.4018  22.4205  22.4205  22.5275  22.5275  22.6148  22.6148  22.8045
    23.0507  23.0561  23.1468  23.1533  23.1535  23.1535  23.2879  23.2879
    23.5537  23.5537  23.6888  23.6889  23.7198  23.7621  23.7621  23.7624
    23.7795  23.7796  23.8035  23.8035  23.8478  23.8478  23.9127  24.3374
    24.3464  24.3464  24.3489  24.3507  24.3507  24.3541  24.3541  24.4332
    24.4332  24.6148  24.6570  24.7266  24.7526  24.7526  24.7779  24.7779
    24.8174  24.8175  25.0748  25.8576  25.8576  26.1195  26.2653  26.2653
    26.7000  26.7000  27.2311

          k = 0.1662 0.1662-0.4985 ( 30464 PWs)   bands (ev):

   -50.1096 -50.1094 -50.0465 -50.0465 -50.0463 -50.0463 -50.0096 -50.0094
   -50.0002 -50.0002 -50.0000 -50.0000 -49.9828 -49.9826 -49.9826 -49.9825
   -49.9702 -49.9700 -49.9638 -49.9636 -49.9536 -49.9536 -49.9534 -49.9534
   -49.9463 -49.9463 -49.9462 -49.9461 -49.9369 -49.9367 -49.9367 -49.9365
   -20.4491 -20.4490 -20.4246 -20.4245 -20.4244 -20.4243 -20.3853 -20.3853
   -20.3851 -20.3851 -20.3573 -20.3573 -20.3507 -20.3505 -20.3161 -20.3161
   -20.3160 -20.3160 -20.2941 -20.2941 -20.2941 -20.2941 -20.2391 -20.2391
   -20.2390 -20.2390 -20.1282 -20.1282 -20.1281 -20.1281 -20.0861 -20.0861
   -20.0860 -20.0860 -20.0464 -20.0464 -20.0463 -20.0463 -20.0184 -20.0184
   -20.0183 -20.0183 -19.8955 -19.8954 -19.8954 -19.8953 -19.8860 -19.8858
   -19.8738 -19.8738 -19.8590 -19.8589 -19.8465 -19.8465 -19.8463 -19.8463
   -19.8196 -19.8196 -19.8195 -19.8195 -19.8167 -19.8167 -19.8166 -19.8165
   -19.8141 -19.8141 -19.8140 -19.8140 -19.7658 -19.7658 -19.7449 -19.7449
   -19.7448 -19.7448 -19.7442 -19.7442 -19.7440 -19.7440 -19.7336 -19.7335
   -19.7313 -19.7311 -19.7189 -19.7188 -19.7188 -19.7186 -19.6662 -19.6660
   -19.6489 -19.6489 -19.6488 -19.6488 -19.6172 -19.6170 -19.6043 -19.6042
    16.0946  16.0948  17.2929  17.2931  17.3709  17.3709  17.3767  17.3768
    17.3768  17.3769  17.5804  17.5804  17.5806  17.5806  17.6607  17.6607
    17.6609  17.6609  17.6775  17.6777  17.7799  17.7799  17.9065  17.9065
    17.9067  17.9067  18.0717  18.0717  18.0717  18.0718  18.2783  18.2783
    18.2783  18.2783  18.5253  18.5254  18.5255  18.5255  18.8142  18.8142
    18.8142  18.8142  18.9132  18.9132  18.9133  18.9134  19.0529  19.0529
    19.0529  19.0529  19.3335  19.3335  19.3336  19.3336  19.5568  19.5569
    19.7659  19.7659  19.7660  19.7661  19.7890  19.7891  19.8815  19.8815
    19.8816  19.8816  20.2800  20.2800  20.2801  20.2801  20.3268  20.3269
    20.3287  20.3287  20.3287  20.3287  20.5593  20.5593  20.5593  20.5593
    20.6329  20.6330  20.8303  20.8305  20.8494  20.8496  20.8804  20.8804
    20.8805  20.8805  21.0030  21.0030  21.2388  21.2389  21.2389  21.2390
    21.2806  21.2807  21.3653  21.3653  21.3952  21.3952  21.3953  21.3953
    21.9828  21.9828  21.9828  21.9828  22.1646  22.1646  22.1648  22.1648
    22.1696  22.1698  22.2553  22.2553  22.2555  22.2555  22.3704  22.3704
    22.3705  22.3706  22.4214  22.4214  22.4215  22.4216  22.7006  22.7008
    22.9185  22.9187  23.3962  23.3962  23.4218  23.4218  23.4220  23.4220
    23.4752  23.4752  23.4754  23.4755  23.4756  23.4757  24.0249  24.0250
    24.0250  24.0250  24.0752  24.0752  24.0753  24.0753  24.1001  24.1001
    24.1002  24.1002  24.1086  24.1086  24.1087  24.1087  24.1537  24.1537
    24.5068  24.5068  24.7937  24.7938  24.7938  24.7940  24.8614  24.8616
    25.3021  25.3021  25.3021  25.3021  25.4174  25.4176  26.5023  26.5023
    26.5025  26.5025  27.7806

          k = 0.1662 0.2769 0.2769 ( 30438 PWs)   bands (ev):

   -50.1240 -50.0759 -50.0759 -50.0558 -50.0398 -50.0254 -50.0254 -50.0074
   -50.0057 -49.9914 -49.9914 -49.9886 -49.9886 -49.9840 -49.9770 -49.9770
   -49.9765 -49.9765 -49.9726 -49.9726 -49.9591 -49.9591 -49.9522 -49.9429
   -49.9429 -49.9424 -49.9424 -49.9410 -49.9410 -49.9383 -49.9383 -49.9370
   -20.4847 -20.4847 -20.4683 -20.4194 -20.4141 -20.4141 -20.4088 -20.3604
   -20.3604 -20.3489 -20.3489 -20.3228 -20.3228 -20.3184 -20.3184 -20.3110
   -20.3110 -20.3070 -20.3070 -20.3070 -20.3043 -20.3043 -20.2514 -20.2514
   -20.2177 -20.2177 -20.2137 -20.1290 -20.1101 -20.1101 -20.1085 -20.0986
   -20.0986 -20.0702 -20.0701 -20.0343 -20.0209 -20.0209 -19.9861 -19.9470
   -19.9470 -19.9435 -19.9435 -19.9398 -19.9398 -19.9319 -19.9319 -19.8880
   -19.8880 -19.8875 -19.8796 -19.8796 -19.8746 -19.8746 -19.8719 -19.8719
   -19.8580 -19.8580 -19.8380 -19.8380 -19.8035 -19.8035 -19.7981 -19.7924
   -19.7924 -19.7766 -19.7751 -19.7719 -19.7719 -19.7691 -19.7587 -19.7587
   -19.7577 -19.7577 -19.7563 -19.7497 -19.7496 -19.7268 -19.7268 -19.7248
   -19.7248 -19.7230 -19.7043 -19.6920 -19.6841 -19.6802 -19.6770 -19.6748
   -19.6748 -19.6491 -19.6491 -19.6446 -19.6446 -19.6313 -19.5904 -19.5774
    15.7122  16.9316  16.9316  17.0988  17.1031  17.1031  17.1334  17.3392
    17.3835  17.4636  17.4636  17.5521  17.5521  17.6181  17.7107  17.7118
    17.7118  17.7121  17.7121  17.8179  17.8970  17.8971  17.9673  17.9673
    18.1158  18.1158  18.1823  18.1823  18.2332  18.2332  18.2651  18.2891
    18.2891  18.3109  18.3109  18.4238  18.4238  18.5563  18.5563  18.5720
    18.6164  18.6165  18.8767  18.8767  19.1375  19.1375  19.2255  19.2386
    19.2444  19.2444  19.3168  19.3168  19.3534  19.3534  19.5740  19.5811
    19.5812  19.7786  19.7786  19.8276  19.8276  19.9190  19.9719  19.9719
    20.0241  20.0241  20.0858  20.1412  20.1412  20.2122  20.2122  20.3849
    20.3926  20.4181  20.4181  20.4602  20.5509  20.5509  20.5546  20.6047
    20.6159  20.6160  20.6326  20.6916  20.7402  20.7402  20.7553  20.7575
    20.7575  20.8441  20.9262  20.9262  21.0571  21.0571  21.2340  21.2367
    21.2367  21.3471  21.3686  21.3686  21.6119  21.6119  21.6577  21.6578
    21.7382  21.7383  21.7508  21.8137  21.8137  22.0341  22.1069  22.1086
    22.1328  22.1472  22.1472  22.1915  22.1915  22.4493  22.4493  22.5053
    22.6109  22.6266  22.6267  22.6714  22.6714  22.6992  22.7382  22.7382
    22.8296  22.8296  22.8852  22.9732  22.9732  23.2644  23.2644  23.4889
    23.5259  23.5259  23.5626  23.5626  23.7595  23.7596  23.7640  23.7729
    23.8320  23.8320  23.8337  23.8337  23.9887  24.0391  24.0391  24.0932
    24.1465  24.1577  24.4449  24.4854  24.4854  24.5070  24.5070  24.5592
    24.5978  24.5978  24.5998  24.5998  24.6777  24.6777  24.7705  24.7705
    24.7738  24.7738  24.7936  25.9401  26.3229  26.3229  26.7939  26.7939
    27.0230  27.0230  27.3904

          k = 0.1662 0.2769 0.3877 ( 30446 PWs)   bands (ev):

   -50.1153 -50.0909 -50.0694 -50.0511 -50.0503 -50.0349 -50.0222 -50.0130
   -50.0026 -49.9939 -49.9888 -49.9877 -49.9854 -49.9814 -49.9763 -49.9753
   -49.9733 -49.9711 -49.9657 -49.9632 -49.9622 -49.9539 -49.9516 -49.9479
   -49.9479 -49.9475 -49.9455 -49.9425 -49.9415 -49.9408 -49.9379 -49.9372
   -20.4679 -20.4597 -20.4378 -20.4043 -20.3992 -20.3973 -20.3891 -20.3857
   -20.3662 -20.3597 -20.3513 -20.3507 -20.3506 -20.3434 -20.3288 -20.3266
   -20.3225 -20.3186 -20.3046 -20.3035 -20.3022 -20.2941 -20.2929 -20.2672
   -20.2648 -20.2394 -20.1729 -20.1265 -20.1258 -20.0860 -20.0793 -20.0783
   -20.0781 -20.0577 -20.0465 -20.0427 -20.0344 -20.0147 -19.9783 -19.9781
   -19.9778 -19.9717 -19.9581 -19.9268 -19.9107 -19.8966 -19.8850 -19.8812
   -19.8799 -19.8730 -19.8725 -19.8710 -19.8673 -19.8568 -19.8555 -19.8484
   -19.8448 -19.8414 -19.8374 -19.8367 -19.8331 -19.8304 -19.8197 -19.8075
   -19.7955 -19.7923 -19.7919 -19.7812 -19.7806 -19.7734 -19.7672 -19.7640
   -19.7531 -19.7517 -19.7463 -19.7451 -19.7405 -19.7393 -19.7370 -19.7352
   -19.7347 -19.7269 -19.7259 -19.7027 -19.6930 -19.6914 -19.6696 -19.6676
   -19.6545 -19.6485 -19.6481 -19.6322 -19.6244 -19.6185 -19.6052 -19.5840
    15.9397  16.5675  17.0841  17.2110  17.2377  17.2378  17.2649  17.4122
    17.4865  17.5029  17.5065  17.5659  17.6026  17.6140  17.6469  17.6531
    17.6603  17.7121  17.7372  17.8145  17.8472  17.8656  17.8710  17.9493
    17.9798  18.0244  18.0402  18.0895  18.1055  18.1314  18.2143  18.2513
    18.2655  18.2880  18.3309  18.3458  18.3678  18.3728  18.3986  18.6272
    18.7610  18.8024  18.8672  18.8752  18.9062  18.9149  19.0783  19.1027
    19.1184  19.2994  19.3640  19.3886  19.4158  19.4185  19.5427  19.5847
    19.5932  19.6584  19.6883  19.7966  19.8541  19.9661  19.9826  20.1200
    20.1231  20.1345  20.1622  20.3045  20.3373  20.4053  20.4107  20.4121
    20.4672  20.4832  20.5150  20.5452  20.5498  20.5509  20.5975  20.6437
    20.6489  20.6993  20.7059  20.7253  20.8109  20.8338  20.8512  20.8689
    20.9052  20.9184  20.9315  20.9396  21.0279  21.1145  21.1602  21.2130
    21.2171  21.2542  21.2939  21.3296  21.3388  21.4029  21.4438  21.4561
    21.5056  21.5859  21.7192  21.7797  21.8595  21.9467  21.9696  22.1112
    22.1160  22.2063  22.2210  22.2783  22.3405  22.3446  22.3590  22.3760
    22.3955  22.4403  22.5718  22.5951  22.6198  22.6561  22.7426  22.7719
    22.7797  22.9901  23.0004  23.0187  23.0754  23.1263  23.4187  23.5506
    23.6031  23.6300  23.6346  23.6508  23.6984  23.7055  23.8414  23.9144
    23.9304  23.9559  24.0066  24.0233  24.0238  24.0430  24.0457  24.0648
    24.2245  24.3143  24.3330  24.3565  24.3594  24.3795  24.3892  24.4235
    24.4432  24.4784  24.6195  24.6273  24.6276  24.6593  24.6904  24.7204
    24.7297  25.2732  25.2805  25.7865  25.9635  26.2064  26.4577  26.7041
    27.0284  27.3941  27.5489

          k = 0.1662 0.2769-0.4985 ( 30424 PWs)   bands (ev):

   -50.1043 -50.1041 -50.0611 -50.0609 -50.0434 -50.0432 -50.0181 -50.0179
   -49.9987 -49.9985 -49.9867 -49.9865 -49.9855 -49.9853 -49.9743 -49.9741
   -49.9663 -49.9662 -49.9630 -49.9628 -49.9559 -49.9557 -49.9550 -49.9548
   -49.9494 -49.9492 -49.9441 -49.9439 -49.9422 -49.9420 -49.9376 -49.9374
   -20.4407 -20.4407 -20.4272 -20.4271 -20.4008 -20.4007 -20.3760 -20.3758
   -20.3735 -20.3733 -20.3487 -20.3485 -20.3438 -20.3437 -20.3381 -20.3380
   -20.3258 -20.3257 -20.3181 -20.3180 -20.3011 -20.3009 -20.2794 -20.2792
   -20.2671 -20.2670 -20.1325 -20.1325 -20.1256 -20.1256 -20.0684 -20.0684
   -20.0457 -20.0457 -20.0283 -20.0282 -20.0171 -20.0170 -20.0117 -20.0116
   -20.0012 -20.0010 -19.9012 -19.9010 -19.8974 -19.8973 -19.8829 -19.8828
   -19.8815 -19.8813 -19.8750 -19.8750 -19.8553 -19.8552 -19.8538 -19.8536
   -19.8257 -19.8257 -19.8255 -19.8255 -19.8187 -19.8186 -19.8104 -19.8103
   -19.8067 -19.8067 -19.8066 -19.8066 -19.8021 -19.8021 -19.7791 -19.7790
   -19.7485 -19.7484 -19.7459 -19.7457 -19.7417 -19.7415 -19.7270 -19.7269
   -19.7218 -19.7217 -19.7133 -19.7131 -19.7130 -19.7130 -19.6615 -19.6613
   -19.6551 -19.6551 -19.6249 -19.6249 -19.6247 -19.6245 -19.5979 -19.5978
    16.2294  16.2296  17.2729  17.2731  17.3365  17.3366  17.3984  17.3986
    17.4223  17.4225  17.4713  17.4714  17.5015  17.5016  17.6659  17.6659
    17.8036  17.8038  17.8069  17.8069  17.8673  17.8674  17.9369  17.9370
    17.9737  17.9739  18.0174  18.0175  18.0264  18.0265  18.0571  18.0572
    18.2547  18.2549  18.2828  18.2828  18.4197  18.4199  18.6044  18.6044
    18.7366  18.7368  18.9172  18.9173  18.9310  18.9310  18.9995  18.9996
    19.0756  19.0757  19.4258  19.4259  19.4866  19.4867  19.5331  19.5333
    19.5873  19.5874  19.7756  19.7758  19.7936  19.7937  20.1298  20.1299
    20.1849  20.1850  20.3404  20.3404  20.3984  20.3985  20.4072  20.4073
    20.5186  20.5186  20.5428  20.5429  20.6253  20.6255  20.6629  20.6629
    20.7215  20.7215  20.8125  20.8125  20.8262  20.8263  20.8511  20.8513
    20.9203  20.9204  21.0452  21.0452  21.1176  21.1177  21.1538  21.1538
    21.1807  21.1808  21.1910  21.1910  21.2096  21.2097  21.2420  21.2421
    21.7466  21.7467  21.8260  21.8262  21.8491  21.8491  22.0742  22.0743
    22.1709  22.1711  22.1769  22.1770  22.2107  22.2109  22.2187  22.2188
    22.4163  22.4164  22.4697  22.4699  22.6412  22.6414  22.7253  22.7254
    22.9114  22.9115  23.2991  23.2992  23.3175  23.3176  23.3509  23.3510
    23.4112  23.4114  23.6902  23.6903  23.7719  23.7721  23.8674  23.8676
    23.9353  23.9353  24.1251  24.1252  24.1692  24.1693  24.2017  24.2018
    24.2033  24.2034  24.2514  24.2514  24.2701  24.2701  24.2831  24.2831
    24.4286  24.4288  24.5106  24.5106  24.6682  24.6684  24.6716  24.6717
    25.2396  25.2397  25.8711  25.8711  25.9788  25.9790  26.0727  26.0729
    27.2357  27.2359  28.2101

          k = 0.1662 0.3877 0.3877 ( 30431 PWs)   bands (ev):

   -50.1070 -50.0837 -50.0837 -50.0635 -50.0452 -50.0310 -50.0310 -50.0198
   -49.9999 -49.9923 -49.9923 -49.9880 -49.9744 -49.9744 -49.9690 -49.9690
   -49.9686 -49.9685 -49.9646 -49.9646 -49.9577 -49.9577 -49.9509 -49.9509
   -49.9504 -49.9504 -49.9487 -49.9487 -49.9447 -49.9396 -49.9396 -49.9378
   -20.4473 -20.4473 -20.4071 -20.3922 -20.3922 -20.3863 -20.3863 -20.3804
   -20.3750 -20.3750 -20.3523 -20.3523 -20.3449 -20.3449 -20.3322 -20.3322
   -20.3305 -20.3305 -20.3219 -20.3169 -20.3169 -20.3085 -20.3085 -20.3064
   -20.2693 -20.2219 -20.2219 -20.1310 -20.1243 -20.1026 -20.1026 -20.0445
   -20.0341 -20.0341 -20.0245 -20.0086 -20.0086 -19.9838 -19.9838 -19.9495
   -19.9495 -19.9453 -19.9453 -19.9384 -19.9384 -19.9161 -19.9161 -19.8905
[...]
   -19.8307 -19.8307 -19.8306 -19.8306 -19.7873 -19.7873 -19.7872 -19.7872
   -19.7871 -19.7871 -19.7871 -19.7871 -19.7716 -19.7716 -19.7716 -19.7716
   -19.6655 -19.6654 -19.6654 -19.6654 -19.6479 -19.6478 -19.6478 -19.6477
   -19.6457 -19.6455 -19.6455 -19.6454 -19.6044 -19.6044 -19.6044 -19.6044
    16.7340  16.7342  16.7342  16.7343  17.2137  17.2138  17.2138  17.2139
    17.6910  17.6910  17.6910  17.6911  17.7349  17.7349  17.7349  17.7349
    17.7350  17.7351  17.7351  17.7351  17.8100  17.8100  17.8100  17.8100
    18.0032  18.0032  18.0033  18.0033  18.0033  18.0034  18.0034  18.0034
    18.3970  18.3970  18.3970  18.3970  18.3972  18.3972  18.3972  18.3972
    18.5547  18.5547  18.5547  18.5548  19.1178  19.1178  19.1180  19.1180
    19.1180  19.1180  19.1181  19.1181  19.2960  19.2961  19.2961  19.2962
    19.8304  19.8305  19.8305  19.8305  20.2973  20.2974  20.2974  20.2974
    20.5503  20.5503  20.5503  20.5504  20.6347  20.6348  20.6348  20.6348
    20.6667  20.6667  20.6668  20.6668  20.6668  20.6668  20.6668  20.6668
    20.7939  20.7940  20.7940  20.7940  20.8186  20.8187  20.8187  20.8188
    20.8691  20.8691  20.8692  20.8692  21.0755  21.0756  21.0756  21.0756
    21.0757  21.0757  21.0757  21.0757  21.2143  21.2143  21.2143  21.2144
    21.5506  21.5507  21.5507  21.5508  21.7376  21.7376  21.7377  21.7377
    21.7377  21.7377  21.7378  21.7378  22.3578  22.3579  22.3580  22.3581
    22.6205  22.6207  22.6207  22.6208  22.6700  22.6700  22.6701  22.6701
    22.6702  22.6702  22.6702  22.6703  23.0527  23.0527  23.0527  23.0528
    23.0669  23.0670  23.0670  23.0671  23.4847  23.4847  23.4848  23.4849
    24.4739  24.4740  24.4740  24.4740  24.4740  24.4740  24.4740  24.4740
    24.5110  24.5110  24.5110  24.5111  24.5368  24.5368  24.5368  24.5369
    24.5369  24.5369  24.5370  24.5370  24.5849  24.5850  24.5850  24.5851
    26.1581  26.1582  26.1582  26.1583  27.4361  27.4362  27.4362  27.4362
    27.4363  27.4363  27.4363

          k = 0.3877 0.3877 0.3877 ( 30421 PWs)   bands (ev):

   -50.0942 -50.0728 -50.0728 -50.0728 -50.0544 -50.0544 -50.0544 -50.0393
   -49.9723 -49.9723 -49.9723 -49.9690 -49.9690 -49.9689 -49.9689 -49.9689
   -49.9689 -49.9686 -49.9686 -49.9685 -49.9537 -49.9537 -49.9537 -49.9509
   -49.9508 -49.9508 -49.9506 -49.9506 -49.9506 -49.9505 -49.9505 -49.9504
   -20.4138 -20.4138 -20.4137 -20.3784 -20.3784 -20.3784 -20.3682 -20.3682
   -20.3682 -20.3635 -20.3635 -20.3635 -20.3635 -20.3635 -20.3635 -20.3592
   -20.3592 -20.3592 -20.3592 -20.3592 -20.3592 -20.3333 -20.3333 -20.3333
   -20.2268 -20.1184 -20.1184 -20.1184 -20.0143 -20.0143 -20.0143 -20.0143
   -20.0143 -20.0143 -20.0082 -20.0082 -20.0082 -20.0062 -20.0062 -20.0062
   -19.9831 -19.9831 -19.9831 -19.9112 -19.9112 -19.9112 -19.9112 -19.9112
   -19.9112 -19.8942 -19.8942 -19.8942 -19.8933 -19.8823 -19.8823 -19.8823
   -19.8451 -19.8451 -19.8451 -19.8271 -19.8271 -19.8271 -19.8271 -19.8271
   -19.8271 -19.8097 -19.8097 -19.8097 -19.7941 -19.7941 -19.7941 -19.7895
   -19.7895 -19.7895 -19.7895 -19.7895 -19.7895 -19.7690 -19.7690 -19.7690
   -19.6705 -19.6705 -19.6705 -19.6521 -19.6521 -19.6430 -19.6430 -19.6430
   -19.6271 -19.6271 -19.6271 -19.6235 -19.6235 -19.6235 -19.6070 -19.6070
    16.4403  16.8989  16.8989  16.8989  17.1488  17.1520  17.1520  17.1520
    17.5313  17.5313  17.5313  17.7472  17.7472  17.7472  17.8230  17.8230
    17.8230  17.8415  17.8415  17.8415  17.8415  17.8415  17.8415  17.9255
    17.9255  17.9255  17.9255  17.9255  17.9255  17.9574  17.9574  17.9575
    18.2094  18.2094  18.2094  18.5771  18.5771  18.5771  18.6783  18.6783
    18.6783  18.6783  18.6783  18.6783  19.0292  19.0292  19.0292  19.0398
    19.0398  19.0398  19.0398  19.0398  19.0398  19.3394  19.3394  19.3394
    19.8508  19.8508  19.8508  19.9399  20.1182  20.1182  20.1183  20.5298
    20.5298  20.5298  20.5298  20.5298  20.5298  20.6369  20.6369  20.7294
    20.7294  20.7294  20.7720  20.7720  20.7720  20.7777  20.7777  20.7951
    20.7951  20.7951  20.7991  20.8070  20.8070  20.8070  20.8333  20.8333
    20.8333  20.8693  20.8693  20.8693  20.8694  20.8694  20.8694  20.8818
    20.8818  20.8818  20.9767  20.9767  20.9768  21.3981  21.3981  21.3981
    21.5945  21.5945  21.5945  21.9143  21.9143  21.9143  21.9143  21.9143
    21.9143  21.9163  21.9164  21.9164  22.2474  22.2474  22.2474  22.4323
    22.4323  22.4323  22.4323  22.4323  22.4323  22.5455  22.5455  22.5455
    22.6358  22.6358  22.6725  22.6725  22.6725  22.8240  22.8240  22.8240
    23.0990  23.0990  23.0990  23.3279  23.3279  23.4915  23.4915  23.4915
    24.4272  24.4272  24.4272  24.4797  24.4797  24.4797  24.4797  24.4797
    24.4797  24.5471  24.5471  24.5471  24.5471  24.5471  24.5471  24.6117
    24.6117  24.6117  24.6274  24.6274  24.6274  24.7196  24.7196  24.7196
    26.3709  26.3709  26.3710  27.2664  27.2664  27.2664  27.2664  27.2664
    27.2664  27.5469  27.5469

          k = 0.3877 0.3877-0.4985 ( 30428 PWs)   bands (ev):

   -50.0845 -50.0843 -50.0645 -50.0645 -50.0643 -50.0643 -50.0476 -50.0474
   -49.9708 -49.9708 -49.9707 -49.9706 -49.9690 -49.9688 -49.9688 -49.9686
   -49.9607 -49.9606 -49.9605 -49.9604 -49.9590 -49.9590 -49.9588 -49.9588
   -49.9521 -49.9521 -49.9519 -49.9519 -49.9508 -49.9506 -49.9506 -49.9505
   -20.4012 -20.4012 -20.3899 -20.3898 -20.3897 -20.3896 -20.3689 -20.3689
   -20.3688 -20.3688 -20.3655 -20.3655 -20.3654 -20.3654 -20.3638 -20.3637
   -20.3637 -20.3636 -20.3543 -20.3542 -20.3488 -20.3488 -20.3486 -20.3486
   -20.1729 -20.1729 -20.0630 -20.0630 -20.0629 -20.0629 -20.0123 -20.0123
   -20.0123 -20.0123 -19.9997 -19.9997 -19.9997 -19.9996 -19.9627 -19.9627
   -19.9627 -19.9627 -19.9495 -19.9495 -19.9431 -19.9431 -19.9409 -19.9408
   -19.9011 -19.9011 -19.9010 -19.9010 -19.8950 -19.8949 -19.8949 -19.8949
   -19.8351 -19.8351 -19.8350 -19.8350 -19.8290 -19.8288 -19.8103 -19.8103
   -19.8101 -19.8101 -19.8096 -19.8096 -19.8096 -19.8096 -19.8000 -19.8000
   -19.8000 -19.7999 -19.7828 -19.7826 -19.7800 -19.7800 -19.7800 -19.7799
   -19.6571 -19.6570 -19.6525 -19.6525 -19.6524 -19.6524 -19.6386 -19.6384
   -19.6239 -19.6239 -19.6239 -19.6239 -19.6235 -19.6233 -19.6109 -19.6109
    16.6536  16.6538  17.0158  17.0158  17.0159  17.0159  17.1384  17.1385
    17.6443  17.6444  17.6643  17.6643  17.6644  17.6644  17.8205  17.8205
    17.8205  17.8205  17.8630  17.8631  17.8631  17.8632  17.8846  17.8846
    17.8846  17.8846  17.8999  17.8999  17.9000  17.9000  17.9104  17.9106
    18.3713  18.3714  18.4447  18.4447  18.4448  18.4448  18.8201  18.8201
    18.8201  18.8201  18.8313  18.8313  18.8315  18.8315  18.8661  18.8661
    18.8661  18.8661  19.1553  19.1555  19.2097  19.2098  19.2098  19.2099
    19.9168  19.9168  19.9970  19.9970  19.9970  19.9970  20.4598  20.4599
    20.6680  20.6681  20.6681  20.6681  20.6921  20.6921  20.6922  20.6922
    20.6966  20.6967  20.7010  20.7011  20.7420  20.7420  20.7421  20.7421
    20.7625  20.7625  20.7625  20.7625  20.7933  20.7933  20.7980  20.7981
    20.8155  20.8156  20.8271  20.8271  20.8272  20.8272  20.8335  20.8335
    20.8336  20.8336  21.2406  21.2406  21.2406  21.2406  21.2890  21.2892
    21.6231  21.6231  21.6231  21.6232  21.6496  21.6497  22.0557  22.0557
    22.0559  22.0559  22.1484  22.1485  22.1485  22.1486  22.1773  22.1773
    22.1774  22.1774  22.5360  22.5360  22.5475  22.5477  22.6120  22.6122
    22.6122  22.6123  22.6395  22.6395  22.6397  22.6397  22.8546  22.8547
    23.0006  23.0006  23.2220  23.2221  23.2221  23.2221  23.3813  23.3815
    24.5142  24.5142  24.5143  24.5143  24.5453  24.5453  24.5454  24.5454
    24.5486  24.5486  24.5952  24.5952  24.5953  24.5953  24.6015  24.6015
    24.6015  24.6015  24.6530  24.6531  24.6532  24.6532  24.7008  24.7009
    26.7955  26.7955  26.7956  26.7956  27.2437  27.2438  27.3911  27.3912
    27.3912  27.3913  28.1711

          k = 0.3877-0.4985-0.4985 ( 30448 PWs)   bands (ev):

   -50.0755 -50.0753 -50.0753 -50.0751 -50.0569 -50.0567 -50.0567 -50.0565
   -49.9700 -49.9699 -49.9699 -49.9697 -49.9601 -49.9600 -49.9599 -49.9599
   -49.9599 -49.9599 -49.9598 -49.9597 -49.9597 -49.9597 -49.9596 -49.9596
   -49.9596 -49.9596 -49.9594 -49.9594 -49.9514 -49.9512 -49.9512 -49.9510
   -20.3841 -20.3841 -20.3840 -20.3840 -20.3840 -20.3840 -20.3839 -20.3839
   -20.3699 -20.3698 -20.3698 -20.3697 -20.3661 -20.3659 -20.3659 -20.3658
   -20.3600 -20.3600 -20.3599 -20.3599 -20.3599 -20.3599 -20.3598 -20.3598
   -20.1180 -20.1179 -20.1179 -20.1178 -20.0080 -20.0079 -20.0079 -20.0079
   -20.0055 -20.0054 -20.0054 -20.0054 -19.9531 -19.9531 -19.9531 -19.9531
   -19.9531 -19.9531 -19.9531 -19.9530 -19.9518 -19.9518 -19.9517 -19.9517
   -19.9517 -19.9517 -19.9516 -19.9516 -19.8964 -19.8964 -19.8964 -19.8963
   -19.8211 -19.8211 -19.8211 -19.8211 -19.8193 -19.8193 -19.8192 -19.8192
   -19.8191 -19.8191 -19.8191 -19.8191 -19.7963 -19.7963 -19.7962 -19.7962
   -19.7961 -19.7961 -19.7960 -19.7960 -19.7905 -19.7905 -19.7905 -19.7905
   -19.6465 -19.6465 -19.6465 -19.6464 -19.6342 -19.6341 -19.6341 -19.6341
   -19.6340 -19.6340 -19.6339 -19.6338 -19.6154 -19.6154 -19.6154 -19.6154
    16.8223  16.8225  16.8225  16.8226  17.0674  17.0675  17.0675  17.0676
    17.7523  17.7523  17.7523  17.7523  17.7525  17.7525  17.7525  17.7525
    17.7545  17.7546  17.7546  17.7546  17.8287  17.8288  17.8288  17.8288
    17.8934  17.8934  17.8934  17.8934  17.8935  17.8936  17.8936  17.8936
    18.6078  18.6078  18.6078  18.6078  18.6079  18.6080  18.6080  18.6080
    18.6643  18.6644  18.6644  18.6644  19.0098  19.0098  19.0099  19.0099
    19.0100  19.0100  19.0101  19.0101  19.0371  19.0371  19.0372  19.0372
    19.9761  19.9761  19.9762  19.9762  20.2417  20.2417  20.2418  20.2418
    20.6943  20.6943  20.6943  20.6944  20.7223  20.7223  20.7223  20.7224
    20.7385  20.7385  20.7386  20.7386  20.7386  20.7386  20.7387  20.7387
    20.7601  20.7602  20.7602  20.7602  20.7940  20.7941  20.7941  20.7942
    20.8040  20.8041  20.8041  20.8041  20.9900  20.9901  20.9901  20.9901
    20.9902  20.9902  20.9902  20.9902  21.0481  21.0482  21.0482  21.0483
    21.8015  21.8016  21.8016  21.8017  21.8815  21.8815  21.8815  21.8815
    21.8815  21.8815  21.8816  21.8816  22.3344  22.3345  22.3345  22.3345
    22.3346  22.3346  22.3346  22.3347  22.3509  22.3510  22.3510  22.3511
    22.6104  22.6105  22.6106  22.6107  22.8963  22.8964  22.8964  22.8964
    22.9693  22.9694  22.9694  22.9695  23.1876  23.1877  23.1877  23.1878
    24.5885  24.5885  24.5885  24.5885  24.5885  24.5885  24.5886  24.5886
    24.6098  24.6098  24.6098  24.6099  24.6545  24.6545  24.6546  24.6546
    24.6546  24.6546  24.6547  24.6547  24.6554  24.6555  24.6555  24.6556
    27.0633  27.0634  27.0634  27.0635  27.6956  27.6956  27.6957  27.6957
    27.6957  27.6958  27.6958

          k =-0.4985-0.4985-0.4985 ( 30592 PWs)   bands (ev):

   -50.0671 -50.0669 -50.0669 -50.0669 -50.0667 -50.0667 -50.0667 -50.0665
   -49.9602 -49.9601 -49.9600 -49.9600 -49.9599 -49.9599 -49.9599 -49.9599
   -49.9598 -49.9598 -49.9598 -49.9598 -49.9598 -49.9597 -49.9597 -49.9597
   -49.9596 -49.9596 -49.9596 -49.9595 -49.9595 -49.9595 -49.9594 -49.9593
   -20.3724 -20.3724 -20.3724 -20.3724 -20.3723 -20.3723 -20.3723 -20.3723
   -20.3723 -20.3723 -20.3722 -20.3722 -20.3722 -20.3721 -20.3721 -20.3721
   -20.3721 -20.3720 -20.3720 -20.3720 -20.3720 -20.3720 -20.3720 -20.3720
   -20.0614 -20.0613 -20.0613 -20.0613 -20.0613 -20.0612 -20.0612 -20.0612
   -19.9529 -19.9529 -19.9528 -19.9528 -19.9528 -19.9528 -19.9528 -19.9528
   -19.9528 -19.9528 -19.9528 -19.9528 -19.9527 -19.9527 -19.9527 -19.9527
   -19.9527 -19.9527 -19.9527 -19.9527 -19.9527 -19.9527 -19.9526 -19.9526
   -19.8074 -19.8074 -19.8074 -19.8073 -19.8073 -19.8073 -19.8073 -19.8073
   -19.8073 -19.8073 -19.8073 -19.8073 -19.8072 -19.8072 -19.8072 -19.8071
   -19.8071 -19.8071 -19.8071 -19.8071 -19.8071 -19.8071 -19.8071 -19.8070
   -19.6298 -19.6298 -19.6298 -19.6297 -19.6297 -19.6297 -19.6297 -19.6297
   -19.6295 -19.6295 -19.6295 -19.6295 -19.6295 -19.6295 -19.6295 -19.6295
    16.9348  16.9350  16.9350  16.9350  16.9351  16.9351  16.9352  16.9353
    17.8064  17.8064  17.8064  17.8064  17.8064  17.8064  17.8065  17.8065
    17.8065  17.8065  17.8065  17.8065  17.8066  17.8066  17.8066  17.8066
    17.8066  17.8066  17.8066  17.8066  17.8067  17.8067  17.8067  17.8067
    18.8241  18.8242  18.8242  18.8242  18.8242  18.8243  18.8243  18.8243
    18.8243  18.8243  18.8243  18.8243  18.8244  18.8244  18.8244  18.8244
    18.8244  18.8244  18.8244  18.8245  18.8245  18.8245  18.8245  18.8245
    20.1266  20.1267  20.1267  20.1267  20.1267  20.1267  20.1267  20.1267
    20.7649  20.7649  20.7649  20.7649  20.7649  20.7649  20.7649  20.7649
    20.7650  20.7650  20.7650  20.7650  20.7650  20.7650  20.7650  20.7650
    20.8668  20.8669  20.8669  20.8669  20.8669  20.8669  20.8669  20.8669
    20.8669  20.8670  20.8670  20.8670  20.8670  20.8670  20.8670  20.8670
    20.8670  20.8670  20.8671  20.8671  20.8671  20.8671  20.8671  20.8671
    22.0720  22.0720  22.0720  22.0720  22.0720  22.0721  22.0721  22.0721
    22.0721  22.0722  22.0722  22.0722  22.0722  22.0722  22.0722  22.0722
    22.0722  22.0722  22.0722  22.0723  22.0723  22.0723  22.0724  22.0724
    22.8920  22.8920  22.8921  22.8921  22.8921  22.8921  22.8921  22.8921
    22.8922  22.8922  22.8922  22.8922  22.8922  22.8922  22.8923  22.8923
    24.6623  24.6623  24.6623  24.6623  24.6624  24.6624  24.6624  24.6624
    24.6624  24.6624  24.6624  24.6624  24.6625  24.6625  24.6625  24.6625
    24.6625  24.6625  24.6625  24.6625  24.6625  24.6626  24.6626  24.6626
    28.0146  28.0146  28.0146  28.0147  28.0147  28.0147  28.0147  28.0148
    28.0148  28.0148  28.0148

     the Fermi energy is    22.8602 ev

!    total energy              =  -13813.29889015 Ry

     total all-electron energy =   -289989.689229 Ry
     estimated scf accuracy    <       0.00000021 Ry
     smearing contrib. (-TS)   =       0.01969885 Ry
     internal energy E=F+TS    =  -13813.31858899 Ry

     The total energy is F=E-TS. E is the sum of the following terms:
     one-electron contribution =   -1018.34643574 Ry
     hartree contribution      =     922.86420069 Ry
     xc contribution           =    -927.72242164 Ry
     ewald contribution        =   -5200.68349271 Ry
     one-center paw contrib.   =   -7589.43043960 Ry

     convergence has been achieved in  13 iterations

     Forces acting on atoms (cartesian axes, Ry/au):

     atom    1 type  1   force =     0.00000000    0.00000000    0.00000000
     atom    2 type  1   force =    -0.00000150   -0.00000150    0.00000000
     atom    3 type  1   force =    -0.00000150    0.00000000   -0.00000150
     atom    4 type  1   force =     0.00000000   -0.00000150   -0.00000150
     atom    5 type  1   force =     0.00000000    0.00000000    0.00000000
     atom    6 type  1   force =    -0.00000114   -0.00000114    0.00000000
     atom    7 type  1   force =    -0.00000150   -0.00000000    0.00000150
     atom    8 type  1   force =     0.00000000   -0.00000150    0.00000150
     atom    9 type  1   force =     0.00000000    0.00000000    0.00000000
     atom   10 type  1   force =    -0.00000150    0.00000150    0.00000000
     atom   11 type  1   force =    -0.00000114    0.00000000   -0.00000114
     atom   12 type  1   force =     0.00000000    0.00000150   -0.00000150
     atom   13 type  1   force =     0.00000000    0.00000000    0.00000000
     atom   14 type  1   force =    -0.00000114    0.00000114   -0.00000000
     atom   15 type  1   force =    -0.00000114    0.00000000    0.00000114
     atom   16 type  1   force =     0.00000000    0.00000150    0.00000150
     atom   17 type  1   force =     0.00000000    0.00000000    0.00000000
     atom   18 type  1   force =     0.00000150   -0.00000150    0.00000000
     atom   19 type  1   force =     0.00000150    0.00000000   -0.00000150
     atom   20 type  1   force =    -0.00000000   -0.00000114   -0.00000114
     atom   21 type  1   force =     0.00000000    0.00000000    0.00000000
     atom   22 type  1   force =     0.00000114   -0.00000114   -0.00000000
     atom   23 type  1   force =     0.00000150    0.00000000    0.00000150
     atom   24 type  1   force =     0.00000000   -0.00000114    0.00000114
     atom   25 type  1   force =     0.00000000    0.00000000    0.00000000
     atom   26 type  1   force =     0.00000150    0.00000150    0.00000000
     atom   27 type  1   force =     0.00000114    0.00000000   -0.00000114
     atom   28 type  1   force =    -0.00000000    0.00000114   -0.00000114
     atom   29 type  1   force =     0.00000000    0.00000000    0.00000000
     atom   30 type  1   force =     0.00000114    0.00000114    0.00000000
     atom   31 type  1   force =     0.00000114    0.00000000    0.00000114
     atom   32 type  1   force =    -0.00000000    0.00000114    0.00000114

     Total force =     0.000009     Total SCF correction =     0.000103
     SCF correction compared to forces is large: reduce conv_thr to get better values


     Computing stress (Cartesian axis) and pressure

          total   stress  (Ry/bohr**3)                   (kbar)     P=      -30.52
  -0.00020746   0.00000000   0.00000000          -30.52        0.00        0.00
   0.00000000  -0.00020746   0.00000000            0.00      -30.52        0.00
   0.00000000   0.00000000  -0.00020746            0.00        0.00      -30.52


     Writing output data file /scratch/IxehntHqjCtyBWxs.save/
 
     init_run     :     15.10s CPU     15.46s WALL (       1 calls)
     electrons    :    583.32s CPU    591.50s WALL (       1 calls)
     forces       :      5.15s CPU      5.23s WALL (       1 calls)
     stress       :     31.68s CPU     31.99s WALL (       1 calls)

     Called by init_run:
     wfcinit      :     14.39s CPU     14.65s WALL (       1 calls)
     potinit      :      0.19s CPU      0.22s WALL (       1 calls)
     hinit0       :      0.17s CPU      0.18s WALL (       1 calls)

     Called by electrons:
     c_bands      :    526.34s CPU    533.23s WALL (      14 calls)
     sum_band     :     54.81s CPU     55.82s WALL (      14 calls)
     v_of_rho     :      0.20s CPU      0.22s WALL (      14 calls)
     newd         :      0.41s CPU      0.54s WALL (      14 calls)
     PAW_pot      :      1.30s CPU      1.38s WALL (      14 calls)
     mix_rho      :      0.05s CPU      0.07s WALL (      14 calls)

     Called by c_bands:
     init_us_2    :      1.95s CPU      1.98s WALL (    1085 calls)
     cegterg      :    518.81s CPU    525.33s WALL (     490 calls)

     Called by *egterg:
     cdiaghg      :     68.95s CPU     69.67s WALL (    1861 calls)
     h_psi        :    268.03s CPU    272.22s WALL (    1931 calls)
     s_psi        :     18.07s CPU     18.20s WALL (    1931 calls)
     g_psi        :      0.50s CPU      0.50s WALL (    1406 calls)

     Called by h_psi:
     h_psi:calbec :     37.20s CPU     37.52s WALL (    1931 calls)
     vloc_psi     :    212.71s CPU    216.17s WALL (    1931 calls)
     add_vuspsi   :     16.93s CPU     17.32s WALL (    1931 calls)

     General routines
     calbec       :     56.62s CPU     57.07s WALL (    2596 calls)
     fft          :      0.54s CPU      0.56s WALL (     206 calls)
     ffts         :      0.04s CPU      0.04s WALL (      28 calls)
     fftw         :    243.15s CPU    247.05s WALL (  929832 calls)
     interpolate  :      0.19s CPU      0.20s WALL (      14 calls)
 
     Parallel routines
     fft_scatt_xy :     16.05s CPU     16.32s WALL (  930066 calls)
     fft_scatt_yz :    200.03s CPU    203.29s WALL (  930066 calls)
 
     PWSCF        :  10m46.02s CPU  10m56.76s WALL

 
   This run was terminated on:  13:23:53  23Nov2021            

=------------------------------------------------------------------------------=
   JOB DONE.
=------------------------------------------------------------------------------=
