
     Program PWSCF v.6.7MaX starts on  7Jan2022 at  9:37:34 

     This program is part of the open-source Quantum ESPRESSO suite
     for quantum simulation of materials; please cite
         "P. Giannozzi et al., J. Phys.:Condens. Matter 21 395502 (2009);
         "P. Giannozzi et al., J. Phys.:Condens. Matter 29 465901 (2017);
          URL http://www.quantum-espresso.org", 
     in publications or presentations arising from this work. More details at
     http://www.quantum-espresso.org/quote

     Parallel version (MPI & OpenMP), running on      72 processor cores
     Number of MPI processes:                72
     Threads/MPI process:                     1

     MPI processes distributed on     1 nodes
     R & G space division:  proc/nbgrp/npool/nimage =      72
     Reading input from relax_18.in
Warning: card &CELL ignored
Warning: card CELL_DYNAMICS = 'BFGS', ignored
Warning: card CELL_FACTOR = 2.0, ignored
Warning: card PRESS = 0.0, ignored
Warning: card / ignored

     Current dimensions of program PWSCF are:
     Max number of different atomic species (ntypx) = 10
     Max number of k-points (npk) =  40000
     Max angular momentum in pseudopotentials (lmaxx) =  3
     file Pd.pbe-spn-kjpaw_psl.1.0.0.UPF: wavefunction(s)  4S 5S 4D renormalized

     Subspace diagonalization in iterative solution of the eigenvalue problem:
     one sub-group per band group will be used
     ELPA distributed-memory algorithm (size of sub-group:  8*  8 procs)

     Found symmetry operation: I + (  0.2500  0.2500  0.0000)
     This is a supercell, fractional translations are disabled
     Message from routine setup:
     using ibrav=0 with symmetry is DISCOURAGED, use correct ibrav instead
 
     Parallelization info
     --------------------
     sticks:   dense  smooth     PW     G-vecs:    dense   smooth      PW
     Min         104      68     18                10456     5606     784
     Max         105      69     19                10467     5619     793
     Sum        7521    4957   1353               753261   404237   56735
 


     bravais-lattice index     =            0
     lattice parameter (alat)  =      14.8394  a.u.
     unit-cell volume          =    5003.7647 (a.u.)^3
     number of atoms/cell      =           32
     number of atomic types    =            1
     number of electrons       =       576.00
     number of Kohn-Sham states=          346
     kinetic-energy cutoff     =      71.0000  Ry
     charge density cutoff     =     430.0000  Ry
     scf convergence threshold =      1.0E-06
     mixing beta               =       0.1000
     number of iterations used =           10  TF        mixing
     energy convergence thresh.=      1.0E-04
     force convergence thresh. =      1.0E-03
     Exchange-correlation= SLA  PW   PBX  PBC
                           (   1   4   3   4   0   0   0)
     nstep                     =           40


     celldm(1)=  14.839420  celldm(2)=   0.000000  celldm(3)=   0.000000
     celldm(4)=   0.000000  celldm(5)=   0.000000  celldm(6)=   0.000000

     crystal axes: (cart. coord. in units of alat)
               a(1) = (   1.000000   0.000000   0.000000 )  
               a(2) = (   0.000000   1.000000   0.000000 )  
               a(3) = (   0.000000   0.000000   1.531250 )  

     reciprocal axes: (cart. coord. in units 2 pi/alat)
               b(1) = (  1.000000  0.000000  0.000000 )  
               b(2) = (  0.000000  1.000000  0.000000 )  
               b(3) = (  0.000000  0.000000  0.653061 )  


     PseudoPot. # 1 for Pd read from file:
     /rds/homes/b/bxp912/pp/Pd.pbe-spn-kjpaw_psl.1.0.0.UPF
     MD5 check sum: 790f2ebce206edfd9790dcb9844eca51
     Pseudo is Projector augmented-wave + core cor, Zval = 18.0
     Generated using &quot;atomic&quot; code by A. Dal Corso  v.6.3
     Shape of augmentation charge: PSQ
     Using radial grid of 1235 points,  6 beta functions with: 
                l(1) =   0
                l(2) =   0
                l(3) =   1
                l(4) =   1
                l(5) =   2
                l(6) =   2
     Q(r) pseudized with 0 coefficients 


     atomic species   valence    mass     pseudopotential
        Pd            18.00   106.42000     Pd( 1.00)

      8 Sym. Ops. (no inversion) found



   Cartesian axes

     site n.     atom                  positions (alat units)
         1           Pd  tau(   1) = (   0.0000000   0.0000000   0.0000000  )
         2           Pd  tau(   2) = (   0.2500000   0.2500000   0.0000000  )
         3           Pd  tau(   3) = (   0.2500000   0.0000000   0.2500000  )
         4           Pd  tau(   4) = (   0.0000000   0.2500000   0.2500000  )
         5           Pd  tau(   5) = (   0.0000000   0.0000000   1.0312500  )
         6           Pd  tau(   6) = (   0.2500000   0.2500000   1.0312500  )
         7           Pd  tau(   7) = (   0.2500000   0.0000000   1.2812500  )
         8           Pd  tau(   8) = (   0.0000000   0.2500000   1.2812500  )
         9           Pd  tau(   9) = (   0.0000000   0.5000000   0.0000000  )
        10           Pd  tau(  10) = (   0.2500000   0.7500000   0.0000000  )
        11           Pd  tau(  11) = (   0.2500000   0.5000000   0.2500000  )
        12           Pd  tau(  12) = (   0.0000000   0.7500000   0.2500000  )
        13           Pd  tau(  13) = (   0.0000000   0.5000000   1.0312500  )
        14           Pd  tau(  14) = (   0.2500000   0.7500000   1.0312500  )
        15           Pd  tau(  15) = (   0.2500000   0.5000000   1.2812500  )
        16           Pd  tau(  16) = (   0.0000000   0.7500000   1.2812500  )
        17           Pd  tau(  17) = (   0.5000000   0.0000000   0.0000000  )
        18           Pd  tau(  18) = (   0.7500000   0.2500000   0.0000000  )
        19           Pd  tau(  19) = (   0.7500000   0.0000000   0.2500000  )
        20           Pd  tau(  20) = (   0.5000000   0.2500000   0.2500000  )
        21           Pd  tau(  21) = (   0.5000000   0.0000000   1.0312500  )
        22           Pd  tau(  22) = (   0.7500000   0.2500000   1.0312500  )
        23           Pd  tau(  23) = (   0.7500000   0.0000000   1.2812500  )
        24           Pd  tau(  24) = (   0.5000000   0.2500000   1.2812500  )
        25           Pd  tau(  25) = (   0.5000000   0.5000000   0.0000000  )
        26           Pd  tau(  26) = (   0.7500000   0.7500000   0.0000000  )
        27           Pd  tau(  27) = (   0.7500000   0.5000000   0.2500000  )
        28           Pd  tau(  28) = (   0.5000000   0.7500000   0.2500000  )
        29           Pd  tau(  29) = (   0.5000000   0.5000000   1.0312500  )
        30           Pd  tau(  30) = (   0.7500000   0.7500000   1.0312500  )
        31           Pd  tau(  31) = (   0.7500000   0.5000000   1.2812500  )
        32           Pd  tau(  32) = (   0.5000000   0.7500000   1.2812500  )

     number of k points=    75  Marzari-Vanderbilt smearing, width (Ry)=  0.0400
                       cart. coord. in units 2pi/alat
        k(    1) = (   0.0555556   0.0555556   0.0362812), wk =   0.0219479
        k(    2) = (   0.0555556   0.0555556   0.1088435), wk =   0.0219479
        k(    3) = (   0.0555556   0.0555556   0.1814059), wk =   0.0219479
        k(    4) = (   0.0555556   0.0555556   0.2539683), wk =   0.0219479
        k(    5) = (   0.0555556   0.0555556  -0.3265306), wk =   0.0109739
        k(    6) = (   0.0555556   0.1666667   0.0362812), wk =   0.0438957
        k(    7) = (   0.0555556   0.1666667   0.1088435), wk =   0.0438957
        k(    8) = (   0.0555556   0.1666667   0.1814059), wk =   0.0438957
        k(    9) = (   0.0555556   0.1666667   0.2539683), wk =   0.0438957
        k(   10) = (   0.0555556   0.1666667  -0.3265306), wk =   0.0219479
        k(   11) = (   0.0555556   0.2777778   0.0362812), wk =   0.0438957
        k(   12) = (   0.0555556   0.2777778   0.1088435), wk =   0.0438957
        k(   13) = (   0.0555556   0.2777778   0.1814059), wk =   0.0438957
        k(   14) = (   0.0555556   0.2777778   0.2539683), wk =   0.0438957
        k(   15) = (   0.0555556   0.2777778  -0.3265306), wk =   0.0219479
        k(   16) = (   0.0555556   0.3888889   0.0362812), wk =   0.0438957
        k(   17) = (   0.0555556   0.3888889   0.1088435), wk =   0.0438957
        k(   18) = (   0.0555556   0.3888889   0.1814059), wk =   0.0438957
        k(   19) = (   0.0555556   0.3888889   0.2539683), wk =   0.0438957
        k(   20) = (   0.0555556   0.3888889  -0.3265306), wk =   0.0219479
        k(   21) = (   0.0555556  -0.5000000   0.0362812), wk =   0.0219479
        k(   22) = (   0.0555556  -0.5000000   0.1088435), wk =   0.0219479
        k(   23) = (   0.0555556  -0.5000000   0.1814059), wk =   0.0219479
        k(   24) = (   0.0555556  -0.5000000   0.2539683), wk =   0.0219479
        k(   25) = (   0.0555556  -0.5000000  -0.3265306), wk =   0.0109739
        k(   26) = (   0.1666667   0.1666667   0.0362812), wk =   0.0219479
        k(   27) = (   0.1666667   0.1666667   0.1088435), wk =   0.0219479
        k(   28) = (   0.1666667   0.1666667   0.1814059), wk =   0.0219479
        k(   29) = (   0.1666667   0.1666667   0.2539683), wk =   0.0219479
        k(   30) = (   0.1666667   0.1666667  -0.3265306), wk =   0.0109739
        k(   31) = (   0.1666667   0.2777778   0.0362812), wk =   0.0438957
        k(   32) = (   0.1666667   0.2777778   0.1088435), wk =   0.0438957
        k(   33) = (   0.1666667   0.2777778   0.1814059), wk =   0.0438957
        k(   34) = (   0.1666667   0.2777778   0.2539683), wk =   0.0438957
        k(   35) = (   0.1666667   0.2777778  -0.3265306), wk =   0.0219479
        k(   36) = (   0.1666667   0.3888889   0.0362812), wk =   0.0438957
        k(   37) = (   0.1666667   0.3888889   0.1088435), wk =   0.0438957
        k(   38) = (   0.1666667   0.3888889   0.1814059), wk =   0.0438957
        k(   39) = (   0.1666667   0.3888889   0.2539683), wk =   0.0438957
        k(   40) = (   0.1666667   0.3888889  -0.3265306), wk =   0.0219479
        k(   41) = (   0.1666667  -0.5000000   0.0362812), wk =   0.0219479
        k(   42) = (   0.1666667  -0.5000000   0.1088435), wk =   0.0219479
        k(   43) = (   0.1666667  -0.5000000   0.1814059), wk =   0.0219479
        k(   44) = (   0.1666667  -0.5000000   0.2539683), wk =   0.0219479
        k(   45) = (   0.1666667  -0.5000000  -0.3265306), wk =   0.0109739
        k(   46) = (   0.2777778   0.2777778   0.0362812), wk =   0.0219479
        k(   47) = (   0.2777778   0.2777778   0.1088435), wk =   0.0219479
        k(   48) = (   0.2777778   0.2777778   0.1814059), wk =   0.0219479
        k(   49) = (   0.2777778   0.2777778   0.2539683), wk =   0.0219479
        k(   50) = (   0.2777778   0.2777778  -0.3265306), wk =   0.0109739
        k(   51) = (   0.2777778   0.3888889   0.0362812), wk =   0.0438957
        k(   52) = (   0.2777778   0.3888889   0.1088435), wk =   0.0438957
        k(   53) = (   0.2777778   0.3888889   0.1814059), wk =   0.0438957
        k(   54) = (   0.2777778   0.3888889   0.2539683), wk =   0.0438957
        k(   55) = (   0.2777778   0.3888889  -0.3265306), wk =   0.0219479
        k(   56) = (   0.2777778  -0.5000000   0.0362812), wk =   0.0219479
        k(   57) = (   0.2777778  -0.5000000   0.1088435), wk =   0.0219479
        k(   58) = (   0.2777778  -0.5000000   0.1814059), wk =   0.0219479
        k(   59) = (   0.2777778  -0.5000000   0.2539683), wk =   0.0219479
        k(   60) = (   0.2777778  -0.5000000  -0.3265306), wk =   0.0109739
        k(   61) = (   0.3888889   0.3888889   0.0362812), wk =   0.0219479
        k(   62) = (   0.3888889   0.3888889   0.1088435), wk =   0.0219479
        k(   63) = (   0.3888889   0.3888889   0.1814059), wk =   0.0219479
        k(   64) = (   0.3888889   0.3888889   0.2539683), wk =   0.0219479
        k(   65) = (   0.3888889   0.3888889  -0.3265306), wk =   0.0109739
        k(   66) = (   0.3888889  -0.5000000   0.0362812), wk =   0.0219479
        k(   67) = (   0.3888889  -0.5000000   0.1088435), wk =   0.0219479
        k(   68) = (   0.3888889  -0.5000000   0.1814059), wk =   0.0219479
        k(   69) = (   0.3888889  -0.5000000   0.2539683), wk =   0.0219479
        k(   70) = (   0.3888889  -0.5000000  -0.3265306), wk =   0.0109739
        k(   71) = (  -0.5000000  -0.5000000   0.0362812), wk =   0.0054870
        k(   72) = (  -0.5000000  -0.5000000   0.1088435), wk =   0.0054870
        k(   73) = (  -0.5000000  -0.5000000   0.1814059), wk =   0.0054870
        k(   74) = (  -0.5000000  -0.5000000   0.2539683), wk =   0.0054870
        k(   75) = (  -0.5000000  -0.5000000  -0.3265306), wk =   0.0027435

     Dense  grid:   753261 G-vectors     FFT dimensions: ( 100, 100, 150)

     Smooth grid:   404237 G-vectors     FFT dimensions: (  80,  80, 125)

     Estimated max dynamical RAM per process >     341.45 MB

     Estimated total dynamical RAM >      24.01 GB

     Check: negative core charge=   -0.000001

     Initial potential from superposition of free atoms

     starting charge  575.98776, renormalised to  576.00000
     Starting wfcs are  320 randomized atomic wfcs +   26 random wfcs
     Checking if some PAW data can be deallocated... 

     total cpu time spent up to now is       28.1 secs

     Self-consistent Calculation

     iteration #  1     ecut=    71.00 Ry     beta= 0.10
     Davidson diagonalization with overlap
     ethr =  1.00E-02,  avg # of iterations =  4.1

     Threshold (ethr) on eigenvalues was too large:
     Diagonalizing with lowered threshold

     Davidson diagonalization with overlap
     ethr =  7.48E-04,  avg # of iterations =  1.2

     total cpu time spent up to now is      202.7 secs

     total energy              =  -16384.82457364 Ry
     estimated scf accuracy    <       4.29707888 Ry

     iteration #  2     ecut=    71.00 Ry     beta= 0.10
     Davidson diagonalization with overlap
     ethr =  7.46E-04,  avg # of iterations =  1.2

     total cpu time spent up to now is      275.9 secs

     total energy              =  -16384.35242406 Ry
     estimated scf accuracy    <       3.88192735 Ry

     iteration #  3     ecut=    71.00 Ry     beta= 0.10
     Davidson diagonalization with overlap
     ethr =  6.74E-04,  avg # of iterations =  2.5

     total cpu time spent up to now is      354.8 secs

     total energy              =  -16384.16819155 Ry
     estimated scf accuracy    <       2.62772771 Ry

     iteration #  4     ecut=    71.00 Ry     beta= 0.10
     Davidson diagonalization with overlap
     ethr =  4.56E-04,  avg # of iterations =  4.7

     total cpu time spent up to now is      443.9 secs

     total energy              =  -16384.33142027 Ry
     estimated scf accuracy    <       0.81238084 Ry

     iteration #  5     ecut=    71.00 Ry     beta= 0.10
     Davidson diagonalization with overlap
     ethr =  1.41E-04,  avg # of iterations =  2.7

     total cpu time spent up to now is      527.2 secs

     total energy              =  -16384.04709616 Ry
     estimated scf accuracy    <       1.05628539 Ry

     iteration #  6     ecut=    71.00 Ry     beta= 0.10
     Davidson diagonalization with overlap
     ethr =  1.41E-04,  avg # of iterations =  6.0

     total cpu time spent up to now is      620.9 secs

     total energy              =  -16384.07758993 Ry
     estimated scf accuracy    <       0.28952078 Ry

     iteration #  7     ecut=    71.00 Ry     beta= 0.10
     Davidson diagonalization with overlap
     ethr =  5.03E-05,  avg # of iterations =  5.3

     total cpu time spent up to now is      711.5 secs

     total energy              =  -16384.05720722 Ry
     estimated scf accuracy    <       0.19948591 Ry

     iteration #  8     ecut=    71.00 Ry     beta= 0.10
     Davidson diagonalization with overlap
     ethr =  3.46E-05,  avg # of iterations =  3.3

     total cpu time spent up to now is      797.4 secs

     total energy              =  -16384.03056093 Ry
     estimated scf accuracy    <       0.13450419 Ry

     iteration #  9     ecut=    71.00 Ry     beta= 0.10
     Davidson diagonalization with overlap
     ethr =  2.34E-05,  avg # of iterations =  6.9

     total cpu time spent up to now is      893.6 secs

     total energy              =  -16384.03240934 Ry
     estimated scf accuracy    <       0.07515123 Ry

     iteration # 10     ecut=    71.00 Ry     beta= 0.10
     Davidson diagonalization with overlap
     ethr =  1.30E-05,  avg # of iterations =  2.5

     total cpu time spent up to now is      977.4 secs

     total energy              =  -16384.02602645 Ry
     estimated scf accuracy    <       0.05956598 Ry

     iteration # 11     ecut=    71.00 Ry     beta= 0.10
     Davidson diagonalization with overlap
     ethr =  1.03E-05,  avg # of iterations =  4.6

     total cpu time spent up to now is     1067.9 secs

     total energy              =  -16384.03381261 Ry
     estimated scf accuracy    <       0.02903745 Ry

     iteration # 12     ecut=    71.00 Ry     beta= 0.10
     Davidson diagonalization with overlap
     ethr =  5.04E-06,  avg # of iterations =  2.8

     total cpu time spent up to now is     1156.4 secs

     total energy              =  -16384.02494480 Ry
     estimated scf accuracy    <       0.02559412 Ry

     iteration # 13     ecut=    71.00 Ry     beta= 0.10
     Davidson diagonalization with overlap
     ethr =  4.44E-06,  avg # of iterations =  6.7

     total cpu time spent up to now is     1266.2 secs

     total energy              =  -16384.03852056 Ry
     estimated scf accuracy    <       0.02472303 Ry

     iteration # 14     ecut=    71.00 Ry     beta= 0.10
     Davidson diagonalization with overlap
     ethr =  4.29E-06,  avg # of iterations =  6.2

     total cpu time spent up to now is     1370.0 secs

     total energy              =  -16384.04295041 Ry
     estimated scf accuracy    <       0.01284549 Ry

     iteration # 15     ecut=    71.00 Ry     beta= 0.10
     Davidson diagonalization with overlap
     ethr =  2.23E-06,  avg # of iterations =  4.1

     total cpu time spent up to now is     1461.3 secs

     total energy              =  -16384.04722381 Ry
     estimated scf accuracy    <       0.00260678 Ry

     iteration # 16     ecut=    71.00 Ry     beta= 0.10
     Davidson diagonalization with overlap
     ethr =  4.53E-07,  avg # of iterations =  3.4

     total cpu time spent up to now is     1551.3 secs

     total energy              =  -16384.05007375 Ry
     estimated scf accuracy    <       0.00114814 Ry

     iteration # 17     ecut=    71.00 Ry     beta= 0.10
     Davidson diagonalization with overlap
     ethr =  1.99E-07,  avg # of iterations =  5.4

     total cpu time spent up to now is     1654.8 secs

     total energy              =  -16384.05156345 Ry
     estimated scf accuracy    <       0.00066526 Ry

     iteration # 18     ecut=    71.00 Ry     beta= 0.10
     Davidson diagonalization with overlap
     ethr =  1.15E-07,  avg # of iterations =  4.8

     total cpu time spent up to now is     1760.2 secs

     total energy              =  -16384.05200181 Ry
     estimated scf accuracy    <       0.00011487 Ry

     iteration # 19     ecut=    71.00 Ry     beta= 0.10
     Davidson diagonalization with overlap
     ethr =  1.99E-08,  avg # of iterations =  2.0

     total cpu time spent up to now is     1846.2 secs

     total energy              =  -16384.05214964 Ry
     estimated scf accuracy    <       0.00006679 Ry

     iteration # 20     ecut=    71.00 Ry     beta= 0.10
     Davidson diagonalization with overlap
     ethr =  1.16E-08,  avg # of iterations =  2.0

     total cpu time spent up to now is     1930.8 secs

     total energy              =  -16384.05231308 Ry
     estimated scf accuracy    <       0.00004502 Ry

     iteration # 21     ecut=    71.00 Ry     beta= 0.10
     Davidson diagonalization with overlap
     ethr =  7.82E-09,  avg # of iterations =  2.1

     total cpu time spent up to now is     2021.7 secs

     total energy              =  -16384.05237052 Ry
     estimated scf accuracy    <       0.00001744 Ry

     iteration # 22     ecut=    71.00 Ry     beta= 0.10
     Davidson diagonalization with overlap
     ethr =  3.03E-09,  avg # of iterations =  2.0

     total cpu time spent up to now is     2109.6 secs

     total energy              =  -16384.05239587 Ry
     estimated scf accuracy    <       0.00000869 Ry

     iteration # 23     ecut=    71.00 Ry     beta= 0.10
     Davidson diagonalization with overlap
     ethr =  1.51E-09,  avg # of iterations =  2.0

     total cpu time spent up to now is     2198.9 secs

     total energy              =  -16384.05240226 Ry
     estimated scf accuracy    <       0.00000267 Ry

     iteration # 24     ecut=    71.00 Ry     beta= 0.10
     Davidson diagonalization with overlap
     ethr =  4.64E-10,  avg # of iterations =  2.0

     total cpu time spent up to now is     2283.1 secs

     total energy              =  -16384.05240741 Ry
     estimated scf accuracy    <       0.00000180 Ry

     iteration # 25     ecut=    71.00 Ry     beta= 0.10
     Davidson diagonalization with overlap
     ethr =  3.12E-10,  avg # of iterations =  2.0

     total cpu time spent up to now is     2368.6 secs

     total energy              =  -16384.05241155 Ry
     estimated scf accuracy    <       0.00000101 Ry

     iteration # 26     ecut=    71.00 Ry     beta= 0.10
     Davidson diagonalization with overlap
     ethr =  1.76E-10,  avg # of iterations =  2.0

     total cpu time spent up to now is     2457.3 secs

     End of self-consistent calculation

          k = 0.0556 0.0556 0.0363 ( 50539 PWs)   bands (ev):

   -73.3514 -73.3293 -73.3293 -73.3251 -73.3250 -73.3205 -73.3194 -73.3189
   -73.3188 -73.3177 -73.3118 -73.3118 -73.3104 -73.3104 -73.3032 -73.3031
   -72.7598 -72.7597 -72.7453 -72.7453 -72.7453 -72.7453 -72.7441 -72.7441
   -72.7439 -72.7438 -72.7425 -72.7425 -72.7425 -72.7425 -72.7280 -72.7279
   -39.1860 -39.1860 -39.1857 -39.1848 -39.1722 -39.1722 -39.1654 -39.1312
   -39.1312 -39.1283 -39.1282 -39.0911 -39.0911 -39.0800 -39.0800 -39.0708
   -39.0708 -39.0676 -39.0676 -39.0588 -39.0587 -39.0299 -39.0298 -39.0232
   -39.0232 -39.0232 -39.0188 -39.0187 -39.0135 -39.0088 -39.0088 -38.9950
   -38.9919 -38.9919 -38.9775 -38.9775 -38.9745 -38.9736 -38.9635 -38.9635
   -38.9582 -38.9582 -38.9246 -38.9228 -38.9227 -38.9185 -38.9064 -38.9048
   -38.6338 -38.6338 -38.6331 -38.6321 -38.6220 -38.6220 -38.6201 -38.6200
   -38.5516 -38.5515 -38.5514 -38.5514 -38.5366 -38.5366 -38.5363 -38.5363
   -38.5343 -38.5343 -38.5339 -38.5339 -38.5190 -38.5190 -38.5189 -38.5189
   -38.4484 -38.4481 -38.4469 -38.4465 -38.4349 -38.4349 -38.4336 -38.4335
   -38.3631 -38.3599 -38.3486 -38.3486 -38.3480 -38.3480 -38.3473 -38.3470
   -38.3469 -38.3468 -38.3465 -38.3464 -38.3460 -38.3460 -38.3362 -38.3361
     4.4629   5.7531   5.9928   5.9929   6.0592   6.0654   6.0716   6.0716
     6.1307   6.1451   6.2674   6.2674   6.3562   6.3562   6.5396   6.5396
     6.6046   6.8073   6.9290   6.9291   6.9580   6.9580   6.9878   6.9878
     7.0085   7.0085   7.0777   7.0807   7.0807   7.0831   7.0955   7.0955
     7.2211   7.2211   7.2888   7.2888   7.3251   7.3251   7.4013   7.4013
     7.4130   7.4131   7.4759   7.4759   7.5379   7.5973   7.5973   7.6156
     7.6156   7.7591   7.7592   7.8254   7.8731   7.8731   7.9227   7.9227
     7.9349   7.9435   7.9435   7.9542   8.1309   8.1309   8.1334   8.1334
     8.1464   8.1568   8.2952   8.2952   8.3055   8.3076   8.3149   8.3149
     8.3476   8.3568   8.4166   8.4166   8.4514   8.4514   8.8011   8.8011
     8.8548   8.8620   8.8671   8.8671   8.8869   8.8869   8.9106   8.9106
     9.0359   9.0359   9.0674   9.0674   9.0801   9.0801   9.0868   9.1034
     9.1345   9.1345   9.1585   9.1585   9.1881   9.2148   9.2346   9.2571
     9.2571   9.3653   9.3653   9.3807   9.3807   9.4592   9.4888   9.4888
     9.5156   9.5156   9.5283   9.5283   9.6565   9.6565   9.7132   9.7132
     9.7150   9.7150   9.7456   9.8783   9.8952   9.8952   9.9629   9.9629
    10.0841  10.0841  10.0958  10.0958  10.0960  10.1155  10.1155  10.1250
    10.2150  10.2282  10.2282  10.2343  10.2400  10.3163  10.3516  10.3680
    10.3680  10.3925  10.3925  10.3928  10.3928  10.5610  10.5611  10.6343
    10.6372  10.6372  10.6386  10.6920  10.7708  10.7876  10.7876  10.7944
    10.7944  10.8431  10.8907  10.9974  10.9975  11.3445  11.3445  11.4019
    11.4019  11.7801  11.7801  12.2512  12.2949  12.4596  12.6685  12.6685
    12.9557  12.9905  12.9905  13.0929  13.0929  13.3258  13.5436  13.5436
    13.5954  15.1775  15.1775  15.5737  15.5737  15.9795  16.0453  16.0453
    16.1440  16.1440  16.1815  16.8641  16.8641  17.4357  17.4357  17.4989
    17.4989  17.9007  19.0606  19.3465  19.3465  19.5146  19.7293  19.7293
    19.8211  19.9573  19.9573  20.0901  20.0902  20.4144  20.4144  20.5942
    20.7689  20.7689

          k = 0.0556 0.0556 0.1088 ( 50523 PWs)   bands (ev):

   -73.3514 -73.3293 -73.3293 -73.3251 -73.3250 -73.3205 -73.3194 -73.3189
   -73.3188 -73.3177 -73.3118 -73.3118 -73.3104 -73.3104 -73.3032 -73.3031
   -72.7598 -72.7597 -72.7453 -72.7453 -72.7453 -72.7453 -72.7441 -72.7441
   -72.7439 -72.7438 -72.7425 -72.7425 -72.7425 -72.7425 -72.7280 -72.7279
   -39.1860 -39.1860 -39.1856 -39.1847 -39.1722 -39.1722 -39.1654 -39.1312
   -39.1312 -39.1283 -39.1283 -39.0911 -39.0911 -39.0800 -39.0800 -39.0709
   -39.0708 -39.0676 -39.0676 -39.0587 -39.0587 -39.0299 -39.0298 -39.0232
   -39.0232 -39.0232 -39.0187 -39.0186 -39.0134 -39.0088 -39.0088 -38.9950
   -38.9919 -38.9919 -38.9775 -38.9774 -38.9745 -38.9736 -38.9635 -38.9634
   -38.9582 -38.9582 -38.9246 -38.9228 -38.9227 -38.9184 -38.9063 -38.9048
   -38.6339 -38.6338 -38.6331 -38.6322 -38.6220 -38.6220 -38.6201 -38.6200
   -38.5516 -38.5516 -38.5514 -38.5514 -38.5366 -38.5366 -38.5363 -38.5363
   -38.5343 -38.5343 -38.5339 -38.5339 -38.5190 -38.5190 -38.5189 -38.5189
   -38.4484 -38.4481 -38.4469 -38.4465 -38.4349 -38.4349 -38.4336 -38.4335
   -38.3632 -38.3599 -38.3486 -38.3486 -38.3481 -38.3481 -38.3472 -38.3469
   -38.3468 -38.3468 -38.3464 -38.3464 -38.3460 -38.3460 -38.3362 -38.3361
     4.4632   5.7525   5.9928   5.9929   6.0593   6.0654   6.0716   6.0716
     6.1307   6.1441   6.2674   6.2674   6.3563   6.3563   6.5397   6.5397
     6.6052   6.8073   6.9290   6.9290   6.9580   6.9580   6.9878   6.9878
     7.0085   7.0085   7.0775   7.0806   7.0806   7.0829   7.0954   7.0954
     7.2211   7.2211   7.2888   7.2888   7.3250   7.3250   7.4012   7.4012
     7.4132   7.4132   7.4758   7.4758   7.5379   7.5973   7.5973   7.6156
     7.6156   7.7591   7.7591   7.8253   7.8730   7.8730   7.9227   7.9227
     7.9349   7.9435   7.9435   7.9543   8.1303   8.1303   8.1333   8.1333
     8.1464   8.1567   8.2945   8.2945   8.3055   8.3076   8.3149   8.3149
     8.3476   8.3568   8.4173   8.4173   8.4521   8.4521   8.8021   8.8021
     8.8558   8.8635   8.8671   8.8671   8.8868   8.8868   8.9109   8.9109
     9.0339   9.0339   9.0672   9.0672   9.0801   9.0801   9.0868   9.1034
     9.1328   9.1328   9.1587   9.1587   9.1878   9.2083   9.2346   9.2576
     9.2576   9.3654   9.3654   9.3818   9.3818   9.4601   9.4885   9.4885
     9.5175   9.5175   9.5288   9.5288   9.6565   9.6565   9.7119   9.7119
     9.7133   9.7133   9.7456   9.8951   9.8952   9.9069   9.9630   9.9631
    10.0835  10.0835  10.0958  10.0958  10.0960  10.1156  10.1156  10.1250
    10.2135  10.2337  10.2337  10.2344  10.2390  10.3163  10.3488  10.3667
    10.3667  10.3924  10.3924  10.3979  10.3979  10.5609  10.5609  10.6343
    10.6373  10.6373  10.6386  10.6920  10.7708  10.7875  10.7875  10.7944
    10.7944  10.8449  10.8907  10.9974  10.9975  11.3322  11.3322  11.4019
    11.4019  11.7683  11.7683  12.1574  12.2519  12.4593  12.6718  12.6718
    12.9639  13.0225  13.0225  13.0912  13.0912  13.4884  13.5755  13.5755
    13.5915  15.1795  15.1795  15.4211  15.4211  15.9893  15.9906  15.9907
    16.0493  16.0493  16.1706  17.1020  17.1020  17.4910  17.4910  17.6788
    17.6788  17.7567  18.9228  19.1952  19.1952  19.5385  19.7325  19.7325
    19.8948  19.9798  19.9798  20.3398  20.3399  20.3453  20.3453  20.4308
    20.4308  20.8733

          k = 0.0556 0.0556 0.1814 ( 50522 PWs)   bands (ev):

   -73.3514 -73.3293 -73.3293 -73.3251 -73.3250 -73.3205 -73.3194 -73.3189
   -73.3188 -73.3177 -73.3118 -73.3118 -73.3104 -73.3104 -73.3032 -73.3031
   -72.7598 -72.7597 -72.7453 -72.7453 -72.7453 -72.7453 -72.7441 -72.7441
   -72.7439 -72.7438 -72.7425 -72.7425 -72.7425 -72.7425 -72.7280 -72.7279
   -39.1861 -39.1860 -39.1856 -39.1847 -39.1722 -39.1722 -39.1654 -39.1313
   -39.1312 -39.1283 -39.1283 -39.0911 -39.0911 -39.0801 -39.0800 -39.0709
   -39.0708 -39.0677 -39.0677 -39.0587 -39.0587 -39.0299 -39.0299 -39.0232
   -39.0232 -39.0232 -39.0187 -39.0186 -39.0134 -39.0088 -39.0088 -38.9950
   -38.9919 -38.9919 -38.9774 -38.9774 -38.9745 -38.9736 -38.9634 -38.9634
   -38.9582 -38.9582 -38.9246 -38.9228 -38.9227 -38.9185 -38.9063 -38.9048
   -38.6339 -38.6338 -38.6330 -38.6322 -38.6221 -38.6220 -38.6201 -38.6200
   -38.5516 -38.5515 -38.5514 -38.5514 -38.5366 -38.5366 -38.5364 -38.5364
   -38.5343 -38.5343 -38.5339 -38.5339 -38.5190 -38.5190 -38.5189 -38.5188
   -38.4484 -38.4481 -38.4468 -38.4465 -38.4349 -38.4349 -38.4336 -38.4335
   -38.3631 -38.3599 -38.3486 -38.3486 -38.3481 -38.3481 -38.3472 -38.3469
   -38.3468 -38.3468 -38.3464 -38.3464 -38.3461 -38.3460 -38.3362 -38.3361
     4.4637   5.7516   5.9929   5.9929   6.0593   6.0655   6.0717   6.0717
     6.1306   6.1426   6.2674   6.2674   6.3564   6.3565   6.5398   6.5398
     6.6061   6.8073   6.9290   6.9290   6.9580   6.9580   6.9878   6.9878
     7.0084   7.0084   7.0772   7.0805   7.0805   7.0827   7.0951   7.0951
     7.2212   7.2212   7.2886   7.2887   7.3250   7.3250   7.4011   7.4011
     7.4134   7.4134   7.4758   7.4758   7.5379   7.5973   7.5974   7.6156
     7.6156   7.7591   7.7591   7.8251   7.8729   7.8729   7.9227   7.9227
     7.9349   7.9434   7.9435   7.9543   8.1296   8.1296   8.1332   8.1332
     8.1463   8.1565   8.2935   8.2935   8.3055   8.3076   8.3149   8.3150
     8.3476   8.3569   8.4182   8.4182   8.4532   8.4532   8.8035   8.8035
     8.8572   8.8658   8.8671   8.8671   8.8867   8.8867   8.9113   8.9113
     9.0307   9.0307   9.0670   9.0670   9.0802   9.0802   9.0868   9.1034
     9.1301   9.1301   9.1590   9.1590   9.1870   9.1996   9.2346   9.2584
     9.2584   9.3655   9.3655   9.3835   9.3835   9.4612   9.4882   9.4882
     9.5205   9.5205   9.5294   9.5294   9.6565   9.6565   9.7100   9.7100
     9.7106   9.7106   9.7456   9.8951   9.8951   9.9526   9.9632   9.9633
    10.0824  10.0824  10.0960  10.0960  10.0961  10.1157  10.1157  10.1251
    10.2111  10.2344  10.2370  10.2423  10.2423  10.3164  10.3445  10.3647
    10.3647  10.3918  10.3918  10.4062  10.4062  10.5607  10.5607  10.6343
    10.6375  10.6375  10.6386  10.6920  10.7708  10.7874  10.7874  10.7942
    10.7942  10.8482  10.8907  10.9974  10.9975  11.3135  11.3135  11.4019
    11.4019  11.7504  11.7505  11.9875  12.2532  12.4588  12.6769  12.6769
    12.9767  13.0735  13.0735  13.0886  13.0886  13.5853  13.6264  13.6264
    13.6999  15.1826  15.1826  15.2340  15.2340  15.8031  15.8031  16.0080
    16.0556  16.0556  16.1500  17.4574  17.4574  17.4791  17.4791  17.5473
    18.0463  18.0463  18.8077  19.0396  19.0397  19.3860  19.7374  19.7374
    19.8503  19.8503  20.0154  20.0154  20.2215  20.3478  20.3478  20.4268
    20.4268  20.6851

          k = 0.0556 0.0556 0.2540 ( 50517 PWs)   bands (ev):

   -73.3514 -73.3293 -73.3293 -73.3251 -73.3250 -73.3205 -73.3194 -73.3189
   -73.3188 -73.3177 -73.3118 -73.3118 -73.3104 -73.3104 -73.3032 -73.3031
   -72.7598 -72.7597 -72.7453 -72.7453 -72.7453 -72.7453 -72.7441 -72.7441
   -72.7439 -72.7438 -72.7425 -72.7425 -72.7425 -72.7425 -72.7280 -72.7279
   -39.1861 -39.1860 -39.1856 -39.1848 -39.1722 -39.1722 -39.1654 -39.1312
   -39.1312 -39.1283 -39.1283 -39.0911 -39.0911 -39.0801 -39.0800 -39.0709
   -39.0708 -39.0677 -39.0677 -39.0588 -39.0587 -39.0300 -39.0299 -39.0232
   -39.0232 -39.0232 -39.0187 -39.0186 -39.0134 -39.0088 -39.0088 -38.9949
   -38.9919 -38.9919 -38.9774 -38.9774 -38.9746 -38.9736 -38.9635 -38.9634
   -38.9582 -38.9582 -38.9246 -38.9228 -38.9227 -38.9184 -38.9063 -38.9047
   -38.6339 -38.6338 -38.6330 -38.6321 -38.6221 -38.6221 -38.6201 -38.6200
   -38.5516 -38.5516 -38.5514 -38.5514 -38.5366 -38.5366 -38.5364 -38.5364
   -38.5343 -38.5343 -38.5339 -38.5339 -38.5190 -38.5190 -38.5188 -38.5188
   -38.4484 -38.4481 -38.4469 -38.4464 -38.4349 -38.4348 -38.4336 -38.4335
   -38.3631 -38.3598 -38.3485 -38.3485 -38.3481 -38.3481 -38.3472 -38.3469
   -38.3468 -38.3467 -38.3464 -38.3464 -38.3461 -38.3461 -38.3362 -38.3361
     4.4641   5.7508   5.9929   5.9929   6.0594   6.0655   6.0717   6.0717
     6.1306   6.1413   6.2674   6.2674   6.3566   6.3566   6.5399   6.5399
     6.6070   6.8073   6.9289   6.9289   6.9580   6.9580   6.9878   6.9878
     7.0084   7.0084   7.0770   7.0803   7.0803   7.0825   7.0948   7.0948
     7.2212   7.2213   7.2885   7.2885   7.3249   7.3249   7.4010   7.4010
     7.4137   7.4137   7.4757   7.4757   7.5379   7.5973   7.5974   7.6156
     7.6156   7.7590   7.7590   7.8249   7.8728   7.8729   7.9228   7.9228
     7.9349   7.9434   7.9434   7.9543   8.1289   8.1289   8.1331   8.1331
     8.1462   8.1564   8.2925   8.2925   8.3055   8.3076   8.3149   8.3150
     8.3476   8.3570   8.4191   8.4191   8.4541   8.4541   8.8048   8.8048
     8.8585   8.8672   8.8672   8.8678   8.8866   8.8866   8.9117   8.9117
     9.0280   9.0280   9.0669   9.0669   9.0802   9.0802   9.0868   9.1034
     9.1277   9.1278   9.1593   9.1593   9.1849   9.1940   9.2346   9.2590
     9.2590   9.3656   9.3656   9.3850   9.3850   9.4620   9.4879   9.4879
     9.5232   9.5232   9.5300   9.5300   9.6566   9.6566   9.7083   9.7083
     9.7083   9.7083   9.7457   9.8951   9.8951   9.9634   9.9634   9.9951
    10.0815  10.0815  10.0961  10.0961  10.0961  10.1158  10.1158  10.1251
    10.2091  10.2344  10.2345  10.2499  10.2499  10.3164  10.3408  10.3629
    10.3629  10.3913  10.3913  10.4136  10.4136  10.5605  10.5606  10.6343
    10.6376  10.6376  10.6386  10.6920  10.7708  10.7873  10.7873  10.7941
    10.7941  10.8518  10.8906  10.9974  10.9975  11.2973  11.2973  11.4019
    11.4019  11.7350  11.7350  11.8584  12.2544  12.4582  12.6814  12.6815
    12.9881  13.0862  13.0862  13.1210  13.1210  13.5796  13.6737  13.6737
    13.8691  15.0932  15.0932  15.1853  15.1853  15.6621  15.6621  16.0322
    16.0612  16.0613  16.1238  17.3694  17.4687  17.4687  17.8247  17.8247
    18.4406  18.4406  18.7437  18.9351  18.9352  19.2607  19.3934  19.3934
    19.7405  19.7405  19.8591  19.8591  20.0478  20.0478  20.4309  20.4309
    20.6147  21.0369

          k = 0.0556 0.0556-0.3265 ( 50496 PWs)   bands (ev):

   -73.3514 -73.3293 -73.3293 -73.3251 -73.3250 -73.3205 -73.3194 -73.3189
   -73.3188 -73.3177 -73.3118 -73.3118 -73.3104 -73.3104 -73.3032 -73.3031
   -72.7598 -72.7597 -72.7453 -72.7453 -72.7453 -72.7453 -72.7441 -72.7441
   -72.7439 -72.7438 -72.7425 -72.7425 -72.7425 -72.7425 -72.7280 -72.7279
   -39.1861 -39.1860 -39.1856 -39.1847 -39.1722 -39.1722 -39.1654 -39.1313
   -39.1313 -39.1283 -39.1283 -39.0911 -39.0911 -39.0801 -39.0801 -39.0709
   -39.0708 -39.0677 -39.0677 -39.0588 -39.0587 -39.0299 -39.0298 -39.0232
   -39.0232 -39.0231 -39.0186 -39.0185 -39.0134 -39.0088 -39.0088 -38.9950
   -38.9919 -38.9919 -38.9775 -38.9774 -38.9745 -38.9735 -38.9634 -38.9634
   -38.9582 -38.9582 -38.9245 -38.9228 -38.9227 -38.9184 -38.9063 -38.9047
   -38.6339 -38.6338 -38.6330 -38.6321 -38.6221 -38.6221 -38.6201 -38.6200
   -38.5516 -38.5516 -38.5514 -38.5514 -38.5366 -38.5366 -38.5364 -38.5364
   -38.5343 -38.5343 -38.5339 -38.5339 -38.5191 -38.5190 -38.5188 -38.5188
   -38.4484 -38.4481 -38.4468 -38.4465 -38.4349 -38.4348 -38.4336 -38.4335
   -38.3631 -38.3599 -38.3485 -38.3485 -38.3481 -38.3481 -38.3471 -38.3468
   -38.3468 -38.3467 -38.3464 -38.3464 -38.3461 -38.3460 -38.3362 -38.3361
     4.4643   5.7504   5.9929   5.9929   6.0594   6.0655   6.0718   6.0718
     6.1306   6.1407   6.2674   6.2674   6.3567   6.3567   6.5400   6.5400
     6.6073   6.8073   6.9289   6.9289   6.9580   6.9580   6.9878   6.9878
     7.0084   7.0084   7.0769   7.0803   7.0803   7.0824   7.0947   7.0947
     7.2213   7.2213   7.2885   7.2885   7.3248   7.3248   7.4009   7.4009
     7.4137   7.4137   7.4757   7.4757   7.5379   7.5973   7.5974   7.6156
     7.6156   7.7590   7.7590   7.8249   7.8728   7.8729   7.9228   7.9228
     7.9349   7.9434   7.9434   7.9543   8.1286   8.1286   8.1331   8.1331
     8.1462   8.1564   8.2922   8.2922   8.3055   8.3076   8.3149   8.3150
     8.3475   8.3569   8.4194   8.4194   8.4545   8.4545   8.8053   8.8053
     8.8590   8.8672   8.8672   8.8687   8.8865   8.8865   8.9118   8.9118
     9.0269   9.0269   9.0668   9.0668   9.0802   9.0802   9.0868   9.1034
     9.1268   9.1269   9.1594   9.1594   9.1834   9.1926   9.2346   9.2592
     9.2593   9.3657   9.3657   9.3855   9.3855   9.4623   9.4878   9.4878
     9.5242   9.5242   9.5303   9.5303   9.6566   9.6566   9.7074   9.7074
     9.7077   9.7077   9.7456   9.8951   9.8951   9.9635   9.9635  10.0128
    10.0811  10.0811  10.0961  10.0961  10.0961  10.1158  10.1158  10.1251
    10.2083  10.2331  10.2344  10.2530  10.2530  10.3164  10.3393  10.3622
    10.3622  10.3911  10.3911  10.4165  10.4165  10.5605  10.5605  10.6343
    10.6377  10.6377  10.6386  10.6920  10.7708  10.7872  10.7872  10.7941
    10.7941  10.8536  10.8906  10.9974  10.9975  11.2909  11.2909  11.4019
    11.4019  11.7289  11.7289  11.8104  12.2548  12.4579  12.6833  12.6833
    12.9927  13.0852  13.0852  13.1405  13.1405  13.5773  13.6932  13.6932
    13.9339  15.0412  15.0412  15.1864  15.1864  15.6102  15.6102  16.0475
    16.0635  16.0635  16.1076  17.2998  17.4646  17.4646  18.0178  18.0178
    18.6666  18.6666  18.7245  18.8988  18.8989  19.1704  19.1704  19.2141
    19.5985  19.5985  19.7454  19.7454  20.0610  20.0610  20.4326  20.4326
    21.0286  21.2257

          k = 0.0556 0.1667 0.0363 ( 50567 PWs)   bands (ev):

   -73.3507 -73.3334 -73.3290 -73.3248 -73.3221 -73.3209 -73.3200 -73.3192
   -73.3172 -73.3166 -73.3132 -73.3120 -73.3107 -73.3090 -73.3039 -73.3034
   -72.7593 -72.7592 -72.7481 -72.7480 -72.7453 -72.7452 -72.7443 -72.7443
   -72.7436 -72.7436 -72.7426 -72.7425 -72.7398 -72.7398 -72.7285 -72.7284
   -39.1842 -39.1832 -39.1820 -39.1807 -39.1695 -39.1693 -39.1641 -39.1360
   -39.1341 -39.1324 -39.1283 -39.1104 -39.1042 -39.0995 -39.0788 -39.0712
   -39.0700 -39.0652 -39.0515 -39.0442 -39.0400 -39.0339 -39.0312 -39.0275
   -39.0273 -39.0245 -39.0236 -39.0161 -39.0141 -39.0083 -39.0061 -39.0031
   -38.9925 -38.9830 -38.9771 -38.9701 -38.9681 -38.9676 -38.9638 -38.9633
   -38.9585 -38.9545 -38.9299 -38.9293 -38.9241 -38.9173 -38.9111 -38.9063
   -38.6326 -38.6317 -38.6294 -38.6276 -38.6208 -38.6206 -38.6162 -38.6161
   -38.5684 -38.5682 -38.5662 -38.5658 -38.5541 -38.5535 -38.5495 -38.5489
   -38.5217 -38.5211 -38.5169 -38.5164 -38.5043 -38.5042 -38.5020 -38.5017
   -38.4527 -38.4525 -38.4480 -38.4478 -38.4394 -38.4393 -38.4353 -38.4353
   -38.3624 -38.3595 -38.3508 -38.3503 -38.3486 -38.3479 -38.3477 -38.3469
   -38.3469 -38.3466 -38.3465 -38.3460 -38.3443 -38.3441 -38.3365 -38.3364
     4.5326   5.8077   6.0295   6.0352   6.0756   6.0793   6.0909   6.1084
     6.1136   6.1692   6.1973   6.2918   6.2936   6.3573   6.5392   6.6021
     6.6574   6.8407   6.8504   6.8648   6.8709   6.8784   6.8802   6.9703
     6.9743   7.0101   7.0156   7.0160   7.0368   7.0701   7.0776   7.1158
     7.1183   7.1510   7.1988   7.2669   7.3627   7.3722   7.3755   7.3789
     7.4043   7.4143   7.4212   7.5572   7.5939   7.6190   7.6600   7.7054
     7.7067   7.7466   7.7594   7.8126   7.8185   7.8523   7.9035   7.9382
     7.9492   7.9596   7.9854   8.0104   8.0540   8.0993   8.1450   8.1547
     8.1626   8.1684   8.3253   8.3287   8.3332   8.3369   8.3476   8.3497
     8.3642   8.4149   8.4472   8.4505   8.4627   8.5896   8.6716   8.6903
     8.6917   8.7292   8.7690   8.7745   8.8110   8.8697   8.8761   8.9002
     8.9765   8.9879   9.0053   9.0278   9.0671   9.0899   9.1406   9.1513
     9.1667   9.1882   9.1884   9.2171   9.2267   9.2503   9.2625   9.2744
     9.2763   9.2806   9.3007   9.3596   9.4296   9.4528   9.4667   9.4739
     9.5945   9.6082   9.6100   9.6713   9.7050   9.7329   9.7348   9.7967
     9.8184   9.8261   9.8565   9.9126   9.9342   9.9520   9.9757   9.9789
     9.9862  10.0137  10.0442  10.1066  10.1176  10.1321  10.1338  10.1817
    10.1820  10.2102  10.2104  10.2119  10.3438  10.3499  10.3642  10.3715
    10.3839  10.4101  10.4215  10.4765  10.5290  10.5459  10.5547  10.5561
    10.5823  10.5900  10.6789  10.6910  10.7337  10.7585  10.7783  10.7824
    10.7982  10.8062  10.8780  10.8928  10.9306  11.0032  11.2847  11.3197
    11.3427  11.7940  11.8622  12.0042  12.3178  12.4583  12.4786  12.4886
    12.5426  12.9989  13.0611  13.1502  13.5349  13.5572  13.6720  14.1550
    14.1695  14.7831  15.0296  15.4106  15.6030  16.0288  16.1102  16.1666
    16.2466  16.3177  16.3451  16.7444  16.9219  16.9687  17.4834  17.6600
    17.9867  18.0378  18.9327  18.9655  19.0272  19.0773  19.1075  19.1457
    19.5431  19.5578  19.8588  20.0739  20.1913  20.2554  20.4280  20.6387
    20.7033  20.7156

          k = 0.0556 0.1667 0.1088 ( 50541 PWs)   bands (ev):

   -73.3507 -73.3334 -73.3290 -73.3248 -73.3221 -73.3209 -73.3200 -73.3192
   -73.3172 -73.3166 -73.3132 -73.3120 -73.3107 -73.3090 -73.3039 -73.3034
   -72.7593 -72.7592 -72.7481 -72.7480 -72.7453 -72.7452 -72.7443 -72.7443
   -72.7436 -72.7436 -72.7426 -72.7425 -72.7398 -72.7398 -72.7285 -72.7284
   -39.1841 -39.1832 -39.1819 -39.1806 -39.1694 -39.1693 -39.1641 -39.1361
   -39.1341 -39.1324 -39.1283 -39.1104 -39.1042 -39.0995 -39.0788 -39.0712
   -39.0700 -39.0651 -39.0515 -39.0442 -39.0400 -39.0339 -39.0312 -39.0275
   -39.0272 -39.0244 -39.0235 -39.0161 -39.0141 -39.0083 -39.0061 -39.0031
   -38.9924 -38.9830 -38.9771 -38.9701 -38.9681 -38.9676 -38.9638 -38.9632
   -38.9585 -38.9545 -38.9299 -38.9293 -38.9241 -38.9172 -38.9112 -38.9062
   -38.6326 -38.6317 -38.6293 -38.6276 -38.6208 -38.6206 -38.6162 -38.6161
   -38.5684 -38.5681 -38.5662 -38.5658 -38.5541 -38.5535 -38.5495 -38.5489
   -38.5216 -38.5211 -38.5169 -38.5164 -38.5043 -38.5042 -38.5020 -38.5018
   -38.4527 -38.4525 -38.4480 -38.4477 -38.4394 -38.4393 -38.4353 -38.4352
   -38.3624 -38.3595 -38.3508 -38.3503 -38.3486 -38.3480 -38.3476 -38.3469
   -38.3468 -38.3465 -38.3465 -38.3460 -38.3444 -38.3441 -38.3365 -38.3364
     4.5329   5.8071   6.0296   6.0352   6.0756   6.0795   6.0910   6.1084
     6.1136   6.1691   6.1964   6.2918   6.2936   6.3574   6.5392   6.6022
     6.6580   6.8407   6.8504   6.8647   6.8708   6.8784   6.8801   6.9702
     6.9743   7.0100   7.0156   7.0160   7.0366   7.0699   7.0775   7.1156
     7.1181   7.1512   7.1986   7.2671   7.3627   7.3722   7.3755   7.3789
     7.4042   7.4142   7.4214   7.5572   7.5938   7.6190   7.6600   7.7057
     7.7067   7.7464   7.7593   7.8126   7.8184   7.8523   7.9035   7.9378
     7.9493   7.9596   7.9854   8.0104   8.0540   8.0993   8.1450   8.1546
     8.1626   8.1680   8.3248   8.3287   8.3332   8.3369   8.3476   8.3499
     8.3642   8.4142   8.4478   8.4509   8.4630   8.5903   8.6716   8.6912
     8.6923   8.7292   8.7696   8.7759   8.8108   8.8696   8.8764   8.9005
     8.9740   8.9878   9.0052   9.0301   9.0650   9.0912   9.1407   9.1516
     9.1650   9.1886   9.1894   9.2170   9.2207   9.2505   9.2610   9.2743
     9.2763   9.2809   9.3008   9.3596   9.4291   9.4542   9.4676   9.4757
     9.5938   9.6089   9.6104   9.6728   9.7050   9.7331   9.7347   9.7958
     9.8166   9.8256   9.8570   9.9116   9.9343   9.9521   9.9718   9.9784
     9.9852  10.0341  10.0432  10.1067  10.1233  10.1320  10.1338  10.1818
    10.1821  10.2085  10.2104  10.2172  10.3437  10.3495  10.3631  10.3712
    10.3892  10.4071  10.4213  10.4752  10.5289  10.5459  10.5564  10.5565
    10.5825  10.5901  10.6789  10.6953  10.7335  10.7664  10.7782  10.7824
    10.7985  10.8061  10.8781  10.8929  10.9307  10.9903  11.2847  11.3197
    11.3309  11.7827  11.8610  12.0037  12.3065  12.3254  12.4784  12.5206
    12.5420  13.0308  13.0767  13.1584  13.5889  13.6685  13.6962  14.1616
    14.1867  14.7854  14.8801  15.4126  15.4518  16.0155  16.0391  16.1137
    16.2358  16.3192  16.5459  16.5929  16.9595  17.1585  17.6519  17.7231
    17.8358  18.2811  18.8231  18.9409  18.9687  19.0302  19.1357  19.3957
    19.5612  19.5620  19.8392  19.9369  20.0970  20.1018  20.3724  20.3878
    20.6965  20.8749

          k = 0.0556 0.1667 0.1814 ( 50528 PWs)   bands (ev):

   -73.3507 -73.3334 -73.3290 -73.3248 -73.3221 -73.3209 -73.3200 -73.3192
   -73.3172 -73.3166 -73.3132 -73.3120 -73.3107 -73.3090 -73.3039 -73.3034
   -72.7593 -72.7592 -72.7481 -72.7480 -72.7453 -72.7452 -72.7443 -72.7443
   -72.7436 -72.7436 -72.7426 -72.7425 -72.7398 -72.7398 -72.7285 -72.7284
   -39.1841 -39.1832 -39.1819 -39.1806 -39.1694 -39.1693 -39.1640 -39.1360
   -39.1341 -39.1324 -39.1283 -39.1104 -39.1042 -39.0996 -39.0788 -39.0712
   -39.0699 -39.0652 -39.0515 -39.0442 -39.0400 -39.0340 -39.0313 -39.0275
   -39.0272 -39.0245 -39.0235 -39.0162 -39.0141 -39.0082 -39.0061 -39.0031
   -38.9925 -38.9830 -38.9772 -38.9701 -38.9681 -38.9677 -38.9638 -38.9632
   -38.9586 -38.9545 -38.9298 -38.9293 -38.9241 -38.9172 -38.9112 -38.9062
   -38.6326 -38.6317 -38.6293 -38.6276 -38.6208 -38.6206 -38.6162 -38.6161
   -38.5684 -38.5681 -38.5662 -38.5658 -38.5542 -38.5535 -38.5495 -38.5489
   -38.5216 -38.5211 -38.5169 -38.5164 -38.5043 -38.5042 -38.5020 -38.5018
   -38.4527 -38.4525 -38.4480 -38.4477 -38.4394 -38.4393 -38.4353 -38.4352
   -38.3624 -38.3595 -38.3507 -38.3503 -38.3486 -38.3480 -38.3476 -38.3468
   -38.3468 -38.3465 -38.3464 -38.3460 -38.3444 -38.3441 -38.3366 -38.3364
     4.5334   5.8062   6.0296   6.0352   6.0757   6.0797   6.0910   6.1085
     6.1137   6.1690   6.1949   6.2918   6.2937   6.3575   6.5393   6.6023
     6.6589   6.8407   6.8504   6.8647   6.8706   6.8784   6.8800   6.9702
     6.9743   7.0100   7.0156   7.0160   7.0363   7.0695   7.0774   7.1154
     7.1178   7.1513   7.1984   7.2675   7.3628   7.3722   7.3755   7.3789
     7.4041   7.4141   7.4215   7.5572   7.5935   7.6190   7.6601   7.7062
     7.7066   7.7461   7.7591   7.8126   7.8182   7.8523   7.9035   7.9373
     7.9494   7.9596   7.9854   8.0105   8.0540   8.0992   8.1450   8.1546
     8.1624   8.1674   8.3240   8.3286   8.3332   8.3370   8.3477   8.3501
     8.3641   8.4133   8.4488   8.4515   8.4635   8.5914   8.6715   8.6924
     8.6932   8.7292   8.7705   8.7782   8.8104   8.8695   8.8769   8.9009
     8.9701   8.9878   9.0051   9.0339   9.0622   9.0927   9.1408   9.1521
     9.1626   9.1890   9.1909   9.2115   9.2172   9.2508   9.2586   9.2742
     9.2763   9.2814   9.3010   9.3595   9.4282   9.4562   9.4690   9.4782
     9.5927   9.6101   9.6111   9.6753   9.7050   9.7307   9.7373   9.7944
     9.8138   9.8248   9.8579   9.9099   9.9343   9.9523   9.9689   9.9775
     9.9837  10.0417  10.0639  10.1068  10.1319  10.1321  10.1339  10.1818
    10.1821  10.2049  10.2105  10.2256  10.3436  10.3489  10.3611  10.3706
    10.3974  10.4026  10.4209  10.4733  10.5288  10.5457  10.5570  10.5594
    10.5828  10.5902  10.6791  10.7019  10.7332  10.7781  10.7803  10.7824
    10.7991  10.8060  10.8781  10.8932  10.9307  10.9708  11.2848  11.3131
    11.3197  11.7656  11.8592  12.0029  12.1592  12.2893  12.4782  12.5409
    12.5716  13.0817  13.1010  13.1711  13.6395  13.6630  13.9094  14.1489
    14.2374  14.6958  14.7888  15.2654  15.4157  15.8294  16.0583  16.1222
    16.2151  16.2768  16.4074  16.8823  16.9456  17.5136  17.6166  17.6395
    18.0861  18.6528  18.7742  18.8255  18.9735  19.0349  19.1808  19.3807
    19.4114  19.5663  19.6409  19.8934  19.9998  20.1333  20.2443  20.2626
    20.6305  20.6531

          k = 0.0556 0.1667 0.2540 ( 50501 PWs)   bands (ev):

   -73.3507 -73.3334 -73.3290 -73.3248 -73.3221 -73.3209 -73.3200 -73.3192
   -73.3172 -73.3166 -73.3132 -73.3120 -73.3107 -73.3090 -73.3039 -73.3034
   -72.7593 -72.7592 -72.7481 -72.7480 -72.7453 -72.7452 -72.7443 -72.7443
   -72.7436 -72.7436 -72.7426 -72.7425 -72.7398 -72.7398 -72.7285 -72.7284
   -39.1841 -39.1832 -39.1819 -39.1806 -39.1694 -39.1693 -39.1640 -39.1360
   -39.1341 -39.1324 -39.1283 -39.1104 -39.1043 -39.0996 -39.0788 -39.0712
   -39.0699 -39.0652 -39.0515 -39.0442 -39.0400 -39.0339 -39.0313 -39.0275
   -39.0272 -39.0244 -39.0235 -39.0161 -39.0141 -39.0083 -39.0061 -39.0031
   -38.9924 -38.9830 -38.9772 -38.9701 -38.9681 -38.9676 -38.9638 -38.9632
   -38.9585 -38.9545 -38.9298 -38.9293 -38.9241 -38.9172 -38.9112 -38.9062
   -38.6325 -38.6317 -38.6293 -38.6276 -38.6208 -38.6206 -38.6162 -38.6161
   -38.5684 -38.5681 -38.5662 -38.5658 -38.5541 -38.5535 -38.5496 -38.5489
   -38.5216 -38.5211 -38.5169 -38.5164 -38.5043 -38.5042 -38.5020 -38.5017
   -38.4527 -38.4525 -38.4480 -38.4477 -38.4394 -38.4393 -38.4353 -38.4352
   -38.3624 -38.3595 -38.3507 -38.3503 -38.3485 -38.3480 -38.3475 -38.3468
   -38.3468 -38.3465 -38.3464 -38.3460 -38.3443 -38.3442 -38.3365 -38.3364
     4.5338   5.8055   6.0296   6.0352   6.0758   6.0800   6.0910   6.1085
     6.1137   6.1689   6.1936   6.2918   6.2937   6.3576   6.5394   6.6024
     6.6597   6.8407   6.8504   6.8647   6.8705   6.8784   6.8799   6.9701
     6.9742   7.0099   7.0156   7.0160   7.0360   7.0693   7.0772   7.1152
     7.1175   7.1514   7.1982   7.2678   7.3628   7.3722   7.3755   7.3789
     7.4040   7.4140   7.4217   7.5572   7.5933   7.6189   7.6602   7.7066
     7.7066   7.7459   7.7590   7.8127   7.8180   7.8523   7.9034   7.9368
     7.9496   7.9596   7.9854   8.0106   8.0540   8.0992   8.1450   8.1545
     8.1623   8.1668   8.3233   8.3286   8.3332   8.3370   8.3478   8.3502
     8.3641   8.4124   8.4497   8.4521   8.4639   8.5923   8.6715   8.6936
     8.6940   8.7291   8.7714   8.7801   8.8101   8.8694   8.8773   8.9012
     8.9668   8.9877   9.0050   9.0374   9.0599   9.0938   9.1409   9.1525
     9.1606   9.1893   9.1920   9.2038   9.2171   9.2511   9.2565   9.2741
     9.2763   9.2818   9.3012   9.3595   9.4274   9.4580   9.4703   9.4802
     9.5917   9.6111   9.6117   9.6775   9.7050   9.7286   9.7393   9.7932
     9.8114   9.8241   9.8586   9.9085   9.9344   9.9525   9.9675   9.9767
     9.9824  10.0404  10.0915  10.1069  10.1318  10.1339  10.1401  10.1819
    10.1822  10.2001  10.2105  10.2330  10.3435  10.3483  10.3592  10.3701
    10.3986  10.4046  10.4206  10.4717  10.5287  10.5456  10.5574  10.5620
    10.5830  10.5903  10.6792  10.7077  10.7331  10.7781  10.7823  10.7949
    10.7997  10.8059  10.8782  10.8936  10.9307  10.9538  11.2848  11.2976
    11.3197  11.7507  11.8577  12.0021  12.0321  12.2745  12.4782  12.5399
    12.6189  13.1229  13.1289  13.1825  13.6578  13.6865  14.0824  14.1371
    14.2844  14.5565  14.7918  15.1248  15.4185  15.6892  16.0824  16.1370
    16.1896  16.2328  16.2678  16.9335  17.2156  17.4300  17.6287  17.8816
    18.4728  18.7611  18.7672  18.9689  18.9774  19.0386  19.0640  19.2227
    19.2861  19.4424  19.5710  19.6436  19.8846  20.1662  20.2443  20.3451
    20.4778  20.6577

          k = 0.0556 0.1667-0.3265 ( 50474 PWs)   bands (ev):

   -73.3507 -73.3334 -73.3290 -73.3248 -73.3221 -73.3209 -73.3200 -73.3192
   -73.3172 -73.3166 -73.3132 -73.3120 -73.3107 -73.3090 -73.3039 -73.3034
   -72.7593 -72.7592 -72.7481 -72.7480 -72.7453 -72.7452 -72.7443 -72.7443
   -72.7436 -72.7436 -72.7426 -72.7425 -72.7398 -72.7398 -72.7285 -72.7284
   -39.1841 -39.1833 -39.1819 -39.1806 -39.1694 -39.1693 -39.1640 -39.1360
   -39.1341 -39.1324 -39.1283 -39.1104 -39.1042 -39.0995 -39.0788 -39.0712
   -39.0699 -39.0652 -39.0515 -39.0442 -39.0400 -39.0339 -39.0312 -39.0275
   -39.0272 -39.0244 -39.0235 -39.0161 -39.0141 -39.0083 -39.0061 -39.0031
   -38.9924 -38.9830 -38.9772 -38.9701 -38.9681 -38.9676 -38.9638 -38.9632
   -38.9585 -38.9544 -38.9298 -38.9293 -38.9241 -38.9173 -38.9112 -38.9062
   -38.6325 -38.6318 -38.6293 -38.6276 -38.6208 -38.6206 -38.6162 -38.6161
   -38.5684 -38.5681 -38.5662 -38.5657 -38.5541 -38.5535 -38.5495 -38.5488
   -38.5215 -38.5211 -38.5169 -38.5164 -38.5042 -38.5042 -38.5020 -38.5017
   -38.4527 -38.4525 -38.4480 -38.4477 -38.4394 -38.4393 -38.4353 -38.4353
   -38.3624 -38.3595 -38.3506 -38.3503 -38.3485 -38.3480 -38.3475 -38.3468
   -38.3468 -38.3465 -38.3464 -38.3460 -38.3443 -38.3442 -38.3365 -38.3364
     4.5340   5.8051   6.0296   6.0352   6.0758   6.0800   6.0910   6.1086
     6.1138   6.1689   6.1931   6.2918   6.2937   6.3577   6.5394   6.6024
     6.6600   6.8407   6.8504   6.8647   6.8704   6.8784   6.8798   6.9701
     6.9742   7.0099   7.0156   7.0160   7.0359   7.0691   7.0772   7.1151
     7.1174   7.1515   7.1981   7.2680   7.3628   7.3722   7.3755   7.3789
     7.4040   7.4139   7.4217   7.5573   7.5933   7.6190   7.6602   7.7066
     7.7068   7.7458   7.7590   7.8127   7.8179   7.8523   7.9034   7.9366
     7.9496   7.9597   7.9854   8.0106   8.0540   8.0991   8.1450   8.1545
     8.1623   8.1666   8.3230   8.3286   8.3332   8.3370   8.3478   8.3503
     8.3640   8.4121   8.4500   8.4523   8.4641   8.5927   8.6715   8.6940
     8.6943   8.7291   8.7717   8.7809   8.8100   8.8694   8.8775   8.9014
     8.9655   8.9877   9.0050   9.0388   9.0591   9.0942   9.1409   9.1527
     9.1599   9.1894   9.1924   9.2007   9.2171   9.2511   9.2557   9.2741
     9.2763   9.2819   9.3012   9.3595   9.4271   9.4587   9.4708   9.4809
     9.5913   9.6116   9.6119   9.6784   9.7051   9.7277   9.7400   9.7927
     9.8105   9.8239   9.8589   9.9079   9.9344   9.9526   9.9671   9.9763
     9.9819  10.0399  10.1033  10.1070  10.1318  10.1339  10.1433  10.1820
    10.1823  10.1974  10.2105  10.2360  10.3435  10.3481  10.3584  10.3699
    10.3971  10.4074  10.4204  10.4711  10.5286  10.5456  10.5576  10.5630
    10.5831  10.5903  10.6793  10.7099  10.7330  10.7780  10.7823  10.8000
    10.8014  10.8059  10.8782  10.8938  10.9307  10.9472  11.2848  11.2915
    11.3197  11.7449  11.8571  11.9847  12.0017  12.2687  12.4783  12.5394
    12.6384  13.1317  13.1484  13.1871  13.6557  13.7059  14.1323  14.1492
    14.3038  14.5050  14.7930  15.0728  15.4196  15.6374  16.0965  16.1486
    16.1748  16.2097  16.2163  16.9288  17.3567  17.3775  17.6245  18.0755
    18.6903  18.7418  18.7707  18.7804  18.9777  19.0407  19.2201  19.2393
    19.2400  19.3190  19.5728  19.6054  19.6535  20.0667  20.1795  20.4503
    20.6672  20.6793

          k = 0.0556 0.2778 0.0363 ( 50528 PWs)   bands (ev):

   -73.3492 -73.3374 -73.3284 -73.3244 -73.3237 -73.3211 -73.3187 -73.3169
   -73.3157 -73.3155 -73.3146 -73.3124 -73.3112 -73.3077 -73.3053 -73.3039
   -72.7583 -72.7583 -72.7507 -72.7506 -72.7452 -72.7452 -72.7446 -72.7445
   -72.7434 -72.7433 -72.7427 -72.7426 -72.7372 -72.7371 -72.7294 -72.7294
   -39.1790 -39.1776 -39.1749 -39.1741 -39.1641 -39.1636 -39.1615 -39.1417
   -39.1400 -39.1396 -39.1322 -39.1287 -39.1185 -39.1184 -39.0830 -39.0761
   -39.0602 -39.0596 -39.0400 -39.0337 -39.0337 -39.0314 -39.0303 -39.0293
   -39.0278 -39.0237 -39.0229 -39.0196 -39.0160 -39.0138 -39.0103 -39.0039
   -38.9829 -38.9780 -38.9753 -38.9707 -38.9640 -38.9620 -38.9586 -38.9552
   -38.9524 -38.9497 -38.9391 -38.9364 -38.9286 -38.9194 -38.9190 -38.9105
   -38.6283 -38.6268 -38.6226 -38.6204 -38.6171 -38.6167 -38.6098 -38.6095
   -38.5844 -38.5836 -38.5798 -38.5792 -38.5711 -38.5699 -38.5642 -38.5635
   -38.5069 -38.5062 -38.4999 -38.4995 -38.4905 -38.4903 -38.4858 -38.4856
   -38.4595 -38.4594 -38.4519 -38.4517 -38.4467 -38.4466 -38.4402 -38.4401
   -38.3611 -38.3588 -38.3528 -38.3526 -38.3486 -38.3480 -38.3477 -38.3470
   -38.3469 -38.3466 -38.3462 -38.3459 -38.3424 -38.3423 -38.3372 -38.3371
     4.6700   5.7565   5.9139   6.1008   6.1175   6.1178   6.1484   6.1730
     6.1847   6.2475   6.2970   6.3399   6.3467   6.3473   6.5181   6.5585
     6.6763   6.6837   6.7064   6.7070   6.7392   6.7581   6.8292   6.9088
     6.9143   6.9658   7.0503   7.0618   7.0622   7.0741   7.0754   7.0812
     7.0840   7.1266   7.1496   7.1523   7.3092   7.3517   7.3591   7.3906
     7.4116   7.4393   7.4886   7.5899   7.5961   7.6086   7.6162   7.6404
     7.6658   7.7221   7.7460   7.7844   7.7936   7.9268   7.9328   7.9693
     7.9731   7.9764   8.0472   8.0525   8.0914   8.1422   8.1675   8.1755
     8.2283   8.3008   8.3274   8.3551   8.3654   8.3690   8.3726   8.3777
     8.4117   8.4489   8.4571   8.4990   8.5089   8.5132   8.5496   8.6086
     8.6313   8.6600   8.6662   8.7376   8.8139   8.8207   8.8237   8.8300
     8.8607   8.8742   8.9112   8.9766   9.0069   9.0632   9.1077   9.1152
     9.1910   9.2075   9.2228   9.2391   9.2695   9.2965   9.3088   9.3382
     9.3569   9.3591   9.3944   9.4046   9.4638   9.4882   9.5232   9.6063
     9.6753   9.6923   9.7040   9.7195   9.7280   9.7709   9.8027   9.8226
     9.8274   9.8679   9.8762   9.8928   9.9239   9.9293   9.9346   9.9728
     9.9782  10.0389  10.1308  10.1340  10.1391  10.1947  10.1950  10.2684
    10.2883  10.2931  10.2957  10.3049  10.3182  10.3390  10.3729  10.3848
    10.3876  10.3914  10.4615  10.4655  10.4693  10.4732  10.5147  10.5283
    10.5420  10.5666  10.5719  10.6536  10.6550  10.7448  10.7520  10.7653
    10.7926  10.8042  10.8081  10.8204  10.8859  11.1024  11.1802  11.2193
    11.3417  11.5860  11.5869  11.8257  12.0321  12.1129  12.2755  12.7474
    12.9562  13.0159  13.1048  13.4356  13.5814  13.8864  14.1372  14.3432
    14.5097  14.7746  14.8302  15.6518  15.7913  15.8246  16.1857  16.1896
    16.2179  16.4102  16.4857  16.4969  17.0226  17.3797  17.5471  17.9626
    18.0770  18.1586  18.1688  18.3248  18.6265  18.6733  18.7444  18.9705
    19.1248  19.2060  19.5497  19.6522  20.0273  20.0853  20.2037  20.3292
    20.4389  21.1061

          k = 0.0556 0.2778 0.1088 ( 50544 PWs)   bands (ev):

   -73.3492 -73.3374 -73.3284 -73.3244 -73.3237 -73.3211 -73.3187 -73.3169
   -73.3157 -73.3155 -73.3146 -73.3124 -73.3112 -73.3077 -73.3053 -73.3039
   -72.7583 -72.7583 -72.7507 -72.7506 -72.7452 -72.7452 -72.7446 -72.7445
   -72.7434 -72.7433 -72.7427 -72.7426 -72.7372 -72.7371 -72.7294 -72.7294
   -39.1790 -39.1776 -39.1749 -39.1741 -39.1641 -39.1636 -39.1614 -39.1417
   -39.1400 -39.1397 -39.1322 -39.1287 -39.1185 -39.1184 -39.0830 -39.0761
   -39.0602 -39.0596 -39.0400 -39.0337 -39.0337 -39.0313 -39.0303 -39.0292
   -39.0278 -39.0237 -39.0230 -39.0196 -39.0160 -39.0138 -39.0103 -39.0039
   -38.9830 -38.9780 -38.9754 -38.9706 -38.9640 -38.9620 -38.9586 -38.9552
   -38.9524 -38.9497 -38.9391 -38.9364 -38.9286 -38.9193 -38.9191 -38.9106
   -38.6283 -38.6268 -38.6226 -38.6204 -38.6171 -38.6167 -38.6099 -38.6095
   -38.5844 -38.5836 -38.5798 -38.5792 -38.5711 -38.5699 -38.5643 -38.5635
   -38.5069 -38.5062 -38.4999 -38.4995 -38.4905 -38.4903 -38.4858 -38.4856
   -38.4595 -38.4594 -38.4519 -38.4517 -38.4467 -38.4467 -38.4402 -38.4401
   -38.3611 -38.3588 -38.3528 -38.3526 -38.3486 -38.3480 -38.3478 -38.3470
   -38.3469 -38.3466 -38.3462 -38.3459 -38.3425 -38.3423 -38.3372 -38.3370
     4.6703   5.7567   5.9134   6.1008   6.1175   6.1178   6.1484   6.1731
     6.1847   6.2474   6.2961   6.3400   6.3467   6.3474   6.5181   6.5585
     6.6762   6.6835   6.7064   6.7070   6.7392   6.7587   6.8292   6.9089
     6.9142   6.9653   7.0503   7.0617   7.0622   7.0741   7.0753   7.0811
     7.0842   7.1265   7.1499   7.1521   7.3092   7.3517   7.3589   7.3906
     7.4116   7.4392   7.4886   7.5899   7.5961   7.6088   7.6161   7.6402
     7.6658   7.7222   7.7458   7.7844   7.7935   7.9268   7.9327   7.9693
     7.9737   7.9766   8.0472   8.0525   8.0917   8.1421   8.1676   8.1756
     8.2280   8.3008   8.3274   8.3551   8.3659   8.3688   8.3726   8.3776
     8.4120   8.4489   8.4570   8.4996   8.5089   8.5131   8.5496   8.6089
     8.6318   8.6604   8.6673   8.7373   8.8142   8.8212   8.8267   8.8299
     8.8607   8.8745   8.9112   8.9736   9.0078   9.0640   9.1080   9.1134
     9.1910   9.2076   9.2216   9.2356   9.2689   9.2968   9.3089   9.3377
     9.3559   9.3593   9.3953   9.4033   9.4650   9.4884   9.5233   9.6066
     9.6754   9.6948   9.7041   9.7188   9.7265   9.7663   9.8012   9.8261
     9.8262   9.8674   9.8760   9.8921   9.9240   9.9287   9.9346   9.9707
     9.9780  10.0441  10.1340  10.1360  10.1392  10.1918  10.1987  10.2679
    10.2887  10.2956  10.2960  10.3049  10.3178  10.3389  10.3688  10.3886
    10.3918  10.3964  10.4614  10.4628  10.4713  10.4736  10.5147  10.5288
    10.5422  10.5652  10.5722  10.6527  10.6551  10.7316  10.7519  10.7818
    10.7927  10.8043  10.8081  10.8204  10.8869  11.1025  11.1802  11.2231
    11.3310  11.5833  11.5861  11.8153  12.0638  12.1125  12.2725  12.6178
    12.9452  13.0474  13.1267  13.4512  13.6126  14.0500  14.1397  14.3367
    14.3651  14.7559  14.8618  15.5047  15.8267  16.0062  16.0460  16.1755
    16.2229  16.3361  16.4554  16.5369  17.2326  17.2535  17.7637  17.9541
    17.9937  18.0859  18.1990  18.3273  18.6290  18.8162  18.8637  18.9113
    19.2250  19.3543  19.4540  19.5398  19.9761  20.0725  20.1539  20.1777
    20.4072  20.6114

          k = 0.0556 0.2778 0.1814 ( 50530 PWs)   bands (ev):

   -73.3492 -73.3374 -73.3284 -73.3244 -73.3237 -73.3211 -73.3187 -73.3169
   -73.3157 -73.3155 -73.3146 -73.3124 -73.3112 -73.3077 -73.3053 -73.3039
   -72.7583 -72.7583 -72.7507 -72.7506 -72.7452 -72.7452 -72.7446 -72.7445
   -72.7434 -72.7433 -72.7427 -72.7426 -72.7372 -72.7371 -72.7294 -72.7294
   -39.1790 -39.1776 -39.1749 -39.1740 -39.1641 -39.1636 -39.1614 -39.1417
   -39.1400 -39.1397 -39.1322 -39.1287 -39.1185 -39.1184 -39.0830 -39.0761
   -39.0602 -39.0596 -39.0400 -39.0338 -39.0337 -39.0314 -39.0302 -39.0292
   -39.0277 -39.0237 -39.0230 -39.0196 -39.0160 -39.0138 -39.0103 -39.0039
   -38.9830 -38.9780 -38.9754 -38.9706 -38.9640 -38.9620 -38.9586 -38.9552
   -38.9524 -38.9497 -38.9391 -38.9364 -38.9286 -38.9193 -38.9191 -38.9106
   -38.6282 -38.6268 -38.6226 -38.6204 -38.6171 -38.6167 -38.6098 -38.6095
   -38.5844 -38.5836 -38.5798 -38.5792 -38.5711 -38.5699 -38.5643 -38.5635
   -38.5069 -38.5062 -38.4999 -38.4995 -38.4905 -38.4903 -38.4859 -38.4856
   -38.4595 -38.4594 -38.4519 -38.4517 -38.4467 -38.4466 -38.4401 -38.4401
   -38.3612 -38.3588 -38.3528 -38.3526 -38.3485 -38.3479 -38.3478 -38.3469
   -38.3469 -38.3466 -38.3462 -38.3460 -38.3425 -38.3423 -38.3372 -38.3370
     4.6708   5.7570   5.9126   6.1008   6.1176   6.1179   6.1485   6.1731
     6.1847   6.2473   6.2946   6.3400   6.3467   6.3474   6.5181   6.5586
     6.6761   6.6832   6.7063   6.7070   6.7392   6.7595   6.8292   6.9089
     6.9141   6.9646   7.0502   7.0617   7.0622   7.0740   7.0750   7.0811
     7.0844   7.1264   7.1504   7.1517   7.3094   7.3516   7.3587   7.3906
     7.4114   7.4391   7.4886   7.5899   7.5961   7.6092   7.6159   7.6399
     7.6658   7.7224   7.7454   7.7844   7.7934   7.9269   7.9325   7.9693
     7.9747   7.9769   8.0472   8.0524   8.0922   8.1421   8.1676   8.1756
     8.2276   8.3007   8.3274   8.3552   8.3667   8.3684   8.3726   8.3774
     8.4126   8.4489   8.4569   8.5006   8.5089   8.5129   8.5496   8.6094
     8.6326   8.6610   8.6690   8.7369   8.8148   8.8220   8.8299   8.8314
     8.8606   8.8748   8.9111   8.9690   9.0093   9.0654   9.1084   9.1107
     9.1910   9.2076   9.2198   9.2301   9.2680   9.2972   9.3090   9.3371
     9.3543   9.3595   9.3966   9.4013   9.4667   9.4886   9.5235   9.6070
     9.6756   9.6992   9.7044   9.7177   9.7242   9.7588   9.7990   9.8243
     9.8318   9.8665   9.8758   9.8910   9.9243   9.9277   9.9346   9.9678
     9.9778  10.0521  10.1387  10.1391  10.1393  10.1871  10.2048  10.2672
    10.2892  10.2955  10.3002  10.3049  10.3173  10.3388  10.3664  10.3901
    10.3923  10.4094  10.4587  10.4614  10.4742  10.4744  10.5147  10.5296
    10.5425  10.5630  10.5727  10.6517  10.6553  10.7116  10.7519  10.7927
    10.8046  10.8081  10.8090  10.8203  10.8895  11.1025  11.1802  11.2288
    11.3148  11.5788  11.5853  11.7997  12.1118  12.1144  12.2681  12.4542
    12.9285  13.0977  13.1612  13.4755  13.6623  14.1435  14.1853  14.2712
    14.3262  14.7257  14.9122  15.3212  15.8299  15.8663  16.1601  16.2352
    16.2634  16.3184  16.4046  16.5606  17.0513  17.6018  17.7548  17.9411
    18.0227  18.1627  18.2474  18.3315  18.6319  18.8150  18.9190  18.9481
    19.2762  19.4267  19.5359  19.6967  19.8195  20.0472  20.0561  20.0820
    20.3262  20.4167

          k = 0.0556 0.2778 0.2540 ( 50516 PWs)   bands (ev):

   -73.3492 -73.3374 -73.3284 -73.3244 -73.3237 -73.3211 -73.3187 -73.3169
   -73.3157 -73.3155 -73.3146 -73.3124 -73.3112 -73.3077 -73.3053 -73.3039
   -72.7583 -72.7583 -72.7507 -72.7506 -72.7452 -72.7452 -72.7446 -72.7445
   -72.7434 -72.7433 -72.7427 -72.7426 -72.7372 -72.7371 -72.7294 -72.7294
   -39.1789 -39.1776 -39.1749 -39.1740 -39.1641 -39.1636 -39.1614 -39.1417
   -39.1399 -39.1397 -39.1322 -39.1286 -39.1186 -39.1184 -39.0830 -39.0761
   -39.0602 -39.0596 -39.0400 -39.0338 -39.0337 -39.0314 -39.0302 -39.0293
   -39.0277 -39.0237 -39.0230 -39.0196 -39.0160 -39.0138 -39.0103 -39.0039
   -38.9829 -38.9780 -38.9754 -38.9706 -38.9639 -38.9620 -38.9586 -38.9552
   -38.9524 -38.9497 -38.9391 -38.9364 -38.9286 -38.9193 -38.9191 -38.9106
   -38.6282 -38.6268 -38.6226 -38.6204 -38.6171 -38.6167 -38.6098 -38.6095
   -38.5844 -38.5836 -38.5798 -38.5792 -38.5711 -38.5700 -38.5643 -38.5634
   -38.5069 -38.5062 -38.4999 -38.4994 -38.4905 -38.4903 -38.4859 -38.4856
   -38.4595 -38.4594 -38.4519 -38.4517 -38.4467 -38.4466 -38.4401 -38.4400
   -38.3611 -38.3588 -38.3528 -38.3526 -38.3486 -38.3479 -38.3478 -38.3469
   -38.3468 -38.3466 -38.3462 -38.3460 -38.3424 -38.3423 -38.3372 -38.3370
     4.6712   5.7572   5.9119   6.1008   6.1176   6.1179   6.1485   6.1732
     6.1848   6.2473   6.2933   6.3400   6.3468   6.3474   6.5181   6.5587
     6.6760   6.6830   6.7063   6.7070   6.7392   6.7602   6.8292   6.9090
     6.9140   6.9640   7.0501   7.0617   7.0623   7.0740   7.0747   7.0810
     7.0846   7.1262   7.1507   7.1514   7.3095   7.3516   7.3585   7.3906
     7.4114   7.4390   7.4886   7.5899   7.5961   7.6094   7.6158   7.6396
     7.6658   7.7225   7.7451   7.7844   7.7933   7.9269   7.9324   7.9693
     7.9756   7.9772   8.0472   8.0524   8.0927   8.1420   8.1676   8.1757
     8.2273   8.3007   8.3275   8.3553   8.3673   8.3680   8.3726   8.3772
     8.4131   8.4489   8.4568   8.5015   8.5089   8.5127   8.5496   8.6099
     8.6333   8.6615   8.6705   8.7365   8.8153   8.8228   8.8299   8.8356
     8.8605   8.8751   8.9110   8.9650   9.0107   9.0667   9.1083   9.1087
     9.1910   9.2077   9.2181   9.2254   9.2672   9.2975   9.3091   9.3365
     9.3529   9.3596   9.3977   9.3995   9.4682   9.4888   9.5236   9.6075
     9.6758   9.7040   9.7045   9.7167   9.7222   9.7515   9.7971   9.8227
     9.8366   9.8657   9.8755   9.8900   9.9245   9.9269   9.9346   9.9655
     9.9776  10.0592  10.1394  10.1407  10.1440  10.1827  10.2107  10.2666
    10.2897  10.2953  10.3039  10.3049  10.3168  10.3386  10.3654  10.3914
    10.3929  10.4191  10.4551  10.4614  10.4747  10.4773  10.5147  10.5302
    10.5428  10.5610  10.5731  10.6509  10.6554  10.6942  10.7518  10.7928
    10.8048  10.8081  10.8202  10.8336  10.8945  11.1025  11.1803  11.2339
    11.3007  11.5750  11.5847  11.7861  12.1112  12.1613  12.2644  12.3284
    12.9141  13.1445  13.1926  13.4975  13.7086  14.0488  14.1468  14.3163
    14.4545  14.6975  14.9591  15.1819  15.7295  15.8328  16.1468  16.2127
    16.2581  16.3485  16.5711  16.6146  16.9146  17.5504  17.9298  17.9614
    18.0666  18.2926  18.3353  18.4474  18.5869  18.6304  18.8085  19.0084
    19.5113  19.5778  19.6733  19.6817  19.7030  19.9481  20.0609  20.1252
    20.1604  20.2978

          k = 0.0556 0.2778-0.3265 ( 50504 PWs)   bands (ev):

   -73.3492 -73.3374 -73.3284 -73.3244 -73.3237 -73.3211 -73.3187 -73.3169
   -73.3157 -73.3155 -73.3146 -73.3124 -73.3112 -73.3077 -73.3053 -73.3039
   -72.7583 -72.7583 -72.7507 -72.7506 -72.7452 -72.7452 -72.7446 -72.7445
   -72.7434 -72.7433 -72.7427 -72.7426 -72.7372 -72.7371 -72.7294 -72.7294
   -39.1789 -39.1776 -39.1749 -39.1740 -39.1641 -39.1636 -39.1614 -39.1416
   -39.1400 -39.1397 -39.1322 -39.1286 -39.1186 -39.1184 -39.0830 -39.0760
   -39.0602 -39.0596 -39.0401 -39.0338 -39.0337 -39.0314 -39.0302 -39.0292
   -39.0277 -39.0237 -39.0230 -39.0196 -39.0160 -39.0138 -39.0102 -39.0039
   -38.9830 -38.9780 -38.9754 -38.9707 -38.9639 -38.9620 -38.9586 -38.9552
   -38.9524 -38.9497 -38.9391 -38.9364 -38.9285 -38.9193 -38.9191 -38.9106
   -38.6282 -38.6268 -38.6226 -38.6204 -38.6171 -38.6167 -38.6098 -38.6094
   -38.5844 -38.5836 -38.5798 -38.5792 -38.5711 -38.5700 -38.5643 -38.5635
   -38.5069 -38.5062 -38.4999 -38.4995 -38.4905 -38.4903 -38.4859 -38.4856
   -38.4595 -38.4594 -38.4519 -38.4517 -38.4467 -38.4466 -38.4401 -38.4400
   -38.3611 -38.3588 -38.3527 -38.3526 -38.3485 -38.3479 -38.3478 -38.3469
   -38.3468 -38.3465 -38.3462 -38.3460 -38.3425 -38.3423 -38.3372 -38.3371
     4.6713   5.7573   5.9116   6.1008   6.1176   6.1180   6.1485   6.1732
     6.1848   6.2472   6.2928   6.3400   6.3468   6.3475   6.5181   6.5587
     6.6759   6.6829   6.7062   6.7070   6.7392   6.7605   6.8292   6.9090
     6.9139   6.9637   7.0501   7.0617   7.0623   7.0740   7.0745   7.0810
     7.0847   7.1262   7.1509   7.1513   7.3096   7.3516   7.3584   7.3906
     7.4113   7.4389   7.4886   7.5899   7.5960   7.6095   7.6157   7.6395
     7.6658   7.7226   7.7450   7.7843   7.7933   7.9269   7.9324   7.9693
     7.9759   7.9773   8.0472   8.0524   8.0929   8.1420   8.1676   8.1757
     8.2272   8.3007   8.3275   8.3553   8.3676   8.3679   8.3726   8.3772
     8.4133   8.4489   8.4567   8.5018   8.5088   8.5126   8.5496   8.6101
     8.6335   8.6617   8.6711   8.7363   8.8155   8.8231   8.8299   8.8372
     8.8604   8.8752   8.9110   8.9634   9.0113   9.0672   9.1073   9.1089
     9.1910   9.2077   9.2174   9.2236   9.2669   9.2977   9.3091   9.3363
     9.3524   9.3597   9.3981   9.3988   9.4688   9.4889   9.5237   9.6076
     9.6759   9.7046   9.7063   9.7163   9.7214   9.7482   9.7963   9.8221
     9.8385   9.8654   9.8754   9.8896   9.9245   9.9266   9.9346   9.9646
     9.9775  10.0621  10.1394  10.1414  10.1462  10.1808  10.2132  10.2663
    10.2899  10.2953  10.3049  10.3053  10.3166  10.3385  10.3650  10.3919
    10.3932  10.4227  10.4537  10.4614  10.4750  10.4785  10.5147  10.5304
    10.5429  10.5601  10.5732  10.6507  10.6554  10.6874  10.7518  10.7928
    10.8048  10.8081  10.8202  10.8427  10.8981  11.1025  11.1803  11.2360
    11.2952  11.5735  11.5845  11.7808  12.1109  12.1806  12.2629  12.2814
    12.9084  13.1637  13.2053  13.5063  13.7275  13.9983  14.1482  14.3122
    14.5264  14.6858  14.9783  15.1304  15.6789  15.8339  16.1416  16.1947
    16.2856  16.3079  16.5739  16.7491  16.8641  17.4696  17.9253  18.0717
    18.1495  18.3113  18.3368  18.4296  18.5960  18.6239  18.8122  19.0453
    19.3267  19.6663  19.7502  19.7576  19.8149  19.8748  19.9092  20.1243
    20.1460  20.3428

          k = 0.0556 0.3889 0.0363 ( 50549 PWs)   bands (ev):

   -73.3471 -73.3411 -73.3275 -73.3252 -73.3238 -73.3221 -73.3179 -73.3159
   -73.3145 -73.3143 -73.3133 -73.3129 -73.3120 -73.3074 -73.3065 -73.3045
   -72.7570 -72.7569 -72.7531 -72.7530 -72.7451 -72.7450 -72.7448 -72.7447
   -72.7432 -72.7431 -72.7428 -72.7428 -72.7348 -72.7347 -72.7308 -72.7308
   -39.1706 -39.1696 -39.1657 -39.1648 -39.1577 -39.1568 -39.1553 -39.1497
   -39.1475 -39.1475 -39.1451 -39.1393 -39.1362 -39.1322 -39.0843 -39.0804
   -39.0531 -39.0486 -39.0418 -39.0367 -39.0332 -39.0319 -39.0318 -39.0310
   -39.0290 -39.0254 -39.0195 -39.0150 -39.0098 -39.0085 -39.0064 -39.0014
   -38.9914 -38.9869 -38.9625 -38.9588 -38.9578 -38.9571 -38.9570 -38.9521
   -38.9490 -38.9448 -38.9432 -38.9373 -38.9360 -38.9299 -38.9246 -38.9173
   -38.6210 -38.6193 -38.6131 -38.6110 -38.6108 -38.6104 -38.6012 -38.6006
   -38.5988 -38.5975 -38.5920 -38.5913 -38.5870 -38.5852 -38.5780 -38.5772
   -38.4929 -38.4923 -38.4838 -38.4836 -38.4779 -38.4778 -38.4712 -38.4709
   -38.4687 -38.4685 -38.4583 -38.4582 -38.4568 -38.4567 -38.4479 -38.4478
   -38.3593 -38.3577 -38.3549 -38.3547 -38.3485 -38.3482 -38.3475 -38.3471
   -38.3469 -38.3467 -38.3460 -38.3459 -38.3407 -38.3406 -38.3382 -38.3380
     4.8710   5.4296   6.0659   6.1798   6.2016   6.2353   6.2373   6.2604
     6.2831   6.3115   6.3652   6.4108   6.4271   6.4375   6.4516   6.4552
     6.4656   6.5034   6.5434   6.5492   6.6128   6.6688   6.7120   6.7862
     6.8925   7.0187   7.0669   7.0689   7.0850   7.0916   7.1027   7.1175
     7.1629   7.1745   7.1842   7.1853   7.1965   7.3076   7.3613   7.3694
     7.3911   7.4269   7.4644   7.4742   7.5013   7.5241   7.5586   7.5713
     7.5787   7.6208   7.7938   7.8491   7.9239   7.9533   7.9724   7.9925
     8.0134   8.0543   8.1365   8.1380   8.1383   8.1618   8.1850   8.1901
     8.2796   8.2933   8.3601   8.3626   8.3631   8.3963   8.4006   8.4018
     8.4059   8.4162   8.4239   8.4687   8.4761   8.5581   8.5675   8.5825
     8.5956   8.6142   8.6509   8.6592   8.6669   8.7340   8.7343   8.7754
     8.8139   8.8210   9.0356   9.0527   9.0599   9.0905   9.1335   9.1561
     9.1804   9.2277   9.2423   9.2800   9.3184   9.3228   9.3241   9.3322
     9.3365   9.3442   9.4124   9.4180   9.5458   9.5536   9.5694   9.6056
     9.6248   9.6582   9.7267   9.7513   9.7559   9.7888   9.7891   9.8152
     9.8542   9.8697   9.8752   9.9255   9.9803  10.0337  10.0457  10.0752
    10.1069  10.1298  10.1522  10.1650  10.1771  10.1795  10.2111  10.2190
    10.2740  10.2767  10.3051  10.3167  10.3197  10.3568  10.3792  10.3971
    10.3973  10.3976  10.4144  10.4369  10.4578  10.4613  10.4770  10.4923
    10.5319  10.5562  10.5614  10.5764  10.5782  10.5964  10.6527  10.7369
    10.8290  10.8357  10.8587  10.8946  10.9533  10.9841  11.0260  11.2084
    11.3477  11.4381  11.6177  11.7031  11.8697  11.8824  12.1036  13.0408
    13.0986  13.1204  13.3813  13.5824  13.6087  13.6843  14.0145  14.3162
    15.0618  15.2811  15.3261  15.3310  15.5722  15.6909  16.1265  16.3597
    16.6099  16.6223  16.6927  16.8514  17.1226  17.2484  17.2796  17.5198
    17.6301  17.7588  18.0611  18.3845  18.4151  18.5634  18.8401  18.8827
    19.1689  19.1877  19.2478  19.3019  19.4920  19.5201  19.5321  20.2670
    20.6455  20.8056

          k = 0.0556 0.3889 0.1088 ( 50552 PWs)   bands (ev):

   -73.3471 -73.3411 -73.3275 -73.3252 -73.3238 -73.3221 -73.3179 -73.3159
   -73.3145 -73.3143 -73.3133 -73.3129 -73.3120 -73.3074 -73.3065 -73.3045
   -72.7570 -72.7569 -72.7531 -72.7530 -72.7451 -72.7450 -72.7448 -72.7447
   -72.7432 -72.7431 -72.7428 -72.7428 -72.7348 -72.7347 -72.7308 -72.7308
   -39.1706 -39.1696 -39.1657 -39.1648 -39.1577 -39.1568 -39.1553 -39.1497
   -39.1475 -39.1474 -39.1451 -39.1393 -39.1362 -39.1322 -39.0843 -39.0804
   -39.0531 -39.0486 -39.0418 -39.0367 -39.0332 -39.0319 -39.0319 -39.0310
   -39.0290 -39.0254 -39.0195 -39.0151 -39.0099 -39.0085 -39.0063 -39.0014
   -38.9915 -38.9868 -38.9625 -38.9588 -38.9578 -38.9571 -38.9570 -38.9521
   -38.9491 -38.9448 -38.9432 -38.9373 -38.9360 -38.9299 -38.9246 -38.9173
   -38.6210 -38.6193 -38.6131 -38.6110 -38.6108 -38.6104 -38.6012 -38.6006
   -38.5988 -38.5975 -38.5920 -38.5913 -38.5870 -38.5852 -38.5780 -38.5772
   -38.4929 -38.4923 -38.4839 -38.4836 -38.4780 -38.4778 -38.4712 -38.4709
   -38.4687 -38.4685 -38.4583 -38.4582 -38.4568 -38.4567 -38.4479 -38.4478
   -38.3594 -38.3577 -38.3549 -38.3547 -38.3485 -38.3482 -38.3476 -38.3471
   -38.3469 -38.3467 -38.3460 -38.3459 -38.3407 -38.3406 -38.3382 -38.3379
     4.8713   5.4298   6.0654   6.1798   6.2016   6.2353   6.2373   6.2604
     6.2831   6.3115   6.3651   6.4108   6.4271   6.4366   6.4517   6.4552
     6.4653   6.5034   6.5434   6.5492   6.6128   6.6688   6.7120   6.7854
     6.8929   7.0188   7.0670   7.0689   7.0852   7.0915   7.1027   7.1175
     7.1629   7.1746   7.1842   7.1853   7.1963   7.3074   7.3611   7.3694
     7.3914   7.4268   7.4643   7.4741   7.5013   7.5239   7.5585   7.5711
     7.5787   7.6208   7.7939   7.8490   7.9241   7.9533   7.9725   7.9928
     8.0134   8.0543   8.1370   8.1380   8.1383   8.1619   8.1851   8.1914
     8.2796   8.2932   8.3608   8.3626   8.3631   8.3963   8.4005   8.4018
     8.4059   8.4172   8.4241   8.4687   8.4763   8.5581   8.5681   8.5826
     8.5958   8.6170   8.6512   8.6594   8.6668   8.7339   8.7348   8.7753
     8.8139   8.8212   9.0356   9.0504   9.0603   9.0909   9.1339   9.1561
     9.1791   9.2271   9.2423   9.2799   9.3183   9.3215   9.3228   9.3321
     9.3344   9.3430   9.4127   9.4183   9.5447   9.5518   9.5615   9.6035
     9.6273   9.6586   9.7266   9.7513   9.7559   9.7886   9.7887   9.8151
     9.8538   9.8699   9.8747   9.9351   9.9795  10.0363  10.0458  10.0748
    10.1057  10.1298  10.1516  10.1650  10.1762  10.1821  10.2108  10.2187
    10.2779  10.2837  10.3073  10.3184  10.3199  10.3572  10.3791  10.3917
    10.3972  10.3975  10.4144  10.4370  10.4574  10.4614  10.4770  10.4906
    10.5304  10.5486  10.5564  10.5758  10.5778  10.5968  10.6528  10.7369
    10.8290  10.8356  10.8605  10.8946  10.9784  10.9844  11.0260  11.2082
    11.3385  11.4330  11.6489  11.7030  11.8729  11.8735  12.0984  12.9904
    13.0716  13.1250  13.3840  13.6049  13.6386  13.6734  13.8756  14.4880
    15.0465  15.2749  15.3204  15.4808  15.5548  15.6036  16.0112  16.3619
    16.5314  16.5320  16.7263  16.9517  17.2440  17.2795  17.3232  17.6311
    17.7009  17.7676  17.9214  18.2290  18.3749  18.6841  18.9139  18.9167
    18.9312  19.2425  19.2942  19.4039  19.4116  19.5329  19.6366  20.3115
    20.6703  20.8344

          k = 0.0556 0.3889 0.1814 ( 50559 PWs)   bands (ev):

   -73.3471 -73.3411 -73.3275 -73.3252 -73.3238 -73.3221 -73.3179 -73.3159
   -73.3145 -73.3143 -73.3133 -73.3129 -73.3120 -73.3074 -73.3065 -73.3045
   -72.7570 -72.7569 -72.7531 -72.7530 -72.7451 -72.7450 -72.7448 -72.7447
   -72.7432 -72.7431 -72.7428 -72.7428 -72.7348 -72.7347 -72.7308 -72.7308
   -39.1706 -39.1696 -39.1657 -39.1648 -39.1577 -39.1568 -39.1553 -39.1496
   -39.1475 -39.1474 -39.1451 -39.1393 -39.1362 -39.1322 -39.0843 -39.0804
   -39.0531 -39.0486 -39.0419 -39.0367 -39.0332 -39.0319 -39.0318 -39.0310
   -39.0290 -39.0254 -39.0195 -39.0150 -39.0099 -39.0085 -39.0063 -39.0014
   -38.9914 -38.9869 -38.9625 -38.9587 -38.9578 -38.9572 -38.9570 -38.9521
   -38.9491 -38.9448 -38.9432 -38.9373 -38.9360 -38.9299 -38.9246 -38.9174
   -38.6210 -38.6194 -38.6131 -38.6110 -38.6108 -38.6104 -38.6012 -38.6006
   -38.5988 -38.5975 -38.5921 -38.5913 -38.5870 -38.5852 -38.5781 -38.5772
   -38.4928 -38.4922 -38.4839 -38.4836 -38.4780 -38.4778 -38.4712 -38.4710
   -38.4687 -38.4685 -38.4583 -38.4582 -38.4568 -38.4567 -38.4479 -38.4478
   -38.3594 -38.3577 -38.3549 -38.3546 -38.3485 -38.3482 -38.3476 -38.3471
   -38.3468 -38.3467 -38.3460 -38.3459 -38.3408 -38.3406 -38.3382 -38.3379
     4.8717   5.4302   6.0647   6.1798   6.2016   6.2353   6.2373   6.2604
     6.2831   6.3115   6.3651   6.4108   6.4272   6.4352   6.4518   6.4552
     6.4649   6.5033   6.5434   6.5492   6.6128   6.6688   6.7120   6.7843
     6.8935   7.0190   7.0672   7.0690   7.0856   7.0912   7.1026   7.1174
     7.1628   7.1748   7.1841   7.1853   7.1960   7.3072   7.3607   7.3694
     7.3917   7.4267   7.4642   7.4740   7.5013   7.5236   7.5585   7.5708
     7.5787   7.6207   7.7941   7.8490   7.9242   7.9532   7.9725   7.9932
     8.0134   8.0543   8.1378   8.1381   8.1383   8.1620   8.1852   8.1935
     8.2795   8.2930   8.3619   8.3627   8.3631   8.3963   8.4002   8.4017
     8.4059   8.4187   8.4243   8.4687   8.4765   8.5582   8.5690   8.5829
     8.5961   8.6213   8.6518   8.6597   8.6665   8.7338   8.7355   8.7753
[...]
     9.0000   9.0000   9.0000   9.0000   9.1268   9.1268   9.1268   9.1269
     9.2528   9.2528   9.2528   9.2528   9.2533   9.2533   9.2533   9.2533
     9.2887   9.2888   9.2888   9.2888   9.2891   9.2891   9.2891   9.2891
     9.3023   9.3024   9.3024   9.3024   9.5244   9.5244   9.5244   9.5244
     9.8719   9.8719   9.8719   9.8719   9.8720   9.8720   9.8720   9.8720
     9.8736   9.8736   9.8736   9.8736  10.0175  10.0175  10.0175  10.0175
    10.1306  10.1306  10.1306  10.1306  10.3406  10.3407  10.3407  10.3407
    10.4687  10.4687  10.4687  10.4687  10.4688  10.4689  10.4689  10.4689
    10.7631  10.7631  10.7631  10.7631  10.8135  10.8135  10.8135  10.8135
    10.8135  10.8135  10.8135  10.8135  10.8311  10.8311  10.8311  10.8311
    11.5672  11.5672  11.5672  11.5672  14.0656  14.0656  14.0656  14.0657
    14.0658  14.0658  14.0658  14.0658  14.1313  14.1314  14.1314  14.1314
    15.2003  15.2003  15.2003  15.2003  15.2005  15.2005  15.2005  15.2005
    15.9335  15.9335  15.9335  15.9336  17.1802  17.1802  17.1802  17.1802
    17.1804  17.1804  17.1804  17.1805  19.2421  19.2422  19.2422  19.2422
    19.4227  19.4227  19.4227  19.4227  19.7799  19.7799  19.7803  19.7804
    19.7804  19.7805

          k =-0.5000-0.5000 0.1814 ( 50584 PWs)   bands (ev):

   -73.3472 -73.3471 -73.3471 -73.3471 -73.3246 -73.3246 -73.3246 -73.3246
   -73.3199 -73.3198 -73.3198 -73.3198 -73.3193 -73.3193 -73.3193 -73.3193
   -72.7647 -72.7647 -72.7647 -72.7646 -72.7641 -72.7641 -72.7641 -72.7641
   -72.7487 -72.7487 -72.7487 -72.7486 -72.7481 -72.7481 -72.7481 -72.7481
   -39.1726 -39.1726 -39.1726 -39.1726 -39.1724 -39.1724 -39.1724 -39.1724
   -39.1611 -39.1611 -39.1611 -39.1611 -39.1090 -39.1090 -39.1090 -39.1090
   -39.0500 -39.0500 -39.0500 -39.0500 -39.0495 -39.0495 -39.0495 -39.0495
   -39.0083 -39.0083 -39.0083 -39.0083 -39.0067 -39.0067 -39.0067 -39.0067
   -39.0063 -39.0063 -39.0063 -39.0063 -38.9868 -38.9868 -38.9868 -38.9867
   -38.9634 -38.9634 -38.9634 -38.9634 -38.9141 -38.9141 -38.9141 -38.9141
   -38.6389 -38.6389 -38.6389 -38.6389 -38.6384 -38.6384 -38.6384 -38.6384
   -38.5556 -38.5556 -38.5556 -38.5556 -38.5528 -38.5528 -38.5528 -38.5528
   -38.5414 -38.5414 -38.5414 -38.5414 -38.5409 -38.5408 -38.5408 -38.5408
   -38.4529 -38.4529 -38.4529 -38.4529 -38.4523 -38.4523 -38.4523 -38.4523
   -38.3663 -38.3662 -38.3662 -38.3662 -38.3652 -38.3652 -38.3652 -38.3652
   -38.3546 -38.3545 -38.3545 -38.3544 -38.3539 -38.3539 -38.3539 -38.3539
     5.5594   5.5595   5.5595   5.5595   6.1859   6.1859   6.1859   6.1859
     6.5118   6.5118   6.5118   6.5118   6.5123   6.5123   6.5123   6.5124
     6.6167   6.6167   6.6167   6.6168   6.6840   6.6841   6.6841   6.6842
     6.6844   6.6844   6.6844   6.6845   6.7641   6.7641   6.7641   6.7641
     7.0629   7.0629   7.0629   7.0629   7.3704   7.3704   7.3704   7.3704
     7.3715   7.3715   7.3715   7.3715   7.6783   7.6784   7.6784   7.6786
     7.6789   7.6789   7.6790   7.6790   7.8492   7.8492   7.8492   7.8493
     8.0853   8.0853   8.0853   8.0854   8.3375   8.3376   8.3376   8.3376
     8.4603   8.4603   8.4603   8.4603   8.4628   8.4628   8.4628   8.4629
     8.5425   8.5425   8.5425   8.5425   8.6593   8.6593   8.6593   8.6594
     8.6595   8.6595   8.6595   8.6595   8.6899   8.6899   8.6899   8.6899
     8.9983   8.9983   8.9983   8.9983   9.1287   9.1287   9.1287   9.1288
     9.2528   9.2528   9.2528   9.2529   9.2533   9.2533   9.2533   9.2533
     9.2892   9.2892   9.2892   9.2892   9.2896   9.2896   9.2896   9.2896
     9.3023   9.3024   9.3024   9.3024   9.5244   9.5244   9.5244   9.5244
     9.8703   9.8703   9.8703   9.8703   9.8703   9.8703   9.8703   9.8703
     9.8764   9.8764   9.8764   9.8764   9.9981   9.9981   9.9981   9.9982
    10.1306  10.1306  10.1306  10.1306  10.3406  10.3406  10.3406  10.3406
    10.4698  10.4698  10.4698  10.4698  10.4700  10.4700  10.4700  10.4700
    10.7631  10.7631  10.7631  10.7631  10.8137  10.8137  10.8137  10.8137
    10.8137  10.8137  10.8137  10.8137  10.8311  10.8311  10.8311  10.8311
    11.6225  11.6225  11.6225  11.6226  13.9550  13.9550  13.9550  13.9551
    14.0679  14.0679  14.0679  14.0680  14.0681  14.0681  14.0681  14.0681
    15.1914  15.1914  15.1914  15.1915  15.1916  15.1916  15.1916  15.1917
    16.2400  16.2400  16.2400  16.2401  17.2092  17.2092  17.2092  17.2092
    17.2095  17.2095  17.2095  17.2095  18.8585  18.8585  18.8585  18.8585
    19.4256  19.4256  19.4256  19.4256  19.6213  19.6213  19.6216  19.6217
    19.6217  19.6217

          k =-0.5000-0.5000 0.2540 ( 50532 PWs)   bands (ev):

   -73.3472 -73.3471 -73.3471 -73.3471 -73.3246 -73.3246 -73.3246 -73.3246
   -73.3199 -73.3198 -73.3198 -73.3198 -73.3193 -73.3193 -73.3193 -73.3193
   -72.7647 -72.7647 -72.7647 -72.7646 -72.7641 -72.7641 -72.7641 -72.7641
   -72.7487 -72.7487 -72.7487 -72.7486 -72.7481 -72.7481 -72.7481 -72.7481
   -39.1725 -39.1725 -39.1725 -39.1725 -39.1723 -39.1723 -39.1723 -39.1723
   -39.1611 -39.1611 -39.1611 -39.1611 -39.1090 -39.1090 -39.1090 -39.1090
   -39.0500 -39.0500 -39.0500 -39.0499 -39.0494 -39.0494 -39.0494 -39.0494
   -39.0082 -39.0082 -39.0082 -39.0082 -39.0067 -39.0066 -39.0066 -39.0066
   -39.0063 -39.0063 -39.0063 -39.0063 -38.9868 -38.9868 -38.9868 -38.9868
   -38.9634 -38.9633 -38.9633 -38.9633 -38.9141 -38.9141 -38.9141 -38.9141
   -38.6389 -38.6389 -38.6389 -38.6389 -38.6384 -38.6384 -38.6384 -38.6384
   -38.5556 -38.5556 -38.5556 -38.5556 -38.5528 -38.5528 -38.5528 -38.5528
   -38.5414 -38.5414 -38.5414 -38.5414 -38.5408 -38.5408 -38.5408 -38.5408
   -38.4529 -38.4529 -38.4529 -38.4529 -38.4523 -38.4523 -38.4523 -38.4523
   -38.3663 -38.3662 -38.3662 -38.3662 -38.3653 -38.3653 -38.3653 -38.3653
   -38.3545 -38.3544 -38.3544 -38.3544 -38.3538 -38.3538 -38.3538 -38.3538
     5.5596   5.5596   5.5596   5.5597   6.1857   6.1857   6.1857   6.1857
     6.5118   6.5118   6.5118   6.5119   6.5123   6.5124   6.5124   6.5124
     6.6163   6.6163   6.6163   6.6163   6.6840   6.6841   6.6841   6.6842
     6.6844   6.6844   6.6844   6.6844   6.7647   6.7647   6.7647   6.7647
     7.0628   7.0628   7.0628   7.0628   7.3705   7.3705   7.3705   7.3705
     7.3716   7.3716   7.3716   7.3717   7.6782   7.6784   7.6784   7.6785
     7.6789   7.6789   7.6789   7.6789   7.8495   7.8495   7.8495   7.8496
     8.0853   8.0853   8.0853   8.0853   8.3376   8.3376   8.3376   8.3376
     8.4597   8.4597   8.4597   8.4598   8.4628   8.4628   8.4628   8.4629
     8.5443   8.5443   8.5443   8.5443   8.6593   8.6593   8.6593   8.6593
     8.6595   8.6595   8.6595   8.6595   8.6899   8.6899   8.6899   8.6899
     8.9968   8.9968   8.9968   8.9968   9.1304   9.1304   9.1304   9.1304
     9.2528   9.2529   9.2529   9.2529   9.2533   9.2533   9.2534   9.2534
     9.2896   9.2896   9.2896   9.2896   9.2900   9.2900   9.2900   9.2900
     9.3024   9.3024   9.3024   9.3024   9.5244   9.5244   9.5244   9.5244
     9.8689   9.8689   9.8689   9.8689   9.8689   9.8689   9.8689   9.8689
     9.8796   9.8796   9.8797   9.8797   9.9808   9.9808   9.9808   9.9808
    10.1306  10.1306  10.1306  10.1306  10.3406  10.3406  10.3406  10.3406
    10.4708  10.4709  10.4709  10.4709  10.4710  10.4710  10.4710  10.4710
    10.7631  10.7631  10.7631  10.7631  10.8138  10.8138  10.8138  10.8138
    10.8138  10.8138  10.8138  10.8139  10.8311  10.8311  10.8311  10.8311
    11.6735  11.6735  11.6735  11.6735  13.8189  13.8189  13.8189  13.8189
    14.0699  14.0700  14.0700  14.0700  14.0701  14.0701  14.0701  14.0702
    15.1837  15.1837  15.1837  15.1837  15.1839  15.1839  15.1839  15.1839
    16.5333  16.5333  16.5333  16.5333  17.2356  17.2356  17.2356  17.2356
    17.2358  17.2358  17.2358  17.2358  18.5091  18.5091  18.5091  18.5091
    19.4294  19.4294  19.4294  19.4294  19.5063  19.5063  19.5064  19.5067
    19.5067  19.5067

          k =-0.5000-0.5000-0.3265 ( 50520 PWs)   bands (ev):

   -73.3472 -73.3471 -73.3471 -73.3471 -73.3246 -73.3246 -73.3246 -73.3246
   -73.3199 -73.3198 -73.3198 -73.3198 -73.3193 -73.3193 -73.3193 -73.3193
   -72.7647 -72.7647 -72.7647 -72.7646 -72.7641 -72.7641 -72.7641 -72.7641
   -72.7487 -72.7487 -72.7487 -72.7486 -72.7481 -72.7481 -72.7481 -72.7481
   -39.1725 -39.1725 -39.1725 -39.1725 -39.1723 -39.1723 -39.1723 -39.1723
   -39.1612 -39.1611 -39.1611 -39.1611 -39.1091 -39.1091 -39.1091 -39.1090
   -39.0500 -39.0499 -39.0499 -39.0499 -39.0494 -39.0494 -39.0494 -39.0494
   -39.0083 -39.0083 -39.0083 -39.0083 -39.0066 -39.0066 -39.0066 -39.0066
   -39.0063 -39.0063 -39.0063 -39.0063 -38.9868 -38.9868 -38.9868 -38.9868
   -38.9634 -38.9634 -38.9634 -38.9634 -38.9142 -38.9142 -38.9142 -38.9142
   -38.6389 -38.6389 -38.6389 -38.6389 -38.6383 -38.6383 -38.6383 -38.6383
   -38.5556 -38.5556 -38.5556 -38.5556 -38.5528 -38.5528 -38.5528 -38.5528
   -38.5414 -38.5414 -38.5414 -38.5414 -38.5408 -38.5408 -38.5408 -38.5408
   -38.4529 -38.4529 -38.4529 -38.4529 -38.4524 -38.4524 -38.4524 -38.4523
   -38.3663 -38.3663 -38.3663 -38.3662 -38.3654 -38.3654 -38.3654 -38.3654
   -38.3544 -38.3544 -38.3544 -38.3543 -38.3538 -38.3538 -38.3538 -38.3538
     5.5596   5.5597   5.5597   5.5597   6.1856   6.1856   6.1856   6.1856
     6.5118   6.5119   6.5119   6.5119   6.5123   6.5124   6.5124   6.5124
     6.6161   6.6161   6.6161   6.6161   6.6840   6.6841   6.6841   6.6842
     6.6844   6.6844   6.6844   6.6844   6.7649   6.7649   6.7649   6.7650
     7.0627   7.0627   7.0627   7.0627   7.3706   7.3706   7.3706   7.3706
     7.3717   7.3717   7.3717   7.3717   7.6782   7.6783   7.6783   7.6785
     7.6788   7.6788   7.6789   7.6789   7.8496   7.8496   7.8496   7.8497
     8.0853   8.0853   8.0853   8.0853   8.3376   8.3376   8.3376   8.3376
     8.4595   8.4595   8.4595   8.4595   8.4628   8.4628   8.4628   8.4628
     8.5449   8.5449   8.5449   8.5450   8.6593   8.6593   8.6593   8.6594
     8.6595   8.6595   8.6595   8.6595   8.6899   8.6899   8.6899   8.6899
     8.9962   8.9962   8.9962   8.9962   9.1311   9.1311   9.1311   9.1311
     9.2529   9.2529   9.2529   9.2529   9.2534   9.2534   9.2534   9.2534
     9.2898   9.2898   9.2898   9.2898   9.2902   9.2902   9.2902   9.2902
     9.3023   9.3024   9.3024   9.3024   9.5244   9.5244   9.5244   9.5244
     9.8683   9.8683   9.8683   9.8683   9.8683   9.8683   9.8683   9.8683
     9.8812   9.8812   9.8812   9.8813   9.9737   9.9737   9.9737   9.9737
    10.1306  10.1306  10.1306  10.1306  10.3406  10.3406  10.3406  10.3406
    10.4713  10.4713  10.4713  10.4713  10.4714  10.4714  10.4714  10.4714
    10.7631  10.7631  10.7631  10.7631  10.8139  10.8139  10.8139  10.8139
    10.8139  10.8139  10.8139  10.8139  10.8311  10.8311  10.8311  10.8312
    11.6943  11.6943  11.6943  11.6943  13.7681  13.7681  13.7681  13.7681
    14.0708  14.0708  14.0708  14.0709  14.0709  14.0710  14.0710  14.0710
    15.1807  15.1807  15.1807  15.1807  15.1808  15.1809  15.1809  15.1809
    16.6666  16.6666  16.6666  16.6666  17.2462  17.2462  17.2462  17.2462
    17.2465  17.2465  17.2465  17.2465  18.3559  18.3559  18.3559  18.3559
    19.4309  19.4309  19.4310  19.4310  19.4649  19.4649  19.4651  19.4653
    19.4653  19.4653

     the Fermi energy is    10.8280 ev

!    total energy              =  -16384.05368591 Ry

     total all-electron energy =   -322944.907393 Ry
     estimated scf accuracy    <          6.3E-09 Ry
     smearing contrib. (-TS)   =       0.12003676 Ry
     internal energy E=F+TS    =  -16384.17372267 Ry

     The total energy is F=E-TS. E is the sum of the following terms:
     one-electron contribution =  -12037.72150651 Ry
     hartree contribution      =    6262.47524511 Ry
     xc contribution           =    -985.48291636 Ry
     ewald contribution        =   -1456.10868487 Ry
     one-center paw contrib.   =   -8167.33586003 Ry

     convergence has been achieved in  12 iterations

     Forces acting on atoms (cartesian axes, Ry/au):

     atom    1 type  1   force =     0.00000000    0.00000000   -0.00092340
     atom    2 type  1   force =     0.00000315    0.00000315   -0.00093726
     atom    3 type  1   force =    -0.00000275    0.00000000    0.00006134
     atom    4 type  1   force =     0.00000000   -0.00000275    0.00006134
     atom    5 type  1   force =     0.00000000    0.00000000   -0.00005441
     atom    6 type  1   force =     0.00000998    0.00000998   -0.00004348
     atom    7 type  1   force =     0.00001176    0.00000000    0.00092570
     atom    8 type  1   force =     0.00000000    0.00001176    0.00092570
     atom    9 type  1   force =     0.00000000    0.00000000   -0.00093716
     atom   10 type  1   force =     0.00000315   -0.00000315   -0.00093726
     atom   11 type  1   force =    -0.00000009    0.00000000    0.00006033
     atom   12 type  1   force =     0.00000000    0.00000275    0.00006134
     atom   13 type  1   force =     0.00000000    0.00000000   -0.00004416
     atom   14 type  1   force =     0.00000998   -0.00000998   -0.00004348
     atom   15 type  1   force =     0.00001670    0.00000000    0.00091311
     atom   16 type  1   force =     0.00000000   -0.00001176    0.00092570
     atom   17 type  1   force =     0.00000000    0.00000000   -0.00093716
     atom   18 type  1   force =    -0.00000315    0.00000315   -0.00093726
     atom   19 type  1   force =     0.00000275    0.00000000    0.00006134
     atom   20 type  1   force =     0.00000000   -0.00000009    0.00006033
     atom   21 type  1   force =     0.00000000    0.00000000   -0.00004416
     atom   22 type  1   force =    -0.00000998    0.00000998   -0.00004348
     atom   23 type  1   force =    -0.00001176    0.00000000    0.00092570
     atom   24 type  1   force =     0.00000000    0.00001670    0.00091311
     atom   25 type  1   force =     0.00000000    0.00000000   -0.00094986
     atom   26 type  1   force =    -0.00000315   -0.00000315   -0.00093726
     atom   27 type  1   force =     0.00000009    0.00000000    0.00006033
     atom   28 type  1   force =     0.00000000    0.00000009    0.00006033
     atom   29 type  1   force =     0.00000000    0.00000000   -0.00002864
     atom   30 type  1   force =    -0.00000998   -0.00000998   -0.00004348
     atom   31 type  1   force =    -0.00001670    0.00000000    0.00091311
     atom   32 type  1   force =     0.00000000   -0.00001670    0.00091311

     Total force =     0.003720     Total SCF correction =     0.000353


     Computing stress (Cartesian axis) and pressure

          total   stress  (Ry/bohr**3)                   (kbar)     P=      -30.66
  -0.00027484   0.00000000   0.00000000          -40.43        0.00        0.00
   0.00000000  -0.00027484   0.00000000            0.00      -40.43        0.00
   0.00000000   0.00000000  -0.00007570            0.00        0.00      -11.14

     Energy error            =      9.8E-05
     Gradient error          =      9.5E-04

     bfgs converged in   8 scf cycles and   7 bfgs steps
     (criteria: energy <  1.0E-04 Ry, force <  1.0E-03 Ry/Bohr)

     End of BFGS Geometry Optimization

     Final energy   =  -16384.0536859099 Ry

     File /scratch/EDOrHCGgXZWkLSRr.bfgs deleted, as requested
Begin final coordinates

ATOMIC_POSITIONS (crystal)
Pd            0.0000000000        0.0000000000        0.0000867544
Pd            0.2499992049        0.2499992049        0.0000887799
Pd            0.2500013438       -0.0000000000        0.1616263593
Pd            0.0000000000        0.2500013438        0.1616263593
Pd            0.0000000000        0.0000000000        0.6751329852
Pd            0.2499955585        0.2499955585        0.6751325344
Pd            0.2499967977        0.0000000000        0.8366206546
Pd            0.0000000000        0.2499967977        0.8366206546
Pd            0.0000000000        0.5000000000        0.0000887914
Pd            0.2499992049        0.7500007951        0.0000887799
Pd            0.2500003860        0.5000000000        0.1616269934
Pd           -0.0000000000        0.7499986562        0.1616263593
Pd            0.0000000000        0.5000000000        0.6751325778
Pd            0.2499955585        0.7500044415        0.6751325344
Pd            0.2499957631        0.5000000000        0.8366223765
Pd            0.0000000000        0.7500032023        0.8366206546
Pd            0.5000000000        0.0000000000        0.0000887914
Pd            0.7500007951        0.2499992049        0.0000887799
Pd            0.7499986562        0.0000000000        0.1616263593
Pd            0.5000000000        0.2500003860        0.1616269934
Pd            0.5000000000        0.0000000000        0.6751325778
Pd            0.7500044415        0.2499955585        0.6751325344
Pd            0.7500032023        0.0000000000        0.8366206546
Pd            0.5000000000        0.2499957631        0.8366223765
Pd            0.5000000000        0.5000000000        0.0000905257
Pd            0.7500007951        0.7500007951        0.0000887799
Pd            0.7499996140        0.5000000000        0.1616269934
Pd            0.5000000000        0.7499996140        0.1616269934
Pd            0.5000000000        0.5000000000        0.6751313057
Pd            0.7500044415        0.7500044415        0.6751325344
Pd            0.7500042369        0.5000000000        0.8366223765
Pd            0.5000000000        0.7500042369        0.8366223765
End final coordinates



     Writing output data file /scratch/EDOrHCGgXZWkLSRr.save/
 
     init_run     :     27.05s CPU     27.66s WALL (       1 calls)
     electrons    :   9240.55s CPU   9339.08s WALL (       8 calls)
     update_pot   :      1.91s CPU      1.97s WALL (       7 calls)
     forces       :    123.11s CPU    124.12s WALL (       8 calls)
     stress       :   1181.35s CPU   1188.62s WALL (       8 calls)

     Called by init_run:
     wfcinit      :     26.38s CPU     26.89s WALL (       1 calls)
     potinit      :      0.19s CPU      0.21s WALL (       1 calls)
     hinit0       :      0.14s CPU      0.15s WALL (       1 calls)

     Called by electrons:
     c_bands      :   8211.86s CPU   8291.66s WALL (     103 calls)
     sum_band     :   1014.44s CPU   1030.41s WALL (     103 calls)
     v_of_rho     :      2.16s CPU      2.28s WALL (     103 calls)
     newd         :      3.54s CPU      5.20s WALL (     103 calls)
     PAW_pot      :      9.03s CPU      9.63s WALL (     110 calls)
     mix_rho      :      0.57s CPU      0.65s WALL (     103 calls)

     Called by c_bands:
     init_us_2    :     59.48s CPU     60.08s WALL (   17250 calls)
     cegterg      :   8017.15s CPU   8092.18s WALL (    7725 calls)

     Called by *egterg:
     cdiaghg      :    731.94s CPU    735.67s WALL (   25700 calls)
     h_psi        :   4015.30s CPU   4067.32s WALL (   26900 calls)
     s_psi        :    435.00s CPU    437.59s WALL (   26900 calls)
     g_psi        :     14.48s CPU     14.72s WALL (   19100 calls)

     Called by h_psi:
     h_psi:calbec :    659.02s CPU    663.10s WALL (   26900 calls)
     vloc_psi     :   2887.59s CPU   2930.87s WALL (   26900 calls)
     add_vuspsi   :    434.33s CPU    438.66s WALL (   26900 calls)

     General routines
     calbec       :   1143.69s CPU   1150.54s WALL (   38150 calls)
     fft          :      2.13s CPU      2.23s WALL (    1538 calls)
     ffts         :      0.15s CPU      0.17s WALL (     206 calls)
     fftw         :   3410.89s CPU   3461.21s WALL (14804032 calls)
     interpolate  :      0.24s CPU      0.28s WALL (     103 calls)
 
     Parallel routines
     fft_scatt_xy :    256.32s CPU    260.25s WALL (14805776 calls)
     fft_scatt_yz :   2638.82s CPU   2677.94s WALL (14805776 calls)
 
     PWSCF        :      2h56m CPU      2h58m WALL

 
   This run was terminated on:  12:36:27   7Jan2022            

=------------------------------------------------------------------------------=
   JOB DONE.
=------------------------------------------------------------------------------=
