
     Program PWSCF v.6.7MaX starts on  7Jan2022 at 16: 5: 1 

     This program is part of the open-source Quantum ESPRESSO suite
     for quantum simulation of materials; please cite
         "P. Giannozzi et al., J. Phys.:Condens. Matter 21 395502 (2009);
         "P. Giannozzi et al., J. Phys.:Condens. Matter 29 465901 (2017);
          URL http://www.quantum-espresso.org", 
     in publications or presentations arising from this work. More details at
     http://www.quantum-espresso.org/quote

     Parallel version (MPI & OpenMP), running on      72 processor cores
     Number of MPI processes:                72
     Threads/MPI process:                     1

     MPI processes distributed on     1 nodes
     R & G space division:  proc/nbgrp/npool/nimage =      72
     Reading input from relax_20.in
Warning: card &CELL ignored
Warning: card CELL_DYNAMICS = 'BFGS', ignored
Warning: card CELL_FACTOR = 2.0, ignored
Warning: card PRESS = 0.0, ignored
Warning: card / ignored

     Current dimensions of program PWSCF are:
     Max number of different atomic species (ntypx) = 10
     Max number of k-points (npk) =  40000
     Max angular momentum in pseudopotentials (lmaxx) =  3
     file Pd.pbe-spn-kjpaw_psl.1.0.0.UPF: wavefunction(s)  4S 5S 4D renormalized

     Subspace diagonalization in iterative solution of the eigenvalue problem:
     one sub-group per band group will be used
     ELPA distributed-memory algorithm (size of sub-group:  8*  8 procs)

     Found symmetry operation: I + (  0.2500  0.2500  0.0000)
     This is a supercell, fractional translations are disabled
     Message from routine setup:
     using ibrav=0 with symmetry is DISCOURAGED, use correct ibrav instead
 
     Parallelization info
     --------------------
     sticks:   dense  smooth     PW     G-vecs:    dense   smooth      PW
     Min         104      68     18                10886     5834     814
     Max         105      69     19                10897     5849     825
     Sum        7521    4957   1353               784165   420715   59017
 


     bravais-lattice index     =            0
     lattice parameter (alat)  =      14.8394  a.u.
     unit-cell volume          =    5208.0000 (a.u.)^3
     number of atoms/cell      =           32
     number of atomic types    =            1
     number of electrons       =       576.00
     number of Kohn-Sham states=          346
     kinetic-energy cutoff     =      71.0000  Ry
     charge density cutoff     =     430.0000  Ry
     scf convergence threshold =      1.0E-06
     mixing beta               =       0.1000
     number of iterations used =           10  TF        mixing
     energy convergence thresh.=      1.0E-04
     force convergence thresh. =      1.0E-03
     Exchange-correlation= SLA  PW   PBX  PBC
                           (   1   4   3   4   0   0   0)
     nstep                     =           40


     celldm(1)=  14.839420  celldm(2)=   0.000000  celldm(3)=   0.000000
     celldm(4)=   0.000000  celldm(5)=   0.000000  celldm(6)=   0.000000

     crystal axes: (cart. coord. in units of alat)
               a(1) = (   1.000000   0.000000   0.000000 )  
               a(2) = (   0.000000   1.000000   0.000000 )  
               a(3) = (   0.000000   0.000000   1.593750 )  

     reciprocal axes: (cart. coord. in units 2 pi/alat)
               b(1) = (  1.000000  0.000000  0.000000 )  
               b(2) = (  0.000000  1.000000  0.000000 )  
               b(3) = (  0.000000  0.000000  0.627451 )  


     PseudoPot. # 1 for Pd read from file:
     /rds/homes/b/bxp912/pp/Pd.pbe-spn-kjpaw_psl.1.0.0.UPF
     MD5 check sum: 790f2ebce206edfd9790dcb9844eca51
     Pseudo is Projector augmented-wave + core cor, Zval = 18.0
     Generated using &quot;atomic&quot; code by A. Dal Corso  v.6.3
     Shape of augmentation charge: PSQ
     Using radial grid of 1235 points,  6 beta functions with: 
                l(1) =   0
                l(2) =   0
                l(3) =   1
                l(4) =   1
                l(5) =   2
                l(6) =   2
     Q(r) pseudized with 0 coefficients 


     atomic species   valence    mass     pseudopotential
        Pd            18.00   106.42000     Pd( 1.00)

      8 Sym. Ops. (no inversion) found



   Cartesian axes

     site n.     atom                  positions (alat units)
         1           Pd  tau(   1) = (   0.0000000   0.0000000   0.0000000  )
         2           Pd  tau(   2) = (   0.2500000   0.2500000   0.0000000  )
         3           Pd  tau(   3) = (   0.2500000   0.0000000   0.2500000  )
         4           Pd  tau(   4) = (   0.0000000   0.2500000   0.2500000  )
         5           Pd  tau(   5) = (   0.0000000   0.0000000   1.0937500  )
         6           Pd  tau(   6) = (   0.2500000   0.2500000   1.0937500  )
         7           Pd  tau(   7) = (   0.2500000   0.0000000   1.3437500  )
         8           Pd  tau(   8) = (   0.0000000   0.2500000   1.3437500  )
         9           Pd  tau(   9) = (   0.0000000   0.5000000   0.0000000  )
        10           Pd  tau(  10) = (   0.2500000   0.7500000   0.0000000  )
        11           Pd  tau(  11) = (   0.2500000   0.5000000   0.2500000  )
        12           Pd  tau(  12) = (   0.0000000   0.7500000   0.2500000  )
        13           Pd  tau(  13) = (   0.0000000   0.5000000   1.0937500  )
        14           Pd  tau(  14) = (   0.2500000   0.7500000   1.0937500  )
        15           Pd  tau(  15) = (   0.2500000   0.5000000   1.3437500  )
        16           Pd  tau(  16) = (   0.0000000   0.7500000   1.3437500  )
        17           Pd  tau(  17) = (   0.5000000   0.0000000   0.0000000  )
        18           Pd  tau(  18) = (   0.7500000   0.2500000   0.0000000  )
        19           Pd  tau(  19) = (   0.7500000   0.0000000   0.2500000  )
        20           Pd  tau(  20) = (   0.5000000   0.2500000   0.2500000  )
        21           Pd  tau(  21) = (   0.5000000   0.0000000   1.0937500  )
        22           Pd  tau(  22) = (   0.7500000   0.2500000   1.0937500  )
        23           Pd  tau(  23) = (   0.7500000   0.0000000   1.3437500  )
        24           Pd  tau(  24) = (   0.5000000   0.2500000   1.3437500  )
        25           Pd  tau(  25) = (   0.5000000   0.5000000   0.0000000  )
        26           Pd  tau(  26) = (   0.7500000   0.7500000   0.0000000  )
        27           Pd  tau(  27) = (   0.7500000   0.5000000   0.2500000  )
        28           Pd  tau(  28) = (   0.5000000   0.7500000   0.2500000  )
        29           Pd  tau(  29) = (   0.5000000   0.5000000   1.0937500  )
        30           Pd  tau(  30) = (   0.7500000   0.7500000   1.0937500  )
        31           Pd  tau(  31) = (   0.7500000   0.5000000   1.3437500  )
        32           Pd  tau(  32) = (   0.5000000   0.7500000   1.3437500  )

     number of k points=    75  Marzari-Vanderbilt smearing, width (Ry)=  0.0400
                       cart. coord. in units 2pi/alat
        k(    1) = (   0.0555556   0.0555556   0.0348584), wk =   0.0219479
        k(    2) = (   0.0555556   0.0555556   0.1045752), wk =   0.0219479
        k(    3) = (   0.0555556   0.0555556   0.1742919), wk =   0.0219479
        k(    4) = (   0.0555556   0.0555556   0.2440087), wk =   0.0219479
        k(    5) = (   0.0555556   0.0555556  -0.3137255), wk =   0.0109739
        k(    6) = (   0.0555556   0.1666667   0.0348584), wk =   0.0438957
        k(    7) = (   0.0555556   0.1666667   0.1045752), wk =   0.0438957
        k(    8) = (   0.0555556   0.1666667   0.1742919), wk =   0.0438957
        k(    9) = (   0.0555556   0.1666667   0.2440087), wk =   0.0438957
        k(   10) = (   0.0555556   0.1666667  -0.3137255), wk =   0.0219479
        k(   11) = (   0.0555556   0.2777778   0.0348584), wk =   0.0438957
        k(   12) = (   0.0555556   0.2777778   0.1045752), wk =   0.0438957
        k(   13) = (   0.0555556   0.2777778   0.1742919), wk =   0.0438957
        k(   14) = (   0.0555556   0.2777778   0.2440087), wk =   0.0438957
        k(   15) = (   0.0555556   0.2777778  -0.3137255), wk =   0.0219479
        k(   16) = (   0.0555556   0.3888889   0.0348584), wk =   0.0438957
        k(   17) = (   0.0555556   0.3888889   0.1045752), wk =   0.0438957
        k(   18) = (   0.0555556   0.3888889   0.1742919), wk =   0.0438957
        k(   19) = (   0.0555556   0.3888889   0.2440087), wk =   0.0438957
        k(   20) = (   0.0555556   0.3888889  -0.3137255), wk =   0.0219479
        k(   21) = (   0.0555556  -0.5000000   0.0348584), wk =   0.0219479
        k(   22) = (   0.0555556  -0.5000000   0.1045752), wk =   0.0219479
        k(   23) = (   0.0555556  -0.5000000   0.1742919), wk =   0.0219479
        k(   24) = (   0.0555556  -0.5000000   0.2440087), wk =   0.0219479
        k(   25) = (   0.0555556  -0.5000000  -0.3137255), wk =   0.0109739
        k(   26) = (   0.1666667   0.1666667   0.0348584), wk =   0.0219479
        k(   27) = (   0.1666667   0.1666667   0.1045752), wk =   0.0219479
        k(   28) = (   0.1666667   0.1666667   0.1742919), wk =   0.0219479
        k(   29) = (   0.1666667   0.1666667   0.2440087), wk =   0.0219479
        k(   30) = (   0.1666667   0.1666667  -0.3137255), wk =   0.0109739
        k(   31) = (   0.1666667   0.2777778   0.0348584), wk =   0.0438957
        k(   32) = (   0.1666667   0.2777778   0.1045752), wk =   0.0438957
        k(   33) = (   0.1666667   0.2777778   0.1742919), wk =   0.0438957
        k(   34) = (   0.1666667   0.2777778   0.2440087), wk =   0.0438957
        k(   35) = (   0.1666667   0.2777778  -0.3137255), wk =   0.0219479
        k(   36) = (   0.1666667   0.3888889   0.0348584), wk =   0.0438957
        k(   37) = (   0.1666667   0.3888889   0.1045752), wk =   0.0438957
        k(   38) = (   0.1666667   0.3888889   0.1742919), wk =   0.0438957
        k(   39) = (   0.1666667   0.3888889   0.2440087), wk =   0.0438957
        k(   40) = (   0.1666667   0.3888889  -0.3137255), wk =   0.0219479
        k(   41) = (   0.1666667  -0.5000000   0.0348584), wk =   0.0219479
        k(   42) = (   0.1666667  -0.5000000   0.1045752), wk =   0.0219479
        k(   43) = (   0.1666667  -0.5000000   0.1742919), wk =   0.0219479
        k(   44) = (   0.1666667  -0.5000000   0.2440087), wk =   0.0219479
        k(   45) = (   0.1666667  -0.5000000  -0.3137255), wk =   0.0109739
        k(   46) = (   0.2777778   0.2777778   0.0348584), wk =   0.0219479
        k(   47) = (   0.2777778   0.2777778   0.1045752), wk =   0.0219479
        k(   48) = (   0.2777778   0.2777778   0.1742919), wk =   0.0219479
        k(   49) = (   0.2777778   0.2777778   0.2440087), wk =   0.0219479
        k(   50) = (   0.2777778   0.2777778  -0.3137255), wk =   0.0109739
        k(   51) = (   0.2777778   0.3888889   0.0348584), wk =   0.0438957
        k(   52) = (   0.2777778   0.3888889   0.1045752), wk =   0.0438957
        k(   53) = (   0.2777778   0.3888889   0.1742919), wk =   0.0438957
        k(   54) = (   0.2777778   0.3888889   0.2440087), wk =   0.0438957
        k(   55) = (   0.2777778   0.3888889  -0.3137255), wk =   0.0219479
        k(   56) = (   0.2777778  -0.5000000   0.0348584), wk =   0.0219479
        k(   57) = (   0.2777778  -0.5000000   0.1045752), wk =   0.0219479
        k(   58) = (   0.2777778  -0.5000000   0.1742919), wk =   0.0219479
        k(   59) = (   0.2777778  -0.5000000   0.2440087), wk =   0.0219479
        k(   60) = (   0.2777778  -0.5000000  -0.3137255), wk =   0.0109739
        k(   61) = (   0.3888889   0.3888889   0.0348584), wk =   0.0219479
        k(   62) = (   0.3888889   0.3888889   0.1045752), wk =   0.0219479
        k(   63) = (   0.3888889   0.3888889   0.1742919), wk =   0.0219479
        k(   64) = (   0.3888889   0.3888889   0.2440087), wk =   0.0219479
        k(   65) = (   0.3888889   0.3888889  -0.3137255), wk =   0.0109739
        k(   66) = (   0.3888889  -0.5000000   0.0348584), wk =   0.0219479
        k(   67) = (   0.3888889  -0.5000000   0.1045752), wk =   0.0219479
        k(   68) = (   0.3888889  -0.5000000   0.1742919), wk =   0.0219479
        k(   69) = (   0.3888889  -0.5000000   0.2440087), wk =   0.0219479
        k(   70) = (   0.3888889  -0.5000000  -0.3137255), wk =   0.0109739
        k(   71) = (  -0.5000000  -0.5000000   0.0348584), wk =   0.0054870
        k(   72) = (  -0.5000000  -0.5000000   0.1045752), wk =   0.0054870
        k(   73) = (  -0.5000000  -0.5000000   0.1742919), wk =   0.0054870
        k(   74) = (  -0.5000000  -0.5000000   0.2440087), wk =   0.0054870
        k(   75) = (  -0.5000000  -0.5000000  -0.3137255), wk =   0.0027435

     Dense  grid:   784165 G-vectors     FFT dimensions: ( 100, 100, 160)

     Smooth grid:   420715 G-vectors     FFT dimensions: (  80,  80, 128)

     Estimated max dynamical RAM per process >     354.94 MB

     Estimated total dynamical RAM >      24.96 GB

     Check: negative core charge=   -0.000001

     Initial potential from superposition of free atoms

     starting charge  575.98776, renormalised to  576.00000
     Starting wfcs are  320 randomized atomic wfcs +   26 random wfcs
     Checking if some PAW data can be deallocated... 

     total cpu time spent up to now is       29.3 secs

     Self-consistent Calculation

     iteration #  1     ecut=    71.00 Ry     beta= 0.10
     Davidson diagonalization with overlap
     ethr =  1.00E-02,  avg # of iterations =  4.1

     Threshold (ethr) on eigenvalues was too large:
     Diagonalizing with lowered threshold

     Davidson diagonalization with overlap
     ethr =  7.48E-04,  avg # of iterations =  1.1

     total cpu time spent up to now is      207.8 secs

     total energy              =  -16384.82452022 Ry
     estimated scf accuracy    <       4.29920402 Ry

     iteration #  2     ecut=    71.00 Ry     beta= 0.10
     Davidson diagonalization with overlap
     ethr =  7.46E-04,  avg # of iterations =  1.3

     total cpu time spent up to now is      282.8 secs

     total energy              =  -16384.35315125 Ry
     estimated scf accuracy    <       3.88149658 Ry

     iteration #  3     ecut=    71.00 Ry     beta= 0.10
     Davidson diagonalization with overlap
     ethr =  6.74E-04,  avg # of iterations =  2.6

     total cpu time spent up to now is      363.7 secs

     total energy              =  -16384.17349933 Ry
     estimated scf accuracy    <       2.62166814 Ry

     iteration #  4     ecut=    71.00 Ry     beta= 0.10
     Davidson diagonalization with overlap
     ethr =  4.55E-04,  avg # of iterations =  4.6

     total cpu time spent up to now is      454.3 secs

     total energy              =  -16384.33212312 Ry
     estimated scf accuracy    <       0.81752290 Ry

     iteration #  5     ecut=    71.00 Ry     beta= 0.10
     Davidson diagonalization with overlap
     ethr =  1.42E-04,  avg # of iterations =  3.5

     total cpu time spent up to now is      544.7 secs

     total energy              =  -16384.05874697 Ry
     estimated scf accuracy    <       1.05108330 Ry

     iteration #  6     ecut=    71.00 Ry     beta= 0.10
     Davidson diagonalization with overlap
     ethr =  1.42E-04,  avg # of iterations =  5.5

     total cpu time spent up to now is      639.4 secs

     total energy              =  -16384.09225695 Ry
     estimated scf accuracy    <       0.30290602 Ry

     iteration #  7     ecut=    71.00 Ry     beta= 0.10
     Davidson diagonalization with overlap
     ethr =  5.26E-05,  avg # of iterations =  4.4

     total cpu time spent up to now is      730.1 secs

     total energy              =  -16384.06859602 Ry
     estimated scf accuracy    <       0.21842186 Ry

     iteration #  8     ecut=    71.00 Ry     beta= 0.10
     Davidson diagonalization with overlap
     ethr =  3.79E-05,  avg # of iterations =  5.1

     total cpu time spent up to now is      822.3 secs

     total energy              =  -16384.04372260 Ry
     estimated scf accuracy    <       0.14803619 Ry

     iteration #  9     ecut=    71.00 Ry     beta= 0.10
     Davidson diagonalization with overlap
     ethr =  2.57E-05,  avg # of iterations =  5.1

     total cpu time spent up to now is      914.7 secs

     total energy              =  -16384.04006654 Ry
     estimated scf accuracy    <       0.09597634 Ry

     iteration # 10     ecut=    71.00 Ry     beta= 0.10
     Davidson diagonalization with overlap
     ethr =  1.67E-05,  avg # of iterations =  2.9

     total cpu time spent up to now is     1002.0 secs

     total energy              =  -16384.02661898 Ry
     estimated scf accuracy    <       0.08025867 Ry

     iteration # 11     ecut=    71.00 Ry     beta= 0.10
     Davidson diagonalization with overlap
     ethr =  1.39E-05,  avg # of iterations =  5.4

     total cpu time spent up to now is     1101.4 secs

     total energy              =  -16384.02634422 Ry
     estimated scf accuracy    <       0.04906781 Ry

     iteration # 12     ecut=    71.00 Ry     beta= 0.10
     Davidson diagonalization with overlap
     ethr =  8.52E-06,  avg # of iterations =  2.9

     negative rho (up, down):  1.310E-06 0.000E+00

     total cpu time spent up to now is     1189.7 secs

     total energy              =  -16384.01995535 Ry
     estimated scf accuracy    <       0.04047018 Ry

     iteration # 13     ecut=    71.00 Ry     beta= 0.10
     Davidson diagonalization with overlap
     ethr =  7.03E-06,  avg # of iterations =  6.8

     total cpu time spent up to now is     1292.2 secs

     total energy              =  -16384.03269899 Ry
     estimated scf accuracy    <       0.02395241 Ry

     iteration # 14     ecut=    71.00 Ry     beta= 0.10
     Davidson diagonalization with overlap
     ethr =  4.16E-06,  avg # of iterations =  6.0

     total cpu time spent up to now is     1395.8 secs

     total energy              =  -16384.03513770 Ry
     estimated scf accuracy    <       0.01999553 Ry

     iteration # 15     ecut=    71.00 Ry     beta= 0.10
     Davidson diagonalization with overlap
     ethr =  3.47E-06,  avg # of iterations =  4.5

     total cpu time spent up to now is     1488.6 secs

     total energy              =  -16384.04190318 Ry
     estimated scf accuracy    <       0.00483773 Ry

     iteration # 16     ecut=    71.00 Ry     beta= 0.10
     Davidson diagonalization with overlap
     ethr =  8.40E-07,  avg # of iterations =  4.8

     total cpu time spent up to now is     1583.8 secs

     total energy              =  -16384.04578027 Ry
     estimated scf accuracy    <       0.00261550 Ry

     iteration # 17     ecut=    71.00 Ry     beta= 0.10
     Davidson diagonalization with overlap
     ethr =  4.54E-07,  avg # of iterations =  3.8

     total cpu time spent up to now is     1675.5 secs

     total energy              =  -16384.04938914 Ry
     estimated scf accuracy    <       0.00151104 Ry

     iteration # 18     ecut=    71.00 Ry     beta= 0.10
     Davidson diagonalization with overlap
     ethr =  2.62E-07,  avg # of iterations =  5.8

     total cpu time spent up to now is     1782.5 secs

     total energy              =  -16384.05027946 Ry
     estimated scf accuracy    <       0.00030878 Ry

     iteration # 19     ecut=    71.00 Ry     beta= 0.10
     Davidson diagonalization with overlap
     ethr =  5.36E-08,  avg # of iterations =  2.0

     total cpu time spent up to now is     1870.3 secs

     total energy              =  -16384.05055080 Ry
     estimated scf accuracy    <       0.00019707 Ry

     iteration # 20     ecut=    71.00 Ry     beta= 0.10
     Davidson diagonalization with overlap
     ethr =  3.42E-08,  avg # of iterations =  2.0

     total cpu time spent up to now is     1955.0 secs

     total energy              =  -16384.05129179 Ry
     estimated scf accuracy    <       0.00013495 Ry

     iteration # 21     ecut=    71.00 Ry     beta= 0.10
     Davidson diagonalization with overlap
     ethr =  2.34E-08,  avg # of iterations =  5.2

     total cpu time spent up to now is     2068.2 secs

     total energy              =  -16384.05135894 Ry
     estimated scf accuracy    <       0.00002486 Ry

     iteration # 22     ecut=    71.00 Ry     beta= 0.10
     Davidson diagonalization with overlap
     ethr =  4.32E-09,  avg # of iterations =  2.0

     total cpu time spent up to now is     2153.9 secs

     total energy              =  -16384.05138776 Ry
     estimated scf accuracy    <       0.00001182 Ry

     iteration # 23     ecut=    71.00 Ry     beta= 0.10
     Davidson diagonalization with overlap
     ethr =  2.05E-09,  avg # of iterations =  2.0

     total cpu time spent up to now is     2242.8 secs

     total energy              =  -16384.05140368 Ry
     estimated scf accuracy    <       0.00000575 Ry

     iteration # 24     ecut=    71.00 Ry     beta= 0.10
     Davidson diagonalization with overlap
     ethr =  9.98E-10,  avg # of iterations =  2.0

     total cpu time spent up to now is     2330.1 secs

     total energy              =  -16384.05141573 Ry
     estimated scf accuracy    <       0.00000319 Ry

     iteration # 25     ecut=    71.00 Ry     beta= 0.10
     Davidson diagonalization with overlap
     ethr =  5.53E-10,  avg # of iterations =  2.0

     total cpu time spent up to now is     2426.8 secs

     End of self-consistent calculation

          k = 0.0556 0.0556 0.0349 ( 52632 PWs)   bands (ev):

   -73.9746 -73.9524 -73.9524 -73.9482 -73.9482 -73.9436 -73.9426 -73.9420
   -73.9420 -73.9408 -73.9350 -73.9349 -73.9335 -73.9335 -73.9263 -73.9263
   -73.3829 -73.3828 -73.3684 -73.3684 -73.3684 -73.3684 -73.3672 -73.3672
   -73.3669 -73.3669 -73.3656 -73.3656 -73.3656 -73.3656 -73.3511 -73.3511
   -39.8091 -39.8091 -39.8087 -39.8078 -39.7953 -39.7953 -39.7885 -39.7543
   -39.7543 -39.7513 -39.7513 -39.7142 -39.7142 -39.7031 -39.7031 -39.6939
   -39.6939 -39.6907 -39.6907 -39.6818 -39.6818 -39.6529 -39.6529 -39.6463
   -39.6462 -39.6462 -39.6417 -39.6417 -39.6365 -39.6319 -39.6319 -39.6181
   -39.6150 -39.6150 -39.6005 -39.6005 -39.5976 -39.5966 -39.5865 -39.5865
   -39.5813 -39.5813 -39.5477 -39.5458 -39.5458 -39.5415 -39.5294 -39.5278
   -39.2570 -39.2570 -39.2561 -39.2553 -39.2452 -39.2452 -39.2432 -39.2432
   -39.1747 -39.1747 -39.1746 -39.1745 -39.1597 -39.1597 -39.1595 -39.1595
   -39.1574 -39.1574 -39.1570 -39.1570 -39.1422 -39.1422 -39.1420 -39.1420
   -39.0715 -39.0712 -39.0700 -39.0697 -39.0580 -39.0580 -39.0567 -39.0567
   -38.9859 -38.9827 -38.9714 -38.9714 -38.9709 -38.9709 -38.9700 -38.9697
   -38.9696 -38.9695 -38.9692 -38.9692 -38.9688 -38.9688 -38.9589 -38.9589
     3.8402   5.1294   5.3699   5.3699   5.4363   5.4424   5.4486   5.4486
     5.5077   5.5211   5.6444   5.6444   5.7333   5.7333   5.9167   5.9167
     5.9822   6.1843   6.3060   6.3060   6.3350   6.3350   6.3649   6.3649
     6.3854   6.3855   6.4545   6.4576   6.4576   6.4599   6.4723   6.4723
     6.5981   6.5981   6.6657   6.6658   6.7020   6.7020   6.7782   6.7782
     6.7902   6.7902   6.8528   6.8528   6.9149   6.9743   6.9743   6.9926
     6.9926   7.1361   7.1361   7.2022   7.2500   7.2500   7.2997   7.2997
     7.3119   7.3205   7.3205   7.3313   7.5073   7.5073   7.5103   7.5103
     7.5234   7.5337   7.6715   7.6715   7.6825   7.6846   7.6920   7.6920
     7.7246   7.7339   7.7943   7.7943   7.8292   7.8292   8.1792   8.1792
     8.2330   8.2407   8.2441   8.2441   8.2637   8.2637   8.2880   8.2880
     8.4108   8.4108   8.4441   8.4441   8.4571   8.4571   8.4638   8.4804
     8.5096   8.5096   8.5357   8.5357   8.5663   8.5855   8.6116   8.6346
     8.6346   8.7424   8.7424   8.7589   8.7589   8.8370   8.8655   8.8655
     8.8946   8.8946   8.9058   8.9058   9.0336   9.0336   9.0889   9.0889
     9.0902   9.0902   9.1227   9.2721   9.2722   9.2817   9.3401   9.3401
     9.4603   9.4603   9.4729   9.4729   9.4730   9.4926   9.4926   9.5021
     9.5902   9.6108   9.6108   9.6114   9.6158   9.6934   9.7255   9.7435
     9.7435   9.7692   9.7692   9.7750   9.7750   9.9379   9.9379  10.0113
    10.0144  10.0144  10.0156  10.0690  10.1478  10.1645  10.1645  10.1713
    10.1713  10.2218  10.2677  10.3745  10.3745  10.7101  10.7101  10.7788
    10.7788  11.1461  11.1461  11.5820  11.6291  11.8362  12.0489  12.0489
    12.3407  12.3933  12.3933  12.4682  12.4682  12.7349  12.9465  12.9465
    12.9687  14.5566  14.5566  14.8640  14.8640  15.3649  15.4266  15.4267
    15.4353  15.4353  15.5518  16.2077  16.2077  16.7058  16.7756  16.7756
    16.8680  16.8680  18.3822  18.6555  18.6555  18.8318  19.0679  19.1095
    19.1095  19.3536  19.3536  19.3614  19.3615  19.6410  19.6410  19.7956
    19.7956  19.8714

          k = 0.0556 0.0556 0.1046 ( 52626 PWs)   bands (ev):

   -73.9746 -73.9524 -73.9524 -73.9482 -73.9482 -73.9436 -73.9426 -73.9420
   -73.9420 -73.9408 -73.9350 -73.9349 -73.9335 -73.9335 -73.9263 -73.9263
   -73.3829 -73.3828 -73.3684 -73.3684 -73.3684 -73.3684 -73.3672 -73.3672
   -73.3669 -73.3669 -73.3656 -73.3656 -73.3656 -73.3656 -73.3511 -73.3511
   -39.8091 -39.8091 -39.8087 -39.8078 -39.7953 -39.7953 -39.7885 -39.7543
   -39.7543 -39.7513 -39.7513 -39.7142 -39.7142 -39.7031 -39.7031 -39.6939
   -39.6939 -39.6907 -39.6907 -39.6818 -39.6818 -39.6530 -39.6530 -39.6463
   -39.6463 -39.6463 -39.6417 -39.6417 -39.6365 -39.6319 -39.6319 -39.6180
   -39.6150 -39.6150 -39.6005 -39.6005 -39.5976 -39.5966 -39.5865 -39.5865
   -39.5813 -39.5813 -39.5476 -39.5458 -39.5458 -39.5415 -39.5294 -39.5278
   -39.2570 -39.2570 -39.2562 -39.2553 -39.2452 -39.2452 -39.2432 -39.2432
   -39.1747 -39.1747 -39.1746 -39.1746 -39.1597 -39.1597 -39.1595 -39.1595
   -39.1574 -39.1574 -39.1570 -39.1570 -39.1421 -39.1421 -39.1420 -39.1420
   -39.0715 -39.0712 -39.0700 -39.0697 -39.0580 -39.0580 -39.0567 -39.0567
   -38.9859 -38.9827 -38.9714 -38.9714 -38.9708 -38.9708 -38.9700 -38.9697
   -38.9696 -38.9696 -38.9692 -38.9692 -38.9688 -38.9688 -38.9590 -38.9589
     3.8404   5.1291   5.3699   5.3699   5.4363   5.4424   5.4487   5.4487
     5.5077   5.5206   5.6444   5.6444   5.7333   5.7333   5.9167   5.9167
     5.9826   6.1843   6.3060   6.3060   6.3350   6.3350   6.3648   6.3648
     6.3854   6.3854   6.4544   6.4575   6.4576   6.4598   6.4722   6.4722
     6.5981   6.5981   6.6657   6.6657   6.7020   6.7020   6.7781   6.7781
     6.7903   6.7903   6.8528   6.8528   6.9149   6.9743   6.9744   6.9926
     6.9926   7.1361   7.1361   7.2022   7.2500   7.2500   7.2997   7.2997
     7.3119   7.3205   7.3205   7.3313   7.5070   7.5070   7.5103   7.5103
     7.5234   7.5337   7.6711   7.6711   7.6825   7.6846   7.6919   7.6919
     7.7246   7.7339   7.7946   7.7946   7.8295   7.8295   8.1797   8.1797
     8.2334   8.2414   8.2441   8.2441   8.2637   8.2637   8.2881   8.2881
     8.4097   8.4098   8.4441   8.4441   8.4571   8.4571   8.4638   8.4804
     8.5088   8.5088   8.5358   8.5358   8.5663   8.5818   8.6116   8.6349
     8.6349   8.7425   8.7425   8.7594   8.7594   8.8375   8.8654   8.8654
     8.8956   8.8956   8.9060   8.9060   9.0336   9.0336   9.0883   9.0883
     9.0893   9.0893   9.1226   9.2722   9.2722   9.2989   9.3401   9.3401
     9.4600   9.4600   9.4729   9.4729   9.4730   9.4926   9.4926   9.5021
     9.5895   9.6114   9.6137   9.6137   9.6151   9.6934   9.7241   9.7429
     9.7429   9.7691   9.7691   9.7778   9.7778   9.9378   9.9379  10.0113
    10.0144  10.0144  10.0156  10.0690  10.1478  10.1644  10.1644  10.1713
    10.1713  10.2230  10.2677  10.3745  10.3745  10.7032  10.7032  10.7788
    10.7788  11.1395  11.1395  11.4938  11.6294  11.8360  12.0506  12.0506
    12.3453  12.4137  12.4137  12.4672  12.4672  12.8507  12.9664  12.9669
    12.9669  14.5576  14.5576  14.7544  14.7544  15.3246  15.3246  15.3732
    15.4293  15.4293  15.5422  16.4014  16.4014  16.5838  16.8638  16.8638
    16.9740  16.9740  18.2648  18.5314  18.5314  18.8807  19.1112  19.1112
    19.1179  19.2731  19.2731  19.3677  19.3677  19.5749  19.5750  19.7988
    19.7988  19.8252

          k = 0.0556 0.0556 0.1743 ( 52542 PWs)   bands (ev):

   -73.9746 -73.9524 -73.9524 -73.9482 -73.9482 -73.9436 -73.9426 -73.9420
   -73.9420 -73.9408 -73.9350 -73.9349 -73.9335 -73.9335 -73.9263 -73.9263
   -73.3829 -73.3828 -73.3684 -73.3684 -73.3684 -73.3684 -73.3672 -73.3672
   -73.3669 -73.3669 -73.3656 -73.3656 -73.3656 -73.3656 -73.3511 -73.3511
   -39.8091 -39.8091 -39.8087 -39.8078 -39.7952 -39.7952 -39.7885 -39.7543
   -39.7543 -39.7513 -39.7513 -39.7142 -39.7141 -39.7031 -39.7031 -39.6939
   -39.6939 -39.6907 -39.6907 -39.6818 -39.6818 -39.6529 -39.6529 -39.6462
   -39.6462 -39.6462 -39.6417 -39.6417 -39.6365 -39.6318 -39.6318 -39.6180
   -39.6150 -39.6150 -39.6005 -39.6005 -39.5976 -39.5966 -39.5865 -39.5865
   -39.5812 -39.5812 -39.5476 -39.5458 -39.5458 -39.5415 -39.5294 -39.5278
   -39.2570 -39.2569 -39.2562 -39.2553 -39.2452 -39.2452 -39.2432 -39.2432
   -39.1747 -39.1747 -39.1745 -39.1745 -39.1597 -39.1597 -39.1595 -39.1595
   -39.1574 -39.1574 -39.1570 -39.1570 -39.1421 -39.1421 -39.1420 -39.1420
   -39.0715 -39.0712 -39.0700 -39.0696 -39.0580 -39.0580 -39.0567 -39.0566
   -38.9859 -38.9826 -38.9713 -38.9713 -38.9708 -38.9708 -38.9700 -38.9697
   -38.9696 -38.9695 -38.9691 -38.9691 -38.9688 -38.9688 -38.9589 -38.9589
     3.8406   5.1287   5.3699   5.3699   5.4363   5.4425   5.4487   5.4487
     5.5076   5.5198   5.6444   5.6444   5.7334   5.7334   5.9168   5.9168
     5.9830   6.1843   6.3060   6.3060   6.3350   6.3350   6.3648   6.3648
     6.3854   6.3854   6.4543   6.4575   6.4575   6.4597   6.4721   6.4721
     6.5982   6.5982   6.6657   6.6657   6.7020   6.7020   6.7781   6.7781
     6.7904   6.7904   6.8528   6.8528   6.9149   6.9743   6.9743   6.9926
     6.9926   7.1361   7.1361   7.2021   7.2500   7.2500   7.2998   7.2998
     7.3119   7.3205   7.3205   7.3313   7.5066   7.5066   7.5102   7.5102
     7.5233   7.5336   7.6706   7.6706   7.6825   7.6846   7.6919   7.6920
     7.7246   7.7339   7.7951   7.7951   7.8301   7.8301   8.1803   8.1803
     8.2340   8.2425   8.2441   8.2441   8.2636   8.2637   8.2882   8.2882
     8.4082   8.4082   8.4440   8.4440   8.4571   8.4571   8.4638   8.4804
     8.5075   8.5075   8.5360   8.5360   8.5665   8.5763   8.6116   8.6353
     8.6353   8.7425   8.7425   8.7603   8.7603   8.8381   8.8652   8.8652
     8.8972   8.8972   8.9064   8.9064   9.0336   9.0336   9.0873   9.0873
     9.0880   9.0880   9.1226   9.2722   9.2722   9.3262   9.3402   9.3402
     9.4595   9.4595   9.4730   9.4730   9.4731   9.4927   9.4927   9.5021
     9.5884   9.6114   9.6138   9.6183   9.6183   9.6934   9.7220   9.7419
     9.7419   9.7689   9.7689   9.7822   9.7822   9.9378   9.9378  10.0113
    10.0145  10.0145  10.0156  10.0690  10.1478  10.1644  10.1644  10.1712
    10.1712  10.2252  10.2677  10.3745  10.3745  10.6926  10.6926  10.7788
    10.7788  11.1295  11.1295  11.3776  11.6300  11.8358  12.0533  12.0533
    12.3523  12.4460  12.4460  12.4658  12.4658  12.9628  12.9991  12.9991
    13.0127  14.5591  14.5591  14.6146  14.6146  15.1839  15.1840  15.3884
    15.4333  15.4333  15.5249  16.4050  16.7065  16.7065  16.8575  16.8575
    17.2897  17.2897  18.1626  18.4007  18.4008  18.7521  18.8137  18.8137
    19.1134  19.1134  19.3358  19.3358  19.3899  19.3899  19.4148  19.8018
    19.8019  19.8766

          k = 0.0556 0.0556 0.2440 ( 52549 PWs)   bands (ev):

   -73.9746 -73.9524 -73.9524 -73.9482 -73.9482 -73.9436 -73.9426 -73.9420
   -73.9420 -73.9408 -73.9350 -73.9349 -73.9335 -73.9335 -73.9263 -73.9263
   -73.3829 -73.3828 -73.3684 -73.3684 -73.3684 -73.3684 -73.3672 -73.3672
   -73.3669 -73.3669 -73.3656 -73.3656 -73.3656 -73.3656 -73.3511 -73.3511
   -39.8090 -39.8090 -39.8087 -39.8078 -39.7953 -39.7953 -39.7884 -39.7543
   -39.7543 -39.7513 -39.7513 -39.7142 -39.7142 -39.7031 -39.7031 -39.6939
   -39.6939 -39.6907 -39.6907 -39.6818 -39.6818 -39.6529 -39.6529 -39.6462
   -39.6462 -39.6462 -39.6417 -39.6417 -39.6364 -39.6319 -39.6319 -39.6180
   -39.6149 -39.6149 -39.6005 -39.6005 -39.5976 -39.5966 -39.5865 -39.5865
   -39.5813 -39.5812 -39.5476 -39.5458 -39.5458 -39.5415 -39.5294 -39.5278
   -39.2569 -39.2569 -39.2562 -39.2553 -39.2452 -39.2452 -39.2432 -39.2432
   -39.1747 -39.1747 -39.1745 -39.1745 -39.1597 -39.1597 -39.1595 -39.1595
   -39.1574 -39.1574 -39.1570 -39.1570 -39.1421 -39.1421 -39.1420 -39.1420
   -39.0715 -39.0712 -39.0700 -39.0696 -39.0580 -39.0580 -39.0567 -39.0566
   -38.9859 -38.9826 -38.9713 -38.9713 -38.9709 -38.9709 -38.9700 -38.9696
   -38.9696 -38.9695 -38.9691 -38.9691 -38.9688 -38.9688 -38.9589 -38.9589
     3.8408   5.1283   5.3699   5.3699   5.4363   5.4425   5.4487   5.4487
     5.5076   5.5192   5.6444   5.6444   5.7335   5.7335   5.9168   5.9168
     5.9835   6.1843   6.3059   6.3059   6.3350   6.3350   6.3648   6.3648
     6.3854   6.3854   6.4542   6.4574   6.4574   6.4597   6.4720   6.4720
     6.5982   6.5982   6.6656   6.6656   6.7019   6.7019   6.7781   6.7781
     6.7905   6.7905   6.8528   6.8528   6.9149   6.9743   6.9743   6.9926
     6.9926   7.1361   7.1361   7.2020   7.2499   7.2499   7.2998   7.2998
     7.3119   7.3205   7.3205   7.3313   7.5063   7.5063   7.5102   7.5102
     7.5233   7.5335   7.6701   7.6701   7.6825   7.6846   7.6920   7.6920
     7.7246   7.7339   7.7955   7.7955   7.8305   7.8305   8.1809   8.1809
     8.2346   8.2434   8.2441   8.2441   8.2636   8.2636   8.2884   8.2884
     8.4068   8.4068   8.4440   8.4440   8.4571   8.4571   8.4638   8.4804
     8.5063   8.5063   8.5361   8.5361   8.5669   8.5713   8.6116   8.6356
     8.6356   8.7426   8.7426   8.7610   8.7610   8.8386   8.8650   8.8650
     8.8986   8.8986   8.9067   8.9067   9.0336   9.0336   9.0864   9.0864
     9.0868   9.0868   9.1227   9.2722   9.2722   9.3403   9.3403   9.3510
     9.4591   9.4591   9.4730   9.4730   9.4731   9.4927   9.4927   9.5021
     9.5874   9.6114   9.6123   9.6224   9.6224   9.6934   9.7202   9.7411
     9.7411   9.7687   9.7687   9.7860   9.7860   9.9377   9.9377  10.0113
    10.0146  10.0146  10.0156  10.0690  10.1478  10.1643  10.1643  10.1712
    10.1712  10.2273  10.2676  10.3745  10.3745  10.6834  10.6834  10.7788
    10.7788  11.1208  11.1208  11.2872  11.6305  11.8355  12.0557  12.0557
    12.3586  12.4646  12.4646  12.4755  12.4755  12.9596  13.0285  13.0285
    13.1477  14.5081  14.5081  14.5604  14.5604  15.0770  15.0770  15.4065
    15.4369  15.4369  15.5049  16.2523  16.8520  16.8520  17.0351  17.0351
    17.6414  17.6414  18.1029  18.3123  18.3124  18.3914  18.3914  18.6492
    18.8808  18.8808  19.1171  19.1171  19.4098  19.4098  19.7684  19.8044
    19.8044  20.1838

          k = 0.0556 0.0556-0.3137 ( 52552 PWs)   bands (ev):

   -73.9746 -73.9524 -73.9524 -73.9482 -73.9482 -73.9436 -73.9426 -73.9420
   -73.9420 -73.9408 -73.9350 -73.9349 -73.9335 -73.9335 -73.9263 -73.9263
   -73.3829 -73.3828 -73.3684 -73.3684 -73.3684 -73.3684 -73.3672 -73.3672
   -73.3669 -73.3669 -73.3656 -73.3656 -73.3656 -73.3656 -73.3511 -73.3511
   -39.8091 -39.8090 -39.8087 -39.8078 -39.7952 -39.7952 -39.7884 -39.7544
   -39.7543 -39.7514 -39.7513 -39.7141 -39.7141 -39.7031 -39.7031 -39.6939
   -39.6939 -39.6907 -39.6907 -39.6818 -39.6818 -39.6530 -39.6530 -39.6462
   -39.6462 -39.6462 -39.6417 -39.6417 -39.6365 -39.6319 -39.6319 -39.6180
   -39.6149 -39.6149 -39.6005 -39.6005 -39.5976 -39.5966 -39.5865 -39.5865
   -39.5813 -39.5813 -39.5476 -39.5458 -39.5458 -39.5415 -39.5294 -39.5278
   -39.2570 -39.2569 -39.2562 -39.2553 -39.2452 -39.2452 -39.2432 -39.2432
   -39.1746 -39.1746 -39.1745 -39.1745 -39.1597 -39.1597 -39.1595 -39.1595
   -39.1574 -39.1574 -39.1570 -39.1570 -39.1421 -39.1421 -39.1420 -39.1420
   -39.0716 -39.0712 -39.0700 -39.0696 -39.0580 -39.0580 -39.0567 -39.0566
   -38.9858 -38.9825 -38.9714 -38.9714 -38.9709 -38.9709 -38.9700 -38.9696
   -38.9696 -38.9695 -38.9692 -38.9691 -38.9688 -38.9688 -38.9590 -38.9590
     3.8409   5.1282   5.3699   5.3699   5.4363   5.4425   5.4487   5.4487
     5.5076   5.5189   5.6444   5.6444   5.7335   5.7335   5.9168   5.9168
     5.9836   6.1843   6.3059   6.3059   6.3350   6.3350   6.3648   6.3648
     6.3854   6.3854   6.4541   6.4574   6.4574   6.4596   6.4720   6.4720
     6.5982   6.5982   6.6656   6.6656   6.7019   6.7019   6.7781   6.7781
     6.7905   6.7905   6.8527   6.8528   6.9149   6.9743   6.9744   6.9926
     6.9926   7.1361   7.1361   7.2020   7.2499   7.2499   7.2998   7.2998
     7.3119   7.3205   7.3205   7.3313   7.5062   7.5062   7.5102   7.5102
     7.5233   7.5335   7.6699   7.6699   7.6825   7.6846   7.6920   7.6920
     7.7246   7.7339   7.7957   7.7957   7.8307   7.8307   8.1811   8.1811
     8.2348   8.2438   8.2441   8.2441   8.2636   8.2636   8.2884   8.2884
     8.4062   8.4062   8.4440   8.4440   8.4571   8.4571   8.4638   8.4804
     8.5059   8.5059   8.5362   8.5362   8.5678   8.5688   8.6116   8.6358
     8.6358   8.7426   8.7426   8.7613   8.7613   8.8388   8.8650   8.8650
     8.8991   8.8991   8.9068   8.9068   9.0336   9.0336   9.0861   9.0861
     9.0863   9.0863   9.1227   9.2722   9.2722   9.3403   9.3403   9.3611
     9.4589   9.4589   9.4730   9.4730   9.4731   9.4927   9.4927   9.5021
     9.5871   9.6114   9.6116   9.6240   9.6240   9.6934   9.7195   9.7408
     9.7408   9.7686   9.7686   9.7875   9.7875   9.9376   9.9376  10.0113
    10.0146  10.0146  10.0156  10.0690  10.1478  10.1643  10.1643  10.1712
    10.1712  10.2283  10.2676  10.3745  10.3745  10.6798  10.6798  10.7788
    10.7788  11.1174  11.1174  11.2536  11.6307  11.8354  12.0566  12.0566
    12.3611  12.4641  12.4641  12.4874  12.4874  12.9583  13.0404  13.0405
    13.2003  14.4689  14.4689  14.5609  14.5609  15.0377  15.0377  15.4163
    15.4383  15.4384  15.4942  16.1924  16.8498  16.8498  17.2147  17.2147
    17.8509  17.8509  18.0841  18.1806  18.1806  18.2815  18.2816  18.6115
    18.6382  18.6382  19.1177  19.1177  19.4179  19.4179  19.8054  19.8054
    20.1363  20.3450

          k = 0.0556 0.1667 0.0349 ( 52600 PWs)   bands (ev):

   -73.9738 -73.9566 -73.9521 -73.9480 -73.9453 -73.9440 -73.9431 -73.9423
   -73.9404 -73.9397 -73.9364 -73.9351 -73.9338 -73.9321 -73.9270 -73.9265
   -73.3824 -73.3824 -73.3712 -73.3711 -73.3684 -73.3684 -73.3675 -73.3674
   -73.3667 -73.3667 -73.3657 -73.3657 -73.3629 -73.3629 -73.3516 -73.3516
   -39.8072 -39.8063 -39.8050 -39.8037 -39.7925 -39.7923 -39.7872 -39.7591
   -39.7572 -39.7555 -39.7514 -39.7335 -39.7273 -39.7226 -39.7019 -39.6943
   -39.6930 -39.6882 -39.6746 -39.6673 -39.6630 -39.6570 -39.6542 -39.6505
   -39.6503 -39.6475 -39.6466 -39.6392 -39.6371 -39.6313 -39.6292 -39.6262
   -39.6155 -39.6061 -39.6002 -39.5932 -39.5912 -39.5907 -39.5869 -39.5863
   -39.5816 -39.5776 -39.5529 -39.5524 -39.5471 -39.5403 -39.5343 -39.5293
   -39.2556 -39.2549 -39.2524 -39.2507 -39.2439 -39.2437 -39.2393 -39.2392
   -39.1915 -39.1913 -39.1893 -39.1889 -39.1773 -39.1766 -39.1727 -39.1720
   -39.1447 -39.1443 -39.1400 -39.1395 -39.1273 -39.1273 -39.1251 -39.1249
   -39.0758 -39.0757 -39.0711 -39.0709 -39.0624 -39.0624 -39.0585 -39.0584
   -38.9853 -38.9824 -38.9735 -38.9731 -38.9714 -38.9708 -38.9704 -38.9697
   -38.9696 -38.9693 -38.9693 -38.9688 -38.9671 -38.9669 -38.9592 -38.9592
     3.9099   5.1840   5.4066   5.4122   5.4526   5.4565   5.4680   5.4854
     5.4907   5.5461   5.5733   5.6688   5.6707   5.7344   5.9162   5.9792
     6.0351   6.2176   6.2274   6.2417   6.2478   6.2554   6.2571   6.3472
     6.3513   6.3870   6.3926   6.3931   6.4136   6.4468   6.4545   6.4926
     6.4950   6.5282   6.5756   6.6442   6.7397   6.7492   6.7525   6.7559
     6.7812   6.7912   6.7984   6.9342   6.9707   6.9960   7.0370   7.0828
     7.0837   7.1234   7.1363   7.1897   7.1954   7.2293   7.2805   7.3147
     7.3263   7.3366   7.3624   7.3875   7.4310   7.4763   7.5220   7.5316
     7.5396   7.5449   7.7017   7.7057   7.7102   7.7140   7.7246   7.7269
     7.7412   7.7912   7.8249   7.8279   7.8400   7.9674   8.0485   8.0683
     8.0694   8.1062   8.1467   8.1531   8.1877   8.2466   8.2535   8.2776
     8.3509   8.3648   8.3821   8.4074   8.4422   8.4679   8.5177   8.5286
     8.5421   8.5656   8.5662   8.5941   8.5985   8.6276   8.6378   8.6512
     8.6534   8.6579   8.6778   8.7366   8.8060   8.8312   8.8447   8.8526
     8.9707   8.9860   8.9875   9.0499   9.0820   9.1102   9.1116   9.1728
     9.1936   9.2027   9.2340   9.2884   9.3113   9.3292   9.3515   9.3553
     9.3620   9.4081   9.4200   9.4837   9.5003   9.5090   9.5108   9.5588
     9.5591   9.5848   9.5875   9.5943   9.7207   9.7263   9.7401   9.7480
     9.7663   9.7839   9.7983   9.8521   9.9060   9.9229   9.9332   9.9334
     9.9595   9.9671  10.0560  10.0724  10.1106  10.1422  10.1552  10.1594
    10.1755  10.1831  10.2551  10.2699  10.3077  10.3684  10.6617  10.6966
    10.7087  11.1604  11.2381  11.3806  11.6842  11.7475  11.8556  11.8914
    11.9188  12.4018  12.4528  12.5351  12.9398  12.9600  13.0457  13.5396
    13.5578  14.1625  14.3198  14.7897  14.8935  15.4142  15.4585  15.4961
    15.6173  15.6679  15.6974  16.0377  16.2656  16.3369  16.7939  16.8245
    17.0289  17.3770  18.2701  18.3457  18.3993  18.4073  18.4448  18.5081
    18.8641  18.9381  19.0510  19.1042  19.4708  19.5116  19.6534  19.7384
    19.9178  20.0720

          k = 0.0556 0.1667 0.1046 ( 52590 PWs)   bands (ev):

   -73.9738 -73.9566 -73.9521 -73.9480 -73.9453 -73.9440 -73.9431 -73.9423
   -73.9404 -73.9397 -73.9364 -73.9351 -73.9338 -73.9321 -73.9270 -73.9265
   -73.3824 -73.3824 -73.3712 -73.3711 -73.3684 -73.3684 -73.3675 -73.3674
   -73.3667 -73.3667 -73.3657 -73.3657 -73.3629 -73.3629 -73.3516 -73.3516
   -39.8072 -39.8063 -39.8050 -39.8037 -39.7925 -39.7924 -39.7871 -39.7591
   -39.7572 -39.7555 -39.7514 -39.7334 -39.7273 -39.7226 -39.7019 -39.6943
   -39.6930 -39.6882 -39.6745 -39.6673 -39.6630 -39.6570 -39.6543 -39.6505
   -39.6503 -39.6475 -39.6466 -39.6392 -39.6371 -39.6313 -39.6292 -39.6261
   -39.6155 -39.6060 -39.6002 -39.5932 -39.5912 -39.5907 -39.5869 -39.5863
   -39.5816 -39.5775 -39.5529 -39.5524 -39.5471 -39.5403 -39.5342 -39.5293
   -39.2557 -39.2548 -39.2524 -39.2507 -39.2439 -39.2437 -39.2394 -39.2392
   -39.1915 -39.1913 -39.1893 -39.1889 -39.1772 -39.1766 -39.1727 -39.1720
   -39.1447 -39.1442 -39.1400 -39.1395 -39.1274 -39.1273 -39.1251 -39.1249
   -39.0758 -39.0756 -39.0711 -39.0708 -39.0624 -39.0624 -39.0585 -39.0584
   -38.9852 -38.9823 -38.9735 -38.9731 -38.9713 -38.9707 -38.9704 -38.9697
   -38.9696 -38.9693 -38.9692 -38.9688 -38.9671 -38.9669 -38.9593 -38.9592
     3.9101   5.1838   5.4066   5.4122   5.4527   5.4566   5.4680   5.4854
     5.4907   5.5461   5.5728   5.6688   5.6706   5.7344   5.9163   5.9792
     6.0354   6.2177   6.2274   6.2417   6.2477   6.2554   6.2571   6.3472
     6.3513   6.3870   6.3925   6.3931   6.4135   6.4467   6.4544   6.4925
     6.4949   6.5282   6.5755   6.6443   6.7398   6.7492   6.7525   6.7559
     6.7812   6.7912   6.7984   6.9342   6.9707   6.9960   7.0371   7.0829
     7.0837   7.1233   7.1362   7.1897   7.1953   7.2293   7.2805   7.3146
     7.3264   7.3367   7.3624   7.3875   7.4310   7.4763   7.5220   7.5316
     7.5395   7.5447   7.7015   7.7057   7.7102   7.7140   7.7247   7.7270
     7.7412   7.7909   7.8252   7.8282   7.8402   7.9677   8.0485   8.0687
     8.0697   8.1061   8.1470   8.1538   8.1876   8.2465   8.2536   8.2776
     8.3497   8.3648   8.3821   8.4087   8.4413   8.4685   8.5177   8.5288
     8.5413   8.5657   8.5667   8.5941   8.5953   8.6276   8.6371   8.6512
     8.6534   8.6581   8.6778   8.7366   8.8057   8.8319   8.8452   8.8536
     8.9703   8.9864   8.9877   9.0508   9.0820   9.1093   9.1127   9.1724
     9.1927   9.2024   9.2343   9.2879   9.3113   9.3292   9.3497   9.3550
     9.3616   9.4196   9.4202   9.4838   9.5034   9.5090   9.5109   9.5588
     9.5591   9.5835   9.5875   9.5972   9.7207   9.7261   9.7394   9.7478
     9.7691   9.7824   9.7981   9.8515   9.9059   9.9228   9.9336   9.9343
     9.9596   9.9671  10.0560  10.0746  10.1105  10.1475  10.1552  10.1594
    10.1757  10.1831  10.2551  10.2700  10.3077  10.3611  10.6617  10.6966
    10.7021  11.1541  11.2374  11.3803  11.6612  11.6779  11.8555  11.9117
    11.9185  12.4221  12.4617  12.5397  12.9802  13.0436  13.0566  13.5347
    13.5781  14.1636  14.2131  14.7851  14.7907  15.3496  15.4227  15.5010
    15.6078  15.6763  15.8529  15.9281  16.3319  16.4584  16.6654  17.0203
    17.0246  17.5759  18.1682  18.2840  18.3474  18.4089  18.5263  18.6713
    18.7379  18.9043  18.9399  19.1620  19.3111  19.3915  19.4852  19.6456
    20.0510  20.1095

          k = 0.0556 0.1667 0.1743 ( 52567 PWs)   bands (ev):

   -73.9738 -73.9566 -73.9521 -73.9480 -73.9453 -73.9440 -73.9431 -73.9423
   -73.9404 -73.9397 -73.9364 -73.9351 -73.9338 -73.9321 -73.9270 -73.9265
   -73.3824 -73.3824 -73.3712 -73.3711 -73.3684 -73.3684 -73.3675 -73.3674
   -73.3667 -73.3667 -73.3657 -73.3657 -73.3629 -73.3629 -73.3516 -73.3516
   -39.8072 -39.8063 -39.8050 -39.8037 -39.7925 -39.7923 -39.7871 -39.7591
   -39.7571 -39.7555 -39.7514 -39.7335 -39.7273 -39.7226 -39.7019 -39.6943
   -39.6930 -39.6882 -39.6746 -39.6673 -39.6630 -39.6570 -39.6543 -39.6505
   -39.6503 -39.6475 -39.6466 -39.6392 -39.6371 -39.6313 -39.6292 -39.6261
   -39.6155 -39.6060 -39.6002 -39.5932 -39.5911 -39.5907 -39.5868 -39.5863
   -39.5816 -39.5775 -39.5529 -39.5523 -39.5472 -39.5403 -39.5342 -39.5293
   -39.2557 -39.2548 -39.2524 -39.2507 -39.2439 -39.2437 -39.2393 -39.2392
   -39.1915 -39.1913 -39.1893 -39.1889 -39.1772 -39.1766 -39.1726 -39.1720
   -39.1447 -39.1442 -39.1400 -39.1395 -39.1274 -39.1273 -39.1251 -39.1249
   -39.0758 -39.0756 -39.0711 -39.0708 -39.0625 -39.0625 -39.0584 -39.0584
   -38.9852 -38.9822 -38.9735 -38.9730 -38.9713 -38.9708 -38.9703 -38.9697
   -38.9696 -38.9692 -38.9692 -38.9688 -38.9671 -38.9669 -38.9593 -38.9592
     3.9103   5.1833   5.4066   5.4122   5.4527   5.4567   5.4680   5.4855
     5.4907   5.5460   5.5721   5.6688   5.6707   5.7345   5.9163   5.9793
     6.0358   6.2177   6.2274   6.2417   6.2477   6.2554   6.2570   6.3472
     6.3513   6.3870   6.3925   6.3931   6.4133   6.4466   6.4544   6.4924
     6.4948   6.5283   6.5754   6.6444   6.7398   6.7492   6.7525   6.7559
     6.7811   6.7911   6.7985   6.9342   6.9706   6.9960   7.0371   7.0831
     7.0837   7.1232   7.1362   7.1897   7.1952   7.2294   7.2805   7.3143
     7.3265   7.3367   7.3624   7.3876   7.4310   7.4762   7.5220   7.5316
     7.5395   7.5444   7.7011   7.7056   7.7102   7.7140   7.7247   7.7270
     7.7411   7.7904   7.8257   7.8285   7.8404   7.9683   8.0485   8.0692
     8.0700   8.1061   8.1474   8.1548   8.1874   8.2465   8.2538   8.2778
     8.3477   8.3647   8.3821   8.4109   8.4398   8.4693   8.5178   8.5290
     8.5401   8.5659   8.5674   8.5900   8.5942   8.6278   8.6359   8.6512
     8.6533   8.6583   8.6779   8.7366   8.8053   8.8330   8.8459   8.8550
     8.9698   8.9870   8.9881   9.0521   9.0820   9.1081   9.1141   9.1716
     9.1912   9.2020   9.2348   9.2871   9.3113   9.3293   9.3478   9.3546
     9.3609   9.4189   9.4384   9.4838   9.5082   9.5089   9.5109   9.5588
     9.5592   9.5811   9.5875   9.6016   9.7207   9.7259   9.7381   9.7476
     9.7733   9.7802   9.7980   9.8506   9.9058   9.9228   9.9339   9.9361
     9.9597   9.9672  10.0561  10.0780  10.1103  10.1551  10.1564  10.1594
    10.1760  10.1830  10.2551  10.2702  10.3077  10.3500  10.6617  10.6921
    10.6966  11.1446  11.2363  11.3799  11.5468  11.6683  11.8553  11.9179
    11.9439  12.4542  12.4755  12.5468  13.0122  13.0404  13.2219  13.5270
    13.6102  14.0763  14.1653  14.6462  14.7922  15.2105  15.4382  15.5119
    15.5906  15.6410  15.7887  16.1411  16.3243  16.4772  16.7633  17.0180
    17.3324  17.8951  18.1186  18.1821  18.3220  18.3498  18.4113  18.5551
    18.7783  18.8614  18.9274  18.9428  19.2789  19.3309  19.4569  19.5078
    19.8508  19.8984

          k = 0.0556 0.1667 0.2440 ( 52582 PWs)   bands (ev):

   -73.9738 -73.9566 -73.9521 -73.9480 -73.9453 -73.9440 -73.9431 -73.9423
   -73.9404 -73.9397 -73.9364 -73.9351 -73.9338 -73.9321 -73.9270 -73.9265
   -73.3824 -73.3824 -73.3712 -73.3711 -73.3684 -73.3684 -73.3675 -73.3674
   -73.3667 -73.3667 -73.3657 -73.3657 -73.3629 -73.3629 -73.3516 -73.3516
   -39.8072 -39.8063 -39.8050 -39.8037 -39.7925 -39.7923 -39.7871 -39.7591
   -39.7571 -39.7555 -39.7514 -39.7335 -39.7273 -39.7226 -39.7019 -39.6943
   -39.6930 -39.6882 -39.6746 -39.6673 -39.6631 -39.6570 -39.6543 -39.6505
   -39.6502 -39.6475 -39.6466 -39.6392 -39.6371 -39.6313 -39.6292 -39.6261
   -39.6155 -39.6061 -39.6002 -39.5932 -39.5911 -39.5907 -39.5869 -39.5863
   -39.5816 -39.5775 -39.5529 -39.5523 -39.5472 -39.5403 -39.5342 -39.5293
   -39.2557 -39.2548 -39.2524 -39.2507 -39.2439 -39.2437 -39.2393 -39.2392
   -39.1915 -39.1913 -39.1893 -39.1889 -39.1772 -39.1767 -39.1726 -39.1720
   -39.1447 -39.1442 -39.1400 -39.1395 -39.1274 -39.1273 -39.1251 -39.1249
   -39.0758 -39.0756 -39.0711 -39.0708 -39.0625 -39.0625 -39.0584 -39.0584
   -38.9852 -38.9822 -38.9735 -38.9731 -38.9713 -38.9708 -38.9703 -38.9697
   -38.9696 -38.9693 -38.9692 -38.9688 -38.9671 -38.9669 -38.9593 -38.9592
     3.9105   5.1830   5.4066   5.4122   5.4527   5.4568   5.4680   5.4855
     5.4907   5.5460   5.5715   5.6688   5.6707   5.7345   5.9163   5.9793
     6.0362   6.2177   6.2274   6.2417   6.2476   6.2554   6.2570   6.3471
     6.3512   6.3870   6.3925   6.3931   6.4132   6.4465   6.4543   6.4923
     6.4947   6.5283   6.5753   6.6446   6.7398   6.7492   6.7525   6.7559
     6.7811   6.7911   6.7986   6.9342   6.9705   6.9960   7.0371   7.0833
     7.0836   7.1231   7.1361   7.1897   7.1951   7.2293   7.2805   7.3141
     7.3265   7.3367   7.3624   7.3876   7.4310   7.4762   7.5220   7.5316
     7.5394   7.5442   7.7007   7.7056   7.7102   7.7140   7.7247   7.7271
     7.7411   7.7900   7.8261   7.8287   7.8406   7.9687   8.0484   8.0698
     8.0704   8.1061   8.1477   8.1557   8.1873   8.2465   8.2540   8.2779
     8.3460   8.3647   8.3821   8.4128   8.4386   8.4699   8.5178   8.5293
     8.5391   8.5661   8.5680   8.5856   8.5942   8.6279   8.6349   8.6511
     8.6533   8.6585   8.6780   8.7365   8.8049   8.8339   8.8465   8.8562
     8.9693   8.9876   8.9884   9.0532   9.0821   9.1069   9.1153   9.1710
     9.1899   9.2016   9.2351   9.2864   9.3113   9.3294   9.3466   9.3542
     9.3603   9.4183   9.4549   9.4838   9.5089   9.5109   9.5125   9.5589
     9.5592   9.5785   9.5875   9.6055   9.7206   9.7257   9.7370   9.7475
     9.7771   9.7782   9.7978   9.8498   9.9058   9.9227   9.9341   9.9377
     9.9598   9.9672  10.0561  10.0810  10.1102  10.1551  10.1594  10.1650
    10.1763  10.1830  10.2551  10.2704  10.3077  10.3402  10.6617  10.6833
    10.6966  11.1362  11.2354  11.3795  11.4574  11.6600  11.8552  11.9174
    11.9733  12.4834  12.4879  12.5531  13.0375  13.0413  13.3614  13.5200
    13.6395  13.9716  14.1667  14.5401  14.7935  15.1044  15.4560  15.5300
    15.5710  15.6018  15.6827  16.3158  16.3177  16.4389  17.0122  17.0927
    17.6787  17.9422  18.1039  18.1223  18.2601  18.3509  18.4136  18.4416
    18.5813  18.6758  18.9204  18.9453  19.0193  19.4040  19.4205  19.5281
    19.8119  19.8431

          k = 0.0556 0.1667-0.3137 ( 52596 PWs)   bands (ev):

   -73.9738 -73.9566 -73.9521 -73.9480 -73.9453 -73.9440 -73.9431 -73.9423
   -73.9404 -73.9397 -73.9364 -73.9351 -73.9338 -73.9321 -73.9270 -73.9265
   -73.3824 -73.3824 -73.3712 -73.3711 -73.3684 -73.3684 -73.3675 -73.3674
   -73.3667 -73.3667 -73.3657 -73.3657 -73.3629 -73.3629 -73.3516 -73.3516
   -39.8071 -39.8063 -39.8050 -39.8037 -39.7926 -39.7924 -39.7870 -39.7591
   -39.7572 -39.7555 -39.7514 -39.7335 -39.7273 -39.7226 -39.7018 -39.6943
   -39.6930 -39.6882 -39.6746 -39.6673 -39.6631 -39.6570 -39.6543 -39.6506
   -39.6503 -39.6475 -39.6466 -39.6392 -39.6371 -39.6313 -39.6292 -39.6261
   -39.6155 -39.6060 -39.6002 -39.5932 -39.5912 -39.5907 -39.5869 -39.5863
   -39.5816 -39.5775 -39.5530 -39.5523 -39.5472 -39.5403 -39.5342 -39.5293
   -39.2556 -39.2548 -39.2525 -39.2507 -39.2439 -39.2438 -39.2393 -39.2392
   -39.1916 -39.1913 -39.1893 -39.1889 -39.1773 -39.1767 -39.1726 -39.1720
   -39.1448 -39.1442 -39.1400 -39.1396 -39.1274 -39.1273 -39.1251 -39.1249
   -39.0758 -39.0756 -39.0711 -39.0708 -39.0625 -39.0625 -39.0584 -39.0584
   -38.9851 -38.9822 -38.9734 -38.9731 -38.9713 -38.9708 -38.9704 -38.9697
   -38.9696 -38.9692 -38.9692 -38.9688 -38.9670 -38.9670 -38.9593 -38.9593
     3.9105   5.1828   5.4066   5.4122   5.4527   5.4568   5.4680   5.4855
     5.4907   5.5460   5.5712   5.6688   5.6707   5.7346   5.9164   5.9793
     6.0364   6.2177   6.2274   6.2417   6.2476   6.2554   6.2569   6.3471
     6.3512   6.3870   6.3925   6.3931   6.4131   6.4464   6.4543   6.4923
     6.4946   6.5283   6.5753   6.6446   6.7398   6.7492   6.7525   6.7559
     6.7811   6.7911   6.7986   6.9342   6.9704   6.9960   7.0371   7.0834
     7.0836   7.1230   7.1361   7.1897   7.1951   7.2294   7.2805   7.3140
     7.3266   7.3366   7.3624   7.3876   7.4310   7.4762   7.5220   7.5315
     7.5394   7.5441   7.7006   7.7056   7.7102   7.7140   7.7247   7.7271
     7.7411   7.7898   7.8262   7.8288   7.8407   7.9689   8.0484   8.0700
     8.0705   8.1061   8.1479   8.1561   8.1872   8.2464   8.2541   8.2780
     8.3453   8.3647   8.3821   8.4136   8.4382   8.4701   8.5179   8.5294
     8.5387   8.5661   8.5683   8.5839   8.5942   8.6279   8.6345   8.6511
     8.6533   8.6586   8.6780   8.7365   8.8047   8.8343   8.8467   8.8566
     8.9691   8.9878   8.9885   9.0537   9.0821   9.1065   9.1158   9.1707
     9.1894   9.2015   9.2353   9.2861   9.3113   9.3294   9.3462   9.3540
     9.3601   9.4181   9.4616   9.4839   9.5089   9.5110   9.5142   9.5589
     9.5592   9.5772   9.5875   9.6071   9.7206   9.7255   9.7366   9.7474
     9.7774   9.7786   9.7978   9.8495   9.9058   9.9227   9.9342   9.9383
     9.9599   9.9672  10.0562  10.0822  10.1101  10.1551  10.1593  10.1687
    10.1765  10.1829  10.2551  10.2705  10.3077  10.3364  10.6617  10.6799
    10.6966  11.1329  11.2351  11.3794  11.4240  11.6567  11.8552  11.9172
    11.9852  12.4928  12.4953  12.5556  13.0364  13.0532  13.4161  13.5171
    13.6514  13.9330  14.1673  14.5011  14.7940  15.0654  15.4652  15.5472
    15.5611  15.5763  15.6437  16.2524  16.3150  16.5889  17.0100  17.2735
    17.7644  17.8821  18.1025  18.1034  18.2305  18.3490  18.4143  18.4956
    18.5920  18.6381  18.6932  18.9463  19.0003  19.1369  19.5362  19.7792
    19.7822  20.1851

          k = 0.0556 0.2778 0.0349 ( 52590 PWs)   bands (ev):

   -73.9724 -73.9606 -73.9515 -73.9475 -73.9468 -73.9442 -73.9418 -73.9401
   -73.9388 -73.9386 -73.9377 -73.9355 -73.9344 -73.9308 -73.9284 -73.9270
   -73.3814 -73.3814 -73.3738 -73.3737 -73.3683 -73.3683 -73.3677 -73.3677
   -73.3665 -73.3665 -73.3658 -73.3658 -73.3603 -73.3603 -73.3525 -73.3525
   -39.8020 -39.8006 -39.7980 -39.7971 -39.7871 -39.7867 -39.7846 -39.7647
   -39.7630 -39.7627 -39.7552 -39.7517 -39.7416 -39.7415 -39.7060 -39.6991
   -39.6833 -39.6826 -39.6630 -39.6568 -39.6567 -39.6544 -39.6533 -39.6523
   -39.6508 -39.6467 -39.6460 -39.6427 -39.6391 -39.6369 -39.6333 -39.6269
   -39.6060 -39.6010 -39.5985 -39.5937 -39.5870 -39.5851 -39.5817 -39.5783
   -39.5755 -39.5727 -39.5621 -39.5595 -39.5516 -39.5424 -39.5421 -39.5336
   -39.2514 -39.2499 -39.2457 -39.2435 -39.2402 -39.2398 -39.2330 -39.2326
   -39.2075 -39.2067 -39.2029 -39.2023 -39.1942 -39.1930 -39.1874 -39.1866
   -39.1300 -39.1294 -39.1230 -39.1225 -39.1136 -39.1134 -39.1090 -39.1088
   -39.0826 -39.0825 -39.0750 -39.0748 -39.0698 -39.0698 -39.0632 -39.0632
   -38.9839 -38.9816 -38.9756 -38.9754 -38.9714 -38.9707 -38.9705 -38.9697
   -38.9696 -38.9694 -38.9690 -38.9687 -38.9652 -38.9651 -38.9599 -38.9598
     4.0474   5.1337   5.2904   5.4778   5.4946   5.4949   5.5255   5.5501
     5.5617   5.6244   5.6730   5.7169   5.7237   5.7244   5.8951   5.9355
     6.0532   6.0605   6.0834   6.0840   6.1162   6.1357   6.2062   6.2859
     6.2912   6.3422   6.4272   6.4387   6.4393   6.4511   6.4522   6.4581
     6.4612   6.5035   6.5269   6.5290   6.6863   6.7287   6.7359   6.7676
     6.7885   6.8162   6.8656   6.9668   6.9731   6.9859   6.9931   7.0172
     7.0428   7.0992   7.1227   7.1614   7.1705   7.3038   7.3097   7.3463
     7.3508   7.3537   7.4242   7.4295   7.4688   7.5191   7.5446   7.5526
     7.6050   7.6778   7.7044   7.7322   7.7430   7.7457   7.7496   7.7546
     7.7891   7.8259   7.8340   7.8767   7.8859   7.8901   7.9266   7.9860
     8.0089   8.0375   8.0444   8.1143   8.1913   8.1983   8.2038   8.2069
     8.2377   8.2515   8.2881   8.3506   8.3849   8.4411   8.4850   8.4902
     8.5681   8.5846   8.5985   8.6131   8.6460   8.6738   8.6859   8.7147
     8.7328   8.7363   8.7723   8.7801   8.8420   8.8653   8.9003   8.9836
     9.0524   9.0725   9.0811   9.0957   9.1033   9.1435   9.1781   9.2033
     9.2034   9.2441   9.2530   9.2689   9.3011   9.3058   9.3117   9.3481
     9.3551   9.4207   9.5115   9.5130   9.5162   9.5692   9.5757   9.6448
     9.6657   9.6726   9.6731   9.6819   9.6947   9.7159   9.7542   9.7637
     9.7657   9.7689   9.8385   9.8397   9.8482   9.8507   9.8917   9.9057
     9.9192   9.9420   9.9493  10.0300  10.0322  10.1097  10.1289  10.1556
    10.1696  10.1813  10.1851  10.1973  10.2637  10.4794  10.5571  10.6002
    10.7087  10.9607  10.9627  11.1930  11.4346  11.4894  11.6497  12.0389
    12.3230  12.4188  12.5018  12.8271  12.9842  13.2845  13.5168  13.7145
    13.8004  14.1369  14.2329  14.9434  15.1504  15.2038  15.4842  15.5532
    15.6026  15.7837  15.8378  15.8454  16.3680  16.6758  16.8937  16.9701
    17.3312  17.4551  17.5707  17.7046  18.0060  18.0147  18.0374  18.3130
    18.4914  18.5005  18.5072  18.8788  19.2929  19.4477  19.5612  19.5852
    19.7988  20.0714

          k = 0.0556 0.2778 0.1046 ( 52587 PWs)   bands (ev):

   -73.9724 -73.9606 -73.9515 -73.9475 -73.9468 -73.9442 -73.9418 -73.9401
   -73.9388 -73.9386 -73.9377 -73.9355 -73.9344 -73.9308 -73.9284 -73.9270
   -73.3814 -73.3814 -73.3738 -73.3737 -73.3683 -73.3683 -73.3677 -73.3677
   -73.3665 -73.3665 -73.3658 -73.3658 -73.3603 -73.3603 -73.3525 -73.3525
   -39.8020 -39.8006 -39.7980 -39.7971 -39.7872 -39.7867 -39.7845 -39.7647
   -39.7630 -39.7627 -39.7552 -39.7517 -39.7416 -39.7415 -39.7061 -39.6991
   -39.6833 -39.6826 -39.6631 -39.6568 -39.6567 -39.6544 -39.6533 -39.6523
   -39.6508 -39.6467 -39.6460 -39.6427 -39.6390 -39.6369 -39.6333 -39.6269
   -39.6060 -39.6011 -39.5984 -39.5937 -39.5870 -39.5850 -39.5817 -39.5783
   -39.5755 -39.5728 -39.5621 -39.5595 -39.5516 -39.5424 -39.5421 -39.5336
   -39.2513 -39.2499 -39.2457 -39.2435 -39.2402 -39.2398 -39.2330 -39.2326
   -39.2075 -39.2067 -39.2029 -39.2023 -39.1942 -39.1930 -39.1874 -39.1866
   -39.1300 -39.1293 -39.1230 -39.1226 -39.1136 -39.1134 -39.1090 -39.1087
   -39.0826 -39.0826 -39.0750 -39.0748 -39.0698 -39.0698 -39.0633 -39.0632
   -38.9839 -38.9816 -38.9756 -38.9753 -38.9713 -38.9707 -38.9705 -38.9697
   -38.9696 -38.9694 -38.9690 -38.9687 -38.9652 -38.9651 -38.9600 -38.9598
     4.0475   5.1338   5.2901   5.4778   5.4946   5.4949   5.5255   5.5501
     5.5617   5.6244   5.6725   5.7170   5.7237   5.7244   5.8951   5.9356
     6.0531   6.0604   6.0833   6.0840   6.1162   6.1360   6.2062   6.2859
     6.2912   6.3420   6.4272   6.4387   6.4393   6.4511   6.4521   6.4581
     6.4612   6.5035   6.5271   6.5289   6.6863   6.7287   6.7359   6.7676
     6.7885   6.8162   6.8656   6.9668   6.9731   6.9860   6.9930   7.0171
     7.0428   7.0993   7.1226   7.1614   7.1705   7.3039   7.3096   7.3463
     7.3511   7.3538   7.4242   7.4295   7.4690   7.5191   7.5446   7.5526
     7.6048   7.6778   7.7044   7.7322   7.7432   7.7456   7.7496   7.7545
     7.7893   7.8259   7.8340   7.8770   7.8859   7.8900   7.9266   7.9861
     8.0091   8.0376   8.0449   8.1141   8.1915   8.1986   8.2055   8.2069
     8.2376   8.2516   8.2881   8.3491   8.3854   8.4416   8.4852   8.4894
     8.5681   8.5846   8.5979   8.6111   8.6457   8.6739   8.6859   8.7145
     8.7322   8.7363   8.7728   8.7795   8.8427   8.8654   8.9003   8.9837
     9.0525   9.0741   9.0812   9.0953   9.1026   9.1407   9.1774   9.2026
     9.2053   9.2439   9.2529   9.2686   9.3011   9.3054   9.3116   9.3470
     9.3550   9.4236   9.5134   9.5140   9.5163   9.5674   9.5778   9.6446
     9.6659   9.6726   9.6745   9.6819   9.6945   9.7159   9.7499   9.7662
     9.7691   9.7724   9.8383   9.8385   9.8493   9.8509   9.8917   9.9060
     9.9193   9.9413   9.9494  10.0295  10.0322  10.1022  10.1289  10.1662
    10.1696  10.1814  10.1851  10.1973  10.2645  10.4794  10.5571  10.6021
    10.7027  10.9590  10.9626  11.1872  11.4547  11.4892  11.6481  11.9532
    12.3168  12.4388  12.5147  12.8361  13.0039  13.4062  13.5180  13.6983
    13.7104  14.1245  14.2532  14.8384  15.2049  15.3234  15.3814  15.5476
    15.6088  15.7150  15.8132  15.8910  16.5564  16.5693  16.8284  17.0730
    17.3267  17.4601  17.5902  17.7058  18.0067  18.1112  18.2098  18.2139
    18.2362  18.5602  18.7318  18.8675  19.1809  19.4404  19.4670  19.5133
    19.7809  19.7855

          k = 0.0556 0.2778 0.1743 ( 52596 PWs)   bands (ev):

   -73.9724 -73.9606 -73.9515 -73.9475 -73.9468 -73.9442 -73.9418 -73.9401
   -73.9388 -73.9386 -73.9377 -73.9355 -73.9344 -73.9308 -73.9284 -73.9270
   -73.3814 -73.3814 -73.3738 -73.3737 -73.3683 -73.3683 -73.3677 -73.3677
   -73.3665 -73.3665 -73.3658 -73.3658 -73.3603 -73.3603 -73.3525 -73.3525
   -39.8020 -39.8006 -39.7980 -39.7971 -39.7872 -39.7867 -39.7845 -39.7647
   -39.7630 -39.7627 -39.7553 -39.7517 -39.7416 -39.7415 -39.7061 -39.6991
   -39.6833 -39.6826 -39.6631 -39.6568 -39.6567 -39.6544 -39.6533 -39.6523
   -39.6508 -39.6467 -39.6460 -39.6427 -39.6390 -39.6369 -39.6333 -39.6269
   -39.6060 -39.6011 -39.5984 -39.5937 -39.5870 -39.5850 -39.5817 -39.5783
   -39.5755 -39.5728 -39.5621 -39.5595 -39.5516 -39.5424 -39.5421 -39.5336
   -39.2514 -39.2500 -39.2457 -39.2435 -39.2402 -39.2398 -39.2330 -39.2326
   -39.2075 -39.2067 -39.2030 -39.2023 -39.1942 -39.1931 -39.1874 -39.1866
   -39.1300 -39.1293 -39.1230 -39.1226 -39.1136 -39.1134 -39.1090 -39.1087
   -39.0826 -39.0826 -39.0750 -39.0748 -39.0698 -39.0698 -39.0633 -39.0632
   -38.9839 -38.9816 -38.9755 -38.9753 -38.9713 -38.9707 -38.9706 -38.9697
   -38.9696 -38.9693 -38.9690 -38.9687 -38.9652 -38.9652 -38.9600 -38.9598
     4.0477   5.1339   5.2897   5.4778   5.4946   5.4949   5.5255   5.5501
     5.5617   5.6244   5.6718   5.7170   5.7237   5.7244   5.8951   5.9356
     6.0531   6.0603   6.0833   6.0840   6.1162   6.1364   6.2062   6.2859
     6.2911   6.3417   6.4272   6.4387   6.4393   6.4510   6.4520   6.4581
     6.4613   6.5034   6.5273   6.5288   6.6864   6.7286   6.7358   6.7676
     6.7885   6.8161   6.8656   6.9668   6.9731   6.9862   6.9930   7.0170
     7.0428   7.0993   7.1224   7.1614   7.1704   7.3039   7.3096   7.3463
     7.3516   7.3539   7.4242   7.4294   7.4692   7.5191   7.5445   7.5526
     7.6047   7.6777   7.7045   7.7322   7.7435   7.7454   7.7496   7.7544
     7.7895   7.8259   7.8339   7.8774   7.8859   7.8899   7.9266   7.9864
     8.0095   8.0379   8.0457   8.1139   8.1917   8.1990   8.2069   8.2081
     8.2376   8.2518   8.2881   8.3467   8.3862   8.4422   8.4854   8.4880
     8.5681   8.5846   8.5970   8.6081   8.6452   8.6741   8.6860   8.7141
     8.7314   8.7364   8.7735   8.7785   8.8437   8.8656   8.9004   8.9839
     9.0527   9.0768   9.0814   9.0948   9.1015   9.1363   9.1763   9.2016
     9.2084   9.2435   9.2528   9.2681   9.3012   9.3049   9.3116   9.3454
     9.3549   9.4280   9.5154   9.5163   9.5165   9.5646   9.5811   9.6443
     9.6662   9.6725   9.6768   9.6819   9.6943   9.7158   9.7472   9.7669
     9.7694   9.7815   9.8363   9.8384   9.8509   9.8511   9.8917   9.9064
     9.9195   9.9402   9.9496  10.0289  10.0323  10.0907  10.1289  10.1697
    10.1815  10.1831  10.1851  10.1973  10.2662  10.4794  10.5572  10.6050
    10.6937  10.9565  10.9623  11.1785  11.4865  11.4889  11.6456  11.8392
    12.3075  12.4703  12.5349  12.8502  13.0351  13.5199  13.5660  13.5812
    13.7040  14.1049  14.2852  14.7025  15.2064  15.2479  15.5390  15.5892
    15.6225  15.6531  15.7716  15.9192  16.4332  16.6211  16.8561  17.3197
    17.3360  17.4870  17.6212  17.7079  17.8693  18.0062  18.1643  18.2196
    18.5240  18.7080  18.8486  18.8920  18.9859  19.3604  19.4306  19.4306
    19.6445  19.7062

          k = 0.0556 0.2778 0.2440 ( 52596 PWs)   bands (ev):

   -73.9724 -73.9606 -73.9515 -73.9475 -73.9468 -73.9442 -73.9418 -73.9401
   -73.9388 -73.9386 -73.9377 -73.9355 -73.9344 -73.9308 -73.9284 -73.9270
   -73.3814 -73.3814 -73.3738 -73.3737 -73.3683 -73.3683 -73.3677 -73.3677
   -73.3665 -73.3665 -73.3658 -73.3658 -73.3603 -73.3603 -73.3525 -73.3525
   -39.8020 -39.8007 -39.7980 -39.7971 -39.7872 -39.7866 -39.7844 -39.7647
   -39.7630 -39.7627 -39.7552 -39.7517 -39.7416 -39.7415 -39.7060 -39.6991
   -39.6833 -39.6826 -39.6631 -39.6568 -39.6568 -39.6544 -39.6533 -39.6523
   -39.6508 -39.6467 -39.6461 -39.6427 -39.6391 -39.6368 -39.6333 -39.6269
   -39.6060 -39.6011 -39.5984 -39.5937 -39.5870 -39.5850 -39.5817 -39.5783
   -39.5754 -39.5727 -39.5622 -39.5595 -39.5516 -39.5424 -39.5421 -39.5336
   -39.2514 -39.2500 -39.2457 -39.2435 -39.2402 -39.2398 -39.2329 -39.2326
   -39.2075 -39.2067 -39.2030 -39.2023 -39.1942 -39.1931 -39.1874 -39.1866
   -39.1300 -39.1293 -39.1230 -39.1226 -39.1136 -39.1134 -39.1090 -39.1087
   -39.0826 -39.0825 -39.0750 -39.0748 -39.0699 -39.0698 -39.0633 -39.0632
   -38.9839 -38.9815 -38.9755 -38.9754 -38.9713 -38.9707 -38.9706 -38.9698
   -38.9696 -38.9693 -38.9690 -38.9688 -38.9652 -38.9651 -38.9600 -38.9599
     4.0479   5.1340   5.2894   5.4778   5.4946   5.4949   5.5255   5.5501
     5.5617   5.6243   5.6712   5.7170   5.7237   5.7244   5.8951   5.9356
     6.0530   6.0601   6.0833   6.0840   6.1162   6.1368   6.2062   6.2859
     6.2911   6.3414   6.4272   6.4387   6.4393   6.4510   6.4518   6.4581
     6.4614   6.5033   6.5274   6.5286   6.6864   6.7286   6.7357   6.7676
     6.7884   6.8161   6.8656   6.9668   6.9731   6.9863   6.9929   7.0168
     7.0428   7.0994   7.1223   7.1614   7.1704   7.3039   7.3095   7.3463
     7.3520   7.3541   7.4242   7.4294   7.4694   7.5191   7.5445   7.5526
     7.6045   7.6777   7.7045   7.7322   7.7438   7.7453   7.7496   7.7544
     7.7897   7.8259   7.8338   7.8778   7.8859   7.8897   7.9266   7.9865
     8.0098   8.0381   8.0464   8.1137   8.1919   8.1994   8.2069   8.2104
     8.2375   8.2519   8.2881   8.3446   8.3869   8.4428   8.4856   8.4868
     8.5681   8.5847   8.5962   8.6054   8.6447   8.6743   8.6860   8.7138
     8.7307   8.7365   8.7741   8.7777   8.8445   8.8657   8.9004   8.9842
     9.0528   9.0794   9.0815   9.0943   9.1005   9.1321   9.1753   9.2008
     9.2110   9.2432   9.2527   9.2676   9.3013   9.3044   9.3116   9.3441
     9.3547   9.4320   9.5163   9.5165   9.5194   9.5620   9.5841   9.6440
     9.6665   9.6724   9.6787   9.6819   9.6941   9.7157   9.7458   9.7676
     9.7696   9.7883   9.8344   9.8384   9.8514   9.8524   9.8917   9.9067
     9.9196   9.9392   9.9498  10.0284  10.0323  10.0807  10.1289  10.1697
    10.1816  10.1851  10.1973  10.1984  10.2686  10.4794  10.5572  10.6076
    10.6858  10.9543  10.9620  11.1709  11.4886  11.5156  11.6436  11.7499
    12.2994  12.4990  12.5530  12.8627  13.0635  13.4643  13.5216  13.6981
    13.7317  14.0870  14.3144  14.5980  15.1452  15.2078  15.5316  15.6106
    15.6458  15.7242  15.8522  15.9336  16.3294  16.4424  17.1795  17.3136
    17.4357  17.5374  17.6497  17.6896  17.7098  17.9984  18.1498  18.3089
    18.5354  18.8232  18.8845  18.9268  19.0781  19.2462  19.3573  19.4301
    19.5059  19.5492

          k = 0.0556 0.2778-0.3137 ( 52596 PWs)   bands (ev):

   -73.9724 -73.9606 -73.9515 -73.9475 -73.9468 -73.9442 -73.9418 -73.9401
   -73.9388 -73.9386 -73.9377 -73.9355 -73.9344 -73.9308 -73.9284 -73.9270
   -73.3814 -73.3814 -73.3738 -73.3737 -73.3683 -73.3683 -73.3677 -73.3677
   -73.3665 -73.3665 -73.3658 -73.3658 -73.3603 -73.3603 -73.3525 -73.3525
   -39.8020 -39.8006 -39.7980 -39.7971 -39.7872 -39.7867 -39.7844 -39.7647
   -39.7630 -39.7627 -39.7552 -39.7517 -39.7416 -39.7415 -39.7060 -39.6991
   -39.6833 -39.6826 -39.6631 -39.6568 -39.6568 -39.6544 -39.6533 -39.6523
   -39.6508 -39.6467 -39.6461 -39.6427 -39.6391 -39.6368 -39.6334 -39.6269
   -39.6060 -39.6011 -39.5984 -39.5937 -39.5870 -39.5850 -39.5817 -39.5783
   -39.5755 -39.5728 -39.5622 -39.5594 -39.5517 -39.5424 -39.5421 -39.5336
   -39.2514 -39.2500 -39.2457 -39.2435 -39.2402 -39.2399 -39.2329 -39.2326
   -39.2075 -39.2067 -39.2030 -39.2023 -39.1942 -39.1931 -39.1874 -39.1866
   -39.1300 -39.1293 -39.1230 -39.1226 -39.1136 -39.1134 -39.1090 -39.1087
   -39.0826 -39.0825 -39.0750 -39.0748 -39.0699 -39.0698 -39.0633 -39.0632
   -38.9838 -38.9815 -38.9755 -38.9754 -38.9713 -38.9707 -38.9706 -38.9697
   -38.9696 -38.9693 -38.9690 -38.9688 -38.9652 -38.9651 -38.9600 -38.9599
     4.0480   5.1341   5.2893   5.4778   5.4946   5.4949   5.5255   5.5501
     5.5618   5.6243   5.6710   5.7170   5.7238   5.7244   5.8951   5.9356
     6.0530   6.0601   6.0833   6.0840   6.1162   6.1369   6.2062   6.2859
     6.2910   6.3413   6.4272   6.4387   6.4393   6.4510   6.4518   6.4581
     6.4615   6.5033   6.5275   6.5286   6.6865   6.7286   6.7356   6.7676
     6.7884   6.8161   6.8656   6.9668   6.9731   6.9864   6.9929   7.0168
     7.0428   7.0994   7.1222   7.1614   7.1704   7.3039   7.3095   7.3463
     7.3522   7.3541   7.4242   7.4294   7.4695   7.5191   7.5445   7.5526
     7.6044   7.6777   7.7045   7.7322   7.7439   7.7452   7.7496   7.7543
     7.7898   7.8259   7.8338   7.8780   7.8858   7.8897   7.9266   7.9866
     8.0099   8.0382   8.0467   8.1137   8.1920   8.1996   8.2069   8.2113
     8.2375   8.2519   8.2881   8.3438   8.3871   8.4431   8.4856   8.4863
     8.5681   8.5847   8.5959   8.6044   8.6446   8.6744   8.6860   8.7137
     8.7305   8.7366   8.7743   8.7774   8.8448   8.8657   8.9004   8.9843
     9.0528   9.0806   9.0815   9.0941   9.1001   9.1304   9.1749   9.2005
     9.2121   9.2431   9.2527   9.2675   9.3013   9.3042   9.3116   9.3435
     9.3547   9.4335   9.5163   9.5169   9.5206   9.5609   9.5853   9.6439
     9.6666   9.6724   9.6794   9.6819   9.6940   9.7156   9.7453   9.7678
     9.7698   9.7908   9.8337   9.8384   9.8515   9.8530   9.8917   9.9068
     9.9197   9.9387   9.9498  10.0283  10.0323  10.0768  10.1289  10.1697
    10.1817  10.1851  10.1973  10.2045  10.2699  10.4794  10.5572  10.6087
    10.6827  10.9535  10.9619  11.1679  11.4885  11.5274  11.6427  11.7166
    12.2962  12.5107  12.5603  12.8677  13.0751  13.4267  13.5222  13.6957
    13.7917  14.0797  14.3263  14.5595  15.1073  15.2083  15.5287  15.5956
    15.6758  15.6849  15.9379  15.9753  16.2911  16.3715  17.3112  17.3564
    17.3904  17.4429  17.6612  17.7106  17.8357  17.9827  18.1485  18.3429
    18.3551  18.7982  19.0616  19.0778  19.0850  19.1125  19.3287  19.4484
    19.4670  19.6743

          k = 0.0556 0.3889 0.0349 ( 52607 PWs)   bands (ev):

   -73.9702 -73.9642 -73.9507 -73.9483 -73.9469 -73.9453 -73.9411 -73.9390
   -73.9376 -73.9374 -73.9364 -73.9361 -73.9352 -73.9305 -73.9296 -73.9277
   -73.3801 -73.3800 -73.3762 -73.3761 -73.3682 -73.3682 -73.3679 -73.3679
   -73.3663 -73.3663 -73.3659 -73.3659 -73.3579 -73.3579 -73.3539 -73.3539
   -39.7936 -39.7926 -39.7888 -39.7878 -39.7808 -39.7799 -39.7784 -39.7727
   -39.7706 -39.7705 -39.7681 -39.7624 -39.7592 -39.7553 -39.7074 -39.7035
   -39.6761 -39.6717 -39.6649 -39.6597 -39.6562 -39.6549 -39.6549 -39.6540
   -39.6520 -39.6484 -39.6425 -39.6381 -39.6329 -39.6315 -39.6294 -39.6244
   -39.6145 -39.6099 -39.5856 -39.5818 -39.5809 -39.5802 -39.5800 -39.5752
   -39.5721 -39.5678 -39.5662 -39.5603 -39.5591 -39.5529 -39.5476 -39.5404
   -39.2442 -39.2425 -39.2363 -39.2341 -39.2338 -39.2335 -39.2243 -39.2237
   -39.2219 -39.2206 -39.2152 -39.2144 -39.2101 -39.2083 -39.2012 -39.2003
   -39.1160 -39.1154 -39.1070 -39.1067 -39.1011 -39.1009 -39.0943 -39.0941
   -39.0918 -39.0916 -39.0814 -39.0813 -39.0799 -39.0799 -39.0710 -39.0710
   -38.9821 -38.9805 -38.9777 -38.9775 -38.9713 -38.9710 -38.9703 -38.9698
   -38.9696 -38.9695 -38.9688 -38.9686 -38.9635 -38.9634 -38.9609 -38.9607
     4.2483   4.8068   5.4424   5.5568   5.5786   5.6123   5.6143   5.6374
     5.6601   5.6885   5.7421   5.7878   5.8041   5.8135   5.8287   5.8322
     5.8423   5.8804   5.9205   5.9262   5.9898   6.0458   6.0890   6.1624
     6.2699   6.3958   6.4440   6.4459   6.4623   6.4684   6.4797   6.4945
     6.5398   6.5516   6.5612   6.5623   6.5733   6.6844   6.7381   6.7464
     6.7684   6.8038   6.8413   6.8511   6.8783   6.9009   6.9355   6.9480
     6.9557   6.9977   7.1709   7.2260   7.3011   7.3303   7.3495   7.3698
     7.3904   7.4313   7.5141   7.5151   7.5153   7.5389   7.5621   7.5685
     7.6566   7.6701   7.7379   7.7396   7.7401   7.7733   7.7775   7.7788
     7.7829   7.7943   7.8011   7.8457   7.8533   7.9352   7.9452   7.9597
     7.9729   7.9941   8.0283   8.0364   8.0438   8.1109   8.1119   8.1523
     8.1909   8.1983   8.4127   8.4275   8.4373   8.4679   8.5109   8.5331
     8.5560   8.6042   8.6193   8.6569   8.6953   8.6988   8.6998   8.7090
     8.7111   8.7199   8.7897   8.7953   8.9216   8.9285   8.9403   8.9803
     9.0036   9.0356   9.1035   9.1282   9.1329   9.1655   9.1656   9.1919
     9.2306   9.2469   9.2515   9.3124   9.3566   9.4134   9.4227   9.4520
     9.4825   9.5069   9.5285   9.5421   9.5543   9.5591   9.5876   9.5957
     9.6550   9.6609   9.6845   9.6956   9.6969   9.7342   9.7562   9.7683
     9.7742   9.7746   9.7915   9.8140   9.8344   9.8384   9.8540   9.8675
     9.9076   9.9269   9.9334   9.9535   9.9539   9.9737  10.0298  10.1139
    10.2060  10.2126  10.2372  10.2715  10.3503  10.3614  10.4029  10.5852
    10.7160  10.8101  11.0197  11.0800  11.2500  11.2509  11.4756  12.4130
    12.4436  12.4989  12.7611  12.9795  13.0109  13.0512  13.3062  13.7060
    14.4270  14.6506  14.6681  14.6982  14.9749  14.9871  15.4347  15.7390
    15.9689  15.9795  16.0398  16.2282  16.4751  16.6492  16.6510  16.8805
    17.0089  17.1343  17.2333  17.3616  17.7522  17.8533  18.0062  18.1417
    18.1980  18.5569  18.5573  18.6550  18.8432  18.8773  18.8835  19.6749
    20.0444  20.1675

          k = 0.0556 0.3889 0.1046 ( 52613 PWs)   bands (ev):

   -73.9702 -73.9642 -73.9507 -73.9483 -73.9469 -73.9453 -73.9411 -73.9390
   -73.9376 -73.9374 -73.9364 -73.9361 -73.9352 -73.9305 -73.9296 -73.9277
   -73.3801 -73.3800 -73.3762 -73.3761 -73.3682 -73.3682 -73.3679 -73.3679
   -73.3663 -73.3663 -73.3659 -73.3659 -73.3579 -73.3579 -73.3539 -73.3539
   -39.7937 -39.7926 -39.7888 -39.7878 -39.7807 -39.7799 -39.7784 -39.7727
   -39.7705 -39.7705 -39.7681 -39.7624 -39.7592 -39.7553 -39.7074 -39.7034
   -39.6762 -39.6717 -39.6649 -39.6597 -39.6563 -39.6549 -39.6549 -39.6540
   -39.6520 -39.6484 -39.6425 -39.6381 -39.6329 -39.6316 -39.6294 -39.6244
   -39.6145 -39.6099 -39.5856 -39.5818 -39.5809 -39.5802 -39.5801 -39.5752
   -39.5721 -39.5678 -39.5663 -39.5603 -39.5591 -39.5529 -39.5476 -39.5404
   -39.2442 -39.2425 -39.2362 -39.2341 -39.2338 -39.2335 -39.2243 -39.2237
   -39.2219 -39.2206 -39.2152 -39.2144 -39.2101 -39.2083 -39.2012 -39.2003
   -39.1160 -39.1154 -39.1070 -39.1067 -39.1011 -39.1009 -39.0943 -39.0941
   -39.0918 -39.0916 -39.0814 -39.0813 -39.0799 -39.0799 -39.0710 -39.0709
   -38.9821 -38.9805 -38.9777 -38.9775 -38.9713 -38.9710 -38.9703 -38.9699
   -38.9696 -38.9695 -38.9688 -38.9687 -38.9635 -38.9634 -38.9609 -38.9607
     4.2484   4.8069   5.4422   5.5568   5.5786   5.6123   5.6143   5.6374
     5.6601   5.6885   5.7421   5.7878   5.8041   5.8131   5.8287   5.8322
     5.8422   5.8804   5.9204   5.9262   5.9898   6.0458   6.0890   6.1620
     6.2701   6.3959   6.4441   6.4460   6.4624   6.4684   6.4797   6.4944
     6.5398   6.5517   6.5612   6.5623   6.5732   6.6843   6.7379   6.7464
     6.7685   6.8038   6.8413   6.8511   6.8783   6.9008   6.9355   6.9479
     6.9557   6.9977   7.1710   7.2260   7.3011   7.3303   7.3495   7.3700
     7.3905   7.4313   7.5144   7.5151   7.5153   7.5389   7.5621   7.5692
     7.6566   7.6701   7.7382   7.7397   7.7401   7.7733   7.7774   7.7788
     7.7829   7.7947   7.8012   7.8457   7.8534   7.9352   7.9455   7.9598
     7.9730   7.9955   8.0285   8.0365   8.0437   8.1109   8.1121   8.1523
     8.1909   8.1983   8.4128   8.4262   8.4376   8.4682   8.5110   8.5331
     8.5553   8.6038   8.6193   8.6568   8.6953   8.6974   8.6998   8.7089
     8.7100   8.7193   8.7899   8.7955   8.9211   8.9276   8.9360   8.9793
     9.0048   9.0358   9.1034   9.1282   9.1329   9.1654   9.1654   9.1919
     9.2304   9.2470   9.2513   9.3179   9.3562   9.4149   9.4228   9.4518
     9.4817   9.5069   9.5282   9.5421   9.5525   9.5617   9.5875   9.5956
     9.6570   9.6652   9.6856   9.6965   9.6969   9.7344   9.7561   9.7647
     9.7740   9.7748   9.7915   9.8140   9.8342   9.8385   9.8540   9.8667
     9.9068   9.9196   9.9336   9.9528   9.9541   9.9739  10.0298  10.1139
    10.2060  10.2126  10.2380  10.2715  10.3616  10.3664  10.4030  10.5851
    10.7110  10.8074  11.0395  11.0799  11.2460  11.2517  11.4728  12.3254
    12.4629  12.5149  12.7625  12.9931  13.0296  13.0452  13.2094  13.8372
    14.4166  14.6322  14.6923  14.8094  14.8905  14.9951  15.3521  15.7401
    15.9014  15.9076  16.0807  16.3095  16.6196  16.6414  16.6710  17.0087
    17.0339  17.0717  17.1389  17.2610  17.7471  17.7834  17.9548  18.2191
    18.2361  18.5468  18.6286  18.7558  18.7604  18.9099  18.9544  19.7029
    19.8027  20.0077

          k = 0.0556 0.3889 0.1743 ( 52627 PWs)   bands (ev):

   -73.9702 -73.9642 -73.9507 -73.9483 -73.9469 -73.9453 -73.9411 -73.9390
   -73.9376 -73.9374 -73.9364 -73.9361 -73.9352 -73.9305 -73.9296 -73.9277
   -73.3801 -73.3800 -73.3762 -73.3761 -73.3682 -73.3682 -73.3679 -73.3679
   -73.3663 -73.3663 -73.3659 -73.3659 -73.3579 -73.3579 -73.3539 -73.3539
   -39.7936 -39.7926 -39.7888 -39.7878 -39.7807 -39.7798 -39.7784 -39.7727
   -39.7705 -39.7705 -39.7681 -39.7624 -39.7592 -39.7553 -39.7074 -39.7034
   -39.6762 -39.6717 -39.6649 -39.6597 -39.6562 -39.6549 -39.6549 -39.6540
   -39.6521 -39.6484 -39.6425 -39.6381 -39.6330 -39.6316 -39.6294 -39.6244
   -39.6145 -39.6100 -39.5856 -39.5818 -39.5809 -39.5802 -39.5801 -39.5752
   -39.5721 -39.5679 -39.5663 -39.5603 -39.5591 -39.5530 -39.5477 -39.5404
   -39.2441 -39.2425 -39.2362 -39.2341 -39.2339 -39.2335 -39.2243 -39.2237
   -39.2219 -39.2207 -39.2152 -39.2144 -39.2101 -39.2084 -39.2012 -39.2003
   -39.1160 -39.1153 -39.1070 -39.1067 -39.1011 -39.1009 -39.0943 -39.0941
   -39.0918 -39.0916 -39.0814 -39.0813 -39.0799 -39.0799 -39.0710 -39.0710
   -38.9821 -38.9805 -38.9777 -38.9774 -38.9713 -38.9710 -38.9704 -38.9699
   -38.9696 -38.9694 -38.9688 -38.9687 -38.9636 -38.9634 -38.9609 -38.9607
     4.2486   4.8071   5.4418   5.5568   5.5786   5.6123   5.6143   5.6374
     5.6601   5.6885   5.7421   5.7878   5.8041   5.8124   5.8288   5.8322
     5.8420   5.8803   5.9204   5.9262   5.9898   6.0458   6.0890   6.1615
     6.2704   6.3960   6.4442   6.4460   6.4626   6.4682   6.4797   6.4944
     6.5398   6.5518   6.5612   6.5623   6.5730   6.6842   6.7378   6.7464
     6.7687   6.8037   6.8412   6.8510   6.8783   6.9006   6.9355   6.9478
     6.9557   6.9977   7.1711   7.2260   7.3012   7.3302   7.3495   7.3701
     7.3905   7.4313   7.5147   7.5151   7.5153   7.5390   7.5622   7.5703
     7.6565   7.6700   7.7387   7.7397   7.7401   7.7733   7.7773   7.7787
     7.7829   7.7954   7.8013   7.8457   7.8535   7.9352   7.9459   7.9599
     7.9731   7.9979   8.0287   8.0367   8.0436   8.1109   8.1124   8.1523
     8.1909   8.1984   8.4129   8.4243   8.4380   8.4685   8.5113   8.5331
     8.5542   8.6033   8.6193   8.6567   8.6952   8.6954   8.6998   8.7084
     8.7089   8.7184   8.7901   8.7958   8.9203   8.9262   8.9298   8.9777
[...]
     8.6303   8.6303   8.6303   8.6303   8.6303   8.6303   8.6303   8.6304
     8.6657   8.6657   8.6657   8.6657   8.6657   8.6657   8.6657   8.6657
     8.6794   8.6794   8.6794   8.6794   8.9017   8.9017   8.9017   8.9017
     9.2477   9.2477   9.2477   9.2477   9.2477   9.2477   9.2477   9.2477
     9.2528   9.2528   9.2528   9.2528   9.3869   9.3869   9.3869   9.3869
     9.5074   9.5074   9.5074   9.5074   9.7172   9.7172   9.7172   9.7172
     9.8464   9.8464   9.8464   9.8464   9.8464   9.8464   9.8464   9.8464
    10.1406  10.1406  10.1406  10.1406  10.1909  10.1910  10.1910  10.1910
    10.1910  10.1910  10.1910  10.1910  10.2087  10.2087  10.2087  10.2087
    10.9611  10.9611  10.9611  10.9611  13.4427  13.4427  13.4427  13.4427
    13.4427  13.4427  13.4428  13.4428  13.4650  13.4650  13.4650  13.4650
    14.5758  14.5758  14.5758  14.5758  14.5759  14.5759  14.5759  14.5759
    15.2566  15.2566  15.2566  15.2566  16.5665  16.5665  16.5665  16.5665
    16.5665  16.5665  16.5665  16.5665  18.1356  18.1356  18.1356  18.1356
    18.7962  18.7963  18.7963  18.7963  19.1264  19.1264  19.1264  19.1264
    19.1264  19.1264

          k =-0.5000-0.5000 0.1743 ( 52616 PWs)   bands (ev):

   -73.9719 -73.9719 -73.9719 -73.9719 -73.9492 -73.9492 -73.9492 -73.9492
   -73.9443 -73.9443 -73.9442 -73.9442 -73.9442 -73.9442 -73.9442 -73.9442
   -73.3869 -73.3869 -73.3869 -73.3869 -73.3868 -73.3868 -73.3868 -73.3868
   -73.3709 -73.3709 -73.3709 -73.3709 -73.3709 -73.3709 -73.3709 -73.3708
   -39.7975 -39.7975 -39.7975 -39.7975 -39.7975 -39.7974 -39.7974 -39.7974
   -39.7864 -39.7864 -39.7864 -39.7864 -39.7341 -39.7341 -39.7341 -39.7341
   -39.6744 -39.6744 -39.6744 -39.6744 -39.6744 -39.6744 -39.6744 -39.6743
   -39.6325 -39.6325 -39.6325 -39.6325 -39.6309 -39.6309 -39.6309 -39.6308
   -39.6308 -39.6308 -39.6308 -39.6308 -39.6110 -39.6110 -39.6110 -39.6110
   -39.5882 -39.5882 -39.5882 -39.5882 -39.5385 -39.5385 -39.5385 -39.5385
   -39.2611 -39.2611 -39.2611 -39.2611 -39.2611 -39.2611 -39.2611 -39.2611
   -39.1781 -39.1781 -39.1781 -39.1781 -39.1754 -39.1754 -39.1754 -39.1754
   -39.1636 -39.1636 -39.1636 -39.1636 -39.1636 -39.1636 -39.1636 -39.1636
   -39.0752 -39.0752 -39.0752 -39.0752 -39.0750 -39.0750 -39.0750 -39.0750
   -38.9885 -38.9885 -38.9885 -38.9885 -38.9878 -38.9878 -38.9878 -38.9877
   -38.9766 -38.9766 -38.9766 -38.9766 -38.9766 -38.9765 -38.9765 -38.9765
     4.9332   4.9332   4.9332   4.9333   5.5591   5.5591   5.5591   5.5591
     5.8857   5.8857   5.8857   5.8858   5.8858   5.8858   5.8858   5.8858
     5.9928   5.9928   5.9928   5.9928   6.0573   6.0574   6.0574   6.0574
     6.0574   6.0574   6.0574   6.0574   6.1405   6.1405   6.1405   6.1405
     6.4364   6.4364   6.4364   6.4364   6.7475   6.7475   6.7475   6.7475
     6.7475   6.7475   6.7475   6.7475   7.0556   7.0557   7.0557   7.0557
     7.0557   7.0557   7.0557   7.0558   7.2267   7.2268   7.2268   7.2268
     7.4613   7.4613   7.4613   7.4613   7.7161   7.7161   7.7161   7.7161
     7.8356   7.8356   7.8356   7.8356   7.8369   7.8369   7.8369   7.8369
     7.9190   7.9190   7.9190   7.9190   8.0348   8.0348   8.0348   8.0348
     8.0348   8.0348   8.0348   8.0348   8.0635   8.0635   8.0635   8.0636
     8.3754   8.3754   8.3754   8.3754   8.5056   8.5056   8.5056   8.5056
     8.6303   8.6303   8.6303   8.6303   8.6303   8.6304   8.6304   8.6304
     8.6659   8.6659   8.6659   8.6659   8.6659   8.6659   8.6659   8.6659
     8.6794   8.6794   8.6794   8.6794   8.9017   8.9017   8.9017   8.9017
     9.2469   9.2469   9.2470   9.2470   9.2470   9.2470   9.2470   9.2470
     9.2545   9.2545   9.2545   9.2545   9.3761   9.3762   9.3762   9.3762
     9.5074   9.5074   9.5074   9.5074   9.7172   9.7172   9.7172   9.7172
     9.8469   9.8469   9.8469   9.8469   9.8469   9.8469   9.8469   9.8469
    10.1406  10.1406  10.1406  10.1406  10.1910  10.1910  10.1910  10.1910
    10.1910  10.1910  10.1910  10.1910  10.2087  10.2087  10.2087  10.2087
    10.9948  10.9949  10.9949  10.9949  13.3377  13.3377  13.3377  13.3377
    13.4439  13.4439  13.4440  13.4440  13.4440  13.4440  13.4440  13.4440
    14.5708  14.5709  14.5709  14.5709  14.5709  14.5709  14.5709  14.5709
    15.5172  15.5172  15.5172  15.5172  16.5850  16.5850  16.5850  16.5850
    16.5850  16.5850  16.5850  16.5850  17.7823  17.7823  17.7823  17.7824
    18.7995  18.7995  18.7995  18.7995  19.0013  19.0013  19.0014  19.0014
    19.0014  19.0014

          k =-0.5000-0.5000 0.2440 ( 52620 PWs)   bands (ev):

   -73.9719 -73.9719 -73.9719 -73.9719 -73.9492 -73.9492 -73.9492 -73.9492
   -73.9443 -73.9443 -73.9442 -73.9442 -73.9442 -73.9442 -73.9442 -73.9442
   -73.3869 -73.3869 -73.3869 -73.3869 -73.3868 -73.3868 -73.3868 -73.3868
   -73.3709 -73.3709 -73.3709 -73.3709 -73.3709 -73.3709 -73.3709 -73.3708
   -39.7975 -39.7975 -39.7975 -39.7975 -39.7975 -39.7975 -39.7975 -39.7975
   -39.7864 -39.7864 -39.7864 -39.7863 -39.7341 -39.7341 -39.7341 -39.7341
   -39.6744 -39.6744 -39.6744 -39.6744 -39.6743 -39.6743 -39.6743 -39.6743
   -39.6326 -39.6326 -39.6326 -39.6326 -39.6308 -39.6308 -39.6308 -39.6308
   -39.6308 -39.6308 -39.6308 -39.6308 -39.6110 -39.6110 -39.6110 -39.6110
   -39.5882 -39.5882 -39.5882 -39.5882 -39.5385 -39.5385 -39.5385 -39.5385
   -39.2612 -39.2612 -39.2612 -39.2612 -39.2611 -39.2611 -39.2611 -39.2611
   -39.1781 -39.1781 -39.1781 -39.1781 -39.1754 -39.1754 -39.1754 -39.1754
   -39.1636 -39.1636 -39.1636 -39.1636 -39.1636 -39.1636 -39.1636 -39.1636
   -39.0752 -39.0752 -39.0752 -39.0752 -39.0750 -39.0750 -39.0750 -39.0750
   -38.9886 -38.9885 -38.9885 -38.9885 -38.9878 -38.9878 -38.9878 -38.9878
   -38.9766 -38.9765 -38.9765 -38.9765 -38.9765 -38.9765 -38.9765 -38.9765
     4.9333   4.9333   4.9333   4.9333   5.5590   5.5590   5.5590   5.5590
     5.8857   5.8857   5.8857   5.8858   5.8858   5.8858   5.8858   5.8858
     5.9926   5.9926   5.9926   5.9926   6.0573   6.0573   6.0574   6.0574
     6.0574   6.0574   6.0574   6.0574   6.1408   6.1408   6.1408   6.1408
     6.4363   6.4363   6.4363   6.4363   6.7475   6.7475   6.7475   6.7475
     6.7476   6.7476   6.7476   6.7476   7.0556   7.0556   7.0556   7.0556
     7.0556   7.0557   7.0557   7.0557   7.2269   7.2269   7.2269   7.2270
     7.4612   7.4613   7.4613   7.4613   7.7161   7.7161   7.7161   7.7161
     7.8356   7.8356   7.8356   7.8356   7.8366   7.8366   7.8366   7.8366
     7.9199   7.9199   7.9199   7.9199   8.0348   8.0348   8.0348   8.0348
     8.0348   8.0348   8.0348   8.0348   8.0635   8.0635   8.0635   8.0635
     8.3746   8.3746   8.3746   8.3746   8.5065   8.5065   8.5065   8.5065
     8.6303   8.6303   8.6303   8.6303   8.6304   8.6304   8.6304   8.6304
     8.6661   8.6661   8.6661   8.6661   8.6661   8.6661   8.6661   8.6661
     8.6794   8.6794   8.6794   8.6794   8.9017   8.9017   8.9017   8.9017
     9.2463   9.2463   9.2463   9.2463   9.2463   9.2463   9.2463   9.2463
     9.2562   9.2562   9.2562   9.2562   9.3666   9.3666   9.3666   9.3666
     9.5074   9.5074   9.5074   9.5074   9.7171   9.7172   9.7172   9.7172
     9.8473   9.8473   9.8473   9.8473   9.8473   9.8473   9.8473   9.8474
    10.1406  10.1406  10.1406  10.1406  10.1911  10.1911  10.1911  10.1911
    10.1911  10.1911  10.1911  10.1911  10.2087  10.2087  10.2087  10.2087
    11.0254  11.0255  11.0255  11.0255  13.2381  13.2381  13.2381  13.2381
    13.4450  13.4450  13.4450  13.4450  13.4450  13.4450  13.4450  13.4451
    14.5665  14.5665  14.5665  14.5665  14.5665  14.5665  14.5665  14.5665
    15.7779  15.7779  15.7779  15.7779  16.6016  16.6017  16.6017  16.6017
    16.6017  16.6017  16.6017  16.6017  17.4578  17.4579  17.4579  17.4579
    18.8020  18.8020  18.8020  18.8020  18.9097  18.9097  18.9097  18.9097
    18.9097  18.9097

          k =-0.5000-0.5000-0.3137 ( 52600 PWs)   bands (ev):

   -73.9719 -73.9719 -73.9719 -73.9719 -73.9492 -73.9492 -73.9492 -73.9492
   -73.9443 -73.9443 -73.9442 -73.9442 -73.9442 -73.9442 -73.9442 -73.9442
   -73.3869 -73.3869 -73.3869 -73.3869 -73.3868 -73.3868 -73.3868 -73.3868
   -73.3709 -73.3709 -73.3709 -73.3709 -73.3709 -73.3709 -73.3709 -73.3708
   -39.7975 -39.7975 -39.7975 -39.7974 -39.7974 -39.7974 -39.7974 -39.7974
   -39.7864 -39.7863 -39.7863 -39.7863 -39.7341 -39.7341 -39.7341 -39.7341
   -39.6743 -39.6743 -39.6743 -39.6743 -39.6743 -39.6743 -39.6743 -39.6743
   -39.6326 -39.6326 -39.6326 -39.6325 -39.6308 -39.6308 -39.6308 -39.6308
   -39.6308 -39.6308 -39.6308 -39.6308 -39.6111 -39.6110 -39.6110 -39.6110
   -39.5882 -39.5882 -39.5882 -39.5882 -39.5386 -39.5386 -39.5386 -39.5386
   -39.2611 -39.2611 -39.2611 -39.2611 -39.2611 -39.2611 -39.2611 -39.2611
   -39.1781 -39.1781 -39.1781 -39.1781 -39.1754 -39.1754 -39.1754 -39.1754
   -39.1636 -39.1636 -39.1636 -39.1636 -39.1636 -39.1636 -39.1636 -39.1636
   -39.0752 -39.0752 -39.0752 -39.0752 -39.0750 -39.0750 -39.0750 -39.0750
   -38.9886 -38.9886 -38.9886 -38.9885 -38.9878 -38.9878 -38.9878 -38.9878
   -38.9765 -38.9765 -38.9765 -38.9765 -38.9765 -38.9765 -38.9765 -38.9764
     4.9333   4.9333   4.9333   4.9334   5.5589   5.5589   5.5589   5.5589
     5.8857   5.8857   5.8857   5.8858   5.8858   5.8858   5.8858   5.8858
     5.9925   5.9925   5.9925   5.9925   6.0573   6.0573   6.0573   6.0573
     6.0574   6.0574   6.0574   6.0574   6.1409   6.1409   6.1409   6.1409
     6.4363   6.4363   6.4363   6.4363   6.7475   6.7476   6.7476   6.7476
     6.7476   6.7476   6.7476   6.7476   7.0556   7.0556   7.0556   7.0556
     7.0556   7.0556   7.0556   7.0557   7.2270   7.2270   7.2270   7.2270
     7.4612   7.4612   7.4612   7.4612   7.7161   7.7161   7.7161   7.7161
     7.8355   7.8355   7.8355   7.8356   7.8365   7.8365   7.8365   7.8365
     7.9202   7.9202   7.9202   7.9203   8.0348   8.0348   8.0348   8.0348
     8.0348   8.0348   8.0348   8.0348   8.0635   8.0635   8.0635   8.0635
     8.3743   8.3743   8.3743   8.3743   8.5068   8.5068   8.5068   8.5069
     8.6304   8.6304   8.6304   8.6304   8.6304   8.6304   8.6304   8.6304
     8.6661   8.6661   8.6661   8.6661   8.6661   8.6662   8.6662   8.6662
     8.6794   8.6794   8.6794   8.6794   8.9017   8.9017   8.9017   8.9017
     9.2461   9.2461   9.2461   9.2461   9.2461   9.2461   9.2461   9.2461
     9.2569   9.2569   9.2569   9.2569   9.3628   9.3628   9.3628   9.3628
     9.5074   9.5074   9.5074   9.5074   9.7171   9.7171   9.7171   9.7171
     9.8475   9.8475   9.8475   9.8475   9.8475   9.8475   9.8475   9.8476
    10.1406  10.1406  10.1406  10.1406  10.1911  10.1911  10.1911  10.1911
    10.1911  10.1911  10.1911  10.1911  10.2087  10.2087  10.2087  10.2088
    11.0378  11.0378  11.0378  11.0378  13.2010  13.2010  13.2010  13.2010
    13.4454  13.4454  13.4455  13.4455  13.4455  13.4455  13.4455  13.4455
    14.5648  14.5648  14.5648  14.5648  14.5648  14.5648  14.5648  14.5648
    15.9003  15.9003  15.9003  15.9003  16.6083  16.6083  16.6083  16.6083
    16.6084  16.6084  16.6084  16.6084  17.3132  17.3132  17.3132  17.3132
    18.8029  18.8029  18.8029  18.8029  18.8766  18.8766  18.8766  18.8766
    18.8766  18.8766

     the Fermi energy is    10.2053 ev

!    total energy              =  -16384.05277384 Ry

     total all-electron energy =   -322944.906481 Ry
     estimated scf accuracy    <          3.1E-09 Ry
     smearing contrib. (-TS)   =       0.12009786 Ry
     internal energy E=F+TS    =  -16384.17287170 Ry

     The total energy is F=E-TS. E is the sum of the following terms:
     one-electron contribution =  -13842.40571084 Ry
     hartree contribution      =    7151.61466313 Ry
     xc contribution           =    -985.49139568 Ry
     ewald contribution        =    -540.55420223 Ry
     one-center paw contrib.   =   -8167.33622609 Ry

     convergence has been achieved in  12 iterations

     Forces acting on atoms (cartesian axes, Ry/au):

     atom    1 type  1   force =     0.00000000    0.00000000   -0.00049839
     atom    2 type  1   force =     0.00000274    0.00000274   -0.00050337
     atom    3 type  1   force =     0.00000051    0.00000000   -0.00007803
     atom    4 type  1   force =     0.00000000    0.00000051   -0.00007803
     atom    5 type  1   force =     0.00000000    0.00000000    0.00008283
     atom    6 type  1   force =     0.00000531    0.00000531    0.00009017
     atom    7 type  1   force =     0.00000753    0.00000000    0.00049406
     atom    8 type  1   force =     0.00000000    0.00000753    0.00049406
     atom    9 type  1   force =     0.00000000    0.00000000   -0.00050250
     atom   10 type  1   force =     0.00000274   -0.00000274   -0.00050337
     atom   11 type  1   force =    -0.00000046    0.00000000   -0.00007933
     atom   12 type  1   force =     0.00000000   -0.00000051   -0.00007803
     atom   13 type  1   force =     0.00000000    0.00000000    0.00008901
     atom   14 type  1   force =     0.00000531   -0.00000531    0.00009017
     atom   15 type  1   force =     0.00000637    0.00000000    0.00049039
     atom   16 type  1   force =     0.00000000   -0.00000753    0.00049406
     atom   17 type  1   force =     0.00000000    0.00000000   -0.00050250
     atom   18 type  1   force =    -0.00000274    0.00000274   -0.00050337
     atom   19 type  1   force =    -0.00000051    0.00000000   -0.00007803
     atom   20 type  1   force =     0.00000000   -0.00000046   -0.00007933
     atom   21 type  1   force =     0.00000000    0.00000000    0.00008901
     atom   22 type  1   force =    -0.00000531    0.00000531    0.00009017
     atom   23 type  1   force =    -0.00000753    0.00000000    0.00049406
     atom   24 type  1   force =     0.00000000    0.00000637    0.00049039
     atom   25 type  1   force =     0.00000000    0.00000000   -0.00050869
     atom   26 type  1   force =    -0.00000274   -0.00000274   -0.00050337
     atom   27 type  1   force =     0.00000046    0.00000000   -0.00007933
     atom   28 type  1   force =     0.00000000    0.00000046   -0.00007933
     atom   29 type  1   force =     0.00000000    0.00000000    0.00009570
     atom   30 type  1   force =    -0.00000531   -0.00000531    0.00009017
     atom   31 type  1   force =    -0.00000637    0.00000000    0.00049039
     atom   32 type  1   force =     0.00000000   -0.00000637    0.00049039

     Total force =     0.002020     Total SCF correction =     0.000421
     SCF correction compared to forces is large: reduce conv_thr to get better values


     Computing stress (Cartesian axis) and pressure

          total   stress  (Ry/bohr**3)                   (kbar)     P=      -29.04
  -0.00026194   0.00000000   0.00000000          -38.53        0.00        0.00
   0.00000000  -0.00026194   0.00000000            0.00      -38.53        0.00
   0.00000000   0.00000000  -0.00006841            0.00        0.00      -10.06

     Energy error            =      8.0E-05
     Gradient error          =      5.1E-04

     bfgs converged in   9 scf cycles and   8 bfgs steps
     (criteria: energy <  1.0E-04 Ry, force <  1.0E-03 Ry/Bohr)

     End of BFGS Geometry Optimization

     Final energy   =  -16384.0527738383 Ry

     File /scratch/igVvMXATfaBuDAmH.bfgs deleted, as requested
Begin final coordinates

ATOMIC_POSITIONS (crystal)
Pd            0.0000000000        0.0000000000        0.0000034498
Pd            0.2499994123        0.2499994123        0.0000037540
Pd            0.2500001479       -0.0000000000        0.1551817872
Pd           -0.0000000000        0.2500001479        0.1551817872
Pd            0.0000000000        0.0000000000        0.6879551115
Pd            0.2499973024        0.2499973024        0.6879540590
Pd            0.2499980109        0.0000000000        0.8431347141
Pd            0.0000000000        0.2499980109        0.8431347141
Pd            0.0000000000        0.5000000000        0.0000034676
Pd            0.2499994123        0.7500005877        0.0000037540
Pd            0.2500003648        0.5000000000        0.1551818983
Pd            0.0000000000        0.7499998521        0.1551817872
Pd            0.0000000000        0.5000000000        0.6879547643
Pd            0.2499973024        0.7500026976        0.6879540590
Pd            0.2499984660        0.5000000000        0.8431346062
Pd            0.0000000000        0.7500019891        0.8431347141
Pd            0.5000000000        0.0000000000        0.0000034676
Pd            0.7500005877        0.2499994123        0.0000037540
Pd            0.7499998521       -0.0000000000        0.1551817872
Pd            0.5000000000        0.2500003648        0.1551818983
Pd            0.5000000000        0.0000000000        0.6879547643
Pd            0.7500026976        0.2499973024        0.6879540590
Pd            0.7500019891        0.0000000000        0.8431347141
Pd            0.5000000000        0.2499984660        0.8431346062
Pd            0.5000000000        0.5000000000        0.0000041058
Pd            0.7500005877        0.7500005877        0.0000037540
Pd            0.7499996352        0.5000000000        0.1551818983
Pd            0.5000000000        0.7499996352        0.1551818983
Pd            0.5000000000        0.5000000000        0.6879536721
Pd            0.7500026976        0.7500026976        0.6879540590
Pd            0.7500015340        0.5000000000        0.8431346062
Pd            0.5000000000        0.7500015340        0.8431346062
End final coordinates



     Writing output data file /scratch/igVvMXATfaBuDAmH.save/
 
     init_run     :     28.27s CPU     28.97s WALL (       1 calls)
     electrons    :  10665.51s CPU  10822.41s WALL (       9 calls)
     update_pot   :      2.19s CPU      2.27s WALL (       8 calls)
     forces       :    141.42s CPU    142.56s WALL (       9 calls)
     stress       :   1405.78s CPU   1414.57s WALL (       9 calls)

     Called by init_run:
     wfcinit      :     27.20s CPU     27.74s WALL (       1 calls)
     potinit      :      0.18s CPU      0.20s WALL (       1 calls)
     hinit0       :      0.49s CPU      0.55s WALL (       1 calls)

     Called by electrons:
     c_bands      :   9506.05s CPU   9641.94s WALL (     116 calls)
     sum_band     :   1143.22s CPU   1161.11s WALL (     116 calls)
     v_of_rho     :      2.40s CPU      2.54s WALL (     117 calls)
     newd         :      4.34s CPU      6.20s WALL (     117 calls)
     PAW_pot      :     10.14s CPU     10.79s WALL (     125 calls)
     mix_rho      :      0.64s CPU      0.73s WALL (     116 calls)

     Called by c_bands:
     init_us_2    :     66.80s CPU     67.50s WALL (   19425 calls)
     cegterg      :   9274.67s CPU   9361.77s WALL (    8700 calls)

     Called by *egterg:
     cdiaghg      :    837.91s CPU    842.43s WALL (   29458 calls)
     h_psi        :   4513.65s CPU   4573.20s WALL (   30733 calls)
     s_psi        :    509.32s CPU    512.36s WALL (   30733 calls)
     g_psi        :     18.73s CPU     19.02s WALL (   21958 calls)

     Called by h_psi:
     h_psi:calbec :    765.59s CPU    770.42s WALL (   30733 calls)
     vloc_psi     :   3201.39s CPU   3250.68s WALL (   30733 calls)
     add_vuspsi   :    506.23s CPU    511.32s WALL (   30733 calls)

     General routines
     calbec       :   1372.95s CPU   1381.33s WALL (   43408 calls)
     fft          :      2.40s CPU      2.53s WALL (    1744 calls)
     ffts         :      0.15s CPU      0.16s WALL (     233 calls)
     fftw         :   3778.02s CPU   3836.06s WALL (16677166 calls)
     interpolate  :      0.25s CPU      0.28s WALL (     117 calls)
 
     Parallel routines
     fft_scatt_xy :    288.30s CPU    293.10s WALL (16679143 calls)
     fft_scatt_yz :   2976.02s CPU   3021.67s WALL (16679143 calls)
 
     PWSCF        :      3h24m CPU      3h27m WALL

 
   This run was terminated on:  19:32:50   7Jan2022            

=------------------------------------------------------------------------------=
   JOB DONE.
=------------------------------------------------------------------------------=
