
     Program PWSCF v.6.7MaX starts on  7Jan2022 at  1:30:43 

     This program is part of the open-source Quantum ESPRESSO suite
     for quantum simulation of materials; please cite
         "P. Giannozzi et al., J. Phys.:Condens. Matter 21 395502 (2009);
         "P. Giannozzi et al., J. Phys.:Condens. Matter 29 465901 (2017);
          URL http://www.quantum-espresso.org", 
     in publications or presentations arising from this work. More details at
     http://www.quantum-espresso.org/quote

     Parallel version (MPI & OpenMP), running on      72 processor cores
     Number of MPI processes:                72
     Threads/MPI process:                     1

     MPI processes distributed on     1 nodes
     R & G space division:  proc/nbgrp/npool/nimage =      72
     Reading input from relax_3.in
Warning: card &CELL ignored
Warning: card CELL_DYNAMICS = 'BFGS', ignored
Warning: card CELL_FACTOR = 2.0, ignored
Warning: card PRESS = 0.0, ignored
Warning: card / ignored

     Current dimensions of program PWSCF are:
     Max number of different atomic species (ntypx) = 10
     Max number of k-points (npk) =  40000
     Max angular momentum in pseudopotentials (lmaxx) =  3
     file Pd.pbe-spn-kjpaw_psl.1.0.0.UPF: wavefunction(s)  4S 5S 4D renormalized

     Subspace diagonalization in iterative solution of the eigenvalue problem:
     one sub-group per band group will be used
     ELPA distributed-memory algorithm (size of sub-group:  8*  8 procs)

     Found symmetry operation: I + (  0.2500  0.2500  0.0000)
     This is a supercell, fractional translations are disabled
     Message from routine setup:
     using ibrav=0 with symmetry is DISCOURAGED, use correct ibrav instead
 
     Parallelization info
     --------------------
     sticks:   dense  smooth     PW     G-vecs:    dense   smooth      PW
     Min         104      68     18                 7254     3892     546
     Max         105      69     19                 7261     3901     555
     Sum        7521    4957   1353               522529   280609   39677
 


     bravais-lattice index     =            0
     lattice parameter (alat)  =      14.8394  a.u.
     unit-cell volume          =    3472.0000 (a.u.)^3
     number of atoms/cell      =           32
     number of atomic types    =            1
     number of electrons       =       576.00
     number of Kohn-Sham states=          346
     kinetic-energy cutoff     =      71.0000  Ry
     charge density cutoff     =     430.0000  Ry
     scf convergence threshold =      1.0E-06
     mixing beta               =       0.1000
     number of iterations used =           10  TF        mixing
     energy convergence thresh.=      1.0E-04
     force convergence thresh. =      1.0E-03
     Exchange-correlation= SLA  PW   PBX  PBC
                           (   1   4   3   4   0   0   0)
     nstep                     =           40


     celldm(1)=  14.839420  celldm(2)=   0.000000  celldm(3)=   0.000000
     celldm(4)=   0.000000  celldm(5)=   0.000000  celldm(6)=   0.000000

     crystal axes: (cart. coord. in units of alat)
               a(1) = (   1.000000   0.000000   0.000000 )  
               a(2) = (   0.000000   1.000000   0.000000 )  
               a(3) = (   0.000000   0.000000   1.062500 )  

     reciprocal axes: (cart. coord. in units 2 pi/alat)
               b(1) = (  1.000000  0.000000  0.000000 )  
               b(2) = (  0.000000  1.000000  0.000000 )  
               b(3) = (  0.000000  0.000000  0.941176 )  


     PseudoPot. # 1 for Pd read from file:
     /rds/homes/b/bxp912/pp/Pd.pbe-spn-kjpaw_psl.1.0.0.UPF
     MD5 check sum: 790f2ebce206edfd9790dcb9844eca51
     Pseudo is Projector augmented-wave + core cor, Zval = 18.0
     Generated using &quot;atomic&quot; code by A. Dal Corso  v.6.3
     Shape of augmentation charge: PSQ
     Using radial grid of 1235 points,  6 beta functions with: 
                l(1) =   0
                l(2) =   0
                l(3) =   1
                l(4) =   1
                l(5) =   2
                l(6) =   2
     Q(r) pseudized with 0 coefficients 


     atomic species   valence    mass     pseudopotential
        Pd            18.00   106.42000     Pd( 1.00)

      8 Sym. Ops. (no inversion) found



   Cartesian axes

     site n.     atom                  positions (alat units)
         1           Pd  tau(   1) = (   0.0000000   0.0000000   0.0000000  )
         2           Pd  tau(   2) = (   0.2500000   0.2500000   0.0000000  )
         3           Pd  tau(   3) = (   0.2500000   0.0000000   0.2500000  )
         4           Pd  tau(   4) = (   0.0000000   0.2500000   0.2500000  )
         5           Pd  tau(   5) = (   0.0000000   0.0000000   0.5625000  )
         6           Pd  tau(   6) = (   0.2500000   0.2500000   0.5625000  )
         7           Pd  tau(   7) = (   0.2500000   0.0000000   0.8125000  )
         8           Pd  tau(   8) = (   0.0000000   0.2500000   0.8125000  )
         9           Pd  tau(   9) = (   0.0000000   0.5000000   0.0000000  )
        10           Pd  tau(  10) = (   0.2500000   0.7500000   0.0000000  )
        11           Pd  tau(  11) = (   0.2500000   0.5000000   0.2500000  )
        12           Pd  tau(  12) = (   0.0000000   0.7500000   0.2500000  )
        13           Pd  tau(  13) = (   0.0000000   0.5000000   0.5625000  )
        14           Pd  tau(  14) = (   0.2500000   0.7500000   0.5625000  )
        15           Pd  tau(  15) = (   0.2500000   0.5000000   0.8125000  )
        16           Pd  tau(  16) = (   0.0000000   0.7500000   0.8125000  )
        17           Pd  tau(  17) = (   0.5000000   0.0000000   0.0000000  )
        18           Pd  tau(  18) = (   0.7500000   0.2500000   0.0000000  )
        19           Pd  tau(  19) = (   0.7500000   0.0000000   0.2500000  )
        20           Pd  tau(  20) = (   0.5000000   0.2500000   0.2500000  )
        21           Pd  tau(  21) = (   0.5000000   0.0000000   0.5625000  )
        22           Pd  tau(  22) = (   0.7500000   0.2500000   0.5625000  )
        23           Pd  tau(  23) = (   0.7500000   0.0000000   0.8125000  )
        24           Pd  tau(  24) = (   0.5000000   0.2500000   0.8125000  )
        25           Pd  tau(  25) = (   0.5000000   0.5000000   0.0000000  )
        26           Pd  tau(  26) = (   0.7500000   0.7500000   0.0000000  )
        27           Pd  tau(  27) = (   0.7500000   0.5000000   0.2500000  )
        28           Pd  tau(  28) = (   0.5000000   0.7500000   0.2500000  )
        29           Pd  tau(  29) = (   0.5000000   0.5000000   0.5625000  )
        30           Pd  tau(  30) = (   0.7500000   0.7500000   0.5625000  )
        31           Pd  tau(  31) = (   0.7500000   0.5000000   0.8125000  )
        32           Pd  tau(  32) = (   0.5000000   0.7500000   0.8125000  )

     number of k points=    75  Marzari-Vanderbilt smearing, width (Ry)=  0.0400
                       cart. coord. in units 2pi/alat
        k(    1) = (   0.0555556   0.0555556   0.0522876), wk =   0.0219479
        k(    2) = (   0.0555556   0.0555556   0.1568627), wk =   0.0219479
        k(    3) = (   0.0555556   0.0555556   0.2614379), wk =   0.0219479
        k(    4) = (   0.0555556   0.0555556   0.3660131), wk =   0.0219479
        k(    5) = (   0.0555556   0.0555556  -0.4705882), wk =   0.0109739
        k(    6) = (   0.0555556   0.1666667   0.0522876), wk =   0.0438957
        k(    7) = (   0.0555556   0.1666667   0.1568627), wk =   0.0438957
        k(    8) = (   0.0555556   0.1666667   0.2614379), wk =   0.0438957
        k(    9) = (   0.0555556   0.1666667   0.3660131), wk =   0.0438957
        k(   10) = (   0.0555556   0.1666667  -0.4705882), wk =   0.0219479
        k(   11) = (   0.0555556   0.2777778   0.0522876), wk =   0.0438957
        k(   12) = (   0.0555556   0.2777778   0.1568627), wk =   0.0438957
        k(   13) = (   0.0555556   0.2777778   0.2614379), wk =   0.0438957
        k(   14) = (   0.0555556   0.2777778   0.3660131), wk =   0.0438957
        k(   15) = (   0.0555556   0.2777778  -0.4705882), wk =   0.0219479
        k(   16) = (   0.0555556   0.3888889   0.0522876), wk =   0.0438957
        k(   17) = (   0.0555556   0.3888889   0.1568627), wk =   0.0438957
        k(   18) = (   0.0555556   0.3888889   0.2614379), wk =   0.0438957
        k(   19) = (   0.0555556   0.3888889   0.3660131), wk =   0.0438957
        k(   20) = (   0.0555556   0.3888889  -0.4705882), wk =   0.0219479
        k(   21) = (   0.0555556  -0.5000000   0.0522876), wk =   0.0219479
        k(   22) = (   0.0555556  -0.5000000   0.1568627), wk =   0.0219479
        k(   23) = (   0.0555556  -0.5000000   0.2614379), wk =   0.0219479
        k(   24) = (   0.0555556  -0.5000000   0.3660131), wk =   0.0219479
        k(   25) = (   0.0555556  -0.5000000  -0.4705882), wk =   0.0109739
        k(   26) = (   0.1666667   0.1666667   0.0522876), wk =   0.0219479
        k(   27) = (   0.1666667   0.1666667   0.1568627), wk =   0.0219479
        k(   28) = (   0.1666667   0.1666667   0.2614379), wk =   0.0219479
        k(   29) = (   0.1666667   0.1666667   0.3660131), wk =   0.0219479
        k(   30) = (   0.1666667   0.1666667  -0.4705882), wk =   0.0109739
        k(   31) = (   0.1666667   0.2777778   0.0522876), wk =   0.0438957
        k(   32) = (   0.1666667   0.2777778   0.1568627), wk =   0.0438957
        k(   33) = (   0.1666667   0.2777778   0.2614379), wk =   0.0438957
        k(   34) = (   0.1666667   0.2777778   0.3660131), wk =   0.0438957
        k(   35) = (   0.1666667   0.2777778  -0.4705882), wk =   0.0219479
        k(   36) = (   0.1666667   0.3888889   0.0522876), wk =   0.0438957
        k(   37) = (   0.1666667   0.3888889   0.1568627), wk =   0.0438957
        k(   38) = (   0.1666667   0.3888889   0.2614379), wk =   0.0438957
        k(   39) = (   0.1666667   0.3888889   0.3660131), wk =   0.0438957
        k(   40) = (   0.1666667   0.3888889  -0.4705882), wk =   0.0219479
        k(   41) = (   0.1666667  -0.5000000   0.0522876), wk =   0.0219479
        k(   42) = (   0.1666667  -0.5000000   0.1568627), wk =   0.0219479
        k(   43) = (   0.1666667  -0.5000000   0.2614379), wk =   0.0219479
        k(   44) = (   0.1666667  -0.5000000   0.3660131), wk =   0.0219479
        k(   45) = (   0.1666667  -0.5000000  -0.4705882), wk =   0.0109739
        k(   46) = (   0.2777778   0.2777778   0.0522876), wk =   0.0219479
        k(   47) = (   0.2777778   0.2777778   0.1568627), wk =   0.0219479
        k(   48) = (   0.2777778   0.2777778   0.2614379), wk =   0.0219479
        k(   49) = (   0.2777778   0.2777778   0.3660131), wk =   0.0219479
        k(   50) = (   0.2777778   0.2777778  -0.4705882), wk =   0.0109739
        k(   51) = (   0.2777778   0.3888889   0.0522876), wk =   0.0438957
        k(   52) = (   0.2777778   0.3888889   0.1568627), wk =   0.0438957
        k(   53) = (   0.2777778   0.3888889   0.2614379), wk =   0.0438957
        k(   54) = (   0.2777778   0.3888889   0.3660131), wk =   0.0438957
        k(   55) = (   0.2777778   0.3888889  -0.4705882), wk =   0.0219479
        k(   56) = (   0.2777778  -0.5000000   0.0522876), wk =   0.0219479
        k(   57) = (   0.2777778  -0.5000000   0.1568627), wk =   0.0219479
        k(   58) = (   0.2777778  -0.5000000   0.2614379), wk =   0.0219479
        k(   59) = (   0.2777778  -0.5000000   0.3660131), wk =   0.0219479
        k(   60) = (   0.2777778  -0.5000000  -0.4705882), wk =   0.0109739
        k(   61) = (   0.3888889   0.3888889   0.0522876), wk =   0.0219479
        k(   62) = (   0.3888889   0.3888889   0.1568627), wk =   0.0219479
        k(   63) = (   0.3888889   0.3888889   0.2614379), wk =   0.0219479
        k(   64) = (   0.3888889   0.3888889   0.3660131), wk =   0.0219479
        k(   65) = (   0.3888889   0.3888889  -0.4705882), wk =   0.0109739
        k(   66) = (   0.3888889  -0.5000000   0.0522876), wk =   0.0219479
        k(   67) = (   0.3888889  -0.5000000   0.1568627), wk =   0.0219479
        k(   68) = (   0.3888889  -0.5000000   0.2614379), wk =   0.0219479
        k(   69) = (   0.3888889  -0.5000000   0.3660131), wk =   0.0219479
        k(   70) = (   0.3888889  -0.5000000  -0.4705882), wk =   0.0109739
        k(   71) = (  -0.5000000  -0.5000000   0.0522876), wk =   0.0054870
        k(   72) = (  -0.5000000  -0.5000000   0.1568627), wk =   0.0054870
        k(   73) = (  -0.5000000  -0.5000000   0.2614379), wk =   0.0054870
        k(   74) = (  -0.5000000  -0.5000000   0.3660131), wk =   0.0054870
        k(   75) = (  -0.5000000  -0.5000000  -0.4705882), wk =   0.0027435

     Dense  grid:   522529 G-vectors     FFT dimensions: ( 100, 100, 108)

     Smooth grid:   280609 G-vectors     FFT dimensions: (  80,  80,  90)

     Estimated max dynamical RAM per process >     237.34 MB

     Estimated total dynamical RAM >      16.69 GB

     Check: negative core charge=   -0.000001

     Initial potential from superposition of free atoms

     starting charge  575.98776, renormalised to  576.00000
     Starting wfcs are  320 randomized atomic wfcs +   26 random wfcs
     Checking if some PAW data can be deallocated... 

     total cpu time spent up to now is       24.0 secs

     Self-consistent Calculation

     iteration #  1     ecut=    71.00 Ry     beta= 0.10
     Davidson diagonalization with overlap
     ethr =  1.00E-02,  avg # of iterations =  3.0

     Threshold (ethr) on eigenvalues was too large:
     Diagonalizing with lowered threshold

     Davidson diagonalization with overlap
     ethr =  1.77E-04,  avg # of iterations =  2.5

     total cpu time spent up to now is      181.1 secs

     total energy              =  -16384.93974674 Ry
     estimated scf accuracy    <       0.99186168 Ry

     iteration #  2     ecut=    71.00 Ry     beta= 0.10
     Davidson diagonalization with overlap
     ethr =  1.72E-04,  avg # of iterations =  1.2

     total cpu time spent up to now is      244.2 secs

     total energy              =  -16384.71411721 Ry
     estimated scf accuracy    <       0.76358148 Ry

     iteration #  3     ecut=    71.00 Ry     beta= 0.10
     Davidson diagonalization with overlap
     ethr =  1.33E-04,  avg # of iterations =  2.7

     total cpu time spent up to now is      318.8 secs

     total energy              =  -16384.76552995 Ry
     estimated scf accuracy    <       0.19292714 Ry

     iteration #  4     ecut=    71.00 Ry     beta= 0.10
     Davidson diagonalization with overlap
     ethr =  3.35E-05,  avg # of iterations =  4.8

     total cpu time spent up to now is      394.4 secs

     total energy              =  -16384.77913547 Ry
     estimated scf accuracy    <       0.05002548 Ry

     iteration #  5     ecut=    71.00 Ry     beta= 0.10
     Davidson diagonalization with overlap
     ethr =  8.68E-06,  avg # of iterations =  3.7

     total cpu time spent up to now is      466.9 secs

     total energy              =  -16384.77504227 Ry
     estimated scf accuracy    <       0.05370502 Ry

     iteration #  6     ecut=    71.00 Ry     beta= 0.10
     Davidson diagonalization with overlap
     ethr =  8.68E-06,  avg # of iterations =  2.2

     total cpu time spent up to now is      534.6 secs

     total energy              =  -16384.75425076 Ry
     estimated scf accuracy    <       0.04397502 Ry

     iteration #  7     ecut=    71.00 Ry     beta= 0.10
     Davidson diagonalization with overlap
     ethr =  7.63E-06,  avg # of iterations =  2.7

     total cpu time spent up to now is      619.5 secs

     total energy              =  -16384.76409322 Ry
     estimated scf accuracy    <       0.00339726 Ry

     iteration #  8     ecut=    71.00 Ry     beta= 0.10
     Davidson diagonalization with overlap
     ethr =  5.90E-07,  avg # of iterations =  4.9

     total cpu time spent up to now is      697.4 secs

     total energy              =  -16384.76407858 Ry
     estimated scf accuracy    <       0.00209081 Ry

     iteration #  9     ecut=    71.00 Ry     beta= 0.10
     Davidson diagonalization with overlap
     ethr =  3.63E-07,  avg # of iterations =  2.0

     total cpu time spent up to now is      784.7 secs

     total energy              =  -16384.76422810 Ry
     estimated scf accuracy    <       0.00187909 Ry

     iteration # 10     ecut=    71.00 Ry     beta= 0.10
     Davidson diagonalization with overlap
     ethr =  3.26E-07,  avg # of iterations =  1.1

     total cpu time spent up to now is      848.0 secs

     total energy              =  -16384.76374548 Ry
     estimated scf accuracy    <       0.00106120 Ry

     iteration # 11     ecut=    71.00 Ry     beta= 0.10
     Davidson diagonalization with overlap
     ethr =  1.84E-07,  avg # of iterations =  2.0

     total cpu time spent up to now is      920.0 secs

     total energy              =  -16384.76371109 Ry
     estimated scf accuracy    <       0.00022003 Ry

     iteration # 12     ecut=    71.00 Ry     beta= 0.10
     Davidson diagonalization with overlap
     ethr =  3.82E-08,  avg # of iterations =  2.0

     total cpu time spent up to now is     1012.9 secs

     total energy              =  -16384.76377733 Ry
     estimated scf accuracy    <       0.00003008 Ry

     iteration # 13     ecut=    71.00 Ry     beta= 0.10
     Davidson diagonalization with overlap
     ethr =  5.22E-09,  avg # of iterations =  2.0

     total cpu time spent up to now is     1097.9 secs

     total energy              =  -16384.76376950 Ry
     estimated scf accuracy    <       0.00003007 Ry

     iteration # 14     ecut=    71.00 Ry     beta= 0.10
     Davidson diagonalization with overlap
     ethr =  5.22E-09,  avg # of iterations =  1.0

     total cpu time spent up to now is     1161.2 secs

     total energy              =  -16384.76377046 Ry
     estimated scf accuracy    <       0.00000513 Ry

     iteration # 15     ecut=    71.00 Ry     beta= 0.10
     Davidson diagonalization with overlap
     ethr =  8.90E-10,  avg # of iterations =  2.0

     total cpu time spent up to now is     1249.4 secs

     total energy              =  -16384.76377230 Ry
     estimated scf accuracy    <       0.00000280 Ry

     iteration # 16     ecut=    71.00 Ry     beta= 0.10
     Davidson diagonalization with overlap
     ethr =  4.87E-10,  avg # of iterations =  1.0

     total cpu time spent up to now is     1311.6 secs

     total energy              =  -16384.76377352 Ry
     estimated scf accuracy    <       0.00000118 Ry

     iteration # 17     ecut=    71.00 Ry     beta= 0.10
     Davidson diagonalization with overlap
     ethr =  2.06E-10,  avg # of iterations =  2.0

     total cpu time spent up to now is     1398.4 secs

     total energy              =  -16384.76377326 Ry
     estimated scf accuracy    <       0.00000179 Ry

     iteration # 18     ecut=    71.00 Ry     beta= 0.10
     Davidson diagonalization with overlap
     ethr =  2.06E-10,  avg # of iterations =  2.0

     total cpu time spent up to now is     1488.7 secs

     End of self-consistent calculation

          k = 0.0556 0.0556 0.0523 ( 35023 PWs)   bands (ev):

   -66.3853 -66.3628 -66.3628 -66.3586 -66.3586 -66.3539 -66.3533 -66.3523
   -66.3523 -66.3511 -66.3454 -66.3454 -66.3439 -66.3439 -66.3366 -66.3366
   -66.0566 -66.0514 -66.0414 -66.0414 -66.0391 -66.0387 -66.0386 -66.0386
   -66.0386 -66.0386 -66.0385 -66.0384 -66.0361 -66.0361 -66.0229 -66.0229
   -32.2280 -32.2280 -32.2280 -32.2262 -32.2167 -32.2167 -32.1953 -32.1596
   -32.1596 -32.1584 -32.1584 -32.1338 -32.1338 -32.1219 -32.1218 -32.1136
   -32.1136 -32.1127 -32.1127 -32.1012 -32.1011 -32.0664 -32.0664 -32.0635
   -32.0593 -32.0593 -32.0545 -32.0545 -32.0545 -32.0523 -32.0523 -32.0366
   -32.0366 -32.0314 -32.0219 -32.0219 -32.0172 -32.0145 -31.9960 -31.9960
   -31.9917 -31.9917 -31.9658 -31.9640 -31.9639 -31.9597 -31.9497 -31.9480
   -31.8648 -31.8648 -31.8589 -31.8584 -31.8584 -31.8558 -31.8426 -31.8426
   -31.7893 -31.7893 -31.7885 -31.7885 -31.7749 -31.7749 -31.7744 -31.7744
   -31.7688 -31.7688 -31.7646 -31.7646 -31.7549 -31.7549 -31.7504 -31.7504
   -31.7445 -31.7107 -31.7107 -31.7094 -31.7093 -31.7041 -31.7026 -31.7026
   -31.7011 -31.6995 -31.6995 -31.6921 -31.6921 -31.6911 -31.6910 -31.6908
   -31.6893 -31.6840 -31.6781 -31.6766 -31.6729 -31.6729 -31.6722 -31.6711
    11.1323  12.7274  12.8277  12.8277  12.8838  12.8954  12.8975  12.8975
    13.0296  13.0942  13.1007  13.1007  13.1304  13.1304  13.2788  13.3243
    13.3243  13.7699  13.8028  13.8028  13.8263  13.8263  13.8372  13.8373
    13.9069  13.9069  14.0072  14.0072  14.0542  14.0844  14.0956  14.0956
    14.1263  14.1263  14.1520  14.1520  14.1660  14.1660  14.1999  14.1999
    14.2526  14.3877  14.3877  14.4232  14.4232  14.5046  14.5046  14.5078
    14.5078  14.6523  14.6523  14.6746  14.6746  14.6750  14.7121  14.7121
    14.7591  14.8482  14.8482  14.9119  14.9119  14.9214  14.9225  14.9225
    14.9308  14.9381  14.9432  14.9432  14.9981  14.9981  15.1101  15.1101
    15.1265  15.1265  15.1605  15.1605  15.1645  15.1853  15.1928  15.1979
    15.2206  15.2307  15.2307  15.2322  15.2432  15.2432  15.3819  15.3819
    15.6054  15.8631  15.8631  15.9520  15.9520  16.0063  16.0063  16.0170
    16.0306  16.0306  16.0330  16.0555  16.0555  16.1135  16.1135  16.1668
    16.1668  16.1670  16.1962  16.2190  16.2190  16.2461  16.3009  16.3009
    16.3322  16.3322  16.3957  16.3957  16.4575  16.4652  16.4652  16.5856
    16.5857  16.6139  16.6139  16.6693  16.6817  16.6817  16.7391  16.7391
    16.7418  16.7418  16.7424  16.7599  16.8188  16.8235  16.8235  16.8505
    16.8505  16.9350  16.9817  16.9817  17.0795  17.0795  17.1211  17.4297
    17.4995  17.4995  17.5298  17.5928  17.5928  17.6015  17.6265  17.6760
    17.6818  17.6818  17.7005  17.7152  17.7152  17.8509  17.8543  17.8543
    17.8615  17.8615  17.9127  17.9480  17.9480  18.2117  18.2117  18.7974
    19.0825  19.0860  19.0860  19.2353  19.2353  19.5417  19.7038  19.7038
    19.7280  19.7280  20.0719  20.0719  20.2469  20.2469  20.5575  20.6173
    21.4519  21.4519  24.2764  24.2764  24.2880  24.4286  25.2535  25.2535
    25.5619  25.5619  25.9076  25.9076  26.1854  26.1854  26.2187  26.4821
    26.4821  26.7727  26.7727  27.0321  27.0321  27.1577  27.1577  27.8904
    27.8904  28.0738  28.2454  28.2454  28.4628  28.4628  28.6099  28.8765
    28.8765  29.0208

          k = 0.0556 0.0556 0.1569 ( 35012 PWs)   bands (ev):

   -66.3852 -66.3628 -66.3628 -66.3586 -66.3586 -66.3539 -66.3533 -66.3523
   -66.3523 -66.3511 -66.3454 -66.3454 -66.3439 -66.3439 -66.3366 -66.3366
   -66.0566 -66.0514 -66.0414 -66.0414 -66.0391 -66.0387 -66.0386 -66.0386
   -66.0386 -66.0386 -66.0385 -66.0384 -66.0361 -66.0361 -66.0229 -66.0229
   -32.2278 -32.2278 -32.2278 -32.2259 -32.2166 -32.2166 -32.1951 -32.1597
   -32.1596 -32.1584 -32.1584 -32.1337 -32.1337 -32.1219 -32.1218 -32.1137
   -32.1137 -32.1126 -32.1126 -32.1011 -32.1011 -32.0665 -32.0665 -32.0641
   -32.0598 -32.0598 -32.0549 -32.0544 -32.0544 -32.0522 -32.0522 -32.0367
   -32.0367 -32.0321 -32.0220 -32.0220 -32.0172 -32.0146 -31.9961 -31.9961
   -31.9917 -31.9917 -31.9658 -31.9640 -31.9640 -31.9596 -31.9498 -31.9480
   -31.8640 -31.8640 -31.8584 -31.8579 -31.8578 -31.8552 -31.8432 -31.8432
   -31.7890 -31.7890 -31.7882 -31.7882 -31.7747 -31.7747 -31.7740 -31.7740
   -31.7689 -31.7689 -31.7650 -31.7650 -31.7550 -31.7550 -31.7506 -31.7506
   -31.7422 -31.7111 -31.7111 -31.7098 -31.7098 -31.7047 -31.7029 -31.7028
   -31.7010 -31.6995 -31.6994 -31.6919 -31.6919 -31.6907 -31.6907 -31.6906
   -31.6891 -31.6858 -31.6782 -31.6769 -31.6730 -31.6729 -31.6722 -31.6711
    11.1869  12.6611  12.8521  12.8521  12.9013  12.9225  12.9225  12.9230
    12.9272  13.0402  13.1254  13.1254  13.1623  13.1623  13.3555  13.3555
    13.3717  13.7198  13.7553  13.7553  13.8401  13.8402  13.8558  13.8558
    13.9134  13.9134  13.9162  13.9687  13.9687  13.9724  13.9724  13.9854
    14.1192  14.1192  14.1362  14.1362  14.1574  14.1574  14.2406  14.2406
    14.2663  14.2663  14.3164  14.3851  14.3851  14.4875  14.4875  14.4945
    14.4945  14.6185  14.6185  14.6705  14.6745  14.6745  14.7275  14.7275
    14.7940  14.7940  14.7996  14.8626  14.8626  14.8852  14.8852  14.9127
    14.9362  14.9603  14.9603  14.9826  15.0225  15.0226  15.1653  15.1653
    15.1715  15.1715  15.2018  15.2137  15.2311  15.2311  15.2375  15.2481
    15.2809  15.3050  15.3050  15.3284  15.3790  15.3790  15.3817  15.3817
    15.6464  15.7722  15.7722  15.8694  15.8694  15.9622  15.9985  16.0013
    16.0014  16.0088  16.0088  16.0622  16.0622  16.1062  16.1434  16.1630
    16.1630  16.1992  16.1992  16.2078  16.2078  16.2982  16.2982  16.3125
    16.3125  16.3382  16.4588  16.4588  16.4598  16.4598  16.4743  16.5764
    16.5764  16.6648  16.6648  16.6716  16.6848  16.6848  16.8119  16.8119
    16.8242  16.8362  16.8362  16.8544  16.8950  16.8950  16.9105  16.9105
    16.9815  16.9917  17.0616  17.0616  17.1115  17.1882  17.1882  17.2904
    17.3255  17.3255  17.4523  17.5103  17.5209  17.5209  17.5623  17.5735
    17.5735  17.6086  17.6283  17.6283  17.6631  17.8008  17.8037  17.8037
    17.8109  17.8109  17.8695  17.9517  17.9517  18.2140  18.2140  18.7892
    18.8315  18.8315  19.2322  19.2322  19.2801  19.2801  19.4289  19.5131
    20.0475  20.0475  20.2126  20.2262  20.2262  20.5936  20.7520  20.7520
    21.6586  21.6586  24.2656  24.3958  24.3958  24.5240  24.5240  24.6606
    25.0100  25.0100  25.0948  25.0948  26.2920  26.2920  26.6239  26.9588
    26.9588  26.9864  26.9864  27.3424  27.6855  27.6855  27.8299  27.8299
    27.8955  27.8955  27.9228  27.9228  28.2401  28.2402  28.3028  28.5695
    28.5696  29.0630

          k = 0.0556 0.0556 0.2614 ( 35070 PWs)   bands (ev):

   -66.3852 -66.3628 -66.3628 -66.3586 -66.3586 -66.3539 -66.3533 -66.3523
   -66.3523 -66.3511 -66.3454 -66.3454 -66.3439 -66.3439 -66.3366 -66.3366
   -66.0566 -66.0514 -66.0414 -66.0414 -66.0391 -66.0387 -66.0386 -66.0386
   -66.0386 -66.0386 -66.0384 -66.0384 -66.0361 -66.0361 -66.0229 -66.0229
   -32.2277 -32.2276 -32.2275 -32.2257 -32.2165 -32.2165 -32.1945 -32.1597
   -32.1597 -32.1584 -32.1584 -32.1337 -32.1337 -32.1219 -32.1219 -32.1140
   -32.1140 -32.1125 -32.1125 -32.1010 -32.1010 -32.0667 -32.0667 -32.0651
   -32.0607 -32.0606 -32.0556 -32.0544 -32.0544 -32.0522 -32.0521 -32.0368
   -32.0368 -32.0333 -32.0221 -32.0221 -32.0171 -32.0149 -31.9962 -31.9962
   -31.9917 -31.9917 -31.9658 -31.9640 -31.9640 -31.9597 -31.9498 -31.9480
   -31.8629 -31.8629 -31.8577 -31.8570 -31.8570 -31.8544 -31.8442 -31.8442
   -31.7886 -31.7886 -31.7878 -31.7878 -31.7744 -31.7744 -31.7734 -31.7734
   -31.7689 -31.7689 -31.7655 -31.7655 -31.7553 -31.7553 -31.7511 -31.7511
   -31.7384 -31.7118 -31.7118 -31.7106 -31.7106 -31.7055 -31.7032 -31.7032
   -31.7011 -31.6994 -31.6994 -31.6915 -31.6915 -31.6907 -31.6902 -31.6902
   -31.6887 -31.6885 -31.6785 -31.6772 -31.6730 -31.6730 -31.6722 -31.6711
    11.2889  12.4520  12.8746  12.8943  12.8943  12.9405  12.9670  12.9670
    12.9753  13.0577  13.1686  13.1686  13.2188  13.2188  13.3996  13.4105
    13.4105  13.6543  13.6795  13.6795  13.7610  13.8106  13.8106  13.8376
    13.8627  13.8627  13.8750  13.8751  13.9182  13.9182  13.9192  13.9192
    14.0881  14.0881  14.1083  14.1083  14.1401  14.1401  14.1422  14.1422
    14.2824  14.2824  14.3790  14.3790  14.4095  14.4576  14.4576  14.4701
    14.4701  14.5662  14.5662  14.6699  14.6751  14.6751  14.7159  14.7159
    14.7423  14.7423  14.7906  14.7906  14.8045  14.8045  14.8316  14.8661
    14.9385  14.9713  14.9713  15.0014  15.0803  15.0803  15.2141  15.2141
    15.2156  15.2156  15.2207  15.2224  15.2224  15.2360  15.2660  15.2755
    15.3749  15.3749  15.5248  15.5248  15.5376  15.5775  15.6462  15.6462
    15.6880  15.6880  15.7049  15.7049  15.7149  15.8962  15.9370  15.9480
    15.9480  15.9953  15.9953  15.9971  16.0241  16.1070  16.1070  16.2001
    16.2001  16.2667  16.2667  16.2694  16.2694  16.3123  16.3123  16.3319
    16.3319  16.3539  16.4687  16.4687  16.5011  16.5011  16.5576  16.5576
    16.6229  16.6229  16.6769  16.7524  16.8015  16.8015  16.8089  16.8089
    16.9267  16.9431  16.9431  16.9790  16.9804  16.9804  16.9842  17.0112
    17.0112  17.0791  17.0926  17.0927  17.1234  17.1517  17.2355  17.2355
    17.2567  17.2649  17.2649  17.4344  17.4344  17.4651  17.4651  17.4867
    17.4996  17.5627  17.5627  17.5668  17.6375  17.7063  17.7119  17.7119
    17.7177  17.7177  17.7915  17.9537  17.9537  18.2160  18.2160  18.4530
    18.4530  18.8695  18.8695  18.9263  19.4343  19.4343  19.4547  19.6474
    19.7780  19.9964  19.9964  20.5404  20.7926  20.7926  21.3256  21.3256
    22.0215  22.0215  23.6957  23.6957  24.2454  24.2455  24.3716  24.4010
    24.4010  24.6230  24.6230  24.9428  26.4965  26.4965  26.6846  27.1416
    27.1416  27.1635  27.1635  27.2887  27.4660  27.4660  27.6494  28.0015
    28.0015  28.0542  28.0542  28.2436  28.2436  28.3814  28.3814  28.4514
    28.4514  28.7041

          k = 0.0556 0.0556 0.3660 ( 35092 PWs)   bands (ev):

   -66.3852 -66.3628 -66.3628 -66.3586 -66.3586 -66.3539 -66.3533 -66.3523
   -66.3523 -66.3511 -66.3454 -66.3454 -66.3439 -66.3439 -66.3366 -66.3366
   -66.0565 -66.0514 -66.0414 -66.0414 -66.0391 -66.0387 -66.0386 -66.0386
   -66.0386 -66.0386 -66.0384 -66.0384 -66.0361 -66.0361 -66.0229 -66.0229
   -32.2275 -32.2273 -32.2273 -32.2254 -32.2163 -32.2163 -32.1939 -32.1598
   -32.1598 -32.1583 -32.1583 -32.1336 -32.1336 -32.1219 -32.1219 -32.1142
   -32.1142 -32.1124 -32.1124 -32.1009 -32.1009 -32.0668 -32.0668 -32.0659
   -32.0614 -32.0613 -32.0561 -32.0543 -32.0543 -32.0522 -32.0522 -32.0370
   -32.0370 -32.0343 -32.0223 -32.0223 -32.0172 -32.0151 -31.9963 -31.9963
   -31.9918 -31.9918 -31.9658 -31.9640 -31.9640 -31.9597 -31.9498 -31.9481
   -31.8617 -31.8617 -31.8570 -31.8563 -31.8563 -31.8537 -31.8452 -31.8452
   -31.7882 -31.7882 -31.7873 -31.7873 -31.7741 -31.7741 -31.7731 -31.7731
   -31.7690 -31.7689 -31.7660 -31.7660 -31.7556 -31.7556 -31.7516 -31.7515
   -31.7346 -31.7124 -31.7123 -31.7111 -31.7111 -31.7061 -31.7036 -31.7035
   -31.7011 -31.6994 -31.6994 -31.6925 -31.6912 -31.6912 -31.6898 -31.6898
   -31.6894 -31.6884 -31.6788 -31.6775 -31.6730 -31.6730 -31.6722 -31.6711
    11.4141  12.2219  12.8813  12.9381  12.9381  12.9901  13.0157  13.0157
    13.0196  13.0750  13.2147  13.2147  13.2807  13.2807  13.3946  13.4704
    13.4704  13.6023  13.6085  13.6085  13.6487  13.6837  13.6837  13.7048
    13.8223  13.8223  13.8840  13.8840  13.9087  13.9087  13.9336  13.9336
    13.9517  13.9517  14.1030  14.1030  14.1266  14.1266  14.1520  14.1520
    14.3180  14.3180  14.3698  14.3698  14.4194  14.4194  14.4413  14.4413
    14.4995  14.5386  14.5386  14.6528  14.6528  14.6623  14.6623  14.6764
    14.7348  14.7348  14.7437  14.7437  14.7540  14.7540  14.8098  14.8455
    14.9310  14.9663  14.9663  15.0061  15.1696  15.1696  15.2008  15.2008
    15.2423  15.2529  15.2529  15.2547  15.2722  15.2722  15.2951  15.3037
    15.3719  15.3719  15.5300  15.5300  15.5343  15.5343  15.7637  15.7637
    15.7885  15.8474  15.8654  15.8683  15.8788  15.9128  15.9255  15.9531
    15.9531  15.9876  15.9876  16.0085  16.0085  16.1341  16.1341  16.2191
    16.2191  16.3147  16.3273  16.3273  16.3333  16.3333  16.3474  16.3474
    16.4012  16.4012  16.4944  16.4944  16.4961  16.4961  16.5534  16.5534
    16.5639  16.5639  16.6570  16.6570  16.6575  16.6820  16.7376  16.7376
    16.7517  16.9214  16.9214  16.9906  16.9907  17.0241  17.0343  17.0552
    17.1289  17.1289  17.1382  17.1382  17.1433  17.1434  17.1596  17.2294
    17.3435  17.3435  17.4343  17.4831  17.4831  17.4902  17.4902  17.5068
    17.5098  17.5554  17.6013  17.6013  17.6033  17.6033  17.6095  17.7011
    17.7116  17.7485  17.7486  17.9545  17.9545  18.1020  18.1020  18.2170
    18.2170  18.4811  18.4811  18.9932  19.0928  19.3653  19.6269  19.6269
    19.9148  19.9148  20.0719  20.4468  21.4228  21.4228  21.9575  21.9575
    22.4660  22.4660  22.8907  22.8907  23.4370  23.4370  23.8212  23.8212
    24.6050  24.9125  24.9125  25.1161  26.3073  26.5585  26.5585  26.7813
    26.7813  27.0110  27.4393  27.4393  27.6196  27.6196  27.7419  27.7419
    28.0002  28.1105  28.1105  28.2198  28.2199  28.3582  28.3582  28.6856
    28.6856  28.8789

          k = 0.0556 0.0556-0.4706 ( 35074 PWs)   bands (ev):

   -66.3852 -66.3628 -66.3628 -66.3586 -66.3586 -66.3539 -66.3533 -66.3523
   -66.3523 -66.3511 -66.3454 -66.3454 -66.3439 -66.3439 -66.3366 -66.3366
   -66.0565 -66.0514 -66.0414 -66.0414 -66.0391 -66.0387 -66.0386 -66.0386
   -66.0386 -66.0386 -66.0384 -66.0384 -66.0361 -66.0361 -66.0229 -66.0229
   -32.2274 -32.2273 -32.2273 -32.2253 -32.2163 -32.2163 -32.1938 -32.1597
   -32.1597 -32.1583 -32.1583 -32.1336 -32.1336 -32.1219 -32.1219 -32.1143
   -32.1143 -32.1123 -32.1123 -32.1009 -32.1008 -32.0668 -32.0668 -32.0662
   -32.0617 -32.0616 -32.0563 -32.0543 -32.0543 -32.0523 -32.0522 -32.0371
   -32.0371 -32.0347 -32.0223 -32.0223 -32.0172 -32.0151 -31.9962 -31.9962
   -31.9918 -31.9918 -31.9658 -31.9640 -31.9640 -31.9597 -31.9498 -31.9481
   -31.8612 -31.8612 -31.8567 -31.8560 -31.8560 -31.8533 -31.8457 -31.8457
   -31.7880 -31.7880 -31.7871 -31.7871 -31.7738 -31.7738 -31.7729 -31.7729
   -31.7689 -31.7689 -31.7662 -31.7662 -31.7557 -31.7557 -31.7517 -31.7517
   -31.7330 -31.7126 -31.7126 -31.7113 -31.7113 -31.7064 -31.7037 -31.7037
   -31.7011 -31.6995 -31.6994 -31.6937 -31.6910 -31.6910 -31.6895 -31.6895
   -31.6893 -31.6883 -31.6789 -31.6776 -31.6730 -31.6730 -31.6722 -31.6712
    11.4842  12.1126  12.8876  12.9579  12.9579  13.0206  13.0327  13.0388
    13.0388  13.0825  13.2359  13.2359  13.3104  13.3104  13.3886  13.4989
    13.4989  13.5789  13.5789  13.5825  13.6150  13.6332  13.6332  13.6416
    13.7892  13.7892  13.8928  13.8928  13.8976  13.8977  13.8987  13.8987
    13.9478  13.9478  14.1084  14.1084  14.1156  14.1156  14.1582  14.1582
    14.3354  14.3354  14.3635  14.3635  14.4000  14.4000  14.4257  14.4257
    14.5363  14.5363  14.5432  14.6298  14.6298  14.6455  14.6455  14.6801
    14.7137  14.7137  14.7277  14.7277  14.7587  14.7587  14.7780  14.8493
    14.9272  14.9629  14.9629  15.0066  15.1958  15.1958  15.2377  15.2377
    15.2535  15.2607  15.2647  15.2647  15.3080  15.3096  15.3096  15.3164
    15.3726  15.3726  15.4355  15.4355  15.4706  15.4706  15.8054  15.8054
    15.8315  15.8393  15.8531  15.8689  15.8805  15.9843  15.9843  16.0632
    16.1114  16.1114  16.1185  16.1392  16.1393  16.2003  16.2003  16.2235
    16.2235  16.2953  16.3405  16.3405  16.3842  16.3842  16.3887  16.3887
    16.4251  16.4251  16.4452  16.4452  16.4561  16.4568  16.4568  16.4703
    16.4829  16.4829  16.5289  16.5289  16.6044  16.6044  16.6760  16.6760
    16.6842  16.7553  16.7553  17.0249  17.0656  17.0656  17.0924  17.1874
    17.1928  17.1928  17.2042  17.2076  17.2076  17.2090  17.2090  17.2545
    17.2545  17.3167  17.4084  17.4491  17.4491  17.4714  17.4740  17.4809
    17.5347  17.5347  17.5379  17.5379  17.6223  17.6421  17.7641  17.7641
    17.7899  17.7899  17.9548  17.9548  18.0390  18.0390  18.1685  18.1685
    18.1685  18.2173  18.2173  18.4542  19.2366  19.2507  19.7585  19.7585
    19.8231  19.8231  20.2719  20.3174  22.0359  22.0359  22.2172  22.2172
    22.5446  22.5446  22.7728  22.7728  22.7896  22.7896  23.4715  23.4715
    24.8733  24.9782  25.0853  25.0853  26.2858  26.2858  26.4318  26.5463
    27.0337  27.0337  27.3137  27.3137  27.6906  27.6906  27.8071  27.8071
    27.9240  27.9240  28.1310  28.1310  28.3668  28.5522  28.5522  28.8562
    28.9019  28.9019

          k = 0.0556 0.1667 0.0523 ( 35026 PWs)   bands (ev):

   -66.3845 -66.3670 -66.3625 -66.3583 -66.3556 -66.3544 -66.3534 -66.3530
   -66.3507 -66.3500 -66.3468 -66.3456 -66.3442 -66.3425 -66.3373 -66.3368
   -66.0561 -66.0509 -66.0443 -66.0413 -66.0410 -66.0396 -66.0387 -66.0386
   -66.0386 -66.0385 -66.0382 -66.0362 -66.0355 -66.0336 -66.0235 -66.0234
   -32.2264 -32.2246 -32.2245 -32.2212 -32.2137 -32.2137 -32.1938 -32.1639
   -32.1637 -32.1636 -32.1613 -32.1529 -32.1476 -32.1418 -32.1202 -32.1158
   -32.1112 -32.1110 -32.0935 -32.0869 -32.0819 -32.0738 -32.0696 -32.0671
   -32.0636 -32.0610 -32.0549 -32.0545 -32.0511 -32.0494 -32.0483 -32.0413
   -32.0395 -32.0276 -32.0196 -32.0120 -32.0074 -32.0074 -32.0017 -31.9971
   -31.9927 -31.9888 -31.9711 -31.9705 -31.9656 -31.9586 -31.9552 -31.9495
   -31.8623 -31.8616 -31.8582 -31.8566 -31.8555 -31.8510 -31.8402 -31.8399
   -31.8039 -31.8025 -31.8020 -31.8019 -31.7891 -31.7882 -31.7829 -31.7790
   -31.7612 -31.7595 -31.7540 -31.7506 -31.7431 -31.7412 -31.7401 -31.7372
   -31.7366 -31.7116 -31.7096 -31.7088 -31.7080 -31.7057 -31.7041 -31.7011
   -31.7000 -31.6997 -31.6992 -31.6947 -31.6933 -31.6927 -31.6916 -31.6903
   -31.6900 -31.6845 -31.6824 -31.6779 -31.6778 -31.6767 -31.6744 -31.6722
    11.2045  12.7771  12.8349  12.8628  12.8724  12.9065  12.9301  12.9362
    12.9474  13.0699  13.1269  13.1339  13.1459  13.1652  13.3323  13.3595
    13.3910  13.7283  13.7399  13.7585  13.7969  13.7979  13.7995  13.8449
    13.8461  13.8715  13.8736  13.9656  13.9700  13.9745  13.9766  14.0036
    14.0694  14.0938  14.1132  14.1314  14.1357  14.1814  14.2061  14.2085
    14.2683  14.2762  14.4083  14.4311  14.4663  14.4681  14.4815  14.4903
    14.6027  14.6203  14.6348  14.6484  14.7265  14.7329  14.7381  14.7768
    14.8005  14.8282  14.8420  14.8470  14.8720  14.8750  14.9157  14.9219
    14.9220  14.9702  15.0099  15.0321  15.0811  15.0950  15.0998  15.1090
    15.1122  15.1230  15.1347  15.1472  15.1622  15.1642  15.1917  15.2144
    15.2261  15.2363  15.2474  15.2677  15.2732  15.3757  15.4459  15.4725
    15.5771  15.6986  15.7898  15.7915  15.8727  15.8862  15.9288  15.9534
    15.9866  16.0161  16.0366  16.0520  16.0840  16.0987  16.1278  16.1365
    16.1561  16.1585  16.1789  16.2311  16.2452  16.3018  16.3132  16.3803
    16.4414  16.4921  16.5006  16.5171  16.5431  16.6122  16.6156  16.6200
    16.6466  16.6792  16.6817  16.6916  16.6981  16.6992  16.7111  16.7356
    16.7802  16.7830  16.8454  16.8574  16.8895  16.8963  16.9462  16.9534
    16.9561  17.0268  17.0273  17.0326  17.1682  17.1818  17.2163  17.2425
    17.2934  17.2999  17.4166  17.4955  17.5384  17.5670  17.5851  17.6157
    17.6324  17.6432  17.6703  17.6718  17.6827  17.7083  17.8049  17.8075
    17.8131  17.8488  17.8695  17.8812  17.9096  18.0930  18.1350  18.6983
    18.8210  19.0578  19.1839  19.1889  19.2142  19.2607  19.4249  19.5692
    19.6920  19.7135  20.2382  20.2431  20.6615  20.8257  20.8464  21.0753
    21.2150  21.7185  24.2993  24.4439  24.4775  24.5734  24.7327  24.9222
    25.3583  25.4594  25.4805  25.6464  25.7152  26.0033  26.0362  26.2328
    26.5129  26.6027  26.6978  27.0313  27.2396  27.4459  27.5932  27.6475
    28.0100  28.1079  28.1201  28.3130  28.4117  28.4757  28.4963  28.5870
    28.6406  28.6584

          k = 0.0556 0.1667 0.1569 ( 35041 PWs)   bands (ev):

   -66.3845 -66.3670 -66.3625 -66.3583 -66.3556 -66.3544 -66.3534 -66.3530
   -66.3507 -66.3500 -66.3468 -66.3456 -66.3442 -66.3425 -66.3373 -66.3368
   -66.0561 -66.0510 -66.0443 -66.0413 -66.0410 -66.0396 -66.0387 -66.0386
   -66.0386 -66.0385 -66.0382 -66.0362 -66.0355 -66.0336 -66.0235 -66.0234
   -32.2263 -32.2245 -32.2244 -32.2210 -32.2137 -32.2136 -32.1936 -32.1639
   -32.1637 -32.1636 -32.1613 -32.1529 -32.1476 -32.1418 -32.1201 -32.1159
   -32.1113 -32.1112 -32.0933 -32.0868 -32.0818 -32.0739 -32.0697 -32.0678
   -32.0642 -32.0609 -32.0553 -32.0545 -32.0512 -32.0496 -32.0483 -32.0419
   -32.0393 -32.0277 -32.0196 -32.0121 -32.0076 -32.0075 -32.0018 -31.9972
   -31.9927 -31.9887 -31.9711 -31.9705 -31.9656 -31.9586 -31.9552 -31.9495
   -31.8616 -31.8610 -31.8578 -31.8562 -31.8549 -31.8504 -31.8406 -31.8405
   -31.8035 -31.8027 -31.8017 -31.8015 -31.7894 -31.7877 -31.7828 -31.7793
   -31.7611 -31.7594 -31.7539 -31.7508 -31.7416 -31.7411 -31.7400 -31.7374
   -31.7369 -31.7117 -31.7102 -31.7094 -31.7084 -31.7066 -31.7047 -31.7010
   -31.7000 -31.6993 -31.6991 -31.6947 -31.6932 -31.6923 -31.6911 -31.6902
   -31.6895 -31.6863 -31.6821 -31.6780 -31.6778 -31.6767 -31.6744 -31.6722
    11.2584  12.7142  12.8696  12.8875  12.8949  12.9154  12.9529  12.9664
    12.9729  12.9780  13.0804  13.1511  13.1579  13.1883  13.3803  13.4223
    13.4244  13.7356  13.7462  13.7511  13.7593  13.7711  13.7859  13.7951
    13.7976  13.8647  13.8824  13.8833  13.8897  13.9466  13.9546  13.9939
    14.0020  14.0188  14.0244  14.0951  14.1538  14.2034  14.2233  14.2339
    14.2668  14.2785  14.2922  14.3381  14.4359  14.4609  14.4688  14.4892
    14.5685  14.5995  14.6244  14.6252  14.6938  14.7319  14.7394  14.7618
    14.7833  14.7997  14.8452  14.8847  14.9122  14.9180  14.9410  14.9628
    14.9753  15.0045  15.0069  15.0245  15.0674  15.0789  15.0955  15.1150
    15.1461  15.1481  15.1626  15.2132  15.2220  15.2606  15.2788  15.2808
    15.2866  15.3184  15.3314  15.3315  15.3363  15.3790  15.4355  15.5406
    15.5822  15.6708  15.7443  15.7568  15.8143  15.8452  15.9635  15.9742
    15.9748  15.9849  16.0404  16.0622  16.0702  16.0734  16.0896  16.1130
    16.1419  16.1680  16.1697  16.2178  16.2361  16.2698  16.2862  16.3517
    16.3959  16.4584  16.4991  16.5412  16.5481  16.5938  16.6425  16.6523
    16.6732  16.6753  16.6958  16.6999  16.7117  16.7582  16.7589  16.8150
    16.8180  16.8387  16.9505  16.9581  16.9618  16.9977  17.0024  17.0361
    17.0479  17.0526  17.0665  17.0997  17.1170  17.1184  17.1834  17.1836
    17.2555  17.3703  17.3855  17.4288  17.4500  17.4788  17.5114  17.5695
    17.5867  17.6144  17.6344  17.6371  17.6403  17.6867  17.7670  17.7715
    17.7994  17.8193  17.8434  17.8681  17.8857  18.1039  18.1377  18.4446
    18.4847  18.8080  19.0311  19.1118  19.2670  19.5456  19.6552  19.6975
    19.7431  19.8057  20.2207  20.5000  20.6438  20.7501  21.1940  21.2785
    21.3313  21.9087  23.9344  24.2759  24.3149  24.4135  24.6073  24.6824
    25.0279  25.1560  25.1588  25.5642  25.5873  25.6544  26.1254  26.1305
    26.6471  26.9067  27.1101  27.3095  27.3694  27.5269  27.7542  27.7640
    27.9298  28.0155  28.1502  28.2398  28.2558  28.2999  28.3383  28.5055
    28.6440  28.7074

          k = 0.0556 0.1667 0.2614 ( 35068 PWs)   bands (ev):

   -66.3845 -66.3670 -66.3625 -66.3583 -66.3556 -66.3544 -66.3534 -66.3530
   -66.3507 -66.3500 -66.3468 -66.3456 -66.3442 -66.3425 -66.3373 -66.3368
   -66.0561 -66.0510 -66.0443 -66.0413 -66.0410 -66.0396 -66.0387 -66.0386
   -66.0386 -66.0385 -66.0382 -66.0362 -66.0355 -66.0336 -66.0235 -66.0234
   -32.2261 -32.2243 -32.2241 -32.2207 -32.2135 -32.2134 -32.1931 -32.1639
   -32.1638 -32.1637 -32.1612 -32.1529 -32.1474 -32.1419 -32.1199 -32.1162
   -32.1114 -32.1114 -32.0931 -32.0868 -32.0816 -32.0741 -32.0699 -32.0687
   -32.0651 -32.0609 -32.0559 -32.0544 -32.0513 -32.0500 -32.0482 -32.0429
   -32.0390 -32.0279 -32.0196 -32.0123 -32.0078 -32.0077 -32.0019 -31.9972
   -31.9928 -31.9887 -31.9711 -31.9705 -31.9656 -31.9586 -31.9551 -31.9496
   -31.8605 -31.8601 -31.8571 -31.8556 -31.8542 -31.8496 -31.8415 -31.8414
   -31.8029 -31.8028 -31.8015 -31.8010 -31.7897 -31.7872 -31.7826 -31.7799
   -31.7608 -31.7592 -31.7536 -31.7511 -31.7421 -31.7400 -31.7379 -31.7377
   -31.7374 -31.7120 -31.7111 -31.7102 -31.7089 -31.7077 -31.7054 -31.7010
   -31.6998 -31.6991 -31.6989 -31.6949 -31.6929 -31.6919 -31.6905 -31.6903
   -31.6890 -31.6882 -31.6823 -31.6783 -31.6778 -31.6767 -31.6744 -31.6723
    11.3591  12.5097  12.9230  12.9301  12.9320  12.9342  12.9461  12.9903
    13.0139  13.0242  13.0975  13.1936  13.1979  13.2281  13.4161  13.4510
    13.4778  13.6875  13.6940  13.7065  13.7197  13.7206  13.7226  13.7477
    13.7618  13.7904  13.7908  13.8431  13.8709  13.8734  13.8995  13.9229
    13.9295  14.0235  14.0831  14.0936  14.1026  14.1041  14.1914  14.1926
    14.2467  14.2593  14.3140  14.4013  14.4286  14.4304  14.4316  14.4907
    14.5472  14.5702  14.5825  14.6158  14.6199  14.6278  14.6957  14.7352
    14.7649  14.8074  14.8847  14.8908  14.9216  14.9318  14.9407  14.9439
    14.9480  15.0023  15.0110  15.0222  15.0328  15.1094  15.1272  15.2006
    15.2214  15.2236  15.2313  15.2473  15.2603  15.2841  15.2909  15.3503
    15.4188  15.4219  15.4540  15.4563  15.5291  15.5899  15.6075  15.6263
    15.6396  15.6484  15.6582  15.6769  15.7913  15.8333  15.8503  15.9194
    15.9656  15.9769  15.9816  15.9878  15.9981  16.0069  16.0469  16.0751
    16.1293  16.1471  16.2091  16.2109  16.3146  16.3449  16.3536  16.4097
    16.4385  16.4893  16.5137  16.5369  16.5394  16.5497  16.6157  16.6776
    16.6855  16.7007  16.7087  16.7522  16.7827  16.7840  16.7871  16.7915
    16.8158  16.8559  16.9442  16.9766  17.0468  17.0562  17.0628  17.0753
    17.0798  17.0799  17.0894  17.1092  17.1252  17.1733  17.1884  17.2032
    17.2127  17.2159  17.3888  17.4171  17.4184  17.4302  17.4873  17.5313
    17.5967  17.6064  17.6112  17.6214  17.6777  17.6947  17.6960  17.7042
    17.7263  17.7404  17.7944  17.8581  17.8877  18.1042  18.1144  18.1396
    18.4295  18.5108  18.8574  18.9717  19.1432  19.3702  19.4984  19.9405
    19.9807  20.1270  20.2941  20.6034  20.7994  21.1408  21.3328  21.6320
    21.9044  22.2487  23.1438  23.7618  23.8591  24.2709  24.2984  24.3850
    24.5539  24.7995  24.9730  25.2258  25.7429  25.8077  26.3080  26.4045
    26.6122  26.7037  27.1278  27.3231  27.4666  27.5976  27.6532  27.6780
    27.7490  28.0183  28.1978  28.2786  28.3473  28.3949  28.5210  28.6433
    28.8533  28.9975

          k = 0.0556 0.1667 0.3660 ( 35087 PWs)   bands (ev):

   -66.3845 -66.3670 -66.3625 -66.3583 -66.3556 -66.3544 -66.3534 -66.3530
   -66.3507 -66.3500 -66.3468 -66.3456 -66.3442 -66.3425 -66.3373 -66.3368
   -66.0560 -66.0510 -66.0443 -66.0413 -66.0410 -66.0396 -66.0387 -66.0386
   -66.0386 -66.0385 -66.0382 -66.0362 -66.0355 -66.0336 -66.0235 -66.0234
   -32.2259 -32.2241 -32.2239 -32.2204 -32.2134 -32.2133 -32.1925 -32.1639
   -32.1639 -32.1636 -32.1611 -32.1528 -32.1473 -32.1419 -32.1198 -32.1164
   -32.1116 -32.1116 -32.0929 -32.0867 -32.0814 -32.0742 -32.0701 -32.0696
   -32.0659 -32.0608 -32.0565 -32.0544 -32.0515 -32.0505 -32.0482 -32.0438
   -32.0388 -32.0281 -32.0196 -32.0124 -32.0080 -32.0078 -32.0020 -31.9974
   -31.9928 -31.9887 -31.9711 -31.9705 -31.9656 -31.9586 -31.9551 -31.9496
   -31.8594 -31.8593 -31.8565 -31.8551 -31.8535 -31.8489 -31.8425 -31.8421
   -31.8028 -31.8022 -31.8014 -31.8006 -31.7898 -31.7868 -31.7823 -31.7805
   -31.7603 -31.7594 -31.7534 -31.7514 -31.7425 -31.7398 -31.7379 -31.7378
   -31.7348 -31.7122 -31.7117 -31.7109 -31.7093 -31.7086 -31.7060 -31.7010
   -31.6998 -31.6992 -31.6986 -31.6958 -31.6928 -31.6916 -31.6908 -31.6901
   -31.6887 -31.6886 -31.6825 -31.6785 -31.6778 -31.6768 -31.6744 -31.6723
    11.4824  12.2828  12.9299  12.9745  12.9762  12.9915  13.0023  13.0379
    13.0481  13.0663  13.1144  13.2355  13.2387  13.2698  13.4446  13.4537
    13.5392  13.5918  13.6346  13.6369  13.6473  13.6584  13.6586  13.6808
    13.7328  13.7368  13.7435  13.7595  13.8060  13.8676  13.9058  13.9169
    13.9577  13.9704  13.9728  14.0533  14.0957  14.1556  14.1672  14.2431
    14.2587  14.2787  14.3113  14.3677  14.3907  14.4143  14.4517  14.5056
    14.5158  14.5188  14.5285  14.5826  14.6174  14.6342  14.6375  14.7092
    14.7452  14.8187  14.8332  14.8674  14.8774  14.8920  14.9099  14.9152
    14.9414  14.9823  15.0123  15.0443  15.1080  15.1548  15.1963  15.2307
    15.2600  15.2738  15.2798  15.2848  15.2877  15.3084  15.3105  15.4080
    15.4085  15.5262  15.5326  15.5626  15.5961  15.6226  15.6360  15.6549
    15.7334  15.7419  15.7510  15.7765  15.8282  15.8973  15.9085  15.9409
    15.9518  15.9545  15.9711  15.9760  15.9866  15.9871  16.0105  16.0193
    16.1212  16.1847  16.2741  16.3029  16.3353  16.3391  16.3825  16.4637
    16.4782  16.4808  16.5003  16.5082  16.5125  16.5183  16.5365  16.5678
    16.5858  16.6388  16.6621  16.6818  16.7140  16.7455  16.7578  16.7835
    16.8012  16.8906  16.9576  16.9687  16.9948  17.0068  17.0253  17.0302
    17.1368  17.1739  17.1814  17.2050  17.2128  17.2137  17.2398  17.2672
    17.2744  17.2788  17.3058  17.3642  17.4469  17.4622  17.4876  17.5305
    17.5516  17.5532  17.5785  17.6048  17.6050  17.6082  17.6102  17.7095
    17.7403  17.7968  17.8635  17.8883  18.0786  18.0800  18.1070  18.1204
    18.1402  18.4717  18.6348  18.8831  18.9538  19.2317  19.3045  19.4285
    20.2220  20.5309  20.5328  20.9142  21.0328  21.4440  21.9760  22.0611
    22.3544  22.5301  22.6730  22.9411  23.3241  23.4772  23.9826  24.0009
    24.3753  24.6252  25.0273  25.1543  25.9979  26.1044  26.3183  26.4801
    26.5577  26.7258  26.9978  27.0341  27.0757  27.2644  27.5555  27.7840
    28.0463  28.0492  28.0640  28.2795  28.4944  28.5332  28.7099  28.7546
    28.7703  28.8361

          k = 0.0556 0.1667-0.4706 ( 35082 PWs)   bands (ev):

   -66.3845 -66.3670 -66.3625 -66.3583 -66.3556 -66.3544 -66.3534 -66.3530
   -66.3507 -66.3500 -66.3468 -66.3456 -66.3442 -66.3425 -66.3373 -66.3368
   -66.0560 -66.0510 -66.0443 -66.0413 -66.0410 -66.0396 -66.0387 -66.0386
   -66.0386 -66.0385 -66.0382 -66.0362 -66.0355 -66.0336 -66.0235 -66.0234
   -32.2258 -32.2241 -32.2238 -32.2203 -32.2134 -32.2133 -32.1923 -32.1639
   -32.1638 -32.1637 -32.1611 -32.1529 -32.1474 -32.1419 -32.1198 -32.1165
   -32.1117 -32.1116 -32.0928 -32.0867 -32.0813 -32.0743 -32.0700 -32.0698
   -32.0661 -32.0609 -32.0566 -32.0544 -32.0516 -32.0506 -32.0483 -32.0441
   -32.0387 -32.0282 -32.0196 -32.0125 -32.0081 -32.0078 -32.0021 -31.9973
   -31.9928 -31.9887 -31.9711 -31.9705 -31.9656 -31.9586 -31.9550 -31.9496
   -31.8590 -31.8589 -31.8562 -31.8548 -31.8532 -31.8486 -31.8429 -31.8424
   -31.8028 -31.8020 -31.8014 -31.8004 -31.7898 -31.7867 -31.7821 -31.7808
   -31.7598 -31.7597 -31.7532 -31.7515 -31.7426 -31.7398 -31.7380 -31.7380
   -31.7334 -31.7122 -31.7120 -31.7111 -31.7095 -31.7089 -31.7062 -31.7010
   -31.6999 -31.6992 -31.6985 -31.6964 -31.6927 -31.6913 -31.6910 -31.6898
   -31.6887 -31.6884 -31.6827 -31.6786 -31.6778 -31.6768 -31.6743 -31.6723
    11.5513  12.1752  12.9364  12.9946  12.9958  13.0239  13.0374  13.0500
    13.0677  13.0782  13.1217  13.2500  13.2594  13.2891  13.4380  13.4712
    13.5429  13.5693  13.6170  13.6175  13.6214  13.6370  13.6378  13.6503
    13.6721  13.6734  13.7184  13.7643  13.8095  13.8829  13.8960  13.9184
    13.9202  13.9242  13.9734  14.0663  14.0970  14.1530  14.2183  14.2297
    14.2727  14.2936  14.2994  14.3394  14.3776  14.4442  14.4459  14.4726
    14.4751  14.4832  14.5577  14.5673  14.5850  14.6423  14.6866  14.6914
    14.7358  14.8019  14.8226  14.8541  14.8543  14.8590  14.8806  14.9072
    14.9464  14.9912  15.0106  15.0475  15.1074  15.2200  15.2416  15.2742
    15.2796  15.2866  15.2936  15.3005  15.3015  15.3195  15.3493  15.4181
    15.4460  15.4512  15.4726  15.4766  15.5140  15.5990  15.7315  15.7404
    15.7705  15.8072  15.8185  15.8265  15.8436  15.8649  15.8731  15.9477
    15.9718  16.0054  16.0215  16.0796  16.0977  16.1091  16.1121  16.1370
    16.1705  16.2400  16.2471  16.2875  16.3082  16.3220  16.3255  16.3371
    16.3520  16.3569  16.4325  16.4437  16.4746  16.4815  16.5030  16.5594
    16.5800  16.6063  16.6246  16.6462  16.6858  16.7085  16.7243  16.8195
    16.8366  16.8458  16.9032  16.9457  17.0401  17.0478  17.1000  17.1023
    17.1309  17.2231  17.2240  17.2266  17.2370  17.2623  17.2672  17.2695
    17.2696  17.3032  17.3072  17.4357  17.4556  17.4824  17.4964  17.5073
    17.5202  17.5329  17.5482  17.5516  17.5528  17.5592  17.5999  17.6556
    17.7372  17.7750  17.8649  17.8884  18.0226  18.1223  18.1403  18.1676
    18.4017  18.5169  18.6455  18.7641  18.7719  18.7914  19.3158  19.3551
    20.3758  20.4372  20.8140  20.8605  21.5532  21.6560  22.0750  22.2494
    22.3578  22.5798  22.8127  22.9707  22.9950  23.0922  23.3800  23.6375
    24.5908  24.7078  24.9006  25.0124  26.2382  26.3591  26.4364  26.4472
    26.5628  26.6852  26.8001  26.8813  26.9730  27.0217  27.4342  27.5704
    28.1029  28.3063  28.3121  28.4215  28.4882  28.5932  28.6104  28.6301
    28.7148  28.8058

          k = 0.0556 0.2778 0.0523 ( 35062 PWs)   bands (ev):

   -66.3830 -66.3711 -66.3619 -66.3579 -66.3572 -66.3546 -66.3525 -66.3504
   -66.3491 -66.3490 -66.3483 -66.3459 -66.3447 -66.3412 -66.3387 -66.3373
   -66.0551 -66.0501 -66.0470 -66.0433 -66.0412 -66.0400 -66.0387 -66.0386
   -66.0386 -66.0385 -66.0377 -66.0363 -66.0328 -66.0313 -66.0245 -66.0243
   -32.2215 -32.2181 -32.2177 -32.2135 -32.2080 -32.2077 -32.1908 -32.1736
   -32.1711 -32.1710 -32.1692 -32.1685 -32.1622 -32.1610 -32.1243 -32.1193
   -32.1060 -32.1005 -32.0760 -32.0756 -32.0721 -32.0720 -32.0701 -32.0672
   -32.0672 -32.0647 -32.0645 -32.0586 -32.0530 -32.0512 -32.0448 -32.0416
   -32.0254 -32.0231 -32.0149 -32.0085 -32.0002 -31.9993 -31.9986 -31.9942
   -31.9937 -31.9874 -31.9801 -31.9775 -31.9706 -31.9643 -31.9611 -31.9540
   -31.8574 -31.8556 -31.8552 -31.8512 -31.8506 -31.8442 -31.8355 -31.8347
   -31.8176 -31.8164 -31.8150 -31.8146 -31.8043 -31.8021 -31.7964 -31.7928
   -31.7487 -31.7452 -31.7407 -31.7381 -31.7356 -31.7286 -31.7249 -31.7245
   -31.7244 -31.7110 -31.7077 -31.7075 -31.7070 -31.7066 -31.7059 -31.7011
   -31.7009 -31.6996 -31.6986 -31.6983 -31.6945 -31.6939 -31.6936 -31.6925
   -31.6894 -31.6889 -31.6855 -31.6850 -31.6831 -31.6819 -31.6795 -31.6763
    11.3473  12.4901  12.8737  12.9306  12.9594  12.9644  13.0005  13.0105
    13.0320  13.1503  13.1786  13.2003  13.2172  13.2458  13.3534  13.4047
    13.4359  13.5701  13.5805  13.5927  13.6095  13.6332  13.7781  13.7806
    13.8151  13.8271  13.8583  13.8992  13.9198  13.9264  13.9297  13.9309
    13.9445  14.0556  14.0607  14.0839  14.1344  14.1552  14.2332  14.2341
    14.3206  14.3584  14.3823  14.3826  14.4408  14.4455  14.4819  14.5147
    14.5389  14.5404  14.5782  14.5998  14.6563  14.7258  14.7533  14.7819
    14.7843  14.7914  14.8003  14.8357  14.8494  14.8712  14.8870  14.9299
    14.9892  15.0031  15.0312  15.0318  15.0458  15.0505  15.0573  15.1108
    15.1392  15.1693  15.1728  15.1786  15.2173  15.2196  15.2410  15.2687
    15.3022  15.3248  15.3437  15.3635  15.4186  15.4883  15.5087  15.5483
    15.5787  15.6018  15.6123  15.7381  15.7932  15.8174  15.8386  15.8574
    15.8757  15.8972  15.9648  16.1138  16.1596  16.1632  16.1851  16.1869
    16.2055  16.2226  16.2613  16.2822  16.3140  16.3559  16.3812  16.4578
    16.4793  16.5796  16.6020  16.6235  16.6416  16.6524  16.6702  16.6928
    16.6977  16.7024  16.7072  16.7369  16.7752  16.7850  16.8007  16.8271
    16.8665  16.8800  16.8802  16.8942  16.9024  16.9419  16.9499  17.0252
    17.0308  17.1162  17.1200  17.1240  17.1404  17.1916  17.2103  17.2400
    17.2832  17.3871  17.4047  17.4360  17.4704  17.4786  17.5061  17.5098
    17.5377  17.5439  17.5530  17.5922  17.6049  17.6685  17.6793  17.7247
    17.7290  17.7634  17.8486  17.8776  17.9056  17.9298  18.0094  18.4447
    18.6153  18.7758  18.8372  19.0971  19.1709  19.3206  19.3298  19.6663
    19.6826  19.7227  20.2163  20.4481  20.8641  21.3174  21.3220  21.4717
    21.8734  22.1752  23.8846  24.0714  24.5144  24.5745  24.7299  24.7689
    24.7818  24.8347  25.1304  25.1619  25.5602  25.9860  26.1703  26.2616
    26.5621  26.8323  26.9620  27.0101  27.0379  27.2271  27.5109  27.7120
    27.7687  27.8022  27.8056  27.9673  28.0349  28.0996  28.2164  28.2557
    28.4119  28.4991

          k = 0.0556 0.2778 0.1569 ( 35050 PWs)   bands (ev):

   -66.3830 -66.3711 -66.3619 -66.3579 -66.3572 -66.3546 -66.3525 -66.3504
   -66.3491 -66.3490 -66.3483 -66.3459 -66.3447 -66.3412 -66.3387 -66.3373
   -66.0551 -66.0501 -66.0470 -66.0433 -66.0412 -66.0400 -66.0387 -66.0386
   -66.0386 -66.0385 -66.0377 -66.0363 -66.0328 -66.0313 -66.0245 -66.0243
   -32.2214 -32.2179 -32.2176 -32.2133 -32.2079 -32.2077 -32.1906 -32.1736
   -32.1712 -32.1710 -32.1693 -32.1685 -32.1621 -32.1610 -32.1242 -32.1194
   -32.1061 -32.1007 -32.0761 -32.0755 -32.0722 -32.0719 -32.0707 -32.0678
   -32.0673 -32.0648 -32.0642 -32.0585 -32.0536 -32.0513 -32.0448 -32.0415
   -32.0254 -32.0228 -32.0151 -32.0086 -32.0002 -31.9993 -31.9987 -31.9942
   -31.9938 -31.9873 -31.9801 -31.9775 -31.9706 -31.9640 -31.9611 -31.9540
   -31.8568 -31.8553 -31.8548 -31.8510 -31.8501 -31.8437 -31.8358 -31.8352
   -31.8171 -31.8167 -31.8146 -31.8145 -31.8047 -31.8016 -31.7962 -31.7932
   -31.7488 -31.7453 -31.7393 -31.7379 -31.7357 -31.7292 -31.7248 -31.7247
   -31.7246 -31.7105 -31.7085 -31.7084 -31.7077 -31.7068 -31.7065 -31.7011
   -31.7008 -31.6993 -31.6985 -31.6977 -31.6945 -31.6939 -31.6932 -31.6919
   -31.6897 -31.6886 -31.6856 -31.6854 -31.6832 -31.6818 -31.6795 -31.6763
    11.3997  12.5291  12.8176  12.9559  12.9643  12.9781  13.0180  13.0380
    13.0656  13.0698  13.1606  13.2020  13.2230  13.2236  13.3838  13.4064
    13.5265  13.5594  13.5598  13.5832  13.6140  13.6254  13.7428  13.7734
    13.8097  13.8135  13.8332  13.8469  13.8494  13.8703  13.8804  13.9121
    13.9396  13.9594  14.0197  14.0815  14.1532  14.1661  14.2000  14.2454
    14.2716  14.3019  14.3781  14.3841  14.3880  14.3925  14.4442  14.4916
    14.5053  14.5099  14.5379  14.5832  14.7100  14.7370  14.7538  14.7981
    14.8307  14.8331  14.8339  14.8549  14.8880  14.9036  14.9421  14.9899
    15.0088  15.0169  15.0247  15.0436  15.0551  15.1225  15.1660  15.1754
    15.1764  15.2431  15.2460  15.2622  15.2688  15.2775  15.2836  15.3036
    15.3324  15.3632  15.3713  15.3751  15.3980  15.4371  15.4436  15.5122
    15.5937  15.6067  15.6263  15.7031  15.7731  15.7879  15.8571  15.8636
    15.9324  15.9418  15.9685  16.0320  16.0688  16.1038  16.1269  16.1340
    16.1675  16.2120  16.2284  16.2355  16.2621  16.2789  16.4211  16.4348
    16.4845  16.5480  16.5521  16.5993  16.6515  16.6868  16.6955  16.7049
    16.7053  16.7115  16.7707  16.7729  16.8039  16.8094  16.8136  16.8216
    16.8262  16.8605  16.8807  16.8836  16.9245  16.9797  17.0396  17.0519
    17.0969  17.1117  17.1466  17.1660  17.1710  17.1773  17.2035  17.2461
    17.2931  17.2987  17.3076  17.3407  17.4132  17.4140  17.5308  17.5347
    17.5612  17.5784  17.6249  17.6825  17.6934  17.7006  17.7086  17.7286
    17.7690  17.7758  17.8281  17.8364  17.8625  17.9401  18.0118  18.1050
    18.4157  18.5935  18.7608  19.0529  19.1044  19.2408  19.2926  19.8604
    20.1077  20.2064  20.4178  20.6501  20.7383  20.9622  21.3087  21.8566
    21.9731  22.3445  23.3288  23.5907  24.3422  24.5567  24.6042  24.7143
    24.8865  25.0925  25.1918  25.2729  25.3777  25.4143  25.4469  26.1967
    26.5923  26.6332  26.6943  26.9551  27.1250  27.1611  27.3370  27.3904
    27.9875  28.0798  28.1477  28.2214  28.3307  28.3765  28.4687  28.7771
    28.8499  28.8787

          k = 0.0556 0.2778 0.2614 ( 35064 PWs)   bands (ev):

   -66.3830 -66.3711 -66.3619 -66.3579 -66.3572 -66.3546 -66.3525 -66.3504
   -66.3491 -66.3490 -66.3483 -66.3459 -66.3447 -66.3412 -66.3387 -66.3373
   -66.0551 -66.0501 -66.0470 -66.0433 -66.0412 -66.0400 -66.0387 -66.0386
   -66.0386 -66.0385 -66.0377 -66.0363 -66.0328 -66.0313 -66.0245 -66.0243
   -32.2212 -32.2176 -32.2175 -32.2130 -32.2078 -32.2077 -32.1902 -32.1736
   -32.1712 -32.1711 -32.1693 -32.1684 -32.1620 -32.1611 -32.1240 -32.1196
   -32.1064 -32.1010 -32.0762 -32.0752 -32.0725 -32.0719 -32.0715 -32.0687
   -32.0673 -32.0650 -32.0640 -32.0584 -32.0545 -32.0516 -32.0449 -32.0415
   -32.0254 -32.0224 -32.0153 -32.0087 -32.0004 -31.9995 -31.9988 -31.9942
   -31.9939 -31.9872 -31.9801 -31.9775 -31.9705 -31.9637 -31.9611 -31.9540
   -31.8557 -31.8550 -31.8543 -31.8506 -31.8494 -31.8430 -31.8364 -31.8360
   -31.8169 -31.8164 -31.8148 -31.8140 -31.8051 -31.8011 -31.7958 -31.7938
   -31.7489 -31.7456 -31.7377 -31.7372 -31.7358 -31.7297 -31.7251 -31.7248
   -31.7246 -31.7098 -31.7098 -31.7094 -31.7087 -31.7075 -31.7070 -31.7014
   -31.7007 -31.6989 -31.6987 -31.6969 -31.6944 -31.6942 -31.6927 -31.6912
   -31.6898 -31.6882 -31.6865 -31.6854 -31.6832 -31.6818 -31.6795 -31.6763
    11.4976  12.6001  12.6224  12.9839  12.9996  13.0119  13.0172  13.0454
    13.0793  13.1087  13.1769  13.2341  13.2430  13.2568  13.4103  13.4379
    13.4613  13.5223  13.5504  13.5891  13.5907  13.6520  13.6929  13.6962
    13.7541  13.7548  13.7750  13.7966  13.7988  13.8552  13.8947  13.9092
    13.9187  13.9401  13.9745  13.9827  14.1350  14.1355  14.1688  14.1819
    14.2031  14.2384  14.3108  14.3874  14.3993  14.4022  14.4230  14.4622
    14.4792  14.4934  14.5233  14.5553  14.6460  14.6775  14.7709  14.8523
    14.8655  14.8690  14.8762  14.8768  14.9332  14.9708  15.0195  15.0290
    15.0386  15.0431  15.0607  15.1341  15.1761  15.1841  15.2065  15.2228
    15.2315  15.2349  15.2622  15.2785  15.2807  15.2980  15.3767  15.3875
    15.3973  15.4289  15.4317  15.4586  15.4721  15.5177  15.5332  15.5760
    15.6008  15.6058  15.6512  15.6762  15.6988  15.7918  15.8493  15.8567
    15.9105  15.9562  15.9573  15.9679  16.0342  16.0588  16.0903  16.1072
    16.1140  16.1164  16.1347  16.1403  16.1453  16.2961  16.3994  16.4196
    16.4990  16.5004  16.5141  16.5327  16.5696  16.5755  16.5919  16.6877
    16.6936  16.7510  16.7514  16.7564  16.8052  16.8164  16.8189  16.9038
    16.9256  16.9431  16.9578  16.9893  17.0049  17.0393  17.0444  17.0488
    17.0772  17.0839  17.1291  17.1749  17.1898  17.2368  17.2372  17.2488
    17.2997  17.3095  17.3135  17.3304  17.3693  17.4464  17.4853  17.5239
    17.5654  17.5946  17.6034  17.6569  17.6667  17.6750  17.7013  17.7161
    17.7347  17.7686  17.7836  17.8090  17.9511  18.0121  18.0612  18.1924
    18.2487  18.3833  18.5356  18.8356  18.9294  19.0451  19.8198  19.9647
    20.3918  20.4283  20.4982  20.8066  20.9954  21.2814  21.3344  21.8015
    22.5391  22.5864  22.6537  23.0768  23.8580  24.2667  24.2944  24.3645
    24.8414  25.0079  25.1029  25.2265  25.3074  25.3813  25.4277  25.7105
    26.2206  26.4340  26.5382  26.7369  26.8667  27.3921  27.6803  27.9190
    27.9332  28.2650  28.3143  28.3458  28.5332  28.5888  28.7271  28.7563
    28.7803  29.0031

          k = 0.0556 0.2778 0.3660 ( 35083 PWs)   bands (ev):

   -66.3830 -66.3711 -66.3619 -66.3579 -66.3572 -66.3546 -66.3525 -66.3504
   -66.3491 -66.3490 -66.3483 -66.3459 -66.3447 -66.3412 -66.3387 -66.3373
   -66.0550 -66.0502 -66.0470 -66.0433 -66.0412 -66.0400 -66.0387 -66.0386
   -66.0386 -66.0385 -66.0377 -66.0363 -66.0328 -66.0313 -66.0245 -66.0243
   -32.2211 -32.2174 -32.2174 -32.2128 -32.2077 -32.2076 -32.1898 -32.1735
   -32.1712 -32.1710 -32.1694 -32.1684 -32.1619 -32.1612 -32.1239 -32.1197
   -32.1066 -32.1012 -32.0763 -32.0749 -32.0727 -32.0723 -32.0719 -32.0694
   -32.0673 -32.0652 -32.0637 -32.0584 -32.0552 -32.0519 -32.0451 -32.0415
   -32.0254 -32.0219 -32.0154 -32.0088 -32.0005 -31.9996 -31.9989 -31.9943
   -31.9940 -31.9872 -31.9801 -31.9776 -31.9705 -31.9635 -31.9611 -31.9541
   -31.8548 -31.8545 -31.8539 -31.8502 -31.8489 -31.8424 -31.8371 -31.8364
   -31.8171 -31.8157 -31.8149 -31.8136 -31.8054 -31.8008 -31.7953 -31.7944
   -31.7490 -31.7459 -31.7374 -31.7359 -31.7351 -31.7301 -31.7256 -31.7250
   -31.7244 -31.7108 -31.7102 -31.7094 -31.7093 -31.7082 -31.7072 -31.7021
   -31.7007 -31.6988 -31.6987 -31.6964 -31.6944 -31.6943 -31.6922 -31.6906
   -31.6894 -31.6878 -31.6876 -31.6853 -31.6833 -31.6820 -31.6795 -31.6764
    11.6171  12.4024  12.6826  13.0196  13.0245  13.0451  13.0501  13.0866
    13.0981  13.1384  13.1931  13.2446  13.2803  13.2861  13.3226  13.4151
    13.4943  13.4984  13.5413  13.5691  13.6024  13.6446  13.6766  13.6967
    13.7063  13.7098  13.7225  13.7257  13.7513  13.7991  13.8045  13.8642
    13.9447  13.9839  14.0004  14.0071  14.0166  14.0223  14.1543  14.1622
    14.1837  14.2012  14.2883  14.3193  14.3428  14.4071  14.4703  14.4743
    14.4837  14.5055  14.5384  14.5420  14.6174  14.6367  14.8195  14.8410
    14.8503  14.8722  14.8725  14.8760  14.8906  14.9980  15.0106  15.0588
    15.0622  15.0668  15.0868  15.1679  15.2155  15.2566  15.2631  15.2638
    15.2707  15.2912  15.2978  15.3141  15.3183  15.3310  15.3942  15.4507
    15.4768  15.5270  15.5319  15.5499  15.5570  15.5766  15.5964  15.6311
    15.6425  15.6653  15.6656  15.7894  15.7981  15.8085  15.8216  15.8565
    15.8693  15.8701  15.9287  15.9361  15.9390  15.9741  15.9887  16.0426
    16.0501  16.1195  16.1730  16.1926  16.2484  16.2539  16.2942  16.3100
    16.3427  16.4040  16.4061  16.4286  16.4373  16.4858  16.6346  16.6359
    16.6744  16.6930  16.7222  16.8067  16.8137  16.8147  16.8152  16.8856
    16.8985  16.9575  16.9955  17.0256  17.0335  17.0349  17.0767  17.1288
    17.1584  17.1661  17.2098  17.2353  17.2421  17.2494  17.2693  17.2981
    17.3180  17.3445  17.3734  17.3858  17.4229  17.4349  17.5030  17.5108
    17.5437  17.5725  17.5736  17.6002  17.6046  17.6091  17.6235  17.6292
    17.6894  17.7042  17.7527  17.7668  17.9581  18.0111  18.0386  18.2661
    18.4545  18.4593  18.5222  18.5909  18.8926  18.9924  19.5295  19.7519
    20.4215  20.8306  20.9589  21.2147  21.4089  21.4754  21.6629  21.8229
    21.9924  22.5794  23.0168  23.0493  23.1517  23.5004  24.2860  24.3017
    24.4040  24.5885  24.7689  25.0968  25.1766  25.4299  25.6649  25.8337
    26.2212  26.3461  26.3770  26.5160  26.9614  27.2856  27.6130  28.1124
    28.1377  28.1593  28.3900  28.4180  28.5229  28.5428  28.6523  29.0413
    29.0932  29.4085

          k = 0.0556 0.2778-0.4706 ( 35050 PWs)   bands (ev):

   -66.3830 -66.3711 -66.3619 -66.3579 -66.3572 -66.3546 -66.3525 -66.3504
   -66.3491 -66.3490 -66.3483 -66.3459 -66.3447 -66.3412 -66.3387 -66.3373
   -66.0550 -66.0502 -66.0470 -66.0433 -66.0412 -66.0400 -66.0387 -66.0386
   -66.0386 -66.0385 -66.0377 -66.0363 -66.0328 -66.0313 -66.0245 -66.0243
   -32.2210 -32.2173 -32.2173 -32.2126 -32.2076 -32.2075 -32.1896 -32.1734
   -32.1712 -32.1710 -32.1695 -32.1684 -32.1618 -32.1612 -32.1238 -32.1197
   -32.1066 -32.1013 -32.0764 -32.0747 -32.0728 -32.0725 -32.0718 -32.0697
   -32.0673 -32.0653 -32.0636 -32.0584 -32.0555 -32.0520 -32.0451 -32.0415
   -32.0254 -32.0217 -32.0155 -32.0088 -32.0005 -31.9997 -31.9989 -31.9943
   -31.9940 -31.9871 -31.9801 -31.9776 -31.9705 -31.9634 -31.9611 -31.9540
   -31.8546 -31.8541 -31.8536 -31.8500 -31.8486 -31.8422 -31.8375 -31.8365
   -31.8171 -31.8153 -31.8152 -31.8134 -31.8054 -31.8006 -31.7949 -31.7949
   -31.7490 -31.7460 -31.7372 -31.7360 -31.7342 -31.7302 -31.7257 -31.7250
   -31.7243 -31.7112 -31.7105 -31.7097 -31.7092 -31.7085 -31.7073 -31.7024
   -31.7006 -31.6988 -31.6986 -31.6962 -31.6944 -31.6943 -31.6920 -31.6904
   -31.6888 -31.6885 -31.6877 -31.6853 -31.6833 -31.6821 -31.6794 -31.6764
    11.6836  12.2983  12.7254  13.0313  13.0472  13.0656  13.0692  13.0907
    13.1173  13.1377  13.2001  13.2491  13.2576  13.2852  13.3057  13.4174
    13.4838  13.5286  13.5336  13.5613  13.6093  13.6552  13.6858  13.6880
    13.6910  13.6945  13.7093  13.7216  13.7261  13.7268  13.7442  13.8687
    13.9571  13.9637  13.9745  13.9999  14.0098  14.0982  14.1048  14.1335
    14.1570  14.1898  14.2552  14.3187  14.3526  14.4101  14.4220  14.4759
    14.5117  14.5118  14.5270  14.5791  14.6462  14.6487  14.7624  14.8059
    14.8381  14.8474  14.8741  14.8770  14.9669  15.0017  15.0169  15.0178
    15.0690  15.0694  15.0699  15.0941  15.2515  15.2685  15.2798  15.2873
    15.3272  15.3281  15.3375  15.3436  15.3550  15.3868  15.4355  15.4822
    15.4867  15.4876  15.4985  15.5947  15.5984  15.6185  15.6490  15.6500
    15.6643  15.7232  15.7415  15.7467  15.7755  15.8216  15.8361  15.8514
    15.8561  15.9091  15.9137  15.9634  15.9794  16.0232  16.0251  16.0522
    16.0676  16.0699  16.1034  16.1834  16.1876  16.2225  16.2263  16.2278
    16.2425  16.3307  16.3755  16.3962  16.4375  16.5094  16.5491  16.5962
    16.6539  16.6630  16.7206  16.7353  16.8046  16.8049  16.8083  16.8591
    16.9870  16.9881  16.9987  17.0121  17.0737  17.0892  17.1040  17.1955
    17.2235  17.2249  17.2440  17.2654  17.2789  17.2802  17.2835  17.2878
    17.3500  17.3504  17.3538  17.3689  17.3913  17.4019  17.5068  17.5239
    17.5415  17.5478  17.5498  17.5535  17.5744  17.5854  17.5953  17.6311
    17.6875  17.7049  17.7525  17.7661  17.9603  18.0031  18.0106  18.1772
    18.3497  18.3642  18.8828  18.9046  18.9561  18.9821  19.2267  19.2278
    21.0373  21.0841  21.1023  21.1064  21.3710  21.4020  21.6958  22.1365
    22.2673  22.2966  22.6205  22.8223  23.3351  23.6904  23.9483  23.9956
    24.3876  24.4711  24.6278  24.7620  25.3990  25.5515  25.6857  25.9034
    26.0559  26.0597  26.6583  26.8540  26.9320  27.0688  27.4681  27.5948
    28.1297  28.4086  28.4618  28.5303  28.5853  28.8164  28.8896  28.9007
    28.9400  29.4765

          k = 0.0556 0.3889 0.0523 ( 35059 PWs)   bands (ev):

   -66.3809 -66.3748 -66.3611 -66.3586 -66.3573 -66.3556 -66.3517 -66.3496
   -66.3480 -66.3478 -66.3467 -66.3465 -66.3455 -66.3408 -66.3399 -66.3380
   -66.0537 -66.0496 -66.0489 -66.0454 -66.0410 -66.0404 -66.0386 -66.0386
   -66.0386 -66.0385 -66.0373 -66.0366 -66.0302 -66.0291 -66.0260 -66.0255
   -32.2131 -32.2088 -32.2076 -32.2036 -32.1996 -32.1994 -32.1876 -32.1865
   -32.1855 -32.1811 -32.1788 -32.1785 -32.1762 -32.1753 -32.1257 -32.1226
   -32.0986 -32.0892 -32.0784 -32.0730 -32.0728 -32.0719 -32.0711 -32.0701
   -32.0652 -32.0637 -32.0610 -32.0577 -32.0508 -32.0493 -32.0419 -32.0339
   -32.0333 -32.0163 -32.0065 -32.0017 -31.9991 -31.9946 -31.9943 -31.9893
   -31.9879 -31.9867 -31.9854 -31.9812 -31.9787 -31.9763 -31.9669 -31.9609
   -31.8503 -31.8491 -31.8473 -31.8440 -31.8429 -31.8359 -31.8301 -31.8294
   -31.8285 -31.8270 -31.8266 -31.8263 -31.8190 -31.8147 -31.8088 -31.8057
   -31.7397 -31.7380 -31.7319 -31.7227 -31.7220 -31.7174 -31.7160 -31.7156
   -31.7107 -31.7095 -31.7094 -31.7081 -31.7055 -31.7055 -31.7052 -31.7022
   -31.7008 -31.6997 -31.6981 -31.6980 -31.6977 -31.6968 -31.6957 -31.6956
   -31.6949 -31.6938 -31.6917 -31.6883 -31.6878 -31.6875 -31.6858 -31.6830
    11.5567  12.1433  13.0119  13.0258  13.0532  13.0839  13.1048  13.1176
    13.1486  13.2317  13.2547  13.2569  13.2702  13.2998  13.3744  13.3748
    13.3862  13.4033  13.4092  13.4560  13.4728  13.5822  13.5931  13.6196
    13.6814  13.7299  13.7696  13.8269  13.9347  13.9456  13.9768  13.9776
    14.0405  14.0422  14.0440  14.0542  14.1575  14.1589  14.2042  14.2440
    14.2715  14.3519  14.3675  14.3686  14.3789  14.3945  14.4398  14.4453
    14.4637  14.4932  14.4993  14.5644  14.6298  14.7081  14.7660  14.7732
    14.7956  14.8252  14.8281  14.8417  14.8533  14.8619  14.9142  14.9154
    14.9586  14.9782  15.0161  15.0525  15.0671  15.0740  15.1169  15.1290
    15.1334  15.1523  15.1692  15.1712  15.1860  15.2433  15.2866  15.2929
    15.2971  15.3113  15.3481  15.3989  15.4205  15.4235  15.5309  15.5404
    15.6136  15.6323  15.7511  15.7526  15.7823  15.7897  15.8731  15.9715
    15.9820  16.0467  16.1346  16.1559  16.1712  16.2120  16.2150  16.2741
    16.2925  16.3273  16.3382  16.3517  16.3597  16.4038  16.4114  16.4976
    16.5216  16.5312  16.5499  16.5577  16.5714  16.5880  16.5962  16.6112
    16.6415  16.6821  16.7106  16.7316  16.7487  16.8166  16.8329  16.8379
    16.8666  16.8727  16.8941  16.9146  16.9830  17.0109  17.0402  17.0474
    17.0559  17.1007  17.1126  17.2002  17.2081  17.2213  17.2907  17.2945
    17.3214  17.3842  17.3895  17.3904  17.4075  17.4461  17.4621  17.4919
    17.5024  17.5280  17.5357  17.5688  17.5791  17.6223  17.6295  17.7403
    17.7785  17.8398  17.8461  17.8851  17.9006  17.9019  18.0973  18.1993
    18.2095  18.4512  18.6535  18.8965  19.1036  19.4515  19.4564  19.6223
    19.6317  19.7037  19.9434  20.1712  21.5689  21.8994  22.0426  22.1889
    22.5974  22.7466  23.1938  23.2004  23.6847  23.8278  24.0660  24.2367
    24.9226  25.2686  25.3399  25.6654  25.8129  26.2114  26.2782  26.3064
    26.3720  26.4533  26.6444  26.8594  26.9765  27.1509  27.2702  27.3261
    27.3488  27.4697  27.6266  27.7479  27.8202  27.9789  28.0275  28.2029
    28.2088  28.5464

          k = 0.0556 0.3889 0.1569 ( 35074 PWs)   bands (ev):

   -66.3809 -66.3748 -66.3611 -66.3586 -66.3573 -66.3556 -66.3517 -66.3496
   -66.3480 -66.3478 -66.3467 -66.3465 -66.3455 -66.3408 -66.3399 -66.3380
   -66.0536 -66.0496 -66.0489 -66.0455 -66.0410 -66.0404 -66.0386 -66.0386
   -66.0386 -66.0385 -66.0373 -66.0366 -66.0302 -66.0291 -66.0260 -66.0255
   -32.2131 -32.2087 -32.2076 -32.2035 -32.1995 -32.1994 -32.1877 -32.1864
   -32.1854 -32.1811 -32.1788 -32.1784 -32.1761 -32.1753 -32.1256 -32.1227
   -32.0988 -32.0895 -32.0785 -32.0731 -32.0731 -32.0724 -32.0712 -32.0706
   -32.0657 -32.0637 -32.0607 -32.0577 -32.0505 -32.0493 -32.0418 -32.0339
   -32.0333 -32.0163 -32.0061 -32.0018 -31.9992 -31.9946 -31.9943 -31.9894
   -31.9878 -31.9868 -31.9854 -31.9812 -31.9787 -31.9759 -31.9669 -31.9610
   -31.8497 -31.8490 -31.8475 -31.8437 -31.8429 -31.8354 -31.8296 -31.8295
   -31.8286 -31.8275 -31.8267 -31.8260 -31.8192 -31.8144 -31.8085 -31.8061
   -31.7402 -31.7375 -31.7321 -31.7225 -31.7220 -31.7183 -31.7164 -31.7149
   -31.7106 -31.7104 -31.7096 -31.7088 -31.7063 -31.7052 -31.7049 -31.7021
   -31.7014 -31.7002 -31.6978 -31.6977 -31.6973 -31.6961 -31.6957 -31.6956
   -31.6944 -31.6930 -31.6918 -31.6886 -31.6877 -31.6874 -31.6859 -31.6830
    11.6069  12.1866  12.9650  13.0449  13.0520  13.0970  13.1157  13.1373
    13.1808  13.2080  13.2227  13.2770  13.2802  13.2857  13.3204  13.3508
    13.3655  13.3901  13.4116  13.4528  13.4915  13.5653  13.6016  13.6272
    13.6702  13.7152  13.7497  13.7771  13.8617  13.9075  13.9705  13.9954
    13.9994  14.0090  14.0334  14.0609  14.1331  14.1531  14.1823  14.2023
    14.2709  14.2895  14.2996  14.3346  14.3436  14.4112  14.4234  14.4279
    14.4345  14.4588  14.4615  14.5886  14.6477  14.7470  14.7679  14.7800
    14.8762  14.8845  14.8845  14.8899  14.8901  14.9038  14.9309  14.9739
    14.9768  15.0171  15.0389  15.0821  15.0912  15.1338  15.1728  15.1788
    15.1930  15.2228  15.2352  15.2446  15.3011  15.3063  15.3067  15.3167
    15.3172  15.3530  15.3557  15.4213  15.4410  15.4524  15.4977  15.5113
    15.6173  15.6550  15.7340  15.7491  15.7529  15.8096  15.8171  15.8974
    15.9298  15.9799  16.0414  16.0653  16.0945  16.1493  16.1734  16.1993
    16.2066  16.2563  16.2723  16.2820  16.3538  16.3628  16.3965  16.4032
    16.4451  16.5156  16.5563  16.5677  16.5729  16.5794  16.5798  16.6048
    16.6471  16.6938  16.7484  16.7486  16.8167  16.8549  16.8638  16.8746
    16.8864  16.9439  16.9534  16.9718  16.9890  17.0274  17.0333  17.0575
    17.0658  17.0912  17.1077  17.1359  17.2754  17.2953  17.2966  17.3045
    17.3299  17.3368  17.3698  17.4023  17.4113  17.4235  17.4367  17.4829
    17.4852  17.5256  17.5522  17.5677  17.6131  17.6196  17.6398  17.7477
    17.7999  17.8026  17.8355  17.8421  17.8549  17.8929  18.0777  18.1816
    18.4346  18.4967  18.6345  18.6899  18.8669  19.1073  19.2020  19.9100
    20.0154  20.1756  20.4139  20.6990  21.1164  21.5117  22.0445  22.5848
    22.6831  22.7148  22.7277  22.8979  23.7089  24.1923  24.2051  24.3041
    24.6262  24.9865  25.1161  25.5469  25.5540  25.5799  25.8163  25.8277
    26.3101  26.6565  26.6570  26.7302  26.7672  26.8378  27.0001  27.3778
    27.5918  27.8185  27.8798  28.2706  28.2814  28.4363  28.4899  28.5620
    28.6171  28.6534

          k = 0.0556 0.3889 0.2614 ( 35096 PWs)   bands (ev):

   -66.3809 -66.3748 -66.3611 -66.3586 -66.3573 -66.3556 -66.3517 -66.3496
   -66.3480 -66.3478 -66.3467 -66.3465 -66.3455 -66.3408 -66.3399 -66.3380
   -66.0536 -66.0495 -66.0489 -66.0455 -66.0410 -66.0404 -66.0386 -66.0386
   -66.0386 -66.0385 -66.0373 -66.0366 -66.0302 -66.0291 -66.0260 -66.0255
   -32.2130 -32.2085 -32.2075 -32.2032 -32.1995 -32.1994 -32.1877 -32.1861
   -32.1853 -32.1811 -32.1789 -32.1785 -32.1760 -32.1753 -32.1255 -32.1228
   -32.0990 -32.0900 -32.0787 -32.0736 -32.0731 -32.0731 -32.0715 -32.0713
   -32.0665 -32.0636 -32.0604 -32.0577 -32.0502 -32.0493 -32.0416 -32.0340
   -32.0333 -32.0164 -32.0056 -32.0019 -31.9994 -31.9947 -31.9943 -31.9894
   -31.9877 -31.9869 -31.9855 -31.9813 -31.9787 -31.9754 -31.9670 -31.9610
   -31.8488 -31.8487 -31.8476 -31.8431 -31.8427 -31.8348 -31.8296 -31.8289
   -31.8288 -31.8281 -31.8271 -31.8254 -31.8195 -31.8139 -31.8082 -31.8066
   -31.7409 -31.7367 -31.7326 -31.7223 -31.7220 -31.7188 -31.7170 -31.7147
   -31.7118 -31.7104 -31.7101 -31.7097 -31.7075 -31.7052 -31.7040 -31.7021
   -31.7019 -31.7005 -31.6979 -31.6974 -31.6967 -31.6957 -31.6953 -31.6952
   -31.6937 -31.6922 -31.6920 -31.6889 -31.6876 -31.6874 -31.6862 -31.6832
    11.7004  12.2665  12.7847  13.0510  13.0974  13.1230  13.1306  13.1518
    13.1646  13.2102  13.2140  13.2188  13.2954  13.3156  13.3367  13.3453
    13.3547  13.3714  13.4215  13.4429  13.5058  13.5231  13.5992  13.6394
    13.6858  13.6896  13.7651  13.7772  13.8084  13.8555  13.8981  13.9108
    13.9702  14.0142  14.0166  14.0211  14.0754  14.1081  14.1630  14.1803
    14.1808  14.1922  14.1925  14.2233  14.3100  14.3495  14.3685  14.4089
    14.4839  14.4988  14.5050  14.6248  14.7179  14.7266  14.7797  14.7948
    14.8575  14.9637  14.9715  14.9818  14.9836  14.9858  15.0007  15.0154
    15.0454  15.0998  15.1098  15.1232  15.1456  15.2144  15.2221  15.2392
    15.2885  15.3124  15.3493  15.3660  15.3663  15.3755  15.3816  15.3824
    15.3935  15.4034  15.4243  15.4405  15.4691  15.4882  15.4964  15.5733
    15.6036  15.6378  15.6384  15.7100  15.7106  15.7822  15.7970  15.8698
    15.8927  15.9090  15.9286  15.9726  16.0391  16.0605  16.1003  16.1101
    16.1405  16.1512  16.1689  16.1718  16.2157  16.2470  16.2875  16.3243
    16.3282  16.4090  16.4237  16.4417  16.4710  16.5397  16.5993  16.6659
    16.6866  16.7387  16.7429  16.7910  16.8335  16.8876  16.9230  16.9309
    16.9428  16.9683  16.9852  17.0261  17.0695  17.0746  17.0945  17.1131
    17.1210  17.1316  17.1628  17.2145  17.2678  17.3073  17.3437  17.3607
    17.3878  17.3969  17.3970  17.3977  17.4012  17.4065  17.4344  17.4469
    17.5202  17.5282  17.5538  17.5708  17.5887  17.6130  17.6262  17.6459
    17.7376  17.7491  17.7560  17.7717  17.8302  17.8796  18.1218  18.1985
    18.3173  18.4817  18.5998  18.7967  18.8110  18.8332  19.3621  20.2542
    20.6396  20.6507  20.7999  20.9123  20.9155  21.3001  22.0244  22.0285
    22.2367  22.5163  23.1788  23.2366  23.6628  23.7970  24.4174  24.4313
    24.6791  24.7989  24.8164  24.9150  24.9918  25.2602  25.3474  25.4239
    25.9077  25.9639  26.2846  26.6034  27.0424  27.1951  27.4957  27.7927
    27.9088  28.1150  28.3063  28.3572  28.4657  28.5281  28.5937  28.8745
    29.1426  29.2047

          k = 0.0556 0.3889 0.3660 ( 35078 PWs)   bands (ev):

   -66.3809 -66.3748 -66.3611 -66.3586 -66.3573 -66.3556 -66.3517 -66.3496
   -66.3480 -66.3478 -66.3467 -66.3465 -66.3455 -66.3408 -66.3399 -66.3380
   -66.0536 -66.0495 -66.0489 -66.0455 -66.0410 -66.0404 -66.0386 -66.0386
   -66.0386 -66.0385 -66.0373 -66.0366 -66.0302 -66.0291 -66.0260 -66.0255
   -32.2129 -32.2083 -32.2074 -32.2030 -32.1994 -32.1993 -32.1876 -32.1858
   -32.1852 -32.1810 -32.1789 -32.1785 -32.1759 -32.1753 -32.1255 -32.1229
   -32.0992 -32.0904 -32.0789 -32.0739 -32.0737 -32.0731 -32.0719 -32.0716
   -32.0672 -32.0636 -32.0601 -32.0576 -32.0499 -32.0493 -32.0415 -32.0339
   -32.0334 -32.0164 -32.0050 -32.0020 -31.9994 -31.9948 -31.9943 -31.9894
   -31.9875 -31.9870 -31.9855 -31.9814 -31.9786 -31.9750 -31.9670 -31.9610
   -31.8484 -31.8480 -31.8475 -31.8426 -31.8426 -31.8343 -31.8297 -31.8294
   -31.8283 -31.8281 -31.8273 -31.8251 -31.8197 -31.8135 -31.8081 -31.8070
   -31.7415 -31.7359 -31.7330 -31.7221 -31.7220 -31.7188 -31.7175 -31.7149
   -31.7128 -31.7106 -31.7104 -31.7102 -31.7084 -31.7052 -31.7031 -31.7025
   -31.7019 -31.7005 -31.6980 -31.6971 -31.6962 -31.6958 -31.6948 -31.6944
   -31.6932 -31.6922 -31.6915 -31.6887 -31.6874 -31.6873 -31.6870 -31.6832
[...]
    15.8628  15.8628  15.8628  15.8628  15.8628  15.8628  15.8628  15.8628
    15.9640  15.9640  15.9640  15.9640  15.9640  15.9640  15.9640  15.9640
    16.0466  16.0466  16.0466  16.0466  16.4788  16.4788  16.4788  16.4788
    16.7656  16.7656  16.7656  16.7656  16.8159  16.8159  16.8159  16.8159
    16.8647  16.8647  16.8647  16.8647  16.8647  16.8647  16.8647  16.8647
    17.1898  17.1898  17.1898  17.1898  17.2454  17.2454  17.2454  17.2454
    17.5215  17.5215  17.5215  17.5215  17.5215  17.5215  17.5215  17.5215
    17.5683  17.5683  17.5683  17.5683  17.6005  17.6005  17.6005  17.6005
    17.6443  17.6443  17.6443  17.6443  17.6443  17.6443  17.6443  17.6443
    18.7083  18.7083  18.7084  18.7084  20.7504  20.7504  20.7504  20.7504
    20.7504  20.7504  20.7504  20.7504  22.1526  22.1526  22.1526  22.1526
    22.1526  22.1526  22.1526  22.1526  23.2469  23.2469  23.2469  23.2469
    24.7754  24.7754  24.7754  24.7754  24.7754  24.7754  24.7754  24.7754
    25.9648  25.9648  25.9648  25.9648  27.5351  27.5351  27.5351  27.5351
    28.1036  28.1036  28.1036  28.1036  28.3673  28.3673  28.3673  28.3673
    28.3673  28.3673

          k =-0.5000-0.5000 0.2614 ( 35072 PWs)   bands (ev):

   -66.2065 -66.2065 -66.2065 -66.2065 -66.1994 -66.1994 -66.1994 -66.1994
   -66.1870 -66.1870 -66.1870 -66.1870 -66.1799 -66.1799 -66.1799 -66.1799
   -66.1772 -66.1772 -66.1772 -66.1772 -66.1772 -66.1772 -66.1772 -66.1772
   -66.1771 -66.1771 -66.1771 -66.1771 -66.1771 -66.1771 -66.1771 -66.1771
   -32.0363 -32.0363 -32.0363 -32.0363 -32.0363 -32.0363 -32.0363 -32.0363
   -32.0270 -32.0270 -32.0270 -32.0270 -32.0270 -32.0270 -32.0270 -32.0270
   -32.0003 -32.0003 -32.0003 -32.0003 -31.9986 -31.9985 -31.9985 -31.9985
   -31.9511 -31.9511 -31.9511 -31.9511 -31.9267 -31.9267 -31.9267 -31.9267
   -31.8987 -31.8987 -31.8987 -31.8987 -31.8973 -31.8973 -31.8973 -31.8973
   -31.8973 -31.8973 -31.8973 -31.8973 -31.8878 -31.8878 -31.8878 -31.8878
   -31.8878 -31.8878 -31.8878 -31.8878 -31.8641 -31.8641 -31.8641 -31.8641
   -31.8626 -31.8626 -31.8626 -31.8626 -31.8626 -31.8626 -31.8626 -31.8626
   -31.8446 -31.8446 -31.8446 -31.8446 -31.8446 -31.8446 -31.8446 -31.8446
   -31.8389 -31.8389 -31.8389 -31.8389 -31.8234 -31.8234 -31.8234 -31.8234
   -31.8053 -31.8053 -31.8053 -31.8053 -31.7960 -31.7960 -31.7960 -31.7960
   -31.7958 -31.7958 -31.7958 -31.7958 -31.7805 -31.7805 -31.7805 -31.7805
    12.5972  12.5973  12.5973  12.5973  13.0514  13.0514  13.0514  13.0514
    13.5833  13.5833  13.5833  13.5833  13.5839  13.5839  13.5839  13.5839
    13.6485  13.6485  13.6485  13.6485  13.6485  13.6485  13.6485  13.6485
    13.7725  13.7725  13.7725  13.7725  13.7725  13.7725  13.7725  13.7725
    14.0591  14.0591  14.0591  14.0591  14.0591  14.0591  14.0591  14.0591
    14.2244  14.2244  14.2244  14.2244  14.5431  14.5431  14.5431  14.5431
    14.5431  14.5431  14.5431  14.5431  14.6357  14.6357  14.6357  14.6357
    14.9939  14.9940  14.9940  14.9940  15.1310  15.1310  15.1310  15.1310
    15.2831  15.2831  15.2831  15.2831  15.3002  15.3002  15.3002  15.3002
    15.3665  15.3665  15.3665  15.3665  15.5738  15.5738  15.5738  15.5738
    15.5738  15.5738  15.5738  15.5739  15.6763  15.6764  15.6764  15.6764
    15.7349  15.7349  15.7349  15.7349  15.7356  15.7356  15.7356  15.7356
    15.8408  15.8408  15.8408  15.8408  15.8408  15.8408  15.8408  15.8408
    16.0263  16.0263  16.0263  16.0263  16.0263  16.0263  16.0263  16.0263
    16.1681  16.1681  16.1681  16.1681  16.5719  16.5719  16.5719  16.5719
    16.6233  16.6233  16.6233  16.6233  16.6233  16.6233  16.6233  16.6233
    16.7096  16.7096  16.7096  16.7096  16.7286  16.7286  16.7286  16.7286
    16.8912  16.8912  16.8912  16.8912  17.1092  17.1092  17.1092  17.1092
    17.6331  17.6331  17.6331  17.6331  17.6398  17.6398  17.6398  17.6398
    17.6504  17.6504  17.6504  17.6504  17.6504  17.6504  17.6504  17.6504
    17.6874  17.6874  17.6874  17.6874  17.6874  17.6874  17.6874  17.6874
    19.3688  19.3688  19.3688  19.3688  20.8929  20.8929  20.8929  20.8929
    20.8929  20.8929  20.8929  20.8929  21.9066  21.9066  21.9066  21.9066
    21.9066  21.9066  21.9066  21.9066  22.4797  22.4797  22.4797  22.4797
    25.1555  25.1555  25.1555  25.1555  25.1555  25.1555  25.1555  25.1555
    26.1518  26.1518  26.1518  26.1518  27.5962  27.5962  27.5962  27.5962
    27.5962  27.5962  27.5962  27.5962  27.6153  27.6153  27.6153  27.6153
    28.4336  28.4336

          k =-0.5000-0.5000 0.3660 ( 35028 PWs)   bands (ev):

   -66.2052 -66.2052 -66.2052 -66.2052 -66.2016 -66.2016 -66.2016 -66.2016
   -66.1847 -66.1847 -66.1847 -66.1847 -66.1811 -66.1811 -66.1811 -66.1811
   -66.1772 -66.1772 -66.1772 -66.1772 -66.1772 -66.1772 -66.1772 -66.1772
   -66.1771 -66.1771 -66.1771 -66.1771 -66.1771 -66.1771 -66.1771 -66.1771
   -32.0342 -32.0342 -32.0342 -32.0342 -32.0342 -32.0342 -32.0342 -32.0342
   -32.0292 -32.0292 -32.0292 -32.0292 -32.0292 -32.0292 -32.0292 -32.0292
   -32.0035 -32.0035 -32.0035 -32.0035 -32.0025 -32.0025 -32.0025 -32.0025
   -31.9372 -31.9372 -31.9372 -31.9372 -31.9119 -31.9119 -31.9119 -31.9119
   -31.9103 -31.9103 -31.9103 -31.9103 -31.8957 -31.8957 -31.8957 -31.8957
   -31.8957 -31.8957 -31.8957 -31.8957 -31.8911 -31.8911 -31.8911 -31.8911
   -31.8911 -31.8911 -31.8911 -31.8911 -31.8798 -31.8798 -31.8798 -31.8798
   -31.8573 -31.8573 -31.8573 -31.8573 -31.8573 -31.8573 -31.8573 -31.8573
   -31.8481 -31.8481 -31.8481 -31.8481 -31.8481 -31.8481 -31.8481 -31.8481
   -31.8362 -31.8362 -31.8362 -31.8362 -31.8282 -31.8282 -31.8282 -31.8282
   -31.7998 -31.7998 -31.7998 -31.7998 -31.7955 -31.7955 -31.7955 -31.7955
   -31.7911 -31.7911 -31.7911 -31.7911 -31.7833 -31.7833 -31.7833 -31.7833
    12.6840  12.6840  12.6840  12.6840  12.9171  12.9171  12.9171  12.9171
    13.6055  13.6055  13.6055  13.6055  13.6147  13.6147  13.6147  13.6147
    13.6477  13.6477  13.6477  13.6477  13.6477  13.6477  13.6477  13.6477
    13.7153  13.7153  13.7153  13.7153  13.7153  13.7153  13.7153  13.7153
    14.1988  14.1988  14.1988  14.1988  14.1988  14.1988  14.1988  14.1988
    14.2912  14.2912  14.2912  14.2912  14.4624  14.4624  14.4624  14.4624
    14.4624  14.4624  14.4624  14.4624  14.4998  14.4998  14.4999  14.4999
    15.0958  15.0958  15.0958  15.0958  15.1642  15.1642  15.1642  15.1642
    15.2659  15.2659  15.2659  15.2659  15.3431  15.3431  15.3431  15.3431
    15.3828  15.3828  15.3829  15.3829  15.5846  15.5846  15.5846  15.5846
    15.6409  15.6409  15.6409  15.6409  15.6409  15.6409  15.6409  15.6409
    15.7086  15.7086  15.7086  15.7086  15.7119  15.7119  15.7119  15.7119
    15.7986  15.7986  15.7986  15.7986  15.7986  15.7986  15.7986  15.7986
    16.1085  16.1085  16.1085  16.1085  16.1085  16.1085  16.1085  16.1085
    16.3010  16.3010  16.3010  16.3010  16.4031  16.4031  16.4031  16.4031
    16.4031  16.4031  16.4031  16.4031  16.5797  16.5797  16.5797  16.5797
    16.6892  16.6892  16.6892  16.6892  16.6911  16.6911  16.6911  16.6911
    16.7250  16.7250  16.7250  16.7250  16.9673  16.9673  16.9673  16.9673
    17.6713  17.6713  17.6713  17.6713  17.6717  17.6717  17.6717  17.6717
    17.7240  17.7240  17.7240  17.7240  17.7240  17.7240  17.7240  17.7240
    17.7279  17.7279  17.7279  17.7279  17.7279  17.7279  17.7279  17.7279
    20.0888  20.0888  20.0888  20.0888  21.0965  21.0965  21.0965  21.0965
    21.0965  21.0965  21.0965  21.0965  21.6257  21.6257  21.6257  21.6257
    21.6257  21.6257  21.6257  21.6257  21.6637  21.6637  21.6637  21.6637
    25.6483  25.6483  25.6483  25.6483  25.6483  25.6483  25.6483  25.6483
    26.4215  26.4216  26.4216  26.4216  26.8799  26.8799  26.8799  26.8799
    26.8799  26.8799  26.8799  26.8799  27.1650  27.1650  27.1651  27.1651
    29.4417  29.4417

          k =-0.5000-0.5000-0.4706 ( 35088 PWs)   bands (ev):

   -66.2036 -66.2036 -66.2036 -66.2036 -66.2035 -66.2035 -66.2035 -66.2035
   -66.1828 -66.1828 -66.1828 -66.1828 -66.1828 -66.1828 -66.1828 -66.1828
   -66.1772 -66.1772 -66.1772 -66.1772 -66.1772 -66.1772 -66.1772 -66.1772
   -66.1771 -66.1771 -66.1771 -66.1771 -66.1771 -66.1771 -66.1771 -66.1771
   -32.0317 -32.0317 -32.0317 -32.0317 -32.0317 -32.0317 -32.0317 -32.0317
   -32.0317 -32.0317 -32.0317 -32.0317 -32.0317 -32.0317 -32.0317 -32.0317
   -32.0043 -32.0043 -32.0043 -32.0043 -32.0043 -32.0043 -32.0043 -32.0043
   -31.9234 -31.9234 -31.9234 -31.9234 -31.9234 -31.9234 -31.9234 -31.9234
   -31.8960 -31.8960 -31.8960 -31.8960 -31.8960 -31.8960 -31.8960 -31.8960
   -31.8938 -31.8938 -31.8938 -31.8938 -31.8938 -31.8938 -31.8938 -31.8938
   -31.8937 -31.8937 -31.8937 -31.8937 -31.8937 -31.8937 -31.8937 -31.8937
   -31.8524 -31.8524 -31.8524 -31.8524 -31.8524 -31.8524 -31.8524 -31.8524
   -31.8524 -31.8524 -31.8524 -31.8524 -31.8524 -31.8524 -31.8524 -31.8524
   -31.8325 -31.8325 -31.8325 -31.8325 -31.8325 -31.8325 -31.8325 -31.8325
   -31.7967 -31.7967 -31.7967 -31.7967 -31.7967 -31.7967 -31.7967 -31.7967
   -31.7869 -31.7869 -31.7869 -31.7869 -31.7868 -31.7868 -31.7868 -31.7868
    12.7924  12.7924  12.7924  12.7924  12.7925  12.7925  12.7925  12.7925
    13.6192  13.6192  13.6192  13.6192  13.6193  13.6193  13.6193  13.6193
    13.6712  13.6712  13.6712  13.6712  13.6712  13.6712  13.6712  13.6712
    13.6712  13.6712  13.6712  13.6712  13.6713  13.6713  13.6713  13.6713
    14.3396  14.3396  14.3396  14.3396  14.3396  14.3396  14.3396  14.3396
    14.3396  14.3396  14.3396  14.3396  14.3396  14.3396  14.3397  14.3397
    14.3833  14.3833  14.3833  14.3833  14.3834  14.3834  14.3834  14.3834
    15.1718  15.1718  15.1718  15.1718  15.1718  15.1718  15.1718  15.1718
    15.2780  15.2780  15.2780  15.2780  15.2780  15.2780  15.2781  15.2781
    15.4821  15.4821  15.4821  15.4821  15.4822  15.4822  15.4822  15.4822
    15.7015  15.7015  15.7015  15.7015  15.7016  15.7016  15.7016  15.7016
    15.7285  15.7285  15.7285  15.7285  15.7285  15.7285  15.7285  15.7285
    15.7286  15.7286  15.7286  15.7286  15.7286  15.7286  15.7286  15.7286
    16.2286  16.2286  16.2286  16.2286  16.2286  16.2286  16.2286  16.2286
    16.2286  16.2286  16.2286  16.2286  16.2286  16.2286  16.2286  16.2286
    16.4404  16.4404  16.4404  16.4404  16.4404  16.4404  16.4404  16.4404
    16.6735  16.6735  16.6735  16.6735  16.6735  16.6735  16.6735  16.6735
    16.8257  16.8257  16.8257  16.8257  16.8257  16.8257  16.8257  16.8257
    17.6838  17.6838  17.6838  17.6838  17.6838  17.6838  17.6838  17.6838
    17.7458  17.7458  17.7458  17.7458  17.7459  17.7459  17.7459  17.7459
    17.7459  17.7459  17.7459  17.7459  17.7459  17.7459  17.7459  17.7459
    20.8584  20.8584  20.8584  20.8584  20.8584  20.8584  20.8584  20.8584
    21.3472  21.3472  21.3472  21.3472  21.3472  21.3472  21.3472  21.3472
    21.3473  21.3473  21.3473  21.3473  21.3473  21.3473  21.3473  21.3473
    26.2275  26.2275  26.2275  26.2275  26.2275  26.2275  26.2275  26.2275
    26.2276  26.2276  26.2276  26.2276  26.2276  26.2276  26.2276  26.2276
    26.7632  26.7632  26.7632  26.7632  26.7632  26.7632  26.7633  26.7633
    30.4924  30.4924

     the Fermi energy is    17.7630 ev

!    total energy              =  -16384.89225140 Ry

     total all-electron energy =   -322945.745959 Ry
     estimated scf accuracy    <          9.5E-09 Ry
     smearing contrib. (-TS)   =       0.06520979 Ry
     internal energy E=F+TS    =  -16384.95746119 Ry

     The total energy is F=E-TS. E is the sum of the following terms:
     one-electron contribution =   -2686.44608086 Ry
     hartree contribution      =    1732.13261620 Ry
     xc contribution           =    -985.24927351 Ry
     ewald contribution        =   -6278.03456456 Ry
     one-center paw contrib.   =   -8167.36015845 Ry

     convergence has been achieved in  10 iterations

     Forces acting on atoms (cartesian axes, Ry/au):

     atom    1 type  1   force =     0.00000000    0.00000000    0.00006507
     atom    2 type  1   force =     0.00000162    0.00000162    0.00006613
     atom    3 type  1   force =     0.00000201    0.00000000    0.00008270
     atom    4 type  1   force =     0.00000000    0.00000201    0.00008270
     atom    5 type  1   force =     0.00000000    0.00000000   -0.00007223
     atom    6 type  1   force =    -0.00000146   -0.00000146   -0.00007033
     atom    7 type  1   force =     0.00000178    0.00000000   -0.00007771
     atom    8 type  1   force =     0.00000000    0.00000178   -0.00007771
     atom    9 type  1   force =     0.00000000    0.00000000    0.00006578
     atom   10 type  1   force =     0.00000162   -0.00000162    0.00006613
     atom   11 type  1   force =    -0.00000114    0.00000000    0.00008084
     atom   12 type  1   force =     0.00000000   -0.00000201    0.00008270
     atom   13 type  1   force =     0.00000000    0.00000000   -0.00007214
     atom   14 type  1   force =    -0.00000146    0.00000146   -0.00007033
     atom   15 type  1   force =    -0.00000181    0.00000000   -0.00007518
     atom   16 type  1   force =     0.00000000   -0.00000178   -0.00007771
     atom   17 type  1   force =     0.00000000    0.00000000    0.00006578
     atom   18 type  1   force =    -0.00000162    0.00000162    0.00006613
     atom   19 type  1   force =    -0.00000201    0.00000000    0.00008270
     atom   20 type  1   force =     0.00000000   -0.00000114    0.00008084
     atom   21 type  1   force =     0.00000000    0.00000000   -0.00007214
     atom   22 type  1   force =     0.00000146   -0.00000146   -0.00007033
     atom   23 type  1   force =    -0.00000178    0.00000000   -0.00007771
     atom   24 type  1   force =     0.00000000   -0.00000181   -0.00007518
     atom   25 type  1   force =     0.00000000    0.00000000    0.00006533
     atom   26 type  1   force =    -0.00000162   -0.00000162    0.00006613
     atom   27 type  1   force =     0.00000114    0.00000000    0.00008084
     atom   28 type  1   force =     0.00000000    0.00000114    0.00008084
     atom   29 type  1   force =     0.00000000    0.00000000   -0.00007128
     atom   30 type  1   force =     0.00000146    0.00000146   -0.00007033
     atom   31 type  1   force =     0.00000181    0.00000000   -0.00007518
     atom   32 type  1   force =     0.00000000    0.00000181   -0.00007518

     Total force =     0.000419     Total SCF correction =     0.001172
     SCF correction compared to forces is large: reduce conv_thr to get better values


     Computing stress (Cartesian axis) and pressure

          total   stress  (Ry/bohr**3)                   (kbar)     P=      -89.35
  -0.00051245   0.00000000   0.00000000          -75.38        0.00        0.00
   0.00000000  -0.00051245   0.00000000            0.00      -75.38        0.00
   0.00000000   0.00000000  -0.00079721            0.00        0.00     -117.27

     Energy error            =      3.6E-06
     Gradient error          =      8.3E-05

     bfgs converged in  11 scf cycles and  10 bfgs steps
     (criteria: energy <  1.0E-04 Ry, force <  1.0E-03 Ry/Bohr)

     End of BFGS Geometry Optimization

     Final energy   =  -16384.8922513969 Ry

     File /scratch/UlIymGAMopeMfmiY.bfgs deleted, as requested
Begin final coordinates

ATOMIC_POSITIONS (crystal)
Pd            0.0000000000        0.0000000000        0.0073590956
Pd            0.2499995260        0.2499995260        0.0073587477
Pd            0.2499994193        0.0000000000        0.2573495284
Pd            0.0000000000        0.2499994193        0.2573495284
Pd            0.0000000000        0.0000000000        0.5073529072
Pd            0.2500003033        0.2500003033        0.5073516363
Pd            0.2499997825        0.0000000000        0.7573518463
Pd            0.0000000000        0.2499997825        0.7573518463
Pd            0.0000000000        0.5000000000        0.0073588515
Pd            0.2499995260        0.7500004740        0.0073587477
Pd            0.2499997918        0.5000000000        0.2573492831
Pd            0.0000000000        0.7500005807        0.2573495284
Pd            0.0000000000        0.5000000000        0.5073523611
Pd            0.2500003033        0.7499996967        0.5073516363
Pd            0.2500003595        0.5000000000        0.7573513036
Pd            0.0000000000        0.7500002175        0.7573518463
Pd            0.5000000000        0.0000000000        0.0073588515
Pd            0.7500004740        0.2499995260        0.0073587477
Pd            0.7500005807        0.0000000000        0.2573495284
Pd            0.5000000000        0.2499997918        0.2573492831
Pd            0.5000000000        0.0000000000        0.5073523611
Pd            0.7499996967        0.2500003033        0.5073516363
Pd            0.7500002175        0.0000000000        0.7573518463
Pd            0.5000000000        0.2500003595        0.7573513036
Pd            0.5000000000        0.5000000000        0.0073590197
Pd            0.7500004740        0.7500004740        0.0073587477
Pd            0.7500002082        0.5000000000        0.2573492831
Pd            0.5000000000        0.7500002082        0.2573492831
Pd            0.5000000000        0.5000000000        0.5073512886
Pd            0.7499996967        0.7499996967        0.5073516363
Pd            0.7499996405        0.5000000000        0.7573513036
Pd            0.5000000000        0.7499996405        0.7573513036
End final coordinates



     Writing output data file /scratch/UlIymGAMopeMfmiY.save/
 
     init_run     :     23.16s CPU     23.71s WALL (       1 calls)
     electrons    :  11568.07s CPU  11924.26s WALL (      11 calls)
     update_pot   :      2.18s CPU      2.27s WALL (      10 calls)
     forces       :    143.24s CPU    144.98s WALL (      11 calls)
     stress       :   1051.95s CPU   1059.60s WALL (      11 calls)

     Called by init_run:
     wfcinit      :     22.70s CPU     23.16s WALL (       1 calls)
     potinit      :      0.16s CPU      0.18s WALL (       1 calls)
     hinit0       :      0.11s CPU      0.12s WALL (       1 calls)

     Called by electrons:
     c_bands      :  10351.86s CPU  10675.53s WALL (     136 calls)
     sum_band     :   1198.49s CPU   1215.55s WALL (     136 calls)
     v_of_rho     :      2.21s CPU      2.30s WALL (     142 calls)
     newd         :      3.59s CPU      5.13s WALL (     142 calls)
     PAW_pot      :     12.66s CPU     13.36s WALL (     152 calls)
     mix_rho      :      0.63s CPU      0.71s WALL (     136 calls)

     Called by c_bands:
     init_us_2    :     50.79s CPU     51.44s WALL (   22875 calls)
     cegterg      :  10165.20s CPU  10271.49s WALL (   10200 calls)

     Called by *egterg:
     cdiaghg      :   1054.52s CPU   1061.07s WALL (   34300 calls)
     h_psi        :   5265.21s CPU   5340.53s WALL (   35500 calls)
     s_psi        :    456.06s CPU    459.01s WALL (   35500 calls)
     g_psi        :     13.71s CPU     13.92s WALL (   25225 calls)

     Called by h_psi:
     h_psi:calbec :    807.40s CPU    812.50s WALL (   35500 calls)
     vloc_psi     :   3974.85s CPU   4036.52s WALL (   35500 calls)
     add_vuspsi   :    451.70s CPU    459.88s WALL (   35500 calls)

     General routines
     calbec       :   1371.01s CPU   1380.25s WALL (   50575 calls)
     fft          :      3.14s CPU      3.22s WALL (    2114 calls)
     ffts         :      0.18s CPU      0.19s WALL (     278 calls)
     fftw         :   4595.56s CPU   4666.53s WALL (21388974 calls)
     interpolate  :      0.27s CPU      0.27s WALL (     142 calls)
 
     Parallel routines
     fft_scatt_xy :    366.77s CPU    372.59s WALL (21391366 calls)
     fft_scatt_yz :   3571.72s CPU   3627.39s WALL (21391366 calls)
 
     PWSCF        :      3h33m CPU      3h40m WALL

 
   This run was terminated on:   5:10:50   7Jan2022            

=------------------------------------------------------------------------------=
   JOB DONE.
=------------------------------------------------------------------------------=
