
     Program PWSCF v.6.7MaX starts on  7Jan2022 at 14:36:32 

     This program is part of the open-source Quantum ESPRESSO suite
     for quantum simulation of materials; please cite
         "P. Giannozzi et al., J. Phys.:Condens. Matter 21 395502 (2009);
         "P. Giannozzi et al., J. Phys.:Condens. Matter 29 465901 (2017);
          URL http://www.quantum-espresso.org", 
     in publications or presentations arising from this work. More details at
     http://www.quantum-espresso.org/quote

     Parallel version (MPI & OpenMP), running on      72 processor cores
     Number of MPI processes:                72
     Threads/MPI process:                     1

     MPI processes distributed on     1 nodes
     R & G space division:  proc/nbgrp/npool/nimage =      72
     Reading input from relax_6.in
Warning: card &CELL ignored
Warning: card CELL_DYNAMICS = 'BFGS', ignored
Warning: card CELL_FACTOR = 2.0, ignored
Warning: card PRESS = 0.0, ignored
Warning: card / ignored

     Current dimensions of program PWSCF are:
     Max number of different atomic species (ntypx) = 10
     Max number of k-points (npk) =  40000
     Max angular momentum in pseudopotentials (lmaxx) =  3
     file Pd.pbe-spn-kjpaw_psl.1.0.0.UPF: wavefunction(s)  4S 5S 4D renormalized

     Subspace diagonalization in iterative solution of the eigenvalue problem:
     one sub-group per band group will be used
     ELPA distributed-memory algorithm (size of sub-group:  8*  8 procs)

     Found symmetry operation: I + (  0.2500  0.2500  0.0000)
     This is a supercell, fractional translations are disabled
     Message from routine setup:
     using ibrav=0 with symmetry is DISCOURAGED, use correct ibrav instead
 
     Parallelization info
     --------------------
     sticks:   dense  smooth     PW     G-vecs:    dense   smooth      PW
     Min         104      68     18                 7898     4232     594
     Max         105      69     19                 7907     4243     605
     Sum        7521    4957   1353               568897   305169   43167
 


     bravais-lattice index     =            0
     lattice parameter (alat)  =      14.8394  a.u.
     unit-cell volume          =    3778.3530 (a.u.)^3
     number of atoms/cell      =           32
     number of atomic types    =            1
     number of electrons       =       576.00
     number of Kohn-Sham states=          346
     kinetic-energy cutoff     =      71.0000  Ry
     charge density cutoff     =     430.0000  Ry
     scf convergence threshold =      1.0E-06
     mixing beta               =       0.1000
     number of iterations used =           10  TF        mixing
     energy convergence thresh.=      1.0E-04
     force convergence thresh. =      1.0E-03
     Exchange-correlation= SLA  PW   PBX  PBC
                           (   1   4   3   4   0   0   0)
     nstep                     =           40


     celldm(1)=  14.839420  celldm(2)=   0.000000  celldm(3)=   0.000000
     celldm(4)=   0.000000  celldm(5)=   0.000000  celldm(6)=   0.000000

     crystal axes: (cart. coord. in units of alat)
               a(1) = (   1.000000   0.000000   0.000000 )  
               a(2) = (   0.000000   1.000000   0.000000 )  
               a(3) = (   0.000000   0.000000   1.156250 )  

     reciprocal axes: (cart. coord. in units 2 pi/alat)
               b(1) = (  1.000000  0.000000  0.000000 )  
               b(2) = (  0.000000  1.000000  0.000000 )  
               b(3) = (  0.000000  0.000000  0.864865 )  


     PseudoPot. # 1 for Pd read from file:
     /rds/homes/b/bxp912/pp/Pd.pbe-spn-kjpaw_psl.1.0.0.UPF
     MD5 check sum: 790f2ebce206edfd9790dcb9844eca51
     Pseudo is Projector augmented-wave + core cor, Zval = 18.0
     Generated using &quot;atomic&quot; code by A. Dal Corso  v.6.3
     Shape of augmentation charge: PSQ
     Using radial grid of 1235 points,  6 beta functions with: 
                l(1) =   0
                l(2) =   0
                l(3) =   1
                l(4) =   1
                l(5) =   2
                l(6) =   2
     Q(r) pseudized with 0 coefficients 


     atomic species   valence    mass     pseudopotential
        Pd            18.00   106.42000     Pd( 1.00)

      8 Sym. Ops. (no inversion) found



   Cartesian axes

     site n.     atom                  positions (alat units)
         1           Pd  tau(   1) = (   0.0000000   0.0000000   0.0000000  )
         2           Pd  tau(   2) = (   0.2500000   0.2500000   0.0000000  )
         3           Pd  tau(   3) = (   0.2500000   0.0000000   0.2500000  )
         4           Pd  tau(   4) = (   0.0000000   0.2500000   0.2500000  )
         5           Pd  tau(   5) = (   0.0000000   0.0000000   0.6562500  )
         6           Pd  tau(   6) = (   0.2500000   0.2500000   0.6562500  )
         7           Pd  tau(   7) = (   0.2500000   0.0000000   0.9062500  )
         8           Pd  tau(   8) = (   0.0000000   0.2500000   0.9062500  )
         9           Pd  tau(   9) = (   0.0000000   0.5000000   0.0000000  )
        10           Pd  tau(  10) = (   0.2500000   0.7500000   0.0000000  )
        11           Pd  tau(  11) = (   0.2500000   0.5000000   0.2500000  )
        12           Pd  tau(  12) = (   0.0000000   0.7500000   0.2500000  )
        13           Pd  tau(  13) = (   0.0000000   0.5000000   0.6562500  )
        14           Pd  tau(  14) = (   0.2500000   0.7500000   0.6562500  )
        15           Pd  tau(  15) = (   0.2500000   0.5000000   0.9062500  )
        16           Pd  tau(  16) = (   0.0000000   0.7500000   0.9062500  )
        17           Pd  tau(  17) = (   0.5000000   0.0000000   0.0000000  )
        18           Pd  tau(  18) = (   0.7500000   0.2500000   0.0000000  )
        19           Pd  tau(  19) = (   0.7500000   0.0000000   0.2500000  )
        20           Pd  tau(  20) = (   0.5000000   0.2500000   0.2500000  )
        21           Pd  tau(  21) = (   0.5000000   0.0000000   0.6562500  )
        22           Pd  tau(  22) = (   0.7500000   0.2500000   0.6562500  )
        23           Pd  tau(  23) = (   0.7500000   0.0000000   0.9062500  )
        24           Pd  tau(  24) = (   0.5000000   0.2500000   0.9062500  )
        25           Pd  tau(  25) = (   0.5000000   0.5000000   0.0000000  )
        26           Pd  tau(  26) = (   0.7500000   0.7500000   0.0000000  )
        27           Pd  tau(  27) = (   0.7500000   0.5000000   0.2500000  )
        28           Pd  tau(  28) = (   0.5000000   0.7500000   0.2500000  )
        29           Pd  tau(  29) = (   0.5000000   0.5000000   0.6562500  )
        30           Pd  tau(  30) = (   0.7500000   0.7500000   0.6562500  )
        31           Pd  tau(  31) = (   0.7500000   0.5000000   0.9062500  )
        32           Pd  tau(  32) = (   0.5000000   0.7500000   0.9062500  )

     number of k points=    75  Marzari-Vanderbilt smearing, width (Ry)=  0.0400
                       cart. coord. in units 2pi/alat
        k(    1) = (   0.0555556   0.0555556   0.0480480), wk =   0.0219479
        k(    2) = (   0.0555556   0.0555556   0.1441441), wk =   0.0219479
        k(    3) = (   0.0555556   0.0555556   0.2402402), wk =   0.0219479
        k(    4) = (   0.0555556   0.0555556   0.3363363), wk =   0.0219479
        k(    5) = (   0.0555556   0.0555556  -0.4324324), wk =   0.0109739
        k(    6) = (   0.0555556   0.1666667   0.0480480), wk =   0.0438957
        k(    7) = (   0.0555556   0.1666667   0.1441441), wk =   0.0438957
        k(    8) = (   0.0555556   0.1666667   0.2402402), wk =   0.0438957
        k(    9) = (   0.0555556   0.1666667   0.3363363), wk =   0.0438957
        k(   10) = (   0.0555556   0.1666667  -0.4324324), wk =   0.0219479
        k(   11) = (   0.0555556   0.2777778   0.0480480), wk =   0.0438957
        k(   12) = (   0.0555556   0.2777778   0.1441441), wk =   0.0438957
        k(   13) = (   0.0555556   0.2777778   0.2402402), wk =   0.0438957
        k(   14) = (   0.0555556   0.2777778   0.3363363), wk =   0.0438957
        k(   15) = (   0.0555556   0.2777778  -0.4324324), wk =   0.0219479
        k(   16) = (   0.0555556   0.3888889   0.0480480), wk =   0.0438957
        k(   17) = (   0.0555556   0.3888889   0.1441441), wk =   0.0438957
        k(   18) = (   0.0555556   0.3888889   0.2402402), wk =   0.0438957
        k(   19) = (   0.0555556   0.3888889   0.3363363), wk =   0.0438957
        k(   20) = (   0.0555556   0.3888889  -0.4324324), wk =   0.0219479
        k(   21) = (   0.0555556  -0.5000000   0.0480480), wk =   0.0219479
        k(   22) = (   0.0555556  -0.5000000   0.1441441), wk =   0.0219479
        k(   23) = (   0.0555556  -0.5000000   0.2402402), wk =   0.0219479
        k(   24) = (   0.0555556  -0.5000000   0.3363363), wk =   0.0219479
        k(   25) = (   0.0555556  -0.5000000  -0.4324324), wk =   0.0109739
        k(   26) = (   0.1666667   0.1666667   0.0480480), wk =   0.0219479
        k(   27) = (   0.1666667   0.1666667   0.1441441), wk =   0.0219479
        k(   28) = (   0.1666667   0.1666667   0.2402402), wk =   0.0219479
        k(   29) = (   0.1666667   0.1666667   0.3363363), wk =   0.0219479
        k(   30) = (   0.1666667   0.1666667  -0.4324324), wk =   0.0109739
        k(   31) = (   0.1666667   0.2777778   0.0480480), wk =   0.0438957
        k(   32) = (   0.1666667   0.2777778   0.1441441), wk =   0.0438957
        k(   33) = (   0.1666667   0.2777778   0.2402402), wk =   0.0438957
        k(   34) = (   0.1666667   0.2777778   0.3363363), wk =   0.0438957
        k(   35) = (   0.1666667   0.2777778  -0.4324324), wk =   0.0219479
        k(   36) = (   0.1666667   0.3888889   0.0480480), wk =   0.0438957
        k(   37) = (   0.1666667   0.3888889   0.1441441), wk =   0.0438957
        k(   38) = (   0.1666667   0.3888889   0.2402402), wk =   0.0438957
        k(   39) = (   0.1666667   0.3888889   0.3363363), wk =   0.0438957
        k(   40) = (   0.1666667   0.3888889  -0.4324324), wk =   0.0219479
        k(   41) = (   0.1666667  -0.5000000   0.0480480), wk =   0.0219479
        k(   42) = (   0.1666667  -0.5000000   0.1441441), wk =   0.0219479
        k(   43) = (   0.1666667  -0.5000000   0.2402402), wk =   0.0219479
        k(   44) = (   0.1666667  -0.5000000   0.3363363), wk =   0.0219479
        k(   45) = (   0.1666667  -0.5000000  -0.4324324), wk =   0.0109739
        k(   46) = (   0.2777778   0.2777778   0.0480480), wk =   0.0219479
        k(   47) = (   0.2777778   0.2777778   0.1441441), wk =   0.0219479
        k(   48) = (   0.2777778   0.2777778   0.2402402), wk =   0.0219479
        k(   49) = (   0.2777778   0.2777778   0.3363363), wk =   0.0219479
        k(   50) = (   0.2777778   0.2777778  -0.4324324), wk =   0.0109739
        k(   51) = (   0.2777778   0.3888889   0.0480480), wk =   0.0438957
        k(   52) = (   0.2777778   0.3888889   0.1441441), wk =   0.0438957
        k(   53) = (   0.2777778   0.3888889   0.2402402), wk =   0.0438957
        k(   54) = (   0.2777778   0.3888889   0.3363363), wk =   0.0438957
        k(   55) = (   0.2777778   0.3888889  -0.4324324), wk =   0.0219479
        k(   56) = (   0.2777778  -0.5000000   0.0480480), wk =   0.0219479
        k(   57) = (   0.2777778  -0.5000000   0.1441441), wk =   0.0219479
        k(   58) = (   0.2777778  -0.5000000   0.2402402), wk =   0.0219479
        k(   59) = (   0.2777778  -0.5000000   0.3363363), wk =   0.0219479
        k(   60) = (   0.2777778  -0.5000000  -0.4324324), wk =   0.0109739
        k(   61) = (   0.3888889   0.3888889   0.0480480), wk =   0.0219479
        k(   62) = (   0.3888889   0.3888889   0.1441441), wk =   0.0219479
        k(   63) = (   0.3888889   0.3888889   0.2402402), wk =   0.0219479
        k(   64) = (   0.3888889   0.3888889   0.3363363), wk =   0.0219479
        k(   65) = (   0.3888889   0.3888889  -0.4324324), wk =   0.0109739
        k(   66) = (   0.3888889  -0.5000000   0.0480480), wk =   0.0219479
        k(   67) = (   0.3888889  -0.5000000   0.1441441), wk =   0.0219479
        k(   68) = (   0.3888889  -0.5000000   0.2402402), wk =   0.0219479
        k(   69) = (   0.3888889  -0.5000000   0.3363363), wk =   0.0219479
        k(   70) = (   0.3888889  -0.5000000  -0.4324324), wk =   0.0109739
        k(   71) = (  -0.5000000  -0.5000000   0.0480480), wk =   0.0054870
        k(   72) = (  -0.5000000  -0.5000000   0.1441441), wk =   0.0054870
        k(   73) = (  -0.5000000  -0.5000000   0.2402402), wk =   0.0054870
        k(   74) = (  -0.5000000  -0.5000000   0.3363363), wk =   0.0054870
        k(   75) = (  -0.5000000  -0.5000000  -0.4324324), wk =   0.0027435

     Dense  grid:   568897 G-vectors     FFT dimensions: ( 100, 100, 120)

     Smooth grid:   305169 G-vectors     FFT dimensions: (  80,  80,  96)

     Estimated max dynamical RAM per process >     258.03 MB

     Estimated total dynamical RAM >      18.14 GB

     Check: negative core charge=   -0.000001

     Initial potential from superposition of free atoms

     starting charge  575.98776, renormalised to  576.00000
     Starting wfcs are  320 randomized atomic wfcs +   26 random wfcs
     Checking if some PAW data can be deallocated... 

     total cpu time spent up to now is       25.2 secs

     Self-consistent Calculation

     iteration #  1     ecut=    71.00 Ry     beta= 0.10
     Davidson diagonalization with overlap
     ethr =  1.00E-02,  avg # of iterations =  3.2

     Threshold (ethr) on eigenvalues was too large:
     Diagonalizing with lowered threshold

     Davidson diagonalization with overlap
     ethr =  4.49E-04,  avg # of iterations =  1.5

     total cpu time spent up to now is      182.3 secs

     total energy              =  -16384.76914836 Ry
     estimated scf accuracy    <       2.57179063 Ry

     iteration #  2     ecut=    71.00 Ry     beta= 0.10
     Davidson diagonalization with overlap
     ethr =  4.46E-04,  avg # of iterations =  1.3

     total cpu time spent up to now is      248.5 secs

     total energy              =  -16384.36342539 Ry
     estimated scf accuracy    <       2.17918159 Ry

     iteration #  3     ecut=    71.00 Ry     beta= 0.10
     Davidson diagonalization with overlap
     ethr =  3.78E-04,  avg # of iterations =  2.2

     total cpu time spent up to now is      320.8 secs

     total energy              =  -16384.36205478 Ry
     estimated scf accuracy    <       1.02338804 Ry

     iteration #  4     ecut=    71.00 Ry     beta= 0.10
     Davidson diagonalization with overlap
     ethr =  1.78E-04,  avg # of iterations =  3.7

     total cpu time spent up to now is      396.2 secs

     total energy              =  -16384.43534374 Ry
     estimated scf accuracy    <       0.22444375 Ry

     iteration #  5     ecut=    71.00 Ry     beta= 0.10
     Davidson diagonalization with overlap
     ethr =  3.90E-05,  avg # of iterations =  4.1

     total cpu time spent up to now is      473.3 secs

     total energy              =  -16384.31949133 Ry
     estimated scf accuracy    <       0.31851774 Ry

     iteration #  6     ecut=    71.00 Ry     beta= 0.10
     Davidson diagonalization with overlap
     ethr =  3.90E-05,  avg # of iterations =  4.7

     total cpu time spent up to now is      568.5 secs

     total energy              =  -16384.34894252 Ry
     estimated scf accuracy    <       0.02963898 Ry

     iteration #  7     ecut=    71.00 Ry     beta= 0.10
     Davidson diagonalization with overlap
     ethr =  5.15E-06,  avg # of iterations =  7.0

     total cpu time spent up to now is      670.2 secs

     total energy              =  -16384.35057998 Ry
     estimated scf accuracy    <       0.01399171 Ry

     iteration #  8     ecut=    71.00 Ry     beta= 0.10
     Davidson diagonalization with overlap
     c_bands:  2 eigenvalues not converged
     ethr =  2.43E-06,  avg # of iterations =  1.5

     total cpu time spent up to now is      737.7 secs

     total energy              =  -16384.35054714 Ry
     estimated scf accuracy    <       0.00757272 Ry

     iteration #  9     ecut=    71.00 Ry     beta= 0.10
     Davidson diagonalization with overlap
     c_bands:  1 eigenvalues not converged
     ethr =  1.31E-06,  avg # of iterations =  1.7

     total cpu time spent up to now is      807.2 secs

     total energy              =  -16384.35120321 Ry
     estimated scf accuracy    <       0.00080203 Ry

     iteration # 10     ecut=    71.00 Ry     beta= 0.10
     Davidson diagonalization with overlap
     ethr =  1.39E-07,  avg # of iterations =  2.1

     total cpu time spent up to now is      882.5 secs

     total energy              =  -16384.35126810 Ry
     estimated scf accuracy    <       0.00040014 Ry

     iteration # 11     ecut=    71.00 Ry     beta= 0.10
     Davidson diagonalization with overlap
     ethr =  6.95E-08,  avg # of iterations =  1.0

     total cpu time spent up to now is      947.6 secs

     total energy              =  -16384.35140885 Ry
     estimated scf accuracy    <       0.00021942 Ry

     iteration # 12     ecut=    71.00 Ry     beta= 0.10
     Davidson diagonalization with overlap
     ethr =  3.81E-08,  avg # of iterations =  2.0

     total cpu time spent up to now is     1028.1 secs

     total energy              =  -16384.35144055 Ry
     estimated scf accuracy    <       0.00008408 Ry

     iteration # 13     ecut=    71.00 Ry     beta= 0.10
     Davidson diagonalization with overlap
     ethr =  1.46E-08,  avg # of iterations =  1.3

     total cpu time spent up to now is     1099.1 secs

     total energy              =  -16384.35144360 Ry
     estimated scf accuracy    <       0.00003280 Ry

     iteration # 14     ecut=    71.00 Ry     beta= 0.10
     Davidson diagonalization with overlap
     ethr =  5.70E-09,  avg # of iterations =  2.0

     total cpu time spent up to now is     1177.0 secs

     total energy              =  -16384.35144839 Ry
     estimated scf accuracy    <       0.00002367 Ry

     iteration # 15     ecut=    71.00 Ry     beta= 0.10
     Davidson diagonalization with overlap
     ethr =  4.11E-09,  avg # of iterations =  2.0

     total cpu time spent up to now is     1251.5 secs

     total energy              =  -16384.35145004 Ry
     estimated scf accuracy    <       0.00000436 Ry

     iteration # 16     ecut=    71.00 Ry     beta= 0.10
     Davidson diagonalization with overlap
     ethr =  7.58E-10,  avg # of iterations =  2.1

     total cpu time spent up to now is     1337.9 secs

     total energy              =  -16384.35145181 Ry
     estimated scf accuracy    <       0.00000134 Ry

     iteration # 17     ecut=    71.00 Ry     beta= 0.10
     Davidson diagonalization with overlap
     ethr =  2.33E-10,  avg # of iterations =  1.0

     total cpu time spent up to now is     1403.3 secs

     End of self-consistent calculation

          k = 0.0556 0.0556 0.0480 ( 38120 PWs)   bands (ev):

   -68.2673 -68.2451 -68.2450 -68.2408 -68.2408 -68.2362 -68.2353 -68.2346
   -68.2346 -68.2334 -68.2276 -68.2276 -68.2262 -68.2261 -68.2189 -68.2189
   -67.7575 -67.7572 -67.7431 -67.7431 -67.7430 -67.7430 -67.7419 -67.7419
   -67.7416 -67.7416 -67.7404 -67.7404 -67.7403 -67.7403 -67.7259 -67.7259
   -34.1044 -34.1044 -34.1042 -34.1028 -34.0931 -34.0931 -34.0746 -34.0421
   -34.0421 -34.0405 -34.0405 -34.0106 -34.0105 -33.9983 -33.9983 -33.9888
   -33.9888 -33.9887 -33.9887 -33.9778 -33.9777 -33.9411 -33.9411 -33.9376
   -33.9376 -33.9369 -33.9321 -33.9320 -33.9282 -33.9282 -33.9266 -33.9129
   -33.9129 -33.9075 -33.8984 -33.8984 -33.8951 -33.8920 -33.8769 -33.8769
   -33.8720 -33.8720 -33.8448 -33.8431 -33.8431 -33.8387 -33.8270 -33.8254
   -33.6031 -33.6031 -33.6025 -33.6013 -33.5939 -33.5939 -33.5907 -33.5907
   -33.5233 -33.5233 -33.5229 -33.5229 -33.5082 -33.5082 -33.5082 -33.5082
   -33.5063 -33.5063 -33.5055 -33.5055 -33.4911 -33.4911 -33.4906 -33.4906
   -33.4213 -33.4202 -33.4197 -33.4186 -33.4078 -33.4078 -33.4064 -33.4063
   -33.3910 -33.3809 -33.3751 -33.3751 -33.3731 -33.3731 -33.3730 -33.3728
   -33.3728 -33.3728 -33.3727 -33.3727 -33.3711 -33.3711 -33.3633 -33.3633
     9.4598  10.8667  11.0465  11.0465  11.1110  11.1190  11.1238  11.1238
    11.2019  11.3161  11.3247  11.3247  11.3928  11.3928  11.5805  11.5805
    11.5986  11.8909  12.0213  12.0213  12.0249  12.0249  12.0502  12.0502
    12.0800  12.0800  12.1630  12.1630  12.1894  12.1978  12.2113  12.2113
    12.2915  12.2915  12.3578  12.3578  12.3829  12.3829  12.4546  12.4546
    12.5155  12.5155  12.5475  12.5475  12.5819  12.6682  12.6682  12.6844
    12.6844  12.8269  12.8270  12.9117  12.9567  12.9567  12.9816  12.9816
    13.0158  13.0280  13.0280  13.0421  13.1880  13.1880  13.1969  13.2074
    13.2308  13.2308  13.3567  13.3567  13.3581  13.3581  13.3672  13.3672
    13.3736  13.3766  13.4119  13.4119  13.4156  13.4251  13.6344  13.6381
    13.6381  13.6778  13.7936  13.7936  13.8344  13.8344  13.8825  14.0220
    14.0220  14.0419  14.0419  14.1459  14.1459  14.1628  14.1790  14.2091
    14.2091  14.2114  14.2114  14.2605  14.2605  14.2713  14.2713  14.3173
    14.3434  14.3434  14.3445  14.3487  14.3487  14.4491  14.4491  14.4494
    14.4921  14.4921  14.5755  14.5833  14.5833  14.7096  14.7096  14.8179
    14.8649  14.8649  14.8778  14.8778  14.9470  14.9470  14.9596  14.9596
    15.0797  15.0797  15.0905  15.0905  15.1169  15.1169  15.1260  15.1563
    15.1729  15.1729  15.1927  15.1927  15.2547  15.2672  15.3304  15.5003
    15.6018  15.6018  15.6112  15.6112  15.6675  15.6675  15.6862  15.6935
    15.7114  15.7118  15.7118  15.7585  15.8365  15.9029  15.9029  15.9100
    15.9100  15.9225  15.9882  16.0747  16.0747  16.4490  16.4490  16.9869
    16.9869  17.1503  17.4180  17.4180  17.4482  17.4597  17.4597  17.7014
    17.7028  17.7028  18.2193  18.2193  18.2409  18.2409  18.3210  18.7733
    19.9662  19.9662  21.2276  21.5863  21.5863  21.6105  21.7182  22.5274
    22.5274  23.0839  23.0839  23.1344  23.1344  23.3920  23.3920  23.8892
    23.8892  24.5615  24.5615  24.6121  24.6121  25.1890  25.2510  25.2510
    25.4717  25.4717  25.5533  25.9068  25.9068  26.3680  26.3680  26.9381
    26.9480  26.9729

          k = 0.0556 0.0556 0.1441 ( 38149 PWs)   bands (ev):

   -68.2673 -68.2451 -68.2450 -68.2408 -68.2408 -68.2362 -68.2353 -68.2346
   -68.2346 -68.2334 -68.2276 -68.2276 -68.2262 -68.2261 -68.2189 -68.2189
   -67.7575 -67.7572 -67.7431 -67.7431 -67.7430 -67.7430 -67.7419 -67.7419
   -67.7416 -67.7416 -67.7404 -67.7404 -67.7403 -67.7403 -67.7259 -67.7259
   -34.1044 -34.1044 -34.1043 -34.1028 -34.0931 -34.0931 -34.0746 -34.0421
   -34.0421 -34.0405 -34.0405 -34.0106 -34.0105 -33.9983 -33.9982 -33.9888
   -33.9888 -33.9888 -33.9888 -33.9778 -33.9777 -33.9411 -33.9411 -33.9378
   -33.9377 -33.9369 -33.9321 -33.9320 -33.9282 -33.9282 -33.9266 -33.9129
   -33.9129 -33.9075 -33.8984 -33.8984 -33.8951 -33.8920 -33.8770 -33.8769
   -33.8720 -33.8720 -33.8449 -33.8430 -33.8430 -33.8388 -33.8270 -33.8254
   -33.6031 -33.6031 -33.6025 -33.6013 -33.5938 -33.5938 -33.5909 -33.5909
   -33.5232 -33.5232 -33.5229 -33.5229 -33.5083 -33.5083 -33.5080 -33.5080
   -33.5063 -33.5063 -33.5056 -33.5056 -33.4911 -33.4911 -33.4907 -33.4907
   -33.4212 -33.4202 -33.4197 -33.4187 -33.4077 -33.4077 -33.4065 -33.4065
   -33.3904 -33.3815 -33.3752 -33.3752 -33.3732 -33.3732 -33.3732 -33.3728
   -33.3728 -33.3727 -33.3725 -33.3725 -33.3709 -33.3709 -33.3635 -33.3635
     9.4842  10.8378  11.0527  11.0527  11.1171  11.1278  11.1316  11.1316
    11.2034  11.2329  11.3313  11.3313  11.4036  11.4036  11.5903  11.5903
    11.6439  11.8843  12.0085  12.0085  12.0270  12.0270  12.0535  12.0535
    12.0805  12.0805  12.1535  12.1557  12.1557  12.1740  12.1797  12.1797
    12.2920  12.2920  12.3525  12.3525  12.3814  12.3814  12.4655  12.4656
    12.4813  12.4813  12.5462  12.5462  12.5931  12.6654  12.6654  12.6798
    12.6798  12.8264  12.8264  12.8958  12.9470  12.9470  12.9751  12.9751
    13.0124  13.0143  13.0143  13.0357  13.1863  13.1863  13.1911  13.1911
    13.1964  13.2019  13.3102  13.3102  13.3751  13.3751  13.3751  13.3786
    13.3905  13.3905  13.4183  13.4283  13.4521  13.4521  13.7171  13.7171
    13.7300  13.7628  13.8333  13.8333  13.8620  13.8620  13.8846  14.0171
    14.0171  14.0321  14.0321  14.0399  14.0399  14.1348  14.1348  14.1560
    14.1736  14.2071  14.2071  14.2401  14.2401  14.3025  14.3074  14.3228
    14.3228  14.3743  14.3743  14.4061  14.4062  14.4861  14.4861  14.5048
    14.5048  14.5294  14.5975  14.5975  14.6837  14.7082  14.7082  14.7980
    14.7980  14.8180  14.8384  14.8384  14.9756  14.9756  14.9773  14.9774
    15.1102  15.1102  15.1379  15.1409  15.1409  15.1684  15.1684  15.1699
    15.1889  15.1890  15.2768  15.2973  15.3244  15.3244  15.3429  15.3874
    15.4966  15.4966  15.5431  15.5431  15.5601  15.6467  15.6467  15.6948
    15.7030  15.7149  15.7149  15.7538  15.8348  15.8829  15.8829  15.8898
    15.8898  15.9057  15.9732  16.0755  16.0755  16.4495  16.4495  16.7190
    16.7190  17.1443  17.1462  17.1462  17.5468  17.5468  17.5903  17.7515
    17.9380  18.0469  18.0469  18.1962  18.1962  18.5808  18.5808  18.7461
    20.0733  20.0733  21.5808  21.6012  21.6413  21.6413  21.7647  21.7647
    21.8188  22.3117  22.3117  22.8486  22.8486  24.2043  24.2043  24.5855
    24.5855  24.7487  24.7609  24.7609  24.8964  24.8964  25.1076  25.1076
    25.3249  25.3249  25.4506  25.9196  25.9196  26.3634  26.3634  26.5873
    26.5874  26.9964

          k = 0.0556 0.0556 0.2402 ( 38160 PWs)   bands (ev):

   -68.2673 -68.2451 -68.2450 -68.2408 -68.2408 -68.2362 -68.2353 -68.2346
   -68.2346 -68.2334 -68.2276 -68.2276 -68.2262 -68.2261 -68.2189 -68.2189
   -67.7575 -67.7572 -67.7431 -67.7431 -67.7430 -67.7430 -67.7419 -67.7419
   -67.7416 -67.7416 -67.7404 -67.7404 -67.7403 -67.7403 -67.7259 -67.7259
   -34.1044 -34.1044 -34.1043 -34.1027 -34.0931 -34.0931 -34.0748 -34.0421
   -34.0421 -34.0405 -34.0405 -34.0105 -34.0105 -33.9983 -33.9983 -33.9888
   -33.9888 -33.9888 -33.9887 -33.9777 -33.9777 -33.9411 -33.9410 -33.9377
   -33.9377 -33.9369 -33.9321 -33.9321 -33.9282 -33.9282 -33.9267 -33.9129
   -33.9129 -33.9077 -33.8984 -33.8984 -33.8951 -33.8921 -33.8769 -33.8769
   -33.8720 -33.8720 -33.8449 -33.8431 -33.8430 -33.8388 -33.8270 -33.8255
   -33.6031 -33.6031 -33.6025 -33.6013 -33.5935 -33.5935 -33.5911 -33.5911
   -33.5232 -33.5232 -33.5229 -33.5229 -33.5084 -33.5084 -33.5079 -33.5079
   -33.5062 -33.5062 -33.5057 -33.5057 -33.4911 -33.4911 -33.4907 -33.4907
   -33.4212 -33.4203 -33.4196 -33.4188 -33.4078 -33.4078 -33.4065 -33.4065
   -33.3895 -33.3827 -33.3755 -33.3755 -33.3734 -33.3734 -33.3733 -33.3727
   -33.3727 -33.3725 -33.3723 -33.3723 -33.3707 -33.3707 -33.3635 -33.3635
     9.5250  10.7759  11.0624  11.0624  11.1285  11.1403  11.1439  11.1439
    11.1547  11.2061  11.3416  11.3416  11.4209  11.4209  11.6059  11.6059
    11.6808  11.8743  11.9888  11.9888  12.0303  12.0303  12.0583  12.0583
    12.0809  12.0809  12.1075  12.1316  12.1331  12.1331  12.1435  12.1435
    12.2933  12.2933  12.3468  12.3468  12.3785  12.3785  12.4322  12.4322
    12.4813  12.4813  12.5435  12.5435  12.6106  12.6609  12.6610  12.6724
    12.6724  12.8249  12.8250  12.8779  12.9362  12.9362  12.9676  12.9676
    12.9944  12.9944  13.0083  13.0254  13.1410  13.1410  13.1841  13.1841
    13.1907  13.2006  13.2610  13.2610  13.3776  13.3816  13.3834  13.3834
    13.4228  13.4333  13.4363  13.4363  13.4921  13.4921  13.8315  13.8315
    13.8439  13.8439  13.8894  13.8942  13.8982  13.9355  13.9355  13.9707
    13.9707  14.0095  14.0095  14.0274  14.0274  14.0285  14.0285  14.1463
    14.1649  14.2106  14.2106  14.2392  14.2392  14.2720  14.2805  14.3314
    14.3314  14.4230  14.4230  14.4605  14.4605  14.5183  14.5183  14.5308
    14.5489  14.5489  14.6234  14.6234  14.7021  14.7021  14.7481  14.7481
    14.7879  14.7879  14.8182  14.9603  14.9603  14.9701  15.0228  15.0229
    15.1253  15.1253  15.1567  15.1582  15.1582  15.1797  15.1797  15.1865
    15.2187  15.2916  15.3500  15.3509  15.3509  15.3674  15.3773  15.3773
    15.3905  15.4360  15.4360  15.5320  15.5320  15.6087  15.6087  15.6900
    15.6963  15.7078  15.7078  15.7459  15.8326  15.8499  15.8499  15.8562
    15.8562  15.8808  15.9486  16.0764  16.0764  16.4211  16.4211  16.4503
    16.4503  16.8326  16.8326  17.2091  17.3750  17.5837  17.6829  17.6829
    17.9781  18.1487  18.1487  18.4953  18.4953  18.6871  19.0303  19.0303
    20.2586  20.2586  21.0368  21.0368  21.5882  21.5882  21.6069  21.7356
    21.7356  21.9028  22.1119  22.4779  22.4779  24.3969  24.6860  24.6860
    24.7502  24.7502  24.9990  24.9990  25.0671  25.2623  25.2623  25.4738
    25.4738  25.5139  25.5139  25.9391  25.9391  26.2507  26.2508  26.3595
    26.3595  26.8259

          k = 0.0556 0.0556 0.3363 ( 38156 PWs)   bands (ev):

   -68.2673 -68.2451 -68.2450 -68.2408 -68.2408 -68.2362 -68.2353 -68.2346
   -68.2346 -68.2334 -68.2276 -68.2276 -68.2262 -68.2261 -68.2189 -68.2189
   -67.7575 -67.7572 -67.7431 -67.7431 -67.7430 -67.7430 -67.7419 -67.7419
   -67.7416 -67.7416 -67.7404 -67.7404 -67.7403 -67.7403 -67.7259 -67.7259
   -34.1044 -34.1043 -34.1043 -34.1027 -34.0932 -34.0932 -34.0749 -34.0421
   -34.0421 -34.0405 -34.0405 -34.0105 -34.0105 -33.9983 -33.9982 -33.9888
   -33.9888 -33.9888 -33.9888 -33.9777 -33.9777 -33.9411 -33.9410 -33.9377
   -33.9377 -33.9370 -33.9321 -33.9321 -33.9282 -33.9282 -33.9267 -33.9129
   -33.9129 -33.9078 -33.8984 -33.8984 -33.8952 -33.8921 -33.8769 -33.8768
   -33.8720 -33.8720 -33.8449 -33.8431 -33.8430 -33.8388 -33.8271 -33.8255
   -33.6031 -33.6031 -33.6025 -33.6013 -33.5932 -33.5932 -33.5914 -33.5914
   -33.5231 -33.5231 -33.5229 -33.5229 -33.5085 -33.5085 -33.5079 -33.5079
   -33.5060 -33.5060 -33.5058 -33.5058 -33.4911 -33.4911 -33.4908 -33.4908
   -33.4210 -33.4205 -33.4194 -33.4190 -33.4078 -33.4078 -33.4065 -33.4065
   -33.3880 -33.3843 -33.3757 -33.3757 -33.3735 -33.3735 -33.3734 -33.3728
   -33.3728 -33.3724 -33.3720 -33.3720 -33.3705 -33.3705 -33.3634 -33.3634
     9.5653  10.7049  11.0712  11.0712  11.1148  11.1406  11.1503  11.1552
    11.1552  11.2083  11.3511  11.3511  11.4369  11.4369  11.6204  11.6204
    11.6998  11.8656  11.9714  11.9714  12.0331  12.0331  12.0619  12.0619
    12.0724  12.0808  12.0808  12.0914  12.0936  12.0936  12.1322  12.1322
    12.2951  12.2951  12.3435  12.3435  12.3754  12.3754  12.3916  12.3916
    12.4953  12.4953  12.5399  12.5399  12.6264  12.6569  12.6569  12.6654
    12.6654  12.8230  12.8230  12.8664  12.9294  12.9294  12.9645  12.9645
    12.9778  12.9778  13.0056  13.0158  13.0994  13.0994  13.1823  13.1823
    13.1849  13.2015  13.2236  13.2236  13.3800  13.3840  13.3890  13.3890
    13.4269  13.4378  13.4804  13.4804  13.5260  13.5260  13.8300  13.8300
    13.8631  13.8631  13.9070  13.9396  13.9396  13.9587  13.9587  14.0035
    14.0035  14.0198  14.0198  14.0322  14.0589  14.0740  14.0740  14.1381
    14.1571  14.2338  14.2338  14.2405  14.2405  14.2437  14.2619  14.3314
    14.3315  14.4642  14.4642  14.4985  14.4985  14.5243  14.5356  14.5356
    14.6125  14.6125  14.6397  14.6397  14.6913  14.6913  14.7255  14.7255
    14.7348  14.7348  14.8184  14.9329  14.9329  15.0136  15.0136  15.0611
    15.0677  15.0677  15.1365  15.1740  15.1972  15.2027  15.2027  15.2114
    15.2166  15.2167  15.3047  15.3299  15.3299  15.3358  15.3358  15.3949
    15.5493  15.5493  15.5686  15.5686  15.6021  15.6783  15.6963  15.6982
    15.6982  15.7382  15.7573  15.7573  15.8186  15.8186  15.8233  15.8233
    15.8310  15.8931  15.9247  16.0770  16.0770  16.1454  16.1454  16.4508
    16.4508  16.5469  16.5469  16.7729  17.3098  17.5196  17.8263  17.8263
    18.0761  18.0761  18.2230  18.5885  18.9858  18.9858  19.5170  19.5170
    20.3793  20.3793  20.4572  20.4572  20.9405  20.9405  21.6872  21.8320
    21.8320  21.9145  22.1587  22.1587  22.5436  24.2476  24.3684  24.3684
    24.6720  24.9174  24.9174  25.5435  25.5435  25.5733  25.5733  25.7734
    25.7734  25.7971  25.7971  25.9528  25.9528  26.3669  26.3669  26.3677
    26.3677  26.5867

          k = 0.0556 0.0556-0.4324 ( 38142 PWs)   bands (ev):

   -68.2673 -68.2451 -68.2450 -68.2408 -68.2408 -68.2362 -68.2353 -68.2346
   -68.2346 -68.2334 -68.2276 -68.2276 -68.2262 -68.2261 -68.2189 -68.2189
   -67.7575 -67.7573 -67.7431 -67.7431 -67.7430 -67.7430 -67.7419 -67.7419
   -67.7416 -67.7416 -67.7404 -67.7404 -67.7403 -67.7403 -67.7259 -67.7259
   -34.1043 -34.1043 -34.1042 -34.1027 -34.0932 -34.0932 -34.0750 -34.0422
   -34.0421 -34.0405 -34.0405 -34.0105 -34.0105 -33.9983 -33.9982 -33.9888
   -33.9888 -33.9887 -33.9887 -33.9777 -33.9777 -33.9410 -33.9410 -33.9376
   -33.9376 -33.9370 -33.9321 -33.9321 -33.9282 -33.9282 -33.9267 -33.9128
   -33.9128 -33.9078 -33.8984 -33.8983 -33.8952 -33.8922 -33.8768 -33.8768
   -33.8720 -33.8719 -33.8450 -33.8431 -33.8431 -33.8388 -33.8271 -33.8255
   -33.6031 -33.6031 -33.6025 -33.6013 -33.5931 -33.5931 -33.5916 -33.5916
   -33.5230 -33.5230 -33.5229 -33.5229 -33.5085 -33.5085 -33.5078 -33.5078
   -33.5059 -33.5059 -33.5058 -33.5058 -33.4911 -33.4911 -33.4908 -33.4908
   -33.4209 -33.4206 -33.4194 -33.4191 -33.4078 -33.4078 -33.4065 -33.4065
   -33.3868 -33.3857 -33.3758 -33.3758 -33.3736 -33.3736 -33.3734 -33.3727
   -33.3727 -33.3724 -33.3719 -33.3719 -33.3704 -33.3704 -33.3633 -33.3633
     9.5827  10.6732  11.0748  11.0748  11.1039  11.1462  11.1537  11.1599
    11.1599  11.2092  11.3550  11.3550  11.4435  11.4435  11.6262  11.6262
    11.7053  11.8623  11.9645  11.9645  12.0342  12.0342  12.0606  12.0630
    12.0630  12.0740  12.0783  12.0783  12.0806  12.0806  12.1276  12.1276
    12.2960  12.2960  12.3426  12.3426  12.3739  12.3739  12.3761  12.3761
    12.5014  12.5014  12.5378  12.5378  12.6327  12.6552  12.6553  12.6625
    12.6625  12.8221  12.8221  12.8626  12.9273  12.9273  12.9647  12.9647
    12.9715  12.9715  13.0048  13.0118  13.0826  13.0826  13.1816  13.1816
    13.1828  13.2019  13.2095  13.2095  13.3810  13.3849  13.3910  13.3910
    13.4286  13.4396  13.5007  13.5007  13.5408  13.5408  13.8294  13.8294
    13.8353  13.8353  13.9033  13.9033  13.9129  14.0010  14.0010  14.0011
    14.0011  14.0169  14.0169  14.0939  14.1181  14.1181  14.1350  14.1414
    14.1540  14.2327  14.2412  14.2412  14.2548  14.2580  14.2580  14.3309
    14.3309  14.4819  14.4819  14.5076  14.5076  14.5213  14.5523  14.5523
    14.6352  14.6352  14.6579  14.6579  14.6816  14.6816  14.6959  14.6960
    14.7269  14.7269  14.8185  14.9186  14.9186  14.9462  14.9462  14.9938
    15.0347  15.0855  15.0855  15.1810  15.2006  15.2212  15.2212  15.2322
    15.2322  15.2764  15.2951  15.2951  15.3099  15.3235  15.3235  15.4074
    15.5503  15.5504  15.6737  15.6917  15.6917  15.6940  15.6940  15.6959
    15.7292  15.7350  15.8028  15.8028  15.8091  15.8091  15.8307  15.8918
    15.8918  15.9144  15.9784  15.9784  16.0772  16.0772  16.1794  16.2475
    16.3955  16.3955  16.4510  16.4510  17.3887  17.4553  17.9231  17.9231
    18.0057  18.0057  18.3934  18.4724  19.3290  19.3290  19.8444  19.8444
    19.9803  19.9803  20.5522  20.5522  20.5594  20.5594  21.7597  21.8746
    21.8746  21.8749  22.0228  22.0228  22.7164  24.2489  24.2489  24.2844
    24.4416  25.0127  25.0127  25.6864  25.6864  25.6904  25.6904  25.7053
    25.7053  25.9529  25.9529  25.9619  25.9619  26.3789  26.3789  26.5903
    26.5904  26.6955

          k = 0.0556 0.1667 0.0480 ( 38159 PWs)   bands (ev):

   -68.2665 -68.2492 -68.2447 -68.2406 -68.2379 -68.2366 -68.2357 -68.2350
   -68.2330 -68.2323 -68.2290 -68.2278 -68.2264 -68.2248 -68.2196 -68.2191
   -67.7570 -67.7567 -67.7459 -67.7457 -67.7431 -67.7430 -67.7421 -67.7421
   -67.7414 -67.7414 -67.7404 -67.7403 -67.7376 -67.7376 -67.7263 -67.7263
   -34.1028 -34.1013 -34.1008 -34.0982 -34.0903 -34.0902 -34.0733 -34.0461
   -34.0455 -34.0454 -34.0426 -34.0296 -34.0245 -34.0183 -33.9962 -33.9913
   -33.9873 -33.9863 -33.9694 -33.9639 -33.9581 -33.9497 -33.9447 -33.9412
   -33.9392 -33.9371 -33.9350 -33.9333 -33.9273 -33.9271 -33.9213 -33.9174
   -33.9128 -33.9040 -33.8974 -33.8885 -33.8850 -33.8841 -33.8833 -33.8777
   -33.8728 -33.8686 -33.8502 -33.8496 -33.8445 -33.8376 -33.8319 -33.8269
   -33.6020 -33.6009 -33.5991 -33.5968 -33.5923 -33.5921 -33.5873 -33.5871
   -33.5396 -33.5394 -33.5377 -33.5371 -33.5255 -33.5249 -33.5214 -33.5205
   -33.4934 -33.4931 -33.4892 -33.4883 -33.4765 -33.4762 -33.4744 -33.4738
   -33.4255 -33.4245 -33.4209 -33.4198 -33.4123 -33.4122 -33.4082 -33.4081
   -33.3902 -33.3806 -33.3772 -33.3749 -33.3744 -33.3733 -33.3730 -33.3729
   -33.3728 -33.3727 -33.3725 -33.3712 -33.3712 -33.3695 -33.3637 -33.3636
     9.5304  10.9189  11.0828  11.0896  11.1087  11.1290  11.1472  11.1610
    11.1682  11.2414  11.3495  11.3526  11.3667  11.4042  11.5909  11.6444
    11.6533  11.9185  11.9231  11.9444  11.9460  11.9463  11.9547  12.0632
    12.0655  12.0764  12.0791  12.0971  12.1307  12.1727  12.1882  12.2034
    12.2264  12.2360  12.2839  12.2859  12.4027  12.4279  12.4292  12.4464
    12.4650  12.5130  12.5269  12.6021  12.6724  12.6904  12.7185  12.7245
    12.7881  12.8369  12.8444  12.8703  12.8987  12.9438  12.9867  12.9897
    13.0387  13.0406  13.0681  13.0738  13.1092  13.1621  13.1960  13.2021
    13.2226  13.2617  13.3324  13.3682  13.3684  13.3757  13.3948  13.3975
    13.4059  13.4343  13.4437  13.4682  13.4841  13.5336  13.5861  13.5928
    13.5986  13.6427  13.6619  13.7509  13.7558  13.7892  13.8255  13.8575
    13.9727  13.9741  14.0148  14.0738  14.1030  14.1445  14.1952  14.2021
    14.2180  14.2418  14.2580  14.2896  14.2940  14.2988  14.3132  14.3178
    14.3256  14.3405  14.3526  14.3717  14.4237  14.4471  14.4560  14.4962
    14.6087  14.6517  14.6587  14.6724  14.6805  14.7803  14.8230  14.8540
    14.9047  14.9105  14.9366  14.9377  14.9399  14.9445  15.0248  15.0467
    15.0516  15.0524  15.0835  15.1078  15.1414  15.1644  15.1770  15.2049
    15.2232  15.2369  15.2413  15.2537  15.2566  15.4061  15.4296  15.4465
    15.4683  15.5503  15.5631  15.5913  15.6094  15.6252  15.6439  15.6506
    15.6596  15.7134  15.7277  15.7384  15.7637  15.7988  15.8836  15.8841
    15.9028  15.9203  15.9432  15.9881  16.0077  16.3294  16.3679  16.6350
    16.9165  16.9731  17.1462  17.2184  17.4184  17.4525  17.5462  17.6589
    17.6963  17.8127  17.9428  18.2410  18.5923  18.8297  18.8389  19.3891
    19.5746  20.2096  21.2990  21.6470  21.7620  21.8347  21.9458  21.9953
    22.5735  22.5882  22.9473  23.1280  23.2933  23.4268  23.6203  23.7411
    23.7792  23.8534  23.9561  24.4166  24.4401  24.7239  24.8858  25.2187
    25.3913  25.5926  25.9159  26.0006  26.0382  26.3373  26.4044  26.5542
    26.5776  26.5873

          k = 0.0556 0.1667 0.1441 ( 38171 PWs)   bands (ev):

   -68.2665 -68.2492 -68.2447 -68.2406 -68.2379 -68.2366 -68.2357 -68.2350
   -68.2330 -68.2323 -68.2290 -68.2278 -68.2264 -68.2248 -68.2196 -68.2191
   -67.7570 -67.7568 -67.7459 -67.7457 -67.7431 -67.7430 -67.7421 -67.7421
   -67.7414 -67.7414 -67.7404 -67.7403 -67.7376 -67.7376 -67.7263 -67.7263
   -34.1028 -34.1012 -34.1008 -34.0981 -34.0903 -34.0902 -34.0733 -34.0461
   -34.0456 -34.0454 -34.0426 -34.0296 -34.0245 -34.0183 -33.9961 -33.9913
   -33.9873 -33.9862 -33.9694 -33.9639 -33.9581 -33.9497 -33.9448 -33.9413
   -33.9393 -33.9372 -33.9350 -33.9333 -33.9273 -33.9272 -33.9213 -33.9174
   -33.9127 -33.9039 -33.8974 -33.8885 -33.8850 -33.8841 -33.8833 -33.8777
   -33.8727 -33.8686 -33.8502 -33.8496 -33.8445 -33.8376 -33.8320 -33.8269
   -33.6020 -33.6009 -33.5990 -33.5968 -33.5923 -33.5920 -33.5873 -33.5872
   -33.5397 -33.5393 -33.5377 -33.5371 -33.5255 -33.5248 -33.5214 -33.5205
   -33.4935 -33.4929 -33.4891 -33.4884 -33.4765 -33.4761 -33.4743 -33.4738
   -33.4255 -33.4246 -33.4208 -33.4199 -33.4123 -33.4122 -33.4082 -33.4081
   -33.3897 -33.3812 -33.3774 -33.3752 -33.3742 -33.3736 -33.3732 -33.3729
   -33.3726 -33.3726 -33.3724 -33.3713 -33.3710 -33.3695 -33.3638 -33.3637
     9.5545  10.8914  11.0891  11.0954  11.1217  11.1333  11.1561  11.1669
    11.1767  11.2423  11.2846  11.3559  11.3586  11.4113  11.5967  11.6541
    11.6970  11.9169  11.9196  11.9414  11.9446  11.9455  11.9482  12.0499
    12.0529  12.0766  12.0831  12.0940  12.1148  12.1345  12.1740  12.1888
    12.2102  12.2108  12.2712  12.3019  12.4098  12.4288  12.4319  12.4453
    12.4779  12.4816  12.4936  12.6129  12.6649  12.6820  12.7155  12.7428
    12.7819  12.8163  12.8318  12.8643  12.8914  12.9262  12.9819  12.9886
    13.0128  13.0397  13.0614  13.0669  13.1143  13.1581  13.2025  13.2036
    13.2176  13.2414  13.3685  13.3709  13.3845  13.3932  13.3977  13.3993
    13.4020  13.4352  13.4423  13.4687  13.4748  13.5703  13.6391  13.6527
    13.6607  13.6654  13.7128  13.7947  13.8157  13.8230  13.8503  13.8552
    13.9679  13.9734  13.9790  13.9917  14.0495  14.1347  14.1972  14.2139
    14.2168  14.2398  14.2402  14.2794  14.2834  14.2915  14.3002  14.3068
    14.3167  14.3403  14.3414  14.4201  14.4457  14.4528  14.5047  14.5085
    14.6342  14.6591  14.6788  14.6815  14.7128  14.7803  14.7832  14.8413
    14.8503  14.8835  14.9041  14.9486  14.9627  14.9658  15.0245  15.0495
    15.0855  15.1021  15.1094  15.1204  15.1811  15.1819  15.2039  15.2189
    15.2223  15.2259  15.2429  15.2994  15.3118  15.3861  15.4368  15.4770
    15.4875  15.5036  15.5196  15.5580  15.5961  15.6022  15.6057  15.6403
    15.6798  15.6921  15.7204  15.7352  15.7685  15.8005  15.8675  15.8683
    15.8845  15.9004  15.9521  15.9738  16.0087  16.3325  16.3687  16.3729
    16.7058  16.8154  17.1422  17.1472  17.4090  17.5658  17.6683  17.6803
    17.8412  17.9573  18.0456  18.2007  18.5851  18.8086  19.1744  19.3570
    19.6800  20.3110  21.2242  21.6161  21.6904  21.7236  21.8166  21.8704
    22.0728  22.2888  22.3543  22.8717  23.0051  23.7157  23.8582  23.9256
    24.0333  24.1766  24.4845  24.5408  24.7127  24.7696  25.0124  25.2163
    25.4858  25.6745  25.7562  25.9843  25.9952  25.9974  26.2432  26.3439
    26.5690  26.7394

          k = 0.0556 0.1667 0.2402 ( 38155 PWs)   bands (ev):

   -68.2665 -68.2492 -68.2447 -68.2406 -68.2379 -68.2366 -68.2357 -68.2350
   -68.2330 -68.2323 -68.2290 -68.2278 -68.2264 -68.2248 -68.2196 -68.2191
   -67.7570 -67.7568 -67.7459 -67.7457 -67.7431 -67.7430 -67.7421 -67.7421
   -67.7414 -67.7414 -67.7404 -67.7403 -67.7376 -67.7376 -67.7263 -67.7263
   -34.1028 -34.1012 -34.1007 -34.0981 -34.0902 -34.0902 -34.0734 -34.0461
   -34.0456 -34.0454 -34.0426 -34.0296 -34.0245 -34.0183 -33.9961 -33.9913
   -33.9873 -33.9862 -33.9694 -33.9639 -33.9581 -33.9496 -33.9447 -33.9413
   -33.9393 -33.9372 -33.9350 -33.9333 -33.9273 -33.9271 -33.9213 -33.9176
   -33.9127 -33.9039 -33.8975 -33.8885 -33.8851 -33.8841 -33.8832 -33.8777
   -33.8727 -33.8686 -33.8501 -33.8496 -33.8445 -33.8376 -33.8320 -33.8270
   -33.6020 -33.6009 -33.5990 -33.5967 -33.5921 -33.5919 -33.5874 -33.5873
   -33.5397 -33.5392 -33.5376 -33.5371 -33.5256 -33.5247 -33.5213 -33.5205
   -33.4936 -33.4928 -33.4890 -33.4885 -33.4765 -33.4761 -33.4743 -33.4739
   -33.4254 -33.4247 -33.4208 -33.4200 -33.4122 -33.4122 -33.4082 -33.4081
   -33.3888 -33.3824 -33.3776 -33.3754 -33.3739 -33.3738 -33.3734 -33.3730
   -33.3723 -33.3723 -33.3722 -33.3714 -33.3707 -33.3692 -33.3638 -33.3637
     9.5947  10.8319  11.0990  11.1045  11.1426  11.1427  11.1674  11.1777
    11.1887  11.2043  11.2467  11.3660  11.3679  11.4225  11.6059  11.6696
    11.7325  11.9075  11.9213  11.9317  11.9364  11.9386  11.9511  12.0295
    12.0339  12.0772  12.0893  12.0894  12.0914  12.0920  12.1386  12.1416
    12.1660  12.2206  12.2589  12.3284  12.4216  12.4298  12.4353  12.4363
    12.4458  12.4468  12.4889  12.6298  12.6523  12.6693  12.7124  12.7711
    12.7727  12.7928  12.8184  12.8575  12.8755  12.9006  12.9728  12.9769
    12.9908  13.0382  13.0539  13.0561  13.1219  13.1528  13.1987  13.2061
    13.2074  13.2177  13.3277  13.3927  13.4017  13.4024  13.4040  13.4067
    13.4107  13.4379  13.4529  13.4910  13.4944  13.6118  13.6728  13.7321
    13.7434  13.8000  13.8046  13.8205  13.8354  13.8601  13.8966  13.9220
    13.9310  13.9600  13.9686  13.9688  14.0062  14.1231  14.1695  14.1942
    14.2056  14.2125  14.2150  14.2272  14.2416  14.2651  14.2953  14.3216
    14.3311  14.3313  14.4010  14.4282  14.4589  14.5231  14.5353  14.5477
    14.6638  14.6774  14.6798  14.7136  14.7435  14.7718  14.7778  14.8283
    14.8569  14.8674  14.8683  14.9443  14.9486  14.9958  15.0017  15.0099
    15.0239  15.0601  15.1322  15.1663  15.1963  15.1994  15.2305  15.2451
    15.2462  15.2740  15.3385  15.3579  15.3596  15.3841  15.4102  15.4146
    15.4194  15.4679  15.5048  15.5272  15.5723  15.6081  15.6231  15.6672
    15.6863  15.6938  15.7432  15.7865  15.8160  15.8402  15.8436  15.8440
    15.8671  15.8708  15.9511  15.9613  16.0098  16.0984  16.3366  16.3696
    16.4105  16.8040  16.8369  17.1026  17.3457  17.4176  17.6405  17.6518
    18.0081  18.1752  18.2202  18.5022  18.7621  19.0409  19.2819  19.6213
    19.8620  20.4879  20.5029  21.0808  21.6250  21.6450  21.6520  21.9330
    21.9626  22.0480  22.1632  22.2179  22.6346  23.9822  24.0622  24.3018
    24.4095  24.4181  24.5077  24.5243  25.0485  25.0582  25.0942  25.3796
    25.4890  25.5293  25.9144  25.9494  26.0027  26.0529  26.1111  26.2025
    26.5542  26.7378

          k = 0.0556 0.1667 0.3363 ( 38138 PWs)   bands (ev):

   -68.2665 -68.2492 -68.2447 -68.2406 -68.2379 -68.2366 -68.2357 -68.2350
   -68.2330 -68.2323 -68.2290 -68.2278 -68.2264 -68.2248 -68.2196 -68.2191
   -67.7570 -67.7568 -67.7459 -67.7457 -67.7431 -67.7430 -67.7421 -67.7421
   -67.7414 -67.7414 -67.7404 -67.7403 -67.7376 -67.7376 -67.7263 -67.7263
   -34.1027 -34.1012 -34.1007 -34.0980 -34.0903 -34.0903 -34.0736 -34.0461
   -34.0456 -34.0454 -34.0426 -34.0296 -34.0245 -34.0183 -33.9961 -33.9913
   -33.9873 -33.9862 -33.9694 -33.9639 -33.9581 -33.9497 -33.9447 -33.9413
   -33.9392 -33.9372 -33.9350 -33.9333 -33.9273 -33.9271 -33.9213 -33.9176
   -33.9127 -33.9039 -33.8975 -33.8885 -33.8851 -33.8841 -33.8832 -33.8776
   -33.8727 -33.8686 -33.8501 -33.8496 -33.8444 -33.8376 -33.8320 -33.8269
   -33.6020 -33.6009 -33.5990 -33.5967 -33.5920 -33.5918 -33.5876 -33.5874
   -33.5397 -33.5392 -33.5376 -33.5372 -33.5257 -33.5246 -33.5212 -33.5206
   -33.4936 -33.4928 -33.4889 -33.4886 -33.4765 -33.4761 -33.4742 -33.4740
   -33.4253 -33.4248 -33.4206 -33.4202 -33.4122 -33.4121 -33.4082 -33.4081
   -33.3875 -33.3838 -33.3778 -33.3757 -33.3740 -33.3737 -33.3736 -33.3731
   -33.3722 -33.3721 -33.3720 -33.3715 -33.3705 -33.3691 -33.3637 -33.3637
     9.6343  10.7630  11.1080  11.1128  11.1537  11.1625  11.1644  11.1752
    11.1893  11.1981  11.2484  11.3753  11.3763  11.4328  11.6142  11.6840
    11.7505  11.8994  11.9197  11.9226  11.9279  11.9316  11.9535  12.0115
    12.0174  12.0640  12.0743  12.0780  12.0852  12.0950  12.1002  12.1069
    12.1234  12.2298  12.2522  12.3551  12.3986  12.4063  12.4303  12.4329
    12.4363  12.4489  12.4944  12.6399  12.6450  12.6578  12.7118  12.7602
    12.7775  12.8007  12.8104  12.8565  12.8575  12.8797  12.9336  12.9739
    12.9971  13.0368  13.0460  13.0504  13.1282  13.1483  13.1712  13.1921
    13.2095  13.2209  13.2904  13.3499  13.4070  13.4091  13.4147  13.4171
    13.4269  13.4411  13.5110  13.5121  13.5140  13.6477  13.6903  13.7962
    13.8032  13.8279  13.8336  13.8464  13.8740  13.9170  13.9250  13.9455
    13.9464  13.9645  13.9782  14.0353  14.0592  14.0651  14.1166  14.1642
    14.1834  14.2009  14.2031  14.2094  14.2449  14.2587  14.3133  14.3138
    14.3439  14.3616  14.4554  14.4647  14.4730  14.5343  14.5534  14.5730
    14.6553  14.6812  14.6833  14.7189  14.7252  14.7681  14.8220  14.8225
    14.8335  14.8563  14.8830  14.8920  14.9147  14.9207  14.9327  14.9569
    15.0088  15.0536  15.1648  15.1735  15.1820  15.2142  15.2677  15.2712
    15.2828  15.3034  15.3068  15.3102  15.3934  15.3996  15.3998  15.4156
    15.4570  15.4688  15.5360  15.5406  15.5668  15.6506  15.6595  15.6652
    15.6864  15.7428  15.7441  15.7903  15.8136  15.8181  15.8285  15.8317
    15.8479  15.9252  15.9669  16.0104  16.0778  16.0885  16.1402  16.3397
    16.3703  16.5577  16.8585  17.0426  17.0557  17.0577  17.4681  17.6002
    18.3858  18.4982  18.5862  18.6821  19.0028  19.1458  19.5358  19.8418
    20.0579  20.1011  20.4139  20.6797  20.9691  21.5304  21.6281  21.6486
    21.7319  21.9191  21.9779  22.3164  22.6620  24.1385  24.2277  24.2560
    24.3781  24.6916  24.7051  24.8053  24.8778  25.0954  25.1914  25.2479
    25.2758  25.6125  25.8434  26.0917  26.2299  26.2576  26.5295  26.5582
    26.5980  26.7312

          k = 0.0556 0.1667-0.4324 ( 38118 PWs)   bands (ev):

   -68.2665 -68.2492 -68.2447 -68.2406 -68.2379 -68.2366 -68.2357 -68.2350
   -68.2330 -68.2323 -68.2290 -68.2278 -68.2264 -68.2248 -68.2196 -68.2191
   -67.7570 -67.7568 -67.7459 -67.7457 -67.7431 -67.7430 -67.7421 -67.7421
   -67.7414 -67.7414 -67.7404 -67.7403 -67.7376 -67.7376 -67.7263 -67.7263
   -34.1027 -34.1012 -34.1008 -34.0981 -34.0902 -34.0902 -34.0736 -34.0461
   -34.0456 -34.0454 -34.0426 -34.0296 -34.0245 -34.0183 -33.9961 -33.9912
   -33.9873 -33.9862 -33.9694 -33.9638 -33.9581 -33.9497 -33.9447 -33.9414
   -33.9392 -33.9372 -33.9350 -33.9332 -33.9273 -33.9271 -33.9213 -33.9177
   -33.9126 -33.9039 -33.8975 -33.8885 -33.8852 -33.8841 -33.8832 -33.8776
   -33.8727 -33.8685 -33.8501 -33.8496 -33.8444 -33.8376 -33.8320 -33.8269
   -33.6020 -33.6009 -33.5990 -33.5967 -33.5919 -33.5917 -33.5876 -33.5874
   -33.5397 -33.5391 -33.5375 -33.5372 -33.5257 -33.5246 -33.5212 -33.5207
   -33.4936 -33.4927 -33.4888 -33.4886 -33.4765 -33.4761 -33.4741 -33.4740
   -33.4253 -33.4249 -33.4205 -33.4202 -33.4122 -33.4121 -33.4082 -33.4081
   -33.3864 -33.3849 -33.3778 -33.3757 -33.3741 -33.3737 -33.3736 -33.3731
   -33.3721 -33.3721 -33.3719 -33.3715 -33.3704 -33.3691 -33.3636 -33.3636
     9.6514  10.7321  11.1116  11.1162  11.1534  11.1592  11.1707  11.1773
    11.1948  11.2013  11.2492  11.3791  11.3797  11.4370  11.6176  11.6900
    11.7556  11.8962  11.9149  11.9220  11.9230  11.9295  11.9544  12.0044
    12.0110  12.0569  12.0689  12.0784  12.0815  12.0836  12.0970  12.0972
    12.1034  12.2335  12.2502  12.3675  12.3841  12.3912  12.4303  12.4355
    12.4376  12.4499  12.4959  12.6345  12.6511  12.6531  12.7124  12.7555
    12.7724  12.8078  12.8121  12.8475  12.8620  12.8722  12.9141  12.9730
    13.0010  13.0363  13.0418  13.0498  13.1305  13.1466  13.1562  13.1895
    13.2101  13.2222  13.2753  13.3325  13.4088  13.4110  13.4190  13.4190
    13.4332  13.4425  13.5207  13.5213  13.5412  13.6589  13.7215  13.7512
    13.8096  13.8373  13.8491  13.8640  13.8759  13.9271  13.9564  13.9584
    13.9628  13.9743  14.0074  14.0183  14.0806  14.1013  14.1148  14.1309
    14.1762  14.1990  14.2079  14.2091  14.2374  14.2821  14.3080  14.3281
    14.3666  14.3771  14.4784  14.4785  14.4836  14.5285  14.5531  14.6121
    14.6196  14.6638  14.6833  14.7162  14.7542  14.7585  14.7652  14.8102
    14.8260  14.8261  14.8634  14.8713  14.8779  14.9074  14.9239  14.9602
    15.0037  15.0715  15.1494  15.1615  15.2112  15.2338  15.2446  15.2698
    15.2818  15.2845  15.2983  15.3156  15.4000  15.4231  15.4231  15.4325
    15.4535  15.5302  15.5436  15.5477  15.6446  15.6545  15.6616  15.6663
    15.6722  15.6837  15.7436  15.7912  15.7956  15.8025  15.8063  15.8208
    15.8922  15.9162  15.9687  15.9810  16.0107  16.2015  16.3408  16.3705
    16.4132  16.4822  16.5528  16.9086  16.9173  16.9950  17.5312  17.5391
    18.5457  18.5703  18.8315  18.8599  18.9864  19.3551  19.4225  19.8718
    20.0061  20.1523  20.4156  20.5796  20.7723  21.1650  21.4973  21.6900
    21.8094  21.8144  21.9370  22.1809  22.8399  24.2337  24.2941  24.3199
    24.4562  24.5627  24.7534  24.8020  24.8130  25.0485  25.1087  25.2006
    25.4757  25.5062  25.9803  26.0032  26.3215  26.5532  26.5767  26.7036
    26.7422  26.8103

          k = 0.0556 0.2778 0.0480 ( 38159 PWs)   bands (ev):

   -68.2650 -68.2532 -68.2442 -68.2402 -68.2394 -68.2368 -68.2345 -68.2327
   -68.2314 -68.2312 -68.2304 -68.2282 -68.2270 -68.2234 -68.2210 -68.2196
   -67.7561 -67.7558 -67.7485 -67.7483 -67.7430 -67.7429 -67.7424 -67.7423
   -67.7412 -67.7411 -67.7405 -67.7404 -67.7350 -67.7350 -67.7273 -67.7273
   -34.0978 -34.0952 -34.0939 -34.0909 -34.0848 -34.0845 -34.0707 -34.0540
   -34.0521 -34.0513 -34.0486 -34.0478 -34.0391 -34.0375 -34.0002 -33.9951
   -33.9812 -33.9765 -33.9534 -33.9510 -33.9492 -33.9476 -33.9447 -33.9421
   -33.9417 -33.9416 -33.9407 -33.9402 -33.9290 -33.9260 -33.9233 -33.9168
   -33.9032 -33.8962 -33.8915 -33.8907 -33.8787 -33.8780 -33.8760 -33.8737
   -33.8705 -33.8668 -33.8592 -33.8566 -33.8490 -33.8400 -33.8398 -33.8313
   -33.5980 -33.5961 -33.5926 -33.5897 -33.5885 -33.5879 -33.5811 -33.5806
   -33.5553 -33.5544 -33.5513 -33.5504 -33.5422 -33.5409 -33.5360 -33.5350
   -33.4788 -33.4783 -33.4723 -33.4716 -33.4627 -33.4625 -33.4584 -33.4578
   -33.4322 -33.4316 -33.4247 -33.4238 -33.4196 -33.4195 -33.4131 -33.4129
   -33.3888 -33.3801 -33.3795 -33.3759 -33.3747 -33.3735 -33.3731 -33.3729
   -33.3728 -33.3726 -33.3723 -33.3714 -33.3695 -33.3680 -33.3644 -33.3640
     9.6698  10.7775  11.0206  11.1532  11.1736  11.1754  11.2085  11.2283
    11.2431  11.3202  11.3985  11.4087  11.4099  11.4644  11.5857  11.6018
    11.7570  11.7587  11.7589  11.7738  11.7860  11.8048  11.9114  11.9879
    11.9914  12.0865  12.1174  12.1255  12.1448  12.1480  12.1509  12.1514
    12.1545  12.1847  12.2287  12.2640  12.3597  12.3983  12.4333  12.4482
    12.5099  12.5485  12.5595  12.6374  12.6434  12.6743  12.6997  12.7331
    12.7357  12.7652  12.8385  12.8456  12.8718  12.9671  12.9942  12.9980
    13.0072  13.0526  13.0943  13.1227  13.1365  13.2015  13.2041  13.2177
    13.2691  13.3092  13.3174  13.3612  13.3624  13.3870  13.3925  13.4337
    13.4341  13.4493  13.4828  13.5261  13.5445  13.5654  13.5808  13.5810
    13.5913  13.6070  13.6198  13.6560  13.6886  13.7763  13.7919  13.7958
    13.8807  13.8854  13.9545  13.9681  13.9977  14.0995  14.1574  14.2663
    14.2745  14.2754  14.2939  14.3070  14.3155  14.3188  14.3483  14.3678
    14.3848  14.4241  14.4282  14.4343  14.4630  14.4985  14.5866  14.6313
    14.6705  14.7446  14.7664  14.8253  14.8563  14.8652  14.9052  14.9157
    14.9175  14.9181  14.9360  14.9672  14.9786  15.0112  15.0116  15.0211
    15.0426  15.0514  15.0679  15.0685  15.1226  15.1307  15.2328  15.2689
    15.3098  15.3244  15.3395  15.3465  15.3602  15.3703  15.3974  15.4332
    15.4742  15.5268  15.5350  15.5395  15.5422  15.5725  15.5852  15.6133
    15.6250  15.6981  15.6985  15.7088  15.7477  15.7545  15.8397  15.8724
    15.8730  15.8853  15.9320  15.9809  16.0057  16.1508  16.2307  16.3420
    16.7104  16.7842  16.8294  16.9463  17.2269  17.4198  17.4500  17.5716
    17.6834  17.9962  18.2389  18.5653  18.9306  19.0339  19.5023  19.5140
    20.0709  20.6362  21.3458  21.4384  21.7709  21.9236  22.1054  22.2295
    22.3525  22.5523  22.6843  22.8021  22.8807  23.1514  23.2021  23.4439
    23.5136  23.5972  23.9132  24.1527  24.6434  24.9318  24.9352  25.0060
    25.1246  25.2223  25.4650  25.6989  25.7218  25.7304  25.9978  26.2253
    26.4656  26.5096

          k = 0.0556 0.2778 0.1441 ( 38157 PWs)   bands (ev):

   -68.2650 -68.2532 -68.2442 -68.2402 -68.2394 -68.2368 -68.2345 -68.2327
   -68.2314 -68.2312 -68.2304 -68.2282 -68.2270 -68.2234 -68.2210 -68.2196
   -67.7561 -67.7558 -67.7485 -67.7483 -67.7430 -67.7429 -67.7424 -67.7423
   -67.7412 -67.7411 -67.7405 -67.7404 -67.7350 -67.7350 -67.7273 -67.7273
   -34.0978 -34.0951 -34.0939 -34.0909 -34.0847 -34.0845 -34.0707 -34.0540
   -34.0521 -34.0513 -34.0486 -34.0478 -34.0391 -34.0375 -34.0002 -33.9951
   -33.9813 -33.9765 -33.9534 -33.9510 -33.9492 -33.9477 -33.9447 -33.9422
   -33.9416 -33.9416 -33.9407 -33.9402 -33.9291 -33.9260 -33.9233 -33.9168
   -33.9032 -33.8962 -33.8915 -33.8907 -33.8787 -33.8780 -33.8760 -33.8737
   -33.8705 -33.8668 -33.8592 -33.8566 -33.8490 -33.8400 -33.8397 -33.8313
   -33.5980 -33.5961 -33.5926 -33.5897 -33.5884 -33.5879 -33.5811 -33.5807
   -33.5553 -33.5543 -33.5513 -33.5504 -33.5423 -33.5408 -33.5360 -33.5350
   -33.4789 -33.4782 -33.4723 -33.4716 -33.4628 -33.4624 -33.4584 -33.4579
   -33.4321 -33.4316 -33.4247 -33.4238 -33.4196 -33.4195 -33.4130 -33.4129
   -33.3883 -33.3807 -33.3797 -33.3758 -33.3750 -33.3739 -33.3731 -33.3729
   -33.3726 -33.3725 -33.3720 -33.3711 -33.3696 -33.3680 -33.3645 -33.3641
     9.6931  10.7932  10.9956  11.1597  11.1776  11.1785  11.2160  11.2318
    11.2514  11.3207  11.3841  11.4046  11.4113  11.4136  11.5857  11.6112
    11.7500  11.7515  11.7743  11.7821  11.7991  11.8082  11.9087  11.9828
    11.9894  12.0443  12.1200  12.1255  12.1295  12.1304  12.1387  12.1518
    12.1715  12.1790  12.1919  12.2447  12.3688  12.4031  12.4284  12.4460
    12.4841  12.5172  12.5594  12.6471  12.6571  12.6603  12.6879  12.7111
    12.7273  12.7641  12.8216  12.8350  12.8735  12.9826  12.9833  13.0027
    13.0230  13.0492  13.1043  13.1163  13.1286  13.1996  13.2241  13.2252
    13.3016  13.3250  13.3664  13.3734  13.3778  13.4010  13.4326  13.4355
    13.4391  13.4454  13.4933  13.5179  13.5465  13.5797  13.5997  13.6212
    13.6366  13.6409  13.6477  13.6529  13.7532  13.7668  13.7810  13.8373
    13.8791  13.8897  13.9429  13.9782  13.9916  14.0169  14.1672  14.2383
    14.2556  14.2598  14.2893  14.2899  14.3154  14.3230  14.3451  14.3591
    14.3758  14.4118  14.4220  14.4368  14.4592  14.4673  14.5873  14.6162
    14.7042  14.7327  14.7743  14.8223  14.8225  14.8430  14.8453  14.8838
    14.9057  14.9317  14.9384  14.9389  14.9790  14.9918  15.0032  15.0050
    15.0204  15.0706  15.1065  15.1162  15.1566  15.2588  15.2671  15.2731
    15.3184  15.3347  15.3475  15.3536  15.3722  15.3756  15.3890  15.3943
    15.4532  15.4757  15.5221  15.5262  15.5325  15.5780  15.6134  15.6170
    15.6340  15.6968  15.7020  15.7283  15.7419  15.8297  15.8448  15.8668
    15.8772  15.8867  15.9124  15.9666  16.0899  16.1190  16.1540  16.2318
    16.6214  16.6807  16.7222  17.1311  17.1512  17.1997  17.3264  17.9313
    18.0421  18.2605  18.2890  18.5896  18.6153  19.0349  19.4945  19.8333
    20.0303  20.6861  20.7302  21.4878  21.8003  21.8651  21.9008  22.0691
    22.1993  22.3017  22.3822  23.0105  23.1043  23.2257  23.2511  23.3074
    23.4536  23.5246  24.2252  24.3115  24.4031  24.5164  25.2178  25.3134
    25.3273  25.4664  25.6504  25.7584  25.7746  25.8688  26.0996  26.3531
    26.6070  26.6516

          k = 0.0556 0.2778 0.2402 ( 38160 PWs)   bands (ev):

   -68.2650 -68.2532 -68.2442 -68.2402 -68.2394 -68.2368 -68.2345 -68.2327
   -68.2314 -68.2312 -68.2304 -68.2282 -68.2270 -68.2234 -68.2210 -68.2196
   -67.7561 -67.7558 -67.7485 -67.7483 -67.7430 -67.7429 -67.7424 -67.7423
   -67.7412 -67.7411 -67.7405 -67.7404 -67.7350 -67.7350 -67.7273 -67.7273
   -34.0978 -34.0951 -34.0939 -34.0908 -34.0847 -34.0845 -34.0708 -34.0541
   -34.0521 -34.0513 -34.0486 -34.0478 -34.0391 -34.0375 -34.0002 -33.9951
   -33.9813 -33.9764 -33.9534 -33.9510 -33.9492 -33.9476 -33.9447 -33.9422
   -33.9416 -33.9416 -33.9407 -33.9402 -33.9292 -33.9260 -33.9234 -33.9168
   -33.9032 -33.8962 -33.8916 -33.8907 -33.8787 -33.8781 -33.8760 -33.8737
   -33.8705 -33.8668 -33.8592 -33.8566 -33.8490 -33.8400 -33.8397 -33.8313
   -33.5980 -33.5961 -33.5926 -33.5896 -33.5884 -33.5879 -33.5812 -33.5808
   -33.5553 -33.5543 -33.5512 -33.5504 -33.5423 -33.5407 -33.5359 -33.5350
   -33.4790 -33.4781 -33.4723 -33.4718 -33.4628 -33.4623 -33.4583 -33.4579
   -33.4322 -33.4316 -33.4246 -33.4240 -33.4196 -33.4195 -33.4130 -33.4129
   -33.3875 -33.3816 -33.3797 -33.3757 -33.3753 -33.3743 -33.3734 -33.3732
   -33.3722 -33.3722 -33.3718 -33.3708 -33.3695 -33.3679 -33.3644 -33.3642
     9.7320  10.8189  10.9409  11.1700  11.1838  11.1864  11.2249  11.2401
    11.2616  11.2991  11.3293  11.4135  11.4142  11.4211  11.5858  11.6262
    11.7336  11.7398  11.7750  11.7762  11.8134  11.8311  11.9040  11.9728
    11.9754  12.0094  12.0863  12.1085  12.1207  12.1360  12.1371  12.1503
    12.1527  12.1590  12.2040  12.2049  12.3760  12.4079  12.4157  12.4431
    12.4461  12.4721  12.5601  12.6402  12.6622  12.6665  12.6760  12.6851
    12.7154  12.7677  12.7936  12.8282  12.8691  12.9756  13.0063  13.0194
    13.0375  13.0439  13.1081  13.1164  13.1238  13.1944  13.2372  13.2434
    13.2833  13.3746  13.3918  13.4056  13.4222  13.4242  13.4383  13.4454
    13.4556  13.5020  13.5063  13.5076  13.5416  13.5638  13.6322  13.6630
    13.6757  13.6960  13.7158  13.7467  13.7606  13.7627  13.8592  13.8810
    13.8867  13.9322  13.9335  13.9443  13.9687  13.9987  14.1562  14.1575
    14.2151  14.2440  14.2544  14.2702  14.2972  14.3418  14.3428  14.3505
    14.3540  14.3560  14.3931  14.4442  14.4787  14.4832  14.6064  14.6105
    14.7307  14.7321  14.7375  14.7638  14.7846  14.8047  14.8079  14.8446
    14.8580  14.8851  14.8932  14.9345  14.9791  14.9885  14.9945  14.9958
    15.0350  15.1150  15.1760  15.2016  15.2200  15.2450  15.3006  15.3006
    15.3403  15.3433  15.3563  15.3607  15.3732  15.3834  15.3845  15.3873
    15.4212  15.4991  15.5120  15.5189  15.5848  15.5881  15.5903  15.6413
    15.6517  15.6762  15.7029  15.7122  15.7515  15.8134  15.8431  15.8580
    15.8612  15.8842  15.8878  15.9377  16.0767  16.1584  16.2331  16.3288
    16.3919  16.5231  16.6752  16.8496  17.1511  17.2482  17.5604  17.9618
    18.0390  18.3935  18.5135  18.5909  19.0553  19.2147  19.4450  19.9239
    19.9825  20.2750  20.8960  21.1438  21.1534  21.6639  21.7221  21.9126
    22.0981  22.1800  22.4245  22.7664  22.9290  23.1173  23.3694  23.5144
    23.6422  24.0065  24.1815  24.3244  24.4674  24.5494  24.9620  25.3982
    25.5606  25.6474  25.7088  25.8579  25.9606  26.2559  26.2876  26.5558
    26.6008  26.7226

          k = 0.0556 0.2778 0.3363 ( 38150 PWs)   bands (ev):

   -68.2650 -68.2532 -68.2442 -68.2402 -68.2394 -68.2368 -68.2345 -68.2327
   -68.2314 -68.2312 -68.2304 -68.2282 -68.2270 -68.2234 -68.2210 -68.2196
   -67.7561 -67.7558 -67.7485 -67.7483 -67.7430 -67.7429 -67.7424 -67.7423
   -67.7412 -67.7411 -67.7405 -67.7404 -67.7350 -67.7350 -67.7273 -67.7273
   -34.0978 -34.0951 -34.0939 -34.0908 -34.0847 -34.0846 -34.0708 -34.0541
   -34.0522 -34.0513 -34.0486 -34.0478 -34.0390 -34.0375 -34.0001 -33.9951
   -33.9813 -33.9765 -33.9534 -33.9510 -33.9492 -33.9477 -33.9448 -33.9422
   -33.9417 -33.9416 -33.9407 -33.9402 -33.9292 -33.9260 -33.9234 -33.9168
   -33.9032 -33.8961 -33.8916 -33.8906 -33.8787 -33.8781 -33.8761 -33.8737
   -33.8705 -33.8668 -33.8592 -33.8566 -33.8490 -33.8400 -33.8397 -33.8313
   -33.5979 -33.5961 -33.5926 -33.5896 -33.5883 -33.5879 -33.5812 -33.5808
   -33.5554 -33.5542 -33.5511 -33.5504 -33.5424 -33.5406 -33.5359 -33.5350
   -33.4791 -33.4780 -33.4722 -33.4718 -33.4629 -33.4623 -33.4583 -33.4581
   -33.4322 -33.4316 -33.4245 -33.4241 -33.4195 -33.4195 -33.4130 -33.4129
   -33.3864 -33.3828 -33.3798 -33.3756 -33.3756 -33.3745 -33.3736 -33.3733
   -33.3719 -33.3719 -33.3716 -33.3706 -33.3696 -33.3678 -33.3643 -33.3642
     9.7703  10.8435  10.8764  11.1793  11.1919  11.1937  11.2300  11.2503
    11.2604  11.2682  11.3287  11.4155  11.4231  11.4275  11.5860  11.6404
    11.7091  11.7314  11.7711  11.7757  11.8180  11.8465  11.8992  11.9464
    11.9689  12.0040  12.0699  12.0893  12.1060  12.1177  12.1258  12.1419
    12.1457  12.1594  12.1675  12.2404  12.3790  12.3965  12.4094  12.4137
    12.4346  12.4408  12.5610  12.6230  12.6660  12.6677  12.6694  12.6758
    12.7108  12.7632  12.7766  12.8273  12.8636  12.9751  13.0079  13.0392
    13.0440  13.0661  13.1015  13.1055  13.1473  13.1901  13.2461  13.2533
    13.2598  13.3820  13.3945  13.4072  13.4394  13.4475  13.4486  13.4651
    13.4876  13.4915  13.5026  13.5477  13.5521  13.5800  13.6148  13.7254
    13.7397  13.7461  13.7490  13.7868  13.8068  13.8664  13.8833  13.8966
    13.9020  13.9339  13.9472  13.9647  14.0096  14.0238  14.0929  14.1229
    14.1418  14.1904  14.2177  14.2253  14.2581  14.3230  14.3471  14.3518
    14.3806  14.3855  14.3956  14.4445  14.4600  14.5303  14.5995  14.6233
    14.6526  14.6760  14.7015  14.7127  14.7354  14.7647  14.7911  14.7934
    14.8364  14.8675  14.8732  14.8990  14.9816  14.9942  15.0211  15.0366
    15.0633  15.1473  15.2035  15.2053  15.2427  15.2465  15.2509  15.2876
    15.3373  15.3424  15.3791  15.3814  15.3906  15.4147  15.4224  15.4510
    15.4838  15.4844  15.5238  15.5428  15.5518  15.5958  15.6284  15.6373
    15.6466  15.6741  15.6843  15.7040  15.7268  15.7641  15.7978  15.8352
    15.8498  15.8793  15.8883  15.9142  16.1349  16.1620  16.2339  16.4342
    16.5100  16.5537  16.5862  16.6240  17.1217  17.2066  17.4475  17.6748
    18.0443  18.8656  18.9072  19.0319  19.3244  19.3457  19.4089  19.5632
    19.7148  20.4715  20.7457  20.8499  21.0021  21.0790  21.7204  21.8046
    21.8848  22.0387  22.1542  22.6130  22.8923  23.2651  23.5355  23.7950
    23.9301  23.9449  24.4065  24.4165  24.6482  24.6482  24.7411  25.0223
    25.1526  25.5873  25.9707  26.2360  26.2603  26.5215  26.6029  26.6532
    26.7656  26.8489

          k = 0.0556 0.2778-0.4324 ( 38146 PWs)   bands (ev):

   -68.2650 -68.2532 -68.2442 -68.2402 -68.2394 -68.2368 -68.2345 -68.2327
   -68.2314 -68.2312 -68.2304 -68.2282 -68.2270 -68.2234 -68.2210 -68.2196
   -67.7561 -67.7559 -67.7485 -67.7483 -67.7430 -67.7429 -67.7424 -67.7423
   -67.7412 -67.7411 -67.7405 -67.7404 -67.7350 -67.7350 -67.7273 -67.7273
   -34.0979 -34.0951 -34.0939 -34.0908 -34.0846 -34.0846 -34.0708 -34.0541
   -34.0522 -34.0513 -34.0486 -34.0478 -34.0390 -34.0375 -34.0001 -33.9950
   -33.9812 -33.9765 -33.9534 -33.9510 -33.9492 -33.9477 -33.9448 -33.9421
   -33.9417 -33.9417 -33.9407 -33.9402 -33.9292 -33.9259 -33.9233 -33.9168
   -33.9033 -33.8961 -33.8915 -33.8907 -33.8786 -33.8781 -33.8761 -33.8737
   -33.8706 -33.8668 -33.8591 -33.8566 -33.8490 -33.8399 -33.8397 -33.8313
   -33.5980 -33.5960 -33.5926 -33.5896 -33.5883 -33.5879 -33.5812 -33.5808
   -33.5554 -33.5542 -33.5511 -33.5504 -33.5424 -33.5406 -33.5359 -33.5350
   -33.4790 -33.4780 -33.4721 -33.4719 -33.4629 -33.4623 -33.4581 -33.4581
   -33.4321 -33.4316 -33.4245 -33.4241 -33.4195 -33.4195 -33.4130 -33.4129
   -33.3856 -33.3835 -33.3798 -33.3758 -33.3756 -33.3746 -33.3737 -33.3734
   -33.3718 -33.3718 -33.3715 -33.3705 -33.3696 -33.3679 -33.3642 -33.3641
     9.7868  10.8473  10.8539  11.1831  11.1960  11.1968  11.2310  11.2493
    11.2556  11.2696  11.3293  11.4163  11.4267  11.4300  11.5861  11.6463
    11.6970  11.7282  11.7692  11.7759  11.8199  11.8506  11.8971  11.9374
    11.9664  12.0036  12.0705  12.0817  12.0971  12.1005  12.1268  12.1319
    12.1443  12.1486  12.1716  12.2578  12.3798  12.3849  12.4011  12.4091
    12.4203  12.4398  12.5613  12.6161  12.6620  12.6642  12.6675  12.6813
    12.7147  12.7458  12.7816  12.8276  12.8618  12.9776  13.0084  13.0373
    13.0438  13.0892  13.0990  13.1011  13.1595  13.1885  13.2486  13.2492
    13.2561  13.3766  13.3850  13.4131  13.4459  13.4485  13.4512  13.4740
    13.4842  13.4968  13.5013  13.5481  13.5584  13.6047  13.6190  13.7467
    13.7517  13.7534  13.7750  13.8187  13.8534  13.8625  13.8885  13.9187
    13.9241  13.9370  13.9810  14.0117  14.0150  14.0325  14.0618  14.0690
    14.1349  14.1592  14.1698  14.2093  14.2640  14.3399  14.3529  14.3597
    14.3883  14.4003  14.4126  14.4446  14.4452  14.5282  14.5412  14.6028
    14.6462  14.6865  14.6920  14.6967  14.7081  14.7445  14.7506  14.7523
    14.8243  14.8706  14.8853  14.9059  14.9691  14.9942  15.0397  15.0558
    15.0787  15.1698  15.1738  15.1962  15.2097  15.2380  15.2621  15.3300
    15.3470  15.3865  15.3958  15.4034  15.4120  15.4282  15.4320  15.4475
    15.4652  15.4862  15.5131  15.5189  15.5264  15.5980  15.6326  15.6390
    15.6414  15.6568  15.6905  15.7050  15.7679  15.7759  15.7918  15.8254
    15.8359  15.8884  15.9037  15.9308  15.9938  16.1633  16.2342  16.4571
    16.5295  16.5886  16.6675  16.8994  16.9023  17.1168  17.1898  17.5417
    18.4270  18.8824  19.1323  19.1913  19.2032  19.4000  19.4845  19.5032
    19.9136  20.0490  20.6002  20.7227  21.0499  21.1688  21.7659  21.7793
    21.7863  21.8028  21.9232  22.4777  23.0805  23.3591  23.6257  23.8160
    23.8945  24.1996  24.2980  24.5076  24.6002  24.7466  24.8496  24.9300
    25.0307  25.2701  26.0910  26.2495  26.6134  26.6224  26.6232  26.6945
    26.9002  26.9446

          k = 0.0556 0.3889 0.0480 ( 38169 PWs)   bands (ev):

   -68.2629 -68.2569 -68.2433 -68.2409 -68.2396 -68.2379 -68.2337 -68.2317
   -68.2303 -68.2300 -68.2290 -68.2287 -68.2278 -68.2231 -68.2222 -68.2203
   -67.7547 -67.7545 -67.7508 -67.7506 -67.7429 -67.7428 -67.7426 -67.7425
   -67.7410 -67.7409 -67.7406 -67.7405 -67.7326 -67.7326 -67.7287 -67.7287
   -34.0896 -34.0866 -34.0839 -34.0817 -34.0770 -34.0762 -34.0669 -34.0648
   -34.0642 -34.0612 -34.0575 -34.0569 -34.0552 -34.0530 -34.0017 -33.9986
   -33.9740 -33.9651 -33.9546 -33.9516 -33.9485 -33.9470 -33.9459 -33.9459
   -33.9451 -33.9412 -33.9355 -33.9352 -33.9257 -33.9218 -33.9173 -33.9145
   -33.9117 -33.8991 -33.8797 -33.8787 -33.8786 -33.8738 -33.8725 -33.8686
   -33.8668 -33.8645 -33.8639 -33.8581 -33.8565 -33.8509 -33.8451 -33.8381
   -33.5911 -33.5889 -33.5834 -33.5824 -33.5815 -33.5804 -33.5726 -33.5718
   -33.5693 -33.5678 -33.5634 -33.5624 -33.5578 -33.5557 -33.5497 -33.5486
   -33.4649 -33.4644 -33.4565 -33.4559 -33.4503 -33.4500 -33.4439 -33.4434
   -33.4410 -33.4409 -33.4310 -33.4304 -33.4296 -33.4294 -33.4208 -33.4206
   -33.3868 -33.3819 -33.3794 -33.3773 -33.3744 -33.3737 -33.3731 -33.3730
   -33.3727 -33.3726 -33.3721 -33.3716 -33.3680 -33.3667 -33.3654 -33.3647
     9.8739  10.4431  11.1660  11.2439  11.2526  11.2936  11.3020  11.3209
    11.3465  11.3843  11.4381  11.4705  11.4933  11.4976  11.5288  11.5494
    11.5790  11.6012  11.6077  11.6242  11.6760  11.7464  11.7836  11.9053
    11.9311  12.0875  12.0879  12.1021  12.1245  12.1711  12.1890  12.2012
    12.2235  12.2495  12.2597  12.2716  12.2957  12.3779  12.4306  12.4441
    12.4506  12.5110  12.5457  12.5780  12.5784  12.6174  12.6470  12.6473
    12.6543  12.6738  12.8206  12.9340  12.9547  12.9981  13.0159  13.0379
    13.0817  13.0902  13.1015  13.1045  13.1757  13.1785  13.1869  13.2287
    13.2834  13.2963  13.3298  13.3604  13.3814  13.4084  13.4134  13.4429
    13.4482  13.4659  13.4741  13.4757  13.4997  13.5191  13.5271  13.5579
    13.5668  13.5770  13.6047  13.6808  13.6869  13.7247  13.7456  13.7733
    13.8403  13.8761  14.0655  14.0745  14.0854  14.1087  14.1805  14.2096
    14.2440  14.3011  14.3086  14.3270  14.3857  14.3983  14.4136  14.4174
    14.4455  14.4511  14.5016  14.5108  14.5581  14.6467  14.6487  14.6663
    14.7363  14.7401  14.7752  14.7897  14.8274  14.8424  14.8676  14.8739
    14.9287  14.9449  14.9591  14.9599  15.0015  15.0135  15.0372  15.0409
    15.0960  15.1162  15.1224  15.1728  15.1861  15.2136  15.2259  15.2453
    15.2699  15.2713  15.3120  15.3237  15.3401  15.3512  15.4289  15.4443
    15.4632  15.4698  15.5161  15.5296  15.5411  15.5510  15.5630  15.6028
    15.6301  15.6553  15.6794  15.6971  15.7209  15.7309  15.8030  15.8560
    15.9198  15.9435  15.9486  15.9719  16.0332  16.0833  16.0875  16.3188
    16.4039  16.6505  16.7956  16.8265  16.9083  17.4232  17.4388  17.6065
    17.6641  18.1303  18.1740  18.2288  19.2787  19.5641  20.2338  20.2697
    20.7396  20.8203  20.9108  21.1810  21.6401  21.8922  21.9697  22.2024
    22.3981  22.4618  22.4770  22.5512  22.6830  22.7370  22.8639  23.1898
    23.4746  23.6179  24.0155  24.5339  24.6846  24.7092  24.7665  24.9205
    24.9804  25.0785  25.1399  25.1953  25.2223  25.4944  25.6142  25.7891
    26.0911  26.5203

          k = 0.0556 0.3889 0.1441 ( 38166 PWs)   bands (ev):

   -68.2629 -68.2569 -68.2433 -68.2409 -68.2396 -68.2379 -68.2337 -68.2317
   -68.2303 -68.2300 -68.2290 -68.2287 -68.2278 -68.2231 -68.2222 -68.2203
   -67.7547 -67.7545 -67.7508 -67.7506 -67.7429 -67.7428 -67.7426 -67.7425
   -67.7410 -67.7409 -67.7406 -67.7405 -67.7326 -67.7326 -67.7287 -67.7287
   -34.0896 -34.0865 -34.0838 -34.0817 -34.0769 -34.0762 -34.0669 -34.0648
   -34.0642 -34.0611 -34.0575 -34.0569 -34.0552 -34.0530 -34.0016 -33.9986
   -33.9740 -33.9651 -33.9547 -33.9516 -33.9485 -33.9470 -33.9459 -33.9459
   -33.9452 -33.9412 -33.9355 -33.9352 -33.9256 -33.9218 -33.9173 -33.9145
   -33.9117 -33.8991 -33.8797 -33.8787 -33.8786 -33.8738 -33.8725 -33.8686
   -33.8669 -33.8645 -33.8639 -33.8581 -33.8565 -33.8509 -33.8451 -33.8381
   -33.5911 -33.5889 -33.5834 -33.5823 -33.5815 -33.5803 -33.5726 -33.5718
   -33.5694 -33.5677 -33.5634 -33.5624 -33.5578 -33.5556 -33.5497 -33.5486
   -33.4650 -33.4644 -33.4564 -33.4560 -33.4503 -33.4500 -33.4438 -33.4434
   -33.4411 -33.4408 -33.4310 -33.4304 -33.4296 -33.4295 -33.4207 -33.4206
   -33.3864 -33.3820 -33.3798 -33.3774 -33.3747 -33.3742 -33.3731 -33.3730
   -33.3726 -33.3725 -33.3718 -33.3713 -33.3680 -33.3667 -33.3654 -33.3647
     9.8960  10.4614  11.1447  11.2440  11.2595  11.2973  11.3068  11.3222
    11.3528  11.3820  11.4383  11.4762  11.4969  11.5060  11.5243  11.5267
    11.5372  11.5756  11.6086  11.6228  11.6804  11.7459  11.7845  11.8704
    11.9385  12.0865  12.1011  12.1041  12.1077  12.1752  12.1765  12.1878
    12.2352  12.2435  12.2516  12.2595  12.2821  12.3717  12.4331  12.4369
    12.4416  12.4933  12.5353  12.5501  12.5670  12.5965  12.6270  12.6449
    12.6487  12.6813  12.8274  12.9207  12.9750  13.0091  13.0160  13.0297
    13.0766  13.1108  13.1347  13.1446  13.1949  13.2000  13.2152  13.2181
    13.3232  13.3398  13.3405  13.3577  13.3896  13.4202  13.4456  13.4481
    13.4708  13.4886  13.4904  13.4947  13.5097  13.5301  13.5341  13.5837
    13.5972  13.5982  13.6654  13.6857  13.6946  13.7187  13.7750  13.7982
    13.8362  13.8740  14.0194  14.0470  14.0747  14.1058  14.1675  14.2222
    14.2398  14.2776  14.2975  14.3259  14.3261  14.3522  14.3837  14.4001
    14.4004  14.4060  14.4206  14.5161  14.5207  14.6148  14.6384  14.6849
    14.6852  14.7252  14.7340  14.7712  14.7885  14.8226  14.8693  14.8783
    14.8896  14.9097  14.9702  14.9790  14.9875  15.0111  15.0790  15.0991
    15.1402  15.1582  15.1607  15.1701  15.2443  15.2507  15.2592  15.2610
    15.2620  15.2643  15.2757  15.2859  15.3944  15.4002  15.4119  15.4642
    15.4819  15.4953  15.5291  15.5312  15.5335  15.5557  15.5574  15.5939
    15.6113  15.6330  15.6683  15.6796  15.7229  15.7336  15.8000  15.8527
    15.9096  15.9289  15.9504  15.9519  16.0332  16.0833  16.0834  16.3014
    16.6003  16.6471  16.7387  16.7668  16.7839  17.1626  17.2365  17.9875
    18.0344  18.2793  18.4551  18.5845  19.0010  19.1006  20.1496  20.2496
    20.5602  20.6297  20.7595  21.2683  21.9019  21.9265  22.1185  22.2071
    22.2125  22.4034  22.5108  22.5404  22.5864  22.6715  22.7260  22.8226
    23.5616  23.7129  23.8532  24.0563  24.4513  24.5936  24.7564  25.1085
    25.1832  25.2451  25.4705  25.5344  25.6429  25.7774  25.8451  26.0985
    26.3791  26.4084

          k = 0.0556 0.3889 0.2402 ( 38159 PWs)   bands (ev):

   -68.2629 -68.2569 -68.2433 -68.2409 -68.2396 -68.2379 -68.2337 -68.2317
   -68.2303 -68.2300 -68.2290 -68.2287 -68.2278 -68.2231 -68.2222 -68.2203
   -67.7547 -67.7545 -67.7508 -67.7506 -67.7429 -67.7428 -67.7426 -67.7425
   -67.7410 -67.7409 -67.7406 -67.7405 -67.7326 -67.7326 -67.7287 -67.7287
   -34.0895 -34.0865 -34.0839 -34.0817 -34.0769 -34.0762 -34.0670 -34.0648
   -34.0642 -34.0612 -34.0575 -34.0569 -34.0552 -34.0530 -34.0016 -33.9986
   -33.9740 -33.9651 -33.9546 -33.9516 -33.9486 -33.9470 -33.9460 -33.9459
   -33.9451 -33.9412 -33.9355 -33.9352 -33.9256 -33.9218 -33.9173 -33.9145
   -33.9117 -33.8990 -33.8797 -33.8787 -33.8786 -33.8737 -33.8725 -33.8686
   -33.8668 -33.8645 -33.8639 -33.8581 -33.8565 -33.8509 -33.8451 -33.8381
   -33.5910 -33.5888 -33.5835 -33.5822 -33.5815 -33.5803 -33.5726 -33.5719
   -33.5694 -33.5677 -33.5634 -33.5624 -33.5579 -33.5556 -33.5496 -33.5486
   -33.4651 -33.4642 -33.4564 -33.4560 -33.4504 -33.4499 -33.4438 -33.4434
   -33.4412 -33.4407 -33.4309 -33.4304 -33.4295 -33.4294 -33.4207 -33.4206
   -33.3858 -33.3818 -33.3805 -33.3774 -33.3752 -33.3747 -33.3734 -33.3733
   -33.3722 -33.3721 -33.3714 -33.3710 -33.3679 -33.3667 -33.3653 -33.3648
     9.9329  10.4916  11.0971  11.2459  11.2704  11.3034  11.3118  11.3269
    11.3598  11.3786  11.4285  11.4580  11.4851  11.5019  11.5087  11.5196
    11.5237  11.5706  11.6104  11.6203  11.6874  11.7443  11.7829  11.8065
    11.9629  12.0843  12.0873  12.1198  12.1258  12.1481  12.1719  12.1839
    12.2194  12.2422  12.2428  12.2483  12.2531  12.3577  12.4105  12.4191
    12.4504  12.4656  12.5090  12.5259  12.5519  12.5694  12.5991  12.6248
    12.6509  12.6929  12.8422  12.9063  12.9957  13.0185  13.0254  13.0319
    13.0714  13.1357  13.1771  13.2036  13.2040  13.2208  13.2331  13.2544
    13.3512  13.3546  13.3917  13.4037  13.4290  13.4362  13.4508  13.4616
    13.4789  13.4873  13.5046  13.5433  13.5439  13.5743  13.6127  13.6219
    13.6361  13.6501  13.6976  13.7079  13.7096  13.7674  13.7811  13.8286
    13.8679  13.8802  13.9185  14.0158  14.0601  14.0956  14.1644  14.1845
    14.1977  14.2561  14.2692  14.2818  14.3041  14.3200  14.3394  14.3427
    14.3558  14.3705  14.3818  14.4950  14.4953  14.5029  14.5232  14.5524
    14.6934  14.7348  14.7381  14.7414  14.7673  14.7974  14.8276  14.8320
    14.8615  14.9247  14.9404  14.9790  15.0350  15.0393  15.1060  15.1545
    15.1598  15.1747  15.1823  15.2115  15.2131  15.2408  15.2821  15.2882
    15.2914  15.3177  15.3546  15.3862  15.3930  15.4695  15.4825  15.4828
    15.4849  15.5112  15.5276  15.5294  15.5396  15.5443  15.5474  15.5779
    15.5842  15.6340  15.6529  15.6758  15.6891  15.7173  15.7344  15.7949
    15.8926  15.8966  15.9258  15.9532  16.0397  16.0829  16.2698  16.3717
    16.4001  16.4081  16.7637  16.8800  16.9631  17.0531  17.1456  18.4603
    18.4866  18.4937  18.5234  18.6710  18.8742  19.0570  19.4731  20.1846
    20.2929  20.5725  20.9945  21.2040  21.4243  21.5316  22.0359  22.0935
    22.2821  22.3835  22.4562  22.6213  22.6821  22.7215  22.8190  23.3293
    23.3415  23.4115  23.5292  23.7756  24.3802  24.5248  24.7780  24.8801
    25.6582  25.6787  25.9434  25.9924  26.0083  26.1800  26.2988  26.3517
    26.3566  26.6326

          k = 0.0556 0.3889 0.3363 ( 38183 PWs)   bands (ev):

   -68.2629 -68.2569 -68.2433 -68.2409 -68.2396 -68.2379 -68.2337 -68.2317
   -68.2303 -68.2300 -68.2290 -68.2287 -68.2278 -68.2231 -68.2222 -68.2203
   -67.7547 -67.7545 -67.7508 -67.7506 -67.7429 -67.7428 -67.7426 -67.7425
   -67.7410 -67.7409 -67.7406 -67.7405 -67.7326 -67.7326 -67.7287 -67.7287
   -34.0896 -34.0865 -34.0838 -34.0817 -34.0770 -34.0763 -34.0670 -34.0649
   -34.0643 -34.0612 -34.0575 -34.0569 -34.0552 -34.0530 -34.0016 -33.9986
   -33.9740 -33.9651 -33.9546 -33.9516 -33.9486 -33.9470 -33.9459 -33.9459
   -33.9452 -33.9413 -33.9355 -33.9351 -33.9257 -33.9218 -33.9173 -33.9145
   -33.9117 -33.8991 -33.8797 -33.8787 -33.8786 -33.8737 -33.8725 -33.8686
   -33.8668 -33.8645 -33.8639 -33.8581 -33.8566 -33.8509 -33.8451 -33.8381
   -33.5910 -33.5888 -33.5835 -33.5822 -33.5815 -33.5802 -33.5726 -33.5719
   -33.5695 -33.5677 -33.5634 -33.5625 -33.5579 -33.5555 -33.5496 -33.5486
   -33.4652 -33.4641 -33.4563 -33.4561 -33.4505 -33.4499 -33.4437 -33.4435
   -33.4413 -33.4406 -33.4309 -33.4305 -33.4296 -33.4295 -33.4207 -33.4206
   -33.3850 -33.3817 -33.3813 -33.3776 -33.3755 -33.3750 -33.3737 -33.3736
   -33.3718 -33.3718 -33.3712 -33.3707 -33.3679 -33.3667 -33.3652 -33.3649
     9.9691  10.5209  11.0394  11.2493  11.2804  11.3093  11.3140  11.3336
    11.3631  11.3756  11.3966  11.4496  11.4718  11.4933  11.5057  11.5212
    11.5322  11.5661  11.6124  11.6179  11.6935  11.7416  11.7588  11.7924
[...]
    14.1695  14.1695  14.1695  14.1695  14.1695  14.1696  14.1696  14.1696
    14.3016  14.3016  14.3016  14.3016  14.3555  14.3555  14.3555  14.3556
    14.5432  14.5432  14.5432  14.5432  14.7108  14.7108  14.7108  14.7108
    14.8341  14.8341  14.8341  14.8341  14.9421  14.9421  14.9421  14.9421
    14.9421  14.9421  14.9421  14.9422  15.0245  15.0245  15.0245  15.0245
    15.2748  15.2748  15.2749  15.2749  15.3346  15.3346  15.3347  15.3347
    15.4859  15.4859  15.4859  15.4859  15.4859  15.4859  15.4859  15.4859
    15.5594  15.5594  15.5594  15.5594  15.6470  15.6470  15.6470  15.6470
    15.7228  15.7228  15.7228  15.7228  15.7228  15.7228  15.7228  15.7228
    16.5437  16.5437  16.5437  16.5437  19.0256  19.0257  19.0257  19.0257
    19.0257  19.0257  19.0257  19.0257  20.0853  20.0853  20.0853  20.0853
    20.0853  20.0853  20.0853  20.0853  20.3908  20.3908  20.3908  20.3908
    22.3695  22.3695  22.3695  22.3695  22.3695  22.3695  22.3695  22.3695
    23.5309  23.5309  23.5309  23.5309  24.4322  24.4323  24.4323  24.4323
    25.4530  25.4530  25.4530  25.4530  25.4530  25.4530  25.4530  25.4530
    25.9381  25.9382

          k =-0.5000-0.5000 0.2402 ( 38184 PWs)   bands (ev):

   -67.9505 -67.9505 -67.9505 -67.9505 -67.9469 -67.9469 -67.9469 -67.9469
   -67.9406 -67.9406 -67.9406 -67.9406 -67.9370 -67.9370 -67.9370 -67.9370
   -67.9279 -67.9279 -67.9279 -67.9279 -67.9278 -67.9278 -67.9278 -67.9278
   -67.9278 -67.9277 -67.9277 -67.9277 -67.9277 -67.9277 -67.9277 -67.9277
   -33.7779 -33.7779 -33.7779 -33.7779 -33.7779 -33.7779 -33.7779 -33.7779
   -33.7755 -33.7755 -33.7755 -33.7755 -33.7755 -33.7755 -33.7755 -33.7755
   -33.7095 -33.7095 -33.7095 -33.7095 -33.7048 -33.7048 -33.7048 -33.7048
   -33.6891 -33.6891 -33.6891 -33.6891 -33.6694 -33.6694 -33.6694 -33.6694
   -33.6623 -33.6623 -33.6623 -33.6623 -33.6623 -33.6623 -33.6623 -33.6623
   -33.6584 -33.6584 -33.6584 -33.6584 -33.6584 -33.6584 -33.6584 -33.6584
   -33.6576 -33.6576 -33.6576 -33.6576 -33.6155 -33.6155 -33.6155 -33.6155
   -33.5908 -33.5908 -33.5907 -33.5907 -33.5907 -33.5907 -33.5907 -33.5907
   -33.5899 -33.5899 -33.5899 -33.5899 -33.5843 -33.5842 -33.5842 -33.5842
   -33.5842 -33.5842 -33.5842 -33.5842 -33.5820 -33.5820 -33.5820 -33.5820
   -33.5704 -33.5703 -33.5703 -33.5703 -33.5680 -33.5680 -33.5680 -33.5680
   -33.5600 -33.5600 -33.5600 -33.5600 -33.5526 -33.5526 -33.5526 -33.5526
    11.1726  11.1727  11.1727  11.1727  11.5667  11.5667  11.5667  11.5667
    12.0393  12.0393  12.0393  12.0393  12.0607  12.0607  12.0607  12.0607
    12.2438  12.2439  12.2439  12.2439  12.2439  12.2439  12.2439  12.2439
    12.3263  12.3263  12.3263  12.3263  12.3263  12.3263  12.3263  12.3263
    12.5717  12.5717  12.5717  12.5717  12.5717  12.5717  12.5717  12.5718
    12.7910  12.7910  12.7910  12.7910  12.9309  12.9309  12.9310  12.9310
    12.9310  12.9310  12.9310  12.9310  13.0096  13.0097  13.0097  13.0097
    13.2181  13.2181  13.2181  13.2181  13.3196  13.3196  13.3196  13.3197
    13.4579  13.4579  13.4580  13.4580  13.5026  13.5026  13.5026  13.5026
    13.6531  13.6531  13.6532  13.6532  13.7588  13.7589  13.7589  13.7589
    13.9862  13.9862  13.9862  13.9862  13.9862  13.9862  13.9862  13.9862
    14.1594  14.1594  14.1594  14.1595  14.1595  14.1595  14.1595  14.1595
    14.2058  14.2058  14.2058  14.2058  14.2059  14.2059  14.2059  14.2059
    14.2900  14.2900  14.2900  14.2900  14.3177  14.3177  14.3177  14.3178
    14.6253  14.6253  14.6253  14.6253  14.6982  14.6982  14.6983  14.6983
    14.7381  14.7381  14.7381  14.7381  14.7381  14.7381  14.7381  14.7381
    14.8920  14.8920  14.8920  14.8920  14.9650  14.9650  14.9650  14.9650
    15.0017  15.0017  15.0017  15.0017  15.2429  15.2429  15.2430  15.2430
    15.6078  15.6078  15.6078  15.6078  15.6078  15.6078  15.6078  15.6078
    15.6087  15.6087  15.6087  15.6087  15.6584  15.6584  15.6584  15.6585
    15.7383  15.7383  15.7383  15.7383  15.7384  15.7384  15.7384  15.7384
    17.0892  17.0892  17.0892  17.0892  19.1263  19.1263  19.1264  19.1264
    19.1264  19.1264  19.1264  19.1264  19.7082  19.7083  19.7083  19.7083
    19.8888  19.8889  19.8889  19.8889  19.8889  19.8889  19.8889  19.8889
    22.6992  22.6992  22.6992  22.6992  22.6992  22.6992  22.6992  22.6992
    24.0903  24.0904  24.0904  24.0904  24.7962  24.7962  24.7962  24.7962
    24.7962  24.7962  24.7963  24.7963  24.8418  24.8418  24.8418  24.8418
    25.5201  25.5201

          k =-0.5000-0.5000 0.3363 ( 38184 PWs)   bands (ev):

   -67.9499 -67.9498 -67.9498 -67.9498 -67.9480 -67.9480 -67.9480 -67.9480
   -67.9395 -67.9395 -67.9395 -67.9395 -67.9377 -67.9377 -67.9377 -67.9376
   -67.9279 -67.9279 -67.9279 -67.9279 -67.9278 -67.9278 -67.9278 -67.9278
   -67.9278 -67.9277 -67.9277 -67.9277 -67.9277 -67.9277 -67.9277 -67.9277
   -33.7773 -33.7773 -33.7773 -33.7773 -33.7773 -33.7773 -33.7773 -33.7773
   -33.7761 -33.7761 -33.7761 -33.7761 -33.7761 -33.7761 -33.7761 -33.7761
   -33.7103 -33.7103 -33.7103 -33.7103 -33.7078 -33.7078 -33.7078 -33.7078
   -33.6836 -33.6836 -33.6836 -33.6836 -33.6733 -33.6733 -33.6733 -33.6733
   -33.6614 -33.6614 -33.6614 -33.6614 -33.6614 -33.6614 -33.6614 -33.6614
   -33.6594 -33.6594 -33.6594 -33.6594 -33.6594 -33.6594 -33.6594 -33.6594
   -33.6478 -33.6478 -33.6478 -33.6478 -33.6264 -33.6263 -33.6263 -33.6263
   -33.5891 -33.5891 -33.5891 -33.5891 -33.5891 -33.5891 -33.5891 -33.5891
   -33.5884 -33.5884 -33.5884 -33.5884 -33.5857 -33.5857 -33.5856 -33.5856
   -33.5856 -33.5856 -33.5856 -33.5856 -33.5844 -33.5844 -33.5844 -33.5844
   -33.5655 -33.5655 -33.5655 -33.5655 -33.5644 -33.5643 -33.5643 -33.5643
   -33.5615 -33.5615 -33.5615 -33.5615 -33.5556 -33.5555 -33.5555 -33.5555
    11.2469  11.2470  11.2470  11.2470  11.4490  11.4490  11.4490  11.4490
    12.0689  12.0689  12.0689  12.0689  12.0722  12.0722  12.0722  12.0722
    12.2394  12.2394  12.2394  12.2394  12.2395  12.2395  12.2395  12.2395
    12.2854  12.2854  12.2854  12.2854  12.2854  12.2854  12.2854  12.2854
    12.6772  12.6772  12.6773  12.6773  12.6773  12.6773  12.6773  12.6773
    12.8308  12.8308  12.8308  12.8308  12.8697  12.8697  12.8698  12.8698
    12.8698  12.8698  12.8698  12.8698  12.9443  12.9443  12.9443  12.9443
    13.2477  13.2477  13.2477  13.2477  13.2999  13.2999  13.2999  13.2999
    13.5327  13.5327  13.5327  13.5327  13.5505  13.5505  13.5505  13.5505
    13.6513  13.6513  13.6513  13.6513  13.6918  13.6919  13.6919  13.6919
    14.0482  14.0482  14.0482  14.0482  14.0482  14.0483  14.0483  14.0483
    14.1403  14.1403  14.1404  14.1404  14.1404  14.1404  14.1404  14.1404
    14.2715  14.2715  14.2715  14.2715  14.2715  14.2715  14.2715  14.2715
    14.2817  14.2817  14.2817  14.2818  14.2934  14.2934  14.2934  14.2934
    14.5455  14.5455  14.5455  14.5455  14.5455  14.5455  14.5455  14.5455
    14.6954  14.6954  14.6954  14.6954  14.7128  14.7128  14.7128  14.7128
    14.8197  14.8197  14.8198  14.8198  14.8882  14.8882  14.8882  14.8882
    14.9680  14.9680  14.9680  14.9680  15.1485  15.1485  15.1485  15.1485
    15.6425  15.6425  15.6425  15.6425  15.6650  15.6650  15.6650  15.6650
    15.6901  15.6901  15.6901  15.6901  15.6901  15.6901  15.6901  15.6901
    15.7464  15.7464  15.7464  15.7464  15.7464  15.7464  15.7464  15.7464
    17.6861  17.6861  17.6861  17.6861  19.0076  19.0077  19.0077  19.0077
    19.2729  19.2729  19.2729  19.2729  19.2729  19.2729  19.2729  19.2729
    19.6695  19.6695  19.6695  19.6695  19.6695  19.6695  19.6695  19.6695
    23.1255  23.1255  23.1255  23.1255  23.1255  23.1255  23.1255  23.1255
    24.1839  24.1839  24.1839  24.1839  24.1839  24.1839  24.1839  24.1839
    24.4610  24.4610  24.4611  24.4611  25.1354  25.1354  25.1355  25.1355
    25.5928  25.5928

          k =-0.5000-0.5000-0.4324 ( 38168 PWs)   bands (ev):

   -67.9491 -67.9490 -67.9490 -67.9490 -67.9490 -67.9490 -67.9490 -67.9489
   -67.9386 -67.9385 -67.9385 -67.9385 -67.9385 -67.9384 -67.9384 -67.9384
   -67.9279 -67.9279 -67.9279 -67.9279 -67.9278 -67.9278 -67.9278 -67.9278
   -67.9278 -67.9277 -67.9277 -67.9277 -67.9277 -67.9277 -67.9277 -67.9277
   -33.7767 -33.7767 -33.7767 -33.7767 -33.7767 -33.7767 -33.7767 -33.7767
   -33.7766 -33.7766 -33.7766 -33.7766 -33.7766 -33.7766 -33.7766 -33.7766
   -33.7097 -33.7097 -33.7097 -33.7097 -33.7096 -33.7096 -33.7096 -33.7096
   -33.6782 -33.6782 -33.6782 -33.6782 -33.6781 -33.6781 -33.6781 -33.6781
   -33.6605 -33.6605 -33.6605 -33.6605 -33.6605 -33.6605 -33.6605 -33.6605
   -33.6604 -33.6604 -33.6604 -33.6604 -33.6604 -33.6604 -33.6604 -33.6604
   -33.6372 -33.6372 -33.6372 -33.6372 -33.6371 -33.6371 -33.6371 -33.6371
   -33.5875 -33.5874 -33.5874 -33.5874 -33.5874 -33.5874 -33.5874 -33.5874
   -33.5873 -33.5873 -33.5873 -33.5873 -33.5873 -33.5873 -33.5873 -33.5873
   -33.5866 -33.5866 -33.5866 -33.5866 -33.5866 -33.5866 -33.5866 -33.5866
   -33.5634 -33.5634 -33.5634 -33.5634 -33.5633 -33.5633 -33.5633 -33.5633
   -33.5594 -33.5594 -33.5594 -33.5594 -33.5594 -33.5593 -33.5593 -33.5593
    11.3405  11.3405  11.3405  11.3406  11.3406  11.3407  11.3407  11.3407
    12.0774  12.0774  12.0774  12.0774  12.0775  12.0775  12.0775  12.0775
    12.2543  12.2543  12.2543  12.2543  12.2544  12.2544  12.2544  12.2544
    12.2544  12.2544  12.2544  12.2544  12.2544  12.2544  12.2544  12.2545
    12.7807  12.7807  12.7808  12.7808  12.7808  12.7808  12.7808  12.7808
    12.7808  12.7808  12.7808  12.7808  12.7809  12.7809  12.7809  12.7809
    12.8827  12.8827  12.8828  12.8828  12.8829  12.8829  12.8829  12.8829
    13.2754  13.2755  13.2755  13.2755  13.2755  13.2755  13.2755  13.2755
    13.6054  13.6054  13.6055  13.6055  13.6055  13.6055  13.6056  13.6056
    13.6182  13.6182  13.6182  13.6182  13.6182  13.6182  13.6182  13.6182
    14.1053  14.1053  14.1054  14.1054  14.1054  14.1054  14.1054  14.1054
    14.1054  14.1054  14.1054  14.1054  14.1054  14.1054  14.1054  14.1055
    14.2818  14.2818  14.2818  14.2819  14.2819  14.2819  14.2819  14.2820
    14.3834  14.3834  14.3834  14.3834  14.3834  14.3834  14.3834  14.3834
    14.3834  14.3834  14.3835  14.3835  14.3835  14.3835  14.3835  14.3835
    14.7255  14.7256  14.7256  14.7256  14.7256  14.7257  14.7257  14.7257
    14.8020  14.8020  14.8021  14.8021  14.8021  14.8021  14.8021  14.8021
    15.0553  15.0553  15.0553  15.0553  15.0553  15.0553  15.0554  15.0554
    15.6608  15.6608  15.6608  15.6608  15.6608  15.6608  15.6608  15.6608
    15.7340  15.7340  15.7340  15.7340  15.7340  15.7340  15.7340  15.7340
    15.7340  15.7340  15.7340  15.7340  15.7340  15.7340  15.7340  15.7340
    18.3284  18.3284  18.3285  18.3285  18.3285  18.3285  18.3285  18.3285
    19.4579  19.4579  19.4579  19.4579  19.4579  19.4579  19.4579  19.4579
    19.4579  19.4580  19.4580  19.4580  19.4580  19.4580  19.4580  19.4580
    23.6243  23.6243  23.6243  23.6243  23.6243  23.6243  23.6243  23.6243
    23.6245  23.6245  23.6245  23.6245  23.6245  23.6245  23.6245  23.6245
    24.7859  24.7859  24.7859  24.7860  24.7860  24.7860  24.7860  24.7860
    26.4929  26.4930

     the Fermi energy is    15.7797 ev

!    total energy              =  -16384.55465787 Ry

     total all-electron energy =   -322945.408365 Ry
     estimated scf accuracy    <          5.6E-09 Ry
     smearing contrib. (-TS)   =       0.13991851 Ry
     internal energy E=F+TS    =  -16384.69457638 Ry

     The total energy is F=E-TS. E is the sum of the following terms:
     one-electron contribution =   -2970.32341065 Ry
     hartree contribution      =    1836.78102098 Ry
     xc contribution           =    -983.89019689 Ry
     ewald contribution        =   -6099.98806822 Ry
     one-center paw contrib.   =   -8167.27392161 Ry

     convergence has been achieved in  10 iterations

     Forces acting on atoms (cartesian axes, Ry/au):

     atom    1 type  1   force =     0.00000000    0.00000000    0.00006047
     atom    2 type  1   force =    -0.00000501   -0.00000501    0.00005996
     atom    3 type  1   force =     0.00000084    0.00000000    0.00002859
     atom    4 type  1   force =     0.00000000    0.00000084    0.00002859
     atom    5 type  1   force =     0.00000000    0.00000000   -0.00003209
     atom    6 type  1   force =    -0.00000197   -0.00000197   -0.00003069
     atom    7 type  1   force =     0.00000125    0.00000000   -0.00005740
     atom    8 type  1   force =     0.00000000    0.00000125   -0.00005740
     atom    9 type  1   force =     0.00000000    0.00000000    0.00005970
     atom   10 type  1   force =    -0.00000501    0.00000501    0.00005996
     atom   11 type  1   force =    -0.00001138    0.00000000    0.00002959
     atom   12 type  1   force =     0.00000000   -0.00000084    0.00002859
     atom   13 type  1   force =     0.00000000    0.00000000   -0.00003151
     atom   14 type  1   force =    -0.00000197    0.00000197   -0.00003069
     atom   15 type  1   force =    -0.00000473    0.00000000   -0.00005836
     atom   16 type  1   force =     0.00000000   -0.00000125   -0.00005740
     atom   17 type  1   force =     0.00000000    0.00000000    0.00005970
     atom   18 type  1   force =     0.00000501   -0.00000501    0.00005996
     atom   19 type  1   force =    -0.00000084    0.00000000    0.00002859
     atom   20 type  1   force =     0.00000000   -0.00001138    0.00002959
     atom   21 type  1   force =     0.00000000    0.00000000   -0.00003151
     atom   22 type  1   force =     0.00000197   -0.00000197   -0.00003069
     atom   23 type  1   force =    -0.00000125    0.00000000   -0.00005740
     atom   24 type  1   force =     0.00000000   -0.00000473   -0.00005836
     atom   25 type  1   force =     0.00000000    0.00000000    0.00005827
     atom   26 type  1   force =     0.00000501    0.00000501    0.00005996
     atom   27 type  1   force =     0.00001138    0.00000000    0.00002959
     atom   28 type  1   force =     0.00000000    0.00001138    0.00002959
     atom   29 type  1   force =     0.00000000    0.00000000   -0.00002980
     atom   30 type  1   force =     0.00000197    0.00000197   -0.00003069
     atom   31 type  1   force =     0.00000473    0.00000000   -0.00005836
     atom   32 type  1   force =     0.00000000    0.00000473   -0.00005836

     Total force =     0.000266     Total SCF correction =     0.000717
     SCF correction compared to forces is large: reduce conv_thr to get better values


     Computing stress (Cartesian axis) and pressure

          total   stress  (Ry/bohr**3)                   (kbar)     P=     -164.80
  -0.00093263   0.00000000   0.00000000         -137.19        0.00        0.00
   0.00000000  -0.00093263   0.00000000            0.00     -137.19        0.00
   0.00000000   0.00000000  -0.00149563            0.00        0.00     -220.01

     Energy error            =      4.6E-06
     Gradient error          =      6.0E-05

     bfgs converged in  15 scf cycles and  14 bfgs steps
     (criteria: energy <  1.0E-04 Ry, force <  1.0E-03 Ry/Bohr)

     End of BFGS Geometry Optimization

     Final energy   =  -16384.5546578697 Ry

     File /scratch/XozLMydxiEoQapuz.bfgs deleted, as requested
Begin final coordinates

ATOMIC_POSITIONS (crystal)
Pd            0.0000000000        0.0000000000        0.0168969752
Pd            0.2500025604        0.2500025604        0.0168944138
Pd            0.2500005253        0.0000000000        0.2668788477
Pd            0.0000000000        0.2500005253        0.2668788477
Pd            0.0000000000        0.0000000000        0.5169054177
Pd            0.2500012173        0.2500012173        0.5169058034
Pd            0.2500001598        0.0000000000        0.7668876891
Pd            0.0000000000        0.2500001598        0.7668876891
Pd            0.0000000000        0.5000000000        0.0168961780
Pd            0.2500025604        0.7499974396        0.0168944138
Pd            0.2500048539        0.5000000000        0.2668794737
Pd            0.0000000000        0.7499994747        0.2668788477
Pd            0.0000000000        0.5000000000        0.5169063684
Pd            0.2500012173        0.7499987827        0.5169058034
Pd            0.2500022115        0.5000000000        0.7668866588
Pd            0.0000000000        0.7499998402        0.7668876891
Pd            0.5000000000        0.0000000000        0.0168961780
Pd            0.7499974396        0.2500025604        0.0168944138
Pd            0.7499994747        0.0000000000        0.2668788477
Pd            0.5000000000        0.2500048539        0.2668794737
Pd            0.5000000000        0.0000000000        0.5169063684
Pd            0.7499987827        0.2500012173        0.5169058034
Pd            0.7499998402        0.0000000000        0.7668876891
Pd            0.5000000000        0.2500022115        0.7668866588
Pd            0.5000000000        0.5000000000        0.0168942720
Pd            0.7499974396        0.7499974396        0.0168944138
Pd            0.7499951461        0.5000000000        0.2668794737
Pd            0.5000000000        0.7499951461        0.2668794737
Pd            0.5000000000        0.5000000000        0.5169072372
Pd            0.7499987827        0.7499987827        0.5169058034
Pd            0.7499977885        0.5000000000        0.7668866588
Pd            0.5000000000        0.7499977885        0.7668866588
End final coordinates



     Writing output data file /scratch/XozLMydxiEoQapuz.save/
 
     init_run     :     24.35s CPU     24.91s WALL (       1 calls)
     electrons    :  18134.24s CPU  18375.02s WALL (      15 calls)
     update_pot   :      3.32s CPU      3.43s WALL (      14 calls)
     forces       :    203.95s CPU    205.58s WALL (      15 calls)
     stress       :   1589.12s CPU   1601.82s WALL (      15 calls)

     Called by init_run:
     wfcinit      :     23.86s CPU     24.35s WALL (       1 calls)
     potinit      :      0.15s CPU      0.17s WALL (       1 calls)
     hinit0       :      0.13s CPU      0.13s WALL (       1 calls)

     Called by electrons:
     c_bands      :  16219.43s CPU  16385.91s WALL (     209 calls)
     sum_band     :   1887.65s CPU   1913.59s WALL (     209 calls)
     v_of_rho     :      3.24s CPU      3.38s WALL (     217 calls)
     newd         :      5.76s CPU      8.34s WALL (     217 calls)
     PAW_pot      :     19.27s CPU     20.33s WALL (     231 calls)
     mix_rho      :      0.89s CPU      1.06s WALL (     209 calls)

     Called by c_bands:
     init_us_2    :     86.13s CPU     87.13s WALL (   34725 calls)
     cegterg      :  15911.09s CPU  16073.98s WALL (   15675 calls)

     Called by *egterg:
     cdiaghg      :   1610.45s CPU   1619.97s WALL (   53132 calls)
     h_psi        :   8136.88s CPU   8251.95s WALL (   54782 calls)
     s_psi        :    759.93s CPU    764.58s WALL (   54782 calls)
     g_psi        :     24.15s CPU     24.56s WALL (   39032 calls)

     Called by h_psi:
     h_psi:calbec :   1265.47s CPU   1273.19s WALL (   54782 calls)
     vloc_psi     :   6053.85s CPU   6147.91s WALL (   54782 calls)
     add_vuspsi   :    763.02s CPU    775.61s WALL (   54782 calls)

     General routines
     calbec       :   2146.01s CPU   2159.16s WALL (   77132 calls)
     fft          :      3.41s CPU      3.53s WALL (    3187 calls)
     ffts         :      0.27s CPU      0.29s WALL (     426 calls)
     fftw         :   7033.57s CPU   7141.60s WALL (32207082 calls)
     interpolate  :      0.50s CPU      0.52s WALL (     217 calls)
 
     Parallel routines
     fft_scatt_xy :    558.93s CPU    567.81s WALL (32210695 calls)
     fft_scatt_yz :   5514.98s CPU   5600.17s WALL (32210695 calls)
 
     PWSCF        :      5h33m CPU      5h38m WALL

 
   This run was terminated on:  20:14:32   7Jan2022            

=------------------------------------------------------------------------------=
   JOB DONE.
=------------------------------------------------------------------------------=
