
     Program PWSCF v.6.7MaX starts on  7Jan2022 at 12:36:33 

     This program is part of the open-source Quantum ESPRESSO suite
     for quantum simulation of materials; please cite
         "P. Giannozzi et al., J. Phys.:Condens. Matter 21 395502 (2009);
         "P. Giannozzi et al., J. Phys.:Condens. Matter 29 465901 (2017);
          URL http://www.quantum-espresso.org", 
     in publications or presentations arising from this work. More details at
     http://www.quantum-espresso.org/quote

     Parallel version (MPI & OpenMP), running on      72 processor cores
     Number of MPI processes:                72
     Threads/MPI process:                     1

     MPI processes distributed on     1 nodes
     R & G space division:  proc/nbgrp/npool/nimage =      72
     Reading input from relax_19.in
Warning: card &CELL ignored
Warning: card CELL_DYNAMICS = 'BFGS', ignored
Warning: card CELL_FACTOR = 2.0, ignored
Warning: card PRESS = 0.0, ignored
Warning: card / ignored

     Current dimensions of program PWSCF are:
     Max number of different atomic species (ntypx) = 10
     Max number of k-points (npk) =  40000
     Max angular momentum in pseudopotentials (lmaxx) =  3
     file Pd.pbe-spn-kjpaw_psl.1.0.0.UPF: wavefunction(s)  4S 5S 4D renormalized

     Subspace diagonalization in iterative solution of the eigenvalue problem:
     one sub-group per band group will be used
     ELPA distributed-memory algorithm (size of sub-group:  8*  8 procs)

     Found symmetry operation: I + (  0.2500  0.2500  0.0000)
     This is a supercell, fractional translations are disabled
     Message from routine setup:
     using ibrav=0 with symmetry is DISCOURAGED, use correct ibrav instead
 
     Parallelization info
     --------------------
     sticks:   dense  smooth     PW     G-vecs:    dense   smooth      PW
     Min         104      68     18                10672     5722     800
     Max         105      69     19                10683     5735     809
     Sum        7521    4957   1353               768753   412577   57921
 


     bravais-lattice index     =            0
     lattice parameter (alat)  =      14.8394  a.u.
     unit-cell volume          =    5105.8824 (a.u.)^3
     number of atoms/cell      =           32
     number of atomic types    =            1
     number of electrons       =       576.00
     number of Kohn-Sham states=          346
     kinetic-energy cutoff     =      71.0000  Ry
     charge density cutoff     =     430.0000  Ry
     scf convergence threshold =      1.0E-06
     mixing beta               =       0.1000
     number of iterations used =           10  TF        mixing
     energy convergence thresh.=      1.0E-04
     force convergence thresh. =      1.0E-03
     Exchange-correlation= SLA  PW   PBX  PBC
                           (   1   4   3   4   0   0   0)
     nstep                     =           40


     celldm(1)=  14.839420  celldm(2)=   0.000000  celldm(3)=   0.000000
     celldm(4)=   0.000000  celldm(5)=   0.000000  celldm(6)=   0.000000

     crystal axes: (cart. coord. in units of alat)
               a(1) = (   1.000000   0.000000   0.000000 )  
               a(2) = (   0.000000   1.000000   0.000000 )  
               a(3) = (   0.000000   0.000000   1.562500 )  

     reciprocal axes: (cart. coord. in units 2 pi/alat)
               b(1) = (  1.000000  0.000000  0.000000 )  
               b(2) = (  0.000000  1.000000  0.000000 )  
               b(3) = (  0.000000  0.000000  0.640000 )  


     PseudoPot. # 1 for Pd read from file:
     /rds/homes/b/bxp912/pp/Pd.pbe-spn-kjpaw_psl.1.0.0.UPF
     MD5 check sum: 790f2ebce206edfd9790dcb9844eca51
     Pseudo is Projector augmented-wave + core cor, Zval = 18.0
     Generated using &quot;atomic&quot; code by A. Dal Corso  v.6.3
     Shape of augmentation charge: PSQ
     Using radial grid of 1235 points,  6 beta functions with: 
                l(1) =   0
                l(2) =   0
                l(3) =   1
                l(4) =   1
                l(5) =   2
                l(6) =   2
     Q(r) pseudized with 0 coefficients 


     atomic species   valence    mass     pseudopotential
        Pd            18.00   106.42000     Pd( 1.00)

      8 Sym. Ops. (no inversion) found



   Cartesian axes

     site n.     atom                  positions (alat units)
         1           Pd  tau(   1) = (   0.0000000   0.0000000   0.0000000  )
         2           Pd  tau(   2) = (   0.2500000   0.2500000   0.0000000  )
         3           Pd  tau(   3) = (   0.2500000   0.0000000   0.2500000  )
         4           Pd  tau(   4) = (   0.0000000   0.2500000   0.2500000  )
         5           Pd  tau(   5) = (   0.0000000   0.0000000   1.0625000  )
         6           Pd  tau(   6) = (   0.2500000   0.2500000   1.0625000  )
         7           Pd  tau(   7) = (   0.2500000   0.0000000   1.3125000  )
         8           Pd  tau(   8) = (   0.0000000   0.2500000   1.3125000  )
         9           Pd  tau(   9) = (   0.0000000   0.5000000   0.0000000  )
        10           Pd  tau(  10) = (   0.2500000   0.7500000   0.0000000  )
        11           Pd  tau(  11) = (   0.2500000   0.5000000   0.2500000  )
        12           Pd  tau(  12) = (   0.0000000   0.7500000   0.2500000  )
        13           Pd  tau(  13) = (   0.0000000   0.5000000   1.0625000  )
        14           Pd  tau(  14) = (   0.2500000   0.7500000   1.0625000  )
        15           Pd  tau(  15) = (   0.2500000   0.5000000   1.3125000  )
        16           Pd  tau(  16) = (   0.0000000   0.7500000   1.3125000  )
        17           Pd  tau(  17) = (   0.5000000   0.0000000   0.0000000  )
        18           Pd  tau(  18) = (   0.7500000   0.2500000   0.0000000  )
        19           Pd  tau(  19) = (   0.7500000   0.0000000   0.2500000  )
        20           Pd  tau(  20) = (   0.5000000   0.2500000   0.2500000  )
        21           Pd  tau(  21) = (   0.5000000   0.0000000   1.0625000  )
        22           Pd  tau(  22) = (   0.7500000   0.2500000   1.0625000  )
        23           Pd  tau(  23) = (   0.7500000   0.0000000   1.3125000  )
        24           Pd  tau(  24) = (   0.5000000   0.2500000   1.3125000  )
        25           Pd  tau(  25) = (   0.5000000   0.5000000   0.0000000  )
        26           Pd  tau(  26) = (   0.7500000   0.7500000   0.0000000  )
        27           Pd  tau(  27) = (   0.7500000   0.5000000   0.2500000  )
        28           Pd  tau(  28) = (   0.5000000   0.7500000   0.2500000  )
        29           Pd  tau(  29) = (   0.5000000   0.5000000   1.0625000  )
        30           Pd  tau(  30) = (   0.7500000   0.7500000   1.0625000  )
        31           Pd  tau(  31) = (   0.7500000   0.5000000   1.3125000  )
        32           Pd  tau(  32) = (   0.5000000   0.7500000   1.3125000  )

     number of k points=    75  Marzari-Vanderbilt smearing, width (Ry)=  0.0400
                       cart. coord. in units 2pi/alat
        k(    1) = (   0.0555556   0.0555556   0.0355556), wk =   0.0219479
        k(    2) = (   0.0555556   0.0555556   0.1066667), wk =   0.0219479
        k(    3) = (   0.0555556   0.0555556   0.1777778), wk =   0.0219479
        k(    4) = (   0.0555556   0.0555556   0.2488889), wk =   0.0219479
        k(    5) = (   0.0555556   0.0555556  -0.3200000), wk =   0.0109739
        k(    6) = (   0.0555556   0.1666667   0.0355556), wk =   0.0438957
        k(    7) = (   0.0555556   0.1666667   0.1066667), wk =   0.0438957
        k(    8) = (   0.0555556   0.1666667   0.1777778), wk =   0.0438957
        k(    9) = (   0.0555556   0.1666667   0.2488889), wk =   0.0438957
        k(   10) = (   0.0555556   0.1666667  -0.3200000), wk =   0.0219479
        k(   11) = (   0.0555556   0.2777778   0.0355556), wk =   0.0438957
        k(   12) = (   0.0555556   0.2777778   0.1066667), wk =   0.0438957
        k(   13) = (   0.0555556   0.2777778   0.1777778), wk =   0.0438957
        k(   14) = (   0.0555556   0.2777778   0.2488889), wk =   0.0438957
        k(   15) = (   0.0555556   0.2777778  -0.3200000), wk =   0.0219479
        k(   16) = (   0.0555556   0.3888889   0.0355556), wk =   0.0438957
        k(   17) = (   0.0555556   0.3888889   0.1066667), wk =   0.0438957
        k(   18) = (   0.0555556   0.3888889   0.1777778), wk =   0.0438957
        k(   19) = (   0.0555556   0.3888889   0.2488889), wk =   0.0438957
        k(   20) = (   0.0555556   0.3888889  -0.3200000), wk =   0.0219479
        k(   21) = (   0.0555556  -0.5000000   0.0355556), wk =   0.0219479
        k(   22) = (   0.0555556  -0.5000000   0.1066667), wk =   0.0219479
        k(   23) = (   0.0555556  -0.5000000   0.1777778), wk =   0.0219479
        k(   24) = (   0.0555556  -0.5000000   0.2488889), wk =   0.0219479
        k(   25) = (   0.0555556  -0.5000000  -0.3200000), wk =   0.0109739
        k(   26) = (   0.1666667   0.1666667   0.0355556), wk =   0.0219479
        k(   27) = (   0.1666667   0.1666667   0.1066667), wk =   0.0219479
        k(   28) = (   0.1666667   0.1666667   0.1777778), wk =   0.0219479
        k(   29) = (   0.1666667   0.1666667   0.2488889), wk =   0.0219479
        k(   30) = (   0.1666667   0.1666667  -0.3200000), wk =   0.0109739
        k(   31) = (   0.1666667   0.2777778   0.0355556), wk =   0.0438957
        k(   32) = (   0.1666667   0.2777778   0.1066667), wk =   0.0438957
        k(   33) = (   0.1666667   0.2777778   0.1777778), wk =   0.0438957
        k(   34) = (   0.1666667   0.2777778   0.2488889), wk =   0.0438957
        k(   35) = (   0.1666667   0.2777778  -0.3200000), wk =   0.0219479
        k(   36) = (   0.1666667   0.3888889   0.0355556), wk =   0.0438957
        k(   37) = (   0.1666667   0.3888889   0.1066667), wk =   0.0438957
        k(   38) = (   0.1666667   0.3888889   0.1777778), wk =   0.0438957
        k(   39) = (   0.1666667   0.3888889   0.2488889), wk =   0.0438957
        k(   40) = (   0.1666667   0.3888889  -0.3200000), wk =   0.0219479
        k(   41) = (   0.1666667  -0.5000000   0.0355556), wk =   0.0219479
        k(   42) = (   0.1666667  -0.5000000   0.1066667), wk =   0.0219479
        k(   43) = (   0.1666667  -0.5000000   0.1777778), wk =   0.0219479
        k(   44) = (   0.1666667  -0.5000000   0.2488889), wk =   0.0219479
        k(   45) = (   0.1666667  -0.5000000  -0.3200000), wk =   0.0109739
        k(   46) = (   0.2777778   0.2777778   0.0355556), wk =   0.0219479
        k(   47) = (   0.2777778   0.2777778   0.1066667), wk =   0.0219479
        k(   48) = (   0.2777778   0.2777778   0.1777778), wk =   0.0219479
        k(   49) = (   0.2777778   0.2777778   0.2488889), wk =   0.0219479
        k(   50) = (   0.2777778   0.2777778  -0.3200000), wk =   0.0109739
        k(   51) = (   0.2777778   0.3888889   0.0355556), wk =   0.0438957
        k(   52) = (   0.2777778   0.3888889   0.1066667), wk =   0.0438957
        k(   53) = (   0.2777778   0.3888889   0.1777778), wk =   0.0438957
        k(   54) = (   0.2777778   0.3888889   0.2488889), wk =   0.0438957
        k(   55) = (   0.2777778   0.3888889  -0.3200000), wk =   0.0219479
        k(   56) = (   0.2777778  -0.5000000   0.0355556), wk =   0.0219479
        k(   57) = (   0.2777778  -0.5000000   0.1066667), wk =   0.0219479
        k(   58) = (   0.2777778  -0.5000000   0.1777778), wk =   0.0219479
        k(   59) = (   0.2777778  -0.5000000   0.2488889), wk =   0.0219479
        k(   60) = (   0.2777778  -0.5000000  -0.3200000), wk =   0.0109739
        k(   61) = (   0.3888889   0.3888889   0.0355556), wk =   0.0219479
        k(   62) = (   0.3888889   0.3888889   0.1066667), wk =   0.0219479
        k(   63) = (   0.3888889   0.3888889   0.1777778), wk =   0.0219479
        k(   64) = (   0.3888889   0.3888889   0.2488889), wk =   0.0219479
        k(   65) = (   0.3888889   0.3888889  -0.3200000), wk =   0.0109739
        k(   66) = (   0.3888889  -0.5000000   0.0355556), wk =   0.0219479
        k(   67) = (   0.3888889  -0.5000000   0.1066667), wk =   0.0219479
        k(   68) = (   0.3888889  -0.5000000   0.1777778), wk =   0.0219479
        k(   69) = (   0.3888889  -0.5000000   0.2488889), wk =   0.0219479
        k(   70) = (   0.3888889  -0.5000000  -0.3200000), wk =   0.0109739
        k(   71) = (  -0.5000000  -0.5000000   0.0355556), wk =   0.0054870
        k(   72) = (  -0.5000000  -0.5000000   0.1066667), wk =   0.0054870
        k(   73) = (  -0.5000000  -0.5000000   0.1777778), wk =   0.0054870
        k(   74) = (  -0.5000000  -0.5000000   0.2488889), wk =   0.0054870
        k(   75) = (  -0.5000000  -0.5000000  -0.3200000), wk =   0.0027435

     Dense  grid:   768753 G-vectors     FFT dimensions: ( 100, 100, 160)

     Smooth grid:   412577 G-vectors     FFT dimensions: (  80,  80, 125)

     Estimated max dynamical RAM per process >     348.17 MB

     Estimated total dynamical RAM >      24.48 GB

     Check: negative core charge=   -0.000001

     Initial potential from superposition of free atoms

     starting charge  575.98776, renormalised to  576.00000
     Starting wfcs are  320 randomized atomic wfcs +   26 random wfcs
     Checking if some PAW data can be deallocated... 

     total cpu time spent up to now is       28.4 secs

     Self-consistent Calculation

     iteration #  1     ecut=    71.00 Ry     beta= 0.10
     Davidson diagonalization with overlap
     ethr =  1.00E-02,  avg # of iterations =  4.1

     Threshold (ethr) on eigenvalues was too large:
     Diagonalizing with lowered threshold

     Davidson diagonalization with overlap
     ethr =  7.48E-04,  avg # of iterations =  1.1

     total cpu time spent up to now is      204.5 secs

     total energy              =  -16384.82473447 Ry
     estimated scf accuracy    <       4.29850500 Ry

     iteration #  2     ecut=    71.00 Ry     beta= 0.10
     Davidson diagonalization with overlap
     ethr =  7.46E-04,  avg # of iterations =  1.1

     total cpu time spent up to now is      279.1 secs

     total energy              =  -16384.35309202 Ry
     estimated scf accuracy    <       3.88208629 Ry

     iteration #  3     ecut=    71.00 Ry     beta= 0.10
     Davidson diagonalization with overlap
     ethr =  6.74E-04,  avg # of iterations =  2.4

     total cpu time spent up to now is      364.5 secs

     total energy              =  -16384.17118358 Ry
     estimated scf accuracy    <       2.62542091 Ry

     iteration #  4     ecut=    71.00 Ry     beta= 0.10
     Davidson diagonalization with overlap
     ethr =  4.56E-04,  avg # of iterations =  4.9

     total cpu time spent up to now is      455.0 secs

     total energy              =  -16384.33220412 Ry
     estimated scf accuracy    <       0.81571101 Ry

     iteration #  5     ecut=    71.00 Ry     beta= 0.10
     Davidson diagonalization with overlap
     ethr =  1.42E-04,  avg # of iterations =  2.9

     total cpu time spent up to now is      538.0 secs

     total energy              =  -16384.05348657 Ry
     estimated scf accuracy    <       1.05466425 Ry

     iteration #  6     ecut=    71.00 Ry     beta= 0.10
     Davidson diagonalization with overlap
     ethr =  1.42E-04,  avg # of iterations =  5.5

     total cpu time spent up to now is      632.8 secs

     total energy              =  -16384.08556730 Ry
     estimated scf accuracy    <       0.29750304 Ry

     iteration #  7     ecut=    71.00 Ry     beta= 0.10
     Davidson diagonalization with overlap
     ethr =  5.16E-05,  avg # of iterations =  4.7

     total cpu time spent up to now is      723.8 secs

     total energy              =  -16384.06337161 Ry
     estimated scf accuracy    <       0.20991618 Ry

     iteration #  8     ecut=    71.00 Ry     beta= 0.10
     Davidson diagonalization with overlap
     ethr =  3.64E-05,  avg # of iterations =  4.4

     total cpu time spent up to now is      813.8 secs

     total energy              =  -16384.03680843 Ry
     estimated scf accuracy    <       0.14283421 Ry

     iteration #  9     ecut=    71.00 Ry     beta= 0.10
     Davidson diagonalization with overlap
     c_bands:  1 eigenvalues not converged
     ethr =  2.48E-05,  avg # of iterations =  6.1

     total cpu time spent up to now is      909.1 secs

     total energy              =  -16384.03569422 Ry
     estimated scf accuracy    <       0.08603353 Ry

     iteration # 10     ecut=    71.00 Ry     beta= 0.10
     Davidson diagonalization with overlap
     ethr =  1.49E-05,  avg # of iterations =  2.7

     total cpu time spent up to now is      995.9 secs

     total energy              =  -16384.02551597 Ry
     estimated scf accuracy    <       0.07032384 Ry

     iteration # 11     ecut=    71.00 Ry     beta= 0.10
     Davidson diagonalization with overlap
     ethr =  1.22E-05,  avg # of iterations =  5.3

     total cpu time spent up to now is     1089.8 secs

     total energy              =  -16384.02966031 Ry
     estimated scf accuracy    <       0.03794282 Ry

     iteration # 12     ecut=    71.00 Ry     beta= 0.10
     Davidson diagonalization with overlap
     ethr =  6.59E-06,  avg # of iterations =  2.3

     total cpu time spent up to now is     1176.9 secs

     total energy              =  -16384.02066768 Ry
     estimated scf accuracy    <       0.03210517 Ry

     iteration # 13     ecut=    71.00 Ry     beta= 0.10
     Davidson diagonalization with overlap
     ethr =  5.57E-06,  avg # of iterations =  6.7

     total cpu time spent up to now is     1282.4 secs

     total energy              =  -16384.03586648 Ry
     estimated scf accuracy    <       0.02387475 Ry

     iteration # 14     ecut=    71.00 Ry     beta= 0.10
     Davidson diagonalization with overlap
     ethr =  4.14E-06,  avg # of iterations =  6.3

     total cpu time spent up to now is     1388.9 secs

     total energy              =  -16384.03891310 Ry
     estimated scf accuracy    <       0.01528881 Ry

     iteration # 15     ecut=    71.00 Ry     beta= 0.10
     Davidson diagonalization with overlap
     ethr =  2.65E-06,  avg # of iterations =  4.2

     total cpu time spent up to now is     1482.0 secs

     total energy              =  -16384.04483980 Ry
     estimated scf accuracy    <       0.00350056 Ry

     iteration # 16     ecut=    71.00 Ry     beta= 0.10
     Davidson diagonalization with overlap
     ethr =  6.08E-07,  avg # of iterations =  4.1

     total cpu time spent up to now is     1575.6 secs

     total energy              =  -16384.04840758 Ry
     estimated scf accuracy    <       0.00171702 Ry

     iteration # 17     ecut=    71.00 Ry     beta= 0.10
     Davidson diagonalization with overlap
     ethr =  2.98E-07,  avg # of iterations =  5.1

     total cpu time spent up to now is     1673.6 secs

     total energy              =  -16384.05055545 Ry
     estimated scf accuracy    <       0.00098522 Ry

     iteration # 18     ecut=    71.00 Ry     beta= 0.10
     Davidson diagonalization with overlap
     ethr =  1.71E-07,  avg # of iterations =  5.4

     total cpu time spent up to now is     1782.7 secs

     total energy              =  -16384.05118128 Ry
     estimated scf accuracy    <       0.00017256 Ry

     iteration # 19     ecut=    71.00 Ry     beta= 0.10
     Davidson diagonalization with overlap
     ethr =  3.00E-08,  avg # of iterations =  2.0

     total cpu time spent up to now is     1870.9 secs

     total energy              =  -16384.05141919 Ry
     estimated scf accuracy    <       0.00010308 Ry

     iteration # 20     ecut=    71.00 Ry     beta= 0.10
     Davidson diagonalization with overlap
     ethr =  1.79E-08,  avg # of iterations =  2.0

     total cpu time spent up to now is     1957.4 secs

     total energy              =  -16384.05175850 Ry
     estimated scf accuracy    <       0.00007029 Ry

     iteration # 21     ecut=    71.00 Ry     beta= 0.10
     Davidson diagonalization with overlap
     ethr =  1.22E-08,  avg # of iterations =  3.7

     total cpu time spent up to now is     2065.2 secs

     total energy              =  -16384.05181240 Ry
     estimated scf accuracy    <       0.00001467 Ry

     iteration # 22     ecut=    71.00 Ry     beta= 0.10
     Davidson diagonalization with overlap
     ethr =  2.55E-09,  avg # of iterations =  2.0

     total cpu time spent up to now is     2153.5 secs

     total energy              =  -16384.05183680 Ry
     estimated scf accuracy    <       0.00000898 Ry

     iteration # 23     ecut=    71.00 Ry     beta= 0.10
     Davidson diagonalization with overlap
     ethr =  1.56E-09,  avg # of iterations =  2.0

     total cpu time spent up to now is     2242.4 secs

     total energy              =  -16384.05184423 Ry
     estimated scf accuracy    <       0.00000271 Ry

     iteration # 24     ecut=    71.00 Ry     beta= 0.10
     Davidson diagonalization with overlap
     ethr =  4.70E-10,  avg # of iterations =  2.0

     total cpu time spent up to now is     2327.9 secs

     total energy              =  -16384.05184868 Ry
     estimated scf accuracy    <       0.00000202 Ry

     iteration # 25     ecut=    71.00 Ry     beta= 0.10
     Davidson diagonalization with overlap
     ethr =  3.51E-10,  avg # of iterations =  2.0

     total cpu time spent up to now is     2413.7 secs

     total energy              =  -16384.05185309 Ry
     estimated scf accuracy    <       0.00000143 Ry

     iteration # 26     ecut=    71.00 Ry     beta= 0.10
     Davidson diagonalization with overlap
     ethr =  2.48E-10,  avg # of iterations =  2.0

     total cpu time spent up to now is     2502.3 secs

     total energy              =  -16384.05185463 Ry
     estimated scf accuracy    <       0.00000101 Ry

     iteration # 27     ecut=    71.00 Ry     beta= 0.10
     Davidson diagonalization with overlap
     ethr =  1.75E-10,  avg # of iterations =  2.0

     total cpu time spent up to now is     2588.2 secs

     End of self-consistent calculation

          k = 0.0556 0.0556 0.0356 ( 51556 PWs)   bands (ev):

   -73.6689 -73.6468 -73.6468 -73.6426 -73.6425 -73.6380 -73.6369 -73.6364
   -73.6363 -73.6352 -73.6293 -73.6293 -73.6279 -73.6279 -73.6207 -73.6206
   -73.0772 -73.0772 -73.0628 -73.0628 -73.0627 -73.0627 -73.0615 -73.0615
   -73.0613 -73.0613 -73.0600 -73.0600 -73.0600 -73.0600 -73.0454 -73.0454
   -39.5035 -39.5035 -39.5031 -39.5022 -39.4896 -39.4896 -39.4829 -39.4488
   -39.4488 -39.4458 -39.4458 -39.4086 -39.4085 -39.3975 -39.3975 -39.3883
   -39.3883 -39.3851 -39.3851 -39.3762 -39.3762 -39.3474 -39.3474 -39.3407
   -39.3406 -39.3406 -39.3361 -39.3361 -39.3309 -39.3262 -39.3262 -39.3124
   -39.3093 -39.3093 -39.2949 -39.2949 -39.2920 -39.2910 -39.2809 -39.2809
   -39.2757 -39.2757 -39.2420 -39.2402 -39.2401 -39.2359 -39.2237 -39.2222
   -38.9513 -38.9513 -38.9505 -38.9496 -38.9395 -38.9395 -38.9376 -38.9376
   -38.8690 -38.8690 -38.8689 -38.8689 -38.8541 -38.8541 -38.8538 -38.8538
   -38.8518 -38.8518 -38.8514 -38.8514 -38.8365 -38.8365 -38.8364 -38.8364
   -38.7659 -38.7656 -38.7643 -38.7640 -38.7524 -38.7523 -38.7510 -38.7510
   -38.6803 -38.6771 -38.6658 -38.6658 -38.6654 -38.6654 -38.6644 -38.6641
   -38.6640 -38.6640 -38.6636 -38.6636 -38.6633 -38.6633 -38.6534 -38.6534
     4.1456   5.4352   5.6754   5.6754   5.7418   5.7479   5.7541   5.7542
     5.8132   5.8271   5.9499   5.9499   6.0387   6.0387   6.2221   6.2221
     6.2876   6.4899   6.6116   6.6116   6.6406   6.6406   6.6704   6.6704
     6.6910   6.6910   6.7602   6.7632   6.7632   6.7655   6.7780   6.7780
     6.9036   6.9036   6.9713   6.9713   7.0076   7.0076   7.0838   7.0838
     7.0957   7.0957   7.1584   7.1584   7.2205   7.2799   7.2799   7.2982
     7.2982   7.4417   7.4417   7.5079   7.5556   7.5556   7.6053   7.6053
     7.6174   7.6261   7.6261   7.6369   7.8131   7.8131   7.8159   7.8159
     7.8290   7.8393   7.9774   7.9774   7.9881   7.9901   7.9975   7.9975
     8.0302   8.0395   8.0996   8.0996   8.1344   8.1344   8.4844   8.4844
     8.5381   8.5456   8.5497   8.5497   8.5694   8.5694   8.5934   8.5934
     8.7173   8.7173   8.7498   8.7498   8.7627   8.7627   8.7694   8.7860
     8.8160   8.8160   8.8412   8.8412   8.8714   8.8939   8.9172   8.9400
     8.9400   9.0480   9.0480   9.0640   9.0640   9.1422   9.1712   9.1712
     9.1994   9.1994   9.2112   9.2112   9.3392   9.3392   9.3950   9.3950
     9.3965   9.3965   9.4282   9.5757   9.5778   9.5778   9.6456   9.6456
     9.7663   9.7663   9.7785   9.7785   9.7787   9.7982   9.7982   9.8076
     9.8965   9.9140   9.9140   9.9170   9.9220   9.9989  10.0323  10.0497
    10.0498  10.0750  10.0750  10.0783  10.0783  10.2435  10.2435  10.3169
    10.3199  10.3199  10.3212  10.3746  10.4534  10.4701  10.4701  10.4769
    10.4769  10.5266  10.5732  10.6800  10.6801  11.0206  11.0206  11.0844
    11.0844  11.4564  11.4564  11.9278  11.9343  12.1419  12.3530  12.3530
    12.6429  12.6873  12.6873  12.7745  12.7745  13.0241  13.2405  13.2405
    13.2759  14.8613  14.8613  15.2092  15.2092  15.6663  15.7302  15.7302
    15.7801  15.7801  15.8607  16.5274  16.5274  17.0970  17.0970  17.1769
    17.1769  17.2780  18.7135  18.9930  18.9930  19.1661  19.4137  19.4137
    19.4318  19.6506  19.6506  19.7142  19.7146  20.0971  20.0971  20.1882
    20.1882  20.2220

          k = 0.0556 0.0556 0.1067 ( 51521 PWs)   bands (ev):

   -73.6689 -73.6468 -73.6468 -73.6426 -73.6425 -73.6380 -73.6369 -73.6364
   -73.6363 -73.6352 -73.6293 -73.6293 -73.6279 -73.6279 -73.6207 -73.6206
   -73.0772 -73.0772 -73.0628 -73.0628 -73.0627 -73.0627 -73.0615 -73.0615
   -73.0613 -73.0613 -73.0600 -73.0600 -73.0600 -73.0600 -73.0454 -73.0454
   -39.5035 -39.5035 -39.5031 -39.5022 -39.4896 -39.4896 -39.4829 -39.4487
   -39.4487 -39.4457 -39.4457 -39.4086 -39.4085 -39.3975 -39.3975 -39.3883
   -39.3883 -39.3851 -39.3851 -39.3762 -39.3762 -39.3475 -39.3474 -39.3406
   -39.3406 -39.3406 -39.3361 -39.3361 -39.3308 -39.3263 -39.3262 -39.3124
   -39.3093 -39.3093 -39.2949 -39.2949 -39.2920 -39.2910 -39.2809 -39.2809
   -39.2757 -39.2757 -39.2420 -39.2402 -39.2402 -39.2359 -39.2238 -39.2222
   -38.9513 -38.9513 -38.9505 -38.9496 -38.9395 -38.9395 -38.9375 -38.9375
   -38.8690 -38.8690 -38.8689 -38.8689 -38.8541 -38.8541 -38.8539 -38.8539
   -38.8518 -38.8518 -38.8513 -38.8513 -38.8365 -38.8365 -38.8363 -38.8363
   -38.7659 -38.7656 -38.7643 -38.7640 -38.7524 -38.7523 -38.7510 -38.7510
   -38.6803 -38.6771 -38.6658 -38.6658 -38.6654 -38.6654 -38.6644 -38.6640
   -38.6640 -38.6640 -38.6636 -38.6636 -38.6633 -38.6633 -38.6535 -38.6534
     4.1458   5.4348   5.6754   5.6754   5.7418   5.7480   5.7542   5.7542
     5.8132   5.8264   5.9499   5.9499   6.0388   6.0388   6.2222   6.2222
     6.2880   6.4899   6.6116   6.6116   6.6406   6.6406   6.6704   6.6704
     6.6910   6.6910   6.7600   6.7631   6.7631   6.7654   6.7778   6.7778
     6.9037   6.9037   6.9713   6.9713   7.0076   7.0076   7.0837   7.0837
     7.0958   7.0958   7.1584   7.1584   7.2205   7.2799   7.2799   7.2982
     7.2982   7.4417   7.4417   7.5078   7.5556   7.5556   7.6053   7.6053
     7.6175   7.6261   7.6261   7.6369   7.8127   7.8127   7.8159   7.8159
     7.8290   7.8393   7.9769   7.9769   7.9881   7.9901   7.9975   7.9975
     8.0301   8.0394   8.1001   8.1001   8.1349   8.1349   8.4850   8.4850
     8.5387   8.5466   8.5497   8.5497   8.5694   8.5694   8.5936   8.5936
     8.7158   8.7158   8.7497   8.7497   8.7627   8.7627   8.7694   8.7860
     8.8148   8.8148   8.8414   8.8414   8.8713   8.8890   8.9172   8.9404
     8.9404   9.0480   9.0480   9.0648   9.0648   9.1429   9.1711   9.1711
     9.2008   9.2008   9.2115   9.2115   9.3392   9.3392   9.3941   9.3941
     9.3953   9.3953   9.4282   9.5778   9.5778   9.5980   9.6457   9.6457
     9.7658   9.7658   9.7785   9.7785   9.7787   9.7982   9.7982   9.8076
     9.8955   9.9170   9.9180   9.9180   9.9211   9.9990  10.0304  10.0488
    10.0488  10.0748  10.0748  10.0822  10.0822  10.2434  10.2434  10.3169
    10.3200  10.3200  10.3212  10.3746  10.4534  10.4700  10.4700  10.4769
    10.4769  10.5281  10.5732  10.6800  10.6801  11.0113  11.0113  11.0844
    11.0844  11.4476  11.4476  11.8177  11.9348  12.1417  12.3554  12.3554
    12.6490  12.7129  12.7129  12.7732  12.7732  13.1610  13.2660  13.2660
    13.2729  14.8627  14.8627  15.0797  15.0797  15.6497  15.6497  15.6754
    15.7334  15.7334  15.8503  16.7419  16.7419  17.1459  17.1712  17.1712
    17.3165  17.3165  18.5862  18.8556  18.8557  19.2023  19.4160  19.4160
    19.4942  19.6685  19.6685  19.7959  19.7959  19.9454  19.9457  20.1050
    20.1050  20.3358

          k = 0.0556 0.0556 0.1778 ( 51550 PWs)   bands (ev):

   -73.6689 -73.6468 -73.6468 -73.6426 -73.6425 -73.6380 -73.6369 -73.6364
   -73.6363 -73.6352 -73.6293 -73.6293 -73.6279 -73.6279 -73.6207 -73.6206
   -73.0772 -73.0772 -73.0628 -73.0628 -73.0627 -73.0627 -73.0615 -73.0615
   -73.0613 -73.0613 -73.0600 -73.0600 -73.0600 -73.0600 -73.0454 -73.0454
   -39.5035 -39.5034 -39.5031 -39.5022 -39.4896 -39.4896 -39.4830 -39.4487
   -39.4487 -39.4457 -39.4457 -39.4086 -39.4086 -39.3975 -39.3975 -39.3883
   -39.3883 -39.3851 -39.3851 -39.3762 -39.3762 -39.3474 -39.3474 -39.3407
   -39.3406 -39.3406 -39.3362 -39.3361 -39.3309 -39.3263 -39.3263 -39.3125
   -39.3093 -39.3093 -39.2949 -39.2949 -39.2919 -39.2910 -39.2809 -39.2809
   -39.2757 -39.2757 -39.2420 -39.2401 -39.2401 -39.2359 -39.2238 -39.2222
   -38.9513 -38.9513 -38.9506 -38.9496 -38.9395 -38.9395 -38.9375 -38.9375
   -38.8690 -38.8690 -38.8689 -38.8689 -38.8541 -38.8541 -38.8538 -38.8538
   -38.8517 -38.8517 -38.8513 -38.8513 -38.8365 -38.8365 -38.8363 -38.8363
   -38.7659 -38.7656 -38.7643 -38.7639 -38.7523 -38.7523 -38.7511 -38.7511
   -38.6804 -38.6772 -38.6658 -38.6658 -38.6654 -38.6654 -38.6645 -38.6641
   -38.6641 -38.6640 -38.6636 -38.6636 -38.6633 -38.6633 -38.6534 -38.6534
     4.1461   5.4341   5.6754   5.6754   5.7418   5.7480   5.7542   5.7542
     5.8132   5.8253   5.9500   5.9500   6.0389   6.0389   6.2223   6.2223
     6.2887   6.4899   6.6116   6.6116   6.6406   6.6406   6.6704   6.6704
     6.6910   6.6910   6.7598   6.7630   6.7630   6.7653   6.7777   6.7777
     6.9037   6.9037   6.9712   6.9712   7.0075   7.0075   7.0837   7.0837
     7.0959   7.0959   7.1583   7.1583   7.2205   7.2799   7.2799   7.2982
     7.2982   7.4416   7.4417   7.5076   7.5555   7.5555   7.6053   7.6053
     7.6174   7.6261   7.6261   7.6369   7.8122   7.8122   7.8158   7.8158
     7.8289   7.8392   7.9761   7.9761   7.9881   7.9901   7.9975   7.9975
     8.0301   8.0394   8.1007   8.1007   8.1357   8.1357   8.4860   8.4860
     8.5397   8.5482   8.5497   8.5497   8.5693   8.5693   8.5938   8.5938
     8.7136   8.7136   8.7497   8.7497   8.7628   8.7628   8.7693   8.7859
     8.8129   8.8129   8.8416   8.8416   8.8711   8.8819   8.9172   8.9409
     8.9409   9.0481   9.0481   9.0659   9.0659   9.1437   9.1708   9.1708
     9.2029   9.2029   9.2120   9.2120   9.3392   9.3392   9.3928   9.3928
     9.3934   9.3934   9.4282   9.5777   9.5777   9.6333   9.6458   9.6458
     9.7651   9.7651   9.7786   9.7786   9.7786   9.7983   9.7983   9.8077
     9.8939   9.9170   9.9194   9.9243   9.9243   9.9990  10.0274  10.0474
    10.0474  10.0744  10.0744  10.0882  10.0882  10.2433  10.2433  10.3169
    10.3201  10.3201  10.3212  10.3746  10.4534  10.4700  10.4700  10.4768
    10.4768  10.5308  10.5732  10.6800  10.6801  10.9973  10.9973  11.0844
    11.0844  11.4342  11.4342  11.6769  11.9356  12.1413  12.3591  12.3591
    12.6585  12.7536  12.7536  12.7713  12.7713  13.2681  13.3066  13.3066
    13.3463  14.8648  14.8648  14.9177  14.9177  15.4870  15.4870  15.6924
    15.7385  15.7385  15.8313  16.9528  17.0713  17.0713  17.1625  17.1625
    17.6572  17.6572  18.4778  18.7129  18.7130  19.0619  19.3156  19.3156
    19.4195  19.4195  19.6966  19.6966  19.8057  19.8269  19.8269  20.1081
    20.1082  20.2682

          k = 0.0556 0.0556 0.2489 ( 51566 PWs)   bands (ev):

   -73.6689 -73.6468 -73.6468 -73.6426 -73.6425 -73.6380 -73.6369 -73.6364
   -73.6363 -73.6352 -73.6293 -73.6293 -73.6279 -73.6279 -73.6207 -73.6206
   -73.0772 -73.0772 -73.0628 -73.0628 -73.0627 -73.0627 -73.0615 -73.0615
   -73.0613 -73.0613 -73.0600 -73.0600 -73.0600 -73.0600 -73.0454 -73.0454
   -39.5035 -39.5035 -39.5031 -39.5022 -39.4896 -39.4896 -39.4830 -39.4487
   -39.4487 -39.4457 -39.4457 -39.4085 -39.4085 -39.3975 -39.3975 -39.3883
   -39.3883 -39.3851 -39.3851 -39.3762 -39.3762 -39.3474 -39.3473 -39.3407
   -39.3406 -39.3406 -39.3362 -39.3362 -39.3309 -39.3263 -39.3263 -39.3125
   -39.3094 -39.3093 -39.2949 -39.2949 -39.2920 -39.2910 -39.2810 -39.2809
   -39.2757 -39.2757 -39.2420 -39.2402 -39.2402 -39.2358 -39.2238 -39.2222
   -38.9513 -38.9513 -38.9505 -38.9496 -38.9395 -38.9395 -38.9375 -38.9375
   -38.8690 -38.8690 -38.8689 -38.8689 -38.8540 -38.8540 -38.8539 -38.8538
   -38.8517 -38.8517 -38.8514 -38.8514 -38.8365 -38.8365 -38.8363 -38.8363
   -38.7659 -38.7656 -38.7644 -38.7640 -38.7524 -38.7524 -38.7510 -38.7510
   -38.6804 -38.6772 -38.6659 -38.6658 -38.6653 -38.6653 -38.6645 -38.6642
   -38.6641 -38.6641 -38.6637 -38.6637 -38.6633 -38.6633 -38.6534 -38.6534
     4.1464   5.4336   5.6754   5.6754   5.7419   5.7480   5.7543   5.7543
     5.8132   5.8244   5.9500   5.9500   6.0391   6.0391   6.2224   6.2224
     6.2892   6.4899   6.6115   6.6115   6.6405   6.6405   6.6704   6.6704
     6.6909   6.6909   6.7596   6.7629   6.7629   6.7652   6.7775   6.7775
     6.9038   6.9038   6.9711   6.9711   7.0074   7.0074   7.0836   7.0836
     7.0961   7.0961   7.1583   7.1583   7.2205   7.2799   7.2799   7.2982
     7.2982   7.4416   7.4416   7.5075   7.5554   7.5554   7.6053   7.6053
     7.6174   7.6261   7.6261   7.6369   7.8117   7.8117   7.8158   7.8158
     7.8288   7.8391   7.9755   7.9755   7.9881   7.9901   7.9975   7.9975
     8.0301   8.0394   8.1013   8.1013   8.1364   8.1364   8.4868   8.4868
     8.5405   8.5495   8.5497   8.5497   8.5692   8.5692   8.5941   8.5941
     8.7116   8.7116   8.7496   8.7496   8.7628   8.7628   8.7693   8.7860
     8.8112   8.8112   8.8417   8.8417   8.8706   8.8764   8.9172   8.9414
     8.9414   9.0482   9.0482   9.0670   9.0670   9.1444   9.1706   9.1706
     9.2048   9.2048   9.2124   9.2124   9.3392   9.3392   9.3916   9.3916
     9.3917   9.3917   9.4282   9.5777   9.5777   9.6459   9.6459   9.6659
     9.7644   9.7644   9.7786   9.7786   9.7786   9.7983   9.7983   9.8077
     9.8925   9.9170   9.9175   9.9299   9.9299   9.9990  10.0248  10.0462
    10.0462  10.0741  10.0741  10.0935  10.0935  10.2433  10.2433  10.3169
    10.3202  10.3202  10.3212  10.3746  10.4534  10.4699  10.4699  10.4768
    10.4768  10.5336  10.5732  10.6800  10.6801  10.9850  10.9850  11.0844
    11.0844  11.4226  11.4226  11.5687  11.9364  12.1409  12.3624  12.3624
    12.6670  12.7695  12.7696  12.7910  12.7910  13.2639  13.3439  13.3439
    13.4978  14.7952  14.7952  14.8667  14.8667  15.3641  15.3641  15.7135
    15.7430  15.7430  15.8082  16.7881  17.1549  17.1549  17.4190  17.4190
    18.0299  18.0299  18.4160  18.6167  18.6168  18.8762  18.8762  18.9483
    19.3522  19.3522  19.4255  19.4255  19.7221  19.7221  20.1114  20.1114
    20.1783  20.5962

          k = 0.0556 0.0556-0.3200 ( 51580 PWs)   bands (ev):

   -73.6689 -73.6468 -73.6468 -73.6426 -73.6425 -73.6380 -73.6369 -73.6364
   -73.6363 -73.6352 -73.6293 -73.6293 -73.6279 -73.6279 -73.6207 -73.6206
   -73.0772 -73.0772 -73.0628 -73.0628 -73.0627 -73.0627 -73.0615 -73.0615
   -73.0613 -73.0613 -73.0600 -73.0600 -73.0600 -73.0600 -73.0454 -73.0454
   -39.5035 -39.5035 -39.5031 -39.5022 -39.4896 -39.4896 -39.4830 -39.4487
   -39.4487 -39.4457 -39.4457 -39.4086 -39.4085 -39.3975 -39.3975 -39.3883
   -39.3883 -39.3851 -39.3851 -39.3762 -39.3762 -39.3474 -39.3473 -39.3407
   -39.3406 -39.3406 -39.3362 -39.3361 -39.3309 -39.3263 -39.3263 -39.3125
   -39.3094 -39.3094 -39.2949 -39.2949 -39.2920 -39.2910 -39.2810 -39.2810
   -39.2757 -39.2757 -39.2420 -39.2402 -39.2402 -39.2358 -39.2238 -39.2222
   -38.9513 -38.9513 -38.9505 -38.9496 -38.9395 -38.9395 -38.9375 -38.9375
   -38.8690 -38.8690 -38.8689 -38.8689 -38.8541 -38.8541 -38.8539 -38.8539
   -38.8518 -38.8518 -38.8514 -38.8514 -38.8365 -38.8365 -38.8363 -38.8363
   -38.7659 -38.7656 -38.7644 -38.7640 -38.7524 -38.7524 -38.7510 -38.7510
   -38.6803 -38.6772 -38.6659 -38.6659 -38.6653 -38.6653 -38.6645 -38.6641
   -38.6641 -38.6641 -38.6637 -38.6637 -38.6633 -38.6633 -38.6534 -38.6534
     4.1465   5.4334   5.6754   5.6754   5.7419   5.7480   5.7543   5.7543
     5.8132   5.8240   5.9500   5.9500   6.0391   6.0391   6.2224   6.2224
     6.2895   6.4899   6.6115   6.6115   6.6405   6.6405   6.6704   6.6704
     6.6909   6.6909   6.7596   6.7629   6.7629   6.7651   6.7774   6.7774
     6.9038   6.9038   6.9711   6.9711   7.0074   7.0074   7.0836   7.0836
     7.0962   7.0962   7.1583   7.1583   7.2205   7.2799   7.2799   7.2982
     7.2982   7.4416   7.4416   7.5075   7.5554   7.5554   7.6054   7.6054
     7.6174   7.6261   7.6261   7.6368   7.8115   7.8115   7.8157   7.8157
     7.8288   7.8390   7.9752   7.9752   7.9881   7.9901   7.9975   7.9975
     8.0301   8.0394   8.1016   8.1016   8.1366   8.1366   8.4871   8.4872
     8.5408   8.5497   8.5497   8.5501   8.5692   8.5692   8.5942   8.5942
     8.7108   8.7108   8.7495   8.7495   8.7628   8.7628   8.7693   8.7860
     8.8106   8.8106   8.8418   8.8418   8.8702   8.8747   8.9171   8.9415
     8.9415   9.0482   9.0482   9.0674   9.0674   9.1446   9.1705   9.1705
     9.2056   9.2056   9.2126   9.2126   9.3392   9.3392   9.3911   9.3911
     9.3911   9.3911   9.4282   9.5777   9.5777   9.6460   9.6460   9.6792
     9.7641   9.7642   9.7787   9.7787   9.7787   9.7984   9.7984   9.8077
     9.8919   9.9166   9.9170   9.9321   9.9321   9.9990  10.0238  10.0457
    10.0457  10.0740  10.0740  10.0956  10.0956  10.2432  10.2432  10.3169
    10.3202  10.3202  10.3212  10.3746  10.4534  10.4699  10.4699  10.4767
    10.4767  10.5349  10.5732  10.6800  10.6801  10.9802  10.9802  11.0844
    11.0844  11.4180  11.4180  11.5285  11.9368  12.1407  12.3637  12.3637
    12.6704  12.7689  12.7689  12.8063  12.8063  13.2621  13.3592  13.3592
    13.5563  14.7501  14.7501  14.8675  14.8675  15.3189  15.3189  15.7258
    15.7448  15.7448  15.7950  16.7236  17.1519  17.1519  17.6055  17.6055
    18.2478  18.2478  18.3968  18.5833  18.5834  18.6592  18.6592  18.9064
    19.1034  19.1034  19.4250  19.4250  19.7324  19.7324  20.1127  20.1127
    20.5675  20.7696

          k = 0.0556 0.1667 0.0356 ( 51522 PWs)   bands (ev):

   -73.6682 -73.6509 -73.6465 -73.6423 -73.6396 -73.6384 -73.6375 -73.6367
   -73.6347 -73.6341 -73.6307 -73.6295 -73.6282 -73.6265 -73.6214 -73.6209
   -73.0767 -73.0767 -73.0655 -73.0655 -73.0627 -73.0627 -73.0618 -73.0618
   -73.0611 -73.0610 -73.0600 -73.0600 -73.0572 -73.0572 -73.0459 -73.0459
   -39.5016 -39.5007 -39.4993 -39.4980 -39.4869 -39.4867 -39.4815 -39.4535
   -39.4516 -39.4499 -39.4458 -39.4278 -39.4217 -39.4170 -39.3962 -39.3886
   -39.3874 -39.3826 -39.3690 -39.3616 -39.3575 -39.3514 -39.3487 -39.3449
   -39.3446 -39.3420 -39.3410 -39.3336 -39.3316 -39.3257 -39.3235 -39.3205
   -39.3099 -39.3004 -39.2946 -39.2876 -39.2856 -39.2851 -39.2813 -39.2806
   -39.2760 -39.2719 -39.2473 -39.2467 -39.2415 -39.2346 -39.2286 -39.2236
   -38.9500 -38.9492 -38.9467 -38.9451 -38.9383 -38.9381 -38.9337 -38.9335
   -38.8858 -38.8856 -38.8837 -38.8832 -38.8716 -38.8710 -38.8670 -38.8663
   -38.8391 -38.8386 -38.8344 -38.8339 -38.8217 -38.8217 -38.8195 -38.8192
   -38.7701 -38.7700 -38.7655 -38.7652 -38.7568 -38.7568 -38.7527 -38.7527
   -38.6796 -38.6767 -38.6679 -38.6676 -38.6658 -38.6653 -38.6648 -38.6641
   -38.6641 -38.6637 -38.6637 -38.6633 -38.6615 -38.6614 -38.6538 -38.6537
     4.2153   5.4898   5.7121   5.7177   5.7582   5.7620   5.7735   5.7909
     5.7962   5.8517   5.8793   5.9743   5.9762   6.0399   6.2217   6.2847
     6.3404   6.5232   6.5329   6.5473   6.5534   6.5609   6.5627   6.6528
     6.6569   6.6926   6.6981   6.6986   6.7192   6.7525   6.7601   6.7982
     6.8007   6.8337   6.8812   6.9496   7.0453   7.0548   7.0581   7.0615
     7.0868   7.0968   7.1039   7.2398   7.2764   7.3015   7.3426   7.3881
     7.3892   7.4290   7.4419   7.4952   7.5010   7.5349   7.5861   7.6205
     7.6318   7.6422   7.6680   7.6930   7.7366   7.7819   7.8276   7.8372
     7.8452   7.8507   8.0076   8.0113   8.0158   8.0195   8.0302   8.0324
     8.0467   8.0971   8.1302   8.1333   8.1454   8.2726   8.3542   8.3735
     8.3747   8.4118   8.4520   8.4580   8.4934   8.5522   8.5590   8.5830
     8.6576   8.6705   8.6878   8.7119   8.7486   8.7731   8.8233   8.8340
     8.8484   8.8711   8.8714   8.8997   8.9064   8.9331   8.9441   8.9569
     8.9589   8.9634   8.9834   9.0422   9.1119   9.1362   9.1499   9.1574
     9.2766   9.2913   9.2929   9.3549   9.3876   9.4164   9.4165   9.4788
     9.5000   9.5085   9.5394   9.5945   9.6169   9.6347   9.6577   9.6612
     9.6681   9.7060   9.7261   9.7893   9.8034   9.8146   9.8164   9.8644
     9.8647   9.8914   9.8930   9.8976  10.0264  10.0321  10.0462  10.0538
    10.0696  10.0908  10.1040  10.1583  10.2116  10.2285  10.2381  10.2389
    10.2650  10.2726  10.3616  10.3761  10.4162  10.4448  10.4608  10.4650
    10.4809  10.4887  10.5606  10.5754  10.6132  10.6791  10.9673  11.0022
    11.0190  11.4706  11.5442  11.6864  11.9944  12.0924  12.1612  12.1854
    12.2247  12.6958  12.7520  12.8373  13.2310  13.2540  13.3527  13.8482
    13.8518  14.4671  14.6649  15.0944  15.2386  15.7156  15.7970  15.8030
    15.9260  15.9846  16.0147  16.3817  16.5852  16.6463  17.1453  17.3379
    17.3653  17.6987  18.5944  18.6499  18.7115  18.7304  18.7864  18.8031
    19.1964  19.2423  19.4691  19.6006  19.7675  19.8724  20.0807  20.1730
    20.2675  20.3874

          k = 0.0556 0.1667 0.1067 ( 51536 PWs)   bands (ev):

   -73.6682 -73.6509 -73.6465 -73.6423 -73.6396 -73.6384 -73.6375 -73.6367
   -73.6347 -73.6341 -73.6307 -73.6295 -73.6282 -73.6265 -73.6214 -73.6209
   -73.0767 -73.0767 -73.0655 -73.0655 -73.0627 -73.0627 -73.0618 -73.0618
   -73.0611 -73.0610 -73.0600 -73.0600 -73.0572 -73.0572 -73.0459 -73.0459
   -39.5015 -39.5007 -39.4994 -39.4981 -39.4869 -39.4867 -39.4815 -39.4536
   -39.4516 -39.4499 -39.4458 -39.4279 -39.4217 -39.4170 -39.3963 -39.3887
   -39.3874 -39.3826 -39.3690 -39.3616 -39.3574 -39.3514 -39.3488 -39.3450
   -39.3446 -39.3420 -39.3410 -39.3336 -39.3316 -39.3257 -39.3235 -39.3206
   -39.3099 -39.3004 -39.2946 -39.2876 -39.2855 -39.2851 -39.2813 -39.2806
   -39.2760 -39.2719 -39.2473 -39.2467 -39.2415 -39.2347 -39.2286 -39.2237
   -38.9500 -38.9492 -38.9468 -38.9451 -38.9382 -38.9381 -38.9337 -38.9335
   -38.8859 -38.8856 -38.8836 -38.8832 -38.8716 -38.8710 -38.8670 -38.8663
   -38.8391 -38.8386 -38.8343 -38.8339 -38.8217 -38.8216 -38.8195 -38.8192
   -38.7702 -38.7700 -38.7655 -38.7652 -38.7568 -38.7568 -38.7528 -38.7528
   -38.6797 -38.6767 -38.6680 -38.6675 -38.6658 -38.6653 -38.6648 -38.6641
   -38.6640 -38.6637 -38.6637 -38.6633 -38.6616 -38.6614 -38.6538 -38.6537
     4.2155   5.4894   5.7121   5.7177   5.7582   5.7621   5.7735   5.7910
     5.7962   5.8516   5.8786   5.9743   5.9762   6.0399   6.2218   6.2847
     6.3408   6.5232   6.5329   6.5473   6.5533   6.5609   6.5626   6.6528
     6.6569   6.6926   6.6981   6.6986   6.7190   6.7523   6.7600   6.7981
     6.8005   6.8337   6.8811   6.9498   7.0453   7.0548   7.0581   7.0615
     7.0868   7.0967   7.1040   7.2398   7.2763   7.3015   7.3426   7.3884
     7.3892   7.4289   7.4418   7.4952   7.5009   7.5349   7.5861   7.6203
     7.6319   7.6422   7.6680   7.6930   7.7366   7.7819   7.8276   7.8372
     7.8451   7.8504   8.0072   8.0112   8.0157   8.0195   8.0302   8.0325
     8.0467   8.0966   8.1306   8.1336   8.1457   8.2732   8.3542   8.3741
     8.3751   8.4118   8.4524   8.4590   8.4933   8.5522   8.5592   8.5832
     8.6558   8.6704   8.6878   8.7136   8.7472   8.7739   8.8233   8.8343
     8.8472   8.8713   8.8721   8.8996   8.9019   8.9332   8.9430   8.9569
     8.9589   8.9636   8.9835   9.0422   9.1115   9.1372   9.1505   9.1588
     9.2761   9.2918   9.2932   9.3560   9.3876   9.4153   9.4178   9.4781
     9.4987   9.5081   9.5398   9.5937   9.6169   9.6348   9.6550   9.6608
     9.6674   9.7217   9.7254   9.7893   9.8076   9.8146   9.8164   9.8644
     9.8647   9.8899   9.8930   9.9015  10.0263  10.0318  10.0453  10.0535
    10.0734  10.0887  10.1038  10.1574  10.2115  10.2284  10.2391  10.2395
    10.2651  10.2727  10.3616  10.3792  10.4161  10.4512  10.4608  10.4650
    10.4812  10.4886  10.5607  10.5755  10.6132  10.6693  10.9673  11.0023
    11.0102  11.4621  11.5432  11.6860  11.9853  11.9859  12.1610  12.2110
    12.2242  12.7213  12.7638  12.8435  13.2794  13.3500  13.3679  13.8419
    13.8772  14.4686  14.5386  15.0958  15.1104  15.6746  15.7250  15.8013
    15.9157  15.9913  16.1898  16.2526  16.6395  16.7986  17.2265  17.3320
    17.3618  17.9185  18.4887  18.6050  18.6522  18.7137  18.8258  19.0249
    19.2258  19.2447  19.2697  19.5374  19.7361  19.7858  19.8273  20.0233
    20.3697  20.4803

          k = 0.0556 0.1667 0.1778 ( 51559 PWs)   bands (ev):

   -73.6682 -73.6509 -73.6465 -73.6423 -73.6396 -73.6384 -73.6375 -73.6367
   -73.6347 -73.6341 -73.6307 -73.6295 -73.6282 -73.6265 -73.6214 -73.6209
   -73.0767 -73.0767 -73.0655 -73.0655 -73.0627 -73.0627 -73.0618 -73.0618
   -73.0611 -73.0610 -73.0600 -73.0600 -73.0572 -73.0572 -73.0459 -73.0459
   -39.5015 -39.5007 -39.4994 -39.4981 -39.4869 -39.4867 -39.4816 -39.4535
   -39.4516 -39.4499 -39.4458 -39.4279 -39.4217 -39.4170 -39.3963 -39.3887
   -39.3874 -39.3826 -39.3689 -39.3616 -39.3574 -39.3514 -39.3488 -39.3449
   -39.3447 -39.3419 -39.3410 -39.3336 -39.3316 -39.3257 -39.3236 -39.3206
   -39.3099 -39.3004 -39.2946 -39.2876 -39.2856 -39.2851 -39.2813 -39.2807
   -39.2760 -39.2720 -39.2473 -39.2467 -39.2415 -39.2347 -39.2286 -39.2237
   -38.9500 -38.9492 -38.9468 -38.9451 -38.9382 -38.9381 -38.9337 -38.9335
   -38.8859 -38.8856 -38.8837 -38.8833 -38.8716 -38.8710 -38.8670 -38.8664
   -38.8391 -38.8386 -38.8343 -38.8339 -38.8217 -38.8217 -38.8195 -38.8192
   -38.7701 -38.7700 -38.7655 -38.7652 -38.7568 -38.7568 -38.7528 -38.7528
   -38.6797 -38.6768 -38.6680 -38.6675 -38.6658 -38.6652 -38.6648 -38.6641
   -38.6641 -38.6637 -38.6637 -38.6632 -38.6616 -38.6614 -38.6538 -38.6537
     4.2158   5.4888   5.7121   5.7177   5.7582   5.7622   5.7735   5.7910
     5.7962   5.8516   5.8776   5.9743   5.9762   6.0400   6.2218   6.2848
     6.3415   6.5232   6.5329   6.5472   6.5532   6.5609   6.5625   6.6528
     6.6569   6.6925   6.6981   6.6986   6.7188   6.7521   6.7599   6.7980
     6.8003   6.8338   6.8810   6.9500   7.0453   7.0548   7.0580   7.0614
     7.0867   7.0967   7.1041   7.2398   7.2761   7.3015   7.3427   7.3887
     7.3892   7.4287   7.4417   7.4952   7.5008   7.5349   7.5860   7.6199
     7.6320   7.6422   7.6680   7.6931   7.7366   7.7818   7.8276   7.8372
     7.8451   7.8500   8.0066   8.0112   8.0157   8.0196   8.0303   8.0326
     8.0467   8.0959   8.1313   8.1341   8.1460   8.2739   8.3541   8.3749
     8.3757   8.4117   8.4530   8.4605   8.4930   8.5521   8.5594   8.5834
     8.6530   8.6704   8.6877   8.7165   8.7452   8.7750   8.8234   8.8346
     8.8455   8.8715   8.8732   8.8950   8.8998   8.9334   8.9414   8.9568
     8.9589   8.9639   8.9836   9.0422   9.1108   9.1387   9.1515   9.1607
     9.2753   9.2927   9.2937   9.3578   9.3876   9.4135   9.4198   9.4771
     9.4966   9.5075   9.5404   9.5926   9.6169   9.6349   9.6527   9.6601
     9.6664   9.7244   9.7451   9.7894   9.8142   9.8145   9.8165   9.8644
     9.8647   9.8870   9.8931   9.9076  10.0262  10.0315  10.0437  10.0532
    10.0793  10.0855  10.1035  10.1561  10.2114  10.2283  10.2395  10.2418
    10.2653  10.2728  10.3617  10.3840  10.4159  10.4607  10.4624  10.4649
    10.4816  10.4886  10.5607  10.5758  10.6132  10.6546  10.9673  10.9968
    11.0023  11.4493  11.5418  11.6854  11.8472  11.9730  12.1609  12.2235
    12.2515  12.7617  12.7822  12.8530  13.3197  13.3458  13.5558  13.8320
    13.9176  14.3795  14.4710  14.9493  15.0979  15.5134  15.7424  15.8113
    15.8967  15.9525  16.0915  16.5012  16.6291  17.0237  17.1279  17.3229
    17.6986  18.2631  18.4393  18.4966  18.6557  18.7171  18.8335  18.8619
    19.0877  19.2485  19.2799  19.3615  19.6245  19.7906  19.8145  19.8474
    20.2403  20.2810

          k = 0.0556 0.1667 0.2489 ( 51582 PWs)   bands (ev):

   -73.6682 -73.6509 -73.6465 -73.6423 -73.6396 -73.6384 -73.6375 -73.6367
   -73.6347 -73.6341 -73.6307 -73.6295 -73.6282 -73.6265 -73.6214 -73.6209
   -73.0767 -73.0767 -73.0655 -73.0655 -73.0627 -73.0627 -73.0618 -73.0618
   -73.0611 -73.0610 -73.0600 -73.0600 -73.0572 -73.0572 -73.0459 -73.0459
   -39.5016 -39.5007 -39.4994 -39.4981 -39.4868 -39.4867 -39.4816 -39.4535
   -39.4516 -39.4499 -39.4458 -39.4279 -39.4217 -39.4170 -39.3963 -39.3887
   -39.3874 -39.3826 -39.3689 -39.3617 -39.3574 -39.3514 -39.3487 -39.3449
   -39.3447 -39.3419 -39.3411 -39.3336 -39.3316 -39.3258 -39.3236 -39.3206
   -39.3099 -39.3004 -39.2946 -39.2876 -39.2856 -39.2851 -39.2813 -39.2807
   -39.2760 -39.2720 -39.2473 -39.2467 -39.2415 -39.2347 -39.2286 -39.2236
   -38.9500 -38.9492 -38.9468 -38.9451 -38.9382 -38.9381 -38.9337 -38.9335
   -38.8859 -38.8856 -38.8837 -38.8832 -38.8716 -38.8710 -38.8670 -38.8664
   -38.8391 -38.8386 -38.8343 -38.8339 -38.8218 -38.8217 -38.8195 -38.8193
   -38.7702 -38.7700 -38.7655 -38.7652 -38.7568 -38.7568 -38.7528 -38.7528
   -38.6797 -38.6768 -38.6680 -38.6675 -38.6659 -38.6652 -38.6649 -38.6642
   -38.6641 -38.6638 -38.6637 -38.6632 -38.6616 -38.6613 -38.6537 -38.6537
     4.2161   5.4883   5.7122   5.7178   5.7583   5.7624   5.7735   5.7911
     5.7963   5.8515   5.8767   5.9744   5.9762   6.0401   6.2219   6.2849
     6.3420   6.5232   6.5329   6.5472   6.5531   6.5609   6.5625   6.6527
     6.6568   6.6925   6.6981   6.6986   6.7186   6.7519   6.7598   6.7978
     6.8001   6.8339   6.8808   6.9502   7.0453   7.0547   7.0580   7.0614
     7.0866   7.0966   7.1042   7.2398   7.2759   7.3015   7.3427   7.3890
     7.3892   7.4285   7.4416   7.4953   7.5006   7.5349   7.5860   7.6195
     7.6321   7.6422   7.6680   7.6932   7.7366   7.7818   7.8276   7.8371
     7.8450   7.8496   8.0062   8.0111   8.0157   8.0196   8.0303   8.0328
     8.0466   8.0953   8.1319   8.1345   8.1463   8.2746   8.3540   8.3757
     8.3762   8.4117   8.4536   8.4619   8.4928   8.5521   8.5597   8.5836
     8.6506   8.6703   8.6877   8.7190   8.7435   8.7759   8.8234   8.8349
     8.8441   8.8717   8.8740   8.8891   8.8997   8.9335   8.9399   8.9567
     8.9589   8.9642   8.9836   9.0421   9.1103   9.1399   9.1524   9.1622
     9.2746   9.2934   9.2941   9.3594   9.3876   9.4120   9.4213   9.4762
     9.4949   9.5070   9.5409   9.5916   9.6169   9.6350   9.6513   9.6596
     9.6655   9.7235   9.7665   9.7895   9.8144   9.8165   9.8200   9.8645
     9.8648   9.8834   9.8931   9.9130  10.0262  10.0311  10.0422  10.0529
    10.0827  10.0846  10.1033  10.1549  10.2114  10.2283  10.2398  10.2438
    10.2655  10.2728  10.3618  10.3881  10.4157  10.4607  10.4649  10.4736
    10.4821  10.4885  10.5607  10.5761  10.6133  10.6418  10.9673  10.9851
    11.0023  11.4381  11.5407  11.6849  11.7403  11.9619  12.1608  12.2227
    12.2889  12.7987  12.7990  12.8615  13.3419  13.3567  13.7114  13.8229
    13.9548  14.2587  14.4731  14.8270  15.0999  15.3914  15.7633  15.8279
    15.8741  15.9109  15.9698  16.6202  16.8166  16.8504  17.3150  17.4763
    18.0649  18.4280  18.4344  18.4381  18.6505  18.6580  18.7203  18.8951
    18.9257  18.9743  19.2520  19.3265  19.3890  19.8183  19.8403  19.8623
    20.1532  20.2216

          k = 0.0556 0.1667-0.3200 ( 51578 PWs)   bands (ev):

   -73.6682 -73.6509 -73.6465 -73.6423 -73.6396 -73.6384 -73.6375 -73.6367
   -73.6347 -73.6341 -73.6307 -73.6295 -73.6282 -73.6265 -73.6214 -73.6209
   -73.0767 -73.0767 -73.0655 -73.0655 -73.0627 -73.0627 -73.0618 -73.0618
   -73.0611 -73.0610 -73.0600 -73.0600 -73.0572 -73.0572 -73.0459 -73.0459
   -39.5016 -39.5007 -39.4994 -39.4981 -39.4868 -39.4867 -39.4816 -39.4535
   -39.4516 -39.4499 -39.4458 -39.4279 -39.4217 -39.4170 -39.3963 -39.3887
   -39.3874 -39.3826 -39.3689 -39.3617 -39.3574 -39.3514 -39.3487 -39.3449
   -39.3447 -39.3419 -39.3410 -39.3336 -39.3316 -39.3258 -39.3236 -39.3205
   -39.3099 -39.3004 -39.2946 -39.2876 -39.2856 -39.2851 -39.2813 -39.2807
   -39.2760 -39.2720 -39.2473 -39.2467 -39.2415 -39.2347 -39.2286 -39.2236
   -38.9501 -38.9492 -38.9468 -38.9451 -38.9382 -38.9380 -38.9337 -38.9335
   -38.8859 -38.8856 -38.8837 -38.8832 -38.8716 -38.8710 -38.8670 -38.8664
   -38.8391 -38.8386 -38.8343 -38.8339 -38.8218 -38.8217 -38.8195 -38.8193
   -38.7702 -38.7700 -38.7655 -38.7651 -38.7568 -38.7568 -38.7528 -38.7527
   -38.6797 -38.6768 -38.6680 -38.6675 -38.6659 -38.6652 -38.6649 -38.6642
   -38.6641 -38.6638 -38.6638 -38.6632 -38.6616 -38.6613 -38.6537 -38.6537
     4.2162   5.4880   5.7122   5.7178   5.7583   5.7624   5.7736   5.7911
     5.7963   5.8515   5.8763   5.9743   5.9762   6.0401   6.2219   6.2849
     6.3422   6.5233   6.5329   6.5472   6.5530   6.5609   6.5624   6.6527
     6.6568   6.6925   6.6981   6.6986   6.7186   6.7519   6.7598   6.7978
     6.8001   6.8339   6.8808   6.9503   7.0453   7.0547   7.0580   7.0614
     7.0866   7.0966   7.1042   7.2398   7.2759   7.3015   7.3427   7.3891
     7.3892   7.4285   7.4416   7.4953   7.5006   7.5349   7.5860   7.6194
     7.6322   7.6422   7.6680   7.6932   7.7366   7.7818   7.8276   7.8371
     7.8450   7.8495   8.0060   8.0111   8.0158   8.0196   8.0303   8.0328
     8.0466   8.0951   8.1321   8.1346   8.1464   8.2748   8.3540   8.3760
     8.3764   8.4117   8.4538   8.4624   8.4927   8.5520   8.5598   8.5837
     8.6497   8.6703   8.6877   8.7201   8.7429   8.7761   8.8234   8.8350
     8.8435   8.8718   8.8743   8.8868   8.8997   8.9336   8.9394   8.9567
     8.9589   8.9643   8.9837   9.0421   9.1101   9.1405   9.1528   9.1628
     9.2743   9.2937   9.2942   9.3600   9.3876   9.4114   9.4219   9.4759
     9.4942   9.5068   9.5411   9.5912   9.6169   9.6351   9.6509   9.6593
     9.6652   9.7232   9.7754   9.7895   9.8144   9.8165   9.8224   9.8645
     9.8648   9.8816   9.8931   9.9152  10.0261  10.0310  10.0416  10.0528
    10.0816  10.0866  10.1032  10.1545  10.2113  10.2283  10.2399  10.2447
    10.2655  10.2728  10.3618  10.3898  10.4157  10.4606  10.4649  10.4785
    10.4823  10.4885  10.5607  10.5762  10.6133  10.6367  10.9673  10.9805
    11.0023  11.4338  11.5402  11.6847  11.7006  11.9575  12.1608  12.2224
    12.3041  12.8053  12.8142  12.8649  13.3403  13.3719  13.7721  13.8192
    13.9700  14.2141  14.4740  14.7820  15.1006  15.3464  15.7747  15.8421
    15.8620  15.8870  15.9250  16.6167  16.7823  16.9726  17.3119  17.6638
    18.2549  18.2757  18.4152  18.4288  18.6574  18.7088  18.7213  18.8963
    18.9087  18.9324  19.1576  19.2533  19.2974  19.5879  19.8507  20.1345
    20.1953  20.2144

          k = 0.0556 0.2778 0.0356 ( 51544 PWs)   bands (ev):

   -73.6667 -73.6549 -73.6459 -73.6419 -73.6412 -73.6386 -73.6362 -73.6344
   -73.6332 -73.6330 -73.6321 -73.6299 -73.6287 -73.6252 -73.6228 -73.6213
   -73.0758 -73.0757 -73.0681 -73.0681 -73.0626 -73.0626 -73.0620 -73.0620
   -73.0608 -73.0608 -73.0601 -73.0601 -73.0546 -73.0546 -73.0469 -73.0468
   -39.4964 -39.4951 -39.4923 -39.4915 -39.4815 -39.4810 -39.4789 -39.4591
   -39.4574 -39.4571 -39.4496 -39.4461 -39.4360 -39.4359 -39.4005 -39.3935
   -39.3776 -39.3770 -39.3575 -39.3512 -39.3512 -39.3488 -39.3477 -39.3467
   -39.3452 -39.3411 -39.3405 -39.3371 -39.3335 -39.3312 -39.3278 -39.3214
   -39.3004 -39.2955 -39.2928 -39.2881 -39.2814 -39.2794 -39.2761 -39.2727
   -39.2699 -39.2671 -39.2565 -39.2538 -39.2460 -39.2368 -39.2365 -39.2280
   -38.9457 -38.9443 -38.9400 -38.9379 -38.9345 -38.9342 -38.9272 -38.9269
   -38.9018 -38.9011 -38.8973 -38.8967 -38.8886 -38.8874 -38.8818 -38.8810
   -38.8243 -38.8237 -38.8174 -38.8169 -38.8079 -38.8078 -38.8033 -38.8031
   -38.7769 -38.7769 -38.7693 -38.7691 -38.7642 -38.7641 -38.7576 -38.7576
   -38.6783 -38.6760 -38.6700 -38.6698 -38.6658 -38.6651 -38.6651 -38.6642
   -38.6641 -38.6638 -38.6635 -38.6633 -38.6597 -38.6596 -38.6544 -38.6543
     4.3527   5.4391   5.5961   5.7833   5.8001   5.8004   5.8310   5.8556
     5.8672   5.9300   5.9790   6.0225   6.0293   6.0299   6.2006   6.2410
     6.3587   6.3661   6.3889   6.3896   6.4218   6.4411   6.5117   6.5914
     6.5968   6.6480   6.7328   6.7443   6.7448   6.7567   6.7578   6.7637
     6.7666   6.8091   6.8323   6.8347   6.9918   7.0343   7.0416   7.0732
     7.0942   7.1218   7.1712   7.2725   7.2787   7.2914   7.2987   7.3229
     7.3484   7.4047   7.4284   7.4670   7.4761   7.6094   7.6153   7.6519
     7.6561   7.6591   7.7298   7.7351   7.7742   7.8247   7.8501   7.8581
     7.9106   7.9834   8.0100   8.0377   8.0483   8.0514   8.0552   8.0602
     8.0945   8.1314   8.1396   8.1820   8.1914   8.1958   8.2322   8.2914
     8.3142   8.3429   8.3495   8.4200   8.4968   8.5036   8.5081   8.5125
     8.5433   8.5570   8.5938   8.6575   8.6901   8.7463   8.7905   8.7967
     8.8736   8.8901   8.9046   8.9200   8.9518   8.9793   8.9915   9.0205
     9.0388   9.0418   9.0775   9.0863   9.1471   9.1709   9.2058   9.2890
     9.3580   9.3767   9.3867   9.4016   9.4096   9.4510   9.4843   9.5074
     9.5093   9.5500   9.5587   9.5748   9.6065   9.6116   9.6172   9.6544
     9.6608   9.7242   9.8155   9.8178   9.8218   9.8759   9.8797   9.9506
     9.9711   9.9775   9.9782   9.9874  10.0004  10.0216  10.0591  10.0673
    10.0708  10.0743  10.1441  10.1465  10.1530  10.1561  10.1973  10.2111
    10.2247  10.2483  10.2547  10.3358  10.3377  10.4205  10.4345  10.4552
    10.4751  10.4869  10.4907  10.5030  10.5689  10.7850  10.8628  10.9041
    11.0186  11.2675  11.2685  11.5028  11.7287  11.7952  11.9564  12.3828
    12.6329  12.7128  12.7987  13.1264  13.2782  13.5788  13.8212  14.0226
    14.1452  14.4491  14.5270  15.2879  15.4629  15.5085  15.8274  15.8628
    15.9040  16.0918  16.1552  16.1626  16.6868  17.0185  17.2120  17.5397
    17.6403  17.7603  17.8651  18.0089  18.3105  18.3353  18.3823  18.6346
    18.8018  18.8479  19.0547  19.2078  19.6601  19.7597  19.8776  19.9462
    20.1108  20.5634

          k = 0.0556 0.2778 0.1067 ( 51547 PWs)   bands (ev):

   -73.6667 -73.6549 -73.6459 -73.6419 -73.6412 -73.6386 -73.6362 -73.6344
   -73.6332 -73.6330 -73.6321 -73.6299 -73.6287 -73.6252 -73.6228 -73.6213
   -73.0758 -73.0757 -73.0681 -73.0681 -73.0626 -73.0626 -73.0620 -73.0620
   -73.0608 -73.0608 -73.0601 -73.0601 -73.0546 -73.0546 -73.0469 -73.0468
   -39.4964 -39.4950 -39.4924 -39.4915 -39.4815 -39.4810 -39.4789 -39.4592
   -39.4575 -39.4572 -39.4496 -39.4461 -39.4360 -39.4359 -39.4004 -39.3935
   -39.3777 -39.3770 -39.3575 -39.3512 -39.3512 -39.3488 -39.3477 -39.3467
   -39.3452 -39.3411 -39.3405 -39.3371 -39.3335 -39.3313 -39.3278 -39.3214
   -39.3004 -39.2955 -39.2928 -39.2881 -39.2814 -39.2794 -39.2761 -39.2726
   -39.2699 -39.2671 -39.2565 -39.2538 -39.2460 -39.2368 -39.2365 -39.2280
   -38.9457 -38.9443 -38.9400 -38.9379 -38.9345 -38.9342 -38.9273 -38.9269
   -38.9018 -38.9011 -38.8973 -38.8967 -38.8886 -38.8874 -38.8817 -38.8809
   -38.8243 -38.8237 -38.8174 -38.8169 -38.8079 -38.8078 -38.8033 -38.8031
   -38.7769 -38.7769 -38.7693 -38.7692 -38.7642 -38.7642 -38.7576 -38.7576
   -38.6784 -38.6760 -38.6700 -38.6698 -38.6658 -38.6652 -38.6651 -38.6642
   -38.6641 -38.6638 -38.6635 -38.6632 -38.6597 -38.6596 -38.6544 -38.6543
     4.3529   5.4392   5.5958   5.7833   5.8001   5.8004   5.8310   5.8556
     5.8673   5.9300   5.9783   6.0225   6.0293   6.0299   6.2006   6.2411
     6.3587   6.3659   6.3889   6.3896   6.4218   6.4415   6.5117   6.5915
     6.5968   6.6477   6.7328   6.7443   6.7448   6.7566   6.7577   6.7637
     6.7667   6.8091   6.8325   6.8345   6.9918   7.0342   7.0415   7.0732
     7.0941   7.1217   7.1711   7.2724   7.2787   7.2915   7.2986   7.3227
     7.3484   7.4048   7.4283   7.4670   7.4760   7.6094   7.6152   7.6519
     7.6565   7.6593   7.7298   7.7351   7.7744   7.8247   7.8501   7.8581
     7.9105   7.9833   8.0100   8.0377   8.0486   8.0512   8.0552   8.0601
     8.0948   8.1315   8.1396   8.1824   8.1914   8.1956   8.2322   8.2916
     8.3146   8.3431   8.3503   8.4198   8.4970   8.5040   8.5103   8.5125
     8.5432   8.5572   8.5937   8.6553   8.6908   8.7469   8.7907   8.7954
     8.8736   8.8902   8.9038   8.9173   8.9514   8.9795   8.9915   9.0202
     9.0381   9.0419   9.0782   9.0854   9.1480   9.1710   9.2059   9.2892
     9.3581   9.3787   9.3868   9.4011   9.4085   9.4474   9.4833   9.5084
     9.5101   9.5497   9.5585   9.5744   9.6067   9.6111   9.6172   9.6529
     9.6606   9.7281   9.8180   9.8192   9.8219   9.8736   9.8825   9.9503
     9.9714   9.9782   9.9795   9.9874  10.0002  10.0215  10.0540  10.0715
    10.0746  10.0781  10.1440  10.1446  10.1544  10.1564  10.1973  10.2115
    10.2248  10.2473  10.2549  10.3352  10.3378  10.4105  10.4345  10.4684
    10.4752  10.4870  10.4907  10.5029  10.5698  10.7850  10.8628  10.9068
    11.0106  11.2652  11.2683  11.4950  11.7540  11.7949  11.9543  12.2775
    12.6247  12.7379  12.8155  13.1383  13.3031  13.7196  13.8230  14.0174
    14.0236  14.4338  14.5523  15.1635  15.5099  15.6555  15.7058  15.8553
    15.9098  16.0195  16.1278  16.2068  16.8932  16.8952  17.3874  17.4090
    17.6341  17.7669  17.8894  18.0107  18.3121  18.4564  18.5319  18.5507
    18.7751  18.8843  19.0843  19.1979  19.5848  19.7501  19.8119  19.8273
    20.0902  20.2143

          k = 0.0556 0.2778 0.1778 ( 51577 PWs)   bands (ev):

   -73.6667 -73.6549 -73.6459 -73.6419 -73.6412 -73.6386 -73.6362 -73.6344
   -73.6332 -73.6330 -73.6321 -73.6299 -73.6287 -73.6252 -73.6228 -73.6213
   -73.0758 -73.0757 -73.0681 -73.0681 -73.0626 -73.0626 -73.0620 -73.0620
   -73.0608 -73.0608 -73.0601 -73.0601 -73.0546 -73.0546 -73.0469 -73.0468
   -39.4964 -39.4950 -39.4924 -39.4915 -39.4816 -39.4810 -39.4790 -39.4592
   -39.4574 -39.4572 -39.4496 -39.4461 -39.4360 -39.4359 -39.4004 -39.3935
   -39.3777 -39.3770 -39.3575 -39.3512 -39.3512 -39.3488 -39.3477 -39.3467
   -39.3452 -39.3411 -39.3405 -39.3371 -39.3335 -39.3313 -39.3278 -39.3214
   -39.3004 -39.2955 -39.2928 -39.2881 -39.2814 -39.2795 -39.2761 -39.2726
   -39.2699 -39.2671 -39.2565 -39.2538 -39.2460 -39.2368 -39.2365 -39.2280
   -38.9457 -38.9443 -38.9401 -38.9379 -38.9346 -38.9342 -38.9273 -38.9270
   -38.9018 -38.9011 -38.8973 -38.8966 -38.8886 -38.8874 -38.8817 -38.8809
   -38.8244 -38.8237 -38.8174 -38.8169 -38.8080 -38.8078 -38.8033 -38.8031
   -38.7769 -38.7769 -38.7694 -38.7692 -38.7642 -38.7641 -38.7576 -38.7576
   -38.6784 -38.6761 -38.6701 -38.6698 -38.6658 -38.6652 -38.6651 -38.6642
   -38.6641 -38.6638 -38.6635 -38.6632 -38.6597 -38.6596 -38.6544 -38.6543
     4.3532   5.4394   5.5952   5.7833   5.8001   5.8004   5.8310   5.8557
     5.8673   5.9299   5.9773   6.0225   6.0293   6.0299   6.2006   6.2411
     6.3586   6.3658   6.3888   6.3896   6.4218   6.4420   6.5117   6.5915
     6.5967   6.6472   6.7328   6.7443   6.7448   6.7566   6.7575   6.7636
     6.7669   6.8089   6.8328   6.8343   6.9919   7.0342   7.0413   7.0732
     7.0940   7.1217   7.1711   7.2724   7.2787   7.2917   7.2985   7.3225
     7.3484   7.4049   7.4280   7.4669   7.4760   7.6094   7.6151   7.6519
     7.6572   7.6595   7.7298   7.7350   7.7748   7.8247   7.8501   7.8582
     7.9102   7.9833   8.0100   8.0378   8.0492   8.0510   8.0552   8.0600
     8.0951   8.1315   8.1395   8.1831   8.1914   8.1954   8.2322   8.2920
     8.3151   8.3435   8.3514   8.4195   8.4974   8.5046   8.5125   8.5138
     8.5432   8.5574   8.5937   8.6520   8.6918   8.7479   8.7910   8.7935
     8.8736   8.8902   8.9025   8.9133   8.9507   8.9797   8.9916   9.0197
     9.0370   9.0420   9.0791   9.0840   9.1493   9.1712   9.2060   9.2896
     9.3583   9.3822   9.3870   9.4003   9.4070   9.4416   9.4818   9.5071
     9.5142   9.5491   9.5584   9.5736   9.6068   9.6104   9.6172   9.6508
     9.6604   9.7341   9.8211   9.8219   9.8220   9.8700   9.8870   9.9498
     9.9718   9.9781   9.9825   9.9875   9.9999  10.0214  10.0512  10.0726
    10.0750  10.0892  10.1416  10.1440  10.1567  10.1568  10.1973  10.2120
    10.2250  10.2457  10.2552  10.3344  10.3378  10.3954  10.4344  10.4753
    10.4871  10.4899  10.4907  10.5029  10.5719  10.7850  10.8628  10.9109
    10.9984  11.2618  11.2679  11.4833  11.7942  11.7944  11.9510  12.1406
    12.6122  12.7778  12.8420  13.1568  13.3426  13.8257  13.8692  13.9164
    14.0092  14.4094  14.5925  15.0053  15.5122  15.5506  15.8438  15.9231
    15.9436  15.9521  16.0817  16.2335  16.7358  17.1652  17.2185  17.6246
    17.6765  17.8118  17.9283  18.0137  18.3131  18.3896  18.4826  18.5630
    18.8896  19.0574  19.1880  19.3368  19.3549  19.7068  19.7328  19.7374
    19.9346  20.1142

          k = 0.0556 0.2778 0.2489 ( 51585 PWs)   bands (ev):

   -73.6667 -73.6549 -73.6459 -73.6419 -73.6412 -73.6386 -73.6362 -73.6344
   -73.6332 -73.6330 -73.6321 -73.6299 -73.6287 -73.6252 -73.6228 -73.6213
   -73.0758 -73.0757 -73.0681 -73.0681 -73.0626 -73.0626 -73.0620 -73.0620
   -73.0608 -73.0608 -73.0601 -73.0601 -73.0546 -73.0546 -73.0469 -73.0468
   -39.4964 -39.4950 -39.4924 -39.4915 -39.4816 -39.4811 -39.4790 -39.4592
   -39.4575 -39.4571 -39.4496 -39.4461 -39.4360 -39.4358 -39.4004 -39.3936
   -39.3777 -39.3770 -39.3575 -39.3512 -39.3512 -39.3488 -39.3477 -39.3467
   -39.3452 -39.3411 -39.3404 -39.3371 -39.3335 -39.3313 -39.3278 -39.3214
   -39.3004 -39.2955 -39.2928 -39.2881 -39.2814 -39.2795 -39.2761 -39.2726
   -39.2699 -39.2671 -39.2565 -39.2538 -39.2460 -39.2368 -39.2365 -39.2280
   -38.9457 -38.9443 -38.9401 -38.9378 -38.9346 -38.9342 -38.9273 -38.9270
   -38.9019 -38.9010 -38.8973 -38.8966 -38.8886 -38.8874 -38.8817 -38.8810
   -38.8244 -38.8237 -38.8173 -38.8170 -38.8080 -38.8078 -38.8033 -38.8031
   -38.7770 -38.7769 -38.7693 -38.7692 -38.7642 -38.7641 -38.7576 -38.7576
   -38.6784 -38.6761 -38.6701 -38.6698 -38.6658 -38.6652 -38.6650 -38.6642
   -38.6642 -38.6639 -38.6635 -38.6632 -38.6597 -38.6596 -38.6544 -38.6543
     4.3535   5.4396   5.5947   5.7833   5.8001   5.8005   5.8310   5.8557
     5.8673   5.9299   5.9764   6.0225   6.0293   6.0299   6.2006   6.2412
     6.3585   6.3656   6.3888   6.3895   6.4218   6.4425   6.5117   6.5915
     6.5966   6.6468   6.7327   6.7443   6.7448   6.7566   6.7573   6.7636
     6.7670   6.8088   6.8331   6.8341   6.9920   7.0342   7.0412   7.0732
     7.0939   7.1216   7.1711   7.2724   7.2786   7.2919   7.2984   7.3223
     7.3484   7.4050   7.4278   7.4669   7.4759   7.6094   7.6150   7.6518
     7.6578   7.6597   7.7298   7.7350   7.7751   7.8246   7.8501   7.8582
     7.9100   7.9833   8.0100   8.0378   8.0496   8.0508   8.0552   8.0599
     8.0955   8.1315   8.1394   8.1837   8.1914   8.1953   8.2322   8.2923
     8.3156   8.3438   8.3524   8.4192   8.4977   8.5051   8.5125   8.5169
     8.5431   8.5575   8.5937   8.6491   8.6928   8.7488   8.7912   8.7918
     8.8736   8.8903   8.9013   8.9098   8.9501   8.9800   8.9916   9.0193
     9.0360   9.0422   9.0799   9.0828   9.1504   9.1714   9.2061   9.2899
     9.3584   9.3858   9.3871   9.3996   9.4056   9.4361   9.4804   9.5060
     9.5177   9.5486   9.5582   9.5730   9.6070   9.6098   9.6172   9.6490
     9.6603   9.7394   9.8219   9.8226   9.8257   9.8666   9.8912   9.9494
     9.9721   9.9780   9.9852   9.9875   9.9996  10.0212  10.0499  10.0735
    10.0754  10.0973  10.1390  10.1440  10.1571  10.1588  10.1973  10.2125
    10.2253  10.2442  10.2555  10.3338  10.3379  10.3822  10.4344  10.4753
    10.4873  10.4907  10.5028  10.5094  10.5753  10.7850  10.8628  10.9146
    10.9879  11.2589  11.2674  11.4731  11.7940  11.8312  11.9482  12.0345
    12.6014  12.8145  12.8658  13.1734  13.3789  13.7513  13.8280  14.0015
    14.0828  14.3869  14.6296  14.8847  15.4320  15.5141  15.8338  15.9056
    15.9467  16.0297  16.2229  16.2464  16.6165  16.9743  17.5600  17.6163
    17.7452  17.9642  18.0164  18.0435  18.0595  18.3088  18.4716  18.6518
    19.0088  19.2018  19.2695  19.2963  19.3857  19.6474  19.6615  19.7386
    19.9026  19.9185

          k = 0.0556 0.2778-0.3200 ( 51566 PWs)   bands (ev):

   -73.6667 -73.6549 -73.6459 -73.6419 -73.6412 -73.6386 -73.6362 -73.6344
   -73.6332 -73.6330 -73.6321 -73.6299 -73.6287 -73.6252 -73.6228 -73.6213
   -73.0758 -73.0757 -73.0681 -73.0681 -73.0626 -73.0626 -73.0620 -73.0620
   -73.0608 -73.0608 -73.0601 -73.0601 -73.0546 -73.0546 -73.0469 -73.0468
   -39.4964 -39.4950 -39.4924 -39.4915 -39.4816 -39.4811 -39.4790 -39.4592
   -39.4575 -39.4571 -39.4496 -39.4461 -39.4360 -39.4358 -39.4004 -39.3936
   -39.3777 -39.3770 -39.3575 -39.3512 -39.3512 -39.3488 -39.3477 -39.3467
   -39.3453 -39.3411 -39.3404 -39.3370 -39.3335 -39.3313 -39.3278 -39.3213
   -39.3004 -39.2954 -39.2928 -39.2881 -39.2814 -39.2794 -39.2761 -39.2726
   -39.2699 -39.2671 -39.2565 -39.2538 -39.2460 -39.2368 -39.2365 -39.2280
   -38.9457 -38.9443 -38.9401 -38.9378 -38.9346 -38.9342 -38.9274 -38.9270
   -38.9018 -38.9010 -38.8972 -38.8966 -38.8886 -38.8874 -38.8817 -38.8809
   -38.8244 -38.8237 -38.8173 -38.8170 -38.8079 -38.8078 -38.8033 -38.8031
   -38.7769 -38.7769 -38.7693 -38.7692 -38.7641 -38.7641 -38.7576 -38.7575
   -38.6783 -38.6760 -38.6701 -38.6698 -38.6658 -38.6652 -38.6650 -38.6642
   -38.6642 -38.6639 -38.6635 -38.6632 -38.6597 -38.6595 -38.6545 -38.6543
     4.3536   5.4397   5.5945   5.7834   5.8001   5.8005   5.8310   5.8557
     5.8673   5.9298   5.9760   6.0225   6.0292   6.0300   6.2006   6.2412
     6.3585   6.3655   6.3888   6.3896   6.4218   6.4427   6.5117   6.5915
     6.5965   6.6466   6.7327   6.7443   6.7448   6.7566   6.7573   6.7636
     6.7671   6.8088   6.8332   6.8341   6.9921   7.0341   7.0411   7.0732
     7.0939   7.1216   7.1711   7.2725   7.2786   7.2920   7.2984   7.3222
     7.3484   7.4050   7.4277   7.4669   7.4759   7.6094   7.6150   7.6518
     7.6580   7.6598   7.7298   7.7350   7.7752   7.8246   7.8501   7.8582
     7.9099   7.9833   8.0101   8.0379   8.0498   8.0507   8.0552   8.0599
     8.0956   8.1315   8.1393   8.1839   8.1914   8.1952   8.2322   8.2924
     8.3157   8.3439   8.3528   8.4191   8.4978   8.5054   8.5125   8.5181
     8.5431   8.5576   8.5937   8.6480   8.6932   8.7491   8.7911   8.7913
     8.8736   8.8903   8.9008   8.9084   8.9499   8.9801   8.9916   9.0192
     9.0356   9.0422   9.0802   9.0823   9.1508   9.1714   9.2062   9.2900
     9.3585   9.3872   9.3874   9.3994   9.4051   9.4337   9.4799   9.5055
     9.5191   9.5484   9.5581   9.5727   9.6070   9.6096   9.6172   9.6483
     9.6602   9.7415   9.8219   9.8231   9.8273   9.8651   9.8929   9.9492
     9.9723   9.9779   9.9862   9.9875   9.9994  10.0212  10.0495  10.0739
    10.0755  10.1003  10.1380  10.1440  10.1573  10.1596  10.1974  10.2126
    10.2254  10.2437  10.2556  10.3336  10.3379  10.3770  10.4344  10.4754
    10.4873  10.4907  10.5028  10.5170  10.5774  10.7850  10.8628  10.9161
    10.9838  11.2578  11.2673  11.4691  11.7938  11.8463  11.9471  11.9949
    12.5971  12.8295  12.8754  13.1801  13.3937  13.7077  13.8290  13.9984
    14.1486  14.3777  14.6447  14.8401  15.3882  15.5149  15.8299  15.8891
    15.9795  15.9859  16.2500  16.3518  16.5726  16.8987  17.6130  17.7429
    17.7511  17.8914  17.9789  18.0175  18.2083  18.2989  18.4725  18.6868
    18.8225  19.2623  19.3586  19.4057  19.4463  19.4929  19.6141  19.7909
    19.8048  19.8797

          k = 0.0556 0.3889 0.0356 ( 51581 PWs)   bands (ev):

   -73.6646 -73.6586 -73.6450 -73.6427 -73.6413 -73.6396 -73.6354 -73.6334
   -73.6320 -73.6318 -73.6308 -73.6304 -73.6295 -73.6249 -73.6240 -73.6220
   -73.0744 -73.0744 -73.0705 -73.0705 -73.0625 -73.0625 -73.0622 -73.0622
   -73.0606 -73.0606 -73.0602 -73.0602 -73.0522 -73.0522 -73.0483 -73.0482
   -39.4880 -39.4870 -39.4832 -39.4822 -39.4751 -39.4742 -39.4728 -39.4671
   -39.4649 -39.4649 -39.4625 -39.4568 -39.4536 -39.4497 -39.4018 -39.3978
   -39.3705 -39.3661 -39.3594 -39.3542 -39.3506 -39.3493 -39.3493 -39.3484
   -39.3464 -39.3429 -39.3369 -39.3324 -39.3274 -39.3260 -39.3238 -39.3189
   -39.3088 -39.3044 -39.2800 -39.2761 -39.2752 -39.2746 -39.2745 -39.2696
   -39.2665 -39.2622 -39.2606 -39.2547 -39.2535 -39.2474 -39.2420 -39.2348
   -38.9385 -38.9368 -38.9306 -38.9285 -38.9282 -38.9278 -38.9186 -38.9180
   -38.9162 -38.9150 -38.9096 -38.9088 -38.9044 -38.9027 -38.8955 -38.8947
   -38.8103 -38.8097 -38.8013 -38.8010 -38.7954 -38.7952 -38.7887 -38.7884
   -38.7862 -38.7859 -38.7757 -38.7757 -38.7743 -38.7742 -38.7654 -38.7653
   -38.6766 -38.6749 -38.6722 -38.6719 -38.6657 -38.6654 -38.6649 -38.6644
   -38.6641 -38.6639 -38.6633 -38.6632 -38.6581 -38.6579 -38.6554 -38.6552
     4.5537   5.1122   5.7481   5.8623   5.8841   5.9178   5.9198   5.9429
     5.9656   5.9940   6.0477   6.0933   6.1096   6.1195   6.1342   6.1377
     6.1480   6.1859   6.2260   6.2317   6.2953   6.3513   6.3946   6.4683
     6.5753   6.7013   6.7495   6.7514   6.7677   6.7741   6.7852   6.8000
     6.8454   6.8571   6.8667   6.8679   6.8789   6.9900   7.0437   7.0520
     7.0739   7.1094   7.1469   7.1567   7.1839   7.2066   7.2411   7.2537
     7.2613   7.3033   7.4764   7.5316   7.6066   7.6358   7.6550   7.6753
     7.6960   7.7369   7.8194   7.8206   7.8208   7.8444   7.8676   7.8735
     7.9622   7.9758   8.0431   8.0452   8.0457   8.0789   8.0830   8.0844
     8.0885   8.0994   8.1065   8.1513   8.1588   8.2407   8.2505   8.2652
     8.2784   8.2984   8.3337   8.3420   8.3494   8.4165   8.4173   8.4579
     8.4965   8.5038   8.7183   8.7340   8.7427   8.7733   8.8163   8.8387
     8.8622   8.9100   8.9249   8.9625   9.0010   9.0053   9.0054   9.0147
     9.0177   9.0260   9.0952   9.1008   9.2276   9.2349   9.2485   9.2869
     9.3083   9.3410   9.4092   9.4338   9.4385   9.4712   9.4714   9.4976
     9.5364   9.5524   9.5574   9.6138   9.6625   9.7178   9.7283   9.7577
     9.7887   9.8125   9.8343   9.8476   9.8609   9.8626   9.8934   9.9015
     9.9590   9.9634   9.9891  10.0004  10.0024  10.0397  10.0618  10.0765
    10.0800  10.0800  10.0970  10.1195  10.1402  10.1439  10.1596  10.1738
    10.2138  10.2375  10.2389  10.2591  10.2600  10.2792  10.3353  10.4195
    10.5115  10.5182  10.5422  10.5771  10.6468  10.6669  10.7085  10.8908
    11.0253  11.1178  11.3140  11.3856  11.5542  11.5602  11.7833  12.7377
    12.7566  12.7942  13.0655  13.2763  13.3053  13.3611  13.6504  14.0041
    14.7379  14.9582  14.9896  15.0080  15.2689  15.3295  15.7718  16.0436
    16.2888  16.2896  16.3574  16.5324  16.7905  16.9451  16.9583  17.1922
    17.3137  17.4408  17.7023  17.8002  18.0617  18.2000  18.4825  18.5330
    18.5650  18.8659  18.8965  18.9704  19.1792  19.1826  19.1914  19.9665
    20.3402  20.4785

          k = 0.0556 0.3889 0.1067 ( 51601 PWs)   bands (ev):

   -73.6646 -73.6586 -73.6450 -73.6427 -73.6413 -73.6396 -73.6354 -73.6334
   -73.6320 -73.6318 -73.6308 -73.6304 -73.6295 -73.6249 -73.6240 -73.6220
   -73.0744 -73.0744 -73.0705 -73.0705 -73.0625 -73.0625 -73.0622 -73.0622
   -73.0606 -73.0606 -73.0602 -73.0602 -73.0522 -73.0522 -73.0483 -73.0482
   -39.4880 -39.4870 -39.4832 -39.4822 -39.4751 -39.4742 -39.4727 -39.4671
   -39.4650 -39.4649 -39.4625 -39.4568 -39.4536 -39.4497 -39.4018 -39.3978
   -39.3705 -39.3661 -39.3594 -39.3542 -39.3506 -39.3493 -39.3493 -39.3485
   -39.3464 -39.3429 -39.3370 -39.3325 -39.3274 -39.3260 -39.3238 -39.3189
   -39.3089 -39.3044 -39.2800 -39.2761 -39.2753 -39.2746 -39.2745 -39.2696
   -39.2665 -39.2622 -39.2606 -39.2547 -39.2535 -39.2474 -39.2420 -39.2348
   -38.9385 -38.9368 -38.9306 -38.9284 -38.9283 -38.9278 -38.9186 -38.9180
   -38.9162 -38.9150 -38.9096 -38.9088 -38.9044 -38.9027 -38.8955 -38.8947
   -38.8103 -38.8097 -38.8013 -38.8011 -38.7954 -38.7952 -38.7886 -38.7884
   -38.7862 -38.7860 -38.7757 -38.7757 -38.7743 -38.7742 -38.7654 -38.7653
   -38.6766 -38.6750 -38.6722 -38.6719 -38.6657 -38.6654 -38.6649 -38.6644
   -38.6641 -38.6639 -38.6633 -38.6632 -38.6581 -38.6579 -38.6554 -38.6552
     4.5538   5.1124   5.7478   5.8623   5.8841   5.9179   5.9198   5.9429
     5.9656   5.9940   6.0477   6.0933   6.1097   6.1189   6.1343   6.1377
     6.1478   6.1859   6.2260   6.2317   6.2953   6.3513   6.3945   6.4678
     6.5756   6.7014   6.7496   6.7515   6.7679   6.7740   6.7852   6.8000
     6.8454   6.8572   6.8667   6.8679   6.8788   6.9899   7.0436   7.0520
     7.0740   7.1093   7.1469   7.1567   7.1839   7.2064   7.2411   7.2536
     7.2612   7.3033   7.4765   7.5316   7.6066   7.6358   7.6550   7.6755
     7.6960   7.7369   7.8198   7.8206   7.8209   7.8445   7.8677   7.8744
     7.9621   7.9757   8.0436   8.0452   8.0457   8.0789   8.0829   8.0843
     8.0884   8.1001   8.1067   8.1513   8.1589   8.2408   8.2509   8.2653
     8.2785   8.3004   8.3340   8.3421   8.3493   8.4165   8.4176   8.4579
     8.4965   8.5039   8.7183   8.7323   8.7431   8.7737   8.8166   8.8387
     8.8612   8.9095   8.9249   8.9624   9.0009   9.0035   9.0054   9.0146
     9.0162   9.0252   9.0953   9.1010   9.2269   9.2337   9.2427   9.2854
     9.3101   9.3413   9.4091   9.4338   9.4385   9.4711   9.4711   9.4975
     9.5361   9.5525   9.5570   9.6211   9.6619   9.7198   9.7284   9.7574
     9.7877   9.8124   9.8340   9.8476   9.8585   9.8662   9.8932   9.9012
     9.9617   9.9689   9.9906  10.0016  10.0025  10.0399  10.0617  10.0720
    10.0797  10.0802  10.0971  10.1196  10.1399  10.1440  10.1596  10.1726
    10.2126  10.2278  10.2391  10.2584  10.2599  10.2794  10.3353  10.4195
    10.5115  10.5182  10.5434  10.5771  10.6670  10.6671  10.7086  10.8907
    11.0185  11.1141  11.3389  11.3855  11.5535  11.5565  11.7795  12.6498
    12.7621  12.8148  13.0674  13.2938  13.3290  13.3530  13.5344  14.1540
    14.7253  14.9466  15.0001  15.1360  15.2147  15.2942  15.6740  16.0452
    16.2103  16.2134  16.3964  16.6233  16.9257  16.9701  16.9732  17.3140
    17.3592  17.4472  17.5835  17.6273  18.0547  18.3106  18.3287  18.5595
    18.5759  18.8893  18.9529  19.0759  19.0763  19.2159  19.2857  20.0024
    20.2998  20.3652

          k = 0.0556 0.3889 0.1778 ( 51596 PWs)   bands (ev):

   -73.6646 -73.6586 -73.6450 -73.6427 -73.6413 -73.6396 -73.6354 -73.6334
   -73.6320 -73.6318 -73.6308 -73.6304 -73.6295 -73.6249 -73.6240 -73.6220
   -73.0744 -73.0744 -73.0705 -73.0705 -73.0625 -73.0625 -73.0622 -73.0622
   -73.0606 -73.0606 -73.0602 -73.0602 -73.0522 -73.0522 -73.0483 -73.0482
   -39.4880 -39.4870 -39.4832 -39.4823 -39.4752 -39.4742 -39.4727 -39.4671
   -39.4650 -39.4649 -39.4625 -39.4567 -39.4536 -39.4497 -39.4018 -39.3978
   -39.3705 -39.3661 -39.3594 -39.3542 -39.3507 -39.3493 -39.3493 -39.3484
   -39.3465 -39.3428 -39.3370 -39.3325 -39.3274 -39.3260 -39.3238 -39.3188
   -39.3089 -39.3044 -39.2800 -39.2762 -39.2753 -39.2746 -39.2745 -39.2696
   -39.2665 -39.2622 -39.2606 -39.2547 -39.2535 -39.2473 -39.2420 -39.2348
   -38.9385 -38.9368 -38.9306 -38.9284 -38.9282 -38.9278 -38.9187 -38.9180
   -38.9163 -38.9150 -38.9095 -38.9088 -38.9044 -38.9027 -38.8955 -38.8947
   -38.8104 -38.8097 -38.8013 -38.8011 -38.7954 -38.7953 -38.7887 -38.7884
   -38.7862 -38.7859 -38.7757 -38.7757 -38.7743 -38.7742 -38.7654 -38.7653
   -38.6766 -38.6750 -38.6722 -38.6719 -38.6658 -38.6654 -38.6648 -38.6643
   -38.6641 -38.6640 -38.6633 -38.6632 -38.6581 -38.6579 -38.6554 -38.6552
     4.5541   5.1126   5.7473   5.8623   5.8842   5.9179   5.9198   5.9430
     5.9657   5.9940   6.0476   6.0933   6.1097   6.1179   6.1343   6.1377
     6.1475   6.1858   6.2260   6.2317   6.2953   6.3513   6.3945   6.4670
     6.5761   6.7015   6.7497   6.7516   6.7681   6.7738   6.7852   6.8000
     6.8454   6.8574   6.8667   6.8678   6.8786   6.9898   7.0433   7.0520
     7.0743   7.1093   7.1467   7.1566   7.1839   7.2061   7.2411   7.2534
[...]
     8.9362   8.9362   8.9363   8.9363   8.9363   8.9363   8.9363   8.9363
     8.9709   8.9709   8.9709   8.9709   8.9709   8.9709   8.9709   8.9709
     8.9844   8.9844   8.9844   8.9844   9.2072   9.2072   9.2072   9.2072
     9.5532   9.5532   9.5532   9.5532   9.5532   9.5532   9.5532   9.5532
     9.5590   9.5590   9.5590   9.5590   9.6945   9.6945   9.6945   9.6945
     9.8127   9.8127   9.8127   9.8127  10.0224  10.0224  10.0224  10.0224
    10.1522  10.1522  10.1522  10.1522  10.1522  10.1522  10.1522  10.1522
    10.4471  10.4471  10.4471  10.4471  10.4972  10.4972  10.4972  10.4972
    10.4972  10.4972  10.4972  10.4972  10.5155  10.5155  10.5155  10.5155
    11.2613  11.2613  11.2613  11.2613  13.7471  13.7471  13.7471  13.7471
    13.7471  13.7471  13.7471  13.7471  13.7926  13.7926  13.7926  13.7926
    14.8844  14.8844  14.8844  14.8844  14.8844  14.8844  14.8844  14.8845
    15.5904  15.5904  15.5904  15.5904  16.8694  16.8694  16.8694  16.8694
    16.8694  16.8694  16.8694  16.8694  18.6697  18.6697  18.6697  18.6697
    19.1013  19.1013  19.1013  19.1013  19.4526  19.4526  19.4526  19.4526
    19.4526  19.4526

          k =-0.5000-0.5000 0.1778 ( 51596 PWs)   bands (ev):

   -73.6686 -73.6686 -73.6686 -73.6686 -73.6456 -73.6456 -73.6456 -73.6456
   -73.6408 -73.6408 -73.6408 -73.6408 -73.6408 -73.6408 -73.6408 -73.6408
   -73.0808 -73.0808 -73.0808 -73.0808 -73.0808 -73.0808 -73.0808 -73.0808
   -73.0648 -73.0648 -73.0648 -73.0648 -73.0648 -73.0648 -73.0648 -73.0648
   -39.4946 -39.4946 -39.4946 -39.4946 -39.4945 -39.4945 -39.4945 -39.4945
   -39.4838 -39.4838 -39.4838 -39.4838 -39.4311 -39.4311 -39.4311 -39.4311
   -39.3710 -39.3710 -39.3710 -39.3710 -39.3710 -39.3710 -39.3710 -39.3709
   -39.3286 -39.3286 -39.3286 -39.3286 -39.3270 -39.3270 -39.3270 -39.3270
   -39.3270 -39.3270 -39.3270 -39.3270 -39.3071 -39.3071 -39.3071 -39.3071
   -39.2850 -39.2850 -39.2850 -39.2850 -39.2348 -39.2348 -39.2348 -39.2348
   -38.9552 -38.9552 -38.9552 -38.9552 -38.9551 -38.9551 -38.9551 -38.9551
   -38.8720 -38.8720 -38.8720 -38.8720 -38.8693 -38.8693 -38.8693 -38.8693
   -38.8575 -38.8575 -38.8575 -38.8575 -38.8575 -38.8575 -38.8575 -38.8575
   -38.7691 -38.7691 -38.7691 -38.7691 -38.7689 -38.7689 -38.7689 -38.7689
   -38.6827 -38.6827 -38.6827 -38.6827 -38.6820 -38.6819 -38.6819 -38.6819
   -38.6707 -38.6707 -38.6707 -38.6707 -38.6707 -38.6707 -38.6707 -38.6707
     5.2343   5.2343   5.2343   5.2343   5.8593   5.8593   5.8593   5.8593
     6.1866   6.1866   6.1866   6.1866   6.1866   6.1866   6.1866   6.1866
     6.2966   6.2966   6.2966   6.2966   6.3575   6.3575   6.3575   6.3575
     6.3575   6.3575   6.3575   6.3576   6.4451   6.4451   6.4451   6.4451
     6.7368   6.7368   6.7368   6.7368   7.0519   7.0519   7.0519   7.0519
     7.0519   7.0519   7.0519   7.0519   7.3608   7.3608   7.3608   7.3608
     7.3608   7.3608   7.3608   7.3608   7.5326   7.5326   7.5326   7.5327
     7.7653   7.7653   7.7653   7.7653   8.0236   8.0236   8.0236   8.0236
     8.1352   8.1352   8.1352   8.1352   8.1422   8.1422   8.1422   8.1422
     8.2245   8.2245   8.2245   8.2245   8.3381   8.3381   8.3381   8.3381
     8.3381   8.3381   8.3381   8.3381   8.3642   8.3642   8.3642   8.3642
     8.6811   8.6811   8.6811   8.6811   8.8117   8.8117   8.8117   8.8117
     8.9363   8.9363   8.9363   8.9363   8.9363   8.9363   8.9363   8.9363
     8.9712   8.9712   8.9712   8.9712   8.9712   8.9712   8.9712   8.9712
     8.9844   8.9844   8.9844   8.9844   9.2072   9.2072   9.2072   9.2072
     9.5521   9.5521   9.5521   9.5521   9.5521   9.5521   9.5521   9.5521
     9.5611   9.5611   9.5611   9.5611   9.6801   9.6801   9.6801   9.6801
     9.8127   9.8127   9.8127   9.8127  10.0224  10.0224  10.0224  10.0224
    10.1529  10.1529  10.1529  10.1529  10.1529  10.1529  10.1529  10.1529
    10.4471  10.4471  10.4471  10.4471  10.4973  10.4973  10.4973  10.4973
    10.4973  10.4973  10.4973  10.4973  10.5155  10.5155  10.5155  10.5155
    11.3044  11.3044  11.3044  11.3044  13.6428  13.6428  13.6428  13.6428
    13.7487  13.7487  13.7487  13.7488  13.7488  13.7488  13.7488  13.7488
    14.8778  14.8778  14.8778  14.8778  14.8778  14.8778  14.8778  14.8778
    15.8732  15.8732  15.8732  15.8732  16.8925  16.8925  16.8925  16.8925
    16.8925  16.8925  16.8925  16.8925  18.3011  18.3011  18.3011  18.3011
    19.1052  19.1052  19.1052  19.1052  19.3112  19.3112  19.3112  19.3113
    19.3113  19.3113

          k =-0.5000-0.5000 0.2489 ( 51540 PWs)   bands (ev):

   -73.6686 -73.6686 -73.6686 -73.6686 -73.6456 -73.6456 -73.6456 -73.6456
   -73.6408 -73.6408 -73.6408 -73.6408 -73.6408 -73.6408 -73.6408 -73.6408
   -73.0808 -73.0808 -73.0808 -73.0808 -73.0808 -73.0808 -73.0808 -73.0808
   -73.0648 -73.0648 -73.0648 -73.0648 -73.0648 -73.0648 -73.0648 -73.0648
   -39.4946 -39.4946 -39.4946 -39.4946 -39.4945 -39.4945 -39.4945 -39.4945
   -39.4837 -39.4837 -39.4837 -39.4837 -39.4311 -39.4311 -39.4311 -39.4311
   -39.3710 -39.3710 -39.3710 -39.3710 -39.3710 -39.3710 -39.3710 -39.3710
   -39.3286 -39.3286 -39.3286 -39.3286 -39.3270 -39.3270 -39.3270 -39.3270
   -39.3270 -39.3270 -39.3270 -39.3270 -39.3070 -39.3070 -39.3070 -39.3070
   -39.2849 -39.2849 -39.2849 -39.2849 -39.2348 -39.2348 -39.2348 -39.2348
   -38.9552 -38.9552 -38.9552 -38.9552 -38.9551 -38.9551 -38.9551 -38.9551
   -38.8720 -38.8720 -38.8720 -38.8720 -38.8693 -38.8693 -38.8693 -38.8693
   -38.8576 -38.8576 -38.8576 -38.8576 -38.8575 -38.8575 -38.8575 -38.8575
   -38.7691 -38.7691 -38.7691 -38.7691 -38.7689 -38.7689 -38.7689 -38.7689
   -38.6827 -38.6827 -38.6827 -38.6827 -38.6819 -38.6819 -38.6819 -38.6819
   -38.6707 -38.6707 -38.6707 -38.6707 -38.6707 -38.6707 -38.6707 -38.6707
     5.2343   5.2344   5.2344   5.2344   5.8592   5.8592   5.8592   5.8592
     6.1866   6.1866   6.1866   6.1866   6.1866   6.1866   6.1866   6.1866
     6.2963   6.2963   6.2963   6.2963   6.3575   6.3575   6.3575   6.3575
     6.3575   6.3575   6.3575   6.3575   6.4455   6.4455   6.4455   6.4455
     6.7367   6.7367   6.7367   6.7367   7.0520   7.0520   7.0520   7.0520
     7.0520   7.0520   7.0520   7.0520   7.3608   7.3608   7.3608   7.3608
     7.3608   7.3608   7.3608   7.3608   7.5328   7.5329   7.5329   7.5329
     7.7652   7.7652   7.7652   7.7652   8.0237   8.0237   8.0237   8.0237
     8.1352   8.1352   8.1352   8.1352   8.1418   8.1418   8.1418   8.1418
     8.2258   8.2258   8.2258   8.2258   8.3380   8.3380   8.3380   8.3380
     8.3381   8.3381   8.3381   8.3381   8.3642   8.3642   8.3642   8.3642
     8.6800   8.6800   8.6800   8.6800   8.8129   8.8129   8.8129   8.8129
     8.9363   8.9363   8.9363   8.9363   8.9363   8.9363   8.9363   8.9363
     8.9714   8.9714   8.9714   8.9714   8.9714   8.9714   8.9714   8.9714
     8.9844   8.9844   8.9844   8.9844   9.2072   9.2072   9.2072   9.2072
     9.5511   9.5511   9.5511   9.5511   9.5512   9.5512   9.5512   9.5512
     9.5635   9.5635   9.5635   9.5635   9.6673   9.6673   9.6673   9.6673
     9.8127   9.8127   9.8127   9.8127  10.0224  10.0224  10.0224  10.0224
    10.1536  10.1536  10.1536  10.1536  10.1536  10.1536  10.1536  10.1536
    10.4471  10.4471  10.4471  10.4471  10.4974  10.4974  10.4974  10.4974
    10.4974  10.4974  10.4974  10.4974  10.5155  10.5155  10.5155  10.5155
    11.3438  11.3438  11.3438  11.3438  13.5265  13.5265  13.5265  13.5265
    13.7502  13.7502  13.7502  13.7502  13.7502  13.7502  13.7502  13.7502
    14.8720  14.8720  14.8720  14.8720  14.8720  14.8720  14.8720  14.8720
    16.1502  16.1502  16.1502  16.1503  16.9134  16.9134  16.9134  16.9134
    16.9134  16.9134  16.9134  16.9134  17.9640  17.9640  17.9640  17.9640
    19.1083  19.1083  19.1083  19.1083  19.2084  19.2084  19.2084  19.2085
    19.2085  19.2085

          k =-0.5000-0.5000-0.3200 ( 51624 PWs)   bands (ev):

   -73.6686 -73.6686 -73.6686 -73.6686 -73.6456 -73.6456 -73.6456 -73.6456
   -73.6408 -73.6408 -73.6408 -73.6408 -73.6408 -73.6408 -73.6408 -73.6408
   -73.0808 -73.0808 -73.0808 -73.0808 -73.0808 -73.0808 -73.0808 -73.0808
   -73.0648 -73.0648 -73.0648 -73.0648 -73.0648 -73.0648 -73.0648 -73.0648
   -39.4946 -39.4946 -39.4946 -39.4946 -39.4945 -39.4945 -39.4945 -39.4945
   -39.4838 -39.4838 -39.4838 -39.4837 -39.4311 -39.4311 -39.4311 -39.4311
   -39.3710 -39.3710 -39.3710 -39.3710 -39.3710 -39.3710 -39.3710 -39.3710
   -39.3286 -39.3286 -39.3286 -39.3286 -39.3270 -39.3270 -39.3270 -39.3270
   -39.3270 -39.3270 -39.3270 -39.3270 -39.3071 -39.3071 -39.3071 -39.3071
   -39.2850 -39.2850 -39.2850 -39.2850 -39.2348 -39.2348 -39.2348 -39.2348
   -38.9552 -38.9552 -38.9552 -38.9552 -38.9552 -38.9552 -38.9552 -38.9551
   -38.8720 -38.8720 -38.8720 -38.8720 -38.8694 -38.8694 -38.8693 -38.8693
   -38.8576 -38.8576 -38.8576 -38.8576 -38.8575 -38.8575 -38.8575 -38.8575
   -38.7691 -38.7691 -38.7691 -38.7691 -38.7689 -38.7689 -38.7689 -38.7689
   -38.6827 -38.6827 -38.6827 -38.6827 -38.6819 -38.6819 -38.6819 -38.6819
   -38.6707 -38.6707 -38.6707 -38.6707 -38.6707 -38.6707 -38.6707 -38.6707
     5.2344   5.2344   5.2344   5.2344   5.8591   5.8591   5.8591   5.8591
     6.1866   6.1866   6.1866   6.1866   6.1866   6.1866   6.1866   6.1866
     6.2962   6.2962   6.2962   6.2962   6.3575   6.3575   6.3575   6.3575
     6.3575   6.3575   6.3575   6.3575   6.4457   6.4457   6.4457   6.4457
     6.7367   6.7367   6.7367   6.7367   7.0520   7.0520   7.0520   7.0520
     7.0520   7.0521   7.0521   7.0521   7.3607   7.3607   7.3607   7.3607
     7.3608   7.3608   7.3608   7.3608   7.5329   7.5329   7.5329   7.5329
     7.7652   7.7652   7.7652   7.7652   8.0237   8.0237   8.0237   8.0237
     8.1352   8.1352   8.1352   8.1352   8.1416   8.1416   8.1416   8.1416
     8.2262   8.2262   8.2262   8.2262   8.3380   8.3380   8.3380   8.3380
     8.3380   8.3380   8.3380   8.3380   8.3642   8.3642   8.3642   8.3642
     8.6796   8.6796   8.6796   8.6796   8.8134   8.8134   8.8134   8.8134
     8.9363   8.9363   8.9363   8.9363   8.9363   8.9363   8.9363   8.9363
     8.9715   8.9715   8.9715   8.9715   8.9715   8.9715   8.9715   8.9715
     8.9844   8.9844   8.9844   8.9844   9.2072   9.2072   9.2072   9.2072
     9.5508   9.5508   9.5508   9.5508   9.5508   9.5508   9.5508   9.5508
     9.5646   9.5646   9.5646   9.5646   9.6622   9.6622   9.6622   9.6622
     9.8127   9.8127   9.8127   9.8127  10.0224  10.0224  10.0224  10.0224
    10.1538  10.1538  10.1538  10.1538  10.1538  10.1538  10.1538  10.1538
    10.4471  10.4471  10.4471  10.4471  10.4974  10.4974  10.4974  10.4974
    10.4974  10.4974  10.4974  10.4974  10.5155  10.5155  10.5155  10.5155
    11.3598  11.3598  11.3598  11.3598  13.4831  13.4831  13.4831  13.4832
    13.7508  13.7508  13.7508  13.7508  13.7508  13.7508  13.7508  13.7508
    14.8697  14.8697  14.8697  14.8697  14.8697  14.8697  14.8697  14.8697
    16.2784  16.2784  16.2784  16.2784  16.9218  16.9218  16.9218  16.9218
    16.9218  16.9218  16.9218  16.9218  17.8147  17.8148  17.8148  17.8148
    19.1095  19.1095  19.1095  19.1096  19.1714  19.1714  19.1714  19.1715
    19.1715  19.1715

     the Fermi energy is    10.5114 ev

!    total energy              =  -16384.05319258 Ry

     total all-electron energy =   -322944.906900 Ry
     estimated scf accuracy    <          4.8E-09 Ry
     smearing contrib. (-TS)   =       0.12007922 Ry
     internal energy E=F+TS    =  -16384.17327180 Ry

     The total energy is F=E-TS. E is the sum of the following terms:
     one-electron contribution =  -12958.84097838 Ry
     hartree contribution      =    6716.28906732 Ry
     xc contribution           =    -985.50265133 Ry
     ewald contribution        =    -988.78194198 Ry
     one-center paw contrib.   =   -8167.33676743 Ry

     convergence has been achieved in  10 iterations

     Forces acting on atoms (cartesian axes, Ry/au):

     atom    1 type  1   force =     0.00000000    0.00000000   -0.00012377
     atom    2 type  1   force =     0.00000180    0.00000180   -0.00012845
     atom    3 type  1   force =    -0.00000057    0.00000000    0.00011796
     atom    4 type  1   force =     0.00000000   -0.00000057    0.00011796
     atom    5 type  1   force =     0.00000000    0.00000000   -0.00009264
     atom    6 type  1   force =     0.00000109    0.00000109   -0.00008812
     atom    7 type  1   force =     0.00000392    0.00000000    0.00009842
     atom    8 type  1   force =     0.00000000    0.00000392    0.00009842
     atom    9 type  1   force =     0.00000000    0.00000000   -0.00012636
     atom   10 type  1   force =     0.00000180   -0.00000180   -0.00012845
     atom   11 type  1   force =     0.00000077    0.00000000    0.00011650
     atom   12 type  1   force =     0.00000000    0.00000057    0.00011796
     atom   13 type  1   force =     0.00000000    0.00000000   -0.00008759
     atom   14 type  1   force =     0.00000109   -0.00000109   -0.00008812
     atom   15 type  1   force =     0.00000439    0.00000000    0.00009785
     atom   16 type  1   force =     0.00000000   -0.00000392    0.00009842
     atom   17 type  1   force =     0.00000000    0.00000000   -0.00012636
     atom   18 type  1   force =    -0.00000180    0.00000180   -0.00012845
     atom   19 type  1   force =     0.00000057    0.00000000    0.00011796
     atom   20 type  1   force =     0.00000000    0.00000077    0.00011650
     atom   21 type  1   force =     0.00000000    0.00000000   -0.00008759
     atom   22 type  1   force =    -0.00000109    0.00000109   -0.00008812
     atom   23 type  1   force =    -0.00000392    0.00000000    0.00009842
     atom   24 type  1   force =     0.00000000    0.00000439    0.00009785
     atom   25 type  1   force =     0.00000000    0.00000000   -0.00012971
     atom   26 type  1   force =    -0.00000180   -0.00000180   -0.00012845
     atom   27 type  1   force =    -0.00000077    0.00000000    0.00011650
     atom   28 type  1   force =     0.00000000   -0.00000077    0.00011650
     atom   29 type  1   force =     0.00000000    0.00000000   -0.00008264
     atom   30 type  1   force =    -0.00000109   -0.00000109   -0.00008812
     atom   31 type  1   force =    -0.00000439    0.00000000    0.00009785
     atom   32 type  1   force =     0.00000000   -0.00000439    0.00009785

     Total force =     0.000616     Total SCF correction =     0.000415
     SCF correction compared to forces is large: reduce conv_thr to get better values


     Computing stress (Cartesian axis) and pressure

          total   stress  (Ry/bohr**3)                   (kbar)     P=      -29.09
  -0.00026382   0.00000000   0.00000000          -38.81        0.00        0.00
   0.00000000  -0.00026382   0.00000000            0.00      -38.81        0.00
   0.00000000   0.00000000  -0.00006563            0.00        0.00       -9.65

     Energy error            =      1.2E-05
     Gradient error          =      1.3E-04

     bfgs converged in   9 scf cycles and   8 bfgs steps
     (criteria: energy <  1.0E-04 Ry, force <  1.0E-03 Ry/Bohr)

     End of BFGS Geometry Optimization

     Final energy   =  -16384.0531925787 Ry

     File /scratch/YpUETEwtnpJyXVWy.bfgs deleted, as requested
Begin final coordinates

ATOMIC_POSITIONS (crystal)
Pd            0.0000000000        0.0000000000       -0.0001211903
Pd            0.2499997243        0.2499997243       -0.0001206205
Pd            0.2500003964        0.0000000000        0.1581294577
Pd            0.0000000000        0.2500003964        0.1581294577
Pd            0.0000000000        0.0000000000        0.6818708901
Pd            0.2499997926        0.2499997926        0.6818701607
Pd            0.2499991462        0.0000000000        0.8401212718
Pd            0.0000000000        0.2499991462        0.8401212718
Pd            0.0000000000        0.5000000000       -0.0001212372
Pd            0.2499997243        0.7500002757       -0.0001206205
Pd            0.2499997147        0.5000000000        0.1581296962
Pd            0.0000000000        0.7499996036        0.1581294577
Pd            0.0000000000        0.5000000000        0.6818697619
Pd            0.2499997926        0.7500002074        0.6818701607
Pd            0.2499991124        0.5000000000        0.8401213006
Pd            0.0000000000        0.7500008538        0.8401212718
Pd            0.5000000000        0.0000000000       -0.0001212372
Pd            0.7500002757        0.2499997243       -0.0001206205
Pd            0.7499996036        0.0000000000        0.1581294577
Pd            0.5000000000        0.2499997147        0.1581296962
Pd            0.5000000000        0.0000000000        0.6818697619
Pd            0.7500002074        0.2499997926        0.6818701607
Pd            0.7500008538        0.0000000000        0.8401212718
Pd            0.5000000000        0.2499991124        0.8401213006
Pd            0.5000000000        0.5000000000       -0.0001205881
Pd            0.7500002757        0.7500002757       -0.0001206205
Pd            0.7500002853        0.5000000000        0.1581296962
Pd            0.5000000000        0.7500002853        0.1581296962
Pd            0.5000000000        0.5000000000        0.6818687729
Pd            0.7500002074        0.7500002074        0.6818701607
Pd            0.7500008876        0.5000000000        0.8401213006
Pd            0.5000000000        0.7500008876        0.8401213006
End final coordinates



     Writing output data file /scratch/YpUETEwtnpJyXVWy.save/
 
     init_run     :     27.29s CPU     27.93s WALL (       1 calls)
     electrons    :  10790.54s CPU  10898.97s WALL (       9 calls)
     update_pot   :      2.19s CPU      2.27s WALL (       8 calls)
     forces       :    137.38s CPU    138.37s WALL (       9 calls)
     stress       :   1367.56s CPU   1376.11s WALL (       9 calls)

     Called by init_run:
     wfcinit      :     26.63s CPU     27.16s WALL (       1 calls)
     potinit      :      0.17s CPU      0.20s WALL (       1 calls)
     hinit0       :      0.16s CPU      0.17s WALL (       1 calls)

     Called by electrons:
     c_bands      :   9593.91s CPU   9683.15s WALL (     118 calls)
     sum_band     :   1179.81s CPU   1195.75s WALL (     118 calls)
     v_of_rho     :      2.52s CPU      2.69s WALL (     118 calls)
     newd         :      4.25s CPU      6.19s WALL (     118 calls)
     PAW_pot      :     10.37s CPU     11.03s WALL (     126 calls)
     mix_rho      :      0.71s CPU      0.79s WALL (     118 calls)

     Called by c_bands:
     init_us_2    :     62.89s CPU     63.50s WALL (   19725 calls)
     cegterg      :   9362.51s CPU   9449.27s WALL (    8850 calls)

     Called by *egterg:
     cdiaghg      :    843.21s CPU    847.36s WALL (   29448 calls)
     h_psi        :   4629.46s CPU   4688.53s WALL (   30798 calls)
     s_psi        :    502.53s CPU    505.52s WALL (   30798 calls)
     g_psi        :     16.83s CPU     17.14s WALL (   21873 calls)

     Called by h_psi:
     h_psi:calbec :    764.93s CPU    769.82s WALL (   30798 calls)
     vloc_psi     :   3326.55s CPU   3375.47s WALL (   30798 calls)
     add_vuspsi   :    498.05s CPU    502.98s WALL (   30798 calls)

     General routines
     calbec       :   1382.43s CPU   1390.89s WALL (   43623 calls)
     fft          :      2.66s CPU      2.77s WALL (    1758 calls)
     ffts         :      0.17s CPU      0.19s WALL (     236 calls)
     fftw         :   3940.00s CPU   3997.25s WALL (16866978 calls)
     interpolate  :      0.36s CPU      0.39s WALL (     118 calls)
 
     Parallel routines
     fft_scatt_xy :    294.78s CPU    299.34s WALL (16868972 calls)
     fft_scatt_yz :   3058.06s CPU   3102.35s WALL (16868972 calls)
 
     PWSCF        :      3h26m CPU      3h28m WALL

 
   This run was terminated on:  16: 4:56   7Jan2022            

=------------------------------------------------------------------------------=
   JOB DONE.
=------------------------------------------------------------------------------=
