
     Program PWSCF v.6.7MaX starts on  8Jan2022 at 13: 7:58 

     This program is part of the open-source Quantum ESPRESSO suite
     for quantum simulation of materials; please cite
         "P. Giannozzi et al., J. Phys.:Condens. Matter 21 395502 (2009);
         "P. Giannozzi et al., J. Phys.:Condens. Matter 29 465901 (2017);
          URL http://www.quantum-espresso.org", 
     in publications or presentations arising from this work. More details at
     http://www.quantum-espresso.org/quote

     Parallel version (MPI & OpenMP), running on      72 processor cores
     Number of MPI processes:                72
     Threads/MPI process:                     1

     MPI processes distributed on     1 nodes
     R & G space division:  proc/nbgrp/npool/nimage =      72
     Reading input from relax_23.in
Warning: card &CELL ignored
Warning: card CELL_DYNAMICS = 'BFGS', ignored
Warning: card CELL_FACTOR = 2.0, ignored
Warning: card PRESS = 0.0, ignored
Warning: card / ignored

     Current dimensions of program PWSCF are:
     Max number of different atomic species (ntypx) = 10
     Max number of k-points (npk) =  40000
     Max angular momentum in pseudopotentials (lmaxx) =  3
     file Pd.pbe-spn-kjpaw_psl.1.0.0.UPF: wavefunction(s)  4S 5S 4D renormalized

     Subspace diagonalization in iterative solution of the eigenvalue problem:
     one sub-group per band group will be used
     ELPA distributed-memory algorithm (size of sub-group:  8*  8 procs)

     Found symmetry operation: I + (  0.2500  0.2500  0.0000)
     This is a supercell, fractional translations are disabled
     Message from routine setup:
     using ibrav=0 with symmetry is DISCOURAGED, use correct ibrav instead
 
     Parallelization info
     --------------------
     sticks:   dense  smooth     PW     G-vecs:    dense   smooth      PW
     Min         104      68     18                11524     6178     862
     Max         105      69     19                11535     6193     873
     Sum        7521    4957   1353               830085   445579   62405
 


     bravais-lattice index     =            0
     lattice parameter (alat)  =      14.8394  a.u.
     unit-cell volume          =    5514.3530 (a.u.)^3
     number of atoms/cell      =           32
     number of atomic types    =            1
     number of electrons       =       576.00
     number of Kohn-Sham states=          346
     kinetic-energy cutoff     =      71.0000  Ry
     charge density cutoff     =     430.0000  Ry
     scf convergence threshold =      1.0E-06
     mixing beta               =       0.1000
     number of iterations used =           10  TF        mixing
     energy convergence thresh.=      1.0E-04
     force convergence thresh. =      1.0E-03
     Exchange-correlation= SLA  PW   PBX  PBC
                           (   1   4   3   4   0   0   0)
     nstep                     =           40


     celldm(1)=  14.839420  celldm(2)=   0.000000  celldm(3)=   0.000000
     celldm(4)=   0.000000  celldm(5)=   0.000000  celldm(6)=   0.000000

     crystal axes: (cart. coord. in units of alat)
               a(1) = (   1.000000   0.000000   0.000000 )  
               a(2) = (   0.000000   1.000000   0.000000 )  
               a(3) = (   0.000000   0.000000   1.687500 )  

     reciprocal axes: (cart. coord. in units 2 pi/alat)
               b(1) = (  1.000000  0.000000  0.000000 )  
               b(2) = (  0.000000  1.000000  0.000000 )  
               b(3) = (  0.000000  0.000000  0.592593 )  


     PseudoPot. # 1 for Pd read from file:
     /rds/homes/b/bxp912/pp/Pd.pbe-spn-kjpaw_psl.1.0.0.UPF
     MD5 check sum: 790f2ebce206edfd9790dcb9844eca51
     Pseudo is Projector augmented-wave + core cor, Zval = 18.0
     Generated using &quot;atomic&quot; code by A. Dal Corso  v.6.3
     Shape of augmentation charge: PSQ
     Using radial grid of 1235 points,  6 beta functions with: 
                l(1) =   0
                l(2) =   0
                l(3) =   1
                l(4) =   1
                l(5) =   2
                l(6) =   2
     Q(r) pseudized with 0 coefficients 


     atomic species   valence    mass     pseudopotential
        Pd            18.00   106.42000     Pd( 1.00)

      8 Sym. Ops. (no inversion) found



   Cartesian axes

     site n.     atom                  positions (alat units)
         1           Pd  tau(   1) = (   0.0000000   0.0000000   0.0000000  )
         2           Pd  tau(   2) = (   0.2500000   0.2500000   0.0000000  )
         3           Pd  tau(   3) = (   0.2500000   0.0000000   0.2500000  )
         4           Pd  tau(   4) = (   0.0000000   0.2500000   0.2500000  )
         5           Pd  tau(   5) = (   0.0000000   0.0000000   1.1875000  )
         6           Pd  tau(   6) = (   0.2500000   0.2500000   1.1875000  )
         7           Pd  tau(   7) = (   0.2500000   0.0000000   1.4375000  )
         8           Pd  tau(   8) = (   0.0000000   0.2500000   1.4375000  )
         9           Pd  tau(   9) = (   0.0000000   0.5000000   0.0000000  )
        10           Pd  tau(  10) = (   0.2500000   0.7500000   0.0000000  )
        11           Pd  tau(  11) = (   0.2500000   0.5000000   0.2500000  )
        12           Pd  tau(  12) = (   0.0000000   0.7500000   0.2500000  )
        13           Pd  tau(  13) = (   0.0000000   0.5000000   1.1875000  )
        14           Pd  tau(  14) = (   0.2500000   0.7500000   1.1875000  )
        15           Pd  tau(  15) = (   0.2500000   0.5000000   1.4375000  )
        16           Pd  tau(  16) = (   0.0000000   0.7500000   1.4375000  )
        17           Pd  tau(  17) = (   0.5000000   0.0000000   0.0000000  )
        18           Pd  tau(  18) = (   0.7500000   0.2500000   0.0000000  )
        19           Pd  tau(  19) = (   0.7500000   0.0000000   0.2500000  )
        20           Pd  tau(  20) = (   0.5000000   0.2500000   0.2500000  )
        21           Pd  tau(  21) = (   0.5000000   0.0000000   1.1875000  )
        22           Pd  tau(  22) = (   0.7500000   0.2500000   1.1875000  )
        23           Pd  tau(  23) = (   0.7500000   0.0000000   1.4375000  )
        24           Pd  tau(  24) = (   0.5000000   0.2500000   1.4375000  )
        25           Pd  tau(  25) = (   0.5000000   0.5000000   0.0000000  )
        26           Pd  tau(  26) = (   0.7500000   0.7500000   0.0000000  )
        27           Pd  tau(  27) = (   0.7500000   0.5000000   0.2500000  )
        28           Pd  tau(  28) = (   0.5000000   0.7500000   0.2500000  )
        29           Pd  tau(  29) = (   0.5000000   0.5000000   1.1875000  )
        30           Pd  tau(  30) = (   0.7500000   0.7500000   1.1875000  )
        31           Pd  tau(  31) = (   0.7500000   0.5000000   1.4375000  )
        32           Pd  tau(  32) = (   0.5000000   0.7500000   1.4375000  )

     number of k points=    75  Marzari-Vanderbilt smearing, width (Ry)=  0.0400
                       cart. coord. in units 2pi/alat
        k(    1) = (   0.0555556   0.0555556   0.0329218), wk =   0.0219479
        k(    2) = (   0.0555556   0.0555556   0.0987654), wk =   0.0219479
        k(    3) = (   0.0555556   0.0555556   0.1646091), wk =   0.0219479
        k(    4) = (   0.0555556   0.0555556   0.2304527), wk =   0.0219479
        k(    5) = (   0.0555556   0.0555556  -0.2962963), wk =   0.0109739
        k(    6) = (   0.0555556   0.1666667   0.0329218), wk =   0.0438957
        k(    7) = (   0.0555556   0.1666667   0.0987654), wk =   0.0438957
        k(    8) = (   0.0555556   0.1666667   0.1646091), wk =   0.0438957
        k(    9) = (   0.0555556   0.1666667   0.2304527), wk =   0.0438957
        k(   10) = (   0.0555556   0.1666667  -0.2962963), wk =   0.0219479
        k(   11) = (   0.0555556   0.2777778   0.0329218), wk =   0.0438957
        k(   12) = (   0.0555556   0.2777778   0.0987654), wk =   0.0438957
        k(   13) = (   0.0555556   0.2777778   0.1646091), wk =   0.0438957
        k(   14) = (   0.0555556   0.2777778   0.2304527), wk =   0.0438957
        k(   15) = (   0.0555556   0.2777778  -0.2962963), wk =   0.0219479
        k(   16) = (   0.0555556   0.3888889   0.0329218), wk =   0.0438957
        k(   17) = (   0.0555556   0.3888889   0.0987654), wk =   0.0438957
        k(   18) = (   0.0555556   0.3888889   0.1646091), wk =   0.0438957
        k(   19) = (   0.0555556   0.3888889   0.2304527), wk =   0.0438957
        k(   20) = (   0.0555556   0.3888889  -0.2962963), wk =   0.0219479
        k(   21) = (   0.0555556  -0.5000000   0.0329218), wk =   0.0219479
        k(   22) = (   0.0555556  -0.5000000   0.0987654), wk =   0.0219479
        k(   23) = (   0.0555556  -0.5000000   0.1646091), wk =   0.0219479
        k(   24) = (   0.0555556  -0.5000000   0.2304527), wk =   0.0219479
        k(   25) = (   0.0555556  -0.5000000  -0.2962963), wk =   0.0109739
        k(   26) = (   0.1666667   0.1666667   0.0329218), wk =   0.0219479
        k(   27) = (   0.1666667   0.1666667   0.0987654), wk =   0.0219479
        k(   28) = (   0.1666667   0.1666667   0.1646091), wk =   0.0219479
        k(   29) = (   0.1666667   0.1666667   0.2304527), wk =   0.0219479
        k(   30) = (   0.1666667   0.1666667  -0.2962963), wk =   0.0109739
        k(   31) = (   0.1666667   0.2777778   0.0329218), wk =   0.0438957
        k(   32) = (   0.1666667   0.2777778   0.0987654), wk =   0.0438957
        k(   33) = (   0.1666667   0.2777778   0.1646091), wk =   0.0438957
        k(   34) = (   0.1666667   0.2777778   0.2304527), wk =   0.0438957
        k(   35) = (   0.1666667   0.2777778  -0.2962963), wk =   0.0219479
        k(   36) = (   0.1666667   0.3888889   0.0329218), wk =   0.0438957
        k(   37) = (   0.1666667   0.3888889   0.0987654), wk =   0.0438957
        k(   38) = (   0.1666667   0.3888889   0.1646091), wk =   0.0438957
        k(   39) = (   0.1666667   0.3888889   0.2304527), wk =   0.0438957
        k(   40) = (   0.1666667   0.3888889  -0.2962963), wk =   0.0219479
        k(   41) = (   0.1666667  -0.5000000   0.0329218), wk =   0.0219479
        k(   42) = (   0.1666667  -0.5000000   0.0987654), wk =   0.0219479
        k(   43) = (   0.1666667  -0.5000000   0.1646091), wk =   0.0219479
        k(   44) = (   0.1666667  -0.5000000   0.2304527), wk =   0.0219479
        k(   45) = (   0.1666667  -0.5000000  -0.2962963), wk =   0.0109739
        k(   46) = (   0.2777778   0.2777778   0.0329218), wk =   0.0219479
        k(   47) = (   0.2777778   0.2777778   0.0987654), wk =   0.0219479
        k(   48) = (   0.2777778   0.2777778   0.1646091), wk =   0.0219479
        k(   49) = (   0.2777778   0.2777778   0.2304527), wk =   0.0219479
        k(   50) = (   0.2777778   0.2777778  -0.2962963), wk =   0.0109739
        k(   51) = (   0.2777778   0.3888889   0.0329218), wk =   0.0438957
        k(   52) = (   0.2777778   0.3888889   0.0987654), wk =   0.0438957
        k(   53) = (   0.2777778   0.3888889   0.1646091), wk =   0.0438957
        k(   54) = (   0.2777778   0.3888889   0.2304527), wk =   0.0438957
        k(   55) = (   0.2777778   0.3888889  -0.2962963), wk =   0.0219479
        k(   56) = (   0.2777778  -0.5000000   0.0329218), wk =   0.0219479
        k(   57) = (   0.2777778  -0.5000000   0.0987654), wk =   0.0219479
        k(   58) = (   0.2777778  -0.5000000   0.1646091), wk =   0.0219479
        k(   59) = (   0.2777778  -0.5000000   0.2304527), wk =   0.0219479
        k(   60) = (   0.2777778  -0.5000000  -0.2962963), wk =   0.0109739
        k(   61) = (   0.3888889   0.3888889   0.0329218), wk =   0.0219479
        k(   62) = (   0.3888889   0.3888889   0.0987654), wk =   0.0219479
        k(   63) = (   0.3888889   0.3888889   0.1646091), wk =   0.0219479
        k(   64) = (   0.3888889   0.3888889   0.2304527), wk =   0.0219479
        k(   65) = (   0.3888889   0.3888889  -0.2962963), wk =   0.0109739
        k(   66) = (   0.3888889  -0.5000000   0.0329218), wk =   0.0219479
        k(   67) = (   0.3888889  -0.5000000   0.0987654), wk =   0.0219479
        k(   68) = (   0.3888889  -0.5000000   0.1646091), wk =   0.0219479
        k(   69) = (   0.3888889  -0.5000000   0.2304527), wk =   0.0219479
        k(   70) = (   0.3888889  -0.5000000  -0.2962963), wk =   0.0109739
        k(   71) = (  -0.5000000  -0.5000000   0.0329218), wk =   0.0054870
        k(   72) = (  -0.5000000  -0.5000000   0.0987654), wk =   0.0054870
        k(   73) = (  -0.5000000  -0.5000000   0.1646091), wk =   0.0054870
        k(   74) = (  -0.5000000  -0.5000000   0.2304527), wk =   0.0054870
        k(   75) = (  -0.5000000  -0.5000000  -0.2962963), wk =   0.0027435

     Dense  grid:   830085 G-vectors     FFT dimensions: ( 100, 100, 180)

     Smooth grid:   445579 G-vectors     FFT dimensions: (  80,  80, 135)

     Estimated max dynamical RAM per process >     375.64 MB

     Estimated total dynamical RAM >      26.41 GB

     Check: negative core charge=   -0.000001

     Initial potential from superposition of free atoms

     starting charge  575.98776, renormalised to  576.00000
     Starting wfcs are  320 randomized atomic wfcs +   26 random wfcs
     Checking if some PAW data can be deallocated... 

     total cpu time spent up to now is       31.3 secs

     Self-consistent Calculation

     iteration #  1     ecut=    71.00 Ry     beta= 0.10
     Davidson diagonalization with overlap
     ethr =  1.00E-02,  avg # of iterations =  4.2

     Threshold (ethr) on eigenvalues was too large:
     Diagonalizing with lowered threshold

     Davidson diagonalization with overlap
     ethr =  7.49E-04,  avg # of iterations =  1.2

     total cpu time spent up to now is      219.4 secs

     total energy              =  -16384.82335465 Ry
     estimated scf accuracy    <       4.30011238 Ry

     iteration #  2     ecut=    71.00 Ry     beta= 0.10
     Davidson diagonalization with overlap
     ethr =  7.47E-04,  avg # of iterations =  1.2

     total cpu time spent up to now is      297.7 secs

     total energy              =  -16384.35149244 Ry
     estimated scf accuracy    <       3.87822679 Ry

     iteration #  3     ecut=    71.00 Ry     beta= 0.10
     Davidson diagonalization with overlap
     ethr =  6.73E-04,  avg # of iterations =  2.2

     total cpu time spent up to now is      381.5 secs

     total energy              =  -16384.17767385 Ry
     estimated scf accuracy    <       2.60684712 Ry

     iteration #  4     ecut=    71.00 Ry     beta= 0.10
     Davidson diagonalization with overlap
     ethr =  4.53E-04,  avg # of iterations =  4.9

     total cpu time spent up to now is      477.5 secs

     total energy              =  -16384.32953813 Ry
     estimated scf accuracy    <       0.81770670 Ry

     iteration #  5     ecut=    71.00 Ry     beta= 0.10
     Davidson diagonalization with overlap
     ethr =  1.42E-04,  avg # of iterations =  3.4

     total cpu time spent up to now is      568.1 secs

     total energy              =  -16384.06913852 Ry
     estimated scf accuracy    <       1.03558562 Ry

     iteration #  6     ecut=    71.00 Ry     beta= 0.10
     Davidson diagonalization with overlap
     ethr =  1.42E-04,  avg # of iterations =  5.9

     total cpu time spent up to now is      667.8 secs

     total energy              =  -16384.10564286 Ry
     estimated scf accuracy    <       0.30939001 Ry

     iteration #  7     ecut=    71.00 Ry     beta= 0.10
     Davidson diagonalization with overlap
     ethr =  5.37E-05,  avg # of iterations =  4.3

     total cpu time spent up to now is      763.1 secs

     total energy              =  -16384.08037373 Ry
     estimated scf accuracy    <       0.23340913 Ry

     iteration #  8     ecut=    71.00 Ry     beta= 0.10
     Davidson diagonalization with overlap
     ethr =  4.05E-05,  avg # of iterations =  5.5

     total cpu time spent up to now is      861.7 secs

     total energy              =  -16384.06239445 Ry
     estimated scf accuracy    <       0.15586744 Ry

     iteration #  9     ecut=    71.00 Ry     beta= 0.10
     Davidson diagonalization with overlap
     ethr =  2.71E-05,  avg # of iterations =  4.7

     total cpu time spent up to now is      958.2 secs

     total energy              =  -16384.05602729 Ry
     estimated scf accuracy    <       0.11842497 Ry

     iteration # 10     ecut=    71.00 Ry     beta= 0.10
     Davidson diagonalization with overlap
     ethr =  2.06E-05,  avg # of iterations =  3.6

     total cpu time spent up to now is     1051.7 secs

     total energy              =  -16384.03704481 Ry
     estimated scf accuracy    <       0.10344845 Ry

     iteration # 11     ecut=    71.00 Ry     beta= 0.10
     Davidson diagonalization with overlap
     ethr =  1.80E-05,  avg # of iterations =  4.9

     negative rho (up, down):  2.628E-05 0.000E+00

     total cpu time spent up to now is     1149.3 secs

     total energy              =  -16384.03067068 Ry
     estimated scf accuracy    <       0.08169242 Ry

     iteration # 12     ecut=    71.00 Ry     beta= 0.10
     Davidson diagonalization with overlap
     ethr =  1.42E-05,  avg # of iterations =  5.3

     negative rho (up, down):  1.052E-03 0.000E+00

     total cpu time spent up to now is     1248.7 secs

     total energy              =  -16384.02797876 Ry
     estimated scf accuracy    <       0.06795129 Ry

     iteration # 13     ecut=    71.00 Ry     beta= 0.10
     Davidson diagonalization with overlap
     ethr =  1.18E-05,  avg # of iterations =  3.1

     negative rho (up, down):  8.804E-03 0.000E+00

     total cpu time spent up to now is     1341.6 secs

     total energy              =  -16384.02890239 Ry
     estimated scf accuracy    <       0.03769869 Ry

     iteration # 14     ecut=    71.00 Ry     beta= 0.10
     Davidson diagonalization with overlap
     ethr =  6.54E-06,  avg # of iterations =  2.5

     negative rho (up, down):  2.672E-02 0.000E+00

     total cpu time spent up to now is     1433.1 secs

     total energy              =  -16384.03031086 Ry
     estimated scf accuracy    <       0.02920269 Ry

     iteration # 15     ecut=    71.00 Ry     beta= 0.10
     Davidson diagonalization with overlap
     ethr =  5.07E-06,  avg # of iterations =  6.9

     negative rho (up, down):  9.993E-03 0.000E+00

     total cpu time spent up to now is     1537.8 secs

     total energy              =  -16384.03626732 Ry
     estimated scf accuracy    <       0.01037077 Ry

     iteration # 16     ecut=    71.00 Ry     beta= 0.10
     Davidson diagonalization with overlap
     ethr =  1.80E-06,  avg # of iterations =  3.9

     negative rho (up, down):  1.006E-02 0.000E+00

     total cpu time spent up to now is     1635.3 secs

     total energy              =  -16384.03952151 Ry
     estimated scf accuracy    <       0.00721937 Ry

     iteration # 17     ecut=    71.00 Ry     beta= 0.10
     Davidson diagonalization with overlap
     ethr =  1.25E-06,  avg # of iterations =  2.6

     negative rho (up, down):  3.129E-04 0.000E+00

     total cpu time spent up to now is     1728.8 secs

     total energy              =  -16384.04593523 Ry
     estimated scf accuracy    <       0.00357286 Ry

     iteration # 18     ecut=    71.00 Ry     beta= 0.10
     Davidson diagonalization with overlap
     ethr =  6.20E-07,  avg # of iterations =  6.7

     negative rho (up, down):  3.052E-04 0.000E+00

     total cpu time spent up to now is     1841.7 secs

     total energy              =  -16384.04687330 Ry
     estimated scf accuracy    <       0.00097523 Ry

     iteration # 19     ecut=    71.00 Ry     beta= 0.10
     Davidson diagonalization with overlap
     ethr =  1.69E-07,  avg # of iterations =  1.9

     total cpu time spent up to now is     1930.4 secs

     total energy              =  -16384.04847241 Ry
     estimated scf accuracy    <       0.00070479 Ry

     iteration # 20     ecut=    71.00 Ry     beta= 0.10
     Davidson diagonalization with overlap
     ethr =  1.22E-07,  avg # of iterations =  3.3

     total cpu time spent up to now is     2026.6 secs

     total energy              =  -16384.05019533 Ry
     estimated scf accuracy    <       0.00033075 Ry

     iteration # 21     ecut=    71.00 Ry     beta= 0.10
     Davidson diagonalization with overlap
     ethr =  5.74E-08,  avg # of iterations =  5.9

     total cpu time spent up to now is     2139.5 secs

     total energy              =  -16384.05055138 Ry
     estimated scf accuracy    <       0.00009713 Ry

     iteration # 22     ecut=    71.00 Ry     beta= 0.10
     Davidson diagonalization with overlap
     ethr =  1.69E-08,  avg # of iterations =  2.0

     total cpu time spent up to now is     2231.6 secs

     total energy              =  -16384.05078022 Ry
     estimated scf accuracy    <       0.00003869 Ry

     iteration # 23     ecut=    71.00 Ry     beta= 0.10
     Davidson diagonalization with overlap
     ethr =  6.72E-09,  avg # of iterations =  2.6

     total cpu time spent up to now is     2327.2 secs

     total energy              =  -16384.05085106 Ry
     estimated scf accuracy    <       0.00001665 Ry

     iteration # 24     ecut=    71.00 Ry     beta= 0.10
     Davidson diagonalization with overlap
     ethr =  2.89E-09,  avg # of iterations =  2.0

     total cpu time spent up to now is     2419.4 secs

     total energy              =  -16384.05088659 Ry
     estimated scf accuracy    <       0.00000942 Ry

     iteration # 25     ecut=    71.00 Ry     beta= 0.10
     Davidson diagonalization with overlap
     ethr =  1.63E-09,  avg # of iterations =  2.0

     total cpu time spent up to now is     2512.1 secs

     total energy              =  -16384.05089984 Ry
     estimated scf accuracy    <       0.00000485 Ry

     iteration # 26     ecut=    71.00 Ry     beta= 0.10
     Davidson diagonalization with overlap
     ethr =  8.41E-10,  avg # of iterations =  2.0

     total cpu time spent up to now is     2609.1 secs

     total energy              =  -16384.05090271 Ry
     estimated scf accuracy    <       0.00000157 Ry

     iteration # 27     ecut=    71.00 Ry     beta= 0.10
     Davidson diagonalization with overlap
     ethr =  2.72E-10,  avg # of iterations =  2.0

     total cpu time spent up to now is     2701.7 secs

     End of self-consistent calculation

          k = 0.0556 0.0556 0.0329 ( 55635 PWs)   bands (ev):

   -74.8237 -74.8016 -74.8016 -74.7974 -74.7973 -74.7928 -74.7917 -74.7912
   -74.7911 -74.7900 -74.7841 -74.7841 -74.7827 -74.7827 -74.7755 -74.7754
   -74.2319 -74.2318 -74.2174 -74.2174 -74.2174 -74.2174 -74.2162 -74.2162
   -74.2160 -74.2159 -74.2146 -74.2146 -74.2146 -74.2146 -74.2001 -74.2001
   -40.6582 -40.6582 -40.6579 -40.6570 -40.6444 -40.6444 -40.6377 -40.6035
   -40.6035 -40.6005 -40.6005 -40.5633 -40.5633 -40.5523 -40.5523 -40.5431
   -40.5431 -40.5399 -40.5399 -40.5310 -40.5310 -40.5021 -40.5021 -40.4955
   -40.4954 -40.4954 -40.4909 -40.4909 -40.4857 -40.4810 -40.4810 -40.4671
   -40.4641 -40.4641 -40.4497 -40.4497 -40.4468 -40.4458 -40.4357 -40.4357
   -40.4304 -40.4304 -40.3968 -40.3950 -40.3950 -40.3907 -40.3785 -40.3769
   -40.1060 -40.1060 -40.1053 -40.1044 -40.0942 -40.0942 -40.0922 -40.0922
   -40.0238 -40.0238 -40.0236 -40.0236 -40.0088 -40.0088 -40.0086 -40.0086
   -40.0065 -40.0065 -40.0061 -40.0061 -39.9912 -39.9912 -39.9911 -39.9911
   -39.9206 -39.9203 -39.9190 -39.9187 -39.9071 -39.9071 -39.9058 -39.9058
   -39.8349 -39.8318 -39.8205 -39.8205 -39.8200 -39.8200 -39.8192 -39.8189
   -39.8188 -39.8187 -39.8183 -39.8183 -39.8180 -39.8180 -39.8081 -39.8081
     2.9912   4.2797   4.5206   4.5207   4.5871   4.5932   4.5994   4.5994
     4.6584   4.6710   4.7952   4.7952   4.8841   4.8841   5.0675   5.0675
     5.1334   5.3351   5.4567   5.4567   5.4858   5.4858   5.5156   5.5156
     5.5362   5.5362   5.6051   5.6083   5.6083   5.6105   5.6229   5.6229
     5.7489   5.7489   5.8164   5.8165   5.8527   5.8527   5.9288   5.9288
     5.9411   5.9411   6.0036   6.0036   6.0657   6.1251   6.1251   6.1433
     6.1433   6.2869   6.2869   6.3529   6.4007   6.4007   6.4505   6.4505
     6.4626   6.4712   6.4712   6.4821   6.6576   6.6576   6.6610   6.6610
     6.6741   6.6843   6.8217   6.8217   6.8333   6.8354   6.8427   6.8427
     6.8754   6.8847   6.9454   6.9454   6.9804   6.9804   7.3306   7.3306
     7.3843   7.3924   7.3949   7.3949   7.4144   7.4144   7.4389   7.4389
     7.5601   7.5601   7.5948   7.5948   7.6079   7.6079   7.6145   7.6311
     7.6592   7.6592   7.6866   7.6866   7.7179   7.7315   7.7624   7.7858
     7.7858   7.8932   7.8932   7.9104   7.9104   7.9884   8.0161   8.0161
     8.0468   8.0468   8.0569   8.0569   8.1843   8.1843   8.2388   8.2388
     8.2397   8.2397   8.2735   8.4229   8.4229   8.4538   8.4909   8.4909
     8.6106   8.6106   8.6237   8.6237   8.6238   8.6434   8.6434   8.6529
     8.7398   8.7622   8.7654   8.7654   8.7655   8.8441   8.8742   8.8934
     8.8934   8.9198   8.9198   8.9295   8.9295   9.0886   9.0886   9.1621
     9.1652   9.1652   9.1663   9.2198   9.2986   9.3152   9.3152   9.3221
     9.3221   9.3741   9.4184   9.5252   9.5253   9.8523   9.8523   9.9297
     9.9297  10.2887  10.2887  10.6523  10.7803  10.9867  11.2019  11.2019
    11.4972  11.5672  11.5672  11.6177  11.6177  11.9343  12.1166  12.1204
    12.1204  13.7087  13.7087  13.9293  13.9293  14.5010  14.5010  14.5270
    14.5825  14.5826  14.6946  15.2512  15.3434  15.3434  15.9080  15.9080
    16.0132  16.0132  17.4744  17.7310  17.7310  17.9162  18.0388  18.1024
    18.2148  18.2148  18.2625  18.2625  18.4236  18.4242  18.5210  18.5210
    18.8328  18.8328

          k = 0.0556 0.0556 0.0988 ( 55670 PWs)   bands (ev):

   -74.8237 -74.8016 -74.8016 -74.7974 -74.7973 -74.7928 -74.7917 -74.7912
   -74.7911 -74.7900 -74.7841 -74.7841 -74.7827 -74.7827 -74.7755 -74.7754
   -74.2319 -74.2318 -74.2174 -74.2174 -74.2174 -74.2174 -74.2162 -74.2162
   -74.2160 -74.2159 -74.2146 -74.2146 -74.2146 -74.2146 -74.2001 -74.2001
   -40.6582 -40.6582 -40.6578 -40.6570 -40.6444 -40.6444 -40.6376 -40.6035
   -40.6035 -40.6005 -40.6005 -40.5634 -40.5633 -40.5523 -40.5523 -40.5431
   -40.5431 -40.5399 -40.5399 -40.5310 -40.5310 -40.5021 -40.5021 -40.4954
   -40.4954 -40.4954 -40.4909 -40.4909 -40.4857 -40.4810 -40.4810 -40.4672
   -40.4642 -40.4641 -40.4497 -40.4497 -40.4468 -40.4458 -40.4357 -40.4357
   -40.4304 -40.4304 -40.3968 -40.3950 -40.3949 -40.3907 -40.3785 -40.3770
   -40.1061 -40.1060 -40.1053 -40.1044 -40.0942 -40.0942 -40.0922 -40.0922
   -40.0238 -40.0238 -40.0236 -40.0236 -40.0088 -40.0088 -40.0086 -40.0086
   -40.0065 -40.0065 -40.0061 -40.0061 -39.9913 -39.9913 -39.9911 -39.9911
   -39.9206 -39.9203 -39.9191 -39.9187 -39.9071 -39.9071 -39.9058 -39.9058
   -39.8351 -39.8318 -39.8205 -39.8205 -39.8201 -39.8201 -39.8192 -39.8189
   -39.8188 -39.8187 -39.8184 -39.8184 -39.8180 -39.8180 -39.8081 -39.8081
     2.9913   4.2796   4.5206   4.5207   4.5871   4.5932   4.5994   4.5994
     4.6584   4.6709   4.7952   4.7952   4.8841   4.8841   5.0675   5.0675
     5.1335   5.3351   5.4567   5.4567   5.4858   5.4858   5.5156   5.5156
     5.5362   5.5362   5.6051   5.6083   5.6083   5.6105   5.6229   5.6229
     5.7489   5.7489   5.8164   5.8164   5.8527   5.8527   5.9288   5.9288
     5.9411   5.9411   6.0035   6.0036   6.0657   6.1251   6.1251   6.1433
     6.1433   6.2869   6.2869   6.3529   6.4007   6.4007   6.4505   6.4505
     6.4626   6.4712   6.4712   6.4821   6.6575   6.6575   6.6610   6.6610
     6.6741   6.6844   6.8216   6.8216   6.8333   6.8354   6.8427   6.8427
     6.8754   6.8847   6.9455   6.9456   6.9805   6.9805   7.3307   7.3307
     7.3844   7.3926   7.3949   7.3949   7.4144   7.4144   7.4389   7.4389
     7.5597   7.5597   7.5948   7.5948   7.6079   7.6079   7.6145   7.6311
     7.6589   7.6589   7.6866   7.6867   7.7180   7.7298   7.7624   7.7858
     7.7858   7.8932   7.8932   7.9106   7.9106   7.9885   8.0160   8.0160
     8.0471   8.0471   8.0569   8.0570   8.1843   8.1843   8.2386   8.2386
     8.2394   8.2394   8.2734   8.4229   8.4229   8.4616   8.4909   8.4910
     8.6105   8.6105   8.6237   8.6237   8.6238   8.6434   8.6434   8.6529
     8.7396   8.7622   8.7651   8.7666   8.7666   8.8441   8.8738   8.8932
     8.8932   8.9197   8.9197   8.9306   8.9306   9.0886   9.0886   9.1621
     9.1652   9.1652   9.1663   9.2198   9.2986   9.3152   9.3152   9.3220
     9.3220   9.3748   9.4184   9.5253   9.5253   9.8494   9.8494   9.9297
     9.9297  10.2860  10.2860  10.6069  10.7804  10.9867  11.2026  11.2026
    11.4991  11.5773  11.5773  11.6173  11.6173  12.0058  12.1156  12.1305
    12.1305  13.7090  13.7090  13.8639  13.8639  14.4347  14.4347  14.5328
    14.5838  14.5839  14.6878  15.1532  15.4872  15.4872  16.0116  16.0116
    16.0556  16.0556  17.3835  17.6427  17.6428  17.8930  17.8930  17.9968
    18.1184  18.1893  18.2629  18.2629  18.4629  18.4629  18.5279  18.5279
    18.5898  18.5903

          k = 0.0556 0.0556 0.1646 ( 55681 PWs)   bands (ev):

   -74.8237 -74.8016 -74.8016 -74.7974 -74.7973 -74.7928 -74.7917 -74.7912
   -74.7911 -74.7900 -74.7841 -74.7841 -74.7827 -74.7827 -74.7755 -74.7754
   -74.2319 -74.2318 -74.2174 -74.2174 -74.2174 -74.2174 -74.2162 -74.2162
   -74.2160 -74.2159 -74.2146 -74.2146 -74.2146 -74.2146 -74.2001 -74.2001
   -40.6583 -40.6583 -40.6578 -40.6570 -40.6444 -40.6444 -40.6376 -40.6034
   -40.6034 -40.6005 -40.6005 -40.5634 -40.5633 -40.5523 -40.5522 -40.5431
   -40.5431 -40.5399 -40.5399 -40.5310 -40.5309 -40.5021 -40.5021 -40.4954
   -40.4954 -40.4954 -40.4909 -40.4909 -40.4857 -40.4810 -40.4810 -40.4672
   -40.4641 -40.4641 -40.4497 -40.4497 -40.4468 -40.4458 -40.4357 -40.4357
   -40.4305 -40.4304 -40.3968 -40.3950 -40.3950 -40.3907 -40.3786 -40.3770
   -40.1061 -40.1061 -40.1052 -40.1043 -40.0943 -40.0943 -40.0923 -40.0923
   -40.0238 -40.0238 -40.0236 -40.0236 -40.0088 -40.0088 -40.0086 -40.0086
   -40.0065 -40.0065 -40.0061 -40.0061 -39.9912 -39.9912 -39.9911 -39.9911
   -39.9206 -39.9203 -39.9191 -39.9187 -39.9071 -39.9071 -39.9058 -39.9057
   -39.8351 -39.8318 -39.8205 -39.8205 -39.8201 -39.8201 -39.8192 -39.8188
   -39.8188 -39.8187 -39.8184 -39.8184 -39.8180 -39.8180 -39.8081 -39.8081
     2.9913   4.2795   4.5206   4.5207   4.5871   4.5932   4.5994   4.5994
     4.6584   4.6706   4.7952   4.7952   4.8842   4.8842   5.0675   5.0675
     5.1336   5.3351   5.4567   5.4567   5.4858   5.4858   5.5156   5.5156
     5.5362   5.5362   5.6050   5.6083   5.6083   5.6105   5.6229   5.6229
     5.7490   5.7490   5.8164   5.8164   5.8527   5.8527   5.9288   5.9288
     5.9411   5.9412   6.0035   6.0036   6.0657   6.1251   6.1251   6.1434
     6.1434   6.2869   6.2869   6.3529   6.4007   6.4007   6.4505   6.4505
     6.4626   6.4712   6.4712   6.4820   6.6574   6.6574   6.6610   6.6610
     6.6741   6.6843   6.8214   6.8214   6.8333   6.8354   6.8427   6.8427
     6.8754   6.8847   6.9457   6.9457   6.9807   6.9807   7.3309   7.3309
     7.3846   7.3930   7.3949   7.3949   7.4144   7.4144   7.4389   7.4389
     7.5592   7.5592   7.5948   7.5948   7.6079   7.6079   7.6145   7.6311
     7.6584   7.6584   7.6867   7.6867   7.7182   7.7272   7.7624   7.7860
     7.7860   7.8932   7.8932   7.9109   7.9109   7.9888   8.0160   8.0160
     8.0477   8.0477   8.0571   8.0571   8.1843   8.1843   8.2382   8.2382
     8.2389   8.2389   8.2734   8.4229   8.4229   8.4738   8.4910   8.4910
     8.6104   8.6104   8.6237   8.6237   8.6238   8.6434   8.6434   8.6528
     8.7393   8.7622   8.7644   8.7683   8.7683   8.8441   8.8731   8.8928
     8.8928   8.9196   8.9196   8.9322   8.9322   9.0885   9.0885   9.1621
     9.1652   9.1652   9.1663   9.2198   9.2986   9.3152   9.3152   9.3220
     9.3220   9.3758   9.4185   9.5252   9.5253   9.8450   9.8450   9.9297
     9.9297  10.2818  10.2818  10.5434  10.7805  10.9866  11.2036  11.2036
    11.5019  11.5931  11.5931  11.6167  11.6167  12.1122  12.1141  12.1462
    12.1462  13.7095  13.7095  13.7761  13.7761  14.3458  14.3458  14.5428
    14.5859  14.5859  14.6761  15.0095  15.7280  15.7280  16.0092  16.0092
    16.3050  16.3050  17.2986  17.4899  17.4899  17.5443  17.5445  17.9008
    18.0297  18.0297  18.2648  18.2648  18.3736  18.4286  18.5385  18.5385
    18.8363  18.8367

          k = 0.0556 0.0556 0.2305 ( 55691 PWs)   bands (ev):

   -74.8237 -74.8016 -74.8016 -74.7974 -74.7973 -74.7928 -74.7917 -74.7912
   -74.7911 -74.7900 -74.7841 -74.7841 -74.7827 -74.7827 -74.7755 -74.7754
   -74.2319 -74.2318 -74.2174 -74.2174 -74.2174 -74.2174 -74.2162 -74.2162
   -74.2160 -74.2159 -74.2146 -74.2146 -74.2146 -74.2146 -74.2001 -74.2001
   -40.6583 -40.6583 -40.6578 -40.6570 -40.6444 -40.6444 -40.6376 -40.6035
   -40.6034 -40.6005 -40.6005 -40.5634 -40.5633 -40.5523 -40.5523 -40.5431
   -40.5430 -40.5399 -40.5399 -40.5310 -40.5310 -40.5022 -40.5021 -40.4954
   -40.4954 -40.4954 -40.4909 -40.4909 -40.4856 -40.4811 -40.4811 -40.4673
   -40.4641 -40.4641 -40.4497 -40.4497 -40.4468 -40.4458 -40.4357 -40.4357
   -40.4305 -40.4305 -40.3968 -40.3950 -40.3949 -40.3906 -40.3786 -40.3770
   -40.1061 -40.1060 -40.1053 -40.1043 -40.0943 -40.0943 -40.0923 -40.0923
   -40.0238 -40.0238 -40.0236 -40.0236 -40.0088 -40.0088 -40.0086 -40.0086
   -40.0065 -40.0064 -40.0061 -40.0061 -39.9912 -39.9912 -39.9911 -39.9911
   -39.9207 -39.9203 -39.9191 -39.9187 -39.9071 -39.9071 -39.9058 -39.9057
   -39.8351 -39.8319 -39.8206 -39.8205 -39.8201 -39.8201 -39.8192 -39.8188
   -39.8188 -39.8187 -39.8184 -39.8184 -39.8180 -39.8180 -39.8082 -39.8082
     2.9914   4.2794   4.5206   4.5207   4.5871   4.5932   4.5994   4.5994
     4.6584   4.6704   4.7952   4.7952   4.8842   4.8842   5.0675   5.0675
     5.1338   5.3351   5.4567   5.4567   5.4858   5.4858   5.5156   5.5156
     5.5362   5.5362   5.6050   5.6082   5.6082   5.6105   5.6228   5.6228
     5.7490   5.7490   5.8164   5.8164   5.8527   5.8527   5.9288   5.9288
     5.9412   5.9412   6.0035   6.0035   6.0656   6.1251   6.1251   6.1434
     6.1434   6.2869   6.2869   6.3528   6.4007   6.4007   6.4505   6.4505
     6.4627   6.4712   6.4712   6.4821   6.6573   6.6573   6.6610   6.6610
     6.6741   6.6843   6.8213   6.8213   6.8333   6.8354   6.8427   6.8427
     6.8753   6.8846   6.9459   6.9459   6.9808   6.9808   7.3311   7.3311
     7.3847   7.3932   7.3948   7.3948   7.4144   7.4144   7.4389   7.4389
     7.5587   7.5587   7.5948   7.5948   7.6079   7.6079   7.6145   7.6311
     7.6580   7.6580   7.6867   7.6867   7.7186   7.7249   7.7623   7.7861
     7.7861   7.8932   7.8932   7.9111   7.9111   7.9890   8.0159   8.0159
     8.0482   8.0482   8.0572   8.0572   8.1843   8.1843   8.2379   8.2379
     8.2385   8.2385   8.2734   8.4229   8.4229   8.4847   8.4910   8.4910
     8.6102   8.6102   8.6237   8.6237   8.6238   8.6434   8.6434   8.6528
     8.7390   8.7622   8.7638   8.7699   8.7699   8.8441   8.8725   8.8926
     8.8926   8.9196   8.9196   8.9336   8.9336   9.0885   9.0885   9.1621
     9.1653   9.1653   9.1663   9.2198   9.2986   9.3152   9.3152   9.3220
     9.3220   9.3769   9.4185   9.5252   9.5253   9.8412   9.8412   9.9297
     9.9297  10.2782  10.2782  10.4920  10.7807  10.9865  11.2045  11.2045
    11.5044  11.6073  11.6073  11.6163  11.6163  12.1128  12.1604  12.1604
    12.2048  13.7074  13.7074  13.7099  13.7099  14.2765  14.2765  14.5535
    14.5877  14.5877  14.6638  14.8871  16.0008  16.0008  16.0071  16.0071
    16.5963  16.5963  17.1181  17.1181  17.2463  17.4763  17.4765  17.6312
    17.6312  17.8254  18.2655  18.2655  18.5479  18.5479  18.6580  18.6772
    18.9525  18.9525

          k = 0.0556 0.0556-0.2963 ( 55688 PWs)   bands (ev):

   -74.8237 -74.8016 -74.8016 -74.7974 -74.7973 -74.7928 -74.7917 -74.7912
   -74.7911 -74.7900 -74.7841 -74.7841 -74.7827 -74.7827 -74.7755 -74.7754
   -74.2319 -74.2318 -74.2174 -74.2174 -74.2174 -74.2174 -74.2162 -74.2162
   -74.2160 -74.2159 -74.2146 -74.2146 -74.2146 -74.2146 -74.2001 -74.2001
   -40.6582 -40.6582 -40.6579 -40.6570 -40.6445 -40.6445 -40.6376 -40.6035
   -40.6034 -40.6005 -40.6005 -40.5633 -40.5633 -40.5523 -40.5522 -40.5431
   -40.5431 -40.5399 -40.5399 -40.5310 -40.5310 -40.5022 -40.5022 -40.4954
   -40.4954 -40.4954 -40.4908 -40.4908 -40.4856 -40.4810 -40.4810 -40.4673
   -40.4641 -40.4641 -40.4497 -40.4496 -40.4468 -40.4458 -40.4357 -40.4357
   -40.4305 -40.4305 -40.3968 -40.3950 -40.3950 -40.3907 -40.3786 -40.3770
   -40.1060 -40.1060 -40.1053 -40.1043 -40.0943 -40.0943 -40.0923 -40.0923
   -40.0238 -40.0238 -40.0236 -40.0236 -40.0088 -40.0088 -40.0085 -40.0085
   -40.0065 -40.0065 -40.0061 -40.0061 -39.9912 -39.9912 -39.9911 -39.9911
   -39.9207 -39.9203 -39.9191 -39.9187 -39.9071 -39.9071 -39.9058 -39.9057
   -39.8351 -39.8319 -39.8206 -39.8205 -39.8201 -39.8201 -39.8192 -39.8188
   -39.8187 -39.8186 -39.8184 -39.8183 -39.8180 -39.8180 -39.8082 -39.8082
     2.9914   4.2793   4.5206   4.5207   4.5871   4.5932   4.5995   4.5995
     4.6584   4.6703   4.7952   4.7952   4.8842   4.8842   5.0675   5.0675
     5.1338   5.3351   5.4567   5.4567   5.4858   5.4858   5.5156   5.5156
     5.5362   5.5362   5.6050   5.6082   5.6082   5.6104   5.6228   5.6228
     5.7490   5.7490   5.8164   5.8164   5.8527   5.8527   5.9288   5.9288
     5.9412   5.9412   6.0035   6.0035   6.0656   6.1251   6.1251   6.1434
     6.1434   6.2868   6.2869   6.3528   6.4007   6.4007   6.4505   6.4505
     6.4627   6.4712   6.4712   6.4821   6.6573   6.6573   6.6610   6.6610
     6.6741   6.6843   6.8212   6.8212   6.8333   6.8354   6.8427   6.8427
     6.8753   6.8846   6.9459   6.9459   6.9809   6.9809   7.3311   7.3311
     7.3848   7.3934   7.3948   7.3949   7.4144   7.4144   7.4389   7.4389
     7.5585   7.5585   7.5948   7.5948   7.6079   7.6079   7.6145   7.6311
     7.6579   7.6579   7.6867   7.6867   7.7188   7.7239   7.7623   7.7862
     7.7862   7.8932   7.8932   7.9112   7.9112   7.9891   8.0159   8.0159
     8.0484   8.0484   8.0572   8.0572   8.1843   8.1843   8.2378   8.2378
     8.2383   8.2383   8.2734   8.4229   8.4229   8.4891   8.4910   8.4910
     8.6102   8.6102   8.6237   8.6237   8.6238   8.6434   8.6434   8.6528
     8.7389   8.7622   8.7636   8.7705   8.7705   8.8441   8.8723   8.8925
     8.8925   8.9196   8.9196   8.9342   8.9342   9.0885   9.0885   9.1621
     9.1653   9.1653   9.1663   9.2198   9.2986   9.3152   9.3152   9.3220
     9.3220   9.3773   9.4184   9.5252   9.5253   9.8397   9.8397   9.9296
     9.9297  10.2768  10.2768  10.4727  10.7808  10.9865  11.2048  11.2048
    11.5054  11.6129  11.6129  11.6161  11.6161  12.1122  12.1661  12.1661
    12.2415  13.6819  13.6819  13.7101  13.7101  14.2508  14.2508  14.5585
    14.5884  14.5884  14.6582  14.8392  16.0063  16.0063  16.1566  16.1566
    16.7770  16.7770  16.9295  16.9295  17.2290  17.4154  17.4154  17.4524
    17.4526  17.7980  18.2658  18.2658  18.5517  18.5517  18.7572  18.9530
    18.9530  18.9996

          k = 0.0556 0.1667 0.0329 ( 55657 PWs)   bands (ev):

   -74.8230 -74.8057 -74.8013 -74.7971 -74.7944 -74.7932 -74.7923 -74.7915
   -74.7895 -74.7889 -74.7855 -74.7843 -74.7830 -74.7813 -74.7762 -74.7757
   -74.2314 -74.2314 -74.2202 -74.2201 -74.2174 -74.2174 -74.2164 -74.2164
   -74.2157 -74.2157 -74.2147 -74.2147 -74.2119 -74.2119 -74.2006 -74.2006
   -40.6563 -40.6555 -40.6542 -40.6529 -40.6417 -40.6415 -40.6363 -40.6083
   -40.6063 -40.6046 -40.6005 -40.5826 -40.5765 -40.5718 -40.5510 -40.5434
   -40.5422 -40.5374 -40.5237 -40.5164 -40.5122 -40.5062 -40.5035 -40.4997
   -40.4994 -40.4967 -40.4958 -40.4884 -40.4863 -40.4805 -40.4783 -40.4752
   -40.4647 -40.4552 -40.4494 -40.4423 -40.4403 -40.4399 -40.4360 -40.4355
   -40.4307 -40.4266 -40.4021 -40.4015 -40.3963 -40.3895 -40.3834 -40.3784
   -40.1048 -40.1039 -40.1015 -40.0998 -40.0930 -40.0928 -40.0884 -40.0883
   -40.0406 -40.0404 -40.0384 -40.0380 -40.0263 -40.0257 -40.0217 -40.0211
   -39.9938 -39.9933 -39.9891 -39.9886 -39.9764 -39.9764 -39.9742 -39.9739
   -39.9249 -39.9247 -39.9202 -39.9199 -39.9115 -39.9115 -39.9075 -39.9075
   -39.8343 -39.8314 -39.8226 -39.8222 -39.8205 -39.8199 -39.8196 -39.8189
   -39.8188 -39.8185 -39.8184 -39.8180 -39.8162 -39.8161 -39.8085 -39.8084
     3.0609   4.3344   4.5574   4.5630   4.6034   4.6074   4.6187   4.6362
     4.6414   4.6968   4.7233   4.8196   4.8214   4.8852   5.0670   5.1300
     5.1862   5.3684   5.3781   5.3925   5.3985   5.4062   5.4078   5.4979
     5.5020   5.5378   5.5433   5.5438   5.5641   5.5974   5.6051   5.6432
     5.6456   5.6790   5.7263   5.7951   5.8905   5.9000   5.9033   5.9067
     5.9319   5.9418   5.9492   6.0850   6.1214   6.1467   6.1878   6.2337
     6.2344   6.2740   6.2870   6.3404   6.3460   6.3801   6.4313   6.4652
     6.4771   6.4874   6.5132   6.5382   6.5818   6.6270   6.6728   6.6824
     6.6902   6.6953   6.8521   6.8565   6.8610   6.8647   6.8754   6.8777
     6.8920   6.9415   6.9760   6.9790   6.9909   7.1186   7.1993   7.2196
     7.2205   7.2569   7.2978   7.3048   7.3383   7.3973   7.4044   7.4284
     7.4999   7.5156   7.5329   7.5600   7.5917   7.6193   7.6685   7.6796
     7.6917   7.7165   7.7176   7.7449   7.7453   7.7784   7.7875   7.8019
     7.8041   7.8089   7.8287   7.8873   7.9563   7.9829   7.9961   8.0046
     8.1209   8.1373   8.1385   8.2018   8.2328   8.2598   8.2637   8.3229
     8.3431   8.3531   8.3852   8.4384   8.4621   8.4800   8.5010   8.5056
     8.5121   8.5701   8.5733   8.6345   8.6551   8.6597   8.6616   8.7096
     8.7099   8.7335   8.7382   8.7488   8.8714   8.8768   8.8899   8.8985
     8.9207   8.9325   8.9488   9.0020   9.0566   9.0735   9.0844   9.0853
     9.1104   9.1179   9.2068   9.2261   9.2613   9.2992   9.3059   9.3102
     9.3265   9.3338   9.4059   9.4207   9.4584   9.5102   9.8125   9.8475
     9.8513  10.3033  10.3879  10.5310  10.8194  10.8271  11.0062  11.0652
    11.0691  11.5757  11.6147  11.6917  12.1338  12.1354  12.1938  12.6846
    12.7316  13.3147  13.3857  13.9418  13.9592  14.5249  14.5762  14.6614
    14.7605  14.8101  14.8209  15.1049  15.3399  15.4015  15.4813  15.9582
    16.1739  16.5092  17.3788  17.4919  17.4987  17.5195  17.5602  17.6193
    17.6800  17.9552  18.0824  18.0912  18.1349  18.2547  18.5424  18.6387
    18.6918  18.9852

          k = 0.0556 0.1667 0.0988 ( 55669 PWs)   bands (ev):

   -74.8230 -74.8057 -74.8013 -74.7971 -74.7944 -74.7932 -74.7923 -74.7915
   -74.7895 -74.7889 -74.7855 -74.7843 -74.7830 -74.7813 -74.7762 -74.7757
   -74.2314 -74.2314 -74.2202 -74.2201 -74.2174 -74.2174 -74.2164 -74.2164
   -74.2157 -74.2157 -74.2147 -74.2147 -74.2119 -74.2119 -74.2006 -74.2006
   -40.6563 -40.6555 -40.6542 -40.6529 -40.6417 -40.6415 -40.6363 -40.6083
   -40.6063 -40.6046 -40.6006 -40.5826 -40.5765 -40.5718 -40.5510 -40.5435
   -40.5422 -40.5374 -40.5237 -40.5164 -40.5122 -40.5062 -40.5035 -40.4997
   -40.4994 -40.4967 -40.4958 -40.4884 -40.4863 -40.4805 -40.4783 -40.4753
   -40.4646 -40.4552 -40.4494 -40.4424 -40.4404 -40.4399 -40.4360 -40.4354
   -40.4307 -40.4267 -40.4021 -40.4015 -40.3963 -40.3895 -40.3834 -40.3784
   -40.1048 -40.1039 -40.1015 -40.0998 -40.0930 -40.0928 -40.0884 -40.0883
   -40.0406 -40.0404 -40.0384 -40.0380 -40.0263 -40.0257 -40.0217 -40.0211
   -39.9938 -39.9933 -39.9891 -39.9886 -39.9765 -39.9764 -39.9742 -39.9739
   -39.9249 -39.9247 -39.9202 -39.9199 -39.9116 -39.9115 -39.9075 -39.9075
   -39.8344 -39.8315 -39.8227 -39.8222 -39.8205 -39.8199 -39.8195 -39.8189
   -39.8188 -39.8185 -39.8184 -39.8180 -39.8163 -39.8161 -39.8085 -39.8084
     3.0609   4.3343   4.5574   4.5630   4.6034   4.6074   4.6187   4.6362
     4.6414   4.6968   4.7231   4.8196   4.8214   4.8852   5.0671   5.1300
     5.1863   5.3684   5.3782   5.3925   5.3985   5.4062   5.4078   5.4979
     5.5020   5.5378   5.5433   5.5438   5.5641   5.5974   5.6051   5.6432
     5.6456   5.6790   5.7262   5.7951   5.8905   5.9000   5.9032   5.9067
     5.9319   5.9418   5.9492   6.0850   6.1214   6.1467   6.1878   6.2338
     6.2344   6.2740   6.2870   6.3404   6.3460   6.3801   6.4313   6.4651
     6.4772   6.4874   6.5132   6.5383   6.5818   6.6270   6.6728   6.6824
     6.6902   6.6953   6.8520   6.8565   6.8610   6.8647   6.8754   6.8777
     6.8919   6.9414   6.9761   6.9790   6.9910   7.1187   7.1993   7.2197
     7.2206   7.2569   7.2979   7.3050   7.3383   7.3973   7.4045   7.4284
     7.4995   7.5155   7.5329   7.5606   7.5914   7.6195   7.6685   7.6796
     7.6915   7.7166   7.7178   7.7439   7.7449   7.7785   7.7873   7.8019
     7.8041   7.8089   7.8287   7.8873   7.9562   7.9831   7.9963   8.0050
     8.1208   8.1375   8.1386   8.2022   8.2328   8.2595   8.2641   8.3228
     8.3428   8.3530   8.3853   8.4382   8.4621   8.4800   8.5003   8.5056
     8.5119   8.5699   8.5787   8.6345   8.6563   8.6597   8.6616   8.7096
     8.7099   8.7329   8.7382   8.7499   8.8714   8.8768   8.8896   8.8985
     8.9218   8.9321   8.9488   9.0018   9.0566   9.0735   9.0845   9.0858
     9.1104   9.1179   9.2068   9.2269   9.2612   9.3019   9.3059   9.3102
     9.3266   9.3338   9.4059   9.4208   9.4584   9.5071   9.8125   9.8475
     9.8486  10.3008  10.3876  10.5309  10.7743  10.8245  11.0061  11.0690
    11.0752  11.5857  11.6185  11.6935  12.1438  12.1930  12.2093  12.6823
    12.7417  13.3151  13.3227  13.8947  13.9421  14.4599  14.5820  14.6668
    14.7537  14.8060  14.9469  15.0391  15.2357  15.4793  15.5448  16.1040
    16.1723  16.6575  17.2883  17.3460  17.4038  17.4992  17.5608  17.6891
    17.7109  17.9411  18.0206  18.0921  18.1646  18.2382  18.4461  18.4632
    18.6457  19.0124

          k = 0.0556 0.1667 0.1646 ( 55685 PWs)   bands (ev):

   -74.8230 -74.8057 -74.8013 -74.7971 -74.7944 -74.7932 -74.7923 -74.7915
   -74.7895 -74.7889 -74.7855 -74.7843 -74.7830 -74.7813 -74.7762 -74.7757
   -74.2314 -74.2314 -74.2202 -74.2201 -74.2174 -74.2174 -74.2164 -74.2164
   -74.2157 -74.2157 -74.2147 -74.2147 -74.2119 -74.2119 -74.2006 -74.2006
   -40.6564 -40.6555 -40.6541 -40.6528 -40.6417 -40.6415 -40.6363 -40.6083
   -40.6063 -40.6047 -40.6006 -40.5827 -40.5765 -40.5717 -40.5511 -40.5434
   -40.5422 -40.5374 -40.5237 -40.5164 -40.5122 -40.5062 -40.5035 -40.4997
   -40.4994 -40.4967 -40.4958 -40.4884 -40.4863 -40.4805 -40.4784 -40.4753
   -40.4647 -40.4552 -40.4494 -40.4424 -40.4404 -40.4399 -40.4360 -40.4355
   -40.4307 -40.4267 -40.4021 -40.4015 -40.3963 -40.3895 -40.3834 -40.3785
   -40.1048 -40.1039 -40.1015 -40.0998 -40.0930 -40.0928 -40.0884 -40.0883
   -40.0406 -40.0403 -40.0384 -40.0380 -40.0263 -40.0257 -40.0217 -40.0211
   -39.9938 -39.9933 -39.9891 -39.9886 -39.9765 -39.9764 -39.9742 -39.9740
   -39.9249 -39.9247 -39.9202 -39.9199 -39.9116 -39.9115 -39.9075 -39.9075
   -39.8344 -39.8315 -39.8227 -39.8222 -39.8205 -39.8200 -39.8195 -39.8189
   -39.8188 -39.8184 -39.8184 -39.8180 -39.8163 -39.8161 -39.8085 -39.8084
     3.0610   4.3342   4.5574   4.5630   4.6034   4.6074   4.6188   4.6362
     4.6414   4.6968   4.7229   4.8196   4.8214   4.8852   5.0671   5.1300
     5.1864   5.3684   5.3781   5.3925   5.3984   5.4061   5.4078   5.4979
     5.5020   5.5378   5.5433   5.5438   5.5641   5.5973   5.6051   5.6431
     5.6455   5.6790   5.7262   5.7952   5.8905   5.9000   5.9032   5.9067
     5.9319   5.9418   5.9492   6.0850   6.1213   6.1467   6.1878   6.2339
     6.2344   6.2739   6.2869   6.3404   6.3460   6.3801   6.4313   6.4651
     6.4772   6.4874   6.5132   6.5383   6.5818   6.6270   6.6728   6.6824
     6.6902   6.6952   6.8519   6.8564   6.8610   6.8647   6.8755   6.8778
     6.8919   6.9412   6.9763   6.9791   6.9911   7.1189   7.1993   7.2199
     7.2207   7.2569   7.2980   7.3053   7.3382   7.3973   7.4045   7.4285
     7.4987   7.5155   7.5329   7.5614   7.5908   7.6198   7.6685   7.6797
     7.6911   7.7166   7.7180   7.7417   7.7449   7.7785   7.7869   7.8019
     7.8041   7.8090   7.8287   7.8873   7.9561   7.9835   7.9965   8.0056
     8.1206   8.1377   8.1387   8.2027   8.2328   8.2590   8.2648   8.3225
     8.3422   8.3528   8.3854   8.4380   8.4621   8.4801   8.4995   8.5054
     8.5117   8.5697   8.5870   8.6345   8.6582   8.6597   8.6617   8.7096
     8.7099   8.7317   8.7382   8.7516   8.8714   8.8767   8.8890   8.8984
     8.9233   8.9313   8.9487   9.0015   9.0566   9.0735   9.0846   9.0866
     9.1104   9.1179   9.2068   9.2282   9.2611   9.3059   9.3062   9.3102
     9.3267   9.3338   9.4059   9.4209   9.4585   9.5024   9.8125   9.8444
     9.8475  10.2968  10.3872  10.5308  10.7110  10.8206  11.0060  11.0688
    11.0909  11.6013  11.6243  11.6964  12.1594  12.1916  12.3202  12.6788
    12.7574  13.2375  13.3157  13.8078  13.9426  14.3724  14.5921  14.6780
    14.7421  14.7803  14.9509  15.0831  15.1733  15.4763  15.7854  16.1697
    16.3507  16.9096  16.9820  17.2389  17.3200  17.4995  17.5415  17.5617
    17.7033  17.9279  17.9431  18.0589  18.0932  18.3726  18.4168  18.4855
    18.5913  18.6565

          k = 0.0556 0.1667 0.2305 ( 55687 PWs)   bands (ev):

   -74.8230 -74.8057 -74.8013 -74.7971 -74.7944 -74.7932 -74.7923 -74.7915
   -74.7895 -74.7889 -74.7855 -74.7843 -74.7830 -74.7813 -74.7762 -74.7757
   -74.2314 -74.2314 -74.2202 -74.2201 -74.2174 -74.2174 -74.2164 -74.2164
   -74.2157 -74.2157 -74.2147 -74.2147 -74.2119 -74.2119 -74.2006 -74.2006
   -40.6563 -40.6555 -40.6542 -40.6529 -40.6417 -40.6415 -40.6362 -40.6082
   -40.6063 -40.6047 -40.6006 -40.5827 -40.5765 -40.5718 -40.5510 -40.5434
   -40.5422 -40.5374 -40.5237 -40.5164 -40.5122 -40.5062 -40.5035 -40.4997
   -40.4994 -40.4967 -40.4958 -40.4884 -40.4863 -40.4805 -40.4784 -40.4753
   -40.4647 -40.4552 -40.4494 -40.4424 -40.4403 -40.4399 -40.4360 -40.4355
   -40.4308 -40.4268 -40.4021 -40.4015 -40.3963 -40.3895 -40.3834 -40.3785
   -40.1048 -40.1039 -40.1015 -40.0998 -40.0930 -40.0928 -40.0884 -40.0883
   -40.0406 -40.0404 -40.0384 -40.0380 -40.0263 -40.0257 -40.0217 -40.0211
   -39.9938 -39.9933 -39.9891 -39.9886 -39.9765 -39.9764 -39.9742 -39.9740
   -39.9249 -39.9247 -39.9202 -39.9199 -39.9115 -39.9115 -39.9075 -39.9075
   -39.8344 -39.8315 -39.8227 -39.8223 -39.8205 -39.8200 -39.8195 -39.8189
   -39.8188 -39.8184 -39.8184 -39.8180 -39.8163 -39.8161 -39.8085 -39.8084
     3.0611   4.3340   4.5574   4.5630   4.6035   4.6075   4.6188   4.6362
     4.6414   4.6968   4.7227   4.8195   4.8215   4.8852   5.0671   5.1300
     5.1866   5.3684   5.3782   5.3925   5.3984   5.4061   5.4078   5.4979
     5.5020   5.5378   5.5433   5.5438   5.5640   5.5973   5.6051   5.6431
     5.6455   5.6790   5.7262   5.7952   5.8905   5.9000   5.9032   5.9067
     5.9319   5.9418   5.9493   6.0850   6.1213   6.1467   6.1878   6.2339
     6.2344   6.2739   6.2869   6.3404   6.3460   6.3801   6.4313   6.4650
     6.4772   6.4874   6.5132   6.5383   6.5818   6.6270   6.6728   6.6824
     6.6902   6.6951   6.8518   6.8564   6.8610   6.8647   6.8755   6.8778
     6.8919   6.9411   6.9764   6.9792   6.9912   7.1191   7.1992   7.2200
     7.2208   7.2569   7.2981   7.3056   7.3382   7.3973   7.4045   7.4285
     7.4981   7.5155   7.5329   7.5622   7.5904   7.6200   7.6685   7.6798
     7.6907   7.7167   7.7182   7.7399   7.7449   7.7785   7.7866   7.8019
     7.8041   7.8091   7.8287   7.8873   7.9559   7.9839   7.9967   8.0061
     8.1204   8.1379   8.1388   8.2031   8.2328   8.2586   8.2653   8.3222
     8.3417   8.3527   8.3856   8.4377   8.4621   8.4801   8.4988   8.5053
     8.5115   8.5696   8.5943   8.6346   8.6597   8.6599   8.6617   8.7096
     8.7099   8.7306   8.7382   8.7531   8.8714   8.8766   8.8885   8.8984
     8.9247   8.9306   8.9487   9.0012   9.0566   9.0735   9.0847   9.0874
     9.1105   9.1179   9.2068   9.2293   9.2611   9.3059   9.3101   9.3102
     9.3269   9.3338   9.4059   9.4211   9.4585   9.4983   9.8125   9.8408
     9.8475  10.2934  10.3868  10.5307  10.6597  10.8172  11.0059  11.0686
    11.1050  11.6153  11.6294  11.6990  12.1733  12.1904  12.4176  12.6756
    12.7716  13.1705  13.3162  13.7397  13.9431  14.3040  14.6026  14.6954
    14.7302  14.7503  14.8820  14.9526  15.4201  15.4736  16.0589  16.1675
    16.6382  16.6474  17.1701  17.2108  17.2178  17.2679  17.4958  17.5625
    17.6805  17.7161  17.8531  18.0941  18.1373  18.1818  18.3903  18.6661
    18.7211  19.0044

          k = 0.0556 0.1667-0.2963 ( 55706 PWs)   bands (ev):

   -74.8230 -74.8057 -74.8013 -74.7971 -74.7944 -74.7932 -74.7923 -74.7915
   -74.7895 -74.7889 -74.7855 -74.7843 -74.7830 -74.7813 -74.7762 -74.7757
   -74.2314 -74.2314 -74.2202 -74.2201 -74.2174 -74.2174 -74.2164 -74.2164
   -74.2157 -74.2157 -74.2147 -74.2147 -74.2119 -74.2119 -74.2006 -74.2006
   -40.6563 -40.6555 -40.6542 -40.6529 -40.6417 -40.6415 -40.6362 -40.6083
   -40.6063 -40.6046 -40.6006 -40.5827 -40.5765 -40.5718 -40.5511 -40.5434
   -40.5422 -40.5374 -40.5238 -40.5165 -40.5122 -40.5061 -40.5035 -40.4997
   -40.4994 -40.4967 -40.4957 -40.4884 -40.4863 -40.4805 -40.4784 -40.4753
   -40.4647 -40.4553 -40.4494 -40.4423 -40.4403 -40.4399 -40.4360 -40.4354
   -40.4308 -40.4268 -40.4021 -40.4015 -40.3964 -40.3895 -40.3834 -40.3785
   -40.1048 -40.1039 -40.1015 -40.0998 -40.0930 -40.0928 -40.0884 -40.0883
   -40.0406 -40.0404 -40.0384 -40.0379 -40.0264 -40.0257 -40.0217 -40.0211
   -39.9938 -39.9933 -39.9891 -39.9886 -39.9765 -39.9764 -39.9743 -39.9740
   -39.9249 -39.9247 -39.9202 -39.9199 -39.9115 -39.9115 -39.9075 -39.9075
   -39.8344 -39.8314 -39.8227 -39.8223 -39.8206 -39.8200 -39.8195 -39.8188
   -39.8187 -39.8184 -39.8184 -39.8180 -39.8163 -39.8161 -39.8085 -39.8084
     3.0611   4.3340   4.5574   4.5630   4.6034   4.6075   4.6187   4.6362
     4.6415   4.6968   4.7226   4.8195   4.8214   4.8853   5.0671   5.1300
     5.1866   5.3684   5.3782   5.3924   5.3984   5.4061   5.4078   5.4979
     5.5020   5.5378   5.5434   5.5438   5.5640   5.5973   5.6051   5.6431
     5.6455   5.6790   5.7262   5.7952   5.8905   5.8999   5.9032   5.9067
     5.9318   5.9418   5.9493   6.0850   6.1213   6.1467   6.1878   6.2339
     6.2344   6.2739   6.2869   6.3404   6.3460   6.3801   6.4313   6.4650
     6.4772   6.4874   6.5132   6.5383   6.5818   6.6270   6.6728   6.6823
     6.6902   6.6951   6.8517   6.8564   6.8610   6.8648   6.8755   6.8778
     6.8919   6.9410   6.9765   6.9793   6.9912   7.1191   7.1992   7.2201
     7.2208   7.2569   7.2982   7.3057   7.3381   7.3972   7.4045   7.4285
     7.4978   7.5155   7.5329   7.5625   7.5902   7.6201   7.6685   7.6799
     7.6906   7.7167   7.7183   7.7391   7.7449   7.7786   7.7864   7.8019
     7.8040   7.8091   7.8287   7.8873   7.9559   7.9840   7.9968   8.0063
     8.1204   8.1379   8.1389   8.2033   8.2328   8.2585   8.2655   8.3222
     8.3415   8.3526   8.3856   8.4377   8.4621   8.4801   8.4986   8.5052
     8.5115   8.5695   8.5972   8.6345   8.6597   8.6606   8.6617   8.7096
     8.7099   8.7301   8.7382   8.7537   8.8714   8.8766   8.8883   8.8984
     8.9253   8.9303   8.9487   9.0011   9.0566   9.0736   9.0847   9.0877
     9.1105   9.1179   9.2069   9.2297   9.2611   9.3059   9.3101   9.3119
     9.3269   9.3338   9.4059   9.4211   9.4584   9.4967   9.8125   9.8393
     9.8475  10.2920  10.3866  10.5306  10.6403  10.8158  11.0059  11.0685
    11.1106  11.6209  11.6315  11.7000  12.1789  12.1899  12.4565  12.6743
    12.7772  13.1457  13.3164  13.7143  13.9432  14.2786  14.6074  14.7141
    14.7248  14.7267  14.8565  14.9014  15.4726  15.5496  16.1667  16.2159
    16.4883  16.8146  16.9805  17.2125  17.2507  17.4113  17.4426  17.5254
    17.5627  17.7212  17.8259  17.9459  18.0945  18.1657  18.6316  18.6699
    18.6814  19.0477

          k = 0.0556 0.2778 0.0329 ( 55693 PWs)   bands (ev):

   -74.8215 -74.8097 -74.8007 -74.7967 -74.7960 -74.7934 -74.7910 -74.7892
   -74.7880 -74.7878 -74.7869 -74.7847 -74.7835 -74.7800 -74.7776 -74.7762
   -74.2304 -74.2304 -74.2228 -74.2228 -74.2173 -74.2173 -74.2167 -74.2167
   -74.2155 -74.2155 -74.2148 -74.2148 -74.2093 -74.2093 -74.2015 -74.2015
   -40.6512 -40.6498 -40.6471 -40.6463 -40.6364 -40.6359 -40.6337 -40.6139
   -40.6122 -40.6119 -40.6044 -40.6009 -40.5908 -40.5907 -40.5552 -40.5483
   -40.5325 -40.5318 -40.5122 -40.5060 -40.5059 -40.5036 -40.5025 -40.5015
   -40.5000 -40.4959 -40.4952 -40.4919 -40.4882 -40.4860 -40.4825 -40.4761
   -40.4552 -40.4502 -40.4476 -40.4429 -40.4362 -40.4342 -40.4308 -40.4274
   -40.4246 -40.4219 -40.4113 -40.4086 -40.4008 -40.3915 -40.3913 -40.3828
   -40.1005 -40.0991 -40.0948 -40.0926 -40.0893 -40.0889 -40.0821 -40.0817
   -40.0566 -40.0558 -40.0521 -40.0514 -40.0433 -40.0421 -40.0365 -40.0357
   -39.9791 -39.9784 -39.9721 -39.9717 -39.9627 -39.9625 -39.9580 -39.9578
   -39.9317 -39.9316 -39.9241 -39.9239 -39.9189 -39.9188 -39.9123 -39.9123
   -39.8331 -39.8308 -39.8247 -39.8245 -39.8205 -39.8199 -39.8197 -39.8190
   -39.8188 -39.8185 -39.8182 -39.8179 -39.8144 -39.8143 -39.8092 -39.8090
     3.1983   4.2846   4.4408   4.6286   4.6453   4.6456   4.6762   4.7009
     4.7125   4.7752   4.8230   4.8677   4.8745   4.8752   5.0459   5.0863
     5.2039   5.2111   5.2341   5.2348   5.2670   5.2868   5.3570   5.4366
     5.4419   5.4926   5.5779   5.5894   5.5900   5.6018   5.6028   5.6089
     5.6120   5.6542   5.6779   5.6796   5.8371   5.8794   5.8866   5.9183
     5.9392   5.9669   6.0164   6.1176   6.1238   6.1368   6.1438   6.1678
     6.1935   6.2500   6.2733   6.3122   6.3212   6.4546   6.4604   6.4971
     6.5020   6.5045   6.5750   6.5802   6.6198   6.6699   6.6953   6.7034
     6.7555   6.8286   6.8552   6.8829   6.8940   6.8963   6.9004   6.9053
     6.9401   6.9767   6.9847   7.0278   7.0366   7.0407   7.0773   7.1369
     7.1600   7.1884   7.1959   7.2649   7.3423   7.3494   7.3568   7.3577
     7.3884   7.4024   7.4389   7.4993   7.5363   7.5925   7.6359   7.6397
     7.7188   7.7354   7.7484   7.7615   7.7964   7.8247   7.8367   7.8651
     7.8827   7.8871   7.9236   7.9300   7.9937   8.0162   8.0511   8.1345
     8.2033   8.2257   8.2320   8.2459   8.2530   8.2907   8.3278   8.3532
     8.3568   8.3945   8.4036   8.4191   8.4519   8.4560   8.4624   8.4976
     8.5057   8.5751   8.6649   8.6651   8.6670   8.7178   8.7293   8.7952
     8.8167   8.8233   8.8258   8.8327   8.8451   8.8666   8.9033   8.9171
     8.9199   8.9212   8.9886   8.9892   9.0004   9.0017   9.0425   9.0569
     9.0701   9.0918   9.1002   9.1803   9.1830   9.2513   9.2797   9.3184
     9.3204   9.3322   9.3359   9.3481   9.4154   9.6302   9.7080   9.7535
     9.8520  10.1092  10.1132  10.3365  10.6081  10.6399  10.7983  11.1120
    11.4660  11.5925  11.6685  11.9891  12.1576  12.4742  12.6692  12.8605
    12.8679  13.2746  13.4068  14.0106  14.3018  14.3560  14.5538  14.6969
    14.7665  14.9140  14.9610  14.9910  15.5060  15.5174  15.7457  16.0335
    16.4760  16.6054  16.7439  16.8572  17.0644  17.1041  17.1499  17.1578
    17.4288  17.5842  17.6287  17.9607  18.1689  18.1742  18.5859  18.6149
    18.6786  18.8916

          k = 0.0556 0.2778 0.0988 ( 55701 PWs)   bands (ev):

   -74.8215 -74.8097 -74.8007 -74.7967 -74.7960 -74.7934 -74.7910 -74.7892
   -74.7880 -74.7878 -74.7869 -74.7847 -74.7835 -74.7800 -74.7776 -74.7762
   -74.2304 -74.2304 -74.2228 -74.2228 -74.2173 -74.2173 -74.2167 -74.2167
   -74.2155 -74.2155 -74.2148 -74.2148 -74.2093 -74.2093 -74.2015 -74.2015
   -40.6512 -40.6498 -40.6472 -40.6463 -40.6364 -40.6358 -40.6337 -40.6139
   -40.6122 -40.6119 -40.6044 -40.6009 -40.5908 -40.5907 -40.5552 -40.5483
   -40.5325 -40.5318 -40.5123 -40.5060 -40.5059 -40.5036 -40.5025 -40.5015
   -40.5000 -40.4959 -40.4952 -40.4919 -40.4882 -40.4860 -40.4825 -40.4761
   -40.4552 -40.4502 -40.4476 -40.4429 -40.4362 -40.4342 -40.4308 -40.4274
   -40.4246 -40.4219 -40.4113 -40.4086 -40.4008 -40.3916 -40.3913 -40.3828
   -40.1004 -40.0991 -40.0948 -40.0926 -40.0893 -40.0889 -40.0821 -40.0817
   -40.0566 -40.0558 -40.0521 -40.0514 -40.0433 -40.0421 -40.0365 -40.0357
   -39.9791 -39.9784 -39.9721 -39.9717 -39.9627 -39.9625 -39.9580 -39.9578
   -39.9317 -39.9316 -39.9241 -39.9239 -39.9189 -39.9188 -39.9123 -39.9123
   -39.8331 -39.8308 -39.8247 -39.8245 -39.8205 -39.8199 -39.8198 -39.8189
   -39.8188 -39.8186 -39.8182 -39.8179 -39.8144 -39.8143 -39.8092 -39.8090
     3.1983   4.2846   4.4407   4.6286   4.6453   4.6456   4.6762   4.7009
     4.7125   4.7752   4.8228   4.8677   4.8745   4.8752   5.0459   5.0863
     5.2039   5.2111   5.2341   5.2348   5.2670   5.2869   5.3570   5.4367
     5.4419   5.4926   5.5779   5.5894   5.5900   5.6018   5.6028   5.6089
     5.6120   5.6542   5.6779   5.6796   5.8371   5.8794   5.8865   5.9183
     5.9392   5.9668   6.0164   6.1176   6.1238   6.1368   6.1437   6.1678
     6.1935   6.2500   6.2732   6.3122   6.3212   6.4546   6.4604   6.4971
     6.5021   6.5045   6.5750   6.5802   6.6198   6.6699   6.6953   6.7034
     6.7555   6.8285   6.8552   6.8829   6.8941   6.8963   6.9004   6.9053
     6.9401   6.9767   6.9847   7.0279   7.0366   7.0407   7.0773   7.1370
     7.1600   7.1885   7.1961   7.2648   7.3423   7.3495   7.3575   7.3577
     7.3884   7.4024   7.4389   7.4987   7.5365   7.5926   7.6360   7.6394
     7.7188   7.7354   7.7482   7.7607   7.7962   7.8248   7.8367   7.8650
     7.8826   7.8872   7.9238   7.9298   7.9939   8.0163   8.0511   8.1346
     8.2033   8.2264   8.2320   8.2458   8.2527   8.2895   8.3276   8.3529
     8.3576   8.3944   8.4036   8.4190   8.4519   8.4559   8.4624   8.4971
     8.5057   8.5762   8.6654   8.6658   8.6670   8.7170   8.7301   8.7951
     8.8168   8.8233   8.8264   8.8327   8.8451   8.8666   8.9018   8.9173
     8.9200   8.9247   8.9881   8.9892   9.0008   9.0017   9.0425   9.0570
     9.0702   9.0915   9.1002   9.1801   9.1830   9.2481   9.2797   9.3204
     9.3236   9.3322   9.3359   9.3481   9.4158   9.6302   9.7080   9.7542
     9.8496  10.1086  10.1132  10.3342  10.6180  10.6398  10.7977  11.0662
    11.4636  11.6022  11.6742  11.9930  12.1673  12.5540  12.6696  12.8083
    12.8586  13.2682  13.4168  13.9486  14.3563  14.4285  14.4929  14.6946
    14.7726  14.8681  14.9439  15.0242  15.4009  15.6463  15.6817  16.1684
    16.4742  16.6075  16.7538  16.8348  16.8576  17.1567  17.1699  17.2956
    17.3403  17.6702  17.7745  17.9368  17.9611  18.3355  18.5374  18.5824
    18.6448  18.8082

          k = 0.0556 0.2778 0.1646 ( 55697 PWs)   bands (ev):

   -74.8215 -74.8097 -74.8007 -74.7967 -74.7960 -74.7934 -74.7910 -74.7892
   -74.7880 -74.7878 -74.7869 -74.7847 -74.7835 -74.7800 -74.7776 -74.7762
   -74.2304 -74.2304 -74.2228 -74.2228 -74.2173 -74.2173 -74.2167 -74.2167
   -74.2155 -74.2155 -74.2148 -74.2148 -74.2093 -74.2093 -74.2015 -74.2015
   -40.6512 -40.6498 -40.6472 -40.6463 -40.6364 -40.6358 -40.6337 -40.6139
   -40.6122 -40.6119 -40.6044 -40.6009 -40.5908 -40.5907 -40.5552 -40.5483
   -40.5325 -40.5318 -40.5122 -40.5060 -40.5059 -40.5036 -40.5025 -40.5015
   -40.5000 -40.4959 -40.4952 -40.4919 -40.4883 -40.4860 -40.4825 -40.4761
   -40.4552 -40.4502 -40.4476 -40.4429 -40.4362 -40.4342 -40.4309 -40.4275
   -40.4247 -40.4219 -40.4113 -40.4086 -40.4008 -40.3916 -40.3913 -40.3828
   -40.1004 -40.0990 -40.0948 -40.0926 -40.0893 -40.0889 -40.0820 -40.0817
   -40.0566 -40.0558 -40.0520 -40.0514 -40.0433 -40.0421 -40.0365 -40.0357
   -39.9791 -39.9784 -39.9721 -39.9717 -39.9627 -39.9625 -39.9581 -39.9578
   -39.9317 -39.9316 -39.9241 -39.9239 -39.9189 -39.9189 -39.9123 -39.9123
   -39.8331 -39.8307 -39.8248 -39.8246 -39.8205 -39.8199 -39.8198 -39.8189
   -39.8188 -39.8186 -39.8182 -39.8179 -39.8144 -39.8143 -39.8092 -39.8090
     3.1984   4.2846   4.4406   4.6286   4.6453   4.6457   4.6762   4.7009
     4.7125   4.7751   4.8226   4.8677   4.8745   4.8752   5.0459   5.0864
     5.2039   5.2110   5.2341   5.2348   5.2670   5.2870   5.3570   5.4367
     5.4419   5.4924   5.5779   5.5894   5.5900   5.6018   5.6027   5.6089
     5.6121   5.6541   5.6780   5.6795   5.8371   5.8794   5.8865   5.9183
     5.9392   5.9668   6.0163   6.1176   6.1238   6.1368   6.1437   6.1677
     6.1935   6.2501   6.2732   6.3122   6.3212   6.4546   6.4603   6.4971
     6.5023   6.5046   6.5750   6.5802   6.6199   6.6699   6.6953   6.7034
     6.7554   6.8285   6.8552   6.8830   6.8942   6.8962   6.9004   6.9053
     6.9402   6.9767   6.9847   7.0280   7.0366   7.0406   7.0774   7.1370
     7.1601   7.1885   7.1963   7.2647   7.3424   7.3497   7.3577   7.3585
     7.3883   7.4024   7.4389   7.4978   7.5368   7.5928   7.6361   7.6389
     7.7188   7.7354   7.7479   7.7594   7.7960   7.8249   7.8367   7.8649
     7.8823   7.8872   7.9240   7.9294   7.9943   8.0163   8.0511   8.1347
     8.2034   8.2276   8.2321   8.2456   8.2524   8.2875   8.3272   8.3526
     8.3588   8.3943   8.4036   8.4189   8.4520   8.4557   8.4624   8.4965
     8.5056   8.5780   8.6659   8.6670   8.6672   8.7157   8.7313   8.7950
     8.8169   8.8232   8.8272   8.8327   8.8451   8.8665   8.9002   8.9175
     8.9201   8.9292   8.9874   8.9892   9.0014   9.0018   9.0425   9.0571
     9.0703   9.0911   9.1003   9.1798   9.1830   9.2432   9.2797   9.3205
     9.3316   9.3323   9.3359   9.3481   9.4167   9.6303   9.7080   9.7553
     9.8458  10.1076  10.1131  10.3306  10.6335  10.6397  10.7967  11.0019
    11.4597  11.6174  11.6830  11.9990  12.1823  12.6703  12.6754  12.7271
    12.8556  13.2582  13.4325  13.8643  14.3568  14.4099  14.6355  14.6912
    14.7849  14.8229  14.9150  15.0504  15.2301  15.5957  15.8829  16.3901
    16.4715  16.5148  16.6150  16.7692  16.8583  17.1511  17.2734  17.2906
    17.5443  17.6209  17.7626  17.8662  18.0067  18.4450  18.4506  18.5767
    18.5919  18.6724

          k = 0.0556 0.2778 0.2305 ( 55675 PWs)   bands (ev):

   -74.8215 -74.8097 -74.8007 -74.7967 -74.7960 -74.7934 -74.7910 -74.7892
   -74.7880 -74.7878 -74.7869 -74.7847 -74.7835 -74.7800 -74.7776 -74.7762
   -74.2304 -74.2304 -74.2228 -74.2228 -74.2173 -74.2173 -74.2167 -74.2167
   -74.2155 -74.2155 -74.2148 -74.2148 -74.2093 -74.2093 -74.2015 -74.2015
   -40.6512 -40.6498 -40.6472 -40.6463 -40.6363 -40.6358 -40.6336 -40.6139
   -40.6122 -40.6119 -40.6044 -40.6009 -40.5908 -40.5907 -40.5552 -40.5483
   -40.5325 -40.5318 -40.5123 -40.5060 -40.5059 -40.5036 -40.5024 -40.5015
   -40.5000 -40.4959 -40.4952 -40.4919 -40.4882 -40.4861 -40.4825 -40.4761
   -40.4552 -40.4502 -40.4476 -40.4429 -40.4362 -40.4342 -40.4309 -40.4275
   -40.4247 -40.4219 -40.4113 -40.4086 -40.4008 -40.3916 -40.3913 -40.3828
   -40.1004 -40.0990 -40.0948 -40.0926 -40.0893 -40.0889 -40.0820 -40.0817
   -40.0566 -40.0558 -40.0520 -40.0514 -40.0433 -40.0421 -40.0365 -40.0357
   -39.9791 -39.9784 -39.9721 -39.9716 -39.9627 -39.9625 -39.9581 -39.9578
   -39.9317 -39.9316 -39.9241 -39.9239 -39.9189 -39.9189 -39.9123 -39.9123
   -39.8331 -39.8307 -39.8248 -39.8246 -39.8205 -39.8199 -39.8198 -39.8189
   -39.8188 -39.8185 -39.8182 -39.8179 -39.8144 -39.8143 -39.8091 -39.8090
     3.1985   4.2847   4.4405   4.6286   4.6453   4.6457   4.6762   4.7009
     4.7125   4.7751   4.8224   4.8677   4.8745   4.8752   5.0459   5.0864
     5.2038   5.2110   5.2341   5.2348   5.2670   5.2872   5.3570   5.4367
     5.4419   5.4923   5.5779   5.5894   5.5900   5.6018   5.6027   5.6089
     5.6121   5.6541   5.6780   5.6795   5.8371   5.8794   5.8865   5.9183
     5.9392   5.9668   6.0163   6.1176   6.1238   6.1369   6.1437   6.1677
     6.1935   6.2501   6.2731   6.3122   6.3212   6.4546   6.4603   6.4971
     6.5025   6.5047   6.5750   6.5802   6.6200   6.6698   6.6953   6.7034
     6.7554   6.8285   6.8552   6.8830   6.8943   6.8961   6.9004   6.9052
     6.9403   6.9767   6.9846   7.0282   7.0366   7.0406   7.0774   7.1371
     7.1603   7.1886   7.1966   7.2647   7.3424   7.3498   7.3577   7.3594
     7.3883   7.4025   7.4389   7.4970   7.5370   7.5931   7.6361   7.6385
     7.7188   7.7354   7.7476   7.7583   7.7958   7.8249   7.8367   7.8648
     7.8820   7.8872   7.9243   7.9292   7.9947   8.0164   8.0511   8.1348
     8.2034   8.2287   8.2321   8.2455   8.2521   8.2858   8.3269   8.3522
     8.3598   8.3942   8.4035   8.4188   8.4520   8.4555   8.4624   8.4959
     8.5056   8.5796   8.6664   8.6670   8.6685   8.7145   8.7324   8.7950
     8.8170   8.8232   8.8279   8.8327   8.8450   8.8665   8.8992   8.9177
     8.9202   8.9327   8.9867   8.9892   9.0019   9.0020   9.0425   9.0572
     9.0703   9.0908   9.1004   9.1796   9.1830   9.2389   9.2797   9.3205
     9.3323   9.3359   9.3388   9.3481   9.4177   9.6303   9.7080   9.7562
     9.8426  10.1067  10.1130  10.3275  10.6396  10.6473  10.7959  10.9498
    11.4564  11.6310  11.6908  12.0043  12.1958  12.6629  12.6709  12.7840
    12.8529  13.2492  13.4466  13.7978  14.3445  14.3573  14.6881  14.7917
    14.8025  14.8510  14.8831  15.0655  15.0832  15.5283  16.1521  16.2235
    16.4691  16.5698  16.6898  16.7831  16.8589  17.1128  17.2694  17.3100
    17.3635  17.7049  17.8437  17.9182  18.1958  18.2322  18.4773  18.4932
    18.5463  18.5695

          k = 0.0556 0.2778-0.2963 ( 55660 PWs)   bands (ev):

   -74.8215 -74.8097 -74.8007 -74.7967 -74.7960 -74.7934 -74.7910 -74.7892
   -74.7880 -74.7878 -74.7869 -74.7847 -74.7835 -74.7800 -74.7776 -74.7762
   -74.2304 -74.2304 -74.2228 -74.2228 -74.2173 -74.2173 -74.2167 -74.2167
   -74.2155 -74.2155 -74.2148 -74.2148 -74.2093 -74.2093 -74.2015 -74.2015
   -40.6512 -40.6498 -40.6472 -40.6463 -40.6363 -40.6358 -40.6336 -40.6139
   -40.6122 -40.6118 -40.6044 -40.6009 -40.5908 -40.5907 -40.5552 -40.5483
   -40.5325 -40.5318 -40.5122 -40.5060 -40.5059 -40.5036 -40.5024 -40.5015
   -40.4999 -40.4959 -40.4952 -40.4919 -40.4882 -40.4861 -40.4825 -40.4761
   -40.4552 -40.4503 -40.4476 -40.4429 -40.4362 -40.4342 -40.4309 -40.4275
   -40.4247 -40.4219 -40.4113 -40.4086 -40.4008 -40.3916 -40.3913 -40.3828
   -40.1004 -40.0990 -40.0948 -40.0926 -40.0893 -40.0889 -40.0820 -40.0817
   -40.0566 -40.0558 -40.0521 -40.0514 -40.0433 -40.0421 -40.0365 -40.0357
   -39.9791 -39.9784 -39.9721 -39.9717 -39.9627 -39.9625 -39.9581 -39.9578
   -39.9317 -39.9316 -39.9240 -39.9239 -39.9189 -39.9189 -39.9123 -39.9123
   -39.8331 -39.8307 -39.8247 -39.8246 -39.8205 -39.8198 -39.8198 -39.8189
   -39.8188 -39.8185 -39.8181 -39.8179 -39.8144 -39.8144 -39.8091 -39.8090
     3.1985   4.2847   4.4404   4.6286   4.6454   4.6457   4.6762   4.7009
     4.7125   4.7751   4.8223   4.8677   4.8745   4.8752   5.0459   5.0864
     5.2038   5.2110   5.2341   5.2348   5.2670   5.2872   5.3570   5.4367
     5.4419   5.4923   5.5779   5.5894   5.5901   5.6018   5.6027   5.6089
     5.6121   5.6541   5.6781   5.6795   5.8372   5.8794   5.8865   5.9183
     5.9392   5.9668   6.0163   6.1176   6.1238   6.1369   6.1437   6.1677
     6.1935   6.2501   6.2731   6.3122   6.3212   6.4546   6.4603   6.4971
     6.5025   6.5047   6.5750   6.5802   6.6200   6.6698   6.6953   6.7034
     6.7554   6.8285   6.8552   6.8830   6.8943   6.8961   6.9004   6.9052
     6.9403   6.9767   6.9846   7.0282   7.0366   7.0406   7.0774   7.1371
     7.1603   7.1886   7.1966   7.2646   7.3425   7.3499   7.3577   7.3598
     7.3883   7.4025   7.4389   7.4967   7.5371   7.5931   7.6362   7.6383
     7.7188   7.7354   7.7475   7.7578   7.7958   7.8249   7.8368   7.8647
     7.8819   7.8872   7.9244   7.9291   7.9948   8.0164   8.0511   8.1348
     8.2035   8.2291   8.2322   8.2454   8.2519   8.2851   8.3268   8.3521
     8.3602   8.3942   8.4035   8.4187   8.4520   8.4555   8.4624   8.4957
     8.5056   8.5803   8.6665   8.6670   8.6690   8.7141   8.7329   8.7950
     8.8170   8.8232   8.8281   8.8326   8.8450   8.8665   8.8989   8.9178
     8.9202   8.9340   8.9864   8.9892   9.0019   9.0022   9.0425   9.0573
     9.0703   9.0906   9.1004   9.1795   9.1830   9.2373   9.2797   9.3205
     9.3323   9.3359   9.3417   9.3481   9.4181   9.6303   9.7080   9.7566
     9.8413  10.1064  10.1130  10.3263  10.6396  10.6529  10.7955  10.9301
    11.4551  11.6365  11.6940  12.0065  12.2013  12.6389  12.6711  12.8281
    12.8518  13.2457  13.4523  13.7730  14.3201  14.3575  14.6869  14.7806
    14.8150  14.8650  14.9556  15.0251  15.0704  15.5034  16.0929  16.3064
    16.4682  16.5884  16.7886  16.8095  16.8592  17.0155  17.2252  17.2641
    17.3975  17.5816  18.0477  18.0600  18.1779  18.2259  18.3217  18.5200
    18.5286  18.7193

          k = 0.0556 0.3889 0.0329 ( 55709 PWs)   bands (ev):

   -74.8194 -74.8134 -74.7998 -74.7975 -74.7961 -74.7944 -74.7902 -74.7882
   -74.7868 -74.7866 -74.7856 -74.7852 -74.7843 -74.7797 -74.7788 -74.7768
   -74.2291 -74.2290 -74.2252 -74.2251 -74.2172 -74.2172 -74.2169 -74.2169
   -74.2153 -74.2152 -74.2149 -74.2149 -74.2069 -74.2069 -74.2029 -74.2029
   -40.6428 -40.6418 -40.6379 -40.6370 -40.6298 -40.6290 -40.6276 -40.6219
   -40.6197 -40.6197 -40.6173 -40.6115 -40.6084 -40.6044 -40.5565 -40.5526
   -40.5253 -40.5208 -40.5141 -40.5089 -40.5054 -40.5041 -40.5041 -40.5032
   -40.5012 -40.4976 -40.4917 -40.4873 -40.4821 -40.4807 -40.4786 -40.4736
   -40.4637 -40.4591 -40.4348 -40.4310 -40.4301 -40.4294 -40.4292 -40.4244
   -40.4213 -40.4170 -40.4154 -40.4095 -40.4083 -40.4021 -40.3968 -40.3896
   -40.0932 -40.0916 -40.0853 -40.0832 -40.0830 -40.0826 -40.0734 -40.0728
   -40.0710 -40.0698 -40.0642 -40.0635 -40.0592 -40.0574 -40.0503 -40.0494
   -39.9651 -39.9644 -39.9560 -39.9558 -39.9502 -39.9500 -39.9434 -39.9432
   -39.9409 -39.9406 -39.9304 -39.9304 -39.9290 -39.9290 -39.9201 -39.9200
   -39.8312 -39.8297 -39.8269 -39.8267 -39.8205 -39.8202 -39.8195 -39.8191
   -39.8188 -39.8186 -39.8180 -39.8179 -39.8127 -39.8125 -39.8101 -39.8099
     3.3992   3.9577   4.5928   4.7076   4.7294   4.7631   4.7651   4.7882
     4.8109   4.8393   4.8929   4.9386   4.9549   4.9635   4.9795   4.9830
     4.9929   5.0311   5.0712   5.0769   5.1406   5.1966   5.2398   5.3125
     5.4209   5.5466   5.5949   5.5967   5.6132   5.6191   5.6304   5.6452
     5.6905   5.7025   5.7119   5.7130   5.7239   5.8350   5.8886   5.8971
     5.9193   5.9544   5.9920   6.0018   6.0290   6.0515   6.0862   6.0986
     6.1065   6.1485   6.3218   6.3768   6.4519   6.4810   6.5002   6.5208
     6.5412   6.5821   6.6652   6.6659   6.6660   6.6897   6.7129   6.7202
     6.8074   6.8208   6.8891   6.8904   6.8909   6.9241   6.9282   6.9295
     6.9337   6.9456   6.9520   6.9965   7.0042   7.0860   7.0963   7.1105
     7.1237   7.1468   7.1793   7.1873   7.1944   7.2617   7.2629   7.3031
     7.3416   7.3491   7.5636   7.5765   7.5884   7.6190   7.6618   7.6839
     7.7057   7.7545   7.7700   7.8075   7.8460   7.8479   7.8505   7.8597
     7.8603   7.8698   7.9407   7.9463   8.0716   8.0779   8.0863   8.1296
     8.1556   8.1866   8.2541   8.2789   8.2836   8.3160   8.3161   8.3426
     8.3810   8.3978   8.4019   8.4705   8.5069   8.5661   8.5735   8.6025
     8.6321   8.6576   8.6789   8.6928   8.7032   8.7134   8.7382   8.7462
     8.8085   8.8174   8.8367   8.8476   8.8477   8.8852   8.9068   8.9143
     8.9246   8.9256   8.9423   8.9648   8.9849   8.9892   9.0048   9.0171
     9.0575   9.0688   9.0844   9.1036   9.1046   9.1248   9.1806   9.2647
     9.3568   9.3634   9.3889   9.4224   9.5124   9.5193   9.5538   9.7358
     9.8604   9.9573  10.1928  10.2306  10.3955  10.4030  10.6227  11.4860
    11.6168  11.6690  11.9137  12.1467  12.1835  12.1944  12.3758  12.8881
    13.5669  13.7852  13.8126  13.8416  14.0591  14.1487  14.5176  14.8913
    15.0862  15.1048  15.1845  15.3946  15.6211  15.7833  15.7915  15.8247
    16.0341  16.1602  16.2813  16.4361  16.5652  16.8964  16.9108  17.2196
    17.2771  17.6062  17.6977  17.7992  17.9272  18.0143  18.0440  18.2969
    18.8460  18.8533

          k = 0.0556 0.3889 0.0988 ( 55704 PWs)   bands (ev):

   -74.8194 -74.8134 -74.7998 -74.7975 -74.7961 -74.7944 -74.7902 -74.7882
   -74.7868 -74.7866 -74.7856 -74.7852 -74.7843 -74.7797 -74.7788 -74.7768
   -74.2291 -74.2290 -74.2252 -74.2251 -74.2172 -74.2172 -74.2169 -74.2169
   -74.2153 -74.2152 -74.2149 -74.2149 -74.2069 -74.2069 -74.2029 -74.2029
   -40.6428 -40.6418 -40.6379 -40.6370 -40.6299 -40.6290 -40.6275 -40.6219
   -40.6197 -40.6197 -40.6173 -40.6115 -40.6084 -40.6045 -40.5565 -40.5526
   -40.5253 -40.5208 -40.5141 -40.5089 -40.5054 -40.5041 -40.5041 -40.5032
   -40.5012 -40.4976 -40.4917 -40.4873 -40.4821 -40.4807 -40.4786 -40.4736
   -40.4637 -40.4591 -40.4348 -40.4310 -40.4300 -40.4294 -40.4292 -40.4244
   -40.4213 -40.4170 -40.4154 -40.4095 -40.4083 -40.4021 -40.3968 -40.3896
   -40.0932 -40.0916 -40.0853 -40.0832 -40.0830 -40.0826 -40.0734 -40.0728
   -40.0710 -40.0697 -40.0643 -40.0635 -40.0592 -40.0574 -40.0503 -40.0494
   -39.9651 -39.9644 -39.9561 -39.9558 -39.9502 -39.9500 -39.9434 -39.9432
   -39.9409 -39.9406 -39.9305 -39.9304 -39.9290 -39.9290 -39.9201 -39.9200
   -39.8313 -39.8297 -39.8269 -39.8266 -39.8205 -39.8202 -39.8195 -39.8191
   -39.8188 -39.8187 -39.8180 -39.8179 -39.8127 -39.8126 -39.8101 -39.8099
     3.3993   3.9578   4.5928   4.7076   4.7294   4.7631   4.7651   4.7882
     4.8109   4.8393   4.8929   4.9386   4.9549   4.9634   4.9795   4.9830
     4.9929   5.0311   5.0712   5.0769   5.1406   5.1966   5.2398   5.3124
     5.4210   5.5467   5.5949   5.5967   5.6132   5.6190   5.6304   5.6452
     5.6905   5.7025   5.7119   5.7130   5.7238   5.8350   5.8886   5.8971
     5.9193   5.9544   5.9920   6.0018   6.0290   6.0514   6.0862   6.0986
     6.1065   6.1485   6.3218   6.3768   6.4519   6.4810   6.5002   6.5208
     6.5412   6.5821   6.6653   6.6659   6.6660   6.6897   6.7129   6.7205
     6.8074   6.8208   6.8892   6.8904   6.8909   6.9240   6.9282   6.9295
     6.9337   6.9458   6.9520   6.9965   7.0042   7.0860   7.0964   7.1106
     7.1238   7.1474   7.1793   7.1873   7.1944   7.2617   7.2629   7.3031
     7.3416   7.3491   7.5636   7.5761   7.5885   7.6190   7.6619   7.6839
     7.7055   7.7543   7.7700   7.8075   7.8460   7.8473   7.8505   7.8597
     7.8599   7.8696   7.9408   7.9463   8.0714   8.0776   8.0845   8.1292
     8.1561   8.1867   8.2541   8.2789   8.2836   8.3160   8.3161   8.3426
     8.3810   8.3978   8.4018   8.4728   8.5067   8.5667   8.5735   8.6024
     8.6317   8.6576   8.6788   8.6929   8.7024   8.7143   8.7381   8.7462
     8.8092   8.8193   8.8371   8.8477   8.8479   8.8852   8.9067   8.9126
     8.9245   8.9257   8.9423   8.9648   8.9848   8.9893   9.0048   9.0168
     9.0571   9.0656   9.0844   9.1034   9.1047   9.1248   9.1806   9.2647
     9.3568   9.3634   9.3892   9.4224   9.5125   9.5272   9.5538   9.7358
     9.8584   9.9562  10.2024  10.2306  10.3935  10.4036  10.6216  11.4379
    11.6260  11.6763  11.9142  12.1528  12.1920  12.1925  12.3202  12.9774
    13.5614  13.7650  13.8392  13.9272  14.0027  14.1588  14.4691  14.8916
    15.0449  15.0577  15.2142  15.4497  15.6479  15.7465  15.7706  15.8348
    16.1498  16.1593  16.2826  16.3732  16.3761  16.8944  16.9905  17.2894
    17.3038  17.5766  17.7403  17.8749  17.8898  18.0526  18.0624  18.4799
    18.5151  18.8368

          k = 0.0556 0.3889 0.1646 ( 55730 PWs)   bands (ev):

   -74.8194 -74.8134 -74.7998 -74.7975 -74.7961 -74.7944 -74.7902 -74.7882
   -74.7868 -74.7866 -74.7856 -74.7852 -74.7843 -74.7797 -74.7788 -74.7768
   -74.2291 -74.2290 -74.2252 -74.2251 -74.2172 -74.2172 -74.2169 -74.2169
   -74.2153 -74.2152 -74.2149 -74.2149 -74.2069 -74.2069 -74.2029 -74.2029
   -40.6428 -40.6418 -40.6379 -40.6370 -40.6299 -40.6290 -40.6276 -40.6219
   -40.6197 -40.6197 -40.6173 -40.6115 -40.6084 -40.6045 -40.5566 -40.5526
   -40.5253 -40.5208 -40.5141 -40.5089 -40.5054 -40.5041 -40.5041 -40.5032
   -40.5012 -40.4976 -40.4917 -40.4873 -40.4821 -40.4807 -40.4786 -40.4736
   -40.4637 -40.4591 -40.4348 -40.4310 -40.4301 -40.4294 -40.4293 -40.4244
   -40.4213 -40.4170 -40.4154 -40.4095 -40.4083 -40.4021 -40.3968 -40.3896
   -40.0932 -40.0916 -40.0853 -40.0832 -40.0830 -40.0826 -40.0734 -40.0728
   -40.0710 -40.0697 -40.0643 -40.0635 -40.0592 -40.0574 -40.0503 -40.0494
   -39.9651 -39.9644 -39.9561 -39.9558 -39.9502 -39.9500 -39.9434 -39.9432
   -39.9409 -39.9407 -39.9305 -39.9304 -39.9290 -39.9289 -39.9201 -39.9201
   -39.8313 -39.8297 -39.8269 -39.8266 -39.8205 -39.8202 -39.8195 -39.8190
   -39.8188 -39.8186 -39.8180 -39.8179 -39.8128 -39.8126 -39.8101 -39.8099
     3.3993   3.9578   4.5927   4.7076   4.7294   4.7631   4.7651   4.7882
[...]
     7.7807   7.7807   7.7807   7.7807   7.7808   7.7808   7.7809   7.7809
     7.8160   7.8160   7.8160   7.8160   7.8161   7.8161   7.8161   7.8161
     7.8276   7.8276   7.8276   7.8276   8.0504   8.0504   8.0504   8.0504
     8.3979   8.3979   8.3979   8.3979   8.3979   8.3979   8.3979   8.3979
     8.4056   8.4056   8.4056   8.4056   8.5322   8.5322   8.5322   8.5322
     8.6577   8.6577   8.6577   8.6577   8.8677   8.8677   8.8677   8.8677
     8.9974   8.9974   8.9975   8.9975   8.9975   8.9975   8.9975   8.9975
     9.2925   9.2925   9.2925   9.2925   9.3422   9.3422   9.3422   9.3422
     9.3422   9.3422   9.3422   9.3422   9.3607   9.3607   9.3607   9.3607
    10.1272  10.1272  10.1272  10.1272  12.5780  12.5780  12.5780  12.5780
    12.5929  12.5929  12.5929  12.5929  12.5929  12.5929  12.5929  12.5929
    13.7260  13.7260  13.7261  13.7261  13.7261  13.7261  13.7261  13.7261
    14.3696  14.3696  14.3696  14.3696  15.7271  15.7271  15.7271  15.7271
    15.7271  15.7271  15.7271  15.7271  16.7459  16.7459  16.7459  16.7459
    17.9457  17.9457  17.9457  17.9457  18.2498  18.2498  18.2498  18.2500
    18.2500  18.2500

          k =-0.5000-0.5000 0.1646 ( 55696 PWs)   bands (ev):

   -74.8236 -74.8236 -74.8236 -74.8236 -74.8007 -74.8007 -74.8007 -74.8006
   -74.7959 -74.7959 -74.7959 -74.7959 -74.7958 -74.7957 -74.7957 -74.7957
   -74.2365 -74.2365 -74.2365 -74.2364 -74.2362 -74.2362 -74.2362 -74.2362
   -74.2205 -74.2205 -74.2205 -74.2205 -74.2202 -74.2202 -74.2202 -74.2202
   -40.6495 -40.6495 -40.6495 -40.6495 -40.6494 -40.6494 -40.6494 -40.6494
   -40.6387 -40.6387 -40.6387 -40.6387 -40.5861 -40.5861 -40.5861 -40.5861
   -40.5262 -40.5261 -40.5261 -40.5261 -40.5260 -40.5260 -40.5260 -40.5260
   -40.4837 -40.4837 -40.4837 -40.4837 -40.4821 -40.4821 -40.4821 -40.4821
   -40.4820 -40.4820 -40.4820 -40.4820 -40.4623 -40.4623 -40.4623 -40.4623
   -40.4399 -40.4399 -40.4399 -40.4399 -40.3898 -40.3898 -40.3898 -40.3898
   -40.1108 -40.1108 -40.1107 -40.1107 -40.1106 -40.1106 -40.1106 -40.1106
   -40.0276 -40.0276 -40.0276 -40.0276 -40.0248 -40.0248 -40.0248 -40.0248
   -40.0132 -40.0132 -40.0132 -40.0132 -40.0130 -40.0130 -40.0129 -40.0129
   -39.9247 -39.9247 -39.9247 -39.9247 -39.9244 -39.9244 -39.9244 -39.9244
   -39.8382 -39.8382 -39.8382 -39.8381 -39.8373 -39.8373 -39.8373 -39.8373
   -39.8263 -39.8263 -39.8263 -39.8262 -39.8260 -39.8260 -39.8260 -39.8260
     4.0789   4.0789   4.0789   4.0789   4.7045   4.7045   4.7045   4.7045
     5.0311   5.0311   5.0311   5.0311   5.0313   5.0313   5.0313   5.0313
     5.1403   5.1403   5.1403   5.1403   5.2024   5.2024   5.2024   5.2024
     5.2025   5.2025   5.2025   5.2025   5.2883   5.2883   5.2883   5.2883
     5.5814   5.5815   5.5815   5.5815   5.8949   5.8949   5.8949   5.8949
     5.8953   5.8953   5.8953   5.8953   6.2042   6.2042   6.2042   6.2042
     6.2043   6.2044   6.2044   6.2044   6.3761   6.3761   6.3761   6.3761
     6.6099   6.6099   6.6099   6.6099   6.8678   6.8678   6.8678   6.8678
     6.9801   6.9801   6.9801   6.9801   6.9878   6.9878   6.9878   6.9878
     7.0690   7.0690   7.0690   7.0690   7.1825   7.1825   7.1826   7.1826
     7.1826   7.1826   7.1826   7.1826   7.2085   7.2085   7.2085   7.2085
     7.5263   7.5263   7.5263   7.5263   7.6566   7.6566   7.6567   7.6567
     7.7807   7.7807   7.7807   7.7807   7.7808   7.7808   7.7809   7.7809
     7.8161   7.8161   7.8161   7.8161   7.8162   7.8162   7.8162   7.8162
     7.8276   7.8276   7.8276   7.8276   8.0504   8.0504   8.0504   8.0504
     8.3976   8.3976   8.3976   8.3977   8.3977   8.3977   8.3977   8.3977
     8.4063   8.4063   8.4063   8.4063   8.5279   8.5279   8.5279   8.5279
     8.6577   8.6577   8.6577   8.6577   8.8677   8.8677   8.8677   8.8677
     8.9976   8.9976   8.9976   8.9976   8.9976   8.9977   8.9977   8.9977
     9.2925   9.2925   9.2925   9.2925   9.3422   9.3422   9.3422   9.3423
     9.3423   9.3423   9.3423   9.3423   9.3607   9.3607   9.3607   9.3607
    10.1428  10.1428  10.1428  10.1428  12.5019  12.5019  12.5019  12.5019
    12.5933  12.5933  12.5933  12.5934  12.5934  12.5934  12.5934  12.5934
    13.7240  13.7240  13.7240  13.7240  13.7241  13.7241  13.7241  13.7241
    14.5724  14.5725  14.5725  14.5725  15.7363  15.7363  15.7363  15.7363
    15.7363  15.7363  15.7363  15.7363  16.4338  16.4338  16.4338  16.4338
    17.9477  17.9477  17.9477  17.9477  18.1649  18.1649  18.1649  18.1650
    18.1651  18.1651

          k =-0.5000-0.5000 0.2305 ( 55696 PWs)   bands (ev):

   -74.8236 -74.8236 -74.8236 -74.8236 -74.8007 -74.8007 -74.8007 -74.8006
   -74.7959 -74.7959 -74.7959 -74.7959 -74.7958 -74.7957 -74.7957 -74.7957
   -74.2365 -74.2365 -74.2365 -74.2364 -74.2362 -74.2362 -74.2362 -74.2362
   -74.2205 -74.2205 -74.2205 -74.2205 -74.2202 -74.2202 -74.2202 -74.2202
   -40.6494 -40.6494 -40.6494 -40.6494 -40.6494 -40.6494 -40.6493 -40.6493
   -40.6387 -40.6387 -40.6387 -40.6387 -40.5861 -40.5861 -40.5861 -40.5860
   -40.5262 -40.5262 -40.5262 -40.5262 -40.5260 -40.5260 -40.5260 -40.5260
   -40.4838 -40.4838 -40.4838 -40.4837 -40.4822 -40.4822 -40.4822 -40.4822
   -40.4821 -40.4821 -40.4821 -40.4821 -40.4623 -40.4623 -40.4623 -40.4623
   -40.4399 -40.4399 -40.4399 -40.4399 -40.3898 -40.3898 -40.3898 -40.3898
   -40.1107 -40.1107 -40.1107 -40.1107 -40.1105 -40.1105 -40.1105 -40.1105
   -40.0276 -40.0276 -40.0276 -40.0276 -40.0248 -40.0248 -40.0248 -40.0248
   -40.0132 -40.0132 -40.0132 -40.0132 -40.0130 -40.0130 -40.0130 -40.0130
   -39.9247 -39.9247 -39.9247 -39.9247 -39.9245 -39.9245 -39.9245 -39.9245
   -39.8381 -39.8381 -39.8381 -39.8381 -39.8374 -39.8373 -39.8373 -39.8373
   -39.8263 -39.8263 -39.8263 -39.8262 -39.8260 -39.8260 -39.8260 -39.8260
     4.0789   4.0789   4.0789   4.0790   4.7044   4.7044   4.7044   4.7044
     5.0311   5.0311   5.0311   5.0311   5.0313   5.0313   5.0313   5.0313
     5.1402   5.1402   5.1402   5.1402   5.2024   5.2024   5.2024   5.2024
     5.2025   5.2025   5.2025   5.2025   5.2884   5.2884   5.2884   5.2884
     5.5814   5.5814   5.5814   5.5814   5.8949   5.8950   5.8950   5.8950
     5.8953   5.8953   5.8953   5.8953   6.2042   6.2042   6.2042   6.2042
     6.2043   6.2044   6.2044   6.2044   6.3762   6.3762   6.3762   6.3762
     6.6099   6.6099   6.6099   6.6099   6.8678   6.8678   6.8678   6.8678
     6.9801   6.9801   6.9801   6.9801   6.9877   6.9877   6.9877   6.9877
     7.0693   7.0693   7.0693   7.0693   7.1825   7.1825   7.1825   7.1825
     7.1826   7.1826   7.1826   7.1826   7.2085   7.2085   7.2085   7.2085
     7.5259   7.5259   7.5260   7.5260   7.6570   7.6570   7.6570   7.6570
     7.7807   7.7807   7.7807   7.7807   7.7808   7.7808   7.7809   7.7809
     7.8161   7.8161   7.8161   7.8161   7.8162   7.8162   7.8163   7.8163
     7.8276   7.8276   7.8276   7.8276   8.0503   8.0503   8.0503   8.0504
     8.3974   8.3975   8.3975   8.3975   8.3975   8.3975   8.3975   8.3975
     8.4070   8.4070   8.4070   8.4070   8.5240   8.5240   8.5240   8.5240
     8.6577   8.6577   8.6577   8.6577   8.8677   8.8677   8.8677   8.8677
     8.9977   8.9977   8.9977   8.9977   8.9978   8.9978   8.9978   8.9978
     9.2925   9.2925   9.2925   9.2925   9.3423   9.3423   9.3423   9.3423
     9.3423   9.3423   9.3423   9.3423   9.3608   9.3608   9.3608   9.3608
    10.1568  10.1568  10.1568  10.1568  12.4408  12.4408  12.4408  12.4408
    12.5937  12.5937  12.5937  12.5938  12.5938  12.5938  12.5938  12.5938
    13.7222  13.7222  13.7222  13.7222  13.7223  13.7223  13.7223  13.7223
    14.7861  14.7861  14.7861  14.7861  15.7444  15.7444  15.7445  15.7445
    15.7445  15.7445  15.7445  15.7445  16.1461  16.1461  16.1461  16.1461
    17.9490  17.9490  17.9490  17.9490  18.1009  18.1009  18.1009  18.1010
    18.1011  18.1011

          k =-0.5000-0.5000-0.2963 ( 55624 PWs)   bands (ev):

   -74.8236 -74.8236 -74.8236 -74.8236 -74.8007 -74.8007 -74.8007 -74.8006
   -74.7959 -74.7959 -74.7959 -74.7959 -74.7958 -74.7957 -74.7957 -74.7957
   -74.2365 -74.2365 -74.2365 -74.2364 -74.2362 -74.2362 -74.2362 -74.2362
   -74.2205 -74.2205 -74.2205 -74.2205 -74.2202 -74.2202 -74.2202 -74.2202
   -40.6495 -40.6494 -40.6494 -40.6494 -40.6494 -40.6494 -40.6494 -40.6493
   -40.6386 -40.6386 -40.6386 -40.6386 -40.5860 -40.5860 -40.5860 -40.5860
   -40.5261 -40.5261 -40.5261 -40.5261 -40.5260 -40.5260 -40.5260 -40.5260
   -40.4837 -40.4837 -40.4837 -40.4837 -40.4822 -40.4822 -40.4822 -40.4821
   -40.4821 -40.4821 -40.4821 -40.4820 -40.4623 -40.4623 -40.4623 -40.4623
   -40.4398 -40.4398 -40.4398 -40.4398 -40.3898 -40.3898 -40.3898 -40.3898
   -40.1107 -40.1107 -40.1107 -40.1107 -40.1105 -40.1105 -40.1105 -40.1105
   -40.0276 -40.0276 -40.0276 -40.0276 -40.0248 -40.0248 -40.0248 -40.0248
   -40.0132 -40.0132 -40.0132 -40.0132 -40.0130 -40.0130 -40.0130 -40.0130
   -39.9247 -39.9247 -39.9247 -39.9247 -39.9244 -39.9244 -39.9244 -39.9244
   -39.8381 -39.8381 -39.8381 -39.8380 -39.8373 -39.8373 -39.8373 -39.8373
   -39.8262 -39.8262 -39.8262 -39.8262 -39.8260 -39.8260 -39.8260 -39.8260
     4.0789   4.0790   4.0790   4.0790   4.7044   4.7044   4.7044   4.7044
     5.0311   5.0311   5.0311   5.0311   5.0313   5.0313   5.0313   5.0313
     5.1402   5.1402   5.1402   5.1402   5.2024   5.2024   5.2024   5.2024
     5.2025   5.2025   5.2025   5.2025   5.2885   5.2885   5.2885   5.2885
     5.5814   5.5814   5.5814   5.5814   5.8949   5.8950   5.8950   5.8950
     5.8953   5.8953   5.8953   5.8954   6.2042   6.2042   6.2042   6.2042
     6.2043   6.2044   6.2044   6.2044   6.3762   6.3762   6.3762   6.3762
     6.6099   6.6099   6.6099   6.6099   6.8678   6.8678   6.8678   6.8678
     6.9801   6.9801   6.9801   6.9801   6.9877   6.9877   6.9877   6.9877
     7.0694   7.0695   7.0695   7.0695   7.1825   7.1825   7.1825   7.1825
     7.1826   7.1826   7.1826   7.1826   7.2085   7.2085   7.2085   7.2085
     7.5258   7.5258   7.5259   7.5259   7.6571   7.6571   7.6572   7.6572
     7.7807   7.7807   7.7807   7.7807   7.7808   7.7808   7.7809   7.7809
     7.8161   7.8161   7.8161   7.8161   7.8163   7.8163   7.8163   7.8163
     7.8276   7.8276   7.8276   7.8277   8.0504   8.0504   8.0504   8.0504
     8.3974   8.3974   8.3974   8.3974   8.3974   8.3974   8.3974   8.3974
     8.4072   8.4072   8.4072   8.4072   8.5225   8.5225   8.5225   8.5225
     8.6577   8.6577   8.6577   8.6577   8.8677   8.8677   8.8677   8.8677
     8.9978   8.9978   8.9978   8.9978   8.9978   8.9978   8.9978   8.9979
     9.2925   9.2925   9.2925   9.2925   9.3423   9.3423   9.3423   9.3423
     9.3423   9.3423   9.3423   9.3423   9.3608   9.3608   9.3608   9.3608
    10.1624  10.1624  10.1624  10.1624  12.4179  12.4179  12.4179  12.4179
    12.5939  12.5939  12.5939  12.5939  12.5939  12.5940  12.5940  12.5940
    13.7215  13.7215  13.7215  13.7215  13.7216  13.7216  13.7216  13.7216
    14.8903  14.8903  14.8903  14.8903  15.7477  15.7477  15.7477  15.7477
    15.7478  15.7478  15.7478  15.7478  16.0164  16.0164  16.0164  16.0164
    17.9495  17.9495  17.9495  17.9495  18.0776  18.0776  18.0777  18.0778
    18.0778  18.0778

     the Fermi energy is     9.3566 ev

!    total energy              =  -16384.05231629 Ry

     total all-electron energy =   -322944.906023 Ry
     estimated scf accuracy    <          2.2E-09 Ry
     smearing contrib. (-TS)   =       0.11995223 Ry
     internal energy E=F+TS    =  -16384.17226852 Ry

     The total energy is F=E-TS. E is the sum of the following terms:
     one-electron contribution =  -16716.21453040 Ry
     hartree contribution      =    8570.51902706 Ry
     xc contribution           =    -985.50672647 Ry
     ewald contribution        =     914.36693425 Ry
     one-center paw contrib.   =   -8167.33697296 Ry

     convergence has been achieved in  10 iterations

     Forces acting on atoms (cartesian axes, Ry/au):

     atom    1 type  1   force =     0.00000000    0.00000000   -0.00031439
     atom    2 type  1   force =    -0.00000411   -0.00000411   -0.00031440
     atom    3 type  1   force =     0.00000027    0.00000000    0.00014847
     atom    4 type  1   force =     0.00000000    0.00000027    0.00014847
     atom    5 type  1   force =     0.00000000    0.00000000   -0.00017947
     atom    6 type  1   force =    -0.00000091   -0.00000091   -0.00018159
     atom    7 type  1   force =    -0.00000668    0.00000000    0.00034933
     atom    8 type  1   force =     0.00000000   -0.00000668    0.00034933
     atom    9 type  1   force =     0.00000000    0.00000000   -0.00031476
     atom   10 type  1   force =    -0.00000411    0.00000411   -0.00031440
     atom   11 type  1   force =    -0.00000364    0.00000000    0.00015296
     atom   12 type  1   force =     0.00000000   -0.00000027    0.00014847
     atom   13 type  1   force =     0.00000000    0.00000000   -0.00018870
     atom   14 type  1   force =    -0.00000091    0.00000091   -0.00018159
     atom   15 type  1   force =    -0.00000644    0.00000000    0.00034626
     atom   16 type  1   force =     0.00000000    0.00000668    0.00034933
     atom   17 type  1   force =     0.00000000    0.00000000   -0.00031476
     atom   18 type  1   force =     0.00000411   -0.00000411   -0.00031440
     atom   19 type  1   force =    -0.00000027    0.00000000    0.00014847
     atom   20 type  1   force =     0.00000000   -0.00000364    0.00015296
     atom   21 type  1   force =     0.00000000    0.00000000   -0.00018870
     atom   22 type  1   force =     0.00000091   -0.00000091   -0.00018159
     atom   23 type  1   force =     0.00000668    0.00000000    0.00034933
     atom   24 type  1   force =     0.00000000   -0.00000644    0.00034626
     atom   25 type  1   force =     0.00000000    0.00000000   -0.00031038
     atom   26 type  1   force =     0.00000411    0.00000411   -0.00031440
     atom   27 type  1   force =     0.00000364    0.00000000    0.00015296
     atom   28 type  1   force =     0.00000000    0.00000364    0.00015296
     atom   29 type  1   force =     0.00000000    0.00000000   -0.00019294
     atom   30 type  1   force =     0.00000091    0.00000091   -0.00018159
     atom   31 type  1   force =     0.00000644    0.00000000    0.00034626
     atom   32 type  1   force =     0.00000000    0.00000644    0.00034626

     Total force =     0.001487     Total SCF correction =     0.000281
     SCF correction compared to forces is large: reduce conv_thr to get better values


     Computing stress (Cartesian axis) and pressure

          total   stress  (Ry/bohr**3)                   (kbar)     P=      -26.74
  -0.00024362   0.00000000   0.00000000          -35.84        0.00        0.00
   0.00000000  -0.00024362   0.00000000            0.00      -35.84        0.00
   0.00000000   0.00000000  -0.00005815            0.00        0.00       -8.55

     Energy error            =      3.0E-05
     Gradient error          =      3.5E-04

     bfgs converged in   9 scf cycles and   8 bfgs steps
     (criteria: energy <  1.0E-04 Ry, force <  1.0E-03 Ry/Bohr)

     End of BFGS Geometry Optimization

     Final energy   =  -16384.0523162914 Ry

     File /scratch/AMHQTOVVqaEOzRDq.bfgs deleted, as requested
Begin final coordinates

ATOMIC_POSITIONS (crystal)
Pd            0.0000000000        0.0000000000       -0.0000912896
Pd            0.2500002577        0.2500002577       -0.0000902870
Pd            0.2499990961        0.0000000000        0.1463803579
Pd            0.0000000000        0.2499990961        0.1463803579
Pd            0.0000000000        0.0000000000        0.7054788026
Pd            0.2499999110        0.2499999110        0.7054787476
Pd            0.2500014639        0.0000000000        0.8519339937
Pd            0.0000000000        0.2500014639        0.8519339937
Pd            0.0000000000        0.5000000000       -0.0000897995
Pd            0.2500002577        0.7499997423       -0.0000902870
Pd            0.2500013308        0.5000000000        0.1463793721
Pd            0.0000000000        0.7500009039        0.1463803579
Pd            0.0000000000        0.5000000000        0.7054812842
Pd            0.2499999110        0.7500000890        0.7054787476
Pd            0.2500012705        0.5000000000        0.8519348782
Pd            0.0000000000        0.7499985361        0.8519339937
Pd            0.5000000000        0.0000000000       -0.0000897995
Pd            0.7499997423        0.2500002577       -0.0000902870
Pd            0.7500009039        0.0000000000        0.1463803579
Pd            0.5000000000        0.2500013308        0.1463793721
Pd            0.5000000000        0.0000000000        0.7054812842
Pd            0.7500000890        0.2499999110        0.7054787476
Pd            0.7499985361        0.0000000000        0.8519339937
Pd            0.5000000000        0.2500012705        0.8519348782
Pd            0.5000000000        0.5000000000       -0.0000911136
Pd            0.7499997423        0.7499997423       -0.0000902870
Pd            0.7499986692        0.5000000000        0.1463793721
Pd            0.5000000000        0.7499986692        0.1463793721
Pd            0.5000000000        0.5000000000        0.7054820106
Pd            0.7500000890        0.7500000890        0.7054787476
Pd            0.7499987295        0.5000000000        0.8519348782
Pd            0.5000000000        0.7499987295        0.8519348782
End final coordinates



     Writing output data file /scratch/AMHQTOVVqaEOzRDq.save/
 
     init_run     :     28.45s CPU     29.18s WALL (       1 calls)
     electrons    :  11621.80s CPU  11743.27s WALL (       9 calls)
     update_pot   :      2.94s CPU      3.02s WALL (       8 calls)
     forces       :    148.94s CPU    150.29s WALL (       9 calls)
     stress       :   1486.58s CPU   1496.08s WALL (       9 calls)

     Called by init_run:
     wfcinit      :     27.44s CPU     28.07s WALL (       1 calls)
     potinit      :      0.19s CPU      0.22s WALL (       1 calls)
     hinit0       :      0.18s CPU      0.18s WALL (       1 calls)

     Called by electrons:
     c_bands      :  10379.46s CPU  10480.28s WALL (     119 calls)
     sum_band     :   1225.24s CPU   1242.36s WALL (     119 calls)
     v_of_rho     :      2.67s CPU      2.86s WALL (     119 calls)
     newd         :      4.62s CPU      6.70s WALL (     119 calls)
     PAW_pot      :     10.41s CPU     11.17s WALL (     127 calls)
     mix_rho      :      0.78s CPU      0.86s WALL (     119 calls)

     Called by c_bands:
     init_us_2    :     75.15s CPU     75.95s WALL (   19875 calls)
     cegterg      :  10126.86s CPU  10224.85s WALL (    8925 calls)

     Called by *egterg:
     cdiaghg      :    872.44s CPU    877.53s WALL (   30480 calls)
     h_psi        :   4820.65s CPU   4882.80s WALL (   31830 calls)
     s_psi        :    541.48s CPU    544.93s WALL (   31830 calls)
     g_psi        :     18.70s CPU     19.00s WALL (   22830 calls)

     Called by h_psi:
     h_psi:calbec :    843.96s CPU    849.70s WALL (   31830 calls)
     vloc_psi     :   3399.21s CPU   3449.23s WALL (   31830 calls)
     add_vuspsi   :    534.16s CPU    539.52s WALL (   31830 calls)

     General routines
     calbec       :   1486.69s CPU   1496.80s WALL (   44730 calls)
     fft          :      3.13s CPU      3.25s WALL (    1771 calls)
     ffts         :      0.18s CPU      0.20s WALL (     238 calls)
     fftw         :   4011.27s CPU   4069.74s WALL (17051842 calls)
     interpolate  :      0.33s CPU      0.36s WALL (     119 calls)
 
     Parallel routines
     fft_scatt_xy :    296.51s CPU    301.00s WALL (17053851 calls)
     fft_scatt_yz :   3110.20s CPU   3155.71s WALL (17053851 calls)
 
     PWSCF        :      3h42m CPU      3h44m WALL

 
   This run was terminated on:  16:52:45   8Jan2022            

=------------------------------------------------------------------------------=
   JOB DONE.
=------------------------------------------------------------------------------=
