
     Program PWSCF v.6.7MaX starts on  7Jan2022 at  5:10:55 

     This program is part of the open-source Quantum ESPRESSO suite
     for quantum simulation of materials; please cite
         "P. Giannozzi et al., J. Phys.:Condens. Matter 21 395502 (2009);
         "P. Giannozzi et al., J. Phys.:Condens. Matter 29 465901 (2017);
          URL http://www.quantum-espresso.org", 
     in publications or presentations arising from this work. More details at
     http://www.quantum-espresso.org/quote

     Parallel version (MPI & OpenMP), running on      72 processor cores
     Number of MPI processes:                72
     Threads/MPI process:                     1

     MPI processes distributed on     1 nodes
     R & G space division:  proc/nbgrp/npool/nimage =      72
     Reading input from relax_4.in
Warning: card &CELL ignored
Warning: card CELL_DYNAMICS = 'BFGS', ignored
Warning: card CELL_FACTOR = 2.0, ignored
Warning: card PRESS = 0.0, ignored
Warning: card / ignored

     Current dimensions of program PWSCF are:
     Max number of different atomic species (ntypx) = 10
     Max number of k-points (npk) =  40000
     Max angular momentum in pseudopotentials (lmaxx) =  3
     file Pd.pbe-spn-kjpaw_psl.1.0.0.UPF: wavefunction(s)  4S 5S 4D renormalized

     Subspace diagonalization in iterative solution of the eigenvalue problem:
     one sub-group per band group will be used
     ELPA distributed-memory algorithm (size of sub-group:  8*  8 procs)

     Found symmetry operation: I + (  0.2500  0.2500  0.0000)
     This is a supercell, fractional translations are disabled
     Message from routine setup:
     using ibrav=0 with symmetry is DISCOURAGED, use correct ibrav instead
 
     Parallelization info
     --------------------
     sticks:   dense  smooth     PW     G-vecs:    dense   smooth      PW
     Min         104      68     18                 7474     4004     564
     Max         105      69     19                 7481     4013     571
     Sum        7521    4957   1353               538331   288715   40893
 


     bravais-lattice index     =            0
     lattice parameter (alat)  =      14.8394  a.u.
     unit-cell volume          =    3574.1177 (a.u.)^3
     number of atoms/cell      =           32
     number of atomic types    =            1
     number of electrons       =       576.00
     number of Kohn-Sham states=          346
     kinetic-energy cutoff     =      71.0000  Ry
     charge density cutoff     =     430.0000  Ry
     scf convergence threshold =      1.0E-06
     mixing beta               =       0.1000
     number of iterations used =           10  TF        mixing
     energy convergence thresh.=      1.0E-04
     force convergence thresh. =      1.0E-03
     Exchange-correlation= SLA  PW   PBX  PBC
                           (   1   4   3   4   0   0   0)
     nstep                     =           40


     celldm(1)=  14.839420  celldm(2)=   0.000000  celldm(3)=   0.000000
     celldm(4)=   0.000000  celldm(5)=   0.000000  celldm(6)=   0.000000

     crystal axes: (cart. coord. in units of alat)
               a(1) = (   1.000000   0.000000   0.000000 )  
               a(2) = (   0.000000   1.000000   0.000000 )  
               a(3) = (   0.000000   0.000000   1.093750 )  

     reciprocal axes: (cart. coord. in units 2 pi/alat)
               b(1) = (  1.000000  0.000000  0.000000 )  
               b(2) = (  0.000000  1.000000  0.000000 )  
               b(3) = (  0.000000  0.000000  0.914286 )  


     PseudoPot. # 1 for Pd read from file:
     /rds/homes/b/bxp912/pp/Pd.pbe-spn-kjpaw_psl.1.0.0.UPF
     MD5 check sum: 790f2ebce206edfd9790dcb9844eca51
     Pseudo is Projector augmented-wave + core cor, Zval = 18.0
     Generated using &quot;atomic&quot; code by A. Dal Corso  v.6.3
     Shape of augmentation charge: PSQ
     Using radial grid of 1235 points,  6 beta functions with: 
                l(1) =   0
                l(2) =   0
                l(3) =   1
                l(4) =   1
                l(5) =   2
                l(6) =   2
     Q(r) pseudized with 0 coefficients 


     atomic species   valence    mass     pseudopotential
        Pd            18.00   106.42000     Pd( 1.00)

      8 Sym. Ops. (no inversion) found



   Cartesian axes

     site n.     atom                  positions (alat units)
         1           Pd  tau(   1) = (   0.0000000   0.0000000   0.0000000  )
         2           Pd  tau(   2) = (   0.2500000   0.2500000   0.0000000  )
         3           Pd  tau(   3) = (   0.2500000   0.0000000   0.2500000  )
         4           Pd  tau(   4) = (   0.0000000   0.2500000   0.2500000  )
         5           Pd  tau(   5) = (   0.0000000   0.0000000   0.5937500  )
         6           Pd  tau(   6) = (   0.2500000   0.2500000   0.5937500  )
         7           Pd  tau(   7) = (   0.2500000   0.0000000   0.8437500  )
         8           Pd  tau(   8) = (   0.0000000   0.2500000   0.8437500  )
         9           Pd  tau(   9) = (   0.0000000   0.5000000   0.0000000  )
        10           Pd  tau(  10) = (   0.2500000   0.7500000   0.0000000  )
        11           Pd  tau(  11) = (   0.2500000   0.5000000   0.2500000  )
        12           Pd  tau(  12) = (   0.0000000   0.7500000   0.2500000  )
        13           Pd  tau(  13) = (   0.0000000   0.5000000   0.5937500  )
        14           Pd  tau(  14) = (   0.2500000   0.7500000   0.5937500  )
        15           Pd  tau(  15) = (   0.2500000   0.5000000   0.8437500  )
        16           Pd  tau(  16) = (   0.0000000   0.7500000   0.8437500  )
        17           Pd  tau(  17) = (   0.5000000   0.0000000   0.0000000  )
        18           Pd  tau(  18) = (   0.7500000   0.2500000   0.0000000  )
        19           Pd  tau(  19) = (   0.7500000   0.0000000   0.2500000  )
        20           Pd  tau(  20) = (   0.5000000   0.2500000   0.2500000  )
        21           Pd  tau(  21) = (   0.5000000   0.0000000   0.5937500  )
        22           Pd  tau(  22) = (   0.7500000   0.2500000   0.5937500  )
        23           Pd  tau(  23) = (   0.7500000   0.0000000   0.8437500  )
        24           Pd  tau(  24) = (   0.5000000   0.2500000   0.8437500  )
        25           Pd  tau(  25) = (   0.5000000   0.5000000   0.0000000  )
        26           Pd  tau(  26) = (   0.7500000   0.7500000   0.0000000  )
        27           Pd  tau(  27) = (   0.7500000   0.5000000   0.2500000  )
        28           Pd  tau(  28) = (   0.5000000   0.7500000   0.2500000  )
        29           Pd  tau(  29) = (   0.5000000   0.5000000   0.5937500  )
        30           Pd  tau(  30) = (   0.7500000   0.7500000   0.5937500  )
        31           Pd  tau(  31) = (   0.7500000   0.5000000   0.8437500  )
        32           Pd  tau(  32) = (   0.5000000   0.7500000   0.8437500  )

     number of k points=    75  Marzari-Vanderbilt smearing, width (Ry)=  0.0400
                       cart. coord. in units 2pi/alat
        k(    1) = (   0.0555556   0.0555556   0.0507937), wk =   0.0219479
        k(    2) = (   0.0555556   0.0555556   0.1523810), wk =   0.0219479
        k(    3) = (   0.0555556   0.0555556   0.2539683), wk =   0.0219479
        k(    4) = (   0.0555556   0.0555556   0.3555556), wk =   0.0219479
        k(    5) = (   0.0555556   0.0555556  -0.4571429), wk =   0.0109739
        k(    6) = (   0.0555556   0.1666667   0.0507937), wk =   0.0438957
        k(    7) = (   0.0555556   0.1666667   0.1523810), wk =   0.0438957
        k(    8) = (   0.0555556   0.1666667   0.2539683), wk =   0.0438957
        k(    9) = (   0.0555556   0.1666667   0.3555556), wk =   0.0438957
        k(   10) = (   0.0555556   0.1666667  -0.4571429), wk =   0.0219479
        k(   11) = (   0.0555556   0.2777778   0.0507937), wk =   0.0438957
        k(   12) = (   0.0555556   0.2777778   0.1523810), wk =   0.0438957
        k(   13) = (   0.0555556   0.2777778   0.2539683), wk =   0.0438957
        k(   14) = (   0.0555556   0.2777778   0.3555556), wk =   0.0438957
        k(   15) = (   0.0555556   0.2777778  -0.4571429), wk =   0.0219479
        k(   16) = (   0.0555556   0.3888889   0.0507937), wk =   0.0438957
        k(   17) = (   0.0555556   0.3888889   0.1523810), wk =   0.0438957
        k(   18) = (   0.0555556   0.3888889   0.2539683), wk =   0.0438957
        k(   19) = (   0.0555556   0.3888889   0.3555556), wk =   0.0438957
        k(   20) = (   0.0555556   0.3888889  -0.4571429), wk =   0.0219479
        k(   21) = (   0.0555556  -0.5000000   0.0507937), wk =   0.0219479
        k(   22) = (   0.0555556  -0.5000000   0.1523810), wk =   0.0219479
        k(   23) = (   0.0555556  -0.5000000   0.2539683), wk =   0.0219479
        k(   24) = (   0.0555556  -0.5000000   0.3555556), wk =   0.0219479
        k(   25) = (   0.0555556  -0.5000000  -0.4571429), wk =   0.0109739
        k(   26) = (   0.1666667   0.1666667   0.0507937), wk =   0.0219479
        k(   27) = (   0.1666667   0.1666667   0.1523810), wk =   0.0219479
        k(   28) = (   0.1666667   0.1666667   0.2539683), wk =   0.0219479
        k(   29) = (   0.1666667   0.1666667   0.3555556), wk =   0.0219479
        k(   30) = (   0.1666667   0.1666667  -0.4571429), wk =   0.0109739
        k(   31) = (   0.1666667   0.2777778   0.0507937), wk =   0.0438957
        k(   32) = (   0.1666667   0.2777778   0.1523810), wk =   0.0438957
        k(   33) = (   0.1666667   0.2777778   0.2539683), wk =   0.0438957
        k(   34) = (   0.1666667   0.2777778   0.3555556), wk =   0.0438957
        k(   35) = (   0.1666667   0.2777778  -0.4571429), wk =   0.0219479
        k(   36) = (   0.1666667   0.3888889   0.0507937), wk =   0.0438957
        k(   37) = (   0.1666667   0.3888889   0.1523810), wk =   0.0438957
        k(   38) = (   0.1666667   0.3888889   0.2539683), wk =   0.0438957
        k(   39) = (   0.1666667   0.3888889   0.3555556), wk =   0.0438957
        k(   40) = (   0.1666667   0.3888889  -0.4571429), wk =   0.0219479
        k(   41) = (   0.1666667  -0.5000000   0.0507937), wk =   0.0219479
        k(   42) = (   0.1666667  -0.5000000   0.1523810), wk =   0.0219479
        k(   43) = (   0.1666667  -0.5000000   0.2539683), wk =   0.0219479
        k(   44) = (   0.1666667  -0.5000000   0.3555556), wk =   0.0219479
        k(   45) = (   0.1666667  -0.5000000  -0.4571429), wk =   0.0109739
        k(   46) = (   0.2777778   0.2777778   0.0507937), wk =   0.0219479
        k(   47) = (   0.2777778   0.2777778   0.1523810), wk =   0.0219479
        k(   48) = (   0.2777778   0.2777778   0.2539683), wk =   0.0219479
        k(   49) = (   0.2777778   0.2777778   0.3555556), wk =   0.0219479
        k(   50) = (   0.2777778   0.2777778  -0.4571429), wk =   0.0109739
        k(   51) = (   0.2777778   0.3888889   0.0507937), wk =   0.0438957
        k(   52) = (   0.2777778   0.3888889   0.1523810), wk =   0.0438957
        k(   53) = (   0.2777778   0.3888889   0.2539683), wk =   0.0438957
        k(   54) = (   0.2777778   0.3888889   0.3555556), wk =   0.0438957
        k(   55) = (   0.2777778   0.3888889  -0.4571429), wk =   0.0219479
        k(   56) = (   0.2777778  -0.5000000   0.0507937), wk =   0.0219479
        k(   57) = (   0.2777778  -0.5000000   0.1523810), wk =   0.0219479
        k(   58) = (   0.2777778  -0.5000000   0.2539683), wk =   0.0219479
        k(   59) = (   0.2777778  -0.5000000   0.3555556), wk =   0.0219479
        k(   60) = (   0.2777778  -0.5000000  -0.4571429), wk =   0.0109739
        k(   61) = (   0.3888889   0.3888889   0.0507937), wk =   0.0219479
        k(   62) = (   0.3888889   0.3888889   0.1523810), wk =   0.0219479
        k(   63) = (   0.3888889   0.3888889   0.2539683), wk =   0.0219479
        k(   64) = (   0.3888889   0.3888889   0.3555556), wk =   0.0219479
        k(   65) = (   0.3888889   0.3888889  -0.4571429), wk =   0.0109739
        k(   66) = (   0.3888889  -0.5000000   0.0507937), wk =   0.0219479
        k(   67) = (   0.3888889  -0.5000000   0.1523810), wk =   0.0219479
        k(   68) = (   0.3888889  -0.5000000   0.2539683), wk =   0.0219479
        k(   69) = (   0.3888889  -0.5000000   0.3555556), wk =   0.0219479
        k(   70) = (   0.3888889  -0.5000000  -0.4571429), wk =   0.0109739
        k(   71) = (  -0.5000000  -0.5000000   0.0507937), wk =   0.0054870
        k(   72) = (  -0.5000000  -0.5000000   0.1523810), wk =   0.0054870
        k(   73) = (  -0.5000000  -0.5000000   0.2539683), wk =   0.0054870
        k(   74) = (  -0.5000000  -0.5000000   0.3555556), wk =   0.0054870
        k(   75) = (  -0.5000000  -0.5000000  -0.4571429), wk =   0.0027435

     Dense  grid:   538331 G-vectors     FFT dimensions: ( 100, 100, 108)

     Smooth grid:   288715 G-vectors     FFT dimensions: (  80,  80,  90)

     Estimated max dynamical RAM per process >     244.12 MB

     Estimated total dynamical RAM >      17.16 GB

     Check: negative core charge=   -0.000002

     Initial potential from superposition of free atoms

     starting charge  575.98776, renormalised to  576.00000
     Starting wfcs are  320 randomized atomic wfcs +   26 random wfcs
     Checking if some PAW data can be deallocated... 

     total cpu time spent up to now is       24.6 secs

     Self-consistent Calculation

     iteration #  1     ecut=    71.00 Ry     beta= 0.10
     Davidson diagonalization with overlap
     ethr =  1.00E-02,  avg # of iterations =  3.1

     Threshold (ethr) on eigenvalues was too large:
     Diagonalizing with lowered threshold

     Davidson diagonalization with overlap
     ethr =  2.57E-04,  avg # of iterations =  2.2

     total cpu time spent up to now is      183.1 secs

     total energy              =  -16384.85945017 Ry
     estimated scf accuracy    <       1.45918426 Ry

     iteration #  2     ecut=    71.00 Ry     beta= 0.10
     Davidson diagonalization with overlap
     ethr =  2.53E-04,  avg # of iterations =  1.4

     total cpu time spent up to now is      247.3 secs

     total energy              =  -16384.57469907 Ry
     estimated scf accuracy    <       1.16976017 Ry

     iteration #  3     ecut=    71.00 Ry     beta= 0.10
     Davidson diagonalization with overlap
     ethr =  2.03E-04,  avg # of iterations =  2.6

     total cpu time spent up to now is      319.8 secs

     total energy              =  -16384.61141379 Ry
     estimated scf accuracy    <       0.41237095 Ry

     iteration #  4     ecut=    71.00 Ry     beta= 0.10
     Davidson diagonalization with overlap
     ethr =  7.16E-05,  avg # of iterations =  3.8

     total cpu time spent up to now is      394.2 secs

     total energy              =  -16384.64834521 Ry
     estimated scf accuracy    <       0.09516115 Ry

     iteration #  5     ecut=    71.00 Ry     beta= 0.10
     Davidson diagonalization with overlap
     c_bands:  1 eigenvalues not converged
     ethr =  1.65E-05,  avg # of iterations =  4.5

     total cpu time spent up to now is      469.6 secs

     total energy              =  -16384.59957768 Ry
     estimated scf accuracy    <       0.13683959 Ry

     iteration #  6     ecut=    71.00 Ry     beta= 0.10
     Davidson diagonalization with overlap
     ethr =  1.65E-05,  avg # of iterations =  3.5

     total cpu time spent up to now is      557.7 secs

     total energy              =  -16384.60850242 Ry
     estimated scf accuracy    <       0.01719693 Ry

     iteration #  7     ecut=    71.00 Ry     beta= 0.10
     Davidson diagonalization with overlap
     ethr =  2.99E-06,  avg # of iterations =  5.7

     total cpu time spent up to now is      651.9 secs

     total energy              =  -16384.61024188 Ry
     estimated scf accuracy    <       0.00545278 Ry

     iteration #  8     ecut=    71.00 Ry     beta= 0.10
     Davidson diagonalization with overlap
     ethr =  9.47E-07,  avg # of iterations =  1.1

     total cpu time spent up to now is      715.9 secs

     total energy              =  -16384.61001777 Ry
     estimated scf accuracy    <       0.00255085 Ry

     iteration #  9     ecut=    71.00 Ry     beta= 0.10
     Davidson diagonalization with overlap
     ethr =  4.43E-07,  avg # of iterations =  1.1

     total cpu time spent up to now is      780.0 secs

     total energy              =  -16384.61011975 Ry
     estimated scf accuracy    <       0.00050788 Ry

     iteration # 10     ecut=    71.00 Ry     beta= 0.10
     Davidson diagonalization with overlap
     ethr =  8.82E-08,  avg # of iterations =  2.0

     total cpu time spent up to now is      852.0 secs

     total energy              =  -16384.61014376 Ry
     estimated scf accuracy    <       0.00016938 Ry

     iteration # 11     ecut=    71.00 Ry     beta= 0.10
     Davidson diagonalization with overlap
     ethr =  2.94E-08,  avg # of iterations =  1.0

     total cpu time spent up to now is      915.1 secs

     total energy              =  -16384.61016156 Ry
     estimated scf accuracy    <       0.00008753 Ry

     iteration # 12     ecut=    71.00 Ry     beta= 0.10
     Davidson diagonalization with overlap
     ethr =  1.52E-08,  avg # of iterations =  1.3

     total cpu time spent up to now is      980.8 secs

     total energy              =  -16384.61016060 Ry
     estimated scf accuracy    <       0.00003521 Ry

     iteration # 13     ecut=    71.00 Ry     beta= 0.10
     Davidson diagonalization with overlap
     ethr =  6.11E-09,  avg # of iterations =  2.1

     total cpu time spent up to now is     1053.2 secs

     total energy              =  -16384.61016458 Ry
     estimated scf accuracy    <       0.00000824 Ry

     iteration # 14     ecut=    71.00 Ry     beta= 0.10
     Davidson diagonalization with overlap
     ethr =  1.43E-09,  avg # of iterations =  2.0

     total cpu time spent up to now is     1124.9 secs

     total energy              =  -16384.61016547 Ry
     estimated scf accuracy    <       0.00000348 Ry

     iteration # 15     ecut=    71.00 Ry     beta= 0.10
     Davidson diagonalization with overlap
     ethr =  6.04E-10,  avg # of iterations =  2.0

     total cpu time spent up to now is     1209.8 secs

     total energy              =  -16384.61016697 Ry
     estimated scf accuracy    <       0.00000146 Ry

     iteration # 16     ecut=    71.00 Ry     beta= 0.10
     Davidson diagonalization with overlap
     ethr =  2.53E-10,  avg # of iterations =  2.0

     total cpu time spent up to now is     1282.1 secs

     End of self-consistent calculation

          k = 0.0556 0.0556 0.0508 ( 36135 PWs)   bands (ev):

   -67.0589 -67.0366 -67.0366 -67.0324 -67.0324 -67.0278 -67.0270 -67.0262
   -67.0261 -67.0250 -67.0192 -67.0192 -67.0178 -67.0177 -67.0104 -67.0104
   -66.6422 -66.6402 -66.6276 -66.6276 -66.6265 -66.6265 -66.6260 -66.6258
   -66.6256 -66.6256 -66.6247 -66.6247 -66.6238 -66.6238 -66.6099 -66.6099
   -32.8987 -32.8987 -32.8987 -32.8969 -32.8879 -32.8879 -32.8660 -32.8327
   -32.8326 -32.8315 -32.8315 -32.8049 -32.8049 -32.7926 -32.7926 -32.7840
   -32.7840 -32.7831 -32.7831 -32.7721 -32.7720 -32.7358 -32.7358 -32.7311
   -32.7265 -32.7264 -32.7264 -32.7264 -32.7236 -32.7236 -32.7211 -32.7077
   -32.7077 -32.7009 -32.6931 -32.6931 -32.6893 -32.6856 -32.6685 -32.6685
   -32.6638 -32.6638 -32.6386 -32.6368 -32.6368 -32.6325 -32.6214 -32.6198
   -32.4631 -32.4631 -32.4629 -32.4611 -32.4600 -32.4600 -32.4501 -32.4501
   -32.3873 -32.3873 -32.3862 -32.3862 -32.3724 -32.3724 -32.3717 -32.3717
   -32.3699 -32.3699 -32.3681 -32.3681 -32.3551 -32.3551 -32.3533 -32.3533
   -32.3051 -32.2873 -32.2858 -32.2833 -32.2833 -32.2821 -32.2811 -32.2811
   -32.2806 -32.2780 -32.2772 -32.2772 -32.2765 -32.2730 -32.2724 -32.2724
   -32.2717 -32.2717 -32.2713 -32.2713 -32.2713 -32.2709 -32.2698 -32.2698
    10.5593  12.0702  12.2079  12.2079  12.2677  12.2778  12.2811  12.2811
    12.3868  12.4843  12.4843  12.4978  12.5320  12.5320  12.6982  12.7234
    12.7234  13.1000  13.1926  13.1926  13.1987  13.1987  13.2162  13.2162
    13.2637  13.2637  13.3561  13.3561  13.4003  13.4186  13.4309  13.4309
    13.4791  13.4791  13.5282  13.5283  13.5447  13.5447  13.5969  13.5969
    13.6927  13.7359  13.7359  13.7475  13.7475  13.8577  13.8577  13.8675
    13.8675  14.0102  14.0102  14.0808  14.1137  14.1137  14.1307  14.1307
    14.1965  14.2246  14.2246  14.2587  14.3017  14.3061  14.3061  14.3237
    14.3602  14.3602  14.3663  14.3663  14.4110  14.4110  14.5090  14.5090
    14.5480  14.5480  14.5547  14.5585  14.5897  14.6004  14.6156  14.6532
    14.6532  14.6532  14.7217  14.7217  14.8095  14.8095  14.9294  14.9680
    14.9680  15.2347  15.2347  15.3191  15.3191  15.3218  15.3218  15.3636
    15.3750  15.4008  15.4008  15.4257  15.4257  15.4964  15.4964  15.5218
    15.5218  15.5285  15.5297  15.5297  15.5551  15.5901  15.6260  15.6260
    15.6485  15.6485  15.7830  15.7871  15.7872  15.8260  15.8261  16.0072
    16.0072  16.0129  16.0313  16.0313  16.0679  16.0679  16.1236  16.1236
    16.1632  16.1632  16.2173  16.2272  16.2272  16.2274  16.2891  16.2891
    16.2935  16.2935  16.3002  16.3720  16.3880  16.3880  16.4780  16.8146
    16.8322  16.8322  16.8386  16.8994  16.8995  16.9227  16.9519  16.9519
    16.9561  16.9748  16.9748  16.9973  17.0235  17.1502  17.1502  17.1573
    17.1578  17.1578  17.2209  17.2779  17.2779  17.6013  17.6013  18.2126
    18.4414  18.4414  18.4978  18.5028  18.5028  18.8833  18.8913  18.8913
    18.9759  18.9759  19.4191  19.4191  19.5013  19.5013  19.7338  19.9704
    20.9368  20.9368  23.3003  23.3003  23.3189  23.4441  24.2818  24.2818
    24.4219  24.6791  24.6791  24.9054  24.9054  25.5941  25.5941  25.6002
    25.6002  25.7905  25.7905  25.9698  25.9698  26.3257  26.3257  26.9666
    27.1392  27.1392  27.3008  27.3008  27.4101  27.5760  27.5761  28.1675
    28.1676  28.3398

          k = 0.0556 0.0556 0.1524 ( 36135 PWs)   bands (ev):

   -67.0589 -67.0366 -67.0366 -67.0324 -67.0324 -67.0278 -67.0270 -67.0262
   -67.0261 -67.0250 -67.0192 -67.0192 -67.0178 -67.0177 -67.0104 -67.0104
   -66.6422 -66.6402 -66.6276 -66.6276 -66.6265 -66.6265 -66.6260 -66.6258
   -66.6256 -66.6256 -66.6247 -66.6247 -66.6238 -66.6238 -66.6099 -66.6099
   -32.8987 -32.8986 -32.8986 -32.8969 -32.8879 -32.8879 -32.8660 -32.8327
   -32.8327 -32.8316 -32.8316 -32.8049 -32.8049 -32.7926 -32.7926 -32.7840
   -32.7840 -32.7831 -32.7831 -32.7720 -32.7720 -32.7358 -32.7358 -32.7312
   -32.7265 -32.7265 -32.7265 -32.7264 -32.7236 -32.7236 -32.7211 -32.7077
   -32.7077 -32.7012 -32.6931 -32.6931 -32.6893 -32.6857 -32.6685 -32.6684
   -32.6638 -32.6638 -32.6387 -32.6368 -32.6367 -32.6325 -32.6214 -32.6198
   -32.4630 -32.4630 -32.4628 -32.4610 -32.4596 -32.4596 -32.4505 -32.4505
   -32.3872 -32.3872 -32.3861 -32.3861 -32.3725 -32.3724 -32.3714 -32.3714
   -32.3699 -32.3699 -32.3682 -32.3682 -32.3552 -32.3552 -32.3534 -32.3534
   -32.3040 -32.2872 -32.2857 -32.2836 -32.2836 -32.2822 -32.2813 -32.2813
   -32.2808 -32.2782 -32.2772 -32.2772 -32.2763 -32.2742 -32.2723 -32.2723
   -32.2715 -32.2715 -32.2713 -32.2711 -32.2711 -32.2709 -32.2699 -32.2699
    10.6023  12.0203  12.2235  12.2235  12.2802  12.2983  12.2983  12.2989
    12.3488  12.3925  12.5004  12.5004  12.5544  12.5544  12.7447  12.7447
    12.7813  13.0753  13.1612  13.1612  13.2061  13.2061  13.2268  13.2268
    13.2668  13.2668  13.3125  13.3378  13.3378  13.3521  13.3521  13.3580
    13.4770  13.4770  13.5161  13.5161  13.5405  13.5405  13.6220  13.6220
    13.6538  13.6538  13.7283  13.7341  13.7341  13.8496  13.8496  13.8556
    13.8556  14.0076  14.0076  14.0552  14.0930  14.0930  14.1143  14.1143
    14.1839  14.1839  14.1915  14.2415  14.2965  14.2965  14.3185  14.3236
    14.3236  14.3329  14.3329  14.3515  14.4557  14.4557  14.5433  14.5433
    14.5596  14.5667  14.5768  14.5768  14.5992  14.6098  14.7390  14.7514
    14.7514  14.7868  14.8029  14.8029  14.8718  14.8718  14.9630  14.9630
    14.9668  15.1440  15.1440  15.2396  15.2396  15.3073  15.3073  15.3354
    15.3577  15.3786  15.3786  15.4555  15.4555  15.4800  15.5008  15.5121
    15.5121  15.5526  15.5526  15.5707  15.5707  15.6424  15.6424  15.6589
    15.6589  15.7048  15.7917  15.7917  15.8390  15.8497  15.8497  15.9568
    15.9568  16.0137  16.0346  16.0346  16.0863  16.0863  16.1715  16.1715
    16.2301  16.2301  16.2549  16.2778  16.2778  16.2882  16.3170  16.3170
    16.3893  16.3893  16.4035  16.4043  16.4837  16.5156  16.5156  16.6226
    16.6825  16.6825  16.8121  16.8121  16.8230  16.8487  16.8730  16.8730
    16.8978  16.9426  16.9426  16.9432  17.0160  17.1111  17.1111  17.1184
    17.1184  17.1192  17.1883  17.2802  17.2802  17.6027  17.6027  18.0776
    18.0776  18.2031  18.5147  18.5147  18.6286  18.6286  18.7971  18.8610
    19.3842  19.3946  19.3946  19.4283  19.4283  19.9451  19.9545  19.9545
    21.1060  21.1060  23.2888  23.3946  23.3946  23.5302  23.5302  23.6279
    24.0890  24.0890  24.2271  24.2271  24.8024  25.6968  25.6968  26.2093
    26.2093  26.2667  26.2667  26.3576  26.5426  26.5426  26.7835  26.7835
    26.7942  26.7942  27.1657  27.1657  27.2111  27.5715  27.5715  27.8557
    27.8557  28.2656

          k = 0.0556 0.0556 0.2540 ( 36096 PWs)   bands (ev):

   -67.0589 -67.0366 -67.0366 -67.0324 -67.0324 -67.0278 -67.0270 -67.0262
   -67.0261 -67.0250 -67.0192 -67.0192 -67.0178 -67.0177 -67.0104 -67.0104
   -66.6421 -66.6402 -66.6276 -66.6276 -66.6265 -66.6265 -66.6260 -66.6258
   -66.6256 -66.6256 -66.6247 -66.6247 -66.6238 -66.6238 -66.6099 -66.6099
   -32.8986 -32.8985 -32.8985 -32.8968 -32.8878 -32.8878 -32.8658 -32.8327
   -32.8327 -32.8316 -32.8315 -32.8049 -32.8049 -32.7926 -32.7926 -32.7841
   -32.7841 -32.7831 -32.7831 -32.7720 -32.7720 -32.7358 -32.7358 -32.7315
   -32.7267 -32.7266 -32.7265 -32.7265 -32.7235 -32.7235 -32.7213 -32.7078
   -32.7077 -32.7015 -32.6932 -32.6932 -32.6893 -32.6858 -32.6684 -32.6684
   -32.6638 -32.6637 -32.6385 -32.6368 -32.6367 -32.6324 -32.6215 -32.6198
   -32.4628 -32.4628 -32.4626 -32.4607 -32.4589 -32.4589 -32.4512 -32.4512
   -32.3870 -32.3870 -32.3860 -32.3860 -32.3725 -32.3725 -32.3711 -32.3711
   -32.3698 -32.3698 -32.3684 -32.3684 -32.3552 -32.3552 -32.3535 -32.3535
   -32.3018 -32.2870 -32.2854 -32.2840 -32.2840 -32.2824 -32.2816 -32.2816
   -32.2809 -32.2785 -32.2773 -32.2773 -32.2762 -32.2761 -32.2723 -32.2723
   -32.2713 -32.2711 -32.2710 -32.2708 -32.2707 -32.2707 -32.2699 -32.2699
    10.6794  11.8816  12.2493  12.2493  12.2673  12.3062  12.3272  12.3272
    12.3294  12.4015  12.5274  12.5274  12.5922  12.5922  12.7806  12.7807
    12.8209  13.0403  13.1123  13.1123  13.2068  13.2178  13.2178  13.2414
    13.2414  13.2448  13.2448  13.2589  13.2695  13.2695  13.3057  13.3057
    13.4752  13.4752  13.5108  13.5108  13.5321  13.5321  13.5340  13.5340
    13.6525  13.6525  13.7300  13.7300  13.7835  13.8356  13.8356  13.8360
    13.8360  13.9957  13.9957  14.0374  14.0732  14.0732  14.1063  14.1063
    14.1296  14.1296  14.1909  14.2114  14.2214  14.2214  14.2613  14.2613
    14.3248  14.3425  14.3425  14.3660  14.5161  14.5161  14.5693  14.5710
    14.5710  14.5778  14.6150  14.6197  14.6197  14.6254  14.7941  14.7941
    14.9490  14.9490  14.9554  14.9554  14.9714  15.0015  15.0230  15.0343
    15.0343  15.0998  15.0998  15.1024  15.1024  15.2942  15.2942  15.2998
    15.3262  15.3526  15.3526  15.4145  15.4227  15.4869  15.4870  15.5124
    15.5124  15.6079  15.6079  15.6378  15.6378  15.6709  15.6709  15.7043
    15.7043  15.7063  15.8130  15.8130  15.8653  15.8653  15.9216  15.9216
    15.9816  15.9816  16.0154  16.1248  16.1491  16.1491  16.1814  16.1814
    16.2971  16.2971  16.3160  16.3352  16.3352  16.3564  16.3571  16.3616
    16.3616  16.4546  16.4995  16.4995  16.5118  16.5165  16.5665  16.5665
    16.6000  16.6062  16.6062  16.7586  16.7586  16.7962  16.7963  16.8585
    16.8628  16.9014  16.9014  16.9172  17.0031  17.0424  17.0424  17.0483
    17.0483  17.0514  17.1310  17.2819  17.2819  17.6042  17.6042  17.7230
    17.7230  18.1318  18.1318  18.3139  18.7972  18.8103  18.8104  18.8256
    19.1320  19.3434  19.3434  19.8890  19.9591  19.9591  20.4907  20.4907
    21.4046  21.4046  22.7288  22.7288  23.2769  23.2769  23.3602  23.5671
    23.5671  23.6957  23.6957  23.8213  25.3917  25.8335  25.8789  25.8789
    26.2182  26.2182  26.5345  26.5345  26.6526  26.6526  26.6763  27.2275
    27.2275  27.2755  27.2755  27.3043  27.3043  27.5710  27.5710  27.6195
    27.6195  28.0191

          k = 0.0556 0.0556 0.3556 ( 36038 PWs)   bands (ev):

   -67.0589 -67.0366 -67.0366 -67.0324 -67.0324 -67.0278 -67.0270 -67.0262
   -67.0261 -67.0250 -67.0192 -67.0192 -67.0178 -67.0177 -67.0104 -67.0104
   -66.6421 -66.6402 -66.6276 -66.6276 -66.6265 -66.6265 -66.6260 -66.6258
   -66.6256 -66.6256 -66.6247 -66.6247 -66.6238 -66.6238 -66.6099 -66.6099
   -32.8985 -32.8985 -32.8984 -32.8966 -32.8878 -32.8878 -32.8658 -32.8327
   -32.8327 -32.8315 -32.8315 -32.8048 -32.8048 -32.7925 -32.7925 -32.7842
   -32.7842 -32.7830 -32.7829 -32.7719 -32.7719 -32.7359 -32.7358 -32.7316
   -32.7268 -32.7268 -32.7265 -32.7264 -32.7235 -32.7235 -32.7214 -32.7078
   -32.7077 -32.7018 -32.6931 -32.6931 -32.6893 -32.6860 -32.6684 -32.6684
   -32.6637 -32.6637 -32.6385 -32.6367 -32.6367 -32.6324 -32.6214 -32.6198
   -32.4626 -32.4626 -32.4624 -32.4604 -32.4582 -32.4582 -32.4520 -32.4520
   -32.3868 -32.3868 -32.3859 -32.3859 -32.3724 -32.3724 -32.3709 -32.3709
   -32.3696 -32.3696 -32.3687 -32.3686 -32.3552 -32.3552 -32.3536 -32.3536
   -32.2994 -32.2868 -32.2852 -32.2842 -32.2842 -32.2826 -32.2818 -32.2818
   -32.2812 -32.2788 -32.2785 -32.2773 -32.2773 -32.2759 -32.2723 -32.2723
   -32.2712 -32.2708 -32.2707 -32.2707 -32.2705 -32.2705 -32.2699 -32.2699
    10.7650  11.7197  12.2486  12.2741  12.2741  12.3366  12.3551  12.3562
    12.3562  12.4099  12.5540  12.5540  12.6301  12.6301  12.8164  12.8164
    12.8312  13.0114  13.0680  13.0680  13.1298  13.1575  13.1575  13.1681
    13.2282  13.2282  13.2397  13.2397  13.2683  13.2683  13.2863  13.2863
    13.4407  13.4407  13.4765  13.4765  13.5122  13.5122  13.5218  13.5218
    13.6792  13.6792  13.7235  13.7236  13.8145  13.8145  13.8222  13.8222
    13.8357  13.9799  13.9799  14.0309  14.0727  14.0727  14.0870  14.0870
    14.1049  14.1049  14.1540  14.1540  14.1791  14.1917  14.2087  14.2087
    14.3227  14.3426  14.3426  14.3723  14.5795  14.5868  14.5882  14.5882
    14.5905  14.5905  14.6301  14.6403  14.6645  14.6645  14.7898  14.7898
    14.9395  14.9395  14.9470  14.9470  14.9686  14.9686  15.0768  15.1471
    15.1471  15.2379  15.2504  15.2724  15.2841  15.2841  15.2964  15.3317
    15.3317  15.3553  15.3621  15.3738  15.3738  15.4991  15.4991  15.5157
    15.5157  15.6699  15.6699  15.6843  15.6880  15.6880  15.7047  15.7047
    15.7679  15.7679  15.8433  15.8433  15.8554  15.8554  15.9094  15.9094
    15.9214  15.9214  16.0172  16.0735  16.0735  16.0896  16.0945  16.0945
    16.1713  16.2751  16.2751  16.3768  16.3853  16.3960  16.3960  16.4005
    16.4394  16.4394  16.4488  16.4488  16.4969  16.4969  16.4996  16.5900
    16.7062  16.7062  16.8029  16.8029  16.8207  16.8598  16.8598  16.8676
    16.8776  16.8867  16.9658  16.9658  16.9695  16.9695  16.9932  17.0440
    17.0508  17.0508  17.0679  17.2828  17.2828  17.3932  17.3932  17.6051
    17.6051  17.7717  17.7717  18.1936  18.4604  18.7125  18.9905  18.9905
    19.2620  19.2620  19.4170  19.7914  20.5476  20.5476  21.0787  21.0787
    21.7571  21.7571  21.9673  21.9673  22.5179  22.5179  23.2077  23.2077
    23.5278  23.7659  23.7659  23.9018  25.5757  25.7551  25.7551  25.9618
    26.1248  26.1248  26.1395  26.7828  26.7828  26.9412  26.9413  26.9639
    26.9639  27.3410  27.3410  27.5240  27.5241  27.6117  27.6117  27.9649
    27.9649  28.0546

          k = 0.0556 0.0556-0.4571 ( 36022 PWs)   bands (ev):

   -67.0589 -67.0366 -67.0366 -67.0324 -67.0324 -67.0278 -67.0270 -67.0262
   -67.0261 -67.0250 -67.0192 -67.0192 -67.0178 -67.0177 -67.0104 -67.0104
   -66.6421 -66.6402 -66.6276 -66.6276 -66.6265 -66.6265 -66.6260 -66.6258
   -66.6256 -66.6256 -66.6247 -66.6247 -66.6238 -66.6238 -66.6099 -66.6099
   -32.8985 -32.8984 -32.8984 -32.8966 -32.8877 -32.8877 -32.8657 -32.8327
   -32.8327 -32.8315 -32.8315 -32.8049 -32.8048 -32.7926 -32.7926 -32.7842
   -32.7842 -32.7829 -32.7829 -32.7719 -32.7719 -32.7358 -32.7358 -32.7317
   -32.7269 -32.7269 -32.7265 -32.7264 -32.7235 -32.7235 -32.7214 -32.7077
   -32.7077 -32.7019 -32.6932 -32.6932 -32.6893 -32.6860 -32.6684 -32.6684
   -32.6637 -32.6637 -32.6385 -32.6367 -32.6367 -32.6324 -32.6214 -32.6198
   -32.4625 -32.4625 -32.4624 -32.4604 -32.4578 -32.4578 -32.4523 -32.4523
   -32.3868 -32.3868 -32.3858 -32.3858 -32.3724 -32.3724 -32.3708 -32.3708
   -32.3695 -32.3695 -32.3688 -32.3688 -32.3552 -32.3552 -32.3537 -32.3537
   -32.2984 -32.2867 -32.2851 -32.2844 -32.2844 -32.2825 -32.2819 -32.2819
   -32.2812 -32.2795 -32.2788 -32.2773 -32.2773 -32.2759 -32.2723 -32.2723
   -32.2712 -32.2708 -32.2706 -32.2706 -32.2703 -32.2703 -32.2699 -32.2699
    10.8066  11.6474  12.2465  12.2846  12.2846  12.3529  12.3629  12.3689
    12.3689  12.4133  12.5653  12.5653  12.6467  12.6467  12.8319  12.8319
    12.8320  13.0004  13.0502  13.0502  13.1058  13.1239  13.1239  13.1274
    13.2290  13.2290  13.2324  13.2325  13.2664  13.2664  13.2870  13.2871
    13.4054  13.4054  13.4785  13.4785  13.5138  13.5138  13.5163  13.5163
    13.6921  13.6921  13.7184  13.7184  13.8049  13.8049  13.8162  13.8162
    13.8583  13.9742  13.9742  14.0297  14.0712  14.0712  14.0823  14.0823
    14.1050  14.1050  14.1193  14.1193  14.1638  14.1884  14.1884  14.1921
    14.3211  14.3419  14.3419  14.3740  14.5842  14.5900  14.5944  14.5944
    14.6364  14.6366  14.6366  14.6466  14.6873  14.6873  14.7924  14.7924
    14.8946  14.8946  14.8972  14.8972  14.9478  14.9478  15.1013  15.2039
    15.2039  15.2627  15.2803  15.2803  15.2840  15.3267  15.3423  15.3726
    15.4277  15.4479  15.4479  15.4590  15.4590  15.5008  15.5008  15.5169
    15.5169  15.6742  15.6941  15.6942  15.7089  15.7089  15.7370  15.7370
    15.8092  15.8093  15.8333  15.8334  15.8366  15.8366  15.8857  15.8857
    15.9137  15.9137  15.9362  15.9362  15.9504  15.9661  16.0180  16.0545
    16.0545  16.2396  16.2396  16.3760  16.3760  16.3901  16.4044  16.4881
    16.4881  16.4903  16.4903  16.5082  16.5167  16.5167  16.5171  16.6351
    16.6539  16.6539  16.8050  16.8401  16.8401  16.8609  16.8716  16.8761
    16.9289  16.9289  16.9297  16.9297  16.9955  17.0344  17.0414  17.0414
    17.1260  17.1260  17.2827  17.2827  17.2830  17.2830  17.4194  17.5183
    17.5183  17.6054  17.6054  17.6822  18.5946  18.6025  19.1274  19.1274
    19.1610  19.1610  19.6258  19.6493  21.0622  21.0622  21.3936  21.3936
    21.5674  21.5674  21.9635  21.9635  21.9712  21.9712  22.9575  22.9575
    23.6977  23.8188  23.8664  23.8664  25.5639  25.5639  25.6541  25.7833
    26.2176  26.3101  26.3101  26.7293  26.7293  26.9739  26.9739  27.0182
    27.0182  27.3141  27.3141  27.4001  27.4002  27.6932  27.6932  28.2231
    28.2231  28.2500

          k = 0.0556 0.1667 0.0508 ( 36107 PWs)   bands (ev):

   -67.0582 -67.0408 -67.0363 -67.0322 -67.0294 -67.0282 -67.0273 -67.0267
   -67.0245 -67.0239 -67.0206 -67.0194 -67.0180 -67.0163 -67.0112 -67.0107
   -66.6417 -66.6397 -66.6303 -66.6291 -66.6275 -66.6265 -66.6263 -66.6259
   -66.6255 -66.6253 -66.6248 -66.6239 -66.6220 -66.6212 -66.6104 -66.6104
   -32.8972 -32.8954 -32.8953 -32.8921 -32.8850 -32.8849 -32.8646 -32.8368
   -32.8365 -32.8364 -32.8343 -32.8239 -32.8190 -32.8127 -32.7904 -32.7862
   -32.7816 -32.7814 -32.7638 -32.7582 -32.7524 -32.7434 -32.7391 -32.7353
   -32.7313 -32.7302 -32.7283 -32.7224 -32.7221 -32.7216 -32.7157 -32.7111
   -32.7084 -32.6987 -32.6916 -32.6832 -32.6788 -32.6782 -32.6745 -32.6694
   -32.6647 -32.6606 -32.6439 -32.6434 -32.6382 -32.6313 -32.6265 -32.6213
   -32.4623 -32.4608 -32.4597 -32.4578 -32.4573 -32.4565 -32.4473 -32.4472
   -32.4026 -32.4021 -32.4017 -32.4002 -32.3885 -32.3881 -32.3847 -32.3828
   -32.3575 -32.3569 -32.3534 -32.3516 -32.3407 -32.3390 -32.3388 -32.3371
   -32.3042 -32.2914 -32.2869 -32.2864 -32.2858 -32.2830 -32.2818 -32.2808
   -32.2790 -32.2789 -32.2784 -32.2775 -32.2759 -32.2759 -32.2757 -32.2732
   -32.2730 -32.2723 -32.2721 -32.2720 -32.2715 -32.2708 -32.2703 -32.2698
    10.6309  12.1210  12.2409  12.2437  12.2519  12.2883  12.3094  12.3191
    12.3285  12.4267  12.5097  12.5147  12.5488  12.5564  12.7476  12.7525
    12.7885  13.0960  13.1148  13.1234  13.1308  13.1404  13.1480  13.2355
    13.2359  13.2474  13.2476  13.3019  13.3233  13.3612  13.3683  13.3967
    13.4057  13.4382  13.4600  13.4731  13.5407  13.5874  13.5906  13.5930
    13.6289  13.7148  13.7373  13.7570  13.8514  13.8534  13.8670  13.8726
    13.9884  14.0090  14.0108  14.0245  14.0872  14.1319  14.1601  14.1782
    14.1972  14.2307  14.2372  14.2543  14.2713  14.2888  14.2908  14.2964
    14.3277  14.3706  14.4094  14.4156  14.4855  14.4937  14.5032  14.5481
    14.5558  14.5586  14.5645  14.5647  14.6119  14.6159  14.6453  14.6591
    14.6675  14.6792  14.6831  14.6864  14.7227  14.8092  14.8742  14.9819
    15.0734  15.1069  15.1511  15.1639  15.2241  15.2345  15.3380  15.3501
    15.3538  15.3981  15.4297  15.4383  15.4656  15.4733  15.4797  15.4811
    15.4897  15.5025  15.5109  15.5559  15.6136  15.6253  15.6381  15.7655
    15.7999  15.8105  15.8266  15.8397  15.9157  15.9418  15.9780  16.0278
    16.0332  16.0396  16.0739  16.0936  16.1138  16.1468  16.1485  16.1523
    16.1640  16.2018  16.2212  16.2417  16.2705  16.3249  16.3332  16.3416
    16.3432  16.3516  16.4430  16.4493  16.4773  16.4921  16.5964  16.6089
    16.6134  16.6792  16.7957  16.8451  16.8454  16.8694  16.9039  16.9184
    16.9260  16.9305  16.9565  16.9823  16.9954  17.0156  17.1149  17.1192
    17.1351  17.1461  17.1670  17.2110  17.2188  17.4805  17.5222  18.0537
    18.0647  18.3830  18.4232  18.5051  18.5690  18.5796  18.8134  18.8844
    18.9191  18.9643  19.4209  19.4959  20.0174  20.0185  20.0874  20.5539
    20.5765  21.1934  23.3398  23.4700  23.5240  23.6298  23.7414  24.0739
    24.3720  24.4552  24.8279  24.8669  24.9026  24.9465  24.9829  25.3309
    25.3856  25.4832  25.7645  25.9071  26.0086  26.3523  26.5948  26.9887
    27.0017  27.2390  27.2441  27.3789  27.4549  27.6318  27.7336  27.7816
    27.8384  27.9748

          k = 0.0556 0.1667 0.1524 ( 36097 PWs)   bands (ev):

   -67.0582 -67.0408 -67.0363 -67.0322 -67.0294 -67.0282 -67.0273 -67.0267
   -67.0245 -67.0239 -67.0206 -67.0194 -67.0180 -67.0163 -67.0112 -67.0107
   -66.6417 -66.6397 -66.6303 -66.6291 -66.6275 -66.6265 -66.6263 -66.6259
   -66.6255 -66.6253 -66.6248 -66.6239 -66.6220 -66.6212 -66.6104 -66.6104
   -32.8971 -32.8953 -32.8952 -32.8920 -32.8849 -32.8849 -32.8645 -32.8368
   -32.8365 -32.8365 -32.8343 -32.8239 -32.8189 -32.8127 -32.7903 -32.7863
   -32.7816 -32.7815 -32.7637 -32.7582 -32.7524 -32.7434 -32.7392 -32.7355
   -32.7314 -32.7301 -32.7283 -32.7224 -32.7220 -32.7217 -32.7157 -32.7113
   -32.7083 -32.6988 -32.6916 -32.6833 -32.6788 -32.6784 -32.6745 -32.6694
   -32.6647 -32.6606 -32.6438 -32.6433 -32.6382 -32.6313 -32.6265 -32.6213
   -32.4623 -32.4606 -32.4597 -32.4574 -32.4571 -32.4563 -32.4476 -32.4476
   -32.4027 -32.4018 -32.4015 -32.4002 -32.3889 -32.3876 -32.3846 -32.3829
   -32.3577 -32.3565 -32.3533 -32.3517 -32.3408 -32.3389 -32.3389 -32.3372
   -32.3032 -32.2913 -32.2868 -32.2864 -32.2860 -32.2834 -32.2819 -32.2811
   -32.2793 -32.2791 -32.2786 -32.2775 -32.2760 -32.2755 -32.2755 -32.2740
   -32.2731 -32.2722 -32.2719 -32.2717 -32.2713 -32.2707 -32.2703 -32.2699
    10.6733  12.0736  12.2595  12.2663  12.2664  12.2954  12.3309  12.3326
    12.3489  12.3989  12.4330  12.5256  12.5299  12.5718  12.7611  12.8099
    12.8341  13.1000  13.1071  13.1163  13.1257  13.1303  13.1335  13.2032
    13.2041  13.2516  13.2588  13.2770  13.2792  13.2932  13.3451  13.3666
    13.3740  13.3959  13.4271  13.4502  13.5550  13.5873  13.5993  13.6121
    13.6514  13.6525  13.6659  13.7493  13.8384  13.8449  13.8611  13.8782
    13.9741  13.9769  13.9876  14.0010  14.0726  14.1058  14.1210  14.1567
    14.1656  14.2037  14.2360  14.2718  14.2833  14.3022  14.3106  14.3540
    14.3717  14.3931  14.4119  14.4563  14.4701  14.5030  14.5329  14.5344
    14.5485  14.5761  14.5821  14.5830  14.6182  14.6539  14.6958  14.7067
    14.7153  14.7348  14.7658  14.8262  14.8485  14.8682  14.8772  14.9749
    15.0521  15.0959  15.1329  15.1344  15.1533  15.1978  15.3395  15.3547
    15.3661  15.3672  15.4036  15.4187  15.4496  15.4612  15.4813  15.4818
    15.4973  15.4990  15.5154  15.5717  15.6210  15.6229  15.6536  15.7279
    15.8024  15.8226  15.8304  15.8543  15.9276  15.9455  15.9798  15.9941
    16.0283  16.0626  16.0767  16.0812  16.0896  16.1370  16.1838  16.2105
    16.2193  16.2317  16.3021  16.3072  16.3339  16.3725  16.3817  16.3874
    16.3882  16.4202  16.4282  16.4390  16.5017  16.5173  16.5323  16.6014
    16.6514  16.7309  16.7349  16.7381  16.7785  16.7901  16.8246  16.8834
    16.9357  16.9362  16.9395  16.9470  16.9813  16.9901  17.0842  17.0870
    17.1088  17.1279  17.1608  17.1876  17.2137  17.4878  17.5239  17.7087
    17.8914  18.0579  18.3655  18.5031  18.5069  18.8911  18.9500  18.9964
    19.0358  19.0657  19.4247  19.6647  19.9554  19.9994  20.5378  20.5517
    20.7199  21.3508  22.9610  23.3086  23.3719  23.6021  23.6442  23.6615
    23.9506  24.1498  24.3775  24.6425  24.8476  24.9519  25.0016  25.3505
    25.5142  25.9918  26.0389  26.3300  26.3838  26.5055  26.6379  27.0608
    27.0904  27.2061  27.2493  27.2519  27.3367  27.5122  27.5337  27.6032
    27.7944  27.9609

          k = 0.0556 0.1667 0.2540 ( 36088 PWs)   bands (ev):

   -67.0582 -67.0408 -67.0363 -67.0322 -67.0294 -67.0282 -67.0273 -67.0267
   -67.0245 -67.0239 -67.0206 -67.0194 -67.0180 -67.0163 -67.0112 -67.0107
   -66.6417 -66.6397 -66.6303 -66.6291 -66.6275 -66.6265 -66.6263 -66.6259
   -66.6255 -66.6253 -66.6248 -66.6239 -66.6220 -66.6212 -66.6104 -66.6104
   -32.8970 -32.8952 -32.8951 -32.8919 -32.8849 -32.8849 -32.8644 -32.8368
   -32.8366 -32.8364 -32.8343 -32.8240 -32.8189 -32.8127 -32.7903 -32.7863
   -32.7817 -32.7816 -32.7636 -32.7581 -32.7523 -32.7435 -32.7392 -32.7358
   -32.7316 -32.7301 -32.7283 -32.7224 -32.7221 -32.7218 -32.7159 -32.7117
   -32.7083 -32.6988 -32.6916 -32.6833 -32.6788 -32.6785 -32.6745 -32.6693
   -32.6646 -32.6606 -32.6438 -32.6433 -32.6382 -32.6313 -32.6265 -32.6213
   -32.4621 -32.4604 -32.4596 -32.4568 -32.4566 -32.4561 -32.4482 -32.4481
   -32.4029 -32.4016 -32.4012 -32.4003 -32.3891 -32.3872 -32.3845 -32.3832
   -32.3579 -32.3562 -32.3531 -32.3518 -32.3410 -32.3390 -32.3388 -32.3373
   -32.3015 -32.2911 -32.2867 -32.2863 -32.2863 -32.2837 -32.2821 -32.2815
   -32.2799 -32.2793 -32.2788 -32.2775 -32.2761 -32.2758 -32.2754 -32.2752
   -32.2731 -32.2722 -32.2716 -32.2712 -32.2709 -32.2705 -32.2702 -32.2699
    10.7493  11.9390  12.2856  12.2906  12.3097  12.3160  12.3164  12.3557
    12.3617  12.3780  12.4413  12.5520  12.5544  12.5973  12.7833  12.8461
    12.8722  13.0733  13.0934  13.0960  13.1062  13.1204  13.1408  13.1528
    13.1565  13.1798  13.2339  13.2377  13.2590  13.2778  13.2792  13.2818
    13.2924  13.3948  13.4399  13.4764  13.5422  13.5490  13.5819  13.5851
    13.6117  13.6243  13.6698  13.8028  13.8120  13.8145  13.8469  13.9307
    13.9442  13.9494  13.9502  13.9889  14.0248  14.0332  14.0959  14.1220
    14.1626  14.1775  14.2322  14.2398  14.3072  14.3091  14.3252  14.3355
    14.3773  14.3852  14.3915  14.4267  14.4892  14.5671  14.5734  14.5820
    14.5850  14.5947  14.6028  14.6243  14.6307  14.6681  14.7444  14.8229
    14.8427  14.8683  14.8850  14.9422  14.9614  14.9755  15.0050  15.0258
    15.0474  15.0640  15.0893  15.0912  15.1564  15.1747  15.2465  15.3338
    15.3342  15.3445  15.3610  15.3951  15.3957  15.4180  15.4264  15.4528
    15.5037  15.5041  15.5703  15.5721  15.6819  15.7059  15.7122  15.7497
    15.8201  15.8586  15.8749  15.8910  15.9031  15.9043  15.9671  16.0259
    16.0329  16.0472  16.0472  16.1131  16.1382  16.1479  16.1656  16.1666
    16.1727  16.2237  16.3095  16.3374  16.3883  16.3953  16.4276  16.4298
    16.4319  16.4576  16.4674  16.5014  16.5162  16.5326  16.5506  16.5678
    16.5809  16.5881  16.7362  16.7481  16.7534  16.7894  16.8120  16.8695
    16.9225  16.9333  16.9360  16.9641  17.0238  17.0296  17.0302  17.0314
    17.0579  17.0716  17.1338  17.1764  17.2156  17.3895  17.4960  17.5255
    17.7041  17.9028  18.1257  18.3109  18.5269  18.6325  18.8474  19.1110
    19.3338  19.4467  19.4677  19.9563  19.9665  20.4905  20.5000  21.0110
    21.0728  21.6323  22.1866  22.7873  23.1527  23.3102  23.3258  23.3834
    23.8375  23.8505  23.8646  24.0272  25.1150  25.1906  25.4511  25.6487
    25.6793  25.8069  25.8501  26.4055  26.7060  26.7677  26.7751  26.8279
    26.8722  27.1776  27.2565  27.3243  27.5286  27.6453  27.6529  27.7921
    27.9317  27.9577

          k = 0.0556 0.1667 0.3556 ( 36073 PWs)   bands (ev):

   -67.0582 -67.0408 -67.0363 -67.0322 -67.0294 -67.0282 -67.0273 -67.0267
   -67.0245 -67.0239 -67.0206 -67.0194 -67.0180 -67.0163 -67.0112 -67.0107
   -66.6417 -66.6398 -66.6303 -66.6291 -66.6275 -66.6265 -66.6263 -66.6259
   -66.6255 -66.6253 -66.6248 -66.6239 -66.6220 -66.6212 -66.6104 -66.6104
   -32.8970 -32.8951 -32.8950 -32.8917 -32.8849 -32.8848 -32.8643 -32.8368
   -32.8366 -32.8365 -32.8343 -32.8239 -32.8189 -32.8127 -32.7903 -32.7864
   -32.7817 -32.7816 -32.7635 -32.7581 -32.7522 -32.7436 -32.7392 -32.7359
   -32.7318 -32.7301 -32.7283 -32.7224 -32.7221 -32.7219 -32.7159 -32.7119
   -32.7082 -32.6988 -32.6916 -32.6833 -32.6788 -32.6787 -32.6744 -32.6693
   -32.6646 -32.6605 -32.6439 -32.6432 -32.6382 -32.6313 -32.6265 -32.6213
   -32.4620 -32.4602 -32.4595 -32.4562 -32.4561 -32.4558 -32.4489 -32.4486
   -32.4029 -32.4014 -32.4010 -32.4004 -32.3893 -32.3870 -32.3842 -32.3836
   -32.3580 -32.3559 -32.3529 -32.3520 -32.3412 -32.3391 -32.3387 -32.3374
   -32.2997 -32.2911 -32.2865 -32.2865 -32.2861 -32.2841 -32.2822 -32.2818
   -32.2803 -32.2795 -32.2790 -32.2778 -32.2774 -32.2761 -32.2753 -32.2748
   -32.2730 -32.2722 -32.2712 -32.2708 -32.2706 -32.2704 -32.2702 -32.2699
    10.8336  11.7801  12.2974  12.3107  12.3143  12.3441  12.3544  12.3812
    12.3848  12.4024  12.4495  12.5770  12.5780  12.6221  12.8048  12.8813
    12.8827  13.0454  13.0454  13.0650  13.1060  13.1073  13.1116  13.1163
    13.1190  13.1491  13.1619  13.1935  13.1992  13.2269  13.2665  13.2666
    13.2961  13.4142  13.4370  13.4543  13.4577  13.5317  13.5792  13.6123
    13.6161  13.6350  13.6727  13.7842  13.7852  13.8436  13.8531  13.9098
    13.9336  13.9377  13.9626  13.9689  13.9865  13.9972  14.0324  14.1258
    14.1632  14.1669  14.2065  14.2268  14.2794  14.3017  14.3206  14.3241
    14.3264  14.3512  14.3822  14.4023  14.5994  14.6037  14.6118  14.6135
    14.6159  14.6201  14.6218  14.6435  14.6522  14.6721  14.8010  14.8258
    14.9417  14.9422  14.9458  14.9854  15.0169  15.0251  15.0651  15.0763
    15.0772  15.1185  15.1242  15.1590  15.1602  15.2779  15.3130  15.3202
    15.3273  15.3352  15.3385  15.3458  15.3523  15.3930  15.4308  15.4562
    15.4839  15.5472  15.6352  15.6530  15.6982  15.7124  15.7337  15.7750
    15.8497  15.8662  15.8670  15.8785  15.8912  15.9045  15.9318  15.9459
    15.9473  16.0192  16.0195  16.0429  16.0792  16.0970  16.0979  16.1035
    16.1737  16.2569  16.3246  16.3444  16.3617  16.3660  16.4034  16.4086
    16.4503  16.4907  16.5157  16.5276  16.5532  16.5829  16.5849  16.6139
    16.6272  16.6381  16.6731  16.7197  16.7868  16.8174  16.8412  16.8724
    16.8911  16.9136  16.9561  16.9638  16.9673  16.9721  16.9779  17.0514
    17.0730  17.1006  17.1833  17.2164  17.3583  17.3771  17.3933  17.5013
    17.5264  17.7698  18.0044  18.2295  18.2533  18.4975  18.6034  18.7820
    19.5700  19.8494  19.8800  20.0492  20.3701  20.5682  21.0986  21.3532
    21.4332  21.6538  21.9701  22.0123  22.5549  22.6982  23.0913  23.3660
    23.3680  23.5586  23.8534  23.9516  25.3393  25.4439  25.5855  25.7269
    25.9019  26.0344  26.0525  26.1619  26.2490  26.3526  26.5772  26.6370
    26.9734  27.2605  27.3410  27.4685  27.7584  27.7962  27.8454  27.9787
    28.0953  28.1592

          k = 0.0556 0.1667-0.4571 ( 36064 PWs)   bands (ev):

   -67.0582 -67.0408 -67.0363 -67.0322 -67.0294 -67.0282 -67.0273 -67.0267
   -67.0245 -67.0239 -67.0206 -67.0194 -67.0180 -67.0163 -67.0112 -67.0107
   -66.6416 -66.6398 -66.6303 -66.6291 -66.6275 -66.6265 -66.6263 -66.6259
   -66.6255 -66.6253 -66.6248 -66.6239 -66.6220 -66.6212 -66.6104 -66.6104
   -32.8969 -32.8951 -32.8950 -32.8917 -32.8849 -32.8848 -32.8644 -32.8368
   -32.8366 -32.8364 -32.8343 -32.8239 -32.8189 -32.8127 -32.7902 -32.7864
   -32.7817 -32.7816 -32.7635 -32.7581 -32.7522 -32.7436 -32.7392 -32.7360
   -32.7319 -32.7300 -32.7283 -32.7224 -32.7221 -32.7220 -32.7159 -32.7120
   -32.7082 -32.6989 -32.6916 -32.6833 -32.6788 -32.6787 -32.6744 -32.6693
   -32.6646 -32.6605 -32.6438 -32.6432 -32.6382 -32.6313 -32.6265 -32.6213
   -32.4620 -32.4601 -32.4595 -32.4559 -32.4558 -32.4557 -32.4491 -32.4488
   -32.4030 -32.4014 -32.4008 -32.4004 -32.3893 -32.3869 -32.3839 -32.3838
   -32.3580 -32.3558 -32.3527 -32.3522 -32.3413 -32.3391 -32.3386 -32.3374
   -32.2990 -32.2912 -32.2865 -32.2864 -32.2861 -32.2843 -32.2822 -32.2819
   -32.2804 -32.2796 -32.2790 -32.2788 -32.2774 -32.2761 -32.2752 -32.2747
   -32.2730 -32.2722 -32.2711 -32.2707 -32.2705 -32.2702 -32.2702 -32.2699
    10.8744  11.7089  12.2953  12.3213  12.3244  12.3611  12.3744  12.3840
    12.4008  12.4095  12.4529  12.5860  12.5891  12.6326  12.8140  12.8816
    12.8989  13.0188  13.0348  13.0535  13.0889  13.0995  13.1011  13.1069
    13.1137  13.1404  13.1487  13.1519  13.1563  13.2300  13.2615  13.2696
    13.3038  13.4205  13.4223  13.4232  13.4366  13.5666  13.5755  13.6067
    13.6267  13.6402  13.6710  13.7709  13.7721  13.8523  13.8748  13.8940
    13.9252  13.9350  13.9455  13.9494  13.9867  13.9926  14.0250  14.1268
    14.1638  14.1659  14.1911  14.2243  14.2578  14.2937  14.2979  14.3154
    14.3258  14.3298  14.3826  14.4058  14.6152  14.6161  14.6187  14.6269
    14.6339  14.6478  14.6490  14.6593  14.6732  14.6756  14.8423  14.8509
    14.8966  14.8968  14.9175  14.9616  14.9633  15.0715  15.0902  15.1001
    15.1415  15.1553  15.1600  15.1842  15.2271  15.2543  15.3221  15.3251
    15.3415  15.3468  15.3737  15.3974  15.4240  15.4652  15.4767  15.4793
    15.5157  15.5859  15.6678  15.6714  15.6916  15.7064  15.7289  15.7635
    15.7931  15.7992  15.8206  15.8238  15.8413  15.8479  15.8497  15.9130
    15.9273  15.9407  16.0032  16.0227  16.0795  16.0917  16.1338  16.1386
    16.1670  16.2171  16.2825  16.3133  16.3500  16.4049  16.4257  16.4267
    16.5027  16.5206  16.5477  16.5557  16.5601  16.5819  16.5996  16.6372
    16.6381  16.6399  16.6555  16.8026  16.8274  16.8356  16.8418  16.8519
    16.8703  16.9014  16.9359  16.9383  16.9394  16.9414  16.9621  17.0178
    17.0422  17.1191  17.1852  17.2166  17.2703  17.5031  17.5260  17.5266
    17.6187  17.7549  18.0132  18.0137  18.1063  18.1402  18.6799  18.7132
    19.7282  19.7792  20.1562  20.1674  20.5921  20.8309  21.0983  21.4232
    21.5549  21.6021  21.9932  22.1200  22.1709  22.4608  22.5695  23.1199
    23.4951  23.6436  23.7356  23.8660  25.5211  25.6279  25.6669  25.7989
    25.8252  26.0277  26.0900  26.1133  26.2032  26.2972  26.3489  26.5693
    26.7882  27.2889  27.5114  27.6014  27.7518  27.8696  27.9195  27.9554
    28.0424  28.0680

          k = 0.0556 0.2778 0.0508 ( 36091 PWs)   bands (ev):

   -67.0567 -67.0448 -67.0357 -67.0318 -67.0310 -67.0284 -67.0262 -67.0242
   -67.0230 -67.0228 -67.0220 -67.0197 -67.0186 -67.0150 -67.0126 -67.0111
   -66.6407 -66.6388 -66.6330 -66.6316 -66.6274 -66.6266 -66.6264 -66.6261
   -66.6253 -66.6250 -66.6248 -66.6240 -66.6193 -66.6187 -66.6114 -66.6113
   -32.8923 -32.8891 -32.8884 -32.8845 -32.8793 -32.8791 -32.8618 -32.8460
   -32.8435 -32.8422 -32.8418 -32.8412 -32.8336 -32.8319 -32.7944 -32.7897
   -32.7764 -32.7707 -32.7461 -32.7454 -32.7435 -32.7417 -32.7387 -32.7365
   -32.7357 -32.7355 -32.7344 -32.7317 -32.7229 -32.7176 -32.7155 -32.7111
   -32.6973 -32.6920 -32.6862 -32.6816 -32.6711 -32.6707 -32.6706 -32.6660
   -32.6651 -32.6590 -32.6528 -32.6503 -32.6429 -32.6348 -32.6336 -32.6257
   -32.4586 -32.4560 -32.4537 -32.4533 -32.4523 -32.4497 -32.4420 -32.4415
   -32.4174 -32.4167 -32.4152 -32.4133 -32.4047 -32.4034 -32.3990 -32.3971
   -32.3430 -32.3423 -32.3370 -32.3352 -32.3274 -32.3253 -32.3233 -32.3215
   -32.3029 -32.2979 -32.2928 -32.2906 -32.2884 -32.2857 -32.2845 -32.2842
   -32.2825 -32.2804 -32.2804 -32.2782 -32.2777 -32.2772 -32.2762 -32.2753
   -32.2751 -32.2730 -32.2725 -32.2724 -32.2721 -32.2711 -32.2705 -32.2698
    10.7723  11.9015  12.2200  12.3128  12.3376  12.3410  12.3753  12.3902
    12.4085  12.5062  12.5600  12.5757  12.5856  12.6473  12.7481  12.7673
    12.8579  12.9362  12.9469  12.9495  12.9785  12.9803  13.1143  13.1804
    13.1922  13.2318  13.2390  13.2755  13.2948  13.3191  13.3195  13.3196
    13.3234  13.3958  13.4257  13.4834  13.4984  13.5386  13.6071  13.6154
    13.7195  13.7402  13.7551  13.7553  13.7748  13.8492  13.8842  13.8885
    13.9031  13.9149  13.9856  13.9937  14.0714  14.1355  14.1377  14.1537
    14.1705  14.2215  14.2375  14.2470  14.2680  14.2775  14.3106  14.3445
    14.3540  14.3548  14.4038  14.4532  14.4839  14.5203  14.5255  14.5398
    14.5522  14.5964  14.6150  14.6234  14.6318  14.6482  14.6520  14.6541
    14.7185  14.7219  14.7405  14.7416  14.7855  14.8521  14.9126  14.9381
    14.9713  14.9726  15.0170  15.1177  15.1750  15.2339  15.3013  15.3130
    15.3529  15.3648  15.3845  15.4578  15.4890  15.5015  15.5088  15.5347
    15.5614  15.5653  15.6225  15.6334  15.6460  15.6474  15.7681  15.8182
    15.8441  15.9609  16.0059  16.0136  16.0192  16.0295  16.0634  16.0730
    16.0746  16.0862  16.0904  16.1007  16.1345  16.1449  16.1729  16.1796
    16.2074  16.2559  16.2615  16.2657  16.2782  16.2837  16.3046  16.4239
    16.4525  16.5015  16.5031  16.5051  16.5265  16.5347  16.5526  16.5895
    16.6301  16.7334  16.7536  16.7627  16.7918  16.7946  16.8167  16.8515
    16.8665  16.8680  16.9205  16.9261  16.9439  16.9769  16.9979  17.0506
    17.0656  17.0897  17.1573  17.1768  17.2136  17.3086  17.3896  17.7074
    17.9402  18.0848  18.0881  18.3864  18.4369  18.6622  18.6705  18.8693
    18.9399  19.0865  19.4815  19.9198  20.0396  20.4821  20.6856  20.7404
    21.2448  21.6373  22.9666  23.2431  23.5806  23.8134  23.8991  23.9790
    24.0138  24.1519  24.1963  24.4942  24.5215  24.5818  25.1019  25.1059
    25.1215  25.6901  25.8828  26.0020  26.1277  26.2449  26.6407  26.6575
    26.7925  26.9514  27.0246  27.0480  27.1656  27.2760  27.3221  27.5089
    27.7093  27.7600

          k = 0.0556 0.2778 0.1524 ( 36084 PWs)   bands (ev):

   -67.0567 -67.0448 -67.0357 -67.0318 -67.0310 -67.0284 -67.0262 -67.0242
   -67.0230 -67.0228 -67.0220 -67.0197 -67.0186 -67.0150 -67.0126 -67.0111
   -66.6407 -66.6388 -66.6330 -66.6316 -66.6274 -66.6266 -66.6264 -66.6261
   -66.6253 -66.6250 -66.6248 -66.6240 -66.6193 -66.6187 -66.6114 -66.6113
   -32.8923 -32.8890 -32.8884 -32.8845 -32.8792 -32.8792 -32.8618 -32.8460
   -32.8435 -32.8422 -32.8417 -32.8412 -32.8335 -32.8319 -32.7944 -32.7898
   -32.7765 -32.7707 -32.7461 -32.7453 -32.7435 -32.7417 -32.7389 -32.7364
   -32.7357 -32.7356 -32.7343 -32.7317 -32.7231 -32.7177 -32.7155 -32.7111
   -32.6973 -32.6919 -32.6862 -32.6816 -32.6711 -32.6707 -32.6706 -32.6660
   -32.6652 -32.6590 -32.6528 -32.6503 -32.6429 -32.6348 -32.6336 -32.6257
   -32.4586 -32.4559 -32.4537 -32.4530 -32.4522 -32.4495 -32.4421 -32.4417
   -32.4177 -32.4163 -32.4150 -32.4134 -32.4050 -32.4030 -32.3989 -32.3972
   -32.3434 -32.3420 -32.3368 -32.3353 -32.3275 -32.3253 -32.3232 -32.3216
   -32.3025 -32.2977 -32.2926 -32.2904 -32.2884 -32.2857 -32.2845 -32.2842
   -32.2829 -32.2808 -32.2807 -32.2782 -32.2782 -32.2771 -32.2764 -32.2749
   -32.2746 -32.2738 -32.2724 -32.2720 -32.2718 -32.2711 -32.2703 -32.2699
    10.8135  11.9308  12.1773  12.3290  12.3424  12.3499  12.3959  12.3977
    12.4299  12.4943  12.5156  12.5753  12.5890  12.5893  12.7678  12.7688
    12.9260  12.9292  12.9361  12.9512  12.9700  12.9880  13.1095  13.1568
    13.1708  13.2030  13.2416  13.2588  13.2677  13.2850  13.2862  13.3075
    13.3280  13.3292  13.3777  13.4405  13.5336  13.5560  13.6019  13.6080
    13.6524  13.6891  13.7428  13.7869  13.7879  13.8103  13.8614  13.8720
    13.8784  13.8807  13.9609  13.9729  14.0673  14.1242  14.1287  14.1921
    14.1973  14.2263  14.2432  14.2579  14.3099  14.3296  14.3405  14.3948
    14.3985  14.4032  14.4290  14.4552  14.5243  14.5396  14.5396  14.5550
    14.5812  14.6146  14.6261  14.6776  14.6865  14.6923  14.6951  14.7437
    14.7455  14.7471  14.7652  14.7676  14.8217  14.8473  14.8579  14.9267
    14.9381  15.0030  15.0467  15.0926  15.1612  15.1656  15.2989  15.3122
    15.3790  15.3887  15.4190  15.4190  15.4436  15.4689  15.4694  15.5161
    15.5226  15.5578  15.5772  15.5878  15.5975  15.6446  15.7768  15.7869
    15.8617  15.9355  15.9405  15.9903  16.0264  16.0382  16.0522  16.0579
    16.0838  16.0839  16.0850  16.1468  16.1484  16.1566  16.1763  16.1817
    16.2166  16.2176  16.2294  16.2720  16.3021  16.4108  16.4245  16.4530
    16.4668  16.4821  16.4860  16.5036  16.5168  16.5479  16.6009  16.6117
    16.6141  16.6518  16.6585  16.7317  16.7386  16.7415  16.8411  16.8615
    16.8787  16.8842  16.9478  16.9721  16.9991  17.0317  17.0516  17.0623
    17.0936  17.0952  17.1382  17.1814  17.2195  17.3158  17.3916  17.3917
    17.7751  17.9306  18.0187  18.3951  18.4718  18.4918  18.5107  19.1596
    19.4148  19.4385  19.6488  19.9507  20.0839  20.1126  20.6732  21.1855
    21.2207  21.7794  22.3808  22.8293  23.4174  23.6532  23.7147  23.9541
    24.0416  24.2588  24.2996  24.3746  24.4221  24.6341  24.6726  24.9377
    25.1998  25.7380  25.7876  25.8373  26.0348  26.1962  26.5489  26.6467
    26.9824  27.1661  27.2180  27.4161  27.4990  27.5924  27.6247  27.6518
    27.7089  27.9956

          k = 0.0556 0.2778 0.2540 ( 36096 PWs)   bands (ev):

   -67.0567 -67.0448 -67.0357 -67.0318 -67.0310 -67.0284 -67.0262 -67.0242
   -67.0230 -67.0228 -67.0220 -67.0197 -67.0186 -67.0150 -67.0126 -67.0111
   -66.6407 -66.6389 -66.6330 -66.6316 -66.6274 -66.6266 -66.6264 -66.6261
   -66.6253 -66.6250 -66.6248 -66.6240 -66.6193 -66.6187 -66.6114 -66.6113
   -32.8922 -32.8889 -32.8884 -32.8843 -32.8792 -32.8792 -32.8617 -32.8460
   -32.8436 -32.8422 -32.8417 -32.8412 -32.8335 -32.8320 -32.7943 -32.7898
   -32.7765 -32.7708 -32.7462 -32.7452 -32.7435 -32.7418 -32.7391 -32.7365
   -32.7359 -32.7357 -32.7342 -32.7317 -32.7234 -32.7178 -32.7155 -32.7112
   -32.6974 -32.6917 -32.6863 -32.6816 -32.6712 -32.6707 -32.6707 -32.6659
   -32.6652 -32.6590 -32.6528 -32.6502 -32.6429 -32.6347 -32.6336 -32.6257
   -32.4586 -32.4556 -32.4537 -32.4525 -32.4520 -32.4492 -32.4425 -32.4421
   -32.4179 -32.4160 -32.4147 -32.4135 -32.4053 -32.4026 -32.3987 -32.3975
   -32.3436 -32.3416 -32.3367 -32.3354 -32.3278 -32.3254 -32.3231 -32.3216
   -32.3019 -32.2977 -32.2921 -32.2902 -32.2885 -32.2857 -32.2845 -32.2842
   -32.2834 -32.2814 -32.2813 -32.2787 -32.2782 -32.2772 -32.2765 -32.2753
   -32.2746 -32.2739 -32.2722 -32.2715 -32.2713 -32.2710 -32.2703 -32.2699
    10.8872  11.9819  12.0510  12.3556  12.3558  12.3708  12.4118  12.4143
    12.4218  12.4561  12.5209  12.5945  12.6007  12.6092  12.7690  12.8042
    12.8756  12.9060  12.9551  12.9555  12.9709  13.0033  13.0935  13.0977
    13.1401  13.1638  13.1974  13.2315  13.2339  13.2405  13.2899  13.3131
    13.3171  13.3378  13.3421  13.3468  13.5463  13.5608  13.5736  13.5780
    13.5896  13.5938  13.7479  13.7629  13.8006  13.8260  13.8359  13.8440
    13.8511  13.8701  13.9387  13.9507  14.0406  14.0967  14.1567  14.2051
    14.2243  14.2245  14.2497  14.2632  14.2933  14.3498  14.4105  14.4171
    14.4328  14.5102  14.5274  14.5617  14.5673  14.5684  14.5752  14.5772
    14.5997  14.6365  14.6381  14.6471  14.6552  14.6981  14.7892  14.8044
    14.8060  14.8174  14.8185  14.8558  14.8825  14.9169  14.9245  14.9543
    15.0068  15.0443  15.0533  15.0640  15.0913  15.1558  15.2453  15.2956
    15.3689  15.3695  15.3795  15.3941  15.4423  15.4446  15.4567  15.4607
    15.4927  15.5019  15.5089  15.5326  15.5700  15.6635  15.7620  15.7896
    15.8729  15.8829  15.9018  15.9264  15.9361  15.9540  15.9790  16.0471
    16.0477  16.0624  16.0713  16.1217  16.1412  16.1623  16.1743  16.2324
    16.2421  16.2862  16.3530  16.3730  16.4034  16.4039  16.4070  16.4334
    16.4661  16.4905  16.5041  16.5116  16.5431  16.5796  16.5803  16.5815
    16.6333  16.6701  16.6728  16.6795  16.7552  16.7919  16.8071  16.8792
    16.8805  16.8958  16.9188  16.9748  16.9950  16.9985  17.0313  17.0502
    17.0663  17.0949  17.1169  17.1224  17.3246  17.3533  17.3932  17.5286
    17.6342  17.6676  17.8758  18.1165  18.2992  18.4036  19.0066  19.2322
    19.5456  19.7031  19.8171  19.9764  20.3685  20.5080  20.6382  21.1489
    21.6459  21.7139  22.0379  22.3680  22.8795  23.3512  23.3513  23.4634
    24.0405  24.1324  24.1413  24.2995  24.3995  24.5185  24.7855  24.9077
    25.4871  25.5691  25.6750  25.7996  25.9860  26.1716  26.5488  26.8363
    27.1177  27.2506  27.5494  27.6373  27.6670  27.7254  27.8324  27.8670
    27.8845  28.0809

          k = 0.0556 0.2778 0.3556 ( 36089 PWs)   bands (ev):

   -67.0567 -67.0448 -67.0357 -67.0318 -67.0310 -67.0284 -67.0262 -67.0242
   -67.0230 -67.0228 -67.0220 -67.0197 -67.0186 -67.0150 -67.0126 -67.0111
   -66.6407 -66.6389 -66.6330 -66.6316 -66.6274 -66.6266 -66.6264 -66.6261
   -66.6253 -66.6250 -66.6248 -66.6240 -66.6193 -66.6187 -66.6114 -66.6113
   -32.8921 -32.8887 -32.8883 -32.8842 -32.8792 -32.8791 -32.8616 -32.8460
   -32.8436 -32.8423 -32.8418 -32.8412 -32.8335 -32.8320 -32.7943 -32.7898
   -32.7766 -32.7708 -32.7463 -32.7451 -32.7434 -32.7418 -32.7393 -32.7365
   -32.7360 -32.7358 -32.7342 -32.7317 -32.7237 -32.7178 -32.7156 -32.7111
   -32.6974 -32.6916 -32.6863 -32.6816 -32.6713 -32.6707 -32.6707 -32.6660
   -32.6652 -32.6590 -32.6529 -32.6502 -32.6429 -32.6347 -32.6335 -32.6257
   -32.4585 -32.4554 -32.4537 -32.4521 -32.4517 -32.4489 -32.4430 -32.4423
   -32.4181 -32.4158 -32.4144 -32.4137 -32.4055 -32.4024 -32.3985 -32.3978
   -32.3438 -32.3414 -32.3364 -32.3356 -32.3279 -32.3255 -32.3230 -32.3217
   -32.3012 -32.2979 -32.2914 -32.2902 -32.2885 -32.2854 -32.2845 -32.2843
   -32.2839 -32.2819 -32.2816 -32.2791 -32.2781 -32.2773 -32.2768 -32.2766
   -32.2743 -32.2735 -32.2720 -32.2710 -32.2710 -32.2709 -32.2703 -32.2700
    10.9687  11.8983  12.0359  12.3774  12.3817  12.3923  12.3924  12.4331
    12.4399  12.4728  12.5287  12.5997  12.6247  12.6255  12.7706  12.7940
    12.8403  12.8879  12.9435  12.9602  12.9772  13.0170  13.0780  13.0824
    13.1145  13.1273  13.1798  13.1834  13.2009  13.2080  13.2324  13.2514
    13.3200  13.3407  13.3547  13.4030  13.4829  13.4908  13.5465  13.5524
    13.5740  13.5783  13.7283  13.7524  13.7814  13.7922  13.8284  13.8511
    13.8814  13.8869  13.9000  13.9561  14.0249  14.0802  14.2071  14.2076
    14.2161  14.2405  14.2495  14.2592  14.2792  14.3554  14.3934  14.4340
    14.4379  14.4871  14.5618  14.5862  14.5909  14.6042  14.6429  14.6450
    14.6495  14.6499  14.6520  14.6700  14.6733  14.6797  14.8240  14.8445
    14.9096  14.9138  14.9232  14.9318  14.9688  14.9714  14.9931  15.0137
    15.0265  15.0327  15.0453  15.1542  15.1809  15.1894  15.2284  15.2650
    15.2697  15.3054  15.3155  15.3216  15.3714  15.4024  15.4343  15.4646
    15.4750  15.4927  15.5494  15.5647  15.6224  15.6640  15.6856  15.7199
    15.7771  15.8089  15.8260  15.8296  15.8440  15.8442  15.9700  16.0203
    16.0253  16.0260  16.0336  16.1239  16.1674  16.1674  16.2161  16.2792
    16.2829  16.2861  16.3208  16.3554  16.3778  16.3961  16.4598  16.4742
    16.4851  16.5144  16.5803  16.5821  16.6039  16.6069  16.6079  16.6114
    16.6366  16.6792  16.7220  16.7292  16.7702  16.7763  16.8559  16.8690
    16.8737  16.8860  16.9019  16.9191  16.9569  16.9624  16.9924  16.9933
    17.0049  17.0579  17.0870  17.0946  17.3308  17.3485  17.3936  17.6420
    17.7726  17.7732  17.8036  17.8709  18.2638  18.3561  18.8426  18.9260
    19.5726  20.1522  20.2287  20.5593  20.6008  20.7010  20.9110  20.9826
    21.1222  21.9408  22.0838  22.2830  22.3552  22.5890  23.3711  23.4118
    23.6690  23.6882  23.6934  23.9461  24.4906  24.7630  24.9984  25.1401
    25.3909  25.6500  25.7385  25.7596  26.1522  26.1781  26.4494  26.6966
    27.2034  27.3008  27.3175  27.6221  27.7331  27.8385  27.9756  28.1085
    28.3133  28.4366

          k = 0.0556 0.2778-0.4571 ( 36102 PWs)   bands (ev):

   -67.0567 -67.0448 -67.0357 -67.0318 -67.0310 -67.0284 -67.0262 -67.0242
   -67.0230 -67.0228 -67.0220 -67.0197 -67.0186 -67.0150 -67.0126 -67.0111
   -66.6407 -66.6389 -66.6330 -66.6316 -66.6274 -66.6266 -66.6264 -66.6261
   -66.6253 -66.6250 -66.6248 -66.6240 -66.6193 -66.6187 -66.6114 -66.6113
   -32.8921 -32.8887 -32.8883 -32.8842 -32.8793 -32.8791 -32.8617 -32.8460
   -32.8436 -32.8422 -32.8418 -32.8412 -32.8335 -32.8320 -32.7943 -32.7898
   -32.7766 -32.7709 -32.7463 -32.7450 -32.7434 -32.7419 -32.7394 -32.7365
   -32.7361 -32.7358 -32.7341 -32.7316 -32.7238 -32.7178 -32.7155 -32.7112
   -32.6974 -32.6916 -32.6863 -32.6816 -32.6714 -32.6707 -32.6707 -32.6660
   -32.6652 -32.6589 -32.6529 -32.6502 -32.6429 -32.6347 -32.6336 -32.6257
   -32.4584 -32.4553 -32.4538 -32.4520 -32.4516 -32.4488 -32.4431 -32.4424
   -32.4181 -32.4157 -32.4142 -32.4139 -32.4057 -32.4023 -32.3985 -32.3979
   -32.3439 -32.3413 -32.3363 -32.3357 -32.3280 -32.3255 -32.3229 -32.3217
   -32.3010 -32.2981 -32.2909 -32.2903 -32.2885 -32.2853 -32.2845 -32.2843
   -32.2841 -32.2821 -32.2818 -32.2792 -32.2782 -32.2776 -32.2773 -32.2766
   -32.2742 -32.2733 -32.2719 -32.2709 -32.2709 -32.2708 -32.2703 -32.2700
    11.0081  11.8298  12.0608  12.3903  12.3913  12.3926  12.4018  12.4320
    12.4562  12.4740  12.5319  12.6019  12.6300  12.6360  12.7549  12.7713
    12.8566  12.8811  12.9389  12.9627  12.9765  13.0224  13.0748  13.0782
    13.1046  13.1307  13.1641  13.1787  13.1849  13.1965  13.1981  13.2028
    13.3335  13.3488  13.3595  13.4512  13.4550  13.4578  13.5087  13.5453
    13.5694  13.5718  13.7098  13.7541  13.7691  13.8069  13.8247  13.8452
    13.8523  13.9007  13.9217  13.9545  14.0309  14.0880  14.1845  14.2002
    14.2079  14.2436  14.2443  14.2962  14.3000  14.3557  14.3814  14.4373
    14.4377  14.4445  14.5014  14.5937  14.6001  14.6210  14.6482  14.6548
    14.6575  14.6633  14.6759  14.6831  14.6898  14.7750  14.8318  14.8894
    14.9148  14.9236  14.9533  14.9815  14.9841  14.9941  15.0283  15.0296
    15.0563  15.0919  15.1003  15.1442  15.1558  15.1685  15.1971  15.2510
    15.2910  15.2952  15.3053  15.3693  15.3975  15.4047  15.4347  15.4741
    15.4821  15.5194  15.5403  15.5545  15.5732  15.5816  15.5981  15.7036
    15.7279  15.7305  15.7882  15.8019  15.8399  15.9004  15.9084  15.9296
    16.0144  16.0257  16.0658  16.1517  16.1589  16.1623  16.1684  16.2423
    16.2972  16.3168  16.3540  16.3586  16.3601  16.4100  16.4757  16.5234
    16.5277  16.5809  16.5975  16.6114  16.6200  16.6218  16.6398  16.6430
    16.6506  16.6592  16.6920  16.6962  16.7236  16.7738  16.8461  16.8695
    16.8795  16.8857  16.8969  16.9417  16.9507  16.9642  16.9675  16.9773
    17.0076  17.0246  17.0943  17.1136  17.2637  17.3329  17.3935  17.5524
    17.7008  17.7342  18.0866  18.2040  18.2685  18.3280  18.4235  18.6127
    20.1447  20.2796  20.3778  20.4295  20.6578  20.6905  20.8984  21.1578
    21.4689  21.6496  21.7139  22.0082  22.5487  22.7300  23.1949  23.3903
    23.4244  23.4880  23.5490  23.7214  24.6671  24.9137  24.9457  25.1842
    25.4192  25.4979  25.7655  26.0743  26.0769  26.2512  26.4551  26.5717
    26.7344  27.3536  27.6818  27.6949  27.7794  27.9166  27.9697  28.1817
    28.1883  28.7750

          k = 0.0556 0.3889 0.0508 ( 36115 PWs)   bands (ev):

   -67.0546 -67.0485 -67.0349 -67.0325 -67.0311 -67.0294 -67.0254 -67.0233
   -67.0218 -67.0216 -67.0206 -67.0203 -67.0193 -67.0147 -67.0138 -67.0118
   -66.6393 -66.6375 -66.6354 -66.6338 -66.6273 -66.6268 -66.6264 -66.6262
   -66.6252 -66.6249 -66.6247 -66.6242 -66.6168 -66.6164 -66.6128 -66.6126
   -32.8840 -32.8801 -32.8783 -32.8749 -32.8712 -32.8709 -32.8586 -32.8578
   -32.8575 -32.8532 -32.8509 -32.8497 -32.8476 -32.8475 -32.7960 -32.7931
   -32.7691 -32.7593 -32.7489 -32.7440 -32.7423 -32.7410 -32.7404 -32.7389
   -32.7361 -32.7351 -32.7298 -32.7294 -32.7198 -32.7160 -32.7087 -32.7072
   -32.7058 -32.6897 -32.6755 -32.6732 -32.6712 -32.6665 -32.6653 -32.6620
   -32.6593 -32.6583 -32.6581 -32.6526 -32.6506 -32.6461 -32.6391 -32.6325
   -32.4520 -32.4490 -32.4467 -32.4452 -32.4449 -32.4407 -32.4342 -32.4332
   -32.4311 -32.4293 -32.4275 -32.4254 -32.4199 -32.4175 -32.4123 -32.4105
   -32.3295 -32.3284 -32.3213 -32.3198 -32.3154 -32.3129 -32.3089 -32.3073
   -32.3066 -32.3054 -32.2977 -32.2965 -32.2945 -32.2938 -32.2915 -32.2912
   -32.2859 -32.2855 -32.2817 -32.2799 -32.2794 -32.2785 -32.2754 -32.2745
   -32.2744 -32.2731 -32.2730 -32.2728 -32.2728 -32.2723 -32.2702 -32.2699
    10.9796  11.5594  12.3615  12.4100  12.4200  12.4602  12.4743  12.4905
    12.5186  12.5774  12.6250  12.6341  12.6477  12.6676  12.7214  12.7340
    12.7630  12.7806  12.7853  12.8113  12.8458  12.9402  12.9718  13.0062
    13.1184  13.1560  13.2138  13.2557  13.2844  13.3458  13.3544  13.3723
    13.3896  13.4192  13.4374  13.4412  13.4986  13.5419  13.5742  13.6299
    13.6361  13.6990  13.7308  13.7428  13.7972  13.7986  13.8037  13.8045
    13.8195  13.8511  13.9149  14.0272  14.0777  14.1395  14.1871  14.1882
    14.2132  14.2137  14.2145  14.2368  14.2507  14.2683  14.2706  14.3841
    14.3849  14.4268  14.4349  14.4454  14.4692  14.4947  14.4949  14.5315
    14.5653  14.5721  14.6097  14.6163  14.6518  14.6538  14.6580  14.6729
    14.6822  14.7026  14.7129  14.7331  14.8141  14.8253  14.8941  14.9175
    15.0015  15.0281  15.1755  15.1857  15.1862  15.2277  15.2427  15.3761
    15.4307  15.4360  15.4607  15.5007  15.5220  15.5492  15.6041  15.6297
    15.6594  15.6757  15.6775  15.6866  15.6991  15.7404  15.7865  15.8561
    15.8884  15.9084  15.9372  15.9388  15.9761  15.9778  15.9861  16.0089
    16.0533  16.0819  16.1058  16.1563  16.1707  16.2031  16.2194  16.2246
    16.2374  16.2512  16.2945  16.3223  16.3291  16.3465  16.3685  16.4175
    16.4253  16.4407  16.4483  16.5159  16.5301  16.5841  16.6068  16.6694
    16.6876  16.6951  16.6961  16.7457  16.7611  16.7738  16.7805  16.7930
    16.7991  16.8557  16.8863  16.8943  16.9285  16.9425  16.9801  17.1055
    17.1132  17.1459  17.1861  17.2053  17.2070  17.2577  17.3879  17.5385
    17.6580  17.7135  17.9963  18.1667  18.3302  18.7415  18.7653  18.8431
    18.9004  19.1703  19.2727  19.4499  20.7460  21.0443  21.4218  21.4632
    21.9788  22.1971  22.3057  22.3727  23.0825  23.1092  23.4995  23.6351
    24.0170  24.2952  24.4133  24.5939  24.6197  24.7388  24.9092  25.1526
    25.3120  25.5175  25.5228  25.9871  26.2055  26.3341  26.4064  26.4280
    26.4492  26.5608  26.6920  26.6925  26.8073  27.0616  27.1975  27.2379
    27.3798  27.8282

          k = 0.0556 0.3889 0.1524 ( 36096 PWs)   bands (ev):

   -67.0546 -67.0485 -67.0349 -67.0325 -67.0311 -67.0294 -67.0254 -67.0233
   -67.0218 -67.0216 -67.0206 -67.0203 -67.0193 -67.0147 -67.0138 -67.0118
   -66.6393 -66.6375 -66.6354 -66.6338 -66.6273 -66.6268 -66.6264 -66.6262
   -66.6252 -66.6249 -66.6247 -66.6242 -66.6168 -66.6164 -66.6128 -66.6126
   -32.8840 -32.8800 -32.8783 -32.8748 -32.8712 -32.8709 -32.8586 -32.8578
   -32.8574 -32.8532 -32.8509 -32.8497 -32.8476 -32.8475 -32.7959 -32.7931
   -32.7692 -32.7594 -32.7490 -32.7440 -32.7424 -32.7411 -32.7404 -32.7390
   -32.7361 -32.7353 -32.7297 -32.7294 -32.7198 -32.7161 -32.7086 -32.7072
   -32.7058 -32.6896 -32.6754 -32.6731 -32.6712 -32.6665 -32.6653 -32.6620
   -32.6593 -32.6583 -32.6580 -32.6527 -32.6506 -32.6460 -32.6391 -32.6326
   -32.4521 -32.4489 -32.4465 -32.4452 -32.4449 -32.4405 -32.4342 -32.4334
   -32.4313 -32.4291 -32.4272 -32.4255 -32.4202 -32.4171 -32.4122 -32.4106
   -32.3298 -32.3282 -32.3212 -32.3198 -32.3155 -32.3130 -32.3088 -32.3074
   -32.3068 -32.3056 -32.2976 -32.2961 -32.2945 -32.2938 -32.2911 -32.2909
   -32.2859 -32.2855 -32.2822 -32.2803 -32.2800 -32.2790 -32.2753 -32.2740
   -32.2739 -32.2736 -32.2729 -32.2726 -32.2724 -32.2723 -32.2702 -32.2700
    11.0189  11.5928  12.3253  12.4166  12.4270  12.4691  12.4904  12.4913
    12.5375  12.5718  12.6229  12.6456  12.6485  12.6671  12.6787  12.7144
    12.7162  12.7558  12.7826  12.8088  12.8575  12.9424  12.9754  12.9939
    13.0781  13.1793  13.2029  13.2200  13.2680  13.2965  13.3584  13.3874
    13.3973  13.3975  13.4038  13.4282  13.4809  13.5447  13.5828  13.5877
    13.6235  13.6601  13.7072  13.7110  13.7213  13.7718  13.7965  13.8081
    13.8264  13.8295  13.9114  14.0481  14.0908  14.1419  14.1651  14.1988
    14.2529  14.2575  14.2679  14.2689  14.2746  14.3143  14.3533  14.3981
    14.4264  14.4424  14.4563  14.4583  14.5005  14.5130  14.5697  14.5822
    14.5850  14.6335  14.6455  14.6712  14.6714  14.6828  14.6857  14.7034
    14.7121  14.7141  14.7338  14.8337  14.8352  14.8378  14.8754  14.9081
    14.9972  15.0343  15.1284  15.1432  15.1538  15.2203  15.2920  15.3309
    15.3684  15.3940  15.4077  15.4541  15.4711  15.4976  15.5502  15.5672
    15.5818  15.5989  15.6228  15.6807  15.6992  15.7251  15.7730  15.7770
    15.8257  15.9047  15.9082  15.9101  15.9635  15.9851  15.9879  16.0001
    16.0025  16.0565  16.1289  16.1341  16.2203  16.2291  16.2795  16.2891
    16.2935  16.3097  16.3209  16.3329  16.3542  16.3716  16.3807  16.4048
    16.4287  16.4336  16.4451  16.4710  16.6182  16.6192  16.6243  16.6345
    16.6961  16.7017  16.7300  16.7355  16.7537  16.7641  16.7801  16.7863
    16.7993  16.8177  16.8895  16.8928  16.9499  16.9507  16.9764  17.1099
    17.1177  17.1214  17.1554  17.1714  17.1998  17.2553  17.3709  17.5134
    17.8194  17.8436  17.9611  17.9794  18.1032  18.4376  18.4713  19.2775
    19.3366  19.3934  19.7027  19.9259  20.3511  20.6419  21.4169  21.7942
    21.9016  21.9536  21.9681  22.3259  23.0889  23.5189  23.5317  23.6096
    23.7495  24.1194  24.1214  24.3663  24.4279  24.4936  25.0134  25.0639
    25.0724  25.4710  25.4734  25.7611  25.8439  25.9211  26.0842  26.6023
    26.7407  26.9151  27.0216  27.2658  27.4314  27.4327  27.5114  27.6653
    27.7322  27.8620

          k = 0.0556 0.3889 0.2540 ( 36120 PWs)   bands (ev):

   -67.0546 -67.0485 -67.0349 -67.0325 -67.0311 -67.0294 -67.0254 -67.0233
   -67.0218 -67.0216 -67.0206 -67.0203 -67.0193 -67.0147 -67.0138 -67.0118
   -66.6393 -66.6375 -66.6354 -66.6338 -66.6273 -66.6268 -66.6264 -66.6262
   -66.6252 -66.6249 -66.6247 -66.6242 -66.6168 -66.6164 -66.6128 -66.6126
   -32.8840 -32.8799 -32.8783 -32.8748 -32.8712 -32.8709 -32.8587 -32.8578
   -32.8574 -32.8532 -32.8508 -32.8497 -32.8476 -32.8474 -32.7958 -32.7931
   -32.7693 -32.7595 -32.7490 -32.7441 -32.7425 -32.7413 -32.7404 -32.7393
   -32.7361 -32.7356 -32.7296 -32.7294 -32.7197 -32.7161 -32.7086 -32.7071
   -32.7059 -32.6896 -32.6753 -32.6732 -32.6713 -32.6665 -32.6654 -32.6620
   -32.6592 -32.6584 -32.6580 -32.6527 -32.6506 -32.6459 -32.6391 -32.6326
   -32.4521 -32.4487 -32.4461 -32.4451 -32.4451 -32.4402 -32.4344 -32.4336
   -32.4315 -32.4288 -32.4269 -32.4256 -32.4204 -32.4168 -32.4121 -32.4108
   -32.3301 -32.3280 -32.3211 -32.3199 -32.3157 -32.3132 -32.3087 -32.3074
   -32.3070 -32.3059 -32.2974 -32.2958 -32.2945 -32.2938 -32.2905 -32.2903
   -32.2859 -32.2856 -32.2830 -32.2809 -32.2808 -32.2797 -32.2753 -32.2746
   -32.2735 -32.2732 -32.2729 -32.2721 -32.2719 -32.2719 -32.2702 -32.2700
    11.0890  11.6515  12.2119  12.4205  12.4551  12.4855  12.5004  12.5065
    12.5481  12.5566  12.5637  12.6396  12.6398  12.6722  12.6923  12.6999
    12.7093  12.7448  12.7885  12.8033  12.8764  12.9068  12.9393  12.9829
    13.1065  13.1596  13.2241  13.2301  13.2419  13.2439  13.3420  13.3491
    13.3559  13.3756  13.4049  13.4067  13.4357  13.5248  13.5465  13.5825
    13.5881  13.5959  13.6193  13.6491  13.7050  13.7294  13.7320  13.7820
    13.8370  13.8691  13.9478  14.0465  14.1451  14.1483  14.1622  14.1812
    14.2373  14.3341  14.3382  14.3538  14.3609  14.3834  14.3917  14.4070
    14.4793  14.4961  14.5119  14.5248  14.5539  14.5968  14.5988  14.6134
    14.6473  14.6592  14.7056  14.7114  14.7271  14.7418  14.7540  14.7756
    14.7819  14.7854  14.8371  14.8395  14.8564  14.8667  14.9037  14.9756
    15.0078  15.0148  15.0235  15.0908  15.1084  15.2316  15.2407  15.2788
    15.3175  15.3343  15.3748  15.3961  15.4547  15.4600  15.4690  15.4700
    15.4934  15.5327  15.5394  15.6043  15.6456  15.6466  15.6778  15.6793
    15.6861  15.8458  15.8563  15.8707  15.8847  15.9078  15.9357  16.0169
    16.0284  16.0861  16.1145  16.1806  16.2581  16.2608  16.2676  16.2924
    16.3084  16.3411  16.3670  16.3841  16.3872  16.4415  16.4423  16.4517
    16.4583  16.4852  16.5065  16.5579  16.6010  16.6887  16.6930  16.6948
    16.7132  16.7278  16.7283  16.7355  16.7497  16.7562  16.7587  16.7737
    16.7925  16.8419  16.8847  16.9010  16.9138  16.9468  16.9670  16.9691
    17.0794  17.0843  17.1101  17.1238  17.2013  17.2504  17.4606  17.5601
    17.6177  17.7400  17.9486  18.1123  18.1450  18.1946  18.5678  19.6205
    19.8695  19.9256  19.9779  20.0436  20.1866  20.4902  21.1058  21.3854
    21.5241  21.8511  22.4194  22.5635  22.8982  22.9611  23.5417  23.8160
    23.8327  23.9014  23.9553  24.0173  24.0453  24.1921  24.5567  24.6629
    25.0313  25.1452  25.5889  25.7435  25.8609  26.2437  26.2580  26.3106
    27.0960  27.3112  27.5904  27.5975  27.6245  27.7997  27.8514  27.8860
    27.9635  27.9989

          k = 0.0556 0.3889 0.3556 ( 36123 PWs)   bands (ev):

   -67.0546 -67.0485 -67.0349 -67.0325 -67.0311 -67.0294 -67.0254 -67.0233
   -67.0218 -67.0216 -67.0206 -67.0203 -67.0193 -67.0147 -67.0138 -67.0118
   -66.6393 -66.6376 -66.6354 -66.6339 -66.6273 -66.6268 -66.6264 -66.6262
   -66.6252 -66.6249 -66.6247 -66.6242 -66.6168 -66.6164 -66.6128 -66.6126
   -32.8840 -32.8799 -32.8784 -32.8747 -32.8712 -32.8708 -32.8587 -32.8577
   -32.8574 -32.8532 -32.8509 -32.8497 -32.8475 -32.8474 -32.7959 -32.7931
   -32.7693 -32.7596 -32.7491 -32.7441 -32.7426 -32.7415 -32.7405 -32.7394
   -32.7360 -32.7358 -32.7296 -32.7294 -32.7196 -32.7161 -32.7086 -32.7071
   -32.7059 -32.6897 -32.6751 -32.6732 -32.6713 -32.6665 -32.6654 -32.6621
   -32.6592 -32.6584 -32.6581 -32.6527 -32.6507 -32.6459 -32.6391 -32.6326
   -32.4521 -32.4485 -32.4458 -32.4452 -32.4451 -32.4400 -32.4346 -32.4336
   -32.4316 -32.4286 -32.4266 -32.4258 -32.4206 -32.4165 -32.4121 -32.4110
   -32.3303 -32.3278 -32.3209 -32.3200 -32.3158 -32.3133 -32.3086 -32.3075
   -32.3071 -32.3063 -32.2970 -32.2959 -32.2944 -32.2939 -32.2900 -32.2893
   -32.2859 -32.2857 -32.2835 -32.2814 -32.2814 -32.2802 -32.2756 -32.2753
   -32.2732 -32.2730 -32.2726 -32.2721 -32.2715 -32.2714 -32.2703 -32.2701
    11.1662  11.7147  12.0694  12.4316  12.4822  12.5036  12.5093  12.5184
    12.5280  12.5323  12.5570  12.5637  12.6470  12.6952  12.6994  12.7038
    12.7327  12.7354  12.7972  12.7975  12.8862  12.8939  12.9287  12.9895
    13.1079  13.1562  13.2077  13.2228  13.2809  13.2825  13.2837  13.2907
    13.3118  13.3342  13.3820  13.4016  13.4174  13.5022  13.5203  13.5271
    13.5300  13.5383  13.5729  13.6324  13.6647  13.7100  13.7117  13.7305
    13.8463  13.9048  13.9929  14.0280  14.1571  14.1710  14.1722  14.2250
    14.2438  14.3316  14.3588  14.3872  14.3960  14.4598  14.4763  14.4804
[...]
    15.2703  15.2703  15.2703  15.2703  15.2865  15.2865  15.2865  15.2865
    15.3244  15.3244  15.3244  15.3244  15.3244  15.3244  15.3244  15.3244
    15.5233  15.5233  15.5233  15.5233  15.9054  15.9054  15.9054  15.9054
    16.0403  16.0403  16.0403  16.0403  16.1853  16.1853  16.1853  16.1853
    16.1874  16.1874  16.1874  16.1874  16.1874  16.1874  16.1874  16.1874
    16.5143  16.5143  16.5143  16.5143  16.5693  16.5693  16.5693  16.5693
    16.8032  16.8032  16.8032  16.8032  16.8032  16.8032  16.8032  16.8032
    16.8548  16.8548  16.8548  16.8548  16.9092  16.9092  16.9092  16.9092
    16.9699  16.9699  16.9699  16.9699  16.9699  16.9699  16.9699  16.9699
    17.9420  17.9420  17.9420  17.9420  20.1388  20.1388  20.1388  20.1388
    20.1388  20.1388  20.1388  20.1388  21.4146  21.4146  21.4146  21.4146
    21.4146  21.4146  21.4146  21.4146  22.2273  22.2273  22.2273  22.2274
    23.9170  23.9170  23.9170  23.9170  23.9170  23.9170  23.9170  23.9170
    25.3031  25.3031  25.3031  25.3031  26.2225  26.2225  26.2225  26.2225
    27.3287  27.3287  27.3287  27.3287  27.3287  27.3287  27.3287  27.3320
    27.3325  27.3325

          k =-0.5000-0.5000 0.2540 ( 36128 PWs)   bands (ev):

   -66.8228 -66.8228 -66.8228 -66.8228 -66.8171 -66.8171 -66.8171 -66.8171
   -66.8072 -66.8072 -66.8072 -66.8072 -66.8015 -66.8015 -66.8015 -66.8015
   -66.7965 -66.7965 -66.7965 -66.7965 -66.7964 -66.7964 -66.7964 -66.7963
   -66.7959 -66.7959 -66.7959 -66.7959 -66.7958 -66.7958 -66.7958 -66.7958
   -32.6484 -32.6484 -32.6484 -32.6484 -32.6483 -32.6483 -32.6483 -32.6483
   -32.6422 -32.6422 -32.6422 -32.6422 -32.6422 -32.6422 -32.6422 -32.6422
   -32.6007 -32.6007 -32.6007 -32.6007 -32.5968 -32.5968 -32.5968 -32.5968
   -32.5624 -32.5624 -32.5624 -32.5624 -32.5421 -32.5421 -32.5421 -32.5421
   -32.5233 -32.5233 -32.5233 -32.5233 -32.5195 -32.5195 -32.5195 -32.5195
   -32.5195 -32.5195 -32.5195 -32.5195 -32.5113 -32.5113 -32.5113 -32.5113
   -32.5113 -32.5113 -32.5113 -32.5113 -32.4865 -32.4865 -32.4865 -32.4864
   -32.4776 -32.4776 -32.4776 -32.4776 -32.4776 -32.4776 -32.4776 -32.4776
   -32.4634 -32.4633 -32.4633 -32.4633 -32.4633 -32.4633 -32.4633 -32.4633
   -32.4557 -32.4557 -32.4557 -32.4557 -32.4434 -32.4434 -32.4434 -32.4434
   -32.4333 -32.4333 -32.4333 -32.4333 -32.4216 -32.4216 -32.4216 -32.4216
   -32.4196 -32.4196 -32.4196 -32.4196 -32.4089 -32.4089 -32.4089 -32.4089
    12.0921  12.0921  12.0921  12.0922  12.5266  12.5266  12.5266  12.5266
    13.0441  13.0441  13.0441  13.0441  13.0530  13.0530  13.0530  13.0530
    13.1521  13.1521  13.1521  13.1521  13.1521  13.1521  13.1521  13.1521
    13.2611  13.2611  13.2611  13.2611  13.2611  13.2611  13.2611  13.2611
    13.5351  13.5351  13.5351  13.5351  13.5352  13.5352  13.5352  13.5352
    13.7218  13.7218  13.7218  13.7218  13.9803  13.9804  13.9804  13.9804
    13.9804  13.9804  13.9804  13.9804  14.0637  14.0637  14.0637  14.0638
    14.4487  14.4487  14.4487  14.4487  14.4516  14.4516  14.4516  14.4517
    14.5891  14.5891  14.5891  14.5891  14.6581  14.6581  14.6581  14.6581
    14.7597  14.7597  14.7597  14.7597  14.9932  14.9932  14.9932  14.9932
    15.0136  15.0136  15.0136  15.0136  15.0136  15.0136  15.0136  15.0136
    15.2278  15.2278  15.2278  15.2278  15.2417  15.2417  15.2417  15.2417
    15.2529  15.2530  15.2530  15.2530  15.2530  15.2530  15.2530  15.2530
    15.3794  15.3794  15.3794  15.3794  15.3794  15.3794  15.3794  15.3794
    15.6305  15.6305  15.6305  15.6305  15.9570  15.9570  15.9570  15.9570
    15.9570  15.9570  15.9570  15.9571  15.9845  15.9845  15.9845  15.9845
    16.0115  16.0115  16.0115  16.0115  16.0971  16.0971  16.0971  16.0971
    16.2245  16.2245  16.2245  16.2245  16.4500  16.4500  16.4500  16.4500
    16.9136  16.9136  16.9136  16.9136  16.9311  16.9311  16.9311  16.9311
    16.9311  16.9311  16.9311  16.9311  16.9372  16.9372  16.9372  16.9373
    17.0032  17.0032  17.0032  17.0032  17.0032  17.0032  17.0032  17.0032
    18.5606  18.5606  18.5606  18.5606  20.2651  20.2651  20.2651  20.2651
    20.2651  20.2651  20.2651  20.2651  21.1860  21.1860  21.1860  21.1860
    21.1860  21.1860  21.1860  21.1860  21.4924  21.4924  21.4924  21.4924
    24.2795  24.2795  24.2795  24.2795  24.2795  24.2795  24.2795  24.2795
    25.4931  25.4931  25.4931  25.4931  26.5976  26.5976  26.5976  26.5976
    26.5976  26.5976  26.5976  26.5976  26.8707  26.8707  26.8708  26.8708
    27.0756  27.0756

          k =-0.5000-0.5000 0.3556 ( 36072 PWs)   bands (ev):

   -66.8218 -66.8218 -66.8218 -66.8218 -66.8189 -66.8188 -66.8188 -66.8188
   -66.8054 -66.8054 -66.8054 -66.8054 -66.8025 -66.8025 -66.8025 -66.8025
   -66.7965 -66.7965 -66.7965 -66.7965 -66.7964 -66.7964 -66.7964 -66.7963
   -66.7959 -66.7959 -66.7959 -66.7959 -66.7958 -66.7958 -66.7958 -66.7958
   -32.6469 -32.6469 -32.6469 -32.6469 -32.6468 -32.6468 -32.6468 -32.6468
   -32.6436 -32.6436 -32.6436 -32.6436 -32.6436 -32.6436 -32.6436 -32.6436
   -32.6029 -32.6029 -32.6029 -32.6029 -32.6010 -32.6010 -32.6010 -32.6010
   -32.5518 -32.5518 -32.5518 -32.5518 -32.5316 -32.5316 -32.5316 -32.5316
   -32.5287 -32.5287 -32.5287 -32.5287 -32.5181 -32.5181 -32.5181 -32.5181
   -32.5181 -32.5181 -32.5181 -32.5181 -32.5139 -32.5139 -32.5139 -32.5139
   -32.5139 -32.5139 -32.5139 -32.5139 -32.5003 -32.5003 -32.5003 -32.5003
   -32.4737 -32.4737 -32.4737 -32.4737 -32.4737 -32.4737 -32.4737 -32.4736
   -32.4662 -32.4661 -32.4661 -32.4661 -32.4661 -32.4661 -32.4661 -32.4661
   -32.4535 -32.4535 -32.4535 -32.4535 -32.4472 -32.4472 -32.4472 -32.4472
   -32.4275 -32.4275 -32.4275 -32.4275 -32.4208 -32.4208 -32.4208 -32.4208
   -32.4176 -32.4176 -32.4176 -32.4176 -32.4111 -32.4111 -32.4111 -32.4111
    12.1745  12.1746  12.1746  12.1746  12.3975  12.3975  12.3975  12.3975
    13.0711  13.0712  13.0712  13.0712  13.0753  13.0753  13.0753  13.0753
    13.1497  13.1497  13.1497  13.1497  13.1497  13.1497  13.1497  13.1497
    13.2096  13.2096  13.2096  13.2096  13.2096  13.2096  13.2096  13.2096
    13.6637  13.6637  13.6637  13.6637  13.6637  13.6637  13.6638  13.6638
    13.7786  13.7786  13.7786  13.7786  13.9045  13.9045  13.9045  13.9045
    13.9046  13.9046  13.9046  13.9046  13.9527  13.9527  13.9527  13.9527
    14.4878  14.4878  14.4878  14.4878  14.5218  14.5218  14.5218  14.5218
    14.5904  14.5904  14.5904  14.5904  14.7293  14.7293  14.7293  14.7293
    14.7411  14.7411  14.7411  14.7411  14.9103  14.9103  14.9103  14.9103
    15.0818  15.0818  15.0818  15.0818  15.0818  15.0818  15.0818  15.0818
    15.2112  15.2112  15.2112  15.2113  15.2151  15.2151  15.2151  15.2151
    15.2194  15.2195  15.2195  15.2195  15.2195  15.2195  15.2195  15.2195
    15.4559  15.4559  15.4559  15.4559  15.4559  15.4559  15.4559  15.4560
    15.7445  15.7445  15.7445  15.7445  15.7445  15.7445  15.7445  15.7445
    15.7469  15.7469  15.7469  15.7469  15.9846  15.9846  15.9846  15.9846
    15.9873  15.9873  15.9873  15.9873  16.0518  16.0518  16.0518  16.0518
    16.0869  16.0869  16.0869  16.0869  16.3262  16.3262  16.3262  16.3262
    16.9504  16.9504  16.9504  16.9504  16.9589  16.9589  16.9589  16.9589
    17.0088  17.0088  17.0088  17.0088  17.0088  17.0088  17.0088  17.0088
    17.0322  17.0322  17.0322  17.0322  17.0322  17.0322  17.0322  17.0322
    19.2359  19.2360  19.2360  19.2360  20.4470  20.4470  20.4470  20.4470
    20.4470  20.4470  20.4470  20.4470  20.7188  20.7188  20.7188  20.7188
    20.9271  20.9271  20.9271  20.9271  20.9271  20.9271  20.9271  20.9271
    24.7487  24.7487  24.7487  24.7487  24.7487  24.7487  24.7487  24.7487
    25.7491  25.7491  25.7491  25.7491  25.9183  25.9183  25.9183  25.9183
    25.9183  25.9183  25.9183  25.9183  26.4468  26.4468  26.4468  26.4468
    28.0427  28.0427

          k =-0.5000-0.5000-0.4571 ( 36096 PWs)   bands (ev):

   -66.8207 -66.8207 -66.8207 -66.8206 -66.8202 -66.8202 -66.8202 -66.8202
   -66.8040 -66.8040 -66.8040 -66.8040 -66.8036 -66.8036 -66.8036 -66.8036
   -66.7965 -66.7965 -66.7965 -66.7965 -66.7964 -66.7964 -66.7964 -66.7963
   -66.7959 -66.7959 -66.7959 -66.7959 -66.7958 -66.7958 -66.7958 -66.7958
   -32.6456 -32.6456 -32.6456 -32.6456 -32.6455 -32.6455 -32.6455 -32.6455
   -32.6451 -32.6451 -32.6451 -32.6451 -32.6449 -32.6449 -32.6449 -32.6449
   -32.6030 -32.6030 -32.6030 -32.6030 -32.6030 -32.6030 -32.6030 -32.6030
   -32.5414 -32.5414 -32.5414 -32.5414 -32.5412 -32.5412 -32.5412 -32.5412
   -32.5164 -32.5164 -32.5164 -32.5164 -32.5163 -32.5163 -32.5163 -32.5163
   -32.5160 -32.5160 -32.5160 -32.5160 -32.5159 -32.5159 -32.5159 -32.5159
   -32.5146 -32.5145 -32.5145 -32.5145 -32.5145 -32.5145 -32.5145 -32.5145
   -32.4701 -32.4701 -32.4701 -32.4701 -32.4699 -32.4699 -32.4699 -32.4699
   -32.4695 -32.4695 -32.4695 -32.4695 -32.4694 -32.4694 -32.4694 -32.4694
   -32.4509 -32.4509 -32.4509 -32.4509 -32.4505 -32.4505 -32.4505 -32.4505
   -32.4235 -32.4235 -32.4235 -32.4235 -32.4233 -32.4233 -32.4233 -32.4233
   -32.4143 -32.4143 -32.4143 -32.4143 -32.4139 -32.4139 -32.4139 -32.4139
    12.2776  12.2777  12.2777  12.2777  12.2784  12.2784  12.2784  12.2785
    13.0813  13.0813  13.0813  13.0813  13.0821  13.0821  13.0821  13.0821
    13.1699  13.1699  13.1699  13.1699  13.1700  13.1700  13.1700  13.1700
    13.1703  13.1703  13.1703  13.1703  13.1703  13.1704  13.1704  13.1704
    13.7922  13.7922  13.7922  13.7922  13.7922  13.7922  13.7923  13.7923
    13.7926  13.7926  13.7926  13.7926  13.7926  13.7926  13.7926  13.7926
    13.8554  13.8555  13.8555  13.8555  13.8566  13.8566  13.8566  13.8566
    14.5181  14.5181  14.5181  14.5181  14.5182  14.5182  14.5182  14.5182
    14.6677  14.6677  14.6677  14.6677  14.6683  14.6683  14.6683  14.6683
    14.8178  14.8178  14.8178  14.8178  14.8180  14.8180  14.8180  14.8180
    15.1609  15.1609  15.1609  15.1610  15.1610  15.1610  15.1610  15.1610
    15.1613  15.1613  15.1613  15.1613  15.1614  15.1614  15.1614  15.1614
    15.2054  15.2054  15.2054  15.2054  15.2059  15.2059  15.2059  15.2059
    15.5729  15.5729  15.5729  15.5729  15.5729  15.5729  15.5730  15.5730
    15.5732  15.5732  15.5732  15.5732  15.5732  15.5732  15.5732  15.5732
    15.8677  15.8677  15.8677  15.8677  15.8679  15.8679  15.8679  15.8679
    15.9846  15.9846  15.9846  15.9846  15.9851  15.9851  15.9851  15.9851
    16.2031  16.2031  16.2031  16.2031  16.2033  16.2033  16.2033  16.2033
    16.9648  16.9648  16.9648  16.9648  16.9649  16.9649  16.9649  16.9649
    17.0389  17.0389  17.0389  17.0389  17.0390  17.0390  17.0390  17.0390
    17.0392  17.0392  17.0392  17.0392  17.0392  17.0392  17.0392  17.0392
    19.9592  19.9593  19.9593  19.9593  19.9594  19.9594  19.9594  19.9594
    20.6728  20.6728  20.6728  20.6728  20.6729  20.6729  20.6729  20.6729
    20.6733  20.6733  20.6733  20.6733  20.6734  20.6734  20.6734  20.6734
    25.2987  25.2987  25.2987  25.2987  25.2988  25.2988  25.2988  25.2988
    25.2997  25.2997  25.2997  25.2997  25.2999  25.2999  25.2999  25.2999
    26.0696  26.0696  26.0696  26.0696  26.0699  26.0699  26.0699  26.0699
    29.0589  29.0590

     the Fermi energy is    17.0620 ev

!    total energy              =  -16384.80459236 Ry

     total all-electron energy =   -322945.658299 Ry
     estimated scf accuracy    <          9.2E-09 Ry
     smearing contrib. (-TS)   =       0.08755641 Ry
     internal energy E=F+TS    =  -16384.89214877 Ry

     The total energy is F=E-TS. E is the sum of the following terms:
     one-electron contribution =   -2783.28142272 Ry
     hartree contribution      =    1767.37051836 Ry
     xc contribution           =    -984.73050556 Ry
     ewald contribution        =   -6216.92123062 Ry
     one-center paw contrib.   =   -8167.32950823 Ry

     convergence has been achieved in   7 iterations

     Forces acting on atoms (cartesian axes, Ry/au):

     atom    1 type  1   force =     0.00000000    0.00000000   -0.00002055
     atom    2 type  1   force =    -0.00000173   -0.00000173   -0.00001951
     atom    3 type  1   force =    -0.00000055    0.00000000   -0.00006478
     atom    4 type  1   force =     0.00000000   -0.00000055   -0.00006478
     atom    5 type  1   force =     0.00000000    0.00000000    0.00004463
     atom    6 type  1   force =    -0.00000203   -0.00000203    0.00004208
     atom    7 type  1   force =    -0.00000039    0.00000000    0.00003821
     atom    8 type  1   force =     0.00000000   -0.00000039    0.00003821
     atom    9 type  1   force =     0.00000000    0.00000000   -0.00001681
     atom   10 type  1   force =    -0.00000173    0.00000173   -0.00001951
     atom   11 type  1   force =    -0.00000050    0.00000000   -0.00006501
     atom   12 type  1   force =     0.00000000    0.00000055   -0.00006478
     atom   13 type  1   force =     0.00000000    0.00000000    0.00004595
     atom   14 type  1   force =    -0.00000203    0.00000203    0.00004208
     atom   15 type  1   force =    -0.00000049    0.00000000    0.00004121
     atom   16 type  1   force =     0.00000000    0.00000039    0.00003821
     atom   17 type  1   force =     0.00000000    0.00000000   -0.00001681
     atom   18 type  1   force =     0.00000173   -0.00000173   -0.00001951
     atom   19 type  1   force =     0.00000055    0.00000000   -0.00006478
     atom   20 type  1   force =     0.00000000   -0.00000050   -0.00006501
     atom   21 type  1   force =     0.00000000    0.00000000    0.00004595
     atom   22 type  1   force =     0.00000203   -0.00000203    0.00004208
     atom   23 type  1   force =     0.00000039    0.00000000    0.00003821
     atom   24 type  1   force =     0.00000000   -0.00000049    0.00004121
     atom   25 type  1   force =     0.00000000    0.00000000   -0.00001803
     atom   26 type  1   force =     0.00000173    0.00000173   -0.00001951
     atom   27 type  1   force =     0.00000050    0.00000000   -0.00006501
     atom   28 type  1   force =     0.00000000    0.00000050   -0.00006501
     atom   29 type  1   force =     0.00000000    0.00000000    0.00004688
     atom   30 type  1   force =     0.00000203    0.00000203    0.00004208
     atom   31 type  1   force =     0.00000049    0.00000000    0.00004121
     atom   32 type  1   force =     0.00000000    0.00000049    0.00004121

     Total force =     0.000254     Total SCF correction =     0.000202
     SCF correction compared to forces is large: reduce conv_thr to get better values


     Computing stress (Cartesian axis) and pressure

          total   stress  (Ry/bohr**3)                   (kbar)     P=     -121.17
  -0.00069056   0.00000000   0.00000000         -101.58        0.00        0.00
   0.00000000  -0.00069056   0.00000000            0.00     -101.58        0.00
   0.00000000   0.00000000  -0.00108989            0.00        0.00     -160.33

     Energy error            =      3.5E-06
     Gradient error          =      6.5E-05

     bfgs converged in  13 scf cycles and  12 bfgs steps
     (criteria: energy <  1.0E-04 Ry, force <  1.0E-03 Ry/Bohr)

     End of BFGS Geometry Optimization

     Final energy   =  -16384.8045923612 Ry

     File /scratch/qKErHctSCWIqsrGW.bfgs deleted, as requested
Begin final coordinates

ATOMIC_POSITIONS (crystal)
Pd            0.0000000000        0.0000000000        0.0107298978
Pd            0.2500008146        0.2500008146        0.0107276852
Pd            0.2500004709        0.0000000000        0.2607484791
Pd            0.0000000000        0.2500004709        0.2607484791
Pd            0.0000000000        0.0000000000        0.5106939865
Pd            0.2500012262        0.2500012262        0.5106937528
Pd            0.2499999108        0.0000000000        0.7606912230
Pd            0.0000000000        0.2499999108        0.7606912230
Pd            0.0000000000        0.5000000000        0.0107261650
Pd            0.2500008146        0.7499991854        0.0107276852
Pd            0.2500002378        0.5000000000        0.2607484134
Pd            0.0000000000        0.7499995291        0.2607484791
Pd            0.0000000000        0.5000000000        0.5106907329
Pd            0.2500012262        0.7499987738        0.5106937528
Pd            0.2500001248        0.5000000000        0.7606865405
Pd            0.0000000000        0.7500000892        0.7606912230
Pd            0.5000000000        0.0000000000        0.0107261650
Pd            0.7499991854        0.2500008146        0.0107276852
Pd            0.7499995291        0.0000000000        0.2607484791
Pd            0.5000000000        0.2500002378        0.2607484134
Pd            0.5000000000        0.0000000000        0.5106907329
Pd            0.7499987738        0.2500012262        0.5106937528
Pd            0.7500000892        0.0000000000        0.7606912230
Pd            0.5000000000        0.2500001248        0.7606865405
Pd            0.5000000000        0.5000000000        0.0107268515
Pd            0.7499991854        0.7499991854        0.0107276852
Pd            0.7499997622        0.5000000000        0.2607484134
Pd            0.5000000000        0.7499997622        0.2607484134
Pd            0.5000000000        0.5000000000        0.5106882351
Pd            0.7499987738        0.7499987738        0.5106937528
Pd            0.7499998752        0.5000000000        0.7606865405
Pd            0.5000000000        0.7499998752        0.7606865405
End final coordinates



     Writing output data file /scratch/qKErHctSCWIqsrGW.save/
 
     init_run     :     23.67s CPU     24.23s WALL (       1 calls)
     electrons    :  14087.37s CPU  14240.44s WALL (      13 calls)
     update_pot   :      2.99s CPU      3.10s WALL (      12 calls)
     forces       :    169.64s CPU    170.89s WALL (      13 calls)
     stress       :   1285.97s CPU   1294.72s WALL (      13 calls)

     Called by init_run:
     wfcinit      :     23.17s CPU     23.65s WALL (       1 calls)
     potinit      :      0.16s CPU      0.18s WALL (       1 calls)
     hinit0       :      0.13s CPU      0.14s WALL (       1 calls)

     Called by electrons:
     c_bands      :  12631.01s CPU  12761.22s WALL (     162 calls)
     sum_band     :   1435.53s CPU   1454.85s WALL (     162 calls)
     v_of_rho     :      2.54s CPU      2.69s WALL (     169 calls)
     newd         :      4.24s CPU      6.22s WALL (     169 calls)
     PAW_pot      :     15.23s CPU     16.20s WALL (     181 calls)
     mix_rho      :      0.69s CPU      0.80s WALL (     162 calls)

     Called by c_bands:
     init_us_2    :     63.15s CPU     63.87s WALL (   27225 calls)
     cegterg      :  12403.02s CPU  12530.37s WALL (   12150 calls)

     Called by *egterg:
     cdiaghg      :   1278.38s CPU   1286.00s WALL (   41972 calls)
     h_psi        :   6352.07s CPU   6442.45s WALL (   43397 calls)
     s_psi        :    566.01s CPU    569.46s WALL (   43397 calls)
     g_psi        :     24.44s CPU     24.77s WALL (   31172 calls)

     Called by h_psi:
     h_psi:calbec :    980.04s CPU    985.89s WALL (   43397 calls)
     vloc_psi     :   4765.91s CPU   4839.19s WALL (   43397 calls)
     add_vuspsi   :    565.71s CPU    576.59s WALL (   43397 calls)

     General routines
     calbec       :   1615.68s CPU   1625.15s WALL (   61322 calls)
     fft          :      2.83s CPU      2.91s WALL (    2514 calls)
     ffts         :      0.23s CPU      0.24s WALL (     331 calls)
     fftw         :   5508.36s CPU   5592.29s WALL (25564982 calls)
     interpolate  :      0.41s CPU      0.42s WALL (     169 calls)
 
     Parallel routines
     fft_scatt_xy :    441.85s CPU    448.66s WALL (25567827 calls)
     fft_scatt_yz :   4280.94s CPU   4346.64s WALL (25567827 calls)
 
     PWSCF        :      4h20m CPU      4h23m WALL

 
   This run was terminated on:   9:34: 8   7Jan2022            

=------------------------------------------------------------------------------=
   JOB DONE.
=------------------------------------------------------------------------------=
