
     Program PWSCF v.6.7MaX starts on  7Jan2022 at  6:30:58 

     This program is part of the open-source Quantum ESPRESSO suite
     for quantum simulation of materials; please cite
         "P. Giannozzi et al., J. Phys.:Condens. Matter 21 395502 (2009);
         "P. Giannozzi et al., J. Phys.:Condens. Matter 29 465901 (2017);
          URL http://www.quantum-espresso.org", 
     in publications or presentations arising from this work. More details at
     http://www.quantum-espresso.org/quote

     Parallel version (MPI & OpenMP), running on      72 processor cores
     Number of MPI processes:                72
     Threads/MPI process:                     1

     MPI processes distributed on     1 nodes
     R & G space division:  proc/nbgrp/npool/nimage =      72
     Reading input from relax_17.in
Warning: card &CELL ignored
Warning: card CELL_DYNAMICS = 'BFGS', ignored
Warning: card CELL_FACTOR = 2.0, ignored
Warning: card PRESS = 0.0, ignored
Warning: card / ignored

     Current dimensions of program PWSCF are:
     Max number of different atomic species (ntypx) = 10
     Max number of k-points (npk) =  40000
     Max angular momentum in pseudopotentials (lmaxx) =  3
     file Pd.pbe-spn-kjpaw_psl.1.0.0.UPF: wavefunction(s)  4S 5S 4D renormalized

     Subspace diagonalization in iterative solution of the eigenvalue problem:
     one sub-group per band group will be used
     ELPA distributed-memory algorithm (size of sub-group:  8*  8 procs)

     Found symmetry operation: I + (  0.2500  0.2500  0.0000)
     This is a supercell, fractional translations are disabled
     Message from routine setup:
     using ibrav=0 with symmetry is DISCOURAGED, use correct ibrav instead
 
     Parallelization info
     --------------------
     sticks:   dense  smooth     PW     G-vecs:    dense   smooth      PW
     Min         104      68     18                10244     5494     768
     Max         105      69     19                10255     5505     779
     Sum        7521    4957   1353               737987   396115   55631
 


     bravais-lattice index     =            0
     lattice parameter (alat)  =      14.8394  a.u.
     unit-cell volume          =    4901.6471 (a.u.)^3
     number of atoms/cell      =           32
     number of atomic types    =            1
     number of electrons       =       576.00
     number of Kohn-Sham states=          346
     kinetic-energy cutoff     =      71.0000  Ry
     charge density cutoff     =     430.0000  Ry
     scf convergence threshold =      1.0E-06
     mixing beta               =       0.1000
     number of iterations used =           10  TF        mixing
     energy convergence thresh.=      1.0E-04
     force convergence thresh. =      1.0E-03
     Exchange-correlation= SLA  PW   PBX  PBC
                           (   1   4   3   4   0   0   0)
     nstep                     =           40


     celldm(1)=  14.839420  celldm(2)=   0.000000  celldm(3)=   0.000000
     celldm(4)=   0.000000  celldm(5)=   0.000000  celldm(6)=   0.000000

     crystal axes: (cart. coord. in units of alat)
               a(1) = (   1.000000   0.000000   0.000000 )  
               a(2) = (   0.000000   1.000000   0.000000 )  
               a(3) = (   0.000000   0.000000   1.500000 )  

     reciprocal axes: (cart. coord. in units 2 pi/alat)
               b(1) = (  1.000000  0.000000  0.000000 )  
               b(2) = (  0.000000  1.000000  0.000000 )  
               b(3) = (  0.000000  0.000000  0.666667 )  


     PseudoPot. # 1 for Pd read from file:
     /rds/homes/b/bxp912/pp/Pd.pbe-spn-kjpaw_psl.1.0.0.UPF
     MD5 check sum: 790f2ebce206edfd9790dcb9844eca51
     Pseudo is Projector augmented-wave + core cor, Zval = 18.0
     Generated using &quot;atomic&quot; code by A. Dal Corso  v.6.3
     Shape of augmentation charge: PSQ
     Using radial grid of 1235 points,  6 beta functions with: 
                l(1) =   0
                l(2) =   0
                l(3) =   1
                l(4) =   1
                l(5) =   2
                l(6) =   2
     Q(r) pseudized with 0 coefficients 


     atomic species   valence    mass     pseudopotential
        Pd            18.00   106.42000     Pd( 1.00)

      8 Sym. Ops. (no inversion) found



   Cartesian axes

     site n.     atom                  positions (alat units)
         1           Pd  tau(   1) = (   0.0000000   0.0000000   0.0000000  )
         2           Pd  tau(   2) = (   0.2500000   0.2500000   0.0000000  )
         3           Pd  tau(   3) = (   0.2500000   0.0000000   0.2500000  )
         4           Pd  tau(   4) = (   0.0000000   0.2500000   0.2500000  )
         5           Pd  tau(   5) = (   0.0000000   0.0000000   1.0000000  )
         6           Pd  tau(   6) = (   0.2500000   0.2500000   1.0000000  )
         7           Pd  tau(   7) = (   0.2500000   0.0000000   1.2500000  )
         8           Pd  tau(   8) = (   0.0000000   0.2500000   1.2500000  )
         9           Pd  tau(   9) = (   0.0000000   0.5000000   0.0000000  )
        10           Pd  tau(  10) = (   0.2500000   0.7500000   0.0000000  )
        11           Pd  tau(  11) = (   0.2500000   0.5000000   0.2500000  )
        12           Pd  tau(  12) = (   0.0000000   0.7500000   0.2500000  )
        13           Pd  tau(  13) = (   0.0000000   0.5000000   1.0000000  )
        14           Pd  tau(  14) = (   0.2500000   0.7500000   1.0000000  )
        15           Pd  tau(  15) = (   0.2500000   0.5000000   1.2500000  )
        16           Pd  tau(  16) = (   0.0000000   0.7500000   1.2500000  )
        17           Pd  tau(  17) = (   0.5000000   0.0000000   0.0000000  )
        18           Pd  tau(  18) = (   0.7500000   0.2500000   0.0000000  )
        19           Pd  tau(  19) = (   0.7500000   0.0000000   0.2500000  )
        20           Pd  tau(  20) = (   0.5000000   0.2500000   0.2500000  )
        21           Pd  tau(  21) = (   0.5000000   0.0000000   1.0000000  )
        22           Pd  tau(  22) = (   0.7500000   0.2500000   1.0000000  )
        23           Pd  tau(  23) = (   0.7500000   0.0000000   1.2500000  )
        24           Pd  tau(  24) = (   0.5000000   0.2500000   1.2500000  )
        25           Pd  tau(  25) = (   0.5000000   0.5000000   0.0000000  )
        26           Pd  tau(  26) = (   0.7500000   0.7500000   0.0000000  )
        27           Pd  tau(  27) = (   0.7500000   0.5000000   0.2500000  )
        28           Pd  tau(  28) = (   0.5000000   0.7500000   0.2500000  )
        29           Pd  tau(  29) = (   0.5000000   0.5000000   1.0000000  )
        30           Pd  tau(  30) = (   0.7500000   0.7500000   1.0000000  )
        31           Pd  tau(  31) = (   0.7500000   0.5000000   1.2500000  )
        32           Pd  tau(  32) = (   0.5000000   0.7500000   1.2500000  )

     number of k points=    75  Marzari-Vanderbilt smearing, width (Ry)=  0.0400
                       cart. coord. in units 2pi/alat
        k(    1) = (   0.0555556   0.0555556   0.0370370), wk =   0.0219479
        k(    2) = (   0.0555556   0.0555556   0.1111111), wk =   0.0219479
        k(    3) = (   0.0555556   0.0555556   0.1851852), wk =   0.0219479
        k(    4) = (   0.0555556   0.0555556   0.2592593), wk =   0.0219479
        k(    5) = (   0.0555556   0.0555556  -0.3333333), wk =   0.0109739
        k(    6) = (   0.0555556   0.1666667   0.0370370), wk =   0.0438957
        k(    7) = (   0.0555556   0.1666667   0.1111111), wk =   0.0438957
        k(    8) = (   0.0555556   0.1666667   0.1851852), wk =   0.0438957
        k(    9) = (   0.0555556   0.1666667   0.2592593), wk =   0.0438957
        k(   10) = (   0.0555556   0.1666667  -0.3333333), wk =   0.0219479
        k(   11) = (   0.0555556   0.2777778   0.0370370), wk =   0.0438957
        k(   12) = (   0.0555556   0.2777778   0.1111111), wk =   0.0438957
        k(   13) = (   0.0555556   0.2777778   0.1851852), wk =   0.0438957
        k(   14) = (   0.0555556   0.2777778   0.2592593), wk =   0.0438957
        k(   15) = (   0.0555556   0.2777778  -0.3333333), wk =   0.0219479
        k(   16) = (   0.0555556   0.3888889   0.0370370), wk =   0.0438957
        k(   17) = (   0.0555556   0.3888889   0.1111111), wk =   0.0438957
        k(   18) = (   0.0555556   0.3888889   0.1851852), wk =   0.0438957
        k(   19) = (   0.0555556   0.3888889   0.2592593), wk =   0.0438957
        k(   20) = (   0.0555556   0.3888889  -0.3333333), wk =   0.0219479
        k(   21) = (   0.0555556  -0.5000000   0.0370370), wk =   0.0219479
        k(   22) = (   0.0555556  -0.5000000   0.1111111), wk =   0.0219479
        k(   23) = (   0.0555556  -0.5000000   0.1851852), wk =   0.0219479
        k(   24) = (   0.0555556  -0.5000000   0.2592593), wk =   0.0219479
        k(   25) = (   0.0555556  -0.5000000  -0.3333333), wk =   0.0109739
        k(   26) = (   0.1666667   0.1666667   0.0370370), wk =   0.0219479
        k(   27) = (   0.1666667   0.1666667   0.1111111), wk =   0.0219479
        k(   28) = (   0.1666667   0.1666667   0.1851852), wk =   0.0219479
        k(   29) = (   0.1666667   0.1666667   0.2592593), wk =   0.0219479
        k(   30) = (   0.1666667   0.1666667  -0.3333333), wk =   0.0109739
        k(   31) = (   0.1666667   0.2777778   0.0370370), wk =   0.0438957
        k(   32) = (   0.1666667   0.2777778   0.1111111), wk =   0.0438957
        k(   33) = (   0.1666667   0.2777778   0.1851852), wk =   0.0438957
        k(   34) = (   0.1666667   0.2777778   0.2592593), wk =   0.0438957
        k(   35) = (   0.1666667   0.2777778  -0.3333333), wk =   0.0219479
        k(   36) = (   0.1666667   0.3888889   0.0370370), wk =   0.0438957
        k(   37) = (   0.1666667   0.3888889   0.1111111), wk =   0.0438957
        k(   38) = (   0.1666667   0.3888889   0.1851852), wk =   0.0438957
        k(   39) = (   0.1666667   0.3888889   0.2592593), wk =   0.0438957
        k(   40) = (   0.1666667   0.3888889  -0.3333333), wk =   0.0219479
        k(   41) = (   0.1666667  -0.5000000   0.0370370), wk =   0.0219479
        k(   42) = (   0.1666667  -0.5000000   0.1111111), wk =   0.0219479
        k(   43) = (   0.1666667  -0.5000000   0.1851852), wk =   0.0219479
        k(   44) = (   0.1666667  -0.5000000   0.2592593), wk =   0.0219479
        k(   45) = (   0.1666667  -0.5000000  -0.3333333), wk =   0.0109739
        k(   46) = (   0.2777778   0.2777778   0.0370370), wk =   0.0219479
        k(   47) = (   0.2777778   0.2777778   0.1111111), wk =   0.0219479
        k(   48) = (   0.2777778   0.2777778   0.1851852), wk =   0.0219479
        k(   49) = (   0.2777778   0.2777778   0.2592593), wk =   0.0219479
        k(   50) = (   0.2777778   0.2777778  -0.3333333), wk =   0.0109739
        k(   51) = (   0.2777778   0.3888889   0.0370370), wk =   0.0438957
        k(   52) = (   0.2777778   0.3888889   0.1111111), wk =   0.0438957
        k(   53) = (   0.2777778   0.3888889   0.1851852), wk =   0.0438957
        k(   54) = (   0.2777778   0.3888889   0.2592593), wk =   0.0438957
        k(   55) = (   0.2777778   0.3888889  -0.3333333), wk =   0.0219479
        k(   56) = (   0.2777778  -0.5000000   0.0370370), wk =   0.0219479
        k(   57) = (   0.2777778  -0.5000000   0.1111111), wk =   0.0219479
        k(   58) = (   0.2777778  -0.5000000   0.1851852), wk =   0.0219479
        k(   59) = (   0.2777778  -0.5000000   0.2592593), wk =   0.0219479
        k(   60) = (   0.2777778  -0.5000000  -0.3333333), wk =   0.0109739
        k(   61) = (   0.3888889   0.3888889   0.0370370), wk =   0.0219479
        k(   62) = (   0.3888889   0.3888889   0.1111111), wk =   0.0219479
        k(   63) = (   0.3888889   0.3888889   0.1851852), wk =   0.0219479
        k(   64) = (   0.3888889   0.3888889   0.2592593), wk =   0.0219479
        k(   65) = (   0.3888889   0.3888889  -0.3333333), wk =   0.0109739
        k(   66) = (   0.3888889  -0.5000000   0.0370370), wk =   0.0219479
        k(   67) = (   0.3888889  -0.5000000   0.1111111), wk =   0.0219479
        k(   68) = (   0.3888889  -0.5000000   0.1851852), wk =   0.0219479
        k(   69) = (   0.3888889  -0.5000000   0.2592593), wk =   0.0219479
        k(   70) = (   0.3888889  -0.5000000  -0.3333333), wk =   0.0109739
        k(   71) = (  -0.5000000  -0.5000000   0.0370370), wk =   0.0054870
        k(   72) = (  -0.5000000  -0.5000000   0.1111111), wk =   0.0054870
        k(   73) = (  -0.5000000  -0.5000000   0.1851852), wk =   0.0054870
        k(   74) = (  -0.5000000  -0.5000000   0.2592593), wk =   0.0054870
        k(   75) = (  -0.5000000  -0.5000000  -0.3333333), wk =   0.0027435

     Dense  grid:   737987 G-vectors     FFT dimensions: ( 100, 100, 150)

     Smooth grid:   396115 G-vectors     FFT dimensions: (  80,  80, 120)

     Estimated max dynamical RAM per process >     334.25 MB

     Estimated total dynamical RAM >      23.50 GB

     Check: negative core charge=   -0.000001

     Initial potential from superposition of free atoms

     starting charge  575.98776, renormalised to  576.00000
     Starting wfcs are  320 randomized atomic wfcs +   26 random wfcs
     Checking if some PAW data can be deallocated... 

     total cpu time spent up to now is       28.6 secs

     Self-consistent Calculation

     iteration #  1     ecut=    71.00 Ry     beta= 0.10
     Davidson diagonalization with overlap
     ethr =  1.00E-02,  avg # of iterations =  4.0

     Threshold (ethr) on eigenvalues was too large:
     Diagonalizing with lowered threshold

     Davidson diagonalization with overlap
     ethr =  7.47E-04,  avg # of iterations =  1.2

     total cpu time spent up to now is      200.4 secs

     total energy              =  -16384.82384516 Ry
     estimated scf accuracy    <       4.29458059 Ry

     iteration #  2     ecut=    71.00 Ry     beta= 0.10
     Davidson diagonalization with overlap
     ethr =  7.46E-04,  avg # of iterations =  1.1

     total cpu time spent up to now is      272.4 secs

     total energy              =  -16384.35078872 Ry
     estimated scf accuracy    <       3.88039568 Ry

     iteration #  3     ecut=    71.00 Ry     beta= 0.10
     Davidson diagonalization with overlap
     ethr =  6.74E-04,  avg # of iterations =  2.5

     total cpu time spent up to now is      351.0 secs

     total energy              =  -16384.16428866 Ry
     estimated scf accuracy    <       2.62746529 Ry

     iteration #  4     ecut=    71.00 Ry     beta= 0.10
     Davidson diagonalization with overlap
     ethr =  4.56E-04,  avg # of iterations =  4.5

     total cpu time spent up to now is      438.2 secs

     total energy              =  -16384.32882589 Ry
     estimated scf accuracy    <       0.80620790 Ry

     iteration #  5     ecut=    71.00 Ry     beta= 0.10
     Davidson diagonalization with overlap
     ethr =  1.40E-04,  avg # of iterations =  3.0

     total cpu time spent up to now is      519.4 secs

     total energy              =  -16384.03979812 Ry
     estimated scf accuracy    <       1.05139798 Ry

     iteration #  6     ecut=    71.00 Ry     beta= 0.10
     Davidson diagonalization with overlap
     ethr =  1.40E-04,  avg # of iterations =  6.2

     total cpu time spent up to now is      613.2 secs

     total energy              =  -16384.06866310 Ry
     estimated scf accuracy    <       0.27797125 Ry

     iteration #  7     ecut=    71.00 Ry     beta= 0.10
     Davidson diagonalization with overlap
     ethr =  4.83E-05,  avg # of iterations =  5.8

     total cpu time spent up to now is      704.5 secs

     total energy              =  -16384.05097411 Ry
     estimated scf accuracy    <       0.18754757 Ry

     iteration #  8     ecut=    71.00 Ry     beta= 0.10
     Davidson diagonalization with overlap
     c_bands:  1 eigenvalues not converged
     ethr =  3.26E-05,  avg # of iterations =  3.0

     total cpu time spent up to now is      792.2 secs

     total energy              =  -16384.02584627 Ry
     estimated scf accuracy    <       0.12436261 Ry

     iteration #  9     ecut=    71.00 Ry     beta= 0.10
     Davidson diagonalization with overlap
     ethr =  2.16E-05,  avg # of iterations =  6.8

     total cpu time spent up to now is      886.6 secs

     total energy              =  -16384.03120000 Ry
     estimated scf accuracy    <       0.06377166 Ry

     iteration # 10     ecut=    71.00 Ry     beta= 0.10
     Davidson diagonalization with overlap
     ethr =  1.11E-05,  avg # of iterations =  1.9

     total cpu time spent up to now is      966.6 secs

     total energy              =  -16384.02780878 Ry
     estimated scf accuracy    <       0.04910924 Ry

     iteration # 11     ecut=    71.00 Ry     beta= 0.10
     Davidson diagonalization with overlap
     c_bands:  1 eigenvalues not converged
     ethr =  8.53E-06,  avg # of iterations =  3.6

     total cpu time spent up to now is     1053.2 secs

     total energy              =  -16384.03734421 Ry
     estimated scf accuracy    <       0.02207277 Ry

     iteration # 12     ecut=    71.00 Ry     beta= 0.10
     Davidson diagonalization with overlap
     ethr =  3.83E-06,  avg # of iterations =  4.3

     total cpu time spent up to now is     1149.8 secs

     total energy              =  -16384.03149576 Ry
     estimated scf accuracy    <       0.02040495 Ry

     iteration # 13     ecut=    71.00 Ry     beta= 0.10
     Davidson diagonalization with overlap
     c_bands:  1 eigenvalues not converged
     ethr =  3.54E-06,  avg # of iterations =  6.9

     total cpu time spent up to now is     1260.6 secs

     total energy              =  -16384.04065675 Ry
     estimated scf accuracy    <       0.02507746 Ry

     iteration # 14     ecut=    71.00 Ry     beta= 0.10
     Davidson diagonalization with overlap
     ethr =  3.54E-06,  avg # of iterations =  6.2

     total cpu time spent up to now is     1371.0 secs

     total energy              =  -16384.04575597 Ry
     estimated scf accuracy    <       0.01136223 Ry

     iteration # 15     ecut=    71.00 Ry     beta= 0.10
     Davidson diagonalization with overlap
     ethr =  1.97E-06,  avg # of iterations =  3.9

     total cpu time spent up to now is     1460.6 secs

     total energy              =  -16384.04933958 Ry
     estimated scf accuracy    <       0.00190302 Ry

     iteration # 16     ecut=    71.00 Ry     beta= 0.10
     Davidson diagonalization with overlap
     ethr =  3.30E-07,  avg # of iterations =  2.5

     total cpu time spent up to now is     1548.0 secs

     total energy              =  -16384.05174644 Ry
     estimated scf accuracy    <       0.00075227 Ry

     iteration # 17     ecut=    71.00 Ry     beta= 0.10
     Davidson diagonalization with overlap
     ethr =  1.31E-07,  avg # of iterations =  5.2

     total cpu time spent up to now is     1658.0 secs

     total energy              =  -16384.05259163 Ry
     estimated scf accuracy    <       0.00075233 Ry

     iteration # 18     ecut=    71.00 Ry     beta= 0.10
     Davidson diagonalization with overlap
     ethr =  1.31E-07,  avg # of iterations =  2.6

     total cpu time spent up to now is     1755.0 secs

     total energy              =  -16384.05294727 Ry
     estimated scf accuracy    <       0.00007761 Ry

     iteration # 19     ecut=    71.00 Ry     beta= 0.10
     Davidson diagonalization with overlap
     ethr =  1.35E-08,  avg # of iterations =  2.1

     total cpu time spent up to now is     1841.7 secs

     total energy              =  -16384.05302612 Ry
     estimated scf accuracy    <       0.00004322 Ry

     iteration # 20     ecut=    71.00 Ry     beta= 0.10
     Davidson diagonalization with overlap
     ethr =  7.50E-09,  avg # of iterations =  2.0

     total cpu time spent up to now is     1924.6 secs

     total energy              =  -16384.05313108 Ry
     estimated scf accuracy    <       0.00002971 Ry

     iteration # 21     ecut=    71.00 Ry     beta= 0.10
     Davidson diagonalization with overlap
     ethr =  5.16E-09,  avg # of iterations =  2.2

     total cpu time spent up to now is     2014.8 secs

     total energy              =  -16384.05317107 Ry
     estimated scf accuracy    <       0.00001108 Ry

     iteration # 22     ecut=    71.00 Ry     beta= 0.10
     Davidson diagonalization with overlap
     ethr =  1.92E-09,  avg # of iterations =  2.1

     total cpu time spent up to now is     2105.2 secs

     total energy              =  -16384.05317990 Ry
     estimated scf accuracy    <       0.00000457 Ry

     iteration # 23     ecut=    71.00 Ry     beta= 0.10
     Davidson diagonalization with overlap
     ethr =  7.93E-10,  avg # of iterations =  2.0

     total cpu time spent up to now is     2188.9 secs

     total energy              =  -16384.05318585 Ry
     estimated scf accuracy    <       0.00000221 Ry

     iteration # 24     ecut=    71.00 Ry     beta= 0.10
     Davidson diagonalization with overlap
     ethr =  3.83E-10,  avg # of iterations =  2.0

     total cpu time spent up to now is     2274.4 secs

     total energy              =  -16384.05318861 Ry
     estimated scf accuracy    <       0.00000106 Ry

     iteration # 25     ecut=    71.00 Ry     beta= 0.10
     Davidson diagonalization with overlap
     ethr =  1.83E-10,  avg # of iterations =  2.0

     total cpu time spent up to now is     2358.5 secs

     End of self-consistent calculation

          k = 0.0556 0.0556 0.0370 ( 49486 PWs)   bands (ev):

   -73.0210 -72.9989 -72.9988 -72.9946 -72.9946 -72.9901 -72.9890 -72.9884
   -72.9884 -72.9873 -72.9814 -72.9814 -72.9800 -72.9800 -72.9727 -72.9727
   -72.4296 -72.4295 -72.4151 -72.4151 -72.4151 -72.4151 -72.4139 -72.4139
   -72.4137 -72.4137 -72.4124 -72.4123 -72.4123 -72.4123 -72.3978 -72.3978
   -38.8556 -38.8556 -38.8552 -38.8543 -38.8418 -38.8418 -38.8350 -38.8008
   -38.8008 -38.7979 -38.7978 -38.7607 -38.7607 -38.7496 -38.7496 -38.7404
   -38.7404 -38.7373 -38.7373 -38.7283 -38.7283 -38.6995 -38.6995 -38.6928
   -38.6928 -38.6927 -38.6882 -38.6882 -38.6830 -38.6784 -38.6784 -38.6646
   -38.6615 -38.6615 -38.6470 -38.6470 -38.6442 -38.6432 -38.6330 -38.6330
   -38.6278 -38.6277 -38.5942 -38.5924 -38.5923 -38.5881 -38.5759 -38.5743
   -38.3036 -38.3036 -38.3029 -38.3020 -38.2919 -38.2919 -38.2899 -38.2899
   -38.2214 -38.2214 -38.2212 -38.2212 -38.2064 -38.2064 -38.2062 -38.2062
   -38.2041 -38.2041 -38.2037 -38.2037 -38.1888 -38.1888 -38.1887 -38.1887
   -38.1182 -38.1179 -38.1167 -38.1163 -38.1047 -38.1047 -38.1034 -38.1034
   -38.0330 -38.0297 -38.0183 -38.0183 -38.0179 -38.0179 -38.0169 -38.0166
   -38.0166 -38.0165 -38.0162 -38.0162 -38.0159 -38.0159 -38.0060 -38.0060
     4.7929   6.0840   6.3231   6.3231   6.3895   6.3957   6.4019   6.4019
     6.4611   6.4766   6.5977   6.5977   6.6863   6.6863   6.8698   6.8698
     6.9345   7.1377   7.2595   7.2595   7.2884   7.2884   7.3182   7.3182
     7.3388   7.3388   7.4083   7.4111   7.4111   7.4136   7.4261   7.4261
     7.5514   7.5514   7.6193   7.6193   7.6555   7.6555   7.7318   7.7318
     7.7432   7.7432   7.8062   7.8062   7.8682   7.9277   7.9277   7.9459
     7.9459   8.0895   8.0895   8.1559   8.2036   8.2036   8.2530   8.2530
     8.2653   8.2739   8.2739   8.2847   8.4618   8.4618   8.4638   8.4638
     8.4769   8.4873   8.6263   8.6263   8.6359   8.6379   8.6453   8.6453
     8.6780   8.6873   8.7465   8.7465   8.7812   8.7812   9.1306   9.1306
     9.1843   9.1909   9.1974   9.1975   9.2175   9.2175   9.2407   9.2407
     9.3681   9.3681   9.3979   9.3979   9.4104   9.4104   9.4171   9.4337
     9.4665   9.4665   9.4886   9.4886   9.5176   9.5498   9.5650   9.5871
     9.5871   9.6955   9.6955   9.7101   9.7101   9.7890   9.8194   9.8194
     9.8443   9.8443   9.8583   9.8583   9.9870   9.9870  10.0446  10.0446
    10.0467  10.0467  10.0760  10.1900  10.2256  10.2256  10.2931  10.2931
    10.4152  10.4152  10.4260  10.4260  10.4264  10.4458  10.4458  10.4554
    10.5470  10.5544  10.5544  10.5647  10.5712  10.6466  10.6846  10.6998
    10.6998  10.7187  10.7187  10.7236  10.7236  10.8916  10.8916  10.9647
    10.9675  10.9675  10.9689  11.0224  11.1011  11.1181  11.1181  11.1249
    11.1249  11.1724  11.2211  11.3278  11.3278  11.6836  11.6836  11.7321
    11.7321  12.1188  12.1188  12.5808  12.6868  12.7902  12.9962  12.9962
    13.2801  13.3036  13.3036  13.4246  13.4246  13.6416  13.8567  13.8567
    13.9285  15.5060  15.5060  15.9602  15.9602  16.3061  16.3733  16.3733
    16.5157  16.5295  16.5295  17.2189  17.2189  17.7929  17.7929  17.8356
    17.8356  18.5788  19.4255  19.7171  19.7171  19.8778  20.0571  20.0571
    20.2388  20.2744  20.2744  20.4912  20.4912  20.7427  20.7427  20.9899
    21.3909  21.3909

          k = 0.0556 0.0556 0.1111 ( 49488 PWs)   bands (ev):

   -73.0210 -72.9989 -72.9988 -72.9946 -72.9946 -72.9901 -72.9890 -72.9884
   -72.9884 -72.9873 -72.9814 -72.9814 -72.9800 -72.9800 -72.9727 -72.9727
   -72.4296 -72.4295 -72.4151 -72.4151 -72.4151 -72.4151 -72.4139 -72.4139
   -72.4137 -72.4137 -72.4124 -72.4123 -72.4123 -72.4123 -72.3978 -72.3978
   -38.8556 -38.8556 -38.8552 -38.8544 -38.8418 -38.8418 -38.8350 -38.8008
   -38.8008 -38.7978 -38.7978 -38.7607 -38.7607 -38.7496 -38.7496 -38.7404
   -38.7404 -38.7373 -38.7373 -38.7283 -38.7283 -38.6994 -38.6994 -38.6928
   -38.6928 -38.6928 -38.6882 -38.6882 -38.6830 -38.6784 -38.6784 -38.6646
   -38.6615 -38.6615 -38.6470 -38.6470 -38.6441 -38.6432 -38.6330 -38.6330
   -38.6278 -38.6278 -38.5942 -38.5923 -38.5923 -38.5881 -38.5759 -38.5744
   -38.3036 -38.3036 -38.3029 -38.3020 -38.2919 -38.2919 -38.2899 -38.2899
   -38.2214 -38.2214 -38.2212 -38.2212 -38.2064 -38.2064 -38.2062 -38.2062
   -38.2041 -38.2041 -38.2037 -38.2037 -38.1888 -38.1888 -38.1887 -38.1887
   -38.1182 -38.1179 -38.1167 -38.1163 -38.1047 -38.1047 -38.1034 -38.1034
   -38.0329 -38.0297 -38.0184 -38.0184 -38.0179 -38.0179 -38.0170 -38.0167
   -38.0166 -38.0166 -38.0162 -38.0162 -38.0159 -38.0159 -38.0059 -38.0059
     4.7934   6.0831   6.3232   6.3232   6.3896   6.3957   6.4019   6.4020
     6.4610   6.4751   6.5977   6.5977   6.6865   6.6865   6.8699   6.8699
     6.9354   7.1377   7.2595   7.2595   7.2884   7.2884   7.3182   7.3182
     7.3388   7.3388   7.4080   7.4110   7.4110   7.4134   7.4258   7.4258
     7.5514   7.5514   7.6191   7.6191   7.6554   7.6554   7.7316   7.7316
     7.7435   7.7435   7.8062   7.8062   7.8683   7.9277   7.9277   7.9459
     7.9459   8.0895   8.0895   8.1557   8.2034   8.2035   8.2530   8.2530
     8.2653   8.2739   8.2739   8.2847   8.4610   8.4610   8.4637   8.4637
     8.4768   8.4871   8.6253   8.6253   8.6359   8.6379   8.6453   8.6453
     8.6780   8.6872   8.7474   8.7474   8.7822   8.7822   9.1320   9.1320
     9.1857   9.1931   9.1975   9.1975   9.2173   9.2173   9.2411   9.2411
     9.3652   9.3652   9.3977   9.3977   9.4105   9.4105   9.4171   9.4337
     9.4640   9.4640   9.4889   9.4889   9.5170   9.5412   9.5650   9.5878
     9.5878   9.6957   9.6957   9.7117   9.7117   9.7902   9.8190   9.8190
     9.8470   9.8470   9.8590   9.8590   9.9869   9.9869  10.0428  10.0428
    10.0444  10.0444  10.0760  10.2256  10.2256  10.2265  10.2934  10.2934
    10.4142  10.4142  10.4262  10.4262  10.4264  10.4459  10.4459  10.4554
    10.5448  10.5618  10.5618  10.5647  10.5702  10.6467  10.6806  10.6978
    10.6978  10.7231  10.7231  10.7261  10.7261  10.8914  10.8914  10.9647
    10.9677  10.9677  10.9689  11.0223  11.1011  11.1179  11.1179  11.1248
    11.1248  11.1745  11.2210  11.3278  11.3279  11.6672  11.6672  11.7321
    11.7321  12.1031  12.1031  12.5149  12.5819  12.7898  13.0007  13.0007
    13.2910  13.3434  13.3434  13.4224  13.4224  13.8361  13.8964  13.8964
    13.9234  15.5089  15.5089  15.7806  15.7806  16.3165  16.3496  16.3496
    16.3784  16.3784  16.5044  17.4834  17.4834  17.8248  17.8248  18.0627
    18.0627  18.4206  19.2759  19.5514  19.5514  19.8906  20.0615  20.0615
    20.3027  20.3027  20.3222  20.7436  20.7436  20.7603  20.7603  20.9567
    20.9567  21.2515

          k = 0.0556 0.0556 0.1852 ( 49488 PWs)   bands (ev):

   -73.0210 -72.9989 -72.9988 -72.9946 -72.9946 -72.9901 -72.9890 -72.9884
   -72.9884 -72.9873 -72.9814 -72.9814 -72.9800 -72.9800 -72.9727 -72.9727
   -72.4296 -72.4295 -72.4151 -72.4151 -72.4151 -72.4151 -72.4139 -72.4139
   -72.4137 -72.4137 -72.4124 -72.4123 -72.4123 -72.4123 -72.3978 -72.3978
   -38.8556 -38.8556 -38.8552 -38.8544 -38.8418 -38.8418 -38.8349 -38.8008
   -38.8008 -38.7979 -38.7978 -38.7607 -38.7607 -38.7496 -38.7496 -38.7404
   -38.7404 -38.7373 -38.7373 -38.7284 -38.7283 -38.6995 -38.6994 -38.6928
   -38.6928 -38.6928 -38.6882 -38.6882 -38.6830 -38.6784 -38.6784 -38.6645
   -38.6615 -38.6615 -38.6471 -38.6470 -38.6441 -38.6431 -38.6330 -38.6330
   -38.6278 -38.6278 -38.5942 -38.5923 -38.5923 -38.5880 -38.5759 -38.5743
   -38.3036 -38.3036 -38.3029 -38.3020 -38.2919 -38.2919 -38.2899 -38.2899
   -38.2214 -38.2214 -38.2212 -38.2212 -38.2064 -38.2064 -38.2062 -38.2062
   -38.2041 -38.2041 -38.2037 -38.2037 -38.1888 -38.1888 -38.1887 -38.1887
   -38.1182 -38.1179 -38.1167 -38.1163 -38.1047 -38.1047 -38.1034 -38.1034
   -38.0328 -38.0297 -38.0184 -38.0184 -38.0179 -38.0179 -38.0170 -38.0167
   -38.0166 -38.0166 -38.0162 -38.0162 -38.0159 -38.0159 -38.0060 -38.0060
     4.7941   6.0818   6.3232   6.3232   6.3897   6.3958   6.4020   6.4020
     6.4610   6.4729   6.5978   6.5978   6.6868   6.6868   6.8701   6.8701
     6.9367   7.1377   7.2594   7.2594   7.2883   7.2883   7.3182   7.3182
     7.3388   7.3388   7.4076   7.4108   7.4108   7.4130   7.4254   7.4254
     7.5515   7.5515   7.6189   7.6190   7.6553   7.6553   7.7314   7.7314
     7.7438   7.7438   7.8061   7.8061   7.8683   7.9277   7.9277   7.9459
     7.9459   8.0894   8.0894   8.1554   8.2033   8.2033   8.2531   8.2531
     8.2652   8.2738   8.2738   8.2847   8.4599   8.4599   8.4636   8.4636
     8.4766   8.4869   8.6238   8.6238   8.6359   8.6379   8.6453   8.6453
     8.6779   8.6872   8.7488   8.7488   8.7837   8.7837   9.1341   9.1341
     9.1878   9.1965   9.1975   9.1975   9.2171   9.2171   9.2418   9.2418
     9.3607   9.3607   9.3974   9.3974   9.4106   9.4106   9.4171   9.4337
     9.4601   9.4601   9.4894   9.4894   9.5149   9.5306   9.5649   9.5889
     9.5889   9.6959   9.6959   9.7141   9.7141   9.7917   9.8186   9.8186
     9.8512   9.8512   9.8599   9.8599   9.9869   9.9869  10.0401  10.0401
    10.0408  10.0408  10.0760  10.2255  10.2255  10.2852  10.2937  10.2937
    10.4127  10.4127  10.4264  10.4264  10.4264  10.4461  10.4461  10.4554
    10.5413  10.5647  10.5678  10.5735  10.5735  10.6467  10.6745  10.6949
    10.6949  10.7222  10.7222  10.7375  10.7375  10.8911  10.8911  10.9647
    10.9679  10.9679  10.9689  11.0223  11.1012  11.1178  11.1178  11.1246
    11.1246  11.1785  11.2211  11.3278  11.3279  11.6424  11.6424  11.7321
    11.7321  12.0794  12.0794  12.3109  12.5837  12.7891  13.0077  13.0077
    13.3081  13.4073  13.4073  13.4188  13.4188  13.9153  13.9600  13.9600
    14.0768  15.5134  15.5134  15.5651  15.5651  16.1340  16.1340  16.3368
    16.3862  16.3862  16.4825  17.8085  17.8085  17.8668  17.8668  18.1924
    18.4590  18.4590  19.1535  19.3824  19.3824  19.7258  20.0682  20.0682
    20.3476  20.3476  20.4187  20.4187  20.6646  20.7596  20.7596  20.8989
    20.8989  21.1299

          k = 0.0556 0.0556 0.2593 ( 49503 PWs)   bands (ev):

   -73.0210 -72.9989 -72.9988 -72.9946 -72.9946 -72.9901 -72.9890 -72.9884
   -72.9884 -72.9873 -72.9814 -72.9814 -72.9800 -72.9800 -72.9727 -72.9727
   -72.4296 -72.4295 -72.4151 -72.4151 -72.4151 -72.4151 -72.4139 -72.4139
   -72.4137 -72.4137 -72.4124 -72.4123 -72.4123 -72.4123 -72.3978 -72.3978
   -38.8556 -38.8556 -38.8552 -38.8544 -38.8418 -38.8418 -38.8349 -38.8008
   -38.8008 -38.7978 -38.7978 -38.7607 -38.7607 -38.7496 -38.7496 -38.7404
   -38.7404 -38.7373 -38.7373 -38.7283 -38.7283 -38.6995 -38.6994 -38.6928
   -38.6928 -38.6927 -38.6882 -38.6882 -38.6830 -38.6784 -38.6784 -38.6645
   -38.6615 -38.6615 -38.6471 -38.6471 -38.6441 -38.6431 -38.6330 -38.6330
   -38.6278 -38.6278 -38.5941 -38.5923 -38.5923 -38.5880 -38.5759 -38.5744
   -38.3037 -38.3037 -38.3028 -38.3020 -38.2918 -38.2918 -38.2899 -38.2899
   -38.2214 -38.2214 -38.2213 -38.2213 -38.2064 -38.2064 -38.2062 -38.2062
   -38.2041 -38.2041 -38.2037 -38.2037 -38.1888 -38.1888 -38.1887 -38.1887
   -38.1182 -38.1179 -38.1167 -38.1163 -38.1047 -38.1047 -38.1034 -38.1033
   -38.0329 -38.0297 -38.0184 -38.0184 -38.0179 -38.0179 -38.0171 -38.0167
   -38.0167 -38.0166 -38.0163 -38.0163 -38.0158 -38.0158 -38.0060 -38.0060
     4.7947   6.0806   6.3232   6.3232   6.3897   6.3959   6.4021   6.4021
     6.4609   6.4710   6.5978   6.5978   6.6870   6.6870   6.8703   6.8703
     6.9379   7.1377   7.2593   7.2593   7.2883   7.2883   7.3181   7.3181
     7.3387   7.3387   7.4072   7.4106   7.4106   7.4127   7.4250   7.4250
     7.5516   7.5516   7.6188   7.6188   7.6551   7.6552   7.7312   7.7312
     7.7441   7.7441   7.8060   7.8060   7.8683   7.9277   7.9277   7.9459
     7.9459   8.0894   8.0894   8.1551   8.2031   8.2032   8.2531   8.2531
     8.2652   8.2738   8.2738   8.2846   8.4589   8.4589   8.4634   8.4634
     8.4765   8.4867   8.6224   8.6224   8.6359   8.6379   8.6453   8.6453
     8.6779   8.6872   8.7500   8.7500   8.7851   8.7851   9.1360   9.1360
     9.1897   9.1976   9.1976   9.1995   9.2168   9.2168   9.2424   9.2424
     9.3569   9.3569   9.3972   9.3972   9.4107   9.4107   9.4171   9.4337
     9.4569   9.4569   9.4898   9.4898   9.5107   9.5248   9.5649   9.5897
     9.5897   9.6961   9.6961   9.7161   9.7161   9.7927   9.8182   9.8182
     9.8549   9.8549   9.8607   9.8607   9.9869   9.9869  10.0375  10.0375
    10.0378  10.0378  10.0760  10.2255  10.2255  10.2940  10.2940  10.3407
    10.4113  10.4113  10.4264  10.4266  10.4266  10.4463  10.4463  10.4554
    10.5383  10.5644  10.5647  10.5839  10.5839  10.6468  10.6692  10.6923
    10.6923  10.7214  10.7214  10.7476  10.7476  10.8908  10.8908  10.9647
    10.9681  10.9681  10.9689  11.0224  11.1012  11.1176  11.1176  11.1245
    11.1245  11.1833  11.2210  11.3279  11.3279  11.6210  11.6210  11.7321
    11.7322  12.0589  12.0589  12.1573  12.5855  12.7882  13.0140  13.0140
    13.3236  13.4155  13.4155  13.4672  13.4672  13.9077  14.0198  14.0198
    14.2649  15.4033  15.4033  15.5174  15.5174  15.9724  15.9724  16.3640
    16.3932  16.3932  16.4535  17.7943  17.7943  17.9995  18.2545  18.2545
    18.8758  18.8758  19.0874  19.2688  19.2688  19.5877  19.9446  19.9446
    20.0739  20.0739  20.3888  20.3888  20.3925  20.3925  20.7640  20.7640
    21.0802  21.5086

          k = 0.0556 0.0556-0.3333 ( 49490 PWs)   bands (ev):

   -73.0210 -72.9989 -72.9988 -72.9946 -72.9946 -72.9901 -72.9890 -72.9884
   -72.9884 -72.9873 -72.9814 -72.9814 -72.9800 -72.9800 -72.9727 -72.9727
   -72.4296 -72.4295 -72.4151 -72.4151 -72.4151 -72.4151 -72.4139 -72.4139
   -72.4137 -72.4137 -72.4124 -72.4123 -72.4123 -72.4123 -72.3978 -72.3978
   -38.8557 -38.8557 -38.8552 -38.8543 -38.8418 -38.8418 -38.8351 -38.8008
   -38.8008 -38.7978 -38.7978 -38.7607 -38.7607 -38.7496 -38.7496 -38.7404
   -38.7404 -38.7372 -38.7372 -38.7283 -38.7283 -38.6995 -38.6994 -38.6928
   -38.6928 -38.6927 -38.6883 -38.6883 -38.6830 -38.6784 -38.6784 -38.6646
   -38.6615 -38.6615 -38.6471 -38.6471 -38.6442 -38.6432 -38.6330 -38.6330
   -38.6278 -38.6278 -38.5941 -38.5923 -38.5923 -38.5880 -38.5759 -38.5744
   -38.3037 -38.3037 -38.3028 -38.3019 -38.2918 -38.2918 -38.2899 -38.2899
   -38.2213 -38.2213 -38.2213 -38.2213 -38.2064 -38.2064 -38.2062 -38.2062
   -38.2041 -38.2041 -38.2037 -38.2037 -38.1888 -38.1888 -38.1887 -38.1887
   -38.1182 -38.1179 -38.1167 -38.1164 -38.1047 -38.1047 -38.1033 -38.1033
   -38.0330 -38.0297 -38.0184 -38.0184 -38.0179 -38.0179 -38.0170 -38.0167
   -38.0167 -38.0166 -38.0162 -38.0162 -38.0158 -38.0158 -38.0060 -38.0060
     4.7949   6.0801   6.3232   6.3233   6.3898   6.3959   6.4021   6.4021
     6.4609   6.4703   6.5978   6.5978   6.6871   6.6871   6.8704   6.8704
     6.9383   7.1377   7.2593   7.2593   7.2883   7.2883   7.3181   7.3181
     7.3387   7.3387   7.4070   7.4105   7.4105   7.4126   7.4249   7.4249
     7.5517   7.5517   7.6187   7.6187   7.6551   7.6551   7.7311   7.7311
     7.7442   7.7442   7.8060   7.8060   7.8683   7.9277   7.9277   7.9459
     7.9459   8.0894   8.0894   8.1550   8.2031   8.2031   8.2532   8.2532
     8.2652   8.2738   8.2738   8.2846   8.4585   8.4585   8.4634   8.4634
     8.4765   8.4866   8.6219   8.6219   8.6359   8.6379   8.6453   8.6454
     8.6779   8.6872   8.7504   8.7504   8.7856   8.7856   9.1368   9.1368
     9.1905   9.1976   9.1976   9.2007   9.2168   9.2168   9.2426   9.2426
     9.3554   9.3554   9.3971   9.3971   9.4107   9.4107   9.4171   9.4337
     9.4556   9.4556   9.4900   9.4900   9.5082   9.5235   9.5649   9.5901
     9.5901   9.6963   9.6963   9.7169   9.7169   9.7931   9.8180   9.8180
     9.8563   9.8563   9.8610   9.8610   9.9869   9.9869  10.0363  10.0363
    10.0369  10.0369  10.0760  10.2254  10.2254  10.2941  10.2941  10.3641
    10.4107  10.4107  10.4264  10.4266  10.4266  10.4463  10.4463  10.4554
    10.5371  10.5624  10.5648  10.5881  10.5881  10.6468  10.6670  10.6913
    10.6913  10.7211  10.7211  10.7516  10.7516  10.8907  10.8907  10.9647
    10.9681  10.9681  10.9689  11.0224  11.1011  11.1176  11.1176  11.1244
    11.1244  11.1856  11.2209  11.3279  11.3279  11.6126  11.6126  11.7321
    11.7322  12.0509  12.0509  12.1001  12.5862  12.7878  13.0165  13.0165
    13.3298  13.4142  13.4142  13.4922  13.4922  13.9045  14.0446  14.0446
    14.3364  15.3433  15.3433  15.5190  15.5190  15.9125  15.9125  16.3829
    16.3960  16.3960  16.4337  17.7887  17.7887  17.9242  18.4544  18.4544
    19.0685  19.1100  19.1100  19.2293  19.2293  19.5357  19.7156  19.7156
    20.0724  20.0724  20.1319  20.1319  20.4056  20.4056  20.7663  20.7663
    21.4727  21.5229

          k = 0.0556 0.1667 0.0370 ( 49463 PWs)   bands (ev):

   -73.0203 -73.0030 -72.9986 -72.9944 -72.9917 -72.9905 -72.9896 -72.9888
   -72.9868 -72.9861 -72.9828 -72.9816 -72.9803 -72.9786 -72.9735 -72.9730
   -72.4291 -72.4291 -72.4179 -72.4179 -72.4151 -72.4151 -72.4141 -72.4141
   -72.4134 -72.4134 -72.4124 -72.4124 -72.4096 -72.4096 -72.3983 -72.3983
   -38.8537 -38.8528 -38.8515 -38.8502 -38.8390 -38.8389 -38.8336 -38.8056
   -38.8037 -38.8020 -38.7979 -38.7800 -38.7739 -38.7691 -38.7484 -38.7408
   -38.7395 -38.7347 -38.7211 -38.7138 -38.7096 -38.7035 -38.7008 -38.6971
   -38.6967 -38.6940 -38.6931 -38.6857 -38.6836 -38.6778 -38.6757 -38.6726
   -38.6620 -38.6526 -38.6468 -38.6397 -38.6377 -38.6372 -38.6334 -38.6328
   -38.6281 -38.6241 -38.5994 -38.5989 -38.5937 -38.5868 -38.5808 -38.5758
   -38.3023 -38.3015 -38.2991 -38.2974 -38.2906 -38.2904 -38.2860 -38.2858
   -38.2382 -38.2380 -38.2360 -38.2356 -38.2239 -38.2234 -38.2194 -38.2187
   -38.1914 -38.1910 -38.1867 -38.1862 -38.1741 -38.1740 -38.1718 -38.1716
   -38.1225 -38.1223 -38.1178 -38.1176 -38.1091 -38.1091 -38.1051 -38.1051
   -38.0322 -38.0293 -38.0205 -38.0201 -38.0183 -38.0178 -38.0173 -38.0166
   -38.0166 -38.0162 -38.0162 -38.0158 -38.0141 -38.0140 -38.0063 -38.0063
     4.8626   6.1385   6.3599   6.3655   6.4059   6.4095   6.4212   6.4387
     6.4439   6.4996   6.5287   6.6221   6.6240   6.6875   6.8694   6.9323
     6.9873   7.1710   7.1807   7.1951   7.2014   7.2087   7.2106   7.3007
     7.3048   7.3404   7.3459   7.3464   7.3674   7.4007   7.4081   7.4463
     7.4489   7.4813   7.5292   7.5970   7.6930   7.7026   7.7059   7.7093
     7.7348   7.7448   7.7515   7.8876   7.9244   7.9493   7.9903   8.0355
     8.0371   8.0772   8.0899   8.1429   8.1490   8.1827   8.2339   8.2690
     8.2794   8.2900   8.3158   8.3406   8.3843   8.4298   8.4754   8.4851
     8.4931   8.4991   8.6562   8.6591   8.6635   8.6672   8.6779   8.6800
     8.6946   8.7458   8.7770   8.7805   8.7928   8.9194   9.0020   9.0199
     9.0215   9.0597   9.0987   9.1034   9.1415   9.2002   9.2062   9.2303
     9.3090   9.3183   9.3358   9.3561   9.3991   9.4196   9.4709   9.4814
     9.4985   9.5179   9.5185   9.5475   9.5607   9.5805   9.5944   9.6049
     9.6066   9.6107   9.6309   9.6900   9.7606   9.7821   9.7962   9.8030
     9.9256   9.9379   9.9400  10.0004  10.0353  10.0618  10.0664  10.1278
    10.1501  10.1569  10.1865  10.2441  10.2646  10.2822  10.3063  10.3099
    10.3176  10.3322  10.3757  10.4369  10.4438  10.4626  10.4642  10.5120
    10.5123  10.5381  10.5407  10.5423  10.6742  10.6808  10.6954  10.7024
    10.7101  10.7431  10.7522  10.8080  10.8595  10.8765  10.8840  10.8862
    10.9125  10.9203  11.0091  11.0178  11.0641  11.0845  11.1087  11.1129
    11.1283  11.1366  11.2084  11.2231  11.2610  11.3426  11.6150  11.6500
    11.6815  12.1325  12.1935  12.3351  12.6563  12.8018  12.8090  12.8487
    12.8736  13.3119  13.3806  13.4746  13.8533  13.8702  14.0048  14.4681
    14.5047  15.1116  15.4166  15.7391  15.9894  16.3554  16.4376  16.5519
    16.5805  16.6685  16.6899  17.1285  17.2766  17.3060  17.8399  17.9969
    18.3956  18.6632  19.2868  19.2933  19.3551  19.4219  19.4420  19.5236
    19.8856  19.9050  20.2764  20.3907  20.6638  20.7852  20.8264  21.0333
    21.0585  21.2087

          k = 0.0556 0.1667 0.1111 ( 49486 PWs)   bands (ev):

   -73.0203 -73.0030 -72.9986 -72.9944 -72.9917 -72.9905 -72.9896 -72.9888
   -72.9868 -72.9861 -72.9828 -72.9816 -72.9803 -72.9786 -72.9735 -72.9730
   -72.4291 -72.4291 -72.4179 -72.4179 -72.4151 -72.4151 -72.4141 -72.4141
   -72.4134 -72.4134 -72.4124 -72.4124 -72.4096 -72.4096 -72.3983 -72.3983
   -38.8537 -38.8528 -38.8515 -38.8502 -38.8390 -38.8389 -38.8336 -38.8056
   -38.8037 -38.8020 -38.7979 -38.7800 -38.7738 -38.7691 -38.7484 -38.7408
   -38.7395 -38.7347 -38.7211 -38.7138 -38.7096 -38.7035 -38.7008 -38.6971
   -38.6968 -38.6940 -38.6931 -38.6857 -38.6836 -38.6778 -38.6757 -38.6727
   -38.6621 -38.6526 -38.6467 -38.6397 -38.6377 -38.6372 -38.6334 -38.6328
   -38.6281 -38.6241 -38.5994 -38.5989 -38.5937 -38.5868 -38.5808 -38.5758
   -38.3024 -38.3015 -38.2991 -38.2974 -38.2906 -38.2904 -38.2860 -38.2859
   -38.2382 -38.2380 -38.2360 -38.2356 -38.2239 -38.2234 -38.2194 -38.2187
   -38.1914 -38.1910 -38.1867 -38.1862 -38.1741 -38.1740 -38.1718 -38.1716
   -38.1225 -38.1223 -38.1178 -38.1175 -38.1091 -38.1091 -38.1051 -38.1051
   -38.0322 -38.0294 -38.0205 -38.0202 -38.0183 -38.0178 -38.0174 -38.0166
   -38.0166 -38.0163 -38.0163 -38.0159 -38.0141 -38.0140 -38.0063 -38.0062
     4.8630   6.1377   6.3599   6.3655   6.4059   6.4097   6.4213   6.4387
     6.4440   6.4995   6.5273   6.6221   6.6240   6.6876   6.8695   6.9324
     6.9882   7.1710   7.1807   7.1951   7.2012   7.2087   7.2105   7.3007
     7.3048   7.3404   7.3459   7.3464   7.3670   7.4003   7.4079   7.4461
     7.4486   7.4814   7.5290   7.5974   7.6930   7.7026   7.7058   7.7092
     7.7347   7.7446   7.7516   7.8876   7.9242   7.9493   7.9904   8.0359
     8.0370   8.0769   8.0897   8.1430   8.1488   8.1827   8.2339   8.2684
     8.2796   8.2900   8.3158   8.3407   8.3844   8.4297   8.4754   8.4850
     8.4930   8.4986   8.6555   8.6590   8.6635   8.6673   8.6780   8.6802
     8.6945   8.7449   8.7780   8.7811   8.7932   8.9204   9.0020   9.0211
     9.0224   9.0596   9.0996   9.1055   9.1412   9.2001   9.2067   9.2307
     9.3054   9.3182   9.3357   9.3592   9.3960   9.4215   9.4710   9.4819
     9.4958   9.5188   9.5196   9.5474   9.5528   9.5808   9.5921   9.6049
     9.6066   9.6111   9.6311   9.6900   9.7598   9.7840   9.7976   9.8055
     9.9246   9.9390   9.9406  10.0025  10.0354  10.0641  10.0644  10.1265
    10.1477  10.1562  10.1873  10.2425  10.2647  10.2824  10.3006  10.3091
    10.3162  10.3586  10.3742  10.4370  10.4514  10.4625  10.4642  10.5121
    10.5124  10.5404  10.5408  10.5454  10.6741  10.6802  10.6940  10.7019
    10.7174  10.7389  10.7518  10.8062  10.8594  10.8763  10.8862  10.8867
    10.9128  10.9204  11.0093  11.0239  11.0638  11.0940  11.1086  11.1128
    11.1287  11.1365  11.2085  11.2232  11.2610  11.3255  11.6150  11.6500
    11.6657  12.1173  12.1918  12.3344  12.6411  12.6836  12.8087  12.8416
    12.8728  13.3516  13.4011  13.4855  13.9097  14.0003  14.0444  14.4948
    14.5075  15.1147  15.2399  15.7420  15.8113  16.3664  16.3743  16.4399
    16.5693  16.6614  16.9230  16.9510  17.2935  17.5396  17.9857  18.1058
    18.4979  18.6653  19.1726  19.2933  19.2976  19.3592  19.4568  19.7844
    19.8901  19.9141  20.3631  20.4197  20.4489  20.4924  20.7504  20.9392
    21.0357  21.2954

          k = 0.0556 0.1667 0.1852 ( 49507 PWs)   bands (ev):

   -73.0203 -73.0030 -72.9986 -72.9944 -72.9917 -72.9905 -72.9896 -72.9888
   -72.9868 -72.9861 -72.9828 -72.9816 -72.9803 -72.9786 -72.9735 -72.9730
   -72.4291 -72.4291 -72.4179 -72.4179 -72.4151 -72.4151 -72.4141 -72.4141
   -72.4134 -72.4134 -72.4124 -72.4124 -72.4096 -72.4096 -72.3983 -72.3983
   -38.8537 -38.8528 -38.8515 -38.8502 -38.8390 -38.8389 -38.8336 -38.8056
   -38.8037 -38.8020 -38.7979 -38.7800 -38.7738 -38.7691 -38.7484 -38.7408
   -38.7395 -38.7348 -38.7211 -38.7138 -38.7096 -38.7035 -38.7008 -38.6971
   -38.6968 -38.6940 -38.6931 -38.6857 -38.6837 -38.6779 -38.6757 -38.6726
   -38.6620 -38.6526 -38.6467 -38.6397 -38.6377 -38.6372 -38.6334 -38.6328
   -38.6281 -38.6241 -38.5995 -38.5989 -38.5937 -38.5868 -38.5808 -38.5758
   -38.3024 -38.3015 -38.2991 -38.2974 -38.2906 -38.2904 -38.2860 -38.2859
   -38.2382 -38.2379 -38.2360 -38.2356 -38.2240 -38.2233 -38.2193 -38.2187
   -38.1914 -38.1909 -38.1867 -38.1862 -38.1741 -38.1740 -38.1718 -38.1716
   -38.1225 -38.1223 -38.1178 -38.1175 -38.1092 -38.1092 -38.1051 -38.1051
   -38.0322 -38.0293 -38.0206 -38.0201 -38.0184 -38.0178 -38.0174 -38.0167
   -38.0167 -38.0163 -38.0163 -38.0158 -38.0141 -38.0139 -38.0063 -38.0063
     4.8637   6.1365   6.3599   6.3655   6.4060   6.4101   6.4213   6.4388
     6.4440   6.4993   6.5252   6.6221   6.6240   6.6878   6.8696   6.9326
     6.9895   7.1710   7.1807   7.1950   7.2010   7.2087   7.2103   7.3006
     7.3047   7.3403   7.3459   7.3464   7.3666   7.3999   7.4077   7.4457
     7.4481   7.4817   7.5287   7.5979   7.6931   7.7025   7.7058   7.7092
     7.7345   7.7444   7.7519   7.8876   7.9238   7.9493   7.9905   8.0366
     8.0370   8.0764   8.0895   8.1430   8.1485   8.1827   8.2338   8.2676
     8.2798   8.2900   8.3158   8.3409   8.3844   8.4296   8.4754   8.4849
     8.4928   8.4977   8.6543   8.6590   8.6635   8.6674   8.6781   8.6805
     8.6945   8.7436   8.7794   8.7820   8.7939   8.9219   9.0019   9.0230
     9.0237   9.0595   9.1011   9.1088   9.1407   9.1999   9.2074   9.2314
     9.3000   9.3181   9.3355   9.3642   9.3920   9.4236   9.4711   9.4826
     9.4924   9.5193   9.5217   9.5407   9.5476   9.5812   9.5886   9.6046
     9.6067   9.6118   9.6315   9.6900   9.7586   9.7869   9.7996   9.8088
     9.9230   9.9405   9.9415  10.0058  10.0354  10.0607  10.0678  10.1246
    10.1439  10.1551  10.1884  10.2402  10.2647  10.2828  10.2976  10.3078
    10.3140  10.3720  10.3959  10.4372  10.4623  10.4633  10.4642  10.5122
    10.5125  10.5363  10.5408  10.5568  10.6740  10.6792  10.6916  10.7010
    10.7286  10.7326  10.7512  10.8035  10.8592  10.8761  10.8875  10.8899
    10.9132  10.9206  11.0095  11.0331  11.0635  11.1085  11.1112  11.1127
    11.1296  11.1364  11.2085  11.2235  11.2610  11.2997  11.6150  11.6420
    11.6500  12.0945  12.1894  12.3331  12.4847  12.6183  12.8085  12.8713
    12.9055  13.4154  13.4333  13.5025  13.9731  13.9930  14.2859  14.4786
    14.5708  15.0269  15.1196  15.5964  15.7465  16.1602  16.3874  16.4465
    16.5474  16.6151  16.7379  17.2747  17.2864  17.9226  17.9688  18.2596
    18.4968  19.0661  19.1243  19.1703  19.3043  19.3657  19.5130  19.7506
    19.8970  19.9657  20.0096  20.4097  20.4583  20.4655  20.6657  20.7051
    20.9975  21.0983

          k = 0.0556 0.1667 0.2593 ( 49511 PWs)   bands (ev):

   -73.0203 -73.0030 -72.9986 -72.9944 -72.9917 -72.9905 -72.9896 -72.9888
   -72.9868 -72.9861 -72.9828 -72.9816 -72.9803 -72.9786 -72.9735 -72.9730
   -72.4291 -72.4291 -72.4179 -72.4179 -72.4151 -72.4151 -72.4141 -72.4141
   -72.4134 -72.4134 -72.4124 -72.4124 -72.4096 -72.4096 -72.3983 -72.3983
   -38.8537 -38.8528 -38.8515 -38.8502 -38.8391 -38.8389 -38.8336 -38.8056
   -38.8037 -38.8020 -38.7979 -38.7800 -38.7739 -38.7691 -38.7484 -38.7408
   -38.7395 -38.7348 -38.7211 -38.7138 -38.7096 -38.7035 -38.7008 -38.6971
   -38.6968 -38.6940 -38.6931 -38.6858 -38.6837 -38.6779 -38.6757 -38.6726
   -38.6620 -38.6526 -38.6467 -38.6397 -38.6377 -38.6372 -38.6334 -38.6328
   -38.6281 -38.6241 -38.5995 -38.5989 -38.5937 -38.5868 -38.5808 -38.5758
   -38.3024 -38.3015 -38.2991 -38.2974 -38.2906 -38.2904 -38.2860 -38.2859
   -38.2382 -38.2379 -38.2360 -38.2356 -38.2240 -38.2233 -38.2193 -38.2187
   -38.1914 -38.1909 -38.1867 -38.1863 -38.1741 -38.1740 -38.1718 -38.1716
   -38.1225 -38.1223 -38.1179 -38.1175 -38.1092 -38.1092 -38.1051 -38.1051
   -38.0322 -38.0293 -38.0206 -38.0201 -38.0184 -38.0178 -38.0174 -38.0167
   -38.0167 -38.0163 -38.0163 -38.0158 -38.0141 -38.0139 -38.0064 -38.0063
     4.8643   6.1353   6.3599   6.3656   6.4061   6.4104   6.4214   6.4389
     6.4441   6.4992   6.5234   6.6222   6.6240   6.6880   6.8698   6.9328
     6.9906   7.1710   7.1807   7.1950   7.2007   7.2087   7.2101   7.3005
     7.3046   7.3402   7.3459   7.3464   7.3662   7.3994   7.4075   7.4454
     7.4477   7.4818   7.5284   7.5984   7.6931   7.7025   7.7058   7.7092
     7.7343   7.7442   7.7521   7.8876   7.9236   7.9493   7.9906   8.0369
     8.0372   8.0761   8.0893   8.1430   8.1483   8.1826   8.2338   8.2669
     8.2800   8.2900   8.3158   8.3410   8.3844   8.4295   8.4753   8.4849
     8.4926   8.4969   8.6533   8.6589   8.6635   8.6674   8.6782   8.6807
     8.6944   8.7424   8.7806   8.7828   8.7945   8.9232   9.0018   9.0247
     9.0249   9.0595   9.1023   9.1117   9.1403   9.1998   9.2080   9.2319
     9.2954   9.3181   9.3354   9.3689   9.3889   9.4250   9.4713   9.4831
     9.4897   9.5198   9.5232   9.5305   9.5475   9.5815   9.5857   9.6044
     9.6067   9.6124   9.6318   9.6901   9.7575   9.7892   9.8014   9.8114
     9.9216   9.9420   9.9423  10.0088  10.0354  10.0579  10.0703  10.1229
    10.1406  10.1542  10.1893  10.2380  10.2648  10.2831  10.2963  10.3066
    10.3120  10.3700  10.4313  10.4374  10.4621  10.4643  10.4741  10.5123
    10.5127  10.5300  10.5409  10.5670  10.6738  10.6783  10.6890  10.7002
    10.7270  10.7386  10.7508  10.8012  10.8590  10.8759  10.8881  10.8932
    10.9135  10.9208  11.0097  11.0410  11.0633  11.1084  11.1126  11.1303
    11.1305  11.1362  11.2086  11.2241  11.2610  11.2773  11.6151  11.6215
    11.6500  12.0749  12.1875  12.3320  12.3336  12.5986  12.8087  12.8697
    12.9654  13.4624  13.4753  13.5178  13.9862  14.0326  14.4634  14.4775
    14.6302  14.8664  15.1239  15.4346  15.7505  15.9991  16.4147  16.4588
    16.5189  16.5684  16.5780  17.2585  17.6384  17.9542  18.0579  18.3108
    18.9042  19.1037  19.1226  19.3100  19.3713  19.5009  19.5366  19.5658
    19.6124  19.9032  19.9728  19.9932  20.4027  20.5072  20.6999  20.8239
    20.8436  21.0243

          k = 0.0556 0.1667-0.3333 ( 49512 PWs)   bands (ev):

   -73.0203 -73.0030 -72.9986 -72.9944 -72.9917 -72.9905 -72.9896 -72.9888
   -72.9868 -72.9861 -72.9828 -72.9816 -72.9803 -72.9786 -72.9735 -72.9730
   -72.4291 -72.4291 -72.4179 -72.4179 -72.4151 -72.4151 -72.4141 -72.4141
   -72.4134 -72.4134 -72.4124 -72.4124 -72.4096 -72.4096 -72.3983 -72.3983
   -38.8537 -38.8528 -38.8515 -38.8502 -38.8391 -38.8389 -38.8337 -38.8056
   -38.8036 -38.8020 -38.7979 -38.7800 -38.7738 -38.7691 -38.7484 -38.7408
   -38.7395 -38.7348 -38.7211 -38.7138 -38.7096 -38.7035 -38.7008 -38.6971
   -38.6968 -38.6941 -38.6931 -38.6857 -38.6837 -38.6779 -38.6757 -38.6726
   -38.6620 -38.6526 -38.6467 -38.6397 -38.6377 -38.6372 -38.6334 -38.6329
   -38.6281 -38.6241 -38.5995 -38.5989 -38.5937 -38.5869 -38.5808 -38.5758
   -38.3023 -38.3015 -38.2991 -38.2974 -38.2906 -38.2904 -38.2861 -38.2859
   -38.2382 -38.2379 -38.2360 -38.2356 -38.2240 -38.2233 -38.2193 -38.2187
   -38.1914 -38.1909 -38.1867 -38.1863 -38.1741 -38.1741 -38.1718 -38.1716
   -38.1225 -38.1223 -38.1178 -38.1175 -38.1092 -38.1092 -38.1051 -38.1051
   -38.0323 -38.0293 -38.0205 -38.0201 -38.0184 -38.0178 -38.0174 -38.0167
   -38.0167 -38.0163 -38.0163 -38.0158 -38.0142 -38.0139 -38.0064 -38.0063
     4.8646   6.1349   6.3600   6.3656   6.4062   6.4105   6.4214   6.4389
     6.4441   6.4992   6.5227   6.6222   6.6241   6.6880   6.8698   6.9328
     6.9911   7.1710   7.1807   7.1949   7.2007   7.2087   7.2101   7.3005
     7.3046   7.3402   7.3459   7.3464   7.3660   7.3993   7.4074   7.4453
     7.4475   7.4819   7.5283   7.5986   7.6932   7.7025   7.7058   7.7092
     7.7342   7.7442   7.7522   7.8876   7.9235   7.9493   7.9906   8.0369
     8.0374   8.0759   8.0892   8.1431   8.1482   8.1826   8.2338   8.2666
     8.2801   8.2900   8.3158   8.3411   8.3844   8.4294   8.4753   8.4848
     8.4926   8.4966   8.6530   8.6589   8.6635   8.6675   8.6782   8.6808
     8.6944   8.7419   8.7811   8.7831   8.7948   8.9237   9.0018   9.0253
     9.0253   9.0594   9.1028   9.1128   9.1402   9.1997   9.2083   9.2321
     9.2936   9.3180   9.3353   9.3709   9.3877   9.4255   9.4714   9.4833
     9.4887   9.5200   9.5237   9.5265   9.5475   9.5817   9.5846   9.6043
     9.6067   9.6126   9.6319   9.6901   9.7571   9.7902   9.8021   9.8123
     9.9211   9.9425   9.9426  10.0100  10.0354  10.0567  10.0712  10.1223
    10.1393  10.1538  10.1897  10.2372  10.2648  10.2832  10.2959  10.3061
    10.3113  10.3692  10.4374  10.4470  10.4620  10.4642  10.4785  10.5124
    10.5127  10.5259  10.5409  10.5710  10.6738  10.6780  10.6880  10.6999
    10.7248  10.7426  10.7506  10.8003  10.8589  10.8759  10.8883  10.8946
    10.9136  10.9208  11.0097  11.0441  11.0633  11.1083  11.1126  11.1309
    11.1362  11.1391  11.2086  11.2245  11.2610  11.2686  11.6135  11.6151
    11.6500  12.0672  12.1868  12.2771  12.3315  12.5909  12.8088  12.8691
    12.9903  13.4741  13.5001  13.5240  13.9833  14.0573  14.4570  14.5509
    14.6549  14.8068  15.1257  15.3746  15.7521  15.9394  16.4320  16.4683
    16.5010  16.5187  16.5455  17.2521  17.8064  17.9484  17.9790  18.5111
    19.0845  19.1280  19.1296  19.3112  19.3424  19.3737  19.5601  19.5877
    19.7658  19.7662  19.9058  19.9257  20.1816  20.5241  20.5739  20.7781
    21.0702  21.1767

          k = 0.0556 0.2778 0.0370 ( 49495 PWs)   bands (ev):

   -73.0188 -73.0070 -72.9980 -72.9940 -72.9933 -72.9907 -72.9883 -72.9865
   -72.9853 -72.9851 -72.9842 -72.9820 -72.9808 -72.9773 -72.9749 -72.9734
   -72.4281 -72.4281 -72.4205 -72.4205 -72.4150 -72.4150 -72.4144 -72.4144
   -72.4132 -72.4132 -72.4125 -72.4125 -72.4070 -72.4070 -72.3992 -72.3992
   -38.8486 -38.8472 -38.8445 -38.8436 -38.8337 -38.8332 -38.8310 -38.8112
   -38.8096 -38.8092 -38.8018 -38.7983 -38.7881 -38.7880 -38.7525 -38.7457
   -38.7298 -38.7291 -38.7096 -38.7034 -38.7032 -38.7010 -38.6998 -38.6989
   -38.6973 -38.6933 -38.6926 -38.6892 -38.6855 -38.6834 -38.6798 -38.6734
   -38.6526 -38.6476 -38.6450 -38.6402 -38.6335 -38.6316 -38.6282 -38.6248
   -38.6220 -38.6193 -38.6087 -38.6060 -38.5982 -38.5889 -38.5887 -38.5801
   -38.2981 -38.2966 -38.2924 -38.2902 -38.2869 -38.2865 -38.2796 -38.2793
   -38.2542 -38.2534 -38.2497 -38.2490 -38.2409 -38.2398 -38.2341 -38.2333
   -38.1767 -38.1760 -38.1697 -38.1693 -38.1603 -38.1601 -38.1557 -38.1554
   -38.1293 -38.1292 -38.1217 -38.1215 -38.1165 -38.1165 -38.1100 -38.1099
   -38.0309 -38.0286 -38.0226 -38.0224 -38.0184 -38.0177 -38.0176 -38.0167
   -38.0167 -38.0164 -38.0160 -38.0158 -38.0123 -38.0122 -38.0070 -38.0068
     5.0000   6.0865   6.2448   6.4311   6.4479   6.4481   6.4788   6.5033
     6.5150   6.5779   6.6284   6.6702   6.6770   6.6776   6.8484   6.8887
     7.0067   7.0142   7.0368   7.0374   7.0696   7.0881   7.1596   7.2392
     7.2448   7.2966   7.3808   7.3922   7.3926   7.4045   7.4060   7.4115
     7.4142   7.4572   7.4797   7.4829   7.6394   7.6821   7.6896   7.7209
     7.7422   7.7698   7.8190   7.9202   7.9265   7.9389   7.9466   7.9711
     7.9962   8.0524   8.0767   8.1148   8.1240   8.2572   8.2633   8.2997
     8.3029   8.3065   8.3776   8.3829   8.4214   8.4726   8.4979   8.5059
     8.5589   8.6312   8.6577   8.6854   8.6953   8.6996   8.7030   8.7081
     8.7417   8.7792   8.7875   8.8287   8.8393   8.8438   8.8800   8.9386
     8.9612   8.9899   8.9955   9.0682   9.1439   9.1506   9.1516   9.1603
     9.1911   9.2043   9.2416   9.3094   9.3365   9.3928   9.4380   9.4471
     9.5214   9.5378   9.5543   9.5716   9.6003   9.6267   9.6391   9.6689
     9.6883   9.6894   9.7242   9.7363   9.7933   9.8185   9.8534   9.9364
    10.0056  10.0202  10.0344  10.0507  10.0598  10.1044  10.1344  10.1499
    10.1587  10.1991  10.2068  10.2241  10.2541  10.2601  10.2650  10.3044
    10.3087  10.3658  10.4583  10.4626  10.4694  10.5226  10.5269  10.5994
    10.6184  10.6212  10.6261  10.6352  10.6491  10.6695  10.6970  10.7170
    10.7171  10.7215  10.7919  10.7982  10.7982  10.8032  10.8451  10.8583
    10.8723  10.8983  10.9020  10.9843  10.9854  11.0824  11.0842  11.0870
    11.1230  11.1345  11.1385  11.1509  11.2159  11.4327  11.5105  11.5467
    11.6798  11.9168  11.9196  12.1636  12.3454  12.4437  12.6080  13.1360
    13.2945  13.3287  13.4209  13.7554  13.8944  14.2088  14.4654  14.6775
    14.8967  15.1147  15.1434  16.0375  16.1368  16.1532  16.5234  16.5459
    16.5731  16.7417  16.8306  16.8488  17.3765  17.7617  17.9005  18.2995
    18.4060  18.4826  18.6529  18.8316  18.9546  19.0299  19.1239  19.3224
    19.4625  19.5824  19.9062  20.2969  20.3997  20.4262  20.5386  20.7372
    20.7862  21.1943

          k = 0.0556 0.2778 0.1111 ( 49470 PWs)   bands (ev):

   -73.0188 -73.0070 -72.9980 -72.9940 -72.9933 -72.9907 -72.9883 -72.9865
   -72.9853 -72.9851 -72.9842 -72.9820 -72.9808 -72.9773 -72.9749 -72.9734
   -72.4281 -72.4281 -72.4205 -72.4205 -72.4150 -72.4150 -72.4144 -72.4144
   -72.4132 -72.4132 -72.4125 -72.4125 -72.4070 -72.4070 -72.3992 -72.3992
   -38.8485 -38.8472 -38.8445 -38.8436 -38.8337 -38.8332 -38.8310 -38.8112
   -38.8095 -38.8092 -38.8018 -38.7982 -38.7881 -38.7880 -38.7526 -38.7457
   -38.7298 -38.7291 -38.7096 -38.7033 -38.7032 -38.7009 -38.6998 -38.6988
   -38.6973 -38.6932 -38.6926 -38.6892 -38.6855 -38.6834 -38.6798 -38.6734
   -38.6526 -38.6476 -38.6450 -38.6402 -38.6335 -38.6316 -38.6282 -38.6248
   -38.6220 -38.6193 -38.6087 -38.6060 -38.5982 -38.5889 -38.5887 -38.5801
   -38.2980 -38.2966 -38.2924 -38.2902 -38.2869 -38.2865 -38.2797 -38.2793
   -38.2542 -38.2534 -38.2497 -38.2490 -38.2409 -38.2397 -38.2341 -38.2333
   -38.1767 -38.1760 -38.1697 -38.1693 -38.1603 -38.1601 -38.1556 -38.1554
   -38.1293 -38.1292 -38.1217 -38.1215 -38.1165 -38.1165 -38.1099 -38.1099
   -38.0309 -38.0286 -38.0226 -38.0224 -38.0184 -38.0177 -38.0176 -38.0167
   -38.0166 -38.0164 -38.0160 -38.0158 -38.0122 -38.0122 -38.0070 -38.0068
     5.0005   6.0868   6.2440   6.4311   6.4479   6.4481   6.4788   6.5034
     6.5150   6.5778   6.6270   6.6703   6.6771   6.6776   6.8484   6.8888
     7.0066   7.0139   7.0367   7.0374   7.0696   7.0889   7.1596   7.2392
     7.2447   7.2959   7.3807   7.3922   7.3926   7.4044   7.4058   7.4115
     7.4144   7.4570   7.4801   7.4826   7.6396   7.6820   7.6894   7.7209
     7.7420   7.7696   7.8189   7.9202   7.9265   7.9392   7.9465   7.9707
     7.9962   8.0525   8.0764   8.1148   8.1239   8.2572   8.2631   8.2997
     8.3038   8.3068   8.3776   8.3829   8.4219   8.4725   8.4979   8.5059
     8.5585   8.6311   8.6577   8.6855   8.6960   8.6993   8.7030   8.7080
     8.7423   8.7793   8.7874   8.8297   8.8392   8.8436   8.8800   8.9391
     8.9619   8.9905   8.9971   9.0678   9.1444   9.1513   9.1557   9.1603
     9.1910   9.2047   9.2416   9.3052   9.3378   9.3940   9.4383   9.4447
     9.5214   9.5379   9.5526   9.5669   9.5994   9.6270   9.6392   9.6683
     9.6868   9.6896   9.7254   9.7343   9.7949   9.8187   9.8536   9.9368
    10.0058  10.0233  10.0345  10.0497  10.0577  10.0986  10.1323  10.1548
    10.1569  10.1982  10.2065  10.2230  10.2543  10.2592  10.2650  10.3015
    10.3085  10.3728  10.4624  10.4657  10.4695  10.5231  10.5275  10.5987
    10.6189  10.6252  10.6260  10.6352  10.6485  10.6694  10.6951  10.7185
    10.7219  10.7288  10.7918  10.7944  10.8009  10.8038  10.8451  10.8591
    10.8724  10.8964  10.9024  10.9831  10.9855  11.0668  11.0823  11.1074
    11.1230  11.1347  11.1385  11.1508  11.2169  11.4327  11.5105  11.5519
    11.6655  11.9143  11.9173  12.1497  12.3850  12.4431  12.6040  12.9765
    13.2797  13.3681  13.4492  13.7757  13.9333  14.4002  14.4689  14.6694
    14.7249  15.0921  15.1825  15.8640  16.1561  16.3776  16.4042  16.5097
    16.5498  16.6668  16.7972  16.8824  17.5895  17.6328  18.1382  18.2880
    18.4182  18.5198  18.6518  18.6564  18.9583  19.1898  19.2108  19.2933
    19.5853  19.8415  19.8949  19.9771  20.3600  20.4092  20.4939  20.5678
    20.7379  21.0079

          k = 0.0556 0.2778 0.1852 ( 49507 PWs)   bands (ev):

   -73.0188 -73.0070 -72.9980 -72.9940 -72.9933 -72.9907 -72.9883 -72.9865
   -72.9853 -72.9851 -72.9842 -72.9820 -72.9808 -72.9773 -72.9749 -72.9734
   -72.4281 -72.4281 -72.4205 -72.4205 -72.4150 -72.4150 -72.4144 -72.4144
   -72.4132 -72.4132 -72.4125 -72.4125 -72.4070 -72.4070 -72.3992 -72.3992
   -38.8486 -38.8472 -38.8445 -38.8436 -38.8337 -38.8332 -38.8310 -38.8112
   -38.8096 -38.8092 -38.8018 -38.7982 -38.7882 -38.7880 -38.7526 -38.7457
   -38.7298 -38.7292 -38.7096 -38.7033 -38.7032 -38.7009 -38.6998 -38.6988
   -38.6974 -38.6933 -38.6926 -38.6892 -38.6856 -38.6834 -38.6799 -38.6734
   -38.6526 -38.6476 -38.6450 -38.6402 -38.6335 -38.6316 -38.6282 -38.6248
   -38.6220 -38.6193 -38.6087 -38.6060 -38.5982 -38.5889 -38.5887 -38.5802
   -38.2981 -38.2966 -38.2924 -38.2902 -38.2869 -38.2865 -38.2797 -38.2793
   -38.2542 -38.2534 -38.2496 -38.2490 -38.2409 -38.2397 -38.2341 -38.2333
   -38.1767 -38.1760 -38.1697 -38.1693 -38.1603 -38.1601 -38.1557 -38.1554
   -38.1293 -38.1292 -38.1217 -38.1215 -38.1165 -38.1165 -38.1099 -38.1099
   -38.0309 -38.0286 -38.0226 -38.0224 -38.0184 -38.0177 -38.0176 -38.0168
   -38.0167 -38.0164 -38.0161 -38.0158 -38.0122 -38.0122 -38.0070 -38.0069
     5.0011   6.0873   6.2429   6.4311   6.4479   6.4482   6.4788   6.5035
     6.5151   6.5777   6.6249   6.6703   6.6771   6.6777   6.8484   6.8889
     7.0064   7.0135   7.0366   7.0373   7.0696   7.0900   7.1595   7.2393
     7.2444   7.2949   7.3806   7.3921   7.3926   7.4042   7.4054   7.4114
     7.4148   7.4567   7.4808   7.4821   7.6398   7.6820   7.6890   7.7209
     7.7418   7.7694   7.8189   7.9202   7.9264   7.9396   7.9462   7.9702
     7.9961   8.0528   8.0758   8.1147   8.1238   8.2572   8.2629   8.2997
     8.3052   8.3073   8.3776   8.3828   8.4226   8.4724   8.4979   8.5060
     8.5580   8.6311   8.6578   8.6856   8.6971   8.6987   8.7030   8.7077
     8.7431   8.7793   8.7873   8.8312   8.8392   8.8432   8.8800   8.9399
     8.9630   8.9914   8.9995   9.0672   9.1453   9.1524   9.1603   9.1620
     9.1909   9.2053   9.2415   9.2989   9.3399   9.3960   9.4388   9.4409
     9.5214   9.5380   9.5500   9.5598   9.5982   9.6276   9.6393   9.6675
     9.6846   9.6898   9.7272   9.7314   9.7972   9.8191   9.8539   9.9375
    10.0060  10.0288  10.0348  10.0480  10.0544  10.0891  10.1292  10.1544
    10.1623  10.1968  10.2061  10.2213  10.2547  10.2580  10.2650  10.2976
    10.3081  10.3834  10.4690  10.4694  10.4697  10.5173  10.5358  10.5976
    10.6197  10.6259  10.6310  10.6352  10.6476  10.6692  10.6939  10.7206
    10.7227  10.7437  10.7887  10.7918  10.8047  10.8052  10.8451  10.8601
    10.8728  10.8933  10.9031  10.9818  10.9857  11.0405  11.0822  11.1231
    11.1349  11.1385  11.1415  11.1507  11.2201  11.4328  11.5105  11.5599
    11.6438  11.9086  11.9158  12.1287  12.4421  12.4485  12.5981  12.7815
    13.2575  13.4314  13.4941  13.8076  13.9959  14.4743  14.5162  14.6485
    14.6561  15.0549  15.2455  15.6518  16.1607  16.1966  16.4891  16.5605
    16.5887  16.7159  16.7417  16.9015  17.3814  18.0079  18.2704  18.3724
    18.3934  18.5439  18.5800  18.6622  18.9634  19.1626  19.2874  19.5473
    19.6856  19.8179  19.8946  20.0651  20.2639  20.3750  20.3878  20.4906
    20.7861  20.7959

          k = 0.0556 0.2778 0.2593 ( 49529 PWs)   bands (ev):

   -73.0188 -73.0070 -72.9980 -72.9940 -72.9933 -72.9907 -72.9883 -72.9865
   -72.9853 -72.9851 -72.9842 -72.9820 -72.9808 -72.9773 -72.9749 -72.9734
   -72.4281 -72.4281 -72.4205 -72.4205 -72.4150 -72.4150 -72.4144 -72.4144
   -72.4132 -72.4132 -72.4125 -72.4125 -72.4070 -72.4070 -72.3992 -72.3992
   -38.8485 -38.8472 -38.8445 -38.8436 -38.8337 -38.8332 -38.8310 -38.8113
   -38.8096 -38.8092 -38.8018 -38.7982 -38.7882 -38.7880 -38.7526 -38.7457
   -38.7298 -38.7292 -38.7096 -38.7033 -38.7033 -38.7009 -38.6998 -38.6989
   -38.6974 -38.6933 -38.6926 -38.6892 -38.6856 -38.6834 -38.6799 -38.6735
   -38.6526 -38.6476 -38.6450 -38.6403 -38.6335 -38.6316 -38.6282 -38.6248
   -38.6220 -38.6193 -38.6087 -38.6060 -38.5981 -38.5889 -38.5887 -38.5802
   -38.2981 -38.2966 -38.2924 -38.2902 -38.2869 -38.2865 -38.2797 -38.2793
   -38.2542 -38.2534 -38.2496 -38.2490 -38.2409 -38.2397 -38.2341 -38.2333
   -38.1767 -38.1761 -38.1697 -38.1693 -38.1603 -38.1601 -38.1557 -38.1554
   -38.1293 -38.1292 -38.1217 -38.1215 -38.1165 -38.1165 -38.1100 -38.1099
   -38.0309 -38.0286 -38.0226 -38.0224 -38.0184 -38.0178 -38.0176 -38.0168
   -38.0167 -38.0164 -38.0161 -38.0158 -38.0123 -38.0122 -38.0070 -38.0069
     5.0017   6.0877   6.2418   6.4312   6.4479   6.4483   6.4788   6.5035
     6.5151   6.5776   6.6231   6.6703   6.6771   6.6778   6.8484   6.8891
     7.0062   7.0131   7.0366   7.0373   7.0696   7.0911   7.1595   7.2393
     7.2443   7.2940   7.3805   7.3920   7.3926   7.4042   7.4050   7.4113
     7.4150   7.4565   7.4813   7.4816   7.6399   7.6819   7.6887   7.7209
     7.7416   7.7693   7.8189   7.9202   7.9264   7.9400   7.9460   7.9698
     7.9961   8.0530   8.0753   8.1147   8.1236   8.2573   8.2627   8.2996
     8.3064   8.3077   8.3776   8.3827   8.4233   8.4723   8.4979   8.5061
     8.5575   8.6310   8.6579   8.6857   8.6981   8.6983   8.7030   8.7076
     8.7438   8.7793   8.7871   8.8325   8.8392   8.8429   8.8800   8.9406
     8.9640   8.9922   9.0017   9.0667   9.1461   9.1535   9.1603   9.1676
     9.1908   9.2058   9.2414   9.2934   9.3418   9.3978   9.4374   9.4392
     9.5214   9.5381   9.5476   9.5536   9.5972   9.6280   9.6395   9.6668
     9.6828   9.6900   9.7286   9.7289   9.7991   9.8194   9.8542   9.9381
    10.0062  10.0350  10.0353  10.0466  10.0516  10.0793  10.1264  10.1523
    10.1688  10.1956  10.2058  10.2198  10.2550  10.2569  10.2650  10.2945
    10.3079  10.3930  10.4698  10.4719  10.4754  10.5116  10.5440  10.5966
    10.6203  10.6257  10.6353  10.6360  10.6469  10.6689  10.6933  10.7225
    10.7235  10.7550  10.7837  10.7917  10.8055  10.8092  10.8451  10.8609
    10.8732  10.8904  10.9037  10.9810  10.9859  11.0177  11.0821  11.1231
    11.1352  11.1385  11.1506  11.1721  11.2278  11.4328  11.5105  11.5670
    11.6252  11.9036  11.9148  12.1107  12.4412  12.5079  12.5931  12.6327
    13.2383  13.4908  13.5352  13.8366  14.0546  14.3583  14.4791  14.6433
    14.8498  15.0195  15.3046  15.4912  16.0390  16.1648  16.4714  16.5336
    16.5817  16.6815  16.9087  17.0297  17.2247  18.1739  18.2550  18.3855
    18.4011  18.6368  18.6675  18.8537  18.9648  19.1615  19.1697  19.3794
    19.9574  20.0320  20.0375  20.0814  20.0935  20.2603  20.4023  20.5147
    20.6351  20.6942

          k = 0.0556 0.2778-0.3333 ( 49536 PWs)   bands (ev):

   -73.0188 -73.0070 -72.9980 -72.9940 -72.9933 -72.9907 -72.9883 -72.9865
   -72.9853 -72.9851 -72.9842 -72.9820 -72.9808 -72.9773 -72.9749 -72.9734
   -72.4281 -72.4281 -72.4205 -72.4205 -72.4150 -72.4150 -72.4144 -72.4144
   -72.4132 -72.4132 -72.4125 -72.4125 -72.4070 -72.4070 -72.3992 -72.3992
   -38.8485 -38.8472 -38.8446 -38.8436 -38.8338 -38.8333 -38.8310 -38.8112
   -38.8096 -38.8092 -38.8018 -38.7983 -38.7881 -38.7881 -38.7526 -38.7457
   -38.7299 -38.7292 -38.7095 -38.7033 -38.7033 -38.7010 -38.6999 -38.6988
   -38.6974 -38.6933 -38.6925 -38.6892 -38.6856 -38.6833 -38.6799 -38.6735
   -38.6525 -38.6476 -38.6450 -38.6403 -38.6336 -38.6315 -38.6282 -38.6248
   -38.6220 -38.6193 -38.6087 -38.6060 -38.5982 -38.5889 -38.5887 -38.5801
   -38.2981 -38.2967 -38.2924 -38.2902 -38.2869 -38.2866 -38.2797 -38.2793
   -38.2542 -38.2534 -38.2496 -38.2490 -38.2409 -38.2397 -38.2341 -38.2333
   -38.1767 -38.1761 -38.1697 -38.1693 -38.1603 -38.1601 -38.1557 -38.1554
   -38.1293 -38.1292 -38.1217 -38.1215 -38.1165 -38.1165 -38.1100 -38.1099
   -38.0309 -38.0285 -38.0226 -38.0224 -38.0184 -38.0178 -38.0176 -38.0168
   -38.0167 -38.0164 -38.0161 -38.0158 -38.0122 -38.0121 -38.0070 -38.0069
     5.0020   6.0878   6.2414   6.4312   6.4479   6.4483   6.4788   6.5036
     6.5152   6.5775   6.6224   6.6703   6.6771   6.6778   6.8484   6.8891
     7.0062   7.0130   7.0365   7.0373   7.0696   7.0915   7.1595   7.2394
     7.2442   7.2936   7.3805   7.3920   7.3926   7.4043   7.4047   7.4113
     7.4151   7.4564   7.4814   7.4816   7.6400   7.6819   7.6886   7.7210
     7.7415   7.7692   7.8189   7.9202   7.9264   7.9401   7.9460   7.9696
     7.9961   8.0530   8.0751   8.1147   8.1236   8.2573   8.2626   8.2996
     8.3069   8.3079   8.3776   8.3827   8.4235   8.4723   8.4979   8.5061
     8.5573   8.6310   8.6579   8.6857   8.6981   8.6985   8.7030   8.7075
     8.7440   8.7793   8.7870   8.8330   8.8392   8.8428   8.8800   8.9408
     8.9644   8.9925   9.0026   9.0665   9.1464   9.1539   9.1603   9.1699
     9.1907   9.2059   9.2413   9.2912   9.3426   9.3985   9.4360   9.4394
     9.5214   9.5381   9.5466   9.5511   9.5969   9.6282   9.6395   9.6665
     9.6820   9.6901   9.7279   9.7291   9.7999   9.8195   9.8543   9.9383
    10.0063  10.0350  10.0387  10.0460  10.0504  10.0747  10.1253  10.1515
    10.1714  10.1952  10.2057  10.2192  10.2551  10.2565  10.2650  10.2934
    10.3078  10.3969  10.4699  10.4728  10.4782  10.5089  10.5475  10.5962
    10.6205  10.6256  10.6353  10.6379  10.6466  10.6688  10.6932  10.7233
    10.7238  10.7592  10.7817  10.7917  10.8058  10.8109  10.8451  10.8612
    10.8735  10.8892  10.9039  10.9807  10.9859  11.0088  11.0821  11.1232
    11.1353  11.1385  11.1505  11.1825  11.2344  11.4328  11.5105  11.5699
    11.6179  11.9017  11.9144  12.1036  12.4408  12.5326  12.5770  12.5912
    13.2308  13.5155  13.5520  13.8483  14.0789  14.2996  14.4810  14.6379
    14.9282  15.0048  15.3292  15.4315  15.9803  16.1664  16.4644  16.5140
    16.6049  16.6430  16.9103  17.1666  17.1701  18.0874  18.2489  18.4059
    18.5784  18.6605  18.6696  18.9605  18.9987  19.0069  19.1688  19.4198
    19.8672  19.9860  20.1149  20.1888  20.2149  20.2475  20.2855  20.4561
    20.5459  20.8401

          k = 0.0556 0.3889 0.0370 ( 49533 PWs)   bands (ev):

   -73.0167 -73.0107 -72.9971 -72.9947 -72.9934 -72.9917 -72.9875 -72.9854
   -72.9841 -72.9839 -72.9829 -72.9825 -72.9816 -72.9770 -72.9761 -72.9741
   -72.4268 -72.4267 -72.4229 -72.4229 -72.4149 -72.4149 -72.4146 -72.4146
   -72.4130 -72.4130 -72.4126 -72.4126 -72.4046 -72.4046 -72.4006 -72.4006
   -38.8402 -38.8392 -38.8353 -38.8344 -38.8272 -38.8264 -38.8249 -38.8192
   -38.8170 -38.8170 -38.8147 -38.8089 -38.8058 -38.8018 -38.7539 -38.7500
   -38.7227 -38.7182 -38.7115 -38.7063 -38.7028 -38.7015 -38.7014 -38.7005
   -38.6986 -38.6950 -38.6891 -38.6846 -38.6795 -38.6781 -38.6759 -38.6709
   -38.6610 -38.6565 -38.6321 -38.6284 -38.6274 -38.6267 -38.6266 -38.6217
   -38.6187 -38.6144 -38.6128 -38.6069 -38.6056 -38.5995 -38.5942 -38.5869
   -38.2908 -38.2892 -38.2829 -38.2808 -38.2805 -38.2802 -38.2710 -38.2704
   -38.2686 -38.2673 -38.2619 -38.2611 -38.2568 -38.2550 -38.2479 -38.2470
   -38.1627 -38.1621 -38.1537 -38.1535 -38.1478 -38.1476 -38.1410 -38.1408
   -38.1385 -38.1383 -38.1281 -38.1280 -38.1266 -38.1266 -38.1177 -38.1177
   -38.0291 -38.0275 -38.0248 -38.0245 -38.0183 -38.0180 -38.0174 -38.0169
   -38.0167 -38.0165 -38.0158 -38.0157 -38.0107 -38.0105 -38.0080 -38.0078
     5.2010   5.7596   6.3966   6.5101   6.5319   6.5656   6.5676   6.5907
     6.6134   6.6418   6.6956   6.7411   6.7574   6.7689   6.7819   6.7855
     6.7962   6.8338   6.8738   6.8796   6.9431   6.9991   7.0424   7.1174
     7.2225   7.3490   7.3971   7.3992   7.4151   7.4222   7.4330   7.4479
     7.4934   7.5047   7.5146   7.5158   7.5271   7.6381   7.6919   7.6998
     7.7213   7.7574   7.7949   7.8046   7.8317   7.8548   7.8890   7.9019
     7.9091   7.9511   8.1240   8.1795   8.2542   8.2837   8.3027   8.3226
     8.3438   8.3846   8.4664   8.4683   8.4687   8.4921   8.5152   8.5193
     8.6100   8.6238   8.6898   8.6929   8.6935   8.7267   8.7310   8.7322
     8.7362   8.7456   8.7540   8.7991   8.8064   8.8883   8.8972   8.9127
     8.9257   8.9423   8.9810   8.9894   8.9974   9.0643   9.0643   9.1057
     9.1443   9.1512   9.3659   9.3847   9.3899   9.4206   9.4637   9.4865
     9.5120   9.5584   9.5727   9.6104   9.6489   9.6532   9.6562   9.6627
     9.6690   9.6756   9.7426   9.7483   9.8772   9.8857   9.9042   9.9379
     9.9539   9.9882  10.0574  10.0819  10.0862  10.1195  10.1200  10.1459
    10.1852  10.1998  10.2062  10.2485  10.3111  10.3620  10.3761  10.4058
    10.4384  10.4602  10.4832  10.4954  10.5035  10.5113  10.5420  10.5496
    10.6013  10.6018  10.6337  10.6455  10.6500  10.6868  10.7096  10.7273
    10.7283  10.7321  10.7447  10.7673  10.7885  10.7916  10.8073  10.8240
    10.8632  10.8863  10.9004  10.9066  10.9097  10.9266  10.9831  11.0673
    11.1594  11.1661  11.1877  11.2248  11.2708  11.3142  11.3562  11.5390
    11.6848  11.7724  11.9313  12.0336  12.1974  12.2194  12.4379  13.3536
    13.4125  13.5079  13.7094  13.8985  13.9219  14.0224  14.4015  14.6436
    15.4000  15.6205  15.6690  15.6791  15.8853  16.0740  16.5012  16.6882
    16.9433  16.9710  17.0460  17.1871  17.4724  17.5617  17.6145  17.8647
    17.9587  18.0893  18.4402  18.7221  18.9444  19.0830  19.2151  19.2488
    19.5241  19.6131  19.6504  19.8131  19.8223  19.8653  19.9040  20.5777
    20.9613  21.1500

          k = 0.0556 0.3889 0.1111 ( 49522 PWs)   bands (ev):

   -73.0167 -73.0107 -72.9971 -72.9947 -72.9934 -72.9917 -72.9875 -72.9854
   -72.9841 -72.9839 -72.9829 -72.9825 -72.9816 -72.9770 -72.9761 -72.9741
   -72.4268 -72.4267 -72.4229 -72.4229 -72.4149 -72.4149 -72.4146 -72.4146
   -72.4130 -72.4130 -72.4126 -72.4126 -72.4046 -72.4046 -72.4006 -72.4006
   -38.8402 -38.8391 -38.8353 -38.8344 -38.8272 -38.8264 -38.8249 -38.8192
   -38.8170 -38.8170 -38.8147 -38.8089 -38.8058 -38.8018 -38.7539 -38.7500
   -38.7227 -38.7182 -38.7115 -38.7062 -38.7028 -38.7015 -38.7014 -38.7005
   -38.6986 -38.6949 -38.6891 -38.6846 -38.6795 -38.6781 -38.6759 -38.6709
   -38.6610 -38.6565 -38.6321 -38.6283 -38.6274 -38.6267 -38.6266 -38.6217
   -38.6186 -38.6144 -38.6128 -38.6069 -38.6056 -38.5995 -38.5942 -38.5869
   -38.2908 -38.2892 -38.2829 -38.2808 -38.2806 -38.2802 -38.2710 -38.2704
   -38.2686 -38.2673 -38.2619 -38.2611 -38.2568 -38.2550 -38.2479 -38.2470
   -38.1627 -38.1621 -38.1537 -38.1534 -38.1478 -38.1476 -38.1410 -38.1408
   -38.1385 -38.1383 -38.1281 -38.1280 -38.1266 -38.1266 -38.1177 -38.1177
   -38.0291 -38.0275 -38.0247 -38.0245 -38.0183 -38.0180 -38.0174 -38.0169
   -38.0166 -38.0165 -38.0158 -38.0158 -38.0106 -38.0104 -38.0080 -38.0078
     5.2014   5.7600   6.3960   6.5101   6.5319   6.5656   6.5676   6.5907
     6.6134   6.6418   6.6955   6.7411   6.7575   6.7676   6.7820   6.7855
     6.7958   6.8337   6.8738   6.8795   6.9431   6.9991   7.0423   7.1163
     7.2231   7.3491   7.3973   7.3993   7.4154   7.4219   7.4330   7.4479
     7.4933   7.5049   7.5145   7.5157   7.5268   7.6379   7.6916   7.6998
     7.7217   7.7572   7.7947   7.8045   7.8317   7.8544   7.8889   7.9016
     7.9090   7.9511   8.1242   8.1794   8.2544   8.2837   8.3028   8.3230
     8.3438   8.3846   8.4671   8.4683   8.4687   8.4922   8.5154   8.5212
     8.6100   8.6236   8.6908   8.6930   8.6935   8.7267   8.7308   8.7322
     8.7362   8.7471   8.7543   8.7991   8.8066   8.8885   8.8982   8.9129
     8.9260   8.9461   8.9814   8.9897   8.9972   9.0643   9.0650   9.1057
     9.1443   9.1515   9.3659   9.3816   9.3905   9.4212   9.4641   9.4865
     9.5101   9.5576   9.5726   9.6103   9.6488   9.6527   9.6532   9.6625
     9.6659   9.6740   9.7429   9.7487   9.8757   9.8831   9.8933   9.9350
     9.9576   9.9888  10.0571  10.0818  10.0862  10.1192  10.1194  10.1456
    10.1845  10.2001  10.2054  10.2610  10.3100  10.3655  10.3761  10.4053
    10.4369  10.4602  10.4824  10.4954  10.5070  10.5104  10.5415  10.5492
    10.6067  10.6107  10.6367  10.6479  10.6502  10.6874  10.7095  10.7251
    10.7278  10.7278  10.7448  10.7674  10.7880  10.7918  10.8073  10.8218
    10.8612  10.8836  10.8867  10.9060  10.9088  10.9270  10.9831  11.0672
    11.1594  11.1660  11.1905  11.2249  11.3017  11.3147  11.3563  11.5387
    11.6724  11.7654  11.9704  12.0335  12.2019  12.2073  12.4308  13.3494
    13.3922  13.4463  13.7132  13.9274  13.9595  14.0078  14.2352  14.8418
    15.3817  15.6186  15.6547  15.8458  15.9129  15.9244  16.3656  16.6913
    16.8637  16.8679  17.0717  17.2962  17.5756  17.6002  17.6926  17.9608
    18.0603  18.1012  18.2765  18.7092  18.8810  19.0762  19.2814  19.3037
    19.5508  19.6081  19.6556  19.7455  19.7632  19.8625  20.0092  20.6316
    20.9916  21.1334

          k = 0.0556 0.3889 0.1852 ( 49513 PWs)   bands (ev):

   -73.0167 -73.0107 -72.9971 -72.9947 -72.9934 -72.9917 -72.9875 -72.9854
   -72.9841 -72.9839 -72.9829 -72.9825 -72.9816 -72.9770 -72.9761 -72.9741
   -72.4268 -72.4267 -72.4229 -72.4229 -72.4149 -72.4149 -72.4146 -72.4146
   -72.4130 -72.4130 -72.4126 -72.4126 -72.4046 -72.4046 -72.4006 -72.4006
   -38.8402 -38.8392 -38.8353 -38.8344 -38.8272 -38.8264 -38.8249 -38.8192
   -38.8170 -38.8170 -38.8147 -38.8089 -38.8058 -38.8018 -38.7539 -38.7500
   -38.7227 -38.7182 -38.7114 -38.7062 -38.7028 -38.7015 -38.7014 -38.7006
   -38.6986 -38.6950 -38.6891 -38.6846 -38.6795 -38.6781 -38.6759 -38.6709
   -38.6611 -38.6564 -38.6321 -38.6283 -38.6274 -38.6267 -38.6266 -38.6217
   -38.6187 -38.6144 -38.6128 -38.6069 -38.6056 -38.5995 -38.5942 -38.5870
   -38.2908 -38.2892 -38.2829 -38.2808 -38.2806 -38.2802 -38.2710 -38.2704
   -38.2686 -38.2673 -38.2619 -38.2611 -38.2568 -38.2550 -38.2478 -38.2470
   -38.1627 -38.1620 -38.1537 -38.1534 -38.1478 -38.1476 -38.1410 -38.1408
   -38.1385 -38.1383 -38.1281 -38.1280 -38.1266 -38.1265 -38.1177 -38.1177
   -38.0292 -38.0275 -38.0247 -38.0245 -38.0183 -38.0180 -38.0174 -38.0169
   -38.0167 -38.0165 -38.0159 -38.0157 -38.0106 -38.0105 -38.0079 -38.0077
     5.2020   5.7605   6.3950   6.5101   6.5320   6.5656   6.5676   6.5908
     6.6135   6.6418   6.6954   6.7411   6.7575   6.7655   6.7821   6.7855
     6.7952   6.8336   6.8738   6.8795   6.9432   6.9991   7.0423   7.1146
     7.2240   7.3494   7.3976   7.3994   7.4161   7.4216   7.4330   7.4477
     7.4932   7.5052   7.5145   7.5157   7.5263   7.6375   7.6910   7.6997
     7.7222   7.7570   7.7945   7.8044   7.8317   7.8539   7.8888   7.9012
     7.9090   7.9511   8.1245   8.1794   8.2546   8.2836   8.3029   8.3235
     8.3438   8.3847   8.4682   8.4684   8.4687   8.4924   8.5156   8.5240
     8.6099   8.6233   8.6924   8.6931   8.6935   8.7267   8.7306   8.7321
     8.7362   8.7492   8.7547   8.7991   8.8069   8.8886   8.8996   8.9133
     8.9265   8.9519   8.9821   8.9901   8.9969   9.0642   9.0660   9.1057
     9.1442   9.1519   9.3660   9.3769   9.3916   9.4221   9.4648   9.4864
     9.5071   9.5563   9.5726   9.6100   9.6476   9.6486   9.6531   9.6612
[...]
     9.5839   9.5839   9.5840   9.5840   9.5840   9.5840   9.5840   9.5840
     9.6191   9.6191   9.6191   9.6191   9.6191   9.6191   9.6191   9.6192
     9.6313   9.6313   9.6313   9.6313   9.8540   9.8540   9.8540   9.8540
    10.2031  10.2031  10.2031  10.2031  10.2031  10.2031  10.2031  10.2031
    10.2046  10.2046  10.2046  10.2046  10.3524  10.3524  10.3524  10.3524
    10.4611  10.4611  10.4611  10.4611  10.6711  10.6711  10.6711  10.6711
    10.7996  10.7996  10.7996  10.7996  10.7996  10.7996  10.7996  10.7996
    11.0953  11.0953  11.0953  11.0953  11.1451  11.1451  11.1451  11.1451
    11.1451  11.1451  11.1451  11.1451  11.1636  11.1636  11.1636  11.1636
    11.8892  11.8892  11.8892  11.8892  14.3946  14.3946  14.3946  14.3946
    14.3946  14.3946  14.3946  14.3946  14.4950  14.4950  14.4950  14.4950
    15.5355  15.5355  15.5355  15.5355  15.5355  15.5355  15.5355  15.5355
    16.3074  16.3074  16.3074  16.3074  17.5074  17.5074  17.5074  17.5074
    17.5074  17.5074  17.5074  17.5074  19.7371  19.7371  19.7371  19.7371
    19.8721  19.8721  19.8721  19.8721  20.1399  20.1399  20.1399  20.1399
    20.1399  20.1399

          k =-0.5000-0.5000 0.1852 ( 49492 PWs)   bands (ev):

   -73.0194 -73.0194 -73.0194 -73.0194 -72.9965 -72.9965 -72.9965 -72.9965
   -72.9916 -72.9916 -72.9916 -72.9916 -72.9916 -72.9916 -72.9916 -72.9916
   -72.4335 -72.4335 -72.4335 -72.4335 -72.4335 -72.4335 -72.4335 -72.4335
   -72.4175 -72.4175 -72.4175 -72.4175 -72.4175 -72.4175 -72.4175 -72.4175
   -38.8452 -38.8452 -38.8452 -38.8452 -38.8452 -38.8452 -38.8452 -38.8452
   -38.8342 -38.8342 -38.8342 -38.8342 -38.7818 -38.7818 -38.7818 -38.7818
   -38.7219 -38.7219 -38.7219 -38.7219 -38.7219 -38.7219 -38.7219 -38.7219
   -38.6798 -38.6798 -38.6798 -38.6798 -38.6781 -38.6781 -38.6781 -38.6781
   -38.6781 -38.6781 -38.6781 -38.6781 -38.6583 -38.6583 -38.6583 -38.6583
   -38.6357 -38.6357 -38.6357 -38.6357 -38.5859 -38.5859 -38.5859 -38.5859
   -38.3077 -38.3077 -38.3077 -38.3077 -38.3077 -38.3077 -38.3077 -38.3077
   -38.2246 -38.2246 -38.2246 -38.2246 -38.2218 -38.2218 -38.2218 -38.2218
   -38.2101 -38.2101 -38.2101 -38.2101 -38.2101 -38.2101 -38.2101 -38.2101
   -38.1217 -38.1217 -38.1217 -38.1217 -38.1215 -38.1215 -38.1215 -38.1215
   -38.0355 -38.0355 -38.0355 -38.0355 -38.0347 -38.0347 -38.0347 -38.0347
   -38.0235 -38.0235 -38.0235 -38.0235 -38.0235 -38.0235 -38.0235 -38.0235
     5.8840   5.8840   5.8840   5.8840   6.5097   6.5097   6.5097   6.5097
     6.8364   6.8364   6.8364   6.8364   6.8364   6.8364   6.8364   6.8364
     6.9444   6.9444   6.9444   6.9444   7.0078   7.0078   7.0078   7.0078
     7.0078   7.0078   7.0078   7.0078   7.0927   7.0927   7.0927   7.0927
     7.3867   7.3867   7.3867   7.3867   7.6992   7.6992   7.6992   7.6992
     7.6993   7.6993   7.6993   7.6993   8.0080   8.0080   8.0080   8.0081
     8.0081   8.0081   8.0081   8.0081   8.1796   8.1796   8.1796   8.1796
     8.4138   8.4138   8.4138   8.4138   8.6704   8.6705   8.6705   8.6705
     8.7857   8.7857   8.7857   8.7857   8.7908   8.7908   8.7908   8.7908
     8.8731   8.8731   8.8731   8.8731   8.9868   8.9868   8.9868   8.9868
     8.9868   8.9868   8.9868   8.9868   9.0138   9.0138   9.0138   9.0138
     9.3291   9.3291   9.3291   9.3291   9.4604   9.4604   9.4604   9.4604
     9.5840   9.5840   9.5840   9.5840   9.5840   9.5840   9.5840   9.5840
     9.6198   9.6198   9.6198   9.6198   9.6198   9.6198   9.6198   9.6198
     9.6314   9.6314   9.6314   9.6314   9.8540   9.8540   9.8540   9.8540
    10.2006  10.2006  10.2006  10.2006  10.2006  10.2006  10.2006  10.2006
    10.2081  10.2081  10.2081  10.2081  10.3269  10.3269  10.3269  10.3269
    10.4610  10.4611  10.4611  10.4611  10.6710  10.6710  10.6710  10.6710
    10.8013  10.8013  10.8013  10.8013  10.8013  10.8013  10.8013  10.8013
    11.0953  11.0953  11.0953  11.0953  11.1453  11.1453  11.1453  11.1453
    11.1453  11.1453  11.1453  11.1453  11.1635  11.1635  11.1635  11.1635
    11.9595  11.9595  11.9595  11.9595  14.2888  14.2888  14.2888  14.2888
    14.3977  14.3977  14.3977  14.3977  14.3977  14.3977  14.3977  14.3977
    15.5237  15.5237  15.5237  15.5237  15.5237  15.5237  15.5237  15.5237
    16.6399  16.6399  16.6399  16.6399  17.5434  17.5434  17.5434  17.5434
    17.5434  17.5434  17.5434  17.5434  19.4525  19.4525  19.4525  19.4525
    19.7593  19.7593  19.7593  19.7593  19.9615  19.9615  19.9615  19.9615
    19.9615  19.9616

          k =-0.5000-0.5000 0.2593 ( 49508 PWs)   bands (ev):

   -73.0194 -73.0194 -73.0194 -73.0194 -72.9965 -72.9965 -72.9965 -72.9965
   -72.9916 -72.9916 -72.9916 -72.9916 -72.9916 -72.9916 -72.9916 -72.9916
   -72.4335 -72.4335 -72.4335 -72.4335 -72.4335 -72.4335 -72.4335 -72.4335
   -72.4175 -72.4175 -72.4175 -72.4175 -72.4175 -72.4175 -72.4175 -72.4175
   -38.8452 -38.8452 -38.8452 -38.8452 -38.8452 -38.8452 -38.8452 -38.8451
   -38.8342 -38.8342 -38.8342 -38.8342 -38.7818 -38.7818 -38.7818 -38.7818
   -38.7219 -38.7219 -38.7219 -38.7219 -38.7219 -38.7219 -38.7219 -38.7219
   -38.6798 -38.6798 -38.6798 -38.6798 -38.6781 -38.6781 -38.6781 -38.6781
   -38.6781 -38.6781 -38.6781 -38.6781 -38.6583 -38.6583 -38.6583 -38.6583
   -38.6358 -38.6358 -38.6358 -38.6358 -38.5859 -38.5859 -38.5859 -38.5859
   -38.3077 -38.3077 -38.3077 -38.3077 -38.3077 -38.3077 -38.3077 -38.3077
   -38.2246 -38.2246 -38.2246 -38.2246 -38.2218 -38.2218 -38.2218 -38.2218
   -38.2101 -38.2101 -38.2101 -38.2101 -38.2101 -38.2101 -38.2101 -38.2101
   -38.1217 -38.1217 -38.1217 -38.1217 -38.1216 -38.1216 -38.1216 -38.1216
   -38.0355 -38.0355 -38.0355 -38.0355 -38.0347 -38.0347 -38.0347 -38.0347
   -38.0235 -38.0235 -38.0235 -38.0235 -38.0235 -38.0235 -38.0235 -38.0235
     5.8842   5.8842   5.8842   5.8843   6.5094   6.5094   6.5094   6.5094
     6.8364   6.8364   6.8364   6.8364   6.8364   6.8364   6.8364   6.8364
     6.9438   6.9438   6.9438   6.9438   7.0077   7.0077   7.0077   7.0077
     7.0077   7.0077   7.0077   7.0078   7.0935   7.0935   7.0935   7.0935
     7.3864   7.3865   7.3865   7.3865   7.6994   7.6994   7.6994   7.6994
     7.6995   7.6995   7.6995   7.6995   8.0079   8.0079   8.0079   8.0079
     8.0079   8.0079   8.0079   8.0080   8.1800   8.1800   8.1800   8.1800
     8.4137   8.4137   8.4137   8.4137   8.6705   8.6705   8.6705   8.6705
     8.7857   8.7857   8.7857   8.7857   8.7901   8.7901   8.7901   8.7901
     8.8755   8.8755   8.8755   8.8755   8.9868   8.9868   8.9868   8.9868
     8.9868   8.9868   8.9868   8.9868   9.0137   9.0137   9.0137   9.0137
     9.3271   9.3271   9.3271   9.3271   9.4626   9.4626   9.4626   9.4626
     9.5840   9.5840   9.5840   9.5840   9.5840   9.5840   9.5840   9.5840
     9.6204   9.6204   9.6204   9.6204   9.6204   9.6204   9.6204   9.6204
     9.6314   9.6314   9.6314   9.6314   9.8540   9.8540   9.8540   9.8540
    10.1985  10.1985  10.1985  10.1985  10.1985  10.1985  10.1985  10.1985
    10.2126  10.2126  10.2126  10.2126  10.3037  10.3037  10.3037  10.3037
    10.4611  10.4611  10.4611  10.4611  10.6710  10.6710  10.6710  10.6710
    10.8028  10.8028  10.8028  10.8028  10.8028  10.8028  10.8028  10.8028
    11.0953  11.0953  11.0953  11.0953  11.1456  11.1456  11.1456  11.1456
    11.1456  11.1456  11.1456  11.1456  11.1635  11.1635  11.1635  11.1635
    12.0247  12.0247  12.0247  12.0247  14.1300  14.1300  14.1300  14.1301
    14.4005  14.4005  14.4005  14.4005  14.4005  14.4005  14.4005  14.4005
    15.5134  15.5135  15.5135  15.5135  15.5135  15.5135  15.5135  15.5135
    16.9509  16.9509  16.9509  16.9509  17.5762  17.5762  17.5762  17.5762
    17.5763  17.5763  17.5763  17.5763  19.0913  19.0913  19.0913  19.0913
    19.7624  19.7624  19.7624  19.7624  19.8329  19.8329  19.8329  19.8329
    19.8329  19.8329

          k =-0.5000-0.5000-0.3333 ( 49560 PWs)   bands (ev):

   -73.0194 -73.0194 -73.0194 -73.0194 -72.9965 -72.9965 -72.9965 -72.9965
   -72.9916 -72.9916 -72.9916 -72.9916 -72.9916 -72.9916 -72.9916 -72.9916
   -72.4335 -72.4335 -72.4335 -72.4335 -72.4335 -72.4335 -72.4335 -72.4335
   -72.4175 -72.4175 -72.4175 -72.4175 -72.4175 -72.4175 -72.4175 -72.4175
   -38.8452 -38.8452 -38.8452 -38.8452 -38.8452 -38.8452 -38.8452 -38.8452
   -38.8342 -38.8342 -38.8342 -38.8342 -38.7818 -38.7817 -38.7817 -38.7817
   -38.7219 -38.7219 -38.7219 -38.7219 -38.7219 -38.7219 -38.7219 -38.7219
   -38.6798 -38.6798 -38.6798 -38.6798 -38.6782 -38.6782 -38.6782 -38.6782
   -38.6782 -38.6782 -38.6782 -38.6782 -38.6583 -38.6583 -38.6583 -38.6583
   -38.6358 -38.6358 -38.6358 -38.6358 -38.5859 -38.5859 -38.5859 -38.5859
   -38.3077 -38.3077 -38.3077 -38.3077 -38.3077 -38.3077 -38.3077 -38.3077
   -38.2247 -38.2247 -38.2246 -38.2246 -38.2218 -38.2218 -38.2218 -38.2218
   -38.2102 -38.2102 -38.2102 -38.2102 -38.2102 -38.2102 -38.2102 -38.2102
   -38.1217 -38.1217 -38.1217 -38.1217 -38.1216 -38.1216 -38.1216 -38.1216
   -38.0355 -38.0355 -38.0355 -38.0355 -38.0347 -38.0347 -38.0347 -38.0347
   -38.0235 -38.0235 -38.0235 -38.0235 -38.0235 -38.0235 -38.0235 -38.0235
     5.8843   5.8843   5.8843   5.8843   6.5092   6.5092   6.5092   6.5092
     6.8363   6.8364   6.8364   6.8364   6.8364   6.8364   6.8364   6.8364
     6.9435   6.9435   6.9435   6.9435   7.0077   7.0077   7.0077   7.0077
     7.0077   7.0077   7.0077   7.0077   7.0939   7.0939   7.0939   7.0939
     7.3864   7.3864   7.3864   7.3864   7.6995   7.6995   7.6995   7.6995
     7.6995   7.6995   7.6995   7.6995   8.0079   8.0079   8.0079   8.0079
     8.0079   8.0079   8.0079   8.0079   8.1801   8.1801   8.1801   8.1801
     8.4137   8.4137   8.4137   8.4137   8.6705   8.6705   8.6705   8.6705
     8.7856   8.7857   8.7857   8.7857   8.7898   8.7898   8.7898   8.7898
     8.8764   8.8765   8.8765   8.8765   8.9867   8.9867   8.9867   8.9868
     8.9868   8.9868   8.9868   8.9868   9.0137   9.0137   9.0137   9.0137
     9.3263   9.3263   9.3264   9.3264   9.4635   9.4635   9.4635   9.4635
     9.5840   9.5840   9.5840   9.5840   9.5840   9.5840   9.5840   9.5840
     9.6206   9.6206   9.6206   9.6206   9.6206   9.6206   9.6206   9.6207
     9.6314   9.6314   9.6314   9.6314   9.8540   9.8540   9.8540   9.8540
    10.1976  10.1976  10.1976  10.1976  10.1976  10.1976  10.1976  10.1976
    10.2151  10.2151  10.2151  10.2151  10.2941  10.2941  10.2941  10.2941
    10.4611  10.4611  10.4611  10.4611  10.6710  10.6710  10.6710  10.6710
    10.8033  10.8033  10.8033  10.8033  10.8033  10.8033  10.8033  10.8033
    11.0953  11.0953  11.0953  11.0953  11.1456  11.1456  11.1456  11.1456
    11.1456  11.1456  11.1456  11.1456  11.1635  11.1635  11.1635  11.1635
    12.0517  12.0517  12.0517  12.0517  14.0707  14.0707  14.0707  14.0707
    14.4016  14.4016  14.4016  14.4016  14.4016  14.4016  14.4016  14.4016
    15.5094  15.5094  15.5094  15.5094  15.5094  15.5094  15.5094  15.5094
    17.0900  17.0900  17.0900  17.0900  17.5896  17.5896  17.5896  17.5896
    17.5896  17.5896  17.5896  17.5896  18.9337  18.9337  18.9337  18.9337
    19.7642  19.7642  19.7642  19.7642  19.7865  19.7865  19.7865  19.7865
    19.7865  19.7866

     the Fermi energy is    11.1597 ev

!    total energy              =  -16384.05447523 Ry

     total all-electron energy =   -322944.908182 Ry
     estimated scf accuracy    <          7.2E-09 Ry
     smearing contrib. (-TS)   =       0.11991399 Ry
     internal energy E=F+TS    =  -16384.17438922 Ry

     The total energy is F=E-TS. E is the sum of the following terms:
     one-electron contribution =  -11208.63201412 Ry
     hartree contribution      =    5854.90578014 Ry
     xc contribution           =    -985.49795247 Ry
     ewald contribution        =   -1877.61351071 Ry
     one-center paw contrib.   =   -8167.33669205 Ry

     convergence has been achieved in  13 iterations

     Forces acting on atoms (cartesian axes, Ry/au):

     atom    1 type  1   force =     0.00000000    0.00000000   -0.00045106
     atom    2 type  1   force =     0.00000028    0.00000028   -0.00045588
     atom    3 type  1   force =    -0.00000142    0.00000000    0.00022819
     atom    4 type  1   force =     0.00000000   -0.00000142    0.00022819
     atom    5 type  1   force =     0.00000000    0.00000000   -0.00023153
     atom    6 type  1   force =     0.00000051    0.00000051   -0.00022553
     atom    7 type  1   force =     0.00000429    0.00000000    0.00045302
     atom    8 type  1   force =     0.00000000    0.00000429    0.00045302
     atom    9 type  1   force =     0.00000000    0.00000000   -0.00045415
     atom   10 type  1   force =     0.00000028   -0.00000028   -0.00045588
     atom   11 type  1   force =    -0.00000030    0.00000000    0.00022812
     atom   12 type  1   force =     0.00000000    0.00000142    0.00022819
     atom   13 type  1   force =     0.00000000    0.00000000   -0.00022380
     atom   14 type  1   force =     0.00000051   -0.00000051   -0.00022553
     atom   15 type  1   force =     0.00000472    0.00000000    0.00045127
     atom   16 type  1   force =     0.00000000   -0.00000429    0.00045302
     atom   17 type  1   force =     0.00000000    0.00000000   -0.00045415
     atom   18 type  1   force =    -0.00000028    0.00000028   -0.00045588
     atom   19 type  1   force =     0.00000142    0.00000000    0.00022819
     atom   20 type  1   force =     0.00000000   -0.00000030    0.00022812
     atom   21 type  1   force =     0.00000000    0.00000000   -0.00022380
     atom   22 type  1   force =    -0.00000051    0.00000051   -0.00022553
     atom   23 type  1   force =    -0.00000429    0.00000000    0.00045302
     atom   24 type  1   force =     0.00000000    0.00000472    0.00045127
     atom   25 type  1   force =     0.00000000    0.00000000   -0.00046010
     atom   26 type  1   force =    -0.00000028   -0.00000028   -0.00045588
     atom   27 type  1   force =     0.00000030    0.00000000    0.00022812
     atom   28 type  1   force =     0.00000000    0.00000030    0.00022812
     atom   29 type  1   force =     0.00000000    0.00000000   -0.00021817
     atom   30 type  1   force =    -0.00000051   -0.00000051   -0.00022553
     atom   31 type  1   force =    -0.00000472    0.00000000    0.00045127
     atom   32 type  1   force =     0.00000000   -0.00000472    0.00045127

     Total force =     0.002029     Total SCF correction =     0.000839
     SCF correction compared to forces is large: reduce conv_thr to get better values


     Computing stress (Cartesian axis) and pressure

          total   stress  (Ry/bohr**3)                   (kbar)     P=      -30.50
  -0.00027519   0.00000000   0.00000000          -40.48        0.00        0.00
   0.00000000  -0.00027519   0.00000000            0.00      -40.48        0.00
   0.00000000   0.00000000  -0.00007166            0.00        0.00      -10.54

     Energy error            =      7.9E-05
     Gradient error          =      4.6E-04

     bfgs converged in   8 scf cycles and   7 bfgs steps
     (criteria: energy <  1.0E-04 Ry, force <  1.0E-03 Ry/Bohr)

     End of BFGS Geometry Optimization

     Final energy   =  -16384.0544752307 Ry

     File /scratch/QfWGyAWcnYTdoLzF.bfgs deleted, as requested
Begin final coordinates

ATOMIC_POSITIONS (crystal)
Pd            0.0000000000        0.0000000000       -0.0000532418
Pd            0.2499999479        0.2499999479       -0.0000527910
Pd            0.2500005734        0.0000000000        0.1647413252
Pd            0.0000000000        0.2500005734        0.1647413252
Pd            0.0000000000        0.0000000000        0.6685935328
Pd            0.2500000690        0.2500000690        0.6685914188
Pd            0.2499989692        0.0000000000        0.8333865901
Pd            0.0000000000        0.2499989692        0.8333865901
Pd            0.0000000000        0.5000000000       -0.0000532161
Pd            0.2499999479        0.7500000521       -0.0000527910
Pd            0.2499998237        0.5000000000        0.1647416805
Pd            0.0000000000        0.7499994266        0.1647413252
Pd            0.0000000000        0.5000000000        0.6685909283
Pd            0.2500000690        0.7499999310        0.6685914188
Pd            0.2499988935        0.5000000000        0.8333867758
Pd            0.0000000000        0.7500010308        0.8333865901
Pd            0.5000000000        0.0000000000       -0.0000532161
Pd            0.7500000521        0.2499999479       -0.0000527910
Pd            0.7499994266        0.0000000000        0.1647413252
Pd            0.5000000000        0.2499998237        0.1647416805
Pd            0.5000000000        0.0000000000        0.6685909283
Pd            0.7499999310        0.2500000690        0.6685914188
Pd            0.7500010308        0.0000000000        0.8333865901
Pd            0.5000000000        0.2499988935        0.8333867758
Pd            0.5000000000        0.5000000000       -0.0000518334
Pd            0.7500000521        0.7500000521       -0.0000527910
Pd            0.7500001763        0.5000000000        0.1647416805
Pd            0.5000000000        0.7500001763        0.1647416805
Pd            0.5000000000        0.5000000000        0.6685894533
Pd            0.7499999310        0.7499999310        0.6685914188
Pd            0.7500011065        0.5000000000        0.8333867758
Pd            0.5000000000        0.7500011065        0.8333867758
End final coordinates



     Writing output data file /scratch/QfWGyAWcnYTdoLzF.save/
 
     init_run     :     27.64s CPU     28.27s WALL (       1 calls)
     electrons    :   9729.84s CPU   9827.18s WALL (       8 calls)
     update_pot   :      2.58s CPU      2.64s WALL (       7 calls)
     forces       :    120.72s CPU    121.63s WALL (       8 calls)
     stress       :   1153.30s CPU   1159.91s WALL (       8 calls)

     Called by init_run:
     wfcinit      :     26.65s CPU     27.19s WALL (       1 calls)
     potinit      :      0.18s CPU      0.19s WALL (       1 calls)
     hinit0       :      0.52s CPU      0.53s WALL (       1 calls)

     Called by electrons:
     c_bands      :   8652.63s CPU   8732.43s WALL (     109 calls)
     sum_band     :   1062.00s CPU   1076.68s WALL (     109 calls)
     v_of_rho     :      2.32s CPU      2.46s WALL (     109 calls)
     newd         :      3.84s CPU      5.52s WALL (     109 calls)
     PAW_pot      :      9.47s CPU     10.15s WALL (     116 calls)
     mix_rho      :      0.62s CPU      0.68s WALL (     109 calls)

     Called by c_bands:
     init_us_2    :     54.10s CPU     54.64s WALL (   18150 calls)
     cegterg      :   8445.80s CPU   8523.58s WALL (    8175 calls)

     Called by *egterg:
     cdiaghg      :    778.94s CPU    782.63s WALL (   27271 calls)
     h_psi        :   4209.90s CPU   4264.08s WALL (   28471 calls)
     s_psi        :    446.57s CPU    449.23s WALL (   28471 calls)
     g_psi        :     14.50s CPU     14.73s WALL (   20221 calls)

     Called by h_psi:
     h_psi:calbec :    694.72s CPU    698.80s WALL (   28471 calls)
     vloc_psi     :   3039.22s CPU   3084.41s WALL (   28471 calls)
     add_vuspsi   :    440.61s CPU    445.16s WALL (   28471 calls)

     General routines
     calbec       :   1205.59s CPU   1212.67s WALL (   40171 calls)
     fft          :      3.77s CPU      3.85s WALL (    1616 calls)
     ffts         :      0.14s CPU      0.15s WALL (     218 calls)
     fftw         :   3586.31s CPU   3639.09s WALL (15772210 calls)
     interpolate  :      0.30s CPU      0.32s WALL (     109 calls)
 
     Parallel routines
     fft_scatt_xy :    273.28s CPU    277.53s WALL (15774044 calls)
     fft_scatt_yz :   2819.55s CPU   2861.14s WALL (15774044 calls)
 
     PWSCF        :      3h 4m CPU      3h 6m WALL

 
   This run was terminated on:   9:37:28   7Jan2022            

=------------------------------------------------------------------------------=
   JOB DONE.
=------------------------------------------------------------------------------=
