
     Program PWSCF v.6.7MaX starts on  8Jan2022 at 16:52:51 

     This program is part of the open-source Quantum ESPRESSO suite
     for quantum simulation of materials; please cite
         "P. Giannozzi et al., J. Phys.:Condens. Matter 21 395502 (2009);
         "P. Giannozzi et al., J. Phys.:Condens. Matter 29 465901 (2017);
          URL http://www.quantum-espresso.org", 
     in publications or presentations arising from this work. More details at
     http://www.quantum-espresso.org/quote

     Parallel version (MPI & OpenMP), running on      72 processor cores
     Number of MPI processes:                72
     Threads/MPI process:                     1

     MPI processes distributed on     1 nodes
     R & G space division:  proc/nbgrp/npool/nimage =      72
     Reading input from relax_24.in
Warning: card &CELL ignored
Warning: card CELL_DYNAMICS = 'BFGS', ignored
Warning: card CELL_FACTOR = 2.0, ignored
Warning: card PRESS = 0.0, ignored
Warning: card / ignored

     Current dimensions of program PWSCF are:
     Max number of different atomic species (ntypx) = 10
     Max number of k-points (npk) =  40000
     Max angular momentum in pseudopotentials (lmaxx) =  3
     file Pd.pbe-spn-kjpaw_psl.1.0.0.UPF: wavefunction(s)  4S 5S 4D renormalized

     Subspace diagonalization in iterative solution of the eigenvalue problem:
     one sub-group per band group will be used
     ELPA distributed-memory algorithm (size of sub-group:  8*  8 procs)

     Found symmetry operation: I + (  0.2500  0.2500  0.0000)
     This is a supercell, fractional translations are disabled
     Message from routine setup:
     using ibrav=0 with symmetry is DISCOURAGED, use correct ibrav instead
 
     Parallelization info
     --------------------
     sticks:   dense  smooth     PW     G-vecs:    dense   smooth      PW
     Min         104      68     18                11738     6294     878
     Max         105      69     19                11749     6309     891
     Sum        7521    4957   1353               845505   453845   63615
 


     bravais-lattice index     =            0
     lattice parameter (alat)  =      14.8394  a.u.
     unit-cell volume          =    5616.4706 (a.u.)^3
     number of atoms/cell      =           32
     number of atomic types    =            1
     number of electrons       =       576.00
     number of Kohn-Sham states=          346
     kinetic-energy cutoff     =      71.0000  Ry
     charge density cutoff     =     430.0000  Ry
     scf convergence threshold =      1.0E-06
     mixing beta               =       0.1000
     number of iterations used =           10  TF        mixing
     energy convergence thresh.=      1.0E-04
     force convergence thresh. =      1.0E-03
     Exchange-correlation= SLA  PW   PBX  PBC
                           (   1   4   3   4   0   0   0)
     nstep                     =           40


     celldm(1)=  14.839420  celldm(2)=   0.000000  celldm(3)=   0.000000
     celldm(4)=   0.000000  celldm(5)=   0.000000  celldm(6)=   0.000000

     crystal axes: (cart. coord. in units of alat)
               a(1) = (   1.000000   0.000000   0.000000 )  
               a(2) = (   0.000000   1.000000   0.000000 )  
               a(3) = (   0.000000   0.000000   1.718750 )  

     reciprocal axes: (cart. coord. in units 2 pi/alat)
               b(1) = (  1.000000  0.000000  0.000000 )  
               b(2) = (  0.000000  1.000000  0.000000 )  
               b(3) = (  0.000000  0.000000  0.581818 )  


     PseudoPot. # 1 for Pd read from file:
     /rds/homes/b/bxp912/pp/Pd.pbe-spn-kjpaw_psl.1.0.0.UPF
     MD5 check sum: 790f2ebce206edfd9790dcb9844eca51
     Pseudo is Projector augmented-wave + core cor, Zval = 18.0
     Generated using &quot;atomic&quot; code by A. Dal Corso  v.6.3
     Shape of augmentation charge: PSQ
     Using radial grid of 1235 points,  6 beta functions with: 
                l(1) =   0
                l(2) =   0
                l(3) =   1
                l(4) =   1
                l(5) =   2
                l(6) =   2
     Q(r) pseudized with 0 coefficients 


     atomic species   valence    mass     pseudopotential
        Pd            18.00   106.42000     Pd( 1.00)

      8 Sym. Ops. (no inversion) found



   Cartesian axes

     site n.     atom                  positions (alat units)
         1           Pd  tau(   1) = (   0.0000000   0.0000000   0.0000000  )
         2           Pd  tau(   2) = (   0.2500000   0.2500000   0.0000000  )
         3           Pd  tau(   3) = (   0.2500000   0.0000000   0.2500000  )
         4           Pd  tau(   4) = (   0.0000000   0.2500000   0.2500000  )
         5           Pd  tau(   5) = (   0.0000000   0.0000000   1.2187500  )
         6           Pd  tau(   6) = (   0.2500000   0.2500000   1.2187500  )
         7           Pd  tau(   7) = (   0.2500000   0.0000000   1.4687500  )
         8           Pd  tau(   8) = (   0.0000000   0.2500000   1.4687500  )
         9           Pd  tau(   9) = (   0.0000000   0.5000000   0.0000000  )
        10           Pd  tau(  10) = (   0.2500000   0.7500000   0.0000000  )
        11           Pd  tau(  11) = (   0.2500000   0.5000000   0.2500000  )
        12           Pd  tau(  12) = (   0.0000000   0.7500000   0.2500000  )
        13           Pd  tau(  13) = (   0.0000000   0.5000000   1.2187500  )
        14           Pd  tau(  14) = (   0.2500000   0.7500000   1.2187500  )
        15           Pd  tau(  15) = (   0.2500000   0.5000000   1.4687500  )
        16           Pd  tau(  16) = (   0.0000000   0.7500000   1.4687500  )
        17           Pd  tau(  17) = (   0.5000000   0.0000000   0.0000000  )
        18           Pd  tau(  18) = (   0.7500000   0.2500000   0.0000000  )
        19           Pd  tau(  19) = (   0.7500000   0.0000000   0.2500000  )
        20           Pd  tau(  20) = (   0.5000000   0.2500000   0.2500000  )
        21           Pd  tau(  21) = (   0.5000000   0.0000000   1.2187500  )
        22           Pd  tau(  22) = (   0.7500000   0.2500000   1.2187500  )
        23           Pd  tau(  23) = (   0.7500000   0.0000000   1.4687500  )
        24           Pd  tau(  24) = (   0.5000000   0.2500000   1.4687500  )
        25           Pd  tau(  25) = (   0.5000000   0.5000000   0.0000000  )
        26           Pd  tau(  26) = (   0.7500000   0.7500000   0.0000000  )
        27           Pd  tau(  27) = (   0.7500000   0.5000000   0.2500000  )
        28           Pd  tau(  28) = (   0.5000000   0.7500000   0.2500000  )
        29           Pd  tau(  29) = (   0.5000000   0.5000000   1.2187500  )
        30           Pd  tau(  30) = (   0.7500000   0.7500000   1.2187500  )
        31           Pd  tau(  31) = (   0.7500000   0.5000000   1.4687500  )
        32           Pd  tau(  32) = (   0.5000000   0.7500000   1.4687500  )

     number of k points=    75  Marzari-Vanderbilt smearing, width (Ry)=  0.0400
                       cart. coord. in units 2pi/alat
        k(    1) = (   0.0555556   0.0555556   0.0323232), wk =   0.0219479
        k(    2) = (   0.0555556   0.0555556   0.0969697), wk =   0.0219479
        k(    3) = (   0.0555556   0.0555556   0.1616162), wk =   0.0219479
        k(    4) = (   0.0555556   0.0555556   0.2262626), wk =   0.0219479
        k(    5) = (   0.0555556   0.0555556  -0.2909091), wk =   0.0109739
        k(    6) = (   0.0555556   0.1666667   0.0323232), wk =   0.0438957
        k(    7) = (   0.0555556   0.1666667   0.0969697), wk =   0.0438957
        k(    8) = (   0.0555556   0.1666667   0.1616162), wk =   0.0438957
        k(    9) = (   0.0555556   0.1666667   0.2262626), wk =   0.0438957
        k(   10) = (   0.0555556   0.1666667  -0.2909091), wk =   0.0219479
        k(   11) = (   0.0555556   0.2777778   0.0323232), wk =   0.0438957
        k(   12) = (   0.0555556   0.2777778   0.0969697), wk =   0.0438957
        k(   13) = (   0.0555556   0.2777778   0.1616162), wk =   0.0438957
        k(   14) = (   0.0555556   0.2777778   0.2262626), wk =   0.0438957
        k(   15) = (   0.0555556   0.2777778  -0.2909091), wk =   0.0219479
        k(   16) = (   0.0555556   0.3888889   0.0323232), wk =   0.0438957
        k(   17) = (   0.0555556   0.3888889   0.0969697), wk =   0.0438957
        k(   18) = (   0.0555556   0.3888889   0.1616162), wk =   0.0438957
        k(   19) = (   0.0555556   0.3888889   0.2262626), wk =   0.0438957
        k(   20) = (   0.0555556   0.3888889  -0.2909091), wk =   0.0219479
        k(   21) = (   0.0555556  -0.5000000   0.0323232), wk =   0.0219479
        k(   22) = (   0.0555556  -0.5000000   0.0969697), wk =   0.0219479
        k(   23) = (   0.0555556  -0.5000000   0.1616162), wk =   0.0219479
        k(   24) = (   0.0555556  -0.5000000   0.2262626), wk =   0.0219479
        k(   25) = (   0.0555556  -0.5000000  -0.2909091), wk =   0.0109739
        k(   26) = (   0.1666667   0.1666667   0.0323232), wk =   0.0219479
        k(   27) = (   0.1666667   0.1666667   0.0969697), wk =   0.0219479
        k(   28) = (   0.1666667   0.1666667   0.1616162), wk =   0.0219479
        k(   29) = (   0.1666667   0.1666667   0.2262626), wk =   0.0219479
        k(   30) = (   0.1666667   0.1666667  -0.2909091), wk =   0.0109739
        k(   31) = (   0.1666667   0.2777778   0.0323232), wk =   0.0438957
        k(   32) = (   0.1666667   0.2777778   0.0969697), wk =   0.0438957
        k(   33) = (   0.1666667   0.2777778   0.1616162), wk =   0.0438957
        k(   34) = (   0.1666667   0.2777778   0.2262626), wk =   0.0438957
        k(   35) = (   0.1666667   0.2777778  -0.2909091), wk =   0.0219479
        k(   36) = (   0.1666667   0.3888889   0.0323232), wk =   0.0438957
        k(   37) = (   0.1666667   0.3888889   0.0969697), wk =   0.0438957
        k(   38) = (   0.1666667   0.3888889   0.1616162), wk =   0.0438957
        k(   39) = (   0.1666667   0.3888889   0.2262626), wk =   0.0438957
        k(   40) = (   0.1666667   0.3888889  -0.2909091), wk =   0.0219479
        k(   41) = (   0.1666667  -0.5000000   0.0323232), wk =   0.0219479
        k(   42) = (   0.1666667  -0.5000000   0.0969697), wk =   0.0219479
        k(   43) = (   0.1666667  -0.5000000   0.1616162), wk =   0.0219479
        k(   44) = (   0.1666667  -0.5000000   0.2262626), wk =   0.0219479
        k(   45) = (   0.1666667  -0.5000000  -0.2909091), wk =   0.0109739
        k(   46) = (   0.2777778   0.2777778   0.0323232), wk =   0.0219479
        k(   47) = (   0.2777778   0.2777778   0.0969697), wk =   0.0219479
        k(   48) = (   0.2777778   0.2777778   0.1616162), wk =   0.0219479
        k(   49) = (   0.2777778   0.2777778   0.2262626), wk =   0.0219479
        k(   50) = (   0.2777778   0.2777778  -0.2909091), wk =   0.0109739
        k(   51) = (   0.2777778   0.3888889   0.0323232), wk =   0.0438957
        k(   52) = (   0.2777778   0.3888889   0.0969697), wk =   0.0438957
        k(   53) = (   0.2777778   0.3888889   0.1616162), wk =   0.0438957
        k(   54) = (   0.2777778   0.3888889   0.2262626), wk =   0.0438957
        k(   55) = (   0.2777778   0.3888889  -0.2909091), wk =   0.0219479
        k(   56) = (   0.2777778  -0.5000000   0.0323232), wk =   0.0219479
        k(   57) = (   0.2777778  -0.5000000   0.0969697), wk =   0.0219479
        k(   58) = (   0.2777778  -0.5000000   0.1616162), wk =   0.0219479
        k(   59) = (   0.2777778  -0.5000000   0.2262626), wk =   0.0219479
        k(   60) = (   0.2777778  -0.5000000  -0.2909091), wk =   0.0109739
        k(   61) = (   0.3888889   0.3888889   0.0323232), wk =   0.0219479
        k(   62) = (   0.3888889   0.3888889   0.0969697), wk =   0.0219479
        k(   63) = (   0.3888889   0.3888889   0.1616162), wk =   0.0219479
        k(   64) = (   0.3888889   0.3888889   0.2262626), wk =   0.0219479
        k(   65) = (   0.3888889   0.3888889  -0.2909091), wk =   0.0109739
        k(   66) = (   0.3888889  -0.5000000   0.0323232), wk =   0.0219479
        k(   67) = (   0.3888889  -0.5000000   0.0969697), wk =   0.0219479
        k(   68) = (   0.3888889  -0.5000000   0.1616162), wk =   0.0219479
        k(   69) = (   0.3888889  -0.5000000   0.2262626), wk =   0.0219479
        k(   70) = (   0.3888889  -0.5000000  -0.2909091), wk =   0.0109739
        k(   71) = (  -0.5000000  -0.5000000   0.0323232), wk =   0.0054870
        k(   72) = (  -0.5000000  -0.5000000   0.0969697), wk =   0.0054870
        k(   73) = (  -0.5000000  -0.5000000   0.1616162), wk =   0.0054870
        k(   74) = (  -0.5000000  -0.5000000   0.2262626), wk =   0.0054870
        k(   75) = (  -0.5000000  -0.5000000  -0.2909091), wk =   0.0027435

     Dense  grid:   845505 G-vectors     FFT dimensions: ( 100, 100, 180)

     Smooth grid:   453845 G-vectors     FFT dimensions: (  80,  80, 144)

     Estimated max dynamical RAM per process >     382.79 MB

     Estimated total dynamical RAM >      26.92 GB

     Check: negative core charge=   -0.000001

     Initial potential from superposition of free atoms

     starting charge  575.98776, renormalised to  576.00000
     Starting wfcs are  320 randomized atomic wfcs +   26 random wfcs
     Checking if some PAW data can be deallocated... 

     total cpu time spent up to now is       32.2 secs

     Self-consistent Calculation

     iteration #  1     ecut=    71.00 Ry     beta= 0.10
     Davidson diagonalization with overlap
     ethr =  1.00E-02,  avg # of iterations =  4.2

     Threshold (ethr) on eigenvalues was too large:
     Diagonalizing with lowered threshold

     Davidson diagonalization with overlap
     ethr =  7.49E-04,  avg # of iterations =  1.2

     total cpu time spent up to now is      221.9 secs

     total energy              =  -16384.82283988 Ry
     estimated scf accuracy    <       4.30016614 Ry

     iteration #  2     ecut=    71.00 Ry     beta= 0.10
     Davidson diagonalization with overlap
     ethr =  7.47E-04,  avg # of iterations =  1.1

     total cpu time spent up to now is      300.5 secs

     total energy              =  -16384.35054577 Ry
     estimated scf accuracy    <       3.87690884 Ry

     iteration #  3     ecut=    71.00 Ry     beta= 0.10
     Davidson diagonalization with overlap
     ethr =  6.73E-04,  avg # of iterations =  2.3

     total cpu time spent up to now is      384.6 secs

     total energy              =  -16384.17836321 Ry
     estimated scf accuracy    <       2.60144742 Ry

     iteration #  4     ecut=    71.00 Ry     beta= 0.10
     Davidson diagonalization with overlap
     ethr =  4.52E-04,  avg # of iterations =  5.1

     total cpu time spent up to now is      481.4 secs

     total energy              =  -16384.32821393 Ry
     estimated scf accuracy    <       0.81687049 Ry

     iteration #  5     ecut=    71.00 Ry     beta= 0.10
     Davidson diagonalization with overlap
     ethr =  1.42E-04,  avg # of iterations =  3.3

     total cpu time spent up to now is      572.1 secs

     total energy              =  -16384.07139019 Ry
     estimated scf accuracy    <       1.02995538 Ry

     iteration #  6     ecut=    71.00 Ry     beta= 0.10
     Davidson diagonalization with overlap
     c_bands:  1 eigenvalues not converged
     ethr =  1.42E-04,  avg # of iterations =  6.5

     total cpu time spent up to now is      675.2 secs

     total energy              =  -16384.10831774 Ry
     estimated scf accuracy    <       0.30989778 Ry

     iteration #  7     ecut=    71.00 Ry     beta= 0.10
     Davidson diagonalization with overlap
     c_bands:  1 eigenvalues not converged
     ethr =  5.38E-05,  avg # of iterations =  4.6

     total cpu time spent up to now is      773.9 secs

     total energy              =  -16384.08312833 Ry
     estimated scf accuracy    <       0.23577587 Ry

     iteration #  8     ecut=    71.00 Ry     beta= 0.10
     Davidson diagonalization with overlap
     ethr =  4.09E-05,  avg # of iterations =  5.6

     total cpu time spent up to now is      873.6 secs

     total energy              =  -16384.06725096 Ry
     estimated scf accuracy    <       0.15733572 Ry

     iteration #  9     ecut=    71.00 Ry     beta= 0.10
     Davidson diagonalization with overlap
     ethr =  2.73E-05,  avg # of iterations =  4.5

     total cpu time spent up to now is      969.8 secs

     total energy              =  -16384.06120200 Ry
     estimated scf accuracy    <       0.12384759 Ry

     iteration # 10     ecut=    71.00 Ry     beta= 0.10
     Davidson diagonalization with overlap
     ethr =  2.15E-05,  avg # of iterations =  4.0

     total cpu time spent up to now is     1065.4 secs

     total energy              =  -16384.04138436 Ry
     estimated scf accuracy    <       0.10966949 Ry

     iteration # 11     ecut=    71.00 Ry     beta= 0.10
     Davidson diagonalization with overlap
     ethr =  1.90E-05,  avg # of iterations =  4.9

     negative rho (up, down):  1.543E-04 0.000E+00

     total cpu time spent up to now is     1164.1 secs

     total energy              =  -16384.03389259 Ry
     estimated scf accuracy    <       0.08805093 Ry

     iteration # 12     ecut=    71.00 Ry     beta= 0.10
     Davidson diagonalization with overlap
     ethr =  1.53E-05,  avg # of iterations =  5.3

     negative rho (up, down):  2.285E-03 0.000E+00

     total cpu time spent up to now is     1263.0 secs

     total energy              =  -16384.03018905 Ry
     estimated scf accuracy    <       0.07720858 Ry

     iteration # 13     ecut=    71.00 Ry     beta= 0.10
     Davidson diagonalization with overlap
     ethr =  1.34E-05,  avg # of iterations =  2.7

     negative rho (up, down):  2.080E-02 0.000E+00

     total cpu time spent up to now is     1356.2 secs

     total energy              =  -16384.02927824 Ry
     estimated scf accuracy    <       0.04562352 Ry

     iteration # 14     ecut=    71.00 Ry     beta= 0.10
     Davidson diagonalization with overlap
     ethr =  7.92E-06,  avg # of iterations =  4.6

     negative rho (up, down):  4.913E-02 0.000E+00

     total cpu time spent up to now is     1452.5 secs

     total energy              =  -16384.03178272 Ry
     estimated scf accuracy    <       0.03276742 Ry

     iteration # 15     ecut=    71.00 Ry     beta= 0.10
     Davidson diagonalization with overlap
     ethr =  5.69E-06,  avg # of iterations =  6.7

     negative rho (up, down):  2.553E-02 0.000E+00

     total cpu time spent up to now is     1558.2 secs

     total energy              =  -16384.03637288 Ry
     estimated scf accuracy    <       0.01324924 Ry

     iteration # 16     ecut=    71.00 Ry     beta= 0.10
     Davidson diagonalization with overlap
     ethr =  2.30E-06,  avg # of iterations =  3.0

     negative rho (up, down):  3.408E-02 0.000E+00

     total cpu time spent up to now is     1653.4 secs

     total energy              =  -16384.04019155 Ry
     estimated scf accuracy    <       0.00936956 Ry

     iteration # 17     ecut=    71.00 Ry     beta= 0.10
     Davidson diagonalization with overlap
     ethr =  1.63E-06,  avg # of iterations =  4.1

     negative rho (up, down):  2.977E-03 0.000E+00

     total cpu time spent up to now is     1752.8 secs

     total energy              =  -16384.04487199 Ry
     estimated scf accuracy    <       0.00404508 Ry

     iteration # 18     ecut=    71.00 Ry     beta= 0.10
     Davidson diagonalization with overlap
     c_bands:  1 eigenvalues not converged
     ethr =  7.02E-07,  avg # of iterations =  6.7

     negative rho (up, down):  3.610E-03 0.000E+00

     total cpu time spent up to now is     1865.3 secs

     total energy              =  -16384.04574652 Ry
     estimated scf accuracy    <       0.00159128 Ry

     iteration # 19     ecut=    71.00 Ry     beta= 0.10
     Davidson diagonalization with overlap
     ethr =  2.76E-07,  avg # of iterations =  1.7

     negative rho (up, down):  7.558E-04 0.000E+00

     total cpu time spent up to now is     1951.7 secs

     total energy              =  -16384.04666339 Ry
     estimated scf accuracy    <       0.00102685 Ry

     iteration # 20     ecut=    71.00 Ry     beta= 0.10
     Davidson diagonalization with overlap
     ethr =  1.78E-07,  avg # of iterations =  2.0

     total cpu time spent up to now is     2042.9 secs

     total energy              =  -16384.04942246 Ry
     estimated scf accuracy    <       0.00073003 Ry

     iteration # 21     ecut=    71.00 Ry     beta= 0.10
     Davidson diagonalization with overlap
     c_bands:  1 eigenvalues not converged
     ethr =  1.27E-07,  avg # of iterations =  5.9

     total cpu time spent up to now is     2155.7 secs

     total energy              =  -16384.05022372 Ry
     estimated scf accuracy    <       0.00029663 Ry

     iteration # 22     ecut=    71.00 Ry     beta= 0.10
     Davidson diagonalization with overlap
     ethr =  5.15E-08,  avg # of iterations =  3.8

     total cpu time spent up to now is     2253.2 secs

     total energy              =  -16384.05051056 Ry
     estimated scf accuracy    <       0.00005457 Ry

     iteration # 23     ecut=    71.00 Ry     beta= 0.10
     Davidson diagonalization with overlap
     ethr =  9.47E-09,  avg # of iterations =  2.4

     total cpu time spent up to now is     2346.9 secs

     total energy              =  -16384.05064965 Ry
     estimated scf accuracy    <       0.00003603 Ry

     iteration # 24     ecut=    71.00 Ry     beta= 0.10
     Davidson diagonalization with overlap
     ethr =  6.26E-09,  avg # of iterations =  2.0

     total cpu time spent up to now is     2439.6 secs

     total energy              =  -16384.05079583 Ry
     estimated scf accuracy    <       0.00001791 Ry

     iteration # 25     ecut=    71.00 Ry     beta= 0.10
     Davidson diagonalization with overlap
     ethr =  3.11E-09,  avg # of iterations =  2.1

     total cpu time spent up to now is     2539.0 secs

     total energy              =  -16384.05080965 Ry
     estimated scf accuracy    <       0.00000609 Ry

     iteration # 26     ecut=    71.00 Ry     beta= 0.10
     Davidson diagonalization with overlap
     ethr =  1.06E-09,  avg # of iterations =  2.0

     total cpu time spent up to now is     2630.4 secs

     total energy              =  -16384.05081637 Ry
     estimated scf accuracy    <       0.00000229 Ry

     iteration # 27     ecut=    71.00 Ry     beta= 0.10
     Davidson diagonalization with overlap
     ethr =  3.98E-10,  avg # of iterations =  2.0

     total cpu time spent up to now is     2723.5 secs

     total energy              =  -16384.05081981 Ry
     estimated scf accuracy    <       0.00000130 Ry

     iteration # 28     ecut=    71.00 Ry     beta= 0.10
     Davidson diagonalization with overlap
     ethr =  2.26E-10,  avg # of iterations =  2.0

     total cpu time spent up to now is     2818.7 secs

     End of self-consistent calculation

          k = 0.0556 0.0556 0.0323 ( 56716 PWs)   bands (ev):

   -75.0859 -75.0637 -75.0637 -75.0595 -75.0595 -75.0549 -75.0539 -75.0533
   -75.0533 -75.0521 -75.0463 -75.0463 -75.0449 -75.0448 -75.0376 -75.0376
   -74.4939 -74.4939 -74.4795 -74.4795 -74.4795 -74.4795 -74.4783 -74.4783
   -74.4780 -74.4780 -74.4767 -74.4767 -74.4767 -74.4767 -74.4622 -74.4622
   -40.9205 -40.9205 -40.9201 -40.9192 -40.9067 -40.9067 -40.8998 -40.8658
   -40.8657 -40.8628 -40.8627 -40.8256 -40.8256 -40.8145 -40.8145 -40.8053
   -40.8053 -40.8021 -40.8021 -40.7932 -40.7932 -40.7645 -40.7644 -40.7577
   -40.7576 -40.7576 -40.7532 -40.7531 -40.7479 -40.7433 -40.7433 -40.7295
   -40.7263 -40.7263 -40.7119 -40.7119 -40.7090 -40.7080 -40.6979 -40.6979
   -40.6927 -40.6927 -40.6590 -40.6572 -40.6571 -40.6529 -40.6408 -40.6393
   -40.3682 -40.3682 -40.3674 -40.3666 -40.3565 -40.3565 -40.3545 -40.3545
   -40.2859 -40.2859 -40.2858 -40.2858 -40.2710 -40.2710 -40.2708 -40.2707
   -40.2686 -40.2686 -40.2683 -40.2683 -40.2534 -40.2534 -40.2533 -40.2533
   -40.1828 -40.1825 -40.1813 -40.1810 -40.1693 -40.1693 -40.1679 -40.1679
   -40.0970 -40.0938 -40.0825 -40.0825 -40.0821 -40.0821 -40.0811 -40.0808
   -40.0807 -40.0806 -40.0803 -40.0803 -40.0800 -40.0800 -40.0701 -40.0701
     2.7288   4.0173   4.2583   4.2583   4.3247   4.3308   4.3371   4.3371
     4.3961   4.4084   4.5328   4.5328   4.6217   4.6217   4.8051   4.8051
     4.8710   5.0727   5.1942   5.1942   5.2234   5.2234   5.2533   5.2533
     5.2739   5.2739   5.3427   5.3459   5.3459   5.3481   5.3605   5.3605
     5.4866   5.4866   5.5540   5.5540   5.5903   5.5903   5.6665   5.6665
     5.6787   5.6787   5.7412   5.7412   5.8033   5.8628   5.8628   5.8810
     5.8810   6.0246   6.0246   6.0905   6.1384   6.1384   6.1881   6.1881
     6.2003   6.2089   6.2089   6.2197   6.3952   6.3952   6.3987   6.3987
     6.4118   6.4220   6.5592   6.5592   6.5710   6.5731   6.5804   6.5804
     6.6130   6.6223   6.6832   6.6832   6.7181   6.7181   7.0683   7.0683
     7.1221   7.1302   7.1325   7.1325   7.1521   7.1521   7.1765   7.1765
     7.2975   7.2975   7.3325   7.3325   7.3455   7.3455   7.3522   7.3688
     7.3966   7.3966   7.4243   7.4243   7.4556   7.4682   7.5000   7.5235
     7.5235   7.6309   7.6309   7.6482   7.6482   7.7261   7.7537   7.7537
     7.7846   7.7846   7.7946   7.7946   7.9220   7.9220   7.9764   7.9764
     7.9772   7.9772   8.0112   8.1606   8.1606   8.1955   8.2286   8.2287
     8.3482   8.3482   8.3614   8.3614   8.3615   8.3811   8.3811   8.3906
     8.4774   8.4999   8.5030   8.5038   8.5038   8.5818   8.6116   8.6309
     8.6309   8.6574   8.6574   8.6678   8.6678   8.8263   8.8263   8.8999
     8.9029   8.9030   8.9040   8.9575   9.0363   9.0529   9.0529   9.0597
     9.0597   9.1122   9.1562   9.2630   9.2630   9.5883   9.5883   9.6674
     9.6674  10.0247  10.0247  10.3725  10.5178  10.7244  10.9399  10.9399
    11.2357  11.3096  11.3096  11.3550  11.3550  11.6866  11.8537  11.8628
    11.8628  13.4464  13.4464  13.6468  13.6468  14.2185  14.2185  14.2674
    14.3211  14.3211  14.4299  14.8364  15.0821  15.0821  15.6460  15.6460
    15.7497  15.7497  17.1973  17.4495  17.4495  17.4677  17.6382  17.7961
    17.7961  17.8146  18.0004  18.0004  18.1444  18.1447  18.2619  18.2619
    18.4151  18.4151

          k = 0.0556 0.0556 0.0970 ( 56719 PWs)   bands (ev):

   -75.0859 -75.0637 -75.0637 -75.0595 -75.0595 -75.0549 -75.0539 -75.0533
   -75.0533 -75.0521 -75.0463 -75.0463 -75.0449 -75.0448 -75.0376 -75.0376
   -74.4939 -74.4939 -74.4795 -74.4795 -74.4795 -74.4795 -74.4783 -74.4783
   -74.4780 -74.4780 -74.4767 -74.4767 -74.4767 -74.4767 -74.4622 -74.4622
   -40.9205 -40.9205 -40.9201 -40.9192 -40.9067 -40.9067 -40.8999 -40.8658
   -40.8657 -40.8628 -40.8628 -40.8256 -40.8256 -40.8145 -40.8145 -40.8053
   -40.8053 -40.8021 -40.8021 -40.7932 -40.7932 -40.7645 -40.7644 -40.7577
   -40.7576 -40.7576 -40.7531 -40.7531 -40.7479 -40.7433 -40.7433 -40.7295
   -40.7263 -40.7263 -40.7119 -40.7119 -40.7090 -40.7080 -40.6979 -40.6979
   -40.6927 -40.6927 -40.6590 -40.6572 -40.6571 -40.6529 -40.6408 -40.6392
   -40.3682 -40.3682 -40.3675 -40.3666 -40.3565 -40.3565 -40.3545 -40.3545
   -40.2860 -40.2860 -40.2858 -40.2858 -40.2710 -40.2710 -40.2708 -40.2708
   -40.2687 -40.2687 -40.2683 -40.2683 -40.2534 -40.2534 -40.2533 -40.2533
   -40.1828 -40.1825 -40.1813 -40.1809 -40.1693 -40.1692 -40.1680 -40.1679
   -40.0971 -40.0939 -40.0825 -40.0825 -40.0821 -40.0821 -40.0811 -40.0808
   -40.0807 -40.0806 -40.0803 -40.0803 -40.0800 -40.0800 -40.0701 -40.0701
     2.7288   4.0172   4.2583   4.2583   4.3247   4.3308   4.3371   4.3371
     4.3961   4.4083   4.5328   4.5328   4.6217   4.6217   4.8051   4.8051
     4.8711   5.0727   5.1942   5.1942   5.2234   5.2234   5.2532   5.2533
     5.2739   5.2739   5.3426   5.3459   5.3459   5.3481   5.3605   5.3605
     5.4866   5.4866   5.5540   5.5540   5.5903   5.5903   5.6665   5.6665
     5.6787   5.6788   5.7412   5.7412   5.8033   5.8628   5.8628   5.8810
     5.8810   6.0245   6.0246   6.0905   6.1384   6.1384   6.1881   6.1881
     6.2003   6.2089   6.2089   6.2197   6.3951   6.3951   6.3987   6.3987
     6.4117   6.4220   6.5591   6.5591   6.5710   6.5730   6.5804   6.5804
     6.6130   6.6223   6.6832   6.6832   6.7182   6.7182   7.0684   7.0684
     7.1221   7.1304   7.1325   7.1325   7.1521   7.1521   7.1766   7.1766
     7.2973   7.2973   7.3324   7.3324   7.3455   7.3455   7.3522   7.3688
     7.3964   7.3964   7.4243   7.4243   7.4557   7.4670   7.5001   7.5236
     7.5236   7.6309   7.6309   7.6483   7.6483   7.7263   7.7537   7.7537
     7.7849   7.7849   7.7947   7.7947   7.9220   7.9220   7.9762   7.9762
     7.9770   7.9770   8.0112   8.1606   8.1606   8.2015   8.2286   8.2286
     8.3482   8.3482   8.3614   8.3614   8.3615   8.3812   8.3812   8.3906
     8.4772   8.4999   8.5027   8.5046   8.5046   8.5818   8.6113   8.6308
     8.6308   8.6574   8.6574   8.6686   8.6686   8.8263   8.8263   8.8998
     8.9030   8.9030   8.9040   8.9575   9.0363   9.0529   9.0529   9.0597
     9.0597   9.1127   9.1562   9.2630   9.2630   9.5862   9.5862   9.6673
     9.6674  10.0227  10.0227  10.3362  10.5179  10.7243  10.9403  10.9403
    11.2371  11.3176  11.3176  11.3548  11.3548  11.7477  11.8529  11.8707
    11.8707  13.4466  13.4466  13.5920  13.5920  14.1629  14.1629  14.2724
    14.3221  14.3222  14.4239  14.7450  15.2128  15.2128  15.7486  15.7486
    15.7803  15.7803  17.1142  17.3713  17.3714  17.4865  17.4865  17.6065
    17.7262  17.8213  17.9997  17.9997  18.0597  18.0597  18.2672  18.2673
    18.2970  18.2973

          k = 0.0556 0.0556 0.1616 ( 56715 PWs)   bands (ev):

   -75.0859 -75.0637 -75.0637 -75.0595 -75.0595 -75.0549 -75.0539 -75.0533
   -75.0533 -75.0521 -75.0463 -75.0463 -75.0449 -75.0448 -75.0376 -75.0376
   -74.4939 -74.4939 -74.4795 -74.4795 -74.4795 -74.4795 -74.4783 -74.4783
   -74.4780 -74.4780 -74.4767 -74.4767 -74.4767 -74.4767 -74.4622 -74.4622
   -40.9205 -40.9205 -40.9201 -40.9193 -40.9066 -40.9066 -40.8999 -40.8657
   -40.8657 -40.8628 -40.8628 -40.8256 -40.8256 -40.8145 -40.8145 -40.8053
   -40.8053 -40.8021 -40.8021 -40.7932 -40.7932 -40.7644 -40.7644 -40.7577
   -40.7577 -40.7576 -40.7532 -40.7532 -40.7479 -40.7433 -40.7433 -40.7295
   -40.7264 -40.7264 -40.7119 -40.7119 -40.7090 -40.7080 -40.6980 -40.6979
   -40.6927 -40.6927 -40.6590 -40.6572 -40.6572 -40.6529 -40.6408 -40.6392
   -40.3683 -40.3682 -40.3675 -40.3666 -40.3564 -40.3564 -40.3544 -40.3544
   -40.2860 -40.2860 -40.2858 -40.2858 -40.2710 -40.2710 -40.2708 -40.2708
   -40.2687 -40.2687 -40.2683 -40.2683 -40.2534 -40.2534 -40.2533 -40.2533
   -40.1828 -40.1825 -40.1813 -40.1809 -40.1693 -40.1693 -40.1680 -40.1679
   -40.0971 -40.0938 -40.0825 -40.0825 -40.0820 -40.0820 -40.0811 -40.0808
   -40.0808 -40.0807 -40.0803 -40.0803 -40.0800 -40.0800 -40.0701 -40.0701
     2.7289   4.0171   4.2583   4.2583   4.3247   4.3308   4.3371   4.3371
     4.3961   4.4081   4.5328   4.5328   4.6217   4.6217   4.8051   4.8051
     4.8712   5.0727   5.1942   5.1942   5.2234   5.2234   5.2533   5.2533
     5.2739   5.2739   5.3426   5.3459   5.3459   5.3481   5.3605   5.3605
     5.4866   5.4866   5.5540   5.5540   5.5903   5.5903   5.6665   5.6665
     5.6788   5.6788   5.7412   5.7412   5.8033   5.8628   5.8628   5.8810
     5.8810   6.0245   6.0245   6.0905   6.1384   6.1384   6.1881   6.1881
     6.2003   6.2089   6.2089   6.2197   6.3950   6.3950   6.3987   6.3987
     6.4117   6.4220   6.5590   6.5590   6.5710   6.5730   6.5804   6.5804
     6.6131   6.6224   6.6833   6.6833   6.7183   6.7183   7.0685   7.0685
     7.1222   7.1306   7.1325   7.1325   7.1521   7.1521   7.1766   7.1766
     7.2969   7.2969   7.3324   7.3324   7.3455   7.3455   7.3522   7.3688
     7.3961   7.3961   7.4243   7.4243   7.4560   7.4651   7.5001   7.5237
     7.5237   7.6309   7.6309   7.6485   7.6485   7.7265   7.7536   7.7536
     7.7853   7.7853   7.7948   7.7948   7.9220   7.9220   7.9760   7.9760
     7.9767   7.9767   8.0112   8.1606   8.1606   8.2108   8.2286   8.2287
     8.3480   8.3481   8.3614   8.3614   8.3615   8.3812   8.3812   8.3906
     8.4770   8.4999   8.5022   8.5059   8.5059   8.5819   8.6108   8.6305
     8.6306   8.6573   8.6573   8.6697   8.6697   8.8263   8.8263   8.8998
     8.9030   8.9030   8.9040   8.9575   9.0363   9.0529   9.0529   9.0597
     9.0597   9.1135   9.1562   9.2630   9.2630   9.5829   9.5829   9.6674
     9.6674  10.0197  10.0197  10.2846  10.5180  10.7243  10.9410  10.9411
    11.2392  11.3299  11.3299  11.3544  11.3544  11.8399  11.8518  11.8831
    11.8831  13.4470  13.4470  13.5173  13.5173  14.0871  14.0871  14.2809
    14.3238  14.3238  14.4139  14.6111  15.4351  15.4351  15.7468  15.7468
    16.0105  16.0106  17.0348  17.1002  17.1002  17.2824  17.2825  17.6399
    17.6437  17.6437  17.8253  18.0021  18.0021  18.0635  18.2755  18.2755
    18.5275  18.5277

          k = 0.0556 0.0556 0.2263 ( 56680 PWs)   bands (ev):

   -75.0859 -75.0637 -75.0637 -75.0595 -75.0595 -75.0549 -75.0539 -75.0533
   -75.0533 -75.0521 -75.0463 -75.0463 -75.0449 -75.0448 -75.0376 -75.0376
   -74.4939 -74.4939 -74.4795 -74.4795 -74.4795 -74.4795 -74.4783 -74.4783
   -74.4780 -74.4780 -74.4767 -74.4767 -74.4767 -74.4767 -74.4622 -74.4622
   -40.9205 -40.9205 -40.9201 -40.9192 -40.9066 -40.9066 -40.9000 -40.8657
   -40.8657 -40.8628 -40.8628 -40.8256 -40.8256 -40.8145 -40.8145 -40.8053
   -40.8053 -40.8021 -40.8021 -40.7932 -40.7932 -40.7644 -40.7643 -40.7577
   -40.7576 -40.7576 -40.7532 -40.7532 -40.7479 -40.7432 -40.7432 -40.7294
   -40.7263 -40.7263 -40.7119 -40.7119 -40.7090 -40.7080 -40.6979 -40.6979
   -40.6927 -40.6927 -40.6590 -40.6572 -40.6572 -40.6529 -40.6408 -40.6392
   -40.3683 -40.3682 -40.3675 -40.3665 -40.3564 -40.3564 -40.3544 -40.3544
   -40.2860 -40.2860 -40.2858 -40.2858 -40.2710 -40.2710 -40.2708 -40.2708
   -40.2687 -40.2687 -40.2682 -40.2682 -40.2534 -40.2534 -40.2533 -40.2533
   -40.1828 -40.1825 -40.1813 -40.1809 -40.1693 -40.1693 -40.1679 -40.1679
   -40.0970 -40.0938 -40.0825 -40.0825 -40.0820 -40.0820 -40.0812 -40.0808
   -40.0808 -40.0807 -40.0803 -40.0803 -40.0800 -40.0800 -40.0700 -40.0700
     2.7289   4.0170   4.2583   4.2583   4.3247   4.3308   4.3371   4.3371
     4.3961   4.4080   4.5329   4.5329   4.6218   4.6218   4.8051   4.8051
     4.8713   5.0727   5.1942   5.1942   5.2234   5.2234   5.2532   5.2533
     5.2739   5.2739   5.3426   5.3459   5.3459   5.3480   5.3604   5.3604
     5.4866   5.4866   5.5540   5.5540   5.5903   5.5903   5.6665   5.6665
     5.6788   5.6788   5.7412   5.7412   5.8033   5.8628   5.8628   5.8810
     5.8810   6.0245   6.0245   6.0905   6.1384   6.1384   6.1881   6.1881
     6.2003   6.2089   6.2089   6.2197   6.3950   6.3950   6.3987   6.3987
     6.4117   6.4220   6.5589   6.5589   6.5710   6.5731   6.5804   6.5804
     6.6131   6.6224   6.6834   6.6834   6.7185   6.7185   7.0686   7.0686
     7.1223   7.1308   7.1325   7.1325   7.1520   7.1520   7.1766   7.1766
     7.2966   7.2966   7.3324   7.3324   7.3455   7.3455   7.3522   7.3688
     7.3958   7.3958   7.4244   7.4244   7.4563   7.4634   7.5001   7.5238
     7.5238   7.6310   7.6310   7.6487   7.6487   7.7266   7.7536   7.7536
     7.7857   7.7857   7.7949   7.7949   7.9220   7.9220   7.9757   7.9758
     7.9763   7.9763   8.0112   8.1606   8.1606   8.2190   8.2287   8.2287
     8.3480   8.3480   8.3614   8.3614   8.3615   8.3812   8.3812   8.3906
     8.4768   8.4999   8.5018   8.5070   8.5070   8.5819   8.6104   8.6304
     8.6304   8.6573   8.6573   8.6707   8.6707   8.8263   8.8263   8.8998
     8.9030   8.9030   8.9040   8.9575   9.0363   9.0529   9.0529   9.0598
     9.0598   9.1142   9.1561   9.2630   9.2630   9.5800   9.5800   9.6674
     9.6674  10.0170  10.0170  10.2423  10.5181  10.7242  10.9417  10.9417
    11.2410  11.3410  11.3410  11.3540  11.3540  11.8508  11.8941  11.8941
    11.9209  13.4472  13.4472  13.4582  13.4582  14.0274  14.0274  14.2898
    14.3252  14.3252  14.4037  14.4974  15.6904  15.6904  15.7453  15.7453
    16.2831  16.2831  16.7447  16.7447  16.9851  17.2202  17.2204  17.2628
    17.2628  17.5721  18.0027  18.0027  18.0317  18.2829  18.2829  18.3527
    18.7687  18.7690

          k = 0.0556 0.0556-0.2909 ( 56682 PWs)   bands (ev):

   -75.0859 -75.0637 -75.0637 -75.0595 -75.0595 -75.0549 -75.0539 -75.0533
   -75.0533 -75.0521 -75.0463 -75.0463 -75.0449 -75.0448 -75.0376 -75.0376
   -74.4939 -74.4939 -74.4795 -74.4795 -74.4795 -74.4795 -74.4783 -74.4783
   -74.4780 -74.4780 -74.4767 -74.4767 -74.4767 -74.4767 -74.4622 -74.4622
   -40.9205 -40.9205 -40.9201 -40.9192 -40.9066 -40.9066 -40.9000 -40.8658
   -40.8658 -40.8628 -40.8628 -40.8256 -40.8256 -40.8145 -40.8145 -40.8053
   -40.8053 -40.8021 -40.8021 -40.7932 -40.7932 -40.7644 -40.7644 -40.7577
   -40.7577 -40.7576 -40.7532 -40.7532 -40.7479 -40.7432 -40.7432 -40.7293
   -40.7263 -40.7263 -40.7119 -40.7119 -40.7090 -40.7080 -40.6979 -40.6979
   -40.6927 -40.6927 -40.6590 -40.6572 -40.6572 -40.6529 -40.6408 -40.6391
   -40.3682 -40.3682 -40.3675 -40.3665 -40.3564 -40.3564 -40.3544 -40.3544
   -40.2860 -40.2860 -40.2858 -40.2858 -40.2710 -40.2709 -40.2708 -40.2708
   -40.2687 -40.2687 -40.2682 -40.2682 -40.2534 -40.2534 -40.2533 -40.2533
   -40.1828 -40.1824 -40.1813 -40.1808 -40.1693 -40.1693 -40.1680 -40.1679
   -40.0969 -40.0938 -40.0825 -40.0825 -40.0820 -40.0820 -40.0812 -40.0808
   -40.0808 -40.0807 -40.0803 -40.0803 -40.0800 -40.0800 -40.0701 -40.0700
     2.7289   4.0170   4.2583   4.2583   4.3247   4.3308   4.3371   4.3371
     4.3961   4.4079   4.5329   4.5329   4.6218   4.6218   4.8051   4.8051
     4.8713   5.0727   5.1942   5.1942   5.2234   5.2234   5.2532   5.2533
     5.2739   5.2739   5.3426   5.3459   5.3459   5.3480   5.3604   5.3604
     5.4866   5.4866   5.5540   5.5540   5.5903   5.5903   5.6665   5.6665
     5.6788   5.6788   5.7412   5.7412   5.8033   5.8628   5.8628   5.8810
     5.8810   6.0245   6.0245   6.0905   6.1383   6.1384   6.1881   6.1881
     6.2003   6.2089   6.2089   6.2197   6.3949   6.3949   6.3987   6.3987
     6.4117   6.4220   6.5589   6.5589   6.5710   6.5731   6.5804   6.5804
     6.6131   6.6224   6.6835   6.6835   6.7185   6.7185   7.0687   7.0687
     7.1224   7.1308   7.1325   7.1325   7.1520   7.1520   7.1766   7.1766
     7.2964   7.2964   7.3324   7.3324   7.3455   7.3455   7.3522   7.3688
     7.3957   7.3957   7.4244   7.4244   7.4564   7.4627   7.5001   7.5238
     7.5238   7.6310   7.6310   7.6488   7.6488   7.7267   7.7536   7.7536
     7.7858   7.7858   7.7949   7.7949   7.9220   7.9220   7.9757   7.9757
     7.9762   7.9762   8.0112   8.1606   8.1606   8.2223   8.2286   8.2287
     8.3479   8.3479   8.3614   8.3614   8.3615   8.3812   8.3812   8.3906
     8.4767   8.4999   8.5016   8.5074   8.5074   8.5819   8.6103   8.6303
     8.6303   8.6573   8.6573   8.6711   8.6711   8.8263   8.8263   8.8998
     8.9030   8.9030   8.9040   8.9575   9.0363   9.0529   9.0529   9.0598
     9.0598   9.1146   9.1561   9.2630   9.2630   9.5789   9.5789   9.6674
     9.6674  10.0159  10.0159  10.2263  10.5182  10.7242  10.9419  10.9419
    11.2417  11.3454  11.3454  11.3539  11.3539  11.8504  11.8986  11.8986
    11.9530  13.4362  13.4362  13.4474  13.4474  14.0052  14.0052  14.2938
    14.3257  14.3257  14.3992  14.4530  15.7447  15.7447  15.8376  15.8376
    16.4534  16.4534  16.5643  16.5643  16.9685  17.0570  17.0570  17.1984
    17.1985  17.5476  18.0029  18.0029  18.1194  18.2858  18.2858  18.6471
    18.6635  18.6899

          k = 0.0556 0.1667 0.0323 ( 56729 PWs)   bands (ev):

   -75.0851 -75.0679 -75.0634 -75.0593 -75.0566 -75.0553 -75.0544 -75.0536
   -75.0517 -75.0510 -75.0477 -75.0465 -75.0451 -75.0435 -75.0383 -75.0378
   -74.4935 -74.4934 -74.4822 -74.4822 -74.4795 -74.4795 -74.4785 -74.4785
   -74.4778 -74.4778 -74.4768 -74.4768 -74.4740 -74.4740 -74.4627 -74.4626
   -40.9185 -40.9177 -40.9164 -40.9151 -40.9039 -40.9038 -40.8985 -40.8706
   -40.8686 -40.8669 -40.8628 -40.8449 -40.8387 -40.8340 -40.8133 -40.8057
   -40.8044 -40.7996 -40.7860 -40.7787 -40.7745 -40.7684 -40.7658 -40.7620
   -40.7617 -40.7590 -40.7580 -40.7506 -40.7486 -40.7428 -40.7406 -40.7376
   -40.7269 -40.7175 -40.7116 -40.7046 -40.7026 -40.7021 -40.6983 -40.6977
   -40.6930 -40.6890 -40.6643 -40.6637 -40.6585 -40.6517 -40.6456 -40.6407
   -40.3669 -40.3661 -40.3637 -40.3620 -40.3552 -40.3550 -40.3506 -40.3505
   -40.3028 -40.3025 -40.3006 -40.3002 -40.2885 -40.2879 -40.2839 -40.2833
   -40.2560 -40.2555 -40.2513 -40.2508 -40.2387 -40.2386 -40.2364 -40.2361
   -40.1871 -40.1869 -40.1824 -40.1821 -40.1737 -40.1737 -40.1697 -40.1697
   -40.0963 -40.0934 -40.0847 -40.0843 -40.0825 -40.0820 -40.0815 -40.0808
   -40.0807 -40.0804 -40.0804 -40.0800 -40.0783 -40.0781 -40.0704 -40.0704
     2.7985   4.0719   4.2950   4.3006   4.3411   4.3450   4.3564   4.3739
     4.3791   4.4345   4.4607   4.5572   4.5591   4.6228   4.8047   4.8676
     4.9238   5.1060   5.1158   5.1301   5.1361   5.1438   5.1455   5.2354
     5.2395   5.2754   5.2810   5.2815   5.3017   5.3350   5.3427   5.3808
     5.3832   5.4166   5.4639   5.5327   5.6281   5.6376   5.6409   5.6443
     5.6695   5.6795   5.6868   5.8226   5.8590   5.8844   5.9255   5.9714
     5.9721   6.0116   6.0246   6.0780   6.0837   6.1177   6.1689   6.2028
     6.2148   6.2251   6.2509   6.2759   6.3195   6.3647   6.4104   6.4200
     6.4279   6.4329   6.5897   6.5941   6.5987   6.6024   6.6131   6.6154
     6.6296   6.6790   6.7138   6.7167   6.7286   6.8564   6.9369   6.9573
     6.9582   6.9945   7.0356   7.0426   7.0759   7.1349   7.1421   7.1661
     7.2373   7.2532   7.2705   7.2980   7.3291   7.3571   7.4062   7.4173
     7.4292   7.4542   7.4554   7.4822   7.4826   7.5161   7.5250   7.5396
     7.5418   7.5466   7.5663   7.6250   7.6939   7.7207   7.7339   7.7425
     7.8585   7.8751   7.8763   7.9397   7.9705   7.9973   8.0017   8.0605
     8.0806   8.0907   8.1229   8.1759   8.1998   8.2177   8.2384   8.2433
     8.2496   8.3076   8.3138   8.3723   8.3935   8.3974   8.3993   8.4473
     8.4476   8.4709   8.4760   8.4872   8.6092   8.6144   8.6274   8.6361
     8.6590   8.6699   8.6865   8.7396   8.7944   8.8113   8.8222   8.8232
     8.8481   8.8556   8.9446   8.9642   8.9990   9.0383   9.0436   9.0479
     9.0643   9.0715   9.1436   9.1585   9.1962   9.2461   9.5502   9.5852
     9.5874  10.0395  10.1252  10.2686  10.5399  10.5632  10.7436  10.8067
    10.8076  11.3181  11.3543  11.4302  11.8762  11.8871  11.9310  12.4211
    12.4740  13.0525  13.1036  13.6769  13.6795  14.2427  14.3166  14.4031
    14.4959  14.5503  14.5515  14.8227  14.9247  15.1404  15.2176  15.6966
    15.9104  16.2473  17.1065  17.2012  17.2149  17.2366  17.2395  17.2981
    17.4219  17.5142  17.6791  17.8291  17.8402  17.8460  18.2511  18.3298
    18.3797  18.7064

          k = 0.0556 0.1667 0.0970 ( 56708 PWs)   bands (ev):

   -75.0851 -75.0679 -75.0634 -75.0593 -75.0566 -75.0553 -75.0544 -75.0536
   -75.0517 -75.0510 -75.0477 -75.0465 -75.0451 -75.0435 -75.0383 -75.0378
   -74.4935 -74.4934 -74.4822 -74.4822 -74.4795 -74.4795 -74.4785 -74.4785
   -74.4778 -74.4778 -74.4768 -74.4768 -74.4740 -74.4740 -74.4627 -74.4626
   -40.9186 -40.9177 -40.9164 -40.9151 -40.9039 -40.9037 -40.8986 -40.8706
   -40.8686 -40.8669 -40.8628 -40.8448 -40.8387 -40.8340 -40.8133 -40.8057
   -40.8044 -40.7996 -40.7860 -40.7787 -40.7745 -40.7684 -40.7658 -40.7619
   -40.7617 -40.7590 -40.7580 -40.7506 -40.7486 -40.7427 -40.7406 -40.7376
   -40.7269 -40.7174 -40.7116 -40.7046 -40.7026 -40.7021 -40.6983 -40.6977
   -40.6930 -40.6890 -40.6643 -40.6637 -40.6586 -40.6517 -40.6456 -40.6407
   -40.3669 -40.3661 -40.3637 -40.3620 -40.3552 -40.3550 -40.3506 -40.3505
   -40.3028 -40.3025 -40.3006 -40.3002 -40.2885 -40.2879 -40.2839 -40.2833
   -40.2560 -40.2555 -40.2513 -40.2508 -40.2387 -40.2386 -40.2364 -40.2362
   -40.1871 -40.1869 -40.1824 -40.1821 -40.1737 -40.1737 -40.1697 -40.1697
   -40.0964 -40.0935 -40.0847 -40.0842 -40.0825 -40.0820 -40.0815 -40.0808
   -40.0807 -40.0804 -40.0804 -40.0799 -40.0782 -40.0781 -40.0704 -40.0704
     2.7985   4.0718   4.2950   4.3006   4.3411   4.3450   4.3564   4.3739
     4.3791   4.4345   4.4606   4.5572   4.5591   4.6228   4.8047   4.8676
     4.9239   5.1060   5.1158   5.1301   5.1361   5.1438   5.1455   5.2354
     5.2395   5.2754   5.2810   5.2815   5.3017   5.3350   5.3427   5.3808
     5.3832   5.4166   5.4639   5.5327   5.6281   5.6376   5.6409   5.6443
     5.6695   5.6795   5.6868   5.8226   5.8590   5.8844   5.9255   5.9714
     5.9721   6.0116   6.0246   6.0780   6.0837   6.1177   6.1689   6.2027
     6.2148   6.2251   6.2509   6.2759   6.3195   6.3647   6.4104   6.4200
     6.4279   6.4329   6.5896   6.5941   6.5987   6.6024   6.6131   6.6154
     6.6296   6.6790   6.7138   6.7167   6.7287   6.8565   6.9369   6.9574
     6.9583   6.9945   7.0356   7.0427   7.0759   7.1349   7.1421   7.1662
     7.2370   7.2532   7.2705   7.2984   7.3289   7.3572   7.4062   7.4174
     7.4291   7.4542   7.4555   7.4812   7.4826   7.5161   7.5248   7.5396
     7.5418   7.5466   7.5663   7.6250   7.6938   7.7209   7.7340   7.7428
     7.8584   7.8752   7.8763   7.9399   7.9705   7.9971   8.0020   8.0604
     8.0803   8.0907   8.1230   8.1758   8.1998   8.2177   8.2380   8.2432
     8.2496   8.3075   8.3179   8.3723   8.3944   8.3974   8.3994   8.4473
     8.4476   8.4703   8.4760   8.4880   8.6092   8.6144   8.6272   8.6361
     8.6597   8.6696   8.6865   8.7395   8.7944   8.8113   8.8222   8.8236
     8.8481   8.8556   8.9446   8.9648   8.9989   9.0403   9.0436   9.0479
     9.0643   9.0715   9.1436   9.1586   9.1962   9.2438   9.5502   9.5852
     9.5854  10.0376  10.1250  10.2686  10.5036  10.5613  10.7436  10.8066
    10.8155  11.3259  11.3571  11.4316  11.8840  11.9303  11.9507  12.4193
    12.4820  13.0509  13.0527  13.6229  13.6798  14.1882  14.3216  14.4083
    14.4899  14.5383  14.6745  14.7675  14.8273  15.2161  15.2706  15.8292
    15.9092  16.3822  16.9386  17.0196  17.1348  17.2369  17.2985  17.4203
    17.4291  17.5365  17.6582  17.7501  17.8298  17.8682  18.0593  18.1827
    18.3852  18.6281

          k = 0.0556 0.1667 0.1616 ( 56714 PWs)   bands (ev):

   -75.0851 -75.0679 -75.0634 -75.0593 -75.0566 -75.0553 -75.0544 -75.0536
   -75.0517 -75.0510 -75.0477 -75.0465 -75.0451 -75.0435 -75.0383 -75.0378
   -74.4935 -74.4934 -74.4822 -74.4822 -74.4795 -74.4795 -74.4785 -74.4785
   -74.4778 -74.4778 -74.4768 -74.4768 -74.4740 -74.4740 -74.4627 -74.4626
   -40.9186 -40.9177 -40.9164 -40.9151 -40.9039 -40.9037 -40.8986 -40.8705
   -40.8686 -40.8669 -40.8628 -40.8449 -40.8387 -40.8340 -40.8133 -40.8057
   -40.8044 -40.7996 -40.7860 -40.7787 -40.7745 -40.7684 -40.7658 -40.7619
   -40.7617 -40.7590 -40.7580 -40.7506 -40.7486 -40.7428 -40.7406 -40.7376
   -40.7269 -40.7174 -40.7116 -40.7046 -40.7026 -40.7021 -40.6983 -40.6977
   -40.6930 -40.6890 -40.6643 -40.6637 -40.6585 -40.6517 -40.6456 -40.6407
   -40.3669 -40.3661 -40.3637 -40.3620 -40.3552 -40.3550 -40.3506 -40.3505
   -40.3028 -40.3025 -40.3006 -40.3002 -40.2885 -40.2879 -40.2839 -40.2833
   -40.2560 -40.2555 -40.2512 -40.2508 -40.2387 -40.2386 -40.2364 -40.2362
   -40.1871 -40.1869 -40.1824 -40.1821 -40.1737 -40.1737 -40.1697 -40.1697
   -40.0964 -40.0935 -40.0846 -40.0842 -40.0825 -40.0819 -40.0815 -40.0808
   -40.0807 -40.0804 -40.0804 -40.0799 -40.0783 -40.0781 -40.0704 -40.0704
     2.7985   4.0717   4.2950   4.3006   4.3411   4.3450   4.3564   4.3739
     4.3791   4.4345   4.4604   4.5572   4.5591   4.6228   4.8047   4.8676
     4.9240   5.1060   5.1158   5.1301   5.1361   5.1438   5.1455   5.2354
     5.2395   5.2754   5.2810   5.2815   5.3016   5.3349   5.3427   5.3807
     5.3832   5.4166   5.4639   5.5328   5.6281   5.6376   5.6409   5.6443
     5.6695   5.6795   5.6869   5.8226   5.8590   5.8844   5.9255   5.9715
     5.9721   6.0116   6.0246   6.0780   6.0836   6.1177   6.1689   6.2027
     6.2148   6.2251   6.2509   6.2759   6.3195   6.3647   6.4104   6.4200
     6.4279   6.4328   6.5895   6.5941   6.5987   6.6024   6.6132   6.6155
     6.6296   6.6789   6.7139   6.7168   6.7287   6.8566   6.9369   6.9575
     6.9583   6.9945   7.0357   7.0429   7.0759   7.1349   7.1422   7.1662
     7.2365   7.2532   7.2705   7.2991   7.3286   7.3574   7.4062   7.4174
     7.4288   7.4543   7.4557   7.4796   7.4826   7.5162   7.5246   7.5396
     7.5418   7.5467   7.5663   7.6250   7.6937   7.7212   7.7341   7.7432
     7.8583   7.8753   7.8764   7.9403   7.9705   7.9968   8.0024   8.0602
     8.0799   8.0906   8.1231   8.1756   8.1998   8.2177   8.2373   8.2431
     8.2494   8.3074   8.3242   8.3723   8.3958   8.3974   8.3994   8.4473
     8.4476   8.4695   8.4760   8.4892   8.6091   8.6144   8.6267   8.6361
     8.6608   8.6690   8.6865   8.7392   8.7943   8.8113   8.8223   8.8243
     8.8482   8.8556   8.9446   8.9657   8.9988   9.0436   9.0437   9.0479
     9.0644   9.0715   9.1436   9.1586   9.1962   9.2403   9.5502   9.5823
     9.5852  10.0347  10.1247  10.2685  10.4519  10.5584  10.7435  10.8065
    10.8277  11.3381  11.3614  11.4337  11.8962  11.9293  12.0474  12.4166
    12.4943  12.9786  13.0531  13.5490  13.6801  14.1137  14.3302  14.4188
    14.4800  14.5156  14.6847  14.6923  14.8832  15.2139  15.4927  15.9073
    16.0570  16.5898  16.6151  16.9706  17.0566  17.1527  17.2367  17.2992
    17.4403  17.6419  17.6672  17.6775  17.8307  17.8847  18.1013  18.1071
    18.2115  18.3936

          k = 0.0556 0.1667 0.2263 ( 56709 PWs)   bands (ev):

   -75.0851 -75.0679 -75.0634 -75.0593 -75.0566 -75.0553 -75.0544 -75.0536
   -75.0517 -75.0510 -75.0477 -75.0465 -75.0451 -75.0435 -75.0383 -75.0378
   -74.4935 -74.4934 -74.4822 -74.4822 -74.4795 -74.4795 -74.4785 -74.4785
   -74.4778 -74.4778 -74.4768 -74.4768 -74.4740 -74.4740 -74.4627 -74.4626
   -40.9186 -40.9177 -40.9164 -40.9151 -40.9039 -40.9037 -40.8986 -40.8705
   -40.8686 -40.8669 -40.8628 -40.8449 -40.8387 -40.8340 -40.8133 -40.8057
   -40.8044 -40.7996 -40.7860 -40.7786 -40.7744 -40.7684 -40.7658 -40.7620
   -40.7617 -40.7589 -40.7581 -40.7506 -40.7486 -40.7428 -40.7406 -40.7375
   -40.7269 -40.7175 -40.7116 -40.7046 -40.7026 -40.7021 -40.6983 -40.6977
   -40.6930 -40.6890 -40.6643 -40.6637 -40.6585 -40.6517 -40.6456 -40.6406
   -40.3670 -40.3661 -40.3637 -40.3620 -40.3552 -40.3550 -40.3506 -40.3505
   -40.3028 -40.3026 -40.3006 -40.3002 -40.2885 -40.2879 -40.2839 -40.2833
   -40.2560 -40.2555 -40.2512 -40.2508 -40.2386 -40.2386 -40.2364 -40.2361
   -40.1871 -40.1869 -40.1824 -40.1821 -40.1737 -40.1737 -40.1697 -40.1697
   -40.0963 -40.0934 -40.0846 -40.0842 -40.0825 -40.0819 -40.0815 -40.0808
   -40.0807 -40.0804 -40.0804 -40.0799 -40.0782 -40.0781 -40.0704 -40.0704
     2.7986   4.0717   4.2950   4.3006   4.3411   4.3450   4.3564   4.3739
     4.3791   4.4344   4.4602   4.5572   4.5591   4.6228   4.8047   4.8676
     4.9241   5.1061   5.1158   5.1301   5.1360   5.1438   5.1454   5.2354
     5.2395   5.2754   5.2810   5.2815   5.3016   5.3349   5.3427   5.3807
     5.3831   5.4166   5.4638   5.5328   5.6281   5.6376   5.6409   5.6443
     5.6695   5.6795   5.6869   5.8226   5.8590   5.8844   5.9255   5.9715
     5.9721   6.0115   6.0246   6.0780   6.0836   6.1177   6.1689   6.2026
     6.2148   6.2251   6.2509   6.2759   6.3195   6.3647   6.4104   6.4200
     6.4279   6.4327   6.5894   6.5941   6.5987   6.6024   6.6132   6.6155
     6.6296   6.6788   6.7140   6.7169   6.7288   6.8567   6.9369   6.9576
     6.9584   6.9945   7.0357   7.0431   7.0758   7.1349   7.1422   7.1662
     7.2360   7.2532   7.2705   7.2996   7.3283   7.3576   7.4062   7.4175
     7.4285   7.4543   7.4558   7.4783   7.4826   7.5162   7.5243   7.5396
     7.5418   7.5467   7.5663   7.6250   7.6936   7.7214   7.7343   7.7436
     7.8581   7.8755   7.8765   7.9406   7.9705   7.9965   8.0029   8.0601
     8.0796   8.0905   8.1232   8.1755   8.1998   8.2178   8.2368   8.2430
     8.2493   8.3073   8.3298   8.3723   8.3970   8.3974   8.3994   8.4473
     8.4476   8.4686   8.4760   8.4903   8.6091   8.6143   8.6264   8.6361
     8.6618   8.6685   8.6864   8.7391   8.7943   8.8113   8.8224   8.8248
     8.8482   8.8556   8.9446   8.9665   8.9988   9.0436   9.0468   9.0479
     9.0645   9.0715   9.1436   9.1587   9.1962   9.2373   9.5502   9.5796
     9.5852  10.0321  10.1244  10.2684  10.4096  10.5559  10.7434  10.8063
    10.8387  11.3490  11.3652  11.4356  11.9071  11.9284  12.1332  12.4142
    12.5053  12.9212  13.0535  13.4905  13.6804  14.0549  14.3388  14.4346
    14.4700  14.4894  14.5631  14.6330  15.1138  15.2120  15.7486  15.9057
    16.2696  16.3260  16.7972  16.8967  16.9483  17.0072  17.2264  17.2997
    17.3200  17.4503  17.6001  17.8195  17.8314  17.8503  18.0977  18.0987
    18.3967  18.4010

          k = 0.0556 0.1667-0.2909 ( 56694 PWs)   bands (ev):

   -75.0851 -75.0679 -75.0634 -75.0593 -75.0566 -75.0553 -75.0544 -75.0536
   -75.0517 -75.0510 -75.0477 -75.0465 -75.0451 -75.0435 -75.0383 -75.0378
   -74.4935 -74.4934 -74.4822 -74.4822 -74.4795 -74.4795 -74.4785 -74.4785
   -74.4778 -74.4778 -74.4768 -74.4768 -74.4740 -74.4740 -74.4627 -74.4626
   -40.9186 -40.9177 -40.9164 -40.9151 -40.9039 -40.9037 -40.8986 -40.8705
   -40.8686 -40.8669 -40.8628 -40.8449 -40.8387 -40.8340 -40.8133 -40.8057
   -40.8044 -40.7996 -40.7860 -40.7786 -40.7744 -40.7684 -40.7658 -40.7620
   -40.7617 -40.7589 -40.7581 -40.7506 -40.7486 -40.7428 -40.7406 -40.7375
   -40.7268 -40.7174 -40.7116 -40.7046 -40.7026 -40.7021 -40.6983 -40.6976
   -40.6930 -40.6889 -40.6643 -40.6638 -40.6585 -40.6517 -40.6456 -40.6406
   -40.3670 -40.3662 -40.3637 -40.3620 -40.3551 -40.3550 -40.3506 -40.3505
   -40.3028 -40.3025 -40.3006 -40.3001 -40.2885 -40.2879 -40.2840 -40.2833
   -40.2560 -40.2555 -40.2512 -40.2508 -40.2386 -40.2386 -40.2364 -40.2361
   -40.1871 -40.1869 -40.1824 -40.1821 -40.1738 -40.1737 -40.1697 -40.1697
   -40.0963 -40.0934 -40.0846 -40.0841 -40.0825 -40.0819 -40.0815 -40.0808
   -40.0807 -40.0805 -40.0804 -40.0799 -40.0782 -40.0781 -40.0704 -40.0704
     2.7986   4.0716   4.2950   4.3006   4.3411   4.3450   4.3564   4.3739
     4.3791   4.4344   4.4602   4.5572   4.5591   4.6228   4.8047   4.8676
     4.9241   5.1061   5.1158   5.1301   5.1360   5.1438   5.1454   5.2354
     5.2395   5.2754   5.2810   5.2815   5.3016   5.3349   5.3427   5.3807
     5.3831   5.4167   5.4638   5.5328   5.6281   5.6376   5.6408   5.6443
     5.6695   5.6795   5.6869   5.8226   5.8590   5.8844   5.9255   5.9715
     5.9721   6.0115   6.0246   6.0780   6.0836   6.1177   6.1689   6.2026
     6.2149   6.2251   6.2509   6.2759   6.3195   6.3647   6.4104   6.4200
     6.4279   6.4327   6.5894   6.5941   6.5987   6.6024   6.6132   6.6155
     6.6296   6.6787   6.7140   6.7169   6.7288   6.8568   6.9369   6.9576
     6.9584   6.9946   7.0358   7.0432   7.0758   7.1349   7.1422   7.1662
     7.2359   7.2532   7.2705   7.2999   7.3281   7.3577   7.4062   7.4175
     7.4284   7.4543   7.4559   7.4777   7.4827   7.5162   7.5243   7.5396
     7.5418   7.5467   7.5663   7.6250   7.6936   7.7215   7.7343   7.7438
     7.8581   7.8756   7.8765   7.9407   7.9706   7.9964   8.0030   8.0600
     8.0794   8.0905   8.1232   8.1754   8.1998   8.2178   8.2366   8.2430
     8.2492   8.3072   8.3320   8.3723   8.3974   8.3975   8.3994   8.4474
     8.4476   8.4683   8.4760   8.4907   8.6091   8.6143   8.6262   8.6361
     8.6622   8.6683   8.6864   8.7390   8.7943   8.8113   8.8224   8.8251
     8.8482   8.8556   8.9446   8.9668   8.9988   9.0437   9.0479   9.0480
     9.0645   9.0715   9.1436   9.1587   9.1962   9.2361   9.5502   9.5785
     9.5852  10.0311  10.1243  10.2683  10.3936  10.5549  10.7434  10.8063
    10.8431  11.3534  11.3668  11.4363  11.9114  11.9281  12.1675  12.4132
    12.5097  12.8998  13.0536  13.4687  13.6805  14.0330  14.3426  14.4480
    14.4657  14.4718  14.5156  14.6109  15.2112  15.2360  15.8970  15.9051
    16.1173  16.4925  16.6158  16.9424  16.9907  17.0849  17.0985  17.2485
    17.2998  17.4543  17.5757  17.5952  17.8317  17.9017  18.2923  18.3567
    18.4040  18.7111

          k = 0.0556 0.2778 0.0323 ( 56727 PWs)   bands (ev):

   -75.0837 -75.0719 -75.0628 -75.0589 -75.0581 -75.0555 -75.0531 -75.0514
   -75.0501 -75.0499 -75.0490 -75.0468 -75.0457 -75.0421 -75.0397 -75.0383
   -74.4925 -74.4925 -74.4848 -74.4848 -74.4794 -74.4794 -74.4788 -74.4787
   -74.4776 -74.4776 -74.4769 -74.4769 -74.4714 -74.4714 -74.4636 -74.4636
   -40.9134 -40.9121 -40.9094 -40.9086 -40.8985 -40.8980 -40.8959 -40.8762
   -40.8745 -40.8742 -40.8667 -40.8631 -40.8530 -40.8529 -40.8175 -40.8105
   -40.7947 -40.7941 -40.7745 -40.7682 -40.7682 -40.7658 -40.7647 -40.7637
   -40.7622 -40.7582 -40.7575 -40.7541 -40.7505 -40.7483 -40.7448 -40.7384
   -40.7174 -40.7125 -40.7098 -40.7051 -40.6984 -40.6965 -40.6931 -40.6897
   -40.6869 -40.6842 -40.6735 -40.6709 -40.6630 -40.6538 -40.6535 -40.6450
   -40.3626 -40.3612 -40.3570 -40.3548 -40.3515 -40.3511 -40.3442 -40.3438
   -40.3187 -40.3180 -40.3142 -40.3136 -40.3055 -40.3043 -40.2986 -40.2979
   -40.2413 -40.2406 -40.2343 -40.2338 -40.2249 -40.2247 -40.2203 -40.2200
   -40.1939 -40.1938 -40.1863 -40.1861 -40.1811 -40.1810 -40.1745 -40.1745
   -40.0950 -40.0927 -40.0867 -40.0866 -40.0825 -40.0818 -40.0818 -40.0809
   -40.0808 -40.0804 -40.0801 -40.0799 -40.0764 -40.0763 -40.0711 -40.0709
     2.9359   4.0221   4.1783   4.3662   4.3830   4.3833   4.4138   4.4385
     4.4501   4.5128   4.5604   4.6054   4.6122   4.6128   4.7835   4.8240
     4.9415   4.9487   4.9717   4.9724   5.0047   5.0244   5.0946   5.1743
     5.1795   5.2301   5.3155   5.3270   5.3277   5.3393   5.3404   5.3465
     5.3496   5.3917   5.4155   5.4172   5.5747   5.6170   5.6242   5.6559
     5.6769   5.7045   5.7540   5.8552   5.8615   5.8744   5.8814   5.9054
     5.9311   5.9877   6.0108   6.0498   6.0589   6.1923   6.1980   6.2347
     6.2397   6.2422   6.3127   6.3179   6.3575   6.4076   6.4330   6.4410
     6.4931   6.5662   6.5929   6.6206   6.6317   6.6339   6.6381   6.6430
     6.6778   6.7143   6.7223   6.7655   6.7743   6.7783   6.8150   6.8747
     6.8977   6.9262   6.9337   7.0025   7.0800   7.0872   7.0948   7.0953
     7.1260   7.1401   7.1765   7.2366   7.2741   7.3302   7.3737   7.3772
     7.4565   7.4731   7.4860   7.4988   7.5340   7.5624   7.5744   7.6027
     7.6203   7.6248   7.6614   7.6675   7.7315   7.7539   7.7887   7.8722
     7.9410   7.9638   7.9697   7.9835   7.9904   8.0278   8.0653   8.0907
     8.0949   8.1321   8.1413   8.1567   8.1896   8.1937   8.2002   8.2350
     8.2435   8.3134   8.4029   8.4032   8.4048   8.4551   8.4674   8.5328
     8.5545   8.5610   8.5639   8.5704   8.5828   8.6043   8.6405   8.6549
     8.6577   8.6603   8.7260   8.7269   8.7383   8.7395   8.7802   8.7946
     8.8079   8.8293   8.8380   8.9179   8.9207   8.9872   9.0174   9.0582
     9.0585   9.0699   9.0736   9.0858   9.1533   9.3679   9.4457   9.4915
     9.5882   9.8464   9.8508  10.0728  10.3504  10.3775  10.5354  10.8327
    11.2022  11.3348  11.4090  11.7287  11.8999  12.2248  12.4070  12.5863
    12.5972  13.0094  13.1491  13.7287  14.0442  14.0937  14.2724  14.4331
    14.5077  14.6433  14.6915  14.7316  15.1017  15.2454  15.4641  15.7734
    16.2124  16.3426  16.4862  16.5951  16.6471  16.8229  16.8889  16.8953
    17.1583  17.3051  17.3615  17.6064  17.6742  17.8046  18.3206  18.3234
    18.4071  18.5724

          k = 0.0556 0.2778 0.0970 ( 56727 PWs)   bands (ev):

   -75.0837 -75.0719 -75.0628 -75.0589 -75.0581 -75.0555 -75.0531 -75.0514
   -75.0501 -75.0499 -75.0490 -75.0468 -75.0457 -75.0421 -75.0397 -75.0383
   -74.4925 -74.4925 -74.4848 -74.4848 -74.4794 -74.4794 -74.4788 -74.4787
   -74.4776 -74.4776 -74.4769 -74.4769 -74.4714 -74.4714 -74.4636 -74.4636
   -40.9134 -40.9120 -40.9094 -40.9085 -40.8986 -40.8980 -40.8959 -40.8762
   -40.8745 -40.8742 -40.8667 -40.8631 -40.8530 -40.8529 -40.8175 -40.8105
   -40.7947 -40.7941 -40.7745 -40.7682 -40.7682 -40.7658 -40.7647 -40.7637
   -40.7622 -40.7582 -40.7575 -40.7541 -40.7505 -40.7483 -40.7448 -40.7384
   -40.7174 -40.7125 -40.7098 -40.7051 -40.6984 -40.6965 -40.6931 -40.6897
   -40.6869 -40.6841 -40.6735 -40.6708 -40.6630 -40.6538 -40.6535 -40.6450
   -40.3626 -40.3612 -40.3570 -40.3548 -40.3515 -40.3511 -40.3442 -40.3438
   -40.3188 -40.3180 -40.3142 -40.3136 -40.3055 -40.3043 -40.2986 -40.2979
   -40.2413 -40.2406 -40.2343 -40.2338 -40.2249 -40.2247 -40.2203 -40.2200
   -40.1939 -40.1938 -40.1863 -40.1861 -40.1811 -40.1811 -40.1745 -40.1745
   -40.0951 -40.0927 -40.0867 -40.0865 -40.0825 -40.0818 -40.0817 -40.0809
   -40.0807 -40.0805 -40.0801 -40.0799 -40.0763 -40.0763 -40.0711 -40.0710
     2.9359   4.0222   4.1782   4.3662   4.3830   4.3833   4.4139   4.4385
     4.4501   4.5128   4.5603   4.6054   4.6122   4.6128   4.7835   4.8240
     4.9415   4.9487   4.9717   4.9724   5.0047   5.0245   5.0946   5.1743
     5.1795   5.2301   5.3155   5.3270   5.3277   5.3393   5.3404   5.3465
     5.3497   5.3917   5.4155   5.4172   5.5747   5.6170   5.6242   5.6560
     5.6769   5.7045   5.7540   5.8552   5.8615   5.8744   5.8814   5.9054
     5.9311   5.9877   6.0108   6.0498   6.0588   6.1923   6.1980   6.2348
     6.2398   6.2423   6.3126   6.3179   6.3575   6.4076   6.4330   6.4410
     6.4931   6.5662   6.5929   6.6206   6.6318   6.6339   6.6381   6.6430
     6.6778   6.7143   6.7223   6.7656   6.7743   6.7783   6.8150   6.8747
     6.8977   6.9262   6.9338   7.0024   7.0800   7.0873   7.0953   7.0953
     7.1260   7.1401   7.1765   7.2362   7.2742   7.3303   7.3737   7.3770
     7.4565   7.4731   7.4858   7.4981   7.5339   7.5624   7.5744   7.6027
     7.6201   7.6248   7.6615   7.6674   7.7317   7.7539   7.7888   7.8723
     7.9410   7.9644   7.9697   7.9834   7.9903   8.0268   8.0651   8.0906
     8.0955   8.1320   8.1413   8.1566   8.1896   8.1936   8.2001   8.2347
     8.2434   8.3143   8.4032   8.4038   8.4048   8.4545   8.4680   8.5328
     8.5546   8.5610   8.5642   8.5704   8.5828   8.6043   8.6395   8.6551
     8.6577   8.6629   8.7256   8.7269   8.7386   8.7395   8.7802   8.7947
     8.8079   8.8291   8.8380   8.9178   8.9207   8.9848   9.0174   9.0582
     9.0626   9.0700   9.0736   9.0858   9.1537   9.3679   9.4457   9.4920
     9.5864   9.8459   9.8508  10.0711  10.3582  10.3775  10.5350  10.7955
    11.2003  11.3424  11.4133  11.7316  11.9074  12.2944  12.4073  12.5367
    12.5957  13.0043  13.1571  13.6769  14.0940  14.1589  14.2214  14.4314
    14.5135  14.6052  14.6766  14.7592  14.9921  15.3729  15.4103  15.8964
    16.2111  16.3441  16.4268  16.4940  16.5953  16.8852  16.8937  17.0215
    17.0732  17.3969  17.4850  17.5771  17.6426  17.7609  18.2564  18.3176
    18.3773  18.4273

          k = 0.0556 0.2778 0.1616 ( 56710 PWs)   bands (ev):

   -75.0837 -75.0719 -75.0628 -75.0589 -75.0581 -75.0555 -75.0531 -75.0514
   -75.0501 -75.0499 -75.0490 -75.0468 -75.0457 -75.0421 -75.0397 -75.0383
   -74.4925 -74.4925 -74.4848 -74.4848 -74.4794 -74.4794 -74.4788 -74.4787
   -74.4776 -74.4776 -74.4769 -74.4769 -74.4714 -74.4714 -74.4636 -74.4636
   -40.9134 -40.9120 -40.9094 -40.9085 -40.8986 -40.8981 -40.8960 -40.8762
   -40.8745 -40.8742 -40.8666 -40.8631 -40.8530 -40.8529 -40.8174 -40.8106
   -40.7947 -40.7940 -40.7745 -40.7682 -40.7682 -40.7658 -40.7647 -40.7637
   -40.7623 -40.7581 -40.7575 -40.7541 -40.7505 -40.7483 -40.7448 -40.7384
   -40.7174 -40.7125 -40.7098 -40.7051 -40.6984 -40.6964 -40.6931 -40.6896
   -40.6869 -40.6841 -40.6735 -40.6708 -40.6630 -40.6538 -40.6535 -40.6450
   -40.3626 -40.3612 -40.3570 -40.3548 -40.3515 -40.3511 -40.3442 -40.3439
   -40.3188 -40.3180 -40.3142 -40.3136 -40.3055 -40.3043 -40.2986 -40.2979
   -40.2413 -40.2406 -40.2343 -40.2338 -40.2249 -40.2247 -40.2202 -40.2200
   -40.1938 -40.1938 -40.1863 -40.1861 -40.1811 -40.1811 -40.1745 -40.1744
   -40.0951 -40.0927 -40.0867 -40.0865 -40.0825 -40.0819 -40.0817 -40.0809
   -40.0808 -40.0805 -40.0802 -40.0799 -40.0763 -40.0763 -40.0711 -40.0710
     2.9360   4.0222   4.1781   4.3662   4.3830   4.3833   4.4139   4.4385
     4.4501   4.5128   4.5601   4.6054   4.6121   4.6128   4.7835   4.8240
     4.9415   4.9487   4.9717   4.9724   5.0047   5.0246   5.0946   5.1743
     5.1795   5.2300   5.3155   5.3270   5.3277   5.3393   5.3403   5.3465
     5.3497   5.3917   5.4156   5.4172   5.5748   5.6170   5.6242   5.6560
     5.6768   5.7045   5.7540   5.8552   5.8615   5.8744   5.8814   5.9054
     5.9311   5.9877   6.0108   6.0498   6.0588   6.1923   6.1980   6.2347
     6.2399   6.2423   6.3126   6.3179   6.3576   6.4075   6.4330   6.4410
     6.4930   6.5662   6.5929   6.6206   6.6318   6.6338   6.6381   6.6429
     6.6779   6.7143   6.7223   6.7657   6.7743   6.7783   6.8150   6.8747
     6.8978   6.9262   6.9340   7.0024   7.0800   7.0874   7.0954   7.0961
     7.1260   7.1401   7.1765   7.2356   7.2744   7.3305   7.3738   7.3767
     7.4565   7.4731   7.4856   7.4972   7.5338   7.5625   7.5744   7.6026
     7.6199   7.6248   7.6617   7.6672   7.7320   7.7540   7.7888   7.8723
     7.9410   7.9653   7.9698   7.9833   7.9901   8.0253   8.0649   8.0903
     8.0964   8.1320   8.1413   8.1565   8.1897   8.1935   8.2002   8.2342
     8.2434   8.3156   8.4036   8.4048   8.4049   8.4535   8.4689   8.5327
     8.5546   8.5610   8.5648   8.5704   8.5827   8.6043   8.6383   8.6552
     8.6578   8.6663   8.7251   8.7269   8.7390   8.7395   8.7802   8.7948
     8.8079   8.8288   8.8380   8.9176   8.9207   8.9812   9.0174   9.0582
     9.0689   9.0700   9.0736   9.0858   9.1544   9.3679   9.4457   9.4927
     9.5837   9.8452   9.8508  10.0684  10.3703  10.3774  10.5343  10.7427
    11.1975  11.3542  11.4200  11.7361  11.9192  12.4016  12.4077  12.4681
    12.5934  12.9964  13.1694  13.6054  14.0943  14.1512  14.3491  14.4289
    14.5247  14.5656  14.6514  14.7833  14.8318  15.3371  15.5913  16.1028
    16.1205  16.2092  16.3491  16.5061  16.5958  16.8851  16.9852  17.0239
    17.2422  17.2512  17.4759  17.5473  17.7068  18.1076  18.1783  18.3120
    18.3324  18.3990

          k = 0.0556 0.2778 0.2263 ( 56704 PWs)   bands (ev):

   -75.0837 -75.0719 -75.0628 -75.0589 -75.0581 -75.0555 -75.0531 -75.0514
   -75.0501 -75.0499 -75.0490 -75.0468 -75.0457 -75.0421 -75.0397 -75.0383
   -74.4925 -74.4925 -74.4848 -74.4848 -74.4794 -74.4794 -74.4788 -74.4787
   -74.4776 -74.4776 -74.4769 -74.4769 -74.4714 -74.4714 -74.4636 -74.4636
   -40.9134 -40.9121 -40.9094 -40.9085 -40.8986 -40.8981 -40.8959 -40.8762
   -40.8745 -40.8742 -40.8666 -40.8631 -40.8530 -40.8529 -40.8174 -40.8106
   -40.7947 -40.7940 -40.7745 -40.7682 -40.7682 -40.7658 -40.7647 -40.7637
   -40.7623 -40.7581 -40.7575 -40.7541 -40.7505 -40.7483 -40.7448 -40.7384
   -40.7174 -40.7125 -40.7098 -40.7051 -40.6984 -40.6965 -40.6931 -40.6896
   -40.6869 -40.6842 -40.6735 -40.6708 -40.6630 -40.6538 -40.6535 -40.6450
   -40.3626 -40.3612 -40.3570 -40.3548 -40.3515 -40.3511 -40.3443 -40.3439
   -40.3187 -40.3180 -40.3142 -40.3135 -40.3055 -40.3043 -40.2987 -40.2978
   -40.2413 -40.2406 -40.2343 -40.2339 -40.2249 -40.2247 -40.2202 -40.2200
   -40.1939 -40.1938 -40.1863 -40.1861 -40.1811 -40.1811 -40.1745 -40.1745
   -40.0950 -40.0927 -40.0867 -40.0865 -40.0825 -40.0819 -40.0817 -40.0809
   -40.0808 -40.0805 -40.0801 -40.0799 -40.0763 -40.0763 -40.0711 -40.0710
     2.9360   4.0222   4.1781   4.3662   4.3830   4.3833   4.4139   4.4385
     4.4501   4.5128   4.5600   4.6054   4.6121   4.6128   4.7835   4.8240
     4.9415   4.9486   4.9717   4.9724   5.0047   5.0247   5.0946   5.1743
     5.1795   5.2299   5.3154   5.3270   5.3277   5.3393   5.3403   5.3465
     5.3497   5.3917   5.4156   5.4171   5.5748   5.6170   5.6242   5.6560
     5.6768   5.7045   5.7540   5.8552   5.8615   5.8745   5.8814   5.9053
     5.9311   5.9877   6.0107   6.0498   6.0588   6.1923   6.1980   6.2347
     6.2400   6.2423   6.3126   6.3179   6.3576   6.4075   6.4330   6.4410
     6.4930   6.5662   6.5929   6.6206   6.6319   6.6338   6.6381   6.6429
     6.6779   6.7144   6.7223   6.7658   6.7743   6.7782   6.8150   6.8747
     6.8979   6.9263   6.9341   7.0024   7.0801   7.0875   7.0954   7.0968
     7.1260   7.1401   7.1765   7.2350   7.2746   7.3306   7.3738   7.3764
     7.4566   7.4731   7.4854   7.4964   7.5336   7.5625   7.5744   7.6025
     7.6198   7.6248   7.6619   7.6670   7.7323   7.7540   7.7888   7.8724
     7.9411   7.9661   7.9698   7.9832   7.9898   8.0240   8.0647   8.0901
     8.0971   8.1319   8.1412   8.1565   8.1897   8.1933   8.2002   8.2338
     8.2434   8.3168   8.4039   8.4048   8.4058   8.4527   8.4698   8.5327
     8.5547   8.5609   8.5653   8.5704   8.5827   8.6043   8.6374   8.6554
     8.6579   8.6691   8.7246   8.7269   8.7394   8.7396   8.7802   8.7949
     8.8080   8.8286   8.8381   8.9174   8.9207   8.9780   9.0174   9.0582
     9.0700   9.0736   9.0745   9.0858   9.1551   9.3679   9.4457   9.4934
     9.5813   9.8446   9.8507  10.0661  10.3773  10.3811  10.5337  10.6994
    11.1950  11.3648  11.4259  11.7401  11.9297  12.4081  12.4133  12.4983
    12.5913  12.9893  13.1804  13.5486  14.0946  14.0951  14.4266  14.5378
    14.5398  14.5497  14.6244  14.6942  14.7978  15.2791  15.8420  15.8433
    16.2074  16.2967  16.3935  16.5170  16.5962  16.8110  16.9787  17.0015
    17.0747  17.3553  17.5312  17.6126  17.9101  17.9422  18.1628  18.1830
    18.2937  18.2962

          k = 0.0556 0.2778-0.2909 ( 56690 PWs)   bands (ev):

   -75.0837 -75.0719 -75.0628 -75.0589 -75.0581 -75.0555 -75.0531 -75.0514
   -75.0501 -75.0499 -75.0490 -75.0468 -75.0457 -75.0421 -75.0397 -75.0383
   -74.4925 -74.4925 -74.4848 -74.4848 -74.4794 -74.4794 -74.4788 -74.4787
   -74.4776 -74.4776 -74.4769 -74.4769 -74.4714 -74.4714 -74.4636 -74.4636
   -40.9134 -40.9120 -40.9094 -40.9085 -40.8986 -40.8981 -40.8959 -40.8762
   -40.8745 -40.8742 -40.8666 -40.8631 -40.8530 -40.8529 -40.8174 -40.8106
   -40.7947 -40.7940 -40.7745 -40.7682 -40.7682 -40.7658 -40.7647 -40.7637
   -40.7623 -40.7581 -40.7574 -40.7541 -40.7505 -40.7483 -40.7448 -40.7384
   -40.7174 -40.7125 -40.7098 -40.7051 -40.6984 -40.6965 -40.6931 -40.6896
   -40.6869 -40.6841 -40.6735 -40.6708 -40.6630 -40.6538 -40.6536 -40.6450
   -40.3626 -40.3612 -40.3570 -40.3548 -40.3515 -40.3511 -40.3442 -40.3439
   -40.3187 -40.3180 -40.3142 -40.3136 -40.3055 -40.3043 -40.2987 -40.2978
   -40.2413 -40.2406 -40.2343 -40.2339 -40.2249 -40.2247 -40.2202 -40.2200
   -40.1939 -40.1938 -40.1863 -40.1861 -40.1811 -40.1810 -40.1745 -40.1745
   -40.0950 -40.0927 -40.0867 -40.0865 -40.0825 -40.0818 -40.0817 -40.0809
   -40.0808 -40.0805 -40.0802 -40.0799 -40.0763 -40.0763 -40.0711 -40.0710
     2.9360   4.0222   4.1780   4.3662   4.3830   4.3833   4.4139   4.4385
     4.4501   4.5128   4.5599   4.6054   4.6121   4.6128   4.7835   4.8240
     4.9415   4.9486   4.9717   4.9724   5.0047   5.0247   5.0946   5.1743
     5.1795   5.2299   5.3154   5.3270   5.3277   5.3393   5.3403   5.3465
     5.3497   5.3917   5.4156   5.4171   5.5748   5.6170   5.6241   5.6560
     5.6768   5.7045   5.7540   5.8552   5.8615   5.8745   5.8814   5.9053
     5.9311   5.9877   6.0107   6.0498   6.0588   6.1923   6.1980   6.2347
     6.2401   6.2423   6.3126   6.3179   6.3576   6.4075   6.4330   6.4410
     6.4930   6.5662   6.5929   6.6206   6.6319   6.6338   6.6381   6.6429
     6.6780   6.7144   6.7223   6.7658   6.7743   6.7782   6.8150   6.8748
     6.8979   6.9263   6.9342   7.0023   7.0801   7.0875   7.0954   7.0970
     7.1260   7.1401   7.1765   7.2348   7.2746   7.3307   7.3739   7.3763
     7.4566   7.4731   7.4853   7.4961   7.5336   7.5626   7.5744   7.6024
     7.6197   7.6249   7.6620   7.6669   7.7324   7.7540   7.7887   7.8724
     7.9411   7.9664   7.9698   7.9831   7.9898   8.0235   8.0646   8.0900
     8.0974   8.1319   8.1413   8.1564   8.1897   8.1933   8.2002   8.2337
     8.2433   8.3172   8.4040   8.4048   8.4062   8.4523   8.4701   8.5326
     8.5547   8.5609   8.5655   8.5704   8.5827   8.6042   8.6371   8.6555
     8.6579   8.6702   8.7245   8.7269   8.7395   8.7396   8.7802   8.7949
     8.8080   8.8285   8.8381   8.9173   8.9207   8.9767   9.0174   9.0582
     9.0700   9.0736   9.0767   9.0858   9.1554   9.3680   9.4457   9.4937
     9.5803   9.8443   9.8507  10.0652  10.3773  10.3854  10.5334  10.6830
    11.1941  11.3690  11.4282  11.7417  11.9339  12.3928  12.4083  12.5376
    12.5905  12.9865  13.1848  13.5273  14.0742  14.0948  14.4257  14.5279
    14.5492  14.6103  14.6400  14.6478  14.8026  15.2576  15.7173  15.9890
    16.2067  16.3247  16.4966  16.5213  16.5964  16.6761  16.9384  16.9955
    17.1091  17.2255  17.7229  17.7412  17.9018  17.9615  17.9916  18.1782
    18.3351  18.3795

          k = 0.0556 0.3889 0.0323 ( 56757 PWs)   bands (ev):

   -75.0815 -75.0756 -75.0620 -75.0596 -75.0583 -75.0566 -75.0524 -75.0503
   -75.0490 -75.0487 -75.0477 -75.0474 -75.0465 -75.0418 -75.0409 -75.0390
   -74.4911 -74.4911 -74.4872 -74.4872 -74.4793 -74.4793 -74.4790 -74.4789
   -74.4773 -74.4773 -74.4770 -74.4770 -74.4689 -74.4689 -74.4650 -74.4650
   -40.9050 -40.9040 -40.9002 -40.8993 -40.8922 -40.8912 -40.8897 -40.8841
   -40.8820 -40.8819 -40.8795 -40.8738 -40.8706 -40.8667 -40.8188 -40.8148
   -40.7876 -40.7831 -40.7764 -40.7712 -40.7677 -40.7663 -40.7663 -40.7655
   -40.7635 -40.7599 -40.7540 -40.7495 -40.7444 -40.7430 -40.7408 -40.7359
   -40.7259 -40.7214 -40.6970 -40.6932 -40.6923 -40.6916 -40.6915 -40.6866
   -40.6835 -40.6792 -40.6777 -40.6717 -40.6705 -40.6644 -40.6590 -40.6518
   -40.3554 -40.3537 -40.3475 -40.3453 -40.3451 -40.3447 -40.3356 -40.3350
   -40.3332 -40.3319 -40.3264 -40.3257 -40.3214 -40.3196 -40.3124 -40.3116
   -40.2273 -40.2266 -40.2183 -40.2180 -40.2123 -40.2122 -40.2056 -40.2054
   -40.2031 -40.2029 -40.1927 -40.1926 -40.1912 -40.1911 -40.1823 -40.1822
   -40.0933 -40.0916 -40.0889 -40.0886 -40.0824 -40.0821 -40.0815 -40.0810
   -40.0807 -40.0806 -40.0800 -40.0799 -40.0747 -40.0746 -40.0721 -40.0719
     3.1368   3.6953   4.3304   4.4452   4.4670   4.5007   4.5027   4.5258
     4.5485   4.5769   4.6305   4.6762   4.6925   4.7009   4.7171   4.7206
     4.7305   4.7687   4.8089   4.8146   4.8782   4.9342   4.9774   5.0500
     5.1585   5.2843   5.3325   5.3342   5.3508   5.3567   5.3681   5.3827
     5.4281   5.4401   5.4496   5.4505   5.4615   5.5727   5.6262   5.6347
     5.6569   5.6921   5.7297   5.7394   5.7666   5.7891   5.8239   5.8362
     5.8441   5.8861   6.0594   6.1144   6.1896   6.2187   6.2379   6.2585
     6.2789   6.3197   6.4029   6.4036   6.4037   6.4274   6.4506   6.4580
     6.5450   6.5584   6.6268   6.6281   6.6285   6.6617   6.6659   6.6671
     6.6713   6.6834   6.6897   6.7342   6.7419   6.8237   6.8340   6.8483
     6.8615   6.8848   6.9170   6.9250   6.9321   6.9993   7.0006   7.0408
     7.0793   7.0868   7.3013   7.3140   7.3261   7.3567   7.3996   7.4216
     7.4432   7.4921   7.5077   7.5452   7.5837   7.5853   7.5882   7.5973
     7.5977   7.6073   7.6785   7.6840   7.8091   7.8154   7.8230   7.8670
     7.8936   7.9243   7.9918   8.0165   8.0213   8.0537   8.0538   8.0802
     8.1187   8.1355   8.1395   8.2095   8.2445   8.3042   8.3112   8.3402
     8.3696   8.3953   8.4165   8.4306   8.4406   8.4516   8.4758   8.4839
     8.5466   8.5560   8.5747   8.5854   8.5855   8.6229   8.6445   8.6511
     8.6623   8.6633   8.6800   8.7025   8.7226   8.7270   8.7425   8.7546
     8.7950   8.8048   8.8221   8.8412   8.8424   8.8625   8.9183   9.0024
     9.0945   9.1011   9.1268   9.1601   9.2501   9.2607   9.2915   9.4734
     9.5968   9.6942   9.9350   9.9683  10.1319  10.1409  10.3596  11.2064
    11.3589  11.4103  11.6515  11.8874  11.9255  11.9306  12.0949  12.6373
    13.3022  13.5152  13.5575  13.5778  13.7785  13.8910  14.2393  14.6290
    14.8151  14.8332  14.9245  15.1389  15.3625  15.3671  15.5267  15.5670
    15.7770  15.8976  16.0175  16.1483  16.1556  16.6256  16.6327  16.9416
    16.9950  17.3080  17.4316  17.5396  17.6488  17.7427  17.7498  17.7818
    18.1393  18.4562

          k = 0.0556 0.3889 0.0970 ( 56743 PWs)   bands (ev):

   -75.0815 -75.0756 -75.0620 -75.0596 -75.0583 -75.0566 -75.0524 -75.0503
   -75.0490 -75.0487 -75.0477 -75.0474 -75.0465 -75.0418 -75.0409 -75.0390
   -74.4911 -74.4911 -74.4872 -74.4872 -74.4793 -74.4793 -74.4790 -74.4789
   -74.4773 -74.4773 -74.4770 -74.4770 -74.4689 -74.4689 -74.4650 -74.4650
   -40.9050 -40.9040 -40.9002 -40.8993 -40.8922 -40.8912 -40.8898 -40.8841
   -40.8820 -40.8819 -40.8795 -40.8738 -40.8706 -40.8667 -40.8188 -40.8149
   -40.7876 -40.7831 -40.7764 -40.7712 -40.7677 -40.7663 -40.7663 -40.7654
   -40.7635 -40.7599 -40.7540 -40.7495 -40.7444 -40.7430 -40.7408 -40.7359
   -40.7259 -40.7214 -40.6970 -40.6932 -40.6923 -40.6916 -40.6915 -40.6866
   -40.6835 -40.6792 -40.6776 -40.6717 -40.6705 -40.6643 -40.6590 -40.6518
   -40.3554 -40.3537 -40.3475 -40.3454 -40.3451 -40.3448 -40.3356 -40.3350
   -40.3331 -40.3319 -40.3264 -40.3257 -40.3214 -40.3196 -40.3124 -40.3116
   -40.2272 -40.2266 -40.2183 -40.2180 -40.2123 -40.2122 -40.2056 -40.2054
   -40.2031 -40.2029 -40.1927 -40.1926 -40.1912 -40.1911 -40.1823 -40.1822
   -40.0933 -40.0916 -40.0889 -40.0886 -40.0824 -40.0821 -40.0815 -40.0810
   -40.0807 -40.0806 -40.0799 -40.0799 -40.0747 -40.0746 -40.0721 -40.0719
     3.1368   3.6953   4.3303   4.4452   4.4670   4.5007   4.5027   4.5258
     4.5485   4.5769   4.6305   4.6762   4.6925   4.7008   4.7172   4.7206
     4.7305   4.7687   4.8089   4.8146   4.8782   4.9342   4.9774   5.0499
     5.1586   5.2843   5.3325   5.3343   5.3508   5.3567   5.3681   5.3827
     5.4281   5.4401   5.4496   5.4505   5.4615   5.5727   5.6262   5.6347
     5.6569   5.6921   5.7297   5.7394   5.7666   5.7891   5.8239   5.8362
     5.8441   5.8861   6.0594   6.1144   6.1896   6.2187   6.2379   6.2585
     6.2789   6.3197   6.4030   6.4036   6.4037   6.4273   6.4506   6.4582
     6.5450   6.5584   6.6269   6.6281   6.6285   6.6617   6.6658   6.6671
     6.6713   6.6835   6.6897   6.7342   6.7419   6.8237   6.8341   6.8483
     6.8615   6.8852   6.9170   6.9250   6.9321   6.9993   7.0006   7.0408
     7.0793   7.0868   7.3013   7.3136   7.3262   7.3567   7.3996   7.4216
     7.4430   7.4920   7.5077   7.5452   7.5837   7.5849   7.5882   7.5973
     7.5974   7.6072   7.6785   7.6840   7.8091   7.8152   7.8218   7.8667
     7.8940   7.9244   7.9918   8.0166   8.0213   8.0537   8.0538   8.0802
     8.1186   8.1355   8.1395   8.2112   8.2444   8.3046   8.3112   8.3401
     8.3693   8.3953   8.4164   8.4306   8.4400   8.4523   8.4758   8.4839
     8.5471   8.5576   8.5750   8.5854   8.5858   8.6229   8.6444   8.6497
     8.6622   8.6634   8.6800   8.7025   8.7225   8.7270   8.7425   8.7544
     8.7947   8.8024   8.8221   8.8410   8.8424   8.8625   8.9183   9.0024
     9.0945   9.1011   9.1270   9.1600   9.2502   9.2669   9.2915   9.4734
     9.5953   9.6934   9.9426   9.9683  10.1304  10.1413  10.3588  11.1671
    11.3661  11.4159  11.6519  11.8921  11.9287  11.9325  12.0489  12.7162
    13.2978  13.4987  13.5760  13.6607  13.7315  13.8990  14.1990  14.6293
    14.7804  14.7941  14.9493  15.1867  15.2390  15.4768  15.5083  15.5750
    15.8819  15.8967  15.9646  16.0180  16.1054  16.6312  16.6994  17.0079
    17.0185  17.2693  17.4678  17.6051  17.6233  17.7848  17.7928  17.9136
    18.1442  18.5079

          k = 0.0556 0.3889 0.1616 ( 56740 PWs)   bands (ev):

   -75.0815 -75.0756 -75.0620 -75.0596 -75.0583 -75.0566 -75.0524 -75.0503
   -75.0490 -75.0487 -75.0477 -75.0474 -75.0465 -75.0418 -75.0409 -75.0390
   -74.4911 -74.4911 -74.4872 -74.4872 -74.4793 -74.4793 -74.4790 -74.4789
   -74.4773 -74.4773 -74.4770 -74.4770 -74.4689 -74.4689 -74.4650 -74.4650
   -40.9050 -40.9040 -40.9002 -40.8993 -40.8922 -40.8913 -40.8898 -40.8841
   -40.8820 -40.8819 -40.8796 -40.8738 -40.8707 -40.8667 -40.8188 -40.8149
   -40.7876 -40.7831 -40.7763 -40.7712 -40.7677 -40.7664 -40.7663 -40.7655
   -40.7635 -40.7598 -40.7540 -40.7495 -40.7444 -40.7430 -40.7409 -40.7359
   -40.7259 -40.7213 -40.6970 -40.6932 -40.6923 -40.6916 -40.6915 -40.6866
   -40.6835 -40.6793 -40.6776 -40.6717 -40.6705 -40.6644 -40.6590 -40.6518
[...]
     7.5180   7.5180   7.5180   7.5180   7.5181   7.5181   7.5181   7.5181
     7.5533   7.5533   7.5533   7.5533   7.5533   7.5533   7.5533   7.5533
     7.5650   7.5650   7.5650   7.5650   7.7877   7.7877   7.7877   7.7878
     8.1350   8.1350   8.1350   8.1350   8.1350   8.1350   8.1350   8.1350
     8.1431   8.1431   8.1431   8.1431   8.2685   8.2685   8.2685   8.2685
     8.3949   8.3949   8.3950   8.3950   8.6049   8.6049   8.6049   8.6049
     8.7348   8.7348   8.7348   8.7348   8.7348   8.7348   8.7348   8.7348
     9.0298   9.0298   9.0298   9.0298   9.0795   9.0795   9.0795   9.0795
     9.0795   9.0795   9.0795   9.0795   9.0981   9.0981   9.0981   9.0981
     9.8673   9.8673   9.8673   9.8673  12.3063  12.3063  12.3063  12.3063
    12.3302  12.3302  12.3302  12.3302  12.3302  12.3302  12.3302  12.3302
    13.4630  13.4631  13.4631  13.4631  13.4631  13.4631  13.4631  13.4631
    14.1007  14.1008  14.1008  14.1008  15.4661  15.4661  15.4661  15.4661
    15.4661  15.4661  15.4661  15.4661  16.3405  16.3405  16.3405  16.3405
    17.6826  17.6826  17.6826  17.6826  17.9797  17.9797  17.9797  17.9797
    17.9797  17.9797

          k =-0.5000-0.5000 0.1616 ( 56748 PWs)   bands (ev):

   -75.0865 -75.0865 -75.0865 -75.0865 -75.0635 -75.0635 -75.0635 -75.0635
   -75.0587 -75.0587 -75.0587 -75.0587 -75.0587 -75.0587 -75.0587 -75.0587
   -74.4991 -74.4991 -74.4991 -74.4991 -74.4990 -74.4990 -74.4990 -74.4990
   -74.4831 -74.4831 -74.4831 -74.4831 -74.4831 -74.4830 -74.4830 -74.4830
   -40.9124 -40.9124 -40.9124 -40.9124 -40.9124 -40.9124 -40.9124 -40.9124
   -40.9017 -40.9017 -40.9017 -40.9017 -40.8490 -40.8490 -40.8490 -40.8490
   -40.7890 -40.7890 -40.7890 -40.7890 -40.7890 -40.7890 -40.7890 -40.7890
   -40.7466 -40.7466 -40.7466 -40.7466 -40.7450 -40.7450 -40.7450 -40.7450
   -40.7450 -40.7450 -40.7450 -40.7450 -40.7252 -40.7252 -40.7252 -40.7252
   -40.7029 -40.7029 -40.7028 -40.7028 -40.6527 -40.6527 -40.6527 -40.6527
   -40.3733 -40.3733 -40.3733 -40.3733 -40.3733 -40.3733 -40.3733 -40.3733
   -40.2903 -40.2903 -40.2903 -40.2903 -40.2875 -40.2875 -40.2875 -40.2875
   -40.2758 -40.2758 -40.2758 -40.2758 -40.2757 -40.2757 -40.2757 -40.2757
   -40.1874 -40.1874 -40.1874 -40.1874 -40.1872 -40.1872 -40.1872 -40.1872
   -40.1008 -40.1008 -40.1008 -40.1008 -40.1000 -40.1000 -40.1000 -40.1000
   -40.0888 -40.0888 -40.0888 -40.0888 -40.0888 -40.0888 -40.0888 -40.0887
     3.8158   3.8159   3.8159   3.8159   4.4413   4.4413   4.4413   4.4413
     4.7681   4.7681   4.7681   4.7681   4.7682   4.7682   4.7682   4.7682
     4.8775   4.8775   4.8775   4.8775   4.9393   4.9393   4.9393   4.9393
     4.9393   4.9393   4.9393   4.9393   5.0256   5.0256   5.0256   5.0256
     5.3183   5.3184   5.3184   5.3184   5.6324   5.6324   5.6324   5.6324
     5.6325   5.6325   5.6325   5.6325   5.9416   5.9416   5.9416   5.9416
     5.9416   5.9416   5.9416   5.9416   6.1135   6.1135   6.1135   6.1135
     6.3470   6.3470   6.3470   6.3470   6.6052   6.6052   6.6052   6.6052
     6.7169   6.7169   6.7169   6.7169   6.7250   6.7250   6.7250   6.7250
     6.8062   6.8062   6.8062   6.8062   6.9197   6.9197   6.9197   6.9197
     6.9197   6.9197   6.9197   6.9197   6.9455   6.9455   6.9455   6.9455
     7.2635   7.2635   7.2635   7.2635   7.3939   7.3939   7.3939   7.3939
     7.5180   7.5181   7.5181   7.5181   7.5181   7.5181   7.5181   7.5181
     7.5533   7.5533   7.5533   7.5533   7.5533   7.5533   7.5533   7.5534
     7.5650   7.5650   7.5650   7.5650   7.7877   7.7877   7.7877   7.7877
     8.1348   8.1348   8.1348   8.1348   8.1349   8.1349   8.1349   8.1349
     8.1436   8.1436   8.1436   8.1436   8.2653   8.2653   8.2653   8.2653
     8.3950   8.3950   8.3950   8.3950   8.6049   8.6049   8.6049   8.6049
     8.7349   8.7349   8.7349   8.7349   8.7349   8.7349   8.7349   8.7349
     9.0298   9.0298   9.0298   9.0298   9.0795   9.0795   9.0795   9.0795
     9.0795   9.0795   9.0795   9.0795   9.0980   9.0980   9.0980   9.0980
     9.8793   9.8793   9.8793   9.8793  12.2425  12.2425  12.2425  12.2425
    12.3305  12.3305  12.3305  12.3305  12.3305  12.3305  12.3305  12.3305
    13.4615  13.4615  13.4616  13.4616  13.4616  13.4616  13.4616  13.4616
    14.2871  14.2871  14.2871  14.2871  15.4733  15.4733  15.4733  15.4733
    15.4733  15.4733  15.4734  15.4734  16.0409  16.0409  16.0409  16.0409
    17.6845  17.6845  17.6845  17.6845  17.9056  17.9056  17.9056  17.9056
    17.9056  17.9056

          k =-0.5000-0.5000 0.2263 ( 56680 PWs)   bands (ev):

   -75.0865 -75.0865 -75.0865 -75.0865 -75.0635 -75.0635 -75.0635 -75.0635
   -75.0587 -75.0587 -75.0587 -75.0587 -75.0587 -75.0587 -75.0587 -75.0587
   -74.4991 -74.4991 -74.4991 -74.4991 -74.4990 -74.4990 -74.4990 -74.4990
   -74.4831 -74.4831 -74.4831 -74.4831 -74.4831 -74.4830 -74.4830 -74.4830
   -40.9124 -40.9124 -40.9124 -40.9124 -40.9123 -40.9123 -40.9123 -40.9123
   -40.9018 -40.9017 -40.9017 -40.9017 -40.8490 -40.8490 -40.8490 -40.8490
   -40.7890 -40.7890 -40.7890 -40.7890 -40.7889 -40.7889 -40.7889 -40.7889
   -40.7466 -40.7466 -40.7466 -40.7466 -40.7450 -40.7450 -40.7450 -40.7450
   -40.7449 -40.7449 -40.7449 -40.7449 -40.7252 -40.7252 -40.7252 -40.7252
   -40.7028 -40.7028 -40.7028 -40.7028 -40.6527 -40.6527 -40.6527 -40.6527
   -40.3733 -40.3733 -40.3733 -40.3733 -40.3733 -40.3733 -40.3733 -40.3733
   -40.2903 -40.2903 -40.2903 -40.2903 -40.2875 -40.2875 -40.2875 -40.2875
   -40.2757 -40.2757 -40.2757 -40.2757 -40.2757 -40.2757 -40.2757 -40.2757
   -40.1874 -40.1874 -40.1874 -40.1874 -40.1872 -40.1872 -40.1872 -40.1872
   -40.1008 -40.1008 -40.1008 -40.1008 -40.1000 -40.1000 -40.1000 -40.1000
   -40.0888 -40.0888 -40.0888 -40.0888 -40.0887 -40.0887 -40.0887 -40.0887
     3.8159   3.8159   3.8159   3.8159   4.4413   4.4413   4.4413   4.4413
     4.7681   4.7681   4.7681   4.7681   4.7682   4.7682   4.7682   4.7682
     4.8774   4.8774   4.8774   4.8774   4.9393   4.9393   4.9393   4.9393
     4.9393   4.9393   4.9393   4.9393   5.0257   5.0257   5.0257   5.0257
     5.3183   5.3183   5.3183   5.3183   5.6324   5.6324   5.6324   5.6324
     5.6325   5.6325   5.6325   5.6325   5.9416   5.9416   5.9416   5.9416
     5.9416   5.9416   5.9416   5.9416   6.1135   6.1135   6.1135   6.1135
     6.3470   6.3470   6.3471   6.3471   6.6052   6.6052   6.6052   6.6052
     6.7169   6.7169   6.7169   6.7169   6.7249   6.7249   6.7249   6.7249
     6.8064   6.8064   6.8065   6.8065   6.9197   6.9197   6.9197   6.9197
     6.9197   6.9197   6.9197   6.9197   6.9455   6.9455   6.9455   6.9455
     7.2633   7.2633   7.2633   7.2633   7.3941   7.3941   7.3941   7.3941
     7.5181   7.5181   7.5181   7.5181   7.5181   7.5181   7.5181   7.5181
     7.5534   7.5534   7.5534   7.5534   7.5534   7.5534   7.5534   7.5534
     7.5650   7.5650   7.5650   7.5650   7.7877   7.7877   7.7877   7.7877
     8.1347   8.1347   8.1347   8.1347   8.1347   8.1347   8.1347   8.1347
     8.1440   8.1441   8.1441   8.1441   8.2625   8.2625   8.2625   8.2625
     8.3950   8.3950   8.3950   8.3950   8.6049   8.6049   8.6049   8.6049
     8.7350   8.7350   8.7350   8.7350   8.7350   8.7350   8.7350   8.7350
     9.0298   9.0298   9.0298   9.0298   9.0796   9.0796   9.0796   9.0796
     9.0796   9.0796   9.0796   9.0796   9.0980   9.0980   9.0980   9.0980
     9.8901   9.8901   9.8901   9.8901  12.1909  12.1909  12.1909  12.1909
    12.3308  12.3308  12.3308  12.3308  12.3308  12.3308  12.3308  12.3308
    13.4602  13.4602  13.4602  13.4602  13.4602  13.4602  13.4602  13.4602
    14.4859  14.4859  14.4859  14.4859  15.4798  15.4798  15.4798  15.4798
    15.4798  15.4798  15.4798  15.4798  15.7654  15.7654  15.7654  15.7654
    17.6857  17.6857  17.6857  17.6857  17.8491  17.8491  17.8491  17.8492
    17.8492  17.8492

          k =-0.5000-0.5000-0.2909 ( 56688 PWs)   bands (ev):

   -75.0865 -75.0865 -75.0865 -75.0865 -75.0635 -75.0635 -75.0635 -75.0635
   -75.0587 -75.0587 -75.0587 -75.0587 -75.0587 -75.0587 -75.0587 -75.0587
   -74.4991 -74.4991 -74.4991 -74.4991 -74.4990 -74.4990 -74.4990 -74.4990
   -74.4831 -74.4831 -74.4831 -74.4831 -74.4831 -74.4830 -74.4830 -74.4830
   -40.9124 -40.9124 -40.9124 -40.9124 -40.9124 -40.9124 -40.9124 -40.9124
   -40.9018 -40.9017 -40.9017 -40.9017 -40.8490 -40.8490 -40.8490 -40.8490
   -40.7890 -40.7890 -40.7890 -40.7890 -40.7889 -40.7889 -40.7889 -40.7889
   -40.7466 -40.7466 -40.7466 -40.7466 -40.7450 -40.7450 -40.7450 -40.7450
   -40.7449 -40.7449 -40.7449 -40.7449 -40.7252 -40.7252 -40.7252 -40.7252
   -40.7028 -40.7028 -40.7028 -40.7028 -40.6527 -40.6527 -40.6527 -40.6527
   -40.3733 -40.3733 -40.3733 -40.3733 -40.3733 -40.3733 -40.3733 -40.3733
   -40.2903 -40.2903 -40.2903 -40.2903 -40.2875 -40.2875 -40.2875 -40.2875
   -40.2758 -40.2758 -40.2758 -40.2758 -40.2757 -40.2757 -40.2757 -40.2757
   -40.1874 -40.1874 -40.1874 -40.1874 -40.1871 -40.1871 -40.1871 -40.1871
   -40.1008 -40.1008 -40.1008 -40.1008 -40.1000 -40.1000 -40.1000 -40.1000
   -40.0888 -40.0888 -40.0888 -40.0888 -40.0887 -40.0887 -40.0887 -40.0887
     3.8159   3.8159   3.8159   3.8159   4.4413   4.4413   4.4413   4.4413
     4.7681   4.7681   4.7681   4.7681   4.7682   4.7682   4.7682   4.7682
     4.8774   4.8774   4.8774   4.8774   4.9393   4.9393   4.9393   4.9393
     4.9393   4.9393   4.9393   4.9393   5.0257   5.0257   5.0257   5.0257
     5.3183   5.3183   5.3183   5.3183   5.6324   5.6324   5.6324   5.6324
     5.6325   5.6325   5.6325   5.6325   5.9416   5.9416   5.9416   5.9416
     5.9416   5.9416   5.9416   5.9416   6.1135   6.1135   6.1135   6.1135
     6.3470   6.3470   6.3470   6.3470   6.6052   6.6052   6.6052   6.6052
     6.7169   6.7169   6.7169   6.7169   6.7249   6.7249   6.7249   6.7249
     6.8065   6.8065   6.8066   6.8066   6.9197   6.9197   6.9197   6.9197
     6.9197   6.9197   6.9197   6.9197   6.9455   6.9455   6.9455   6.9455
     7.2632   7.2632   7.2632   7.2632   7.3942   7.3942   7.3942   7.3942
     7.5181   7.5181   7.5181   7.5181   7.5181   7.5181   7.5181   7.5181
     7.5534   7.5534   7.5534   7.5534   7.5534   7.5534   7.5534   7.5534
     7.5650   7.5650   7.5650   7.5650   7.7877   7.7877   7.7877   7.7878
     8.1347   8.1347   8.1347   8.1347   8.1347   8.1347   8.1347   8.1347
     8.1442   8.1442   8.1442   8.1442   8.2614   8.2614   8.2614   8.2614
     8.3950   8.3950   8.3950   8.3950   8.6049   8.6049   8.6049   8.6049
     8.7350   8.7350   8.7350   8.7350   8.7350   8.7350   8.7350   8.7350
     9.0298   9.0298   9.0298   9.0298   9.0796   9.0796   9.0796   9.0796
     9.0796   9.0796   9.0796   9.0796   9.0981   9.0981   9.0981   9.0981
     9.8943   9.8943   9.8944   9.8944  12.1714  12.1714  12.1715  12.1715
    12.3309  12.3309  12.3309  12.3309  12.3309  12.3309  12.3309  12.3309
    13.4597  13.4597  13.4597  13.4597  13.4597  13.4597  13.4597  13.4597
    14.5837  14.5837  14.5837  14.5837  15.4823  15.4823  15.4823  15.4823
    15.4823  15.4823  15.4823  15.4823  15.6413  15.6413  15.6413  15.6413
    17.6860  17.6861  17.6861  17.6861  17.8285  17.8285  17.8285  17.8285
    17.8285  17.8285

     the Fermi energy is     9.0938 ev

!    total energy              =  -16384.05223083 Ry

     total all-electron energy =   -322944.905938 Ry
     estimated scf accuracy    <          3.6E-09 Ry
     smearing contrib. (-TS)   =       0.11996521 Ry
     internal energy E=F+TS    =  -16384.17219604 Ry

     The total energy is F=E-TS. E is the sum of the following terms:
     one-electron contribution =  -17703.79735879 Ry
     hartree contribution      =    9058.74984288 Ry
     xc contribution           =    -985.50744655 Ry
     ewald contribution        =    1413.71976581 Ry
     one-center paw contrib.   =   -8167.33699939 Ry

     convergence has been achieved in  10 iterations

     Forces acting on atoms (cartesian axes, Ry/au):

     atom    1 type  1   force =     0.00000000    0.00000000   -0.00032511
     atom    2 type  1   force =    -0.00000153   -0.00000153   -0.00031937
     atom    3 type  1   force =     0.00000279    0.00000000    0.00015907
     atom    4 type  1   force =     0.00000000    0.00000279    0.00015907
     atom    5 type  1   force =     0.00000000    0.00000000   -0.00016340
     atom    6 type  1   force =    -0.00000338   -0.00000338   -0.00016949
     atom    7 type  1   force =    -0.00000563    0.00000000    0.00032878
     atom    8 type  1   force =     0.00000000   -0.00000563    0.00032878
     atom    9 type  1   force =     0.00000000    0.00000000   -0.00032263
     atom   10 type  1   force =    -0.00000153    0.00000153   -0.00031937
     atom   11 type  1   force =    -0.00000129    0.00000000    0.00016177
     atom   12 type  1   force =     0.00000000   -0.00000279    0.00015907
     atom   13 type  1   force =     0.00000000    0.00000000   -0.00016938
     atom   14 type  1   force =    -0.00000338    0.00000338   -0.00016949
     atom   15 type  1   force =    -0.00000646    0.00000000    0.00032948
     atom   16 type  1   force =     0.00000000    0.00000563    0.00032878
     atom   17 type  1   force =     0.00000000    0.00000000   -0.00032263
     atom   18 type  1   force =     0.00000153   -0.00000153   -0.00031937
     atom   19 type  1   force =    -0.00000279    0.00000000    0.00015907
     atom   20 type  1   force =     0.00000000   -0.00000129    0.00016177
     atom   21 type  1   force =     0.00000000    0.00000000   -0.00016938
     atom   22 type  1   force =     0.00000338   -0.00000338   -0.00016949
     atom   23 type  1   force =     0.00000563    0.00000000    0.00032878
     atom   24 type  1   force =     0.00000000   -0.00000646    0.00032948
     atom   25 type  1   force =     0.00000000    0.00000000   -0.00031574
     atom   26 type  1   force =     0.00000153    0.00000153   -0.00031937
     atom   27 type  1   force =     0.00000129    0.00000000    0.00016177
     atom   28 type  1   force =     0.00000000    0.00000129    0.00016177
     atom   29 type  1   force =     0.00000000    0.00000000   -0.00017271
     atom   30 type  1   force =     0.00000338    0.00000338   -0.00016949
     atom   31 type  1   force =     0.00000646    0.00000000    0.00032948
     atom   32 type  1   force =     0.00000000    0.00000646    0.00032948

     Total force =     0.001457     Total SCF correction =     0.000299
     SCF correction compared to forces is large: reduce conv_thr to get better values


     Computing stress (Cartesian axis) and pressure

          total   stress  (Ry/bohr**3)                   (kbar)     P=      -26.24
  -0.00023905   0.00000000   0.00000000          -35.16        0.00        0.00
   0.00000000  -0.00023905   0.00000000            0.00      -35.16        0.00
   0.00000000   0.00000000  -0.00005707            0.00        0.00       -8.40

     Energy error            =      3.1E-05
     Gradient error          =      3.3E-04

     bfgs converged in   9 scf cycles and   8 bfgs steps
     (criteria: energy <  1.0E-04 Ry, force <  1.0E-03 Ry/Bohr)

     End of BFGS Geometry Optimization

     Final energy   =  -16384.0522308314 Ry

     File /scratch/cbxsqBEZCxdpLURe.bfgs deleted, as requested
Begin final coordinates

ATOMIC_POSITIONS (crystal)
Pd            0.0000000000        0.0000000000       -0.0000959166
Pd            0.2499993844        0.2499993844       -0.0000957643
Pd            0.2499976802        0.0000000000        0.1437092118
Pd            0.0000000000        0.2499976802        0.1437092118
Pd            0.0000000000        0.0000000000        0.7108377945
Pd            0.2500013038        0.2500013038        0.7108384737
Pd            0.2500012392        0.0000000000        0.8546389338
Pd            0.0000000000        0.2500012392        0.8546389338
Pd            0.0000000000        0.5000000000       -0.0000946998
Pd            0.2499993844        0.7500006156       -0.0000957643
Pd            0.2499999325        0.5000000000        0.1437079986
Pd            0.0000000000        0.7500023198        0.1437092118
Pd            0.0000000000        0.5000000000        0.7108389951
Pd            0.2500013038        0.7499986962        0.7108384737
Pd            0.2500012457        0.5000000000        0.8546396212
Pd            0.0000000000        0.7499987608        0.8546389338
Pd            0.5000000000        0.0000000000       -0.0000946998
Pd            0.7500006156        0.2499993844       -0.0000957643
Pd            0.7500023198        0.0000000000        0.1437092118
Pd            0.5000000000        0.2499999325        0.1437079986
Pd            0.5000000000        0.0000000000        0.7108389951
Pd            0.7499986962        0.2500013038        0.7108384737
Pd            0.7499987608        0.0000000000        0.8546389338
Pd            0.5000000000        0.2500012457        0.8546396212
Pd            0.5000000000        0.5000000000       -0.0000960779
Pd            0.7500006156        0.7500006156       -0.0000957643
Pd            0.7500000675        0.5000000000        0.1437079986
Pd            0.5000000000        0.7500000675        0.1437079986
Pd            0.5000000000        0.5000000000        0.7108389829
Pd            0.7499986962        0.7499986962        0.7108384737
Pd            0.7499987543        0.5000000000        0.8546396212
Pd            0.5000000000        0.7499987543        0.8546396212
End final coordinates



     Writing output data file /scratch/cbxsqBEZCxdpLURe.save/
 
     init_run     :     29.00s CPU     30.09s WALL (       1 calls)
     electrons    :  11774.68s CPU  11909.61s WALL (       9 calls)
     update_pot   :      2.33s CPU      2.41s WALL (       8 calls)
     forces       :    150.34s CPU    151.57s WALL (       9 calls)
     stress       :   1518.17s CPU   1527.62s WALL (       9 calls)

     Called by init_run:
     wfcinit      :     27.96s CPU     28.95s WALL (       1 calls)
     potinit      :      0.19s CPU      0.21s WALL (       1 calls)
     hinit0       :      0.39s CPU      0.40s WALL (       1 calls)

     Called by electrons:
     c_bands      :  10512.77s CPU  10625.72s WALL (     121 calls)
     sum_band     :   1244.36s CPU   1263.03s WALL (     121 calls)
     v_of_rho     :      2.61s CPU      2.76s WALL (     121 calls)
     newd         :      4.82s CPU      6.89s WALL (     121 calls)
     PAW_pot      :     10.64s CPU     11.23s WALL (     129 calls)
     mix_rho      :      0.76s CPU      0.85s WALL (     121 calls)

     Called by c_bands:
     init_us_2    :     76.96s CPU     77.86s WALL (   20175 calls)
     cegterg      :  10248.56s CPU  10347.99s WALL (    9075 calls)

     Called by *egterg:
     cdiaghg      :    884.18s CPU    889.26s WALL (   31105 calls)
     h_psi        :   4860.35s CPU   4922.46s WALL (   32455 calls)
     s_psi        :    556.83s CPU    560.31s WALL (   32455 calls)
     g_psi        :     19.17s CPU     19.48s WALL (   23305 calls)

     Called by h_psi:
     h_psi:calbec :    869.65s CPU    875.42s WALL (   32455 calls)
     vloc_psi     :   3397.22s CPU   3447.45s WALL (   32455 calls)
     add_vuspsi   :    549.47s CPU    554.58s WALL (   32455 calls)

     General routines
     calbec       :   1558.14s CPU   1567.94s WALL (   45505 calls)
     fft          :      2.53s CPU      2.67s WALL (    1797 calls)
     ffts         :      0.17s CPU      0.19s WALL (     242 calls)
     fftw         :   4009.40s CPU   4068.31s WALL (17284148 calls)
     interpolate  :      0.27s CPU      0.31s WALL (     121 calls)
 
     Parallel routines
     fft_scatt_xy :    303.03s CPU    307.66s WALL (17286187 calls)
     fft_scatt_yz :   3154.19s CPU   3200.77s WALL (17286187 calls)
 
     PWSCF        :      3h45m CPU      3h48m WALL

 
   This run was terminated on:  20:40:57   8Jan2022            

=------------------------------------------------------------------------------=
   JOB DONE.
=------------------------------------------------------------------------------=
