
     Program PWSCF v.6.7MaX starts on  8Jan2022 at 17:54:22 

     This program is part of the open-source Quantum ESPRESSO suite
     for quantum simulation of materials; please cite
         "P. Giannozzi et al., J. Phys.:Condens. Matter 21 395502 (2009);
         "P. Giannozzi et al., J. Phys.:Condens. Matter 29 465901 (2017);
          URL http://www.quantum-espresso.org", 
     in publications or presentations arising from this work. More details at
     http://www.quantum-espresso.org/quote

     Parallel version (MPI & OpenMP), running on      72 processor cores
     Number of MPI processes:                72
     Threads/MPI process:                     1

     MPI processes distributed on     1 nodes
     R & G space division:  proc/nbgrp/npool/nimage =      72
     Reading input from relax_15.in
Warning: card &CELL ignored
Warning: card CELL_DYNAMICS = 'BFGS', ignored
Warning: card CELL_FACTOR = 2.0, ignored
Warning: card PRESS = 0.0, ignored
Warning: card / ignored

     Current dimensions of program PWSCF are:
     Max number of different atomic species (ntypx) = 10
     Max number of k-points (npk) =  40000
     Max angular momentum in pseudopotentials (lmaxx) =  3
     file Pd.pbe-spn-kjpaw_psl.1.0.0.UPF: wavefunction(s)  4S 5S 4D renormalized

     Subspace diagonalization in iterative solution of the eigenvalue problem:
     one sub-group per band group will be used
     ELPA distributed-memory algorithm (size of sub-group:  8*  8 procs)

     Found symmetry operation: I + (  0.2500  0.2500  0.0000)
     This is a supercell, fractional translations are disabled
     Message from routine setup:
     using ibrav=0 with symmetry is DISCOURAGED, use correct ibrav instead
 
     Parallelization info
     --------------------
     sticks:   dense  smooth     PW     G-vecs:    dense   smooth      PW
     Min         104      68     18                 9816     5262     736
     Max         105      69     19                 9827     5277     747
     Sum        7521    4957   1353               707061   379575   53371
 


     bravais-lattice index     =            0
     lattice parameter (alat)  =      14.8394  a.u.
     unit-cell volume          =    4697.4118 (a.u.)^3
     number of atoms/cell      =           32
     number of atomic types    =            1
     number of electrons       =       576.00
     number of Kohn-Sham states=          346
     kinetic-energy cutoff     =      71.0000  Ry
     charge density cutoff     =     430.0000  Ry
     scf convergence threshold =      1.0E-06
     mixing beta               =       0.1000
     number of iterations used =           10  TF        mixing
     energy convergence thresh.=      1.0E-04
     force convergence thresh. =      1.0E-03
     Exchange-correlation= SLA  PW   PBX  PBC
                           (   1   4   3   4   0   0   0)
     nstep                     =           40


     celldm(1)=  14.839420  celldm(2)=   0.000000  celldm(3)=   0.000000
     celldm(4)=   0.000000  celldm(5)=   0.000000  celldm(6)=   0.000000

     crystal axes: (cart. coord. in units of alat)
               a(1) = (   1.000000   0.000000   0.000000 )  
               a(2) = (   0.000000   1.000000   0.000000 )  
               a(3) = (   0.000000   0.000000   1.437500 )  

     reciprocal axes: (cart. coord. in units 2 pi/alat)
               b(1) = (  1.000000  0.000000  0.000000 )  
               b(2) = (  0.000000  1.000000  0.000000 )  
               b(3) = (  0.000000  0.000000  0.695652 )  


     PseudoPot. # 1 for Pd read from file:
     /rds/homes/b/bxp912/pp/Pd.pbe-spn-kjpaw_psl.1.0.0.UPF
     MD5 check sum: 790f2ebce206edfd9790dcb9844eca51
     Pseudo is Projector augmented-wave + core cor, Zval = 18.0
     Generated using &quot;atomic&quot; code by A. Dal Corso  v.6.3
     Shape of augmentation charge: PSQ
     Using radial grid of 1235 points,  6 beta functions with: 
                l(1) =   0
                l(2) =   0
                l(3) =   1
                l(4) =   1
                l(5) =   2
                l(6) =   2
     Q(r) pseudized with 0 coefficients 


     atomic species   valence    mass     pseudopotential
        Pd            18.00   106.42000     Pd( 1.00)

      8 Sym. Ops. (no inversion) found



   Cartesian axes

     site n.     atom                  positions (alat units)
         1           Pd  tau(   1) = (   0.0000000   0.0000000   0.0000000  )
         2           Pd  tau(   2) = (   0.2500000   0.2500000   0.0000000  )
         3           Pd  tau(   3) = (   0.2500000   0.0000000   0.2500000  )
         4           Pd  tau(   4) = (   0.0000000   0.2500000   0.2500000  )
         5           Pd  tau(   5) = (   0.0000000   0.0000000   0.9375000  )
         6           Pd  tau(   6) = (   0.2500000   0.2500000   0.9375000  )
         7           Pd  tau(   7) = (   0.2500000   0.0000000   1.1875000  )
         8           Pd  tau(   8) = (   0.0000000   0.2500000   1.1875000  )
         9           Pd  tau(   9) = (   0.0000000   0.5000000   0.0000000  )
        10           Pd  tau(  10) = (   0.2500000   0.7500000   0.0000000  )
        11           Pd  tau(  11) = (   0.2500000   0.5000000   0.2500000  )
        12           Pd  tau(  12) = (   0.0000000   0.7500000   0.2500000  )
        13           Pd  tau(  13) = (   0.0000000   0.5000000   0.9375000  )
        14           Pd  tau(  14) = (   0.2500000   0.7500000   0.9375000  )
        15           Pd  tau(  15) = (   0.2500000   0.5000000   1.1875000  )
        16           Pd  tau(  16) = (   0.0000000   0.7500000   1.1875000  )
        17           Pd  tau(  17) = (   0.5000000   0.0000000   0.0000000  )
        18           Pd  tau(  18) = (   0.7500000   0.2500000   0.0000000  )
        19           Pd  tau(  19) = (   0.7500000   0.0000000   0.2500000  )
        20           Pd  tau(  20) = (   0.5000000   0.2500000   0.2500000  )
        21           Pd  tau(  21) = (   0.5000000   0.0000000   0.9375000  )
        22           Pd  tau(  22) = (   0.7500000   0.2500000   0.9375000  )
        23           Pd  tau(  23) = (   0.7500000   0.0000000   1.1875000  )
        24           Pd  tau(  24) = (   0.5000000   0.2500000   1.1875000  )
        25           Pd  tau(  25) = (   0.5000000   0.5000000   0.0000000  )
        26           Pd  tau(  26) = (   0.7500000   0.7500000   0.0000000  )
        27           Pd  tau(  27) = (   0.7500000   0.5000000   0.2500000  )
        28           Pd  tau(  28) = (   0.5000000   0.7500000   0.2500000  )
        29           Pd  tau(  29) = (   0.5000000   0.5000000   0.9375000  )
        30           Pd  tau(  30) = (   0.7500000   0.7500000   0.9375000  )
        31           Pd  tau(  31) = (   0.7500000   0.5000000   1.1875000  )
        32           Pd  tau(  32) = (   0.5000000   0.7500000   1.1875000  )

     number of k points=    75  Marzari-Vanderbilt smearing, width (Ry)=  0.0400
                       cart. coord. in units 2pi/alat
        k(    1) = (   0.0555556   0.0555556   0.0386473), wk =   0.0219479
        k(    2) = (   0.0555556   0.0555556   0.1159420), wk =   0.0219479
        k(    3) = (   0.0555556   0.0555556   0.1932367), wk =   0.0219479
        k(    4) = (   0.0555556   0.0555556   0.2705314), wk =   0.0219479
        k(    5) = (   0.0555556   0.0555556  -0.3478261), wk =   0.0109739
        k(    6) = (   0.0555556   0.1666667   0.0386473), wk =   0.0438957
        k(    7) = (   0.0555556   0.1666667   0.1159420), wk =   0.0438957
        k(    8) = (   0.0555556   0.1666667   0.1932367), wk =   0.0438957
        k(    9) = (   0.0555556   0.1666667   0.2705314), wk =   0.0438957
        k(   10) = (   0.0555556   0.1666667  -0.3478261), wk =   0.0219479
        k(   11) = (   0.0555556   0.2777778   0.0386473), wk =   0.0438957
        k(   12) = (   0.0555556   0.2777778   0.1159420), wk =   0.0438957
        k(   13) = (   0.0555556   0.2777778   0.1932367), wk =   0.0438957
        k(   14) = (   0.0555556   0.2777778   0.2705314), wk =   0.0438957
        k(   15) = (   0.0555556   0.2777778  -0.3478261), wk =   0.0219479
        k(   16) = (   0.0555556   0.3888889   0.0386473), wk =   0.0438957
        k(   17) = (   0.0555556   0.3888889   0.1159420), wk =   0.0438957
        k(   18) = (   0.0555556   0.3888889   0.1932367), wk =   0.0438957
        k(   19) = (   0.0555556   0.3888889   0.2705314), wk =   0.0438957
        k(   20) = (   0.0555556   0.3888889  -0.3478261), wk =   0.0219479
        k(   21) = (   0.0555556  -0.5000000   0.0386473), wk =   0.0219479
        k(   22) = (   0.0555556  -0.5000000   0.1159420), wk =   0.0219479
        k(   23) = (   0.0555556  -0.5000000   0.1932367), wk =   0.0219479
        k(   24) = (   0.0555556  -0.5000000   0.2705314), wk =   0.0219479
        k(   25) = (   0.0555556  -0.5000000  -0.3478261), wk =   0.0109739
        k(   26) = (   0.1666667   0.1666667   0.0386473), wk =   0.0219479
        k(   27) = (   0.1666667   0.1666667   0.1159420), wk =   0.0219479
        k(   28) = (   0.1666667   0.1666667   0.1932367), wk =   0.0219479
        k(   29) = (   0.1666667   0.1666667   0.2705314), wk =   0.0219479
        k(   30) = (   0.1666667   0.1666667  -0.3478261), wk =   0.0109739
        k(   31) = (   0.1666667   0.2777778   0.0386473), wk =   0.0438957
        k(   32) = (   0.1666667   0.2777778   0.1159420), wk =   0.0438957
        k(   33) = (   0.1666667   0.2777778   0.1932367), wk =   0.0438957
        k(   34) = (   0.1666667   0.2777778   0.2705314), wk =   0.0438957
        k(   35) = (   0.1666667   0.2777778  -0.3478261), wk =   0.0219479
        k(   36) = (   0.1666667   0.3888889   0.0386473), wk =   0.0438957
        k(   37) = (   0.1666667   0.3888889   0.1159420), wk =   0.0438957
        k(   38) = (   0.1666667   0.3888889   0.1932367), wk =   0.0438957
        k(   39) = (   0.1666667   0.3888889   0.2705314), wk =   0.0438957
        k(   40) = (   0.1666667   0.3888889  -0.3478261), wk =   0.0219479
        k(   41) = (   0.1666667  -0.5000000   0.0386473), wk =   0.0219479
        k(   42) = (   0.1666667  -0.5000000   0.1159420), wk =   0.0219479
        k(   43) = (   0.1666667  -0.5000000   0.1932367), wk =   0.0219479
        k(   44) = (   0.1666667  -0.5000000   0.2705314), wk =   0.0219479
        k(   45) = (   0.1666667  -0.5000000  -0.3478261), wk =   0.0109739
        k(   46) = (   0.2777778   0.2777778   0.0386473), wk =   0.0219479
        k(   47) = (   0.2777778   0.2777778   0.1159420), wk =   0.0219479
        k(   48) = (   0.2777778   0.2777778   0.1932367), wk =   0.0219479
        k(   49) = (   0.2777778   0.2777778   0.2705314), wk =   0.0219479
        k(   50) = (   0.2777778   0.2777778  -0.3478261), wk =   0.0109739
        k(   51) = (   0.2777778   0.3888889   0.0386473), wk =   0.0438957
        k(   52) = (   0.2777778   0.3888889   0.1159420), wk =   0.0438957
        k(   53) = (   0.2777778   0.3888889   0.1932367), wk =   0.0438957
        k(   54) = (   0.2777778   0.3888889   0.2705314), wk =   0.0438957
        k(   55) = (   0.2777778   0.3888889  -0.3478261), wk =   0.0219479
        k(   56) = (   0.2777778  -0.5000000   0.0386473), wk =   0.0219479
        k(   57) = (   0.2777778  -0.5000000   0.1159420), wk =   0.0219479
        k(   58) = (   0.2777778  -0.5000000   0.1932367), wk =   0.0219479
        k(   59) = (   0.2777778  -0.5000000   0.2705314), wk =   0.0219479
        k(   60) = (   0.2777778  -0.5000000  -0.3478261), wk =   0.0109739
        k(   61) = (   0.3888889   0.3888889   0.0386473), wk =   0.0219479
        k(   62) = (   0.3888889   0.3888889   0.1159420), wk =   0.0219479
        k(   63) = (   0.3888889   0.3888889   0.1932367), wk =   0.0219479
        k(   64) = (   0.3888889   0.3888889   0.2705314), wk =   0.0219479
        k(   65) = (   0.3888889   0.3888889  -0.3478261), wk =   0.0109739
        k(   66) = (   0.3888889  -0.5000000   0.0386473), wk =   0.0219479
        k(   67) = (   0.3888889  -0.5000000   0.1159420), wk =   0.0219479
        k(   68) = (   0.3888889  -0.5000000   0.1932367), wk =   0.0219479
        k(   69) = (   0.3888889  -0.5000000   0.2705314), wk =   0.0219479
        k(   70) = (   0.3888889  -0.5000000  -0.3478261), wk =   0.0109739
        k(   71) = (  -0.5000000  -0.5000000   0.0386473), wk =   0.0054870
        k(   72) = (  -0.5000000  -0.5000000   0.1159420), wk =   0.0054870
        k(   73) = (  -0.5000000  -0.5000000   0.1932367), wk =   0.0054870
        k(   74) = (  -0.5000000  -0.5000000   0.2705314), wk =   0.0054870
        k(   75) = (  -0.5000000  -0.5000000  -0.3478261), wk =   0.0027435

     Dense  grid:   707061 G-vectors     FFT dimensions: ( 100, 100, 144)

     Smooth grid:   379575 G-vectors     FFT dimensions: (  80,  80, 120)

     Estimated max dynamical RAM per process >     320.04 MB

     Estimated total dynamical RAM >      22.50 GB

     Check: negative core charge=   -0.000001

     Initial potential from superposition of free atoms

     starting charge  575.98776, renormalised to  576.00000
     Starting wfcs are  320 randomized atomic wfcs +   26 random wfcs
     Checking if some PAW data can be deallocated... 

     total cpu time spent up to now is       29.8 secs

     Self-consistent Calculation

     iteration #  1     ecut=    71.00 Ry     beta= 0.10
     Davidson diagonalization with overlap
     ethr =  1.00E-02,  avg # of iterations =  4.0

     Threshold (ethr) on eigenvalues was too large:
     Diagonalizing with lowered threshold

     Davidson diagonalization with overlap
     ethr =  7.45E-04,  avg # of iterations =  1.1

     total cpu time spent up to now is      201.7 secs

     total energy              =  -16384.82020569 Ry
     estimated scf accuracy    <       4.28209241 Ry

     iteration #  2     ecut=    71.00 Ry     beta= 0.10
     Davidson diagonalization with overlap
     ethr =  7.43E-04,  avg # of iterations =  1.0

     total cpu time spent up to now is      272.4 secs

     total energy              =  -16384.34348620 Ry
     estimated scf accuracy    <       3.86864313 Ry

     iteration #  3     ecut=    71.00 Ry     beta= 0.10
     Davidson diagonalization with overlap
     ethr =  6.72E-04,  avg # of iterations =  2.4

     total cpu time spent up to now is      350.6 secs

     total energy              =  -16384.15472573 Ry
     estimated scf accuracy    <       2.61046492 Ry

     iteration #  4     ecut=    71.00 Ry     beta= 0.10
     Davidson diagonalization with overlap
     ethr =  4.53E-04,  avg # of iterations =  4.1

     total cpu time spent up to now is      437.2 secs

     total energy              =  -16384.32135982 Ry
     estimated scf accuracy    <       0.78071228 Ry

     iteration #  5     ecut=    71.00 Ry     beta= 0.10
     Davidson diagonalization with overlap
     ethr =  1.36E-04,  avg # of iterations =  3.4

     total cpu time spent up to now is      518.6 secs

     total energy              =  -16384.02291898 Ry
     estimated scf accuracy    <       1.03016318 Ry

     iteration #  6     ecut=    71.00 Ry     beta= 0.10
     Davidson diagonalization with overlap
     ethr =  1.36E-04,  avg # of iterations =  6.0

     total cpu time spent up to now is      613.1 secs

     total energy              =  -16384.05222585 Ry
     estimated scf accuracy    <       0.24264868 Ry

     iteration #  7     ecut=    71.00 Ry     beta= 0.10
     Davidson diagonalization with overlap
     c_bands:  1 eigenvalues not converged
     c_bands:  1 eigenvalues not converged
     ethr =  4.21E-05,  avg # of iterations =  7.3

     total cpu time spent up to now is      711.9 secs

     total energy              =  -16384.04123441 Ry
     estimated scf accuracy    <       0.15988027 Ry

     iteration #  8     ecut=    71.00 Ry     beta= 0.10
     Davidson diagonalization with overlap
     ethr =  2.78E-05,  avg # of iterations =  2.1

     total cpu time spent up to now is      807.4 secs

     total energy              =  -16384.02573983 Ry
     estimated scf accuracy    <       0.09694019 Ry

     iteration #  9     ecut=    71.00 Ry     beta= 0.10
     Davidson diagonalization with overlap
     ethr =  1.68E-05,  avg # of iterations =  5.9

     total cpu time spent up to now is      899.4 secs

     total energy              =  -16384.03573719 Ry
     estimated scf accuracy    <       0.04173539 Ry

     iteration # 10     ecut=    71.00 Ry     beta= 0.10
     Davidson diagonalization with overlap
     ethr =  7.25E-06,  avg # of iterations =  1.5

     total cpu time spent up to now is      973.7 secs

     total energy              =  -16384.03849936 Ry
     estimated scf accuracy    <       0.03204656 Ry

     iteration # 11     ecut=    71.00 Ry     beta= 0.10
     Davidson diagonalization with overlap
     c_bands:  1 eigenvalues not converged
     ethr =  5.56E-06,  avg # of iterations =  3.3

     total cpu time spent up to now is     1060.0 secs

     total energy              =  -16384.04582733 Ry
     estimated scf accuracy    <       0.01477540 Ry

     iteration # 12     ecut=    71.00 Ry     beta= 0.10
     Davidson diagonalization with overlap
     ethr =  2.57E-06,  avg # of iterations =  5.0

     total cpu time spent up to now is     1153.7 secs

     total energy              =  -16384.04780015 Ry
     estimated scf accuracy    <       0.00680426 Ry

     iteration # 13     ecut=    71.00 Ry     beta= 0.10
     Davidson diagonalization with overlap
     c_bands:  3 eigenvalues not converged
     c_bands:  1 eigenvalues not converged
     c_bands:  1 eigenvalues not converged
     c_bands:  2 eigenvalues not converged
     ethr =  1.18E-06,  avg # of iterations =  5.1

     total cpu time spent up to now is     1254.9 secs

     total energy              =  -16384.05067398 Ry
     estimated scf accuracy    <       0.00909409 Ry

     iteration # 14     ecut=    71.00 Ry     beta= 0.10
     Davidson diagonalization with overlap
     ethr =  1.18E-06,  avg # of iterations =  5.6

     total cpu time spent up to now is     1350.7 secs

     total energy              =  -16384.05377558 Ry
     estimated scf accuracy    <       0.00253120 Ry

     iteration # 15     ecut=    71.00 Ry     beta= 0.10
     Davidson diagonalization with overlap
     ethr =  4.39E-07,  avg # of iterations =  2.4

     total cpu time spent up to now is     1439.3 secs

     total energy              =  -16384.05521421 Ry
     estimated scf accuracy    <       0.00076213 Ry

     iteration # 16     ecut=    71.00 Ry     beta= 0.10
     Davidson diagonalization with overlap
     ethr =  1.32E-07,  avg # of iterations =  3.5

     total cpu time spent up to now is     1531.5 secs

     total energy              =  -16384.05623342 Ry
     estimated scf accuracy    <       0.00030703 Ry

     iteration # 17     ecut=    71.00 Ry     beta= 0.10
     Davidson diagonalization with overlap
     ethr =  5.33E-08,  avg # of iterations =  4.6

     total cpu time spent up to now is     1631.9 secs

     total energy              =  -16384.05642066 Ry
     estimated scf accuracy    <       0.00025242 Ry

     iteration # 18     ecut=    71.00 Ry     beta= 0.10
     Davidson diagonalization with overlap
     ethr =  4.38E-08,  avg # of iterations =  2.3

     total cpu time spent up to now is     1723.6 secs

     total energy              =  -16384.05653160 Ry
     estimated scf accuracy    <       0.00003796 Ry

     iteration # 19     ecut=    71.00 Ry     beta= 0.10
     Davidson diagonalization with overlap
     ethr =  6.59E-09,  avg # of iterations =  2.0

     total cpu time spent up to now is     1808.2 secs

     total energy              =  -16384.05656040 Ry
     estimated scf accuracy    <       0.00001793 Ry

     iteration # 20     ecut=    71.00 Ry     beta= 0.10
     Davidson diagonalization with overlap
     ethr =  3.11E-09,  avg # of iterations =  2.0

     total cpu time spent up to now is     1891.0 secs

     total energy              =  -16384.05660039 Ry
     estimated scf accuracy    <       0.00001318 Ry

     iteration # 21     ecut=    71.00 Ry     beta= 0.10
     Davidson diagonalization with overlap
     ethr =  2.29E-09,  avg # of iterations =  2.1

     total cpu time spent up to now is     1979.8 secs

     total energy              =  -16384.05661773 Ry
     estimated scf accuracy    <       0.00000426 Ry

     iteration # 22     ecut=    71.00 Ry     beta= 0.10
     Davidson diagonalization with overlap
     ethr =  7.40E-10,  avg # of iterations =  2.8

     total cpu time spent up to now is     2075.9 secs

     total energy              =  -16384.05662071 Ry
     estimated scf accuracy    <       0.00000113 Ry

     iteration # 23     ecut=    71.00 Ry     beta= 0.10
     Davidson diagonalization with overlap
     ethr =  1.97E-10,  avg # of iterations =  2.0

     total cpu time spent up to now is     2157.5 secs

     End of self-consistent calculation

          k = 0.0556 0.0556 0.0386 ( 47382 PWs)   bands (ev):

   -72.3196 -72.2975 -72.2975 -72.2932 -72.2932 -72.2887 -72.2876 -72.2870
   -72.2870 -72.2859 -72.2800 -72.2800 -72.2786 -72.2786 -72.2713 -72.2713
   -71.7291 -71.7291 -71.7147 -71.7147 -71.7147 -71.7147 -71.7135 -71.7135
   -71.7132 -71.7132 -71.7119 -71.7119 -71.7119 -71.7119 -71.6974 -71.6973
   -38.1543 -38.1543 -38.1538 -38.1530 -38.1404 -38.1404 -38.1336 -38.0993
   -38.0993 -38.0964 -38.0964 -38.0594 -38.0594 -38.0482 -38.0482 -38.0391
   -38.0391 -38.0359 -38.0359 -38.0270 -38.0270 -37.9978 -37.9978 -37.9914
   -37.9914 -37.9913 -37.9868 -37.9868 -37.9815 -37.9771 -37.9771 -37.9632
   -37.9602 -37.9602 -37.9457 -37.9457 -37.9428 -37.9418 -37.9316 -37.9316
   -37.9264 -37.9264 -37.8928 -37.8910 -37.8910 -37.8867 -37.8746 -37.8730
   -37.6029 -37.6028 -37.6020 -37.6011 -37.5910 -37.5910 -37.5890 -37.5890
   -37.5205 -37.5205 -37.5204 -37.5204 -37.5056 -37.5056 -37.5054 -37.5054
   -37.5033 -37.5033 -37.5029 -37.5029 -37.4880 -37.4880 -37.4879 -37.4879
   -37.4174 -37.4172 -37.4159 -37.4156 -37.4040 -37.4039 -37.4026 -37.4025
   -37.3330 -37.3298 -37.3184 -37.3184 -37.3179 -37.3179 -37.3170 -37.3167
   -37.3167 -37.3166 -37.3162 -37.3162 -37.3159 -37.3159 -37.3059 -37.3059
     5.4932   6.7873   7.0243   7.0243   7.0906   7.0969   7.1030   7.1030
     7.1624   7.1814   7.2990   7.2990   7.3872   7.3872   7.5707   7.5707
     7.6340   7.8390   7.9612   7.9612   7.9896   7.9896   8.0195   8.0195
     8.0402   8.0402   8.1106   8.1128   8.1128   8.1157   8.1283   8.1283
     8.2526   8.2526   8.3209   8.3209   8.3569   8.3569   8.4336   8.4336
     8.4441   8.4441   8.5076   8.5076   8.5694   8.6290   8.6290   8.6472
     8.6472   8.7908   8.7908   8.8578   8.9052   8.9052   8.9541   8.9541
     8.9667   8.9752   8.9752   8.9860   9.1649   9.1649   9.1652   9.1652
     9.1782   9.1888   9.3298   9.3298   9.3371   9.3392   9.3465   9.3465
     9.3793   9.3885   9.4458   9.4458   9.4803   9.4803   9.8281   9.8281
     9.8817   9.8866   9.8984   9.8984   9.9194   9.9194   9.9404   9.9404
    10.0752  10.0752  10.1000  10.1000  10.1111  10.1111  10.1183  10.1349
    10.1730  10.1730  10.1891  10.1891  10.2157  10.2641  10.2662  10.2870
    10.2870  10.3961  10.3961  10.4080  10.4080  10.4881  10.5210  10.5210
    10.5400  10.5400  10.5583  10.5583  10.6882  10.6882  10.7491  10.7491
    10.7524  10.7524  10.7772  10.8368  10.9270  10.9270  10.9937  10.9937
    11.1188  11.1188  11.1266  11.1266  11.1274  11.1464  11.1464  11.1564
    11.2421  11.2421  11.2541  11.2658  11.2746  11.3474  11.3950  11.4057
    11.4057  11.4062  11.4062  11.4271  11.4271  11.5934  11.5934  11.6659
    11.6684  11.6684  11.6700  11.7235  11.8023  11.8198  11.8198  11.8266
    11.8266  11.8709  11.9225  12.0292  12.0292  12.4114  12.4114  12.4331
    12.4331  12.8458  12.8458  13.2793  13.4924  13.5558  13.6888  13.6888
    13.9582  13.9582  13.9626  14.1300  14.1300  14.3220  14.5112  14.5112
    14.6381  16.2011  16.2011  16.8079  16.8079  17.0020  17.0696  17.0696
    17.2242  17.3737  17.3737  17.9851  17.9851  18.5574  18.5574  18.5648
    18.5648  20.1218  20.2120  20.5122  20.5122  20.6514  20.7503  20.7503
    20.9384  20.9384  21.1643  21.3745  21.3745  21.4363  21.4363  21.8563
    22.2846  22.2848

          k = 0.0556 0.0556 0.1159 ( 47397 PWs)   bands (ev):

   -72.3196 -72.2975 -72.2975 -72.2932 -72.2932 -72.2887 -72.2876 -72.2870
   -72.2870 -72.2859 -72.2800 -72.2800 -72.2786 -72.2786 -72.2713 -72.2713
   -71.7291 -71.7291 -71.7147 -71.7147 -71.7147 -71.7147 -71.7135 -71.7135
   -71.7132 -71.7132 -71.7119 -71.7119 -71.7119 -71.7119 -71.6974 -71.6973
   -38.1543 -38.1543 -38.1539 -38.1530 -38.1404 -38.1404 -38.1335 -38.0993
   -38.0993 -38.0964 -38.0964 -38.0594 -38.0594 -38.0483 -38.0483 -38.0391
   -38.0391 -38.0359 -38.0359 -38.0270 -38.0270 -37.9979 -37.9979 -37.9914
   -37.9914 -37.9913 -37.9868 -37.9868 -37.9815 -37.9771 -37.9771 -37.9631
   -37.9602 -37.9602 -37.9457 -37.9457 -37.9428 -37.9418 -37.9316 -37.9316
   -37.9264 -37.9263 -37.8929 -37.8910 -37.8910 -37.8867 -37.8746 -37.8730
   -37.6029 -37.6028 -37.6021 -37.6011 -37.5910 -37.5910 -37.5891 -37.5891
   -37.5206 -37.5206 -37.5205 -37.5205 -37.5056 -37.5056 -37.5054 -37.5054
   -37.5033 -37.5033 -37.5029 -37.5029 -37.4881 -37.4881 -37.4879 -37.4879
   -37.4174 -37.4172 -37.4159 -37.4156 -37.4040 -37.4039 -37.4026 -37.4026
   -37.3328 -37.3297 -37.3184 -37.3184 -37.3179 -37.3179 -37.3170 -37.3167
   -37.3167 -37.3166 -37.3162 -37.3162 -37.3159 -37.3159 -37.3060 -37.3059
     5.4942   6.7855   7.0244   7.0244   7.0908   7.0970   7.1032   7.1032
     7.1624   7.1783   7.2990   7.2990   7.3876   7.3876   7.5710   7.5710
     7.6358   7.8390   7.9610   7.9610   7.9896   7.9896   8.0195   8.0195
     8.0402   8.0402   8.1098   8.1125   8.1125   8.1151   8.1276   8.1276
     8.2527   8.2527   8.3206   8.3206   8.3568   8.3568   8.4332   8.4332
     8.4446   8.4446   8.5075   8.5075   8.5695   8.6289   8.6289   8.6472
     8.6472   8.7908   8.7908   8.8573   8.9049   8.9049   8.9542   8.9542
     8.9667   8.9751   8.9751   8.9860   9.1633   9.1633   9.1650   9.1650
     9.1781   9.1885   9.3277   9.3277   9.3371   9.3392   9.3465   9.3465
     9.3793   9.3885   9.4476   9.4476   9.4823   9.4823   9.8313   9.8313
     9.8849   9.8914   9.8986   9.8986   9.9190   9.9190   9.9416   9.9416
    10.0692  10.0692  10.0994  10.0994  10.1116  10.1116  10.1183  10.1349
    10.1678  10.1678  10.1897  10.1897  10.2135  10.2491  10.2662  10.2885
    10.2885  10.3965  10.3965  10.4112  10.4112  10.4907  10.5205  10.5205
    10.5452  10.5452  10.5595  10.5596  10.6881  10.6881  10.7456  10.7456
    10.7480  10.7480  10.7772  10.8957  10.9269  10.9269  10.9942  10.9942
    11.1167  11.1167  11.1270  11.1270  11.1275  11.1468  11.1468  11.1565
    11.2492  11.2557  11.2557  11.2658  11.2736  11.3476  11.3869  11.4015
    11.4015  11.4199  11.4199  11.4256  11.4256  11.5929  11.5929  11.6659
    11.6687  11.6687  11.6700  11.7234  11.8023  11.8194  11.8194  11.8263
    11.8263  11.8735  11.9224  12.0292  12.0292  12.3825  12.3825  12.4331
    12.4331  12.8178  12.8178  13.2814  13.2860  13.4920  13.6972  13.6972
    13.9816  14.0192  14.0192  14.1260  14.1260  14.5719  14.5719  14.6061
    14.6297  16.2071  16.2071  16.5595  16.5595  17.0132  17.0773  17.0773
    17.1265  17.1265  17.2133  18.3157  18.3157  18.5371  18.5371  18.9001
    18.9001  19.9245  20.0335  20.3164  20.3164  20.6464  20.7583  20.7583
    20.9828  20.9828  21.2620  21.4438  21.4438  21.6850  21.6850  22.1779
    22.2493  22.2494

          k = 0.0556 0.0556 0.1932 ( 47427 PWs)   bands (ev):

   -72.3196 -72.2975 -72.2975 -72.2932 -72.2932 -72.2887 -72.2876 -72.2870
   -72.2870 -72.2859 -72.2800 -72.2800 -72.2786 -72.2786 -72.2713 -72.2713
   -71.7291 -71.7291 -71.7147 -71.7147 -71.7147 -71.7147 -71.7135 -71.7135
   -71.7132 -71.7132 -71.7119 -71.7119 -71.7119 -71.7119 -71.6974 -71.6973
   -38.1542 -38.1542 -38.1539 -38.1530 -38.1405 -38.1405 -38.1334 -38.0993
   -38.0993 -38.0964 -38.0964 -38.0594 -38.0594 -38.0483 -38.0483 -38.0391
   -38.0391 -38.0360 -38.0360 -38.0270 -38.0270 -37.9979 -37.9979 -37.9914
   -37.9914 -37.9913 -37.9868 -37.9868 -37.9816 -37.9771 -37.9771 -37.9630
   -37.9602 -37.9602 -37.9458 -37.9458 -37.9428 -37.9418 -37.9316 -37.9316
   -37.9264 -37.9264 -37.8929 -37.8910 -37.8910 -37.8867 -37.8746 -37.8731
   -37.6029 -37.6028 -37.6021 -37.6011 -37.5911 -37.5911 -37.5891 -37.5891
   -37.5206 -37.5206 -37.5205 -37.5205 -37.5056 -37.5056 -37.5054 -37.5054
   -37.5033 -37.5033 -37.5029 -37.5029 -37.4881 -37.4881 -37.4880 -37.4880
   -37.4175 -37.4171 -37.4159 -37.4156 -37.4039 -37.4039 -37.4026 -37.4026
   -37.3329 -37.3297 -37.3184 -37.3184 -37.3179 -37.3179 -37.3170 -37.3167
   -37.3167 -37.3166 -37.3162 -37.3162 -37.3159 -37.3159 -37.3060 -37.3060
     5.4957   6.7828   7.0245   7.0245   7.0910   7.0972   7.1034   7.1034
     7.1623   7.1738   7.2991   7.2991   7.3882   7.3882   7.5715   7.5715
     7.6385   7.8390   7.9608   7.9608   7.9896   7.9896   8.0194   8.0194
     8.0401   8.0401   8.1087   8.1121   8.1121   8.1143   8.1266   8.1266
     8.2529   8.2529   8.3202   8.3202   8.3565   8.3565   8.4326   8.4326
     8.4453   8.4453   8.5073   8.5073   8.5695   8.6289   8.6289   8.6472
     8.6472   8.7907   8.7907   8.8566   8.9046   8.9046   8.9542   8.9542
     8.9666   8.9750   8.9750   8.9859   9.1610   9.1610   9.1647   9.1647
     9.1778   9.1879   9.3247   9.3247   9.3371   9.3392   9.3466   9.3466
     9.3793   9.3886   9.4504   9.4504   9.4854   9.4854   9.8361   9.8361
     9.8898   9.8988   9.8988   9.8989   9.9183   9.9183   9.9434   9.9434
    10.0603  10.0603  10.0985  10.0985  10.1121  10.1121  10.1183  10.1349
    10.1601  10.1601  10.1907  10.1907  10.2066  10.2339  10.2660  10.2905
    10.2905  10.3972  10.3972  10.4160  10.4160  10.4933  10.5198  10.5198
    10.5531  10.5531  10.5614  10.5614  10.6879  10.6879  10.7404  10.7404
    10.7411  10.7411  10.7772  10.9267  10.9267  10.9909  10.9951  10.9951
    11.1135  11.1135  11.1276  11.1276  11.1276  11.1473  11.1473  11.1565
    11.2418  11.2658  11.2710  11.2771  11.2771  11.3478  11.3744  11.3954
    11.3954  11.4234  11.4234  11.4414  11.4414  11.5922  11.5922  11.6658
    11.6691  11.6691  11.6699  11.7234  11.8023  11.8190  11.8190  11.8258
    11.8258  11.8792  11.9222  12.0292  12.0292  12.3393  12.3393  12.4331
    12.4331  12.7762  12.7762  12.9978  13.2852  13.4905  13.7103  13.7103
    14.0119  14.1183  14.1183  14.1194  14.1194  14.6157  14.6705  14.6705
    14.9144  16.2164  16.2164  16.2754  16.2754  16.8436  16.8436  17.0358
    17.0893  17.0893  17.1905  18.5066  18.5066  18.7621  18.7621  19.3610
    19.3610  19.6467  19.8936  20.1173  20.1173  20.4549  20.7708  20.7708
    21.0536  21.0536  21.4507  21.4507  21.6390  21.6765  21.6765  22.0747
    22.0747  22.1095

          k = 0.0556 0.0556 0.2705 ( 47458 PWs)   bands (ev):

   -72.3196 -72.2975 -72.2975 -72.2932 -72.2932 -72.2887 -72.2876 -72.2870
   -72.2870 -72.2859 -72.2800 -72.2800 -72.2786 -72.2786 -72.2713 -72.2713
   -71.7291 -71.7291 -71.7147 -71.7147 -71.7147 -71.7147 -71.7135 -71.7135
   -71.7132 -71.7132 -71.7119 -71.7119 -71.7119 -71.7119 -71.6974 -71.6973
   -38.1543 -38.1543 -38.1539 -38.1530 -38.1405 -38.1405 -38.1334 -38.0994
   -38.0993 -38.0964 -38.0964 -38.0594 -38.0594 -38.0483 -38.0483 -38.0391
   -38.0391 -38.0360 -38.0360 -38.0270 -38.0270 -37.9980 -37.9980 -37.9914
   -37.9914 -37.9914 -37.9868 -37.9868 -37.9816 -37.9771 -37.9771 -37.9630
   -37.9602 -37.9602 -37.9457 -37.9457 -37.9428 -37.9418 -37.9316 -37.9316
   -37.9264 -37.9264 -37.8929 -37.8910 -37.8910 -37.8867 -37.8746 -37.8730
   -37.6029 -37.6028 -37.6021 -37.6012 -37.5911 -37.5911 -37.5891 -37.5891
   -37.5206 -37.5206 -37.5204 -37.5204 -37.5056 -37.5056 -37.5054 -37.5054
   -37.5033 -37.5033 -37.5029 -37.5029 -37.4881 -37.4881 -37.4879 -37.4879
   -37.4175 -37.4171 -37.4159 -37.4155 -37.4040 -37.4039 -37.4026 -37.4026
   -37.3329 -37.3296 -37.3184 -37.3184 -37.3180 -37.3180 -37.3171 -37.3167
   -37.3167 -37.3167 -37.3162 -37.3162 -37.3159 -37.3159 -37.3061 -37.3061
     5.4970   6.7804   7.0246   7.0246   7.0912   7.0974   7.1036   7.1036
     7.1621   7.1701   7.2992   7.2992   7.3887   7.3887   7.5719   7.5719
     7.6408   7.8389   7.9606   7.9606   7.9896   7.9896   8.0194   8.0194
     8.0400   8.0400   8.1078   8.1117   8.1117   8.1135   8.1257   8.1257
     8.2531   8.2531   8.3199   8.3199   8.3563   8.3563   8.4320   8.4320
     8.4459   8.4459   8.5072   8.5072   8.5696   8.6289   8.6289   8.6471
     8.6471   8.7906   8.7906   8.8560   8.9043   8.9043   8.9543   8.9543
     8.9665   8.9748   8.9748   8.9859   9.1589   9.1589   9.1644   9.1644
     9.1775   9.1875   9.3220   9.3220   9.3371   9.3392   9.3466   9.3466
     9.3792   9.3886   9.4528   9.4528   9.4880   9.4880   9.8403   9.8403
     9.8942   9.8991   9.8991   9.9053   9.9176   9.9176   9.9449   9.9449
    10.0530  10.0530  10.0978  10.0978  10.1124  10.1124  10.1182  10.1349
    10.1536  10.1536  10.1916  10.1916  10.1966  10.2276  10.2660  10.2920
    10.2920  10.3978  10.3978  10.4200  10.4200  10.4948  10.5191  10.5191
    10.5602  10.5602  10.5629  10.5629  10.6879  10.6879  10.7350  10.7350
    10.7360  10.7360  10.7772  10.9265  10.9265  10.9958  10.9958  11.0844
    11.1106  11.1106  11.1276  11.1281  11.1281  11.1478  11.1478  11.1566
    11.2353  11.2653  11.2659  11.2966  11.2966  11.3479  11.3634  11.3901
    11.3901  11.4214  11.4214  11.4606  11.4606  11.5915  11.5915  11.6658
    11.6695  11.6695  11.6699  11.7234  11.8022  11.8185  11.8185  11.8254
    11.8254  11.8873  11.9220  12.0292  12.0292  12.3020  12.3020  12.4331
    12.4331  12.7404  12.7404  12.7819  13.2891  13.4885  13.7221  13.7221
    14.0400  14.1133  14.1133  14.2135  14.2135  14.6021  14.7652  14.7652
    15.1440  16.0615  16.0616  16.2247  16.2247  16.6308  16.6308  17.0683
    17.1001  17.1002  17.1571  18.4802  18.4802  19.1946  19.1946  19.4164
    19.8237  19.8268  19.8268  19.9832  19.9832  20.2874  20.7821  20.7821
    21.1198  21.1198  21.1475  21.1475  21.4766  21.4766  21.5523  21.5523
    22.1058  22.2535

          k = 0.0556 0.0556-0.3478 ( 47494 PWs)   bands (ev):

   -72.3196 -72.2975 -72.2975 -72.2932 -72.2932 -72.2887 -72.2876 -72.2870
   -72.2870 -72.2859 -72.2800 -72.2800 -72.2786 -72.2786 -72.2713 -72.2713
   -71.7291 -71.7291 -71.7147 -71.7147 -71.7147 -71.7147 -71.7135 -71.7135
   -71.7132 -71.7132 -71.7119 -71.7119 -71.7119 -71.7119 -71.6974 -71.6973
   -38.1542 -38.1542 -38.1539 -38.1530 -38.1405 -38.1405 -38.1335 -38.0994
   -38.0994 -38.0964 -38.0964 -38.0594 -38.0594 -38.0483 -38.0483 -38.0391
   -38.0391 -38.0360 -38.0360 -38.0270 -38.0270 -37.9980 -37.9980 -37.9915
   -37.9915 -37.9914 -37.9868 -37.9868 -37.9816 -37.9771 -37.9771 -37.9631
   -37.9602 -37.9602 -37.9458 -37.9457 -37.9429 -37.9419 -37.9317 -37.9317
   -37.9264 -37.9264 -37.8929 -37.8910 -37.8910 -37.8867 -37.8746 -37.8730
   -37.6028 -37.6028 -37.6021 -37.6012 -37.5911 -37.5911 -37.5891 -37.5891
   -37.5207 -37.5207 -37.5205 -37.5205 -37.5056 -37.5056 -37.5054 -37.5054
   -37.5034 -37.5034 -37.5029 -37.5029 -37.4881 -37.4881 -37.4879 -37.4879
   -37.4175 -37.4171 -37.4160 -37.4155 -37.4039 -37.4039 -37.4026 -37.4026
   -37.3330 -37.3296 -37.3184 -37.3184 -37.3180 -37.3180 -37.3171 -37.3167
   -37.3167 -37.3166 -37.3163 -37.3163 -37.3159 -37.3159 -37.3061 -37.3061
     5.4976   6.7794   7.0246   7.0246   7.0913   7.0974   7.1037   7.1037
     7.1619   7.1687   7.2992   7.2992   7.3889   7.3889   7.5721   7.5721
     7.6416   7.8389   7.9605   7.9605   7.9896   7.9896   8.0194   8.0194
     8.0400   8.0400   8.1074   8.1115   8.1115   8.1132   8.1254   8.1254
     8.2532   8.2532   8.3198   8.3198   8.3562   8.3562   8.4318   8.4318
     8.4461   8.4462   8.5071   8.5071   8.5696   8.6289   8.6289   8.6471
     8.6471   8.7905   8.7905   8.8558   8.9042   8.9042   8.9543   8.9543
     8.9665   8.9748   8.9748   8.9859   9.1581   9.1581   9.1643   9.1643
     9.1774   9.1873   9.3210   9.3210   9.3371   9.3392   9.3467   9.3467
     9.3792   9.3886   9.4538   9.4538   9.4890   9.4890   9.8420   9.8420
     9.8959   9.8992   9.8992   9.9079   9.9174   9.9174   9.9455   9.9455
    10.0501  10.0501  10.0975  10.0976  10.1124  10.1124  10.1182  10.1348
    10.1511  10.1511  10.1920  10.1920  10.1921  10.2262  10.2659  10.2926
    10.2926  10.3980  10.3980  10.4215  10.4215  10.4952  10.5189  10.5189
    10.5631  10.5631  10.5635  10.5635  10.6879  10.6879  10.7325  10.7325
    10.7343  10.7343  10.7773  10.9264  10.9264  10.9961  10.9961  11.1094
    11.1094  11.1266  11.1276  11.1283  11.1283  11.1479  11.1479  11.1566
    11.2327  11.2603  11.2659  11.3045  11.3045  11.3480  11.3591  11.3880
    11.3880  11.4206  11.4206  11.4683  11.4683  11.5912  11.5912  11.6657
    11.6696  11.6696  11.6699  11.7234  11.8022  11.8183  11.8183  11.8252
    11.8252  11.8919  11.9219  12.0292  12.0292  12.2875  12.2875  12.4331
    12.4331  12.6995  12.7265  12.7265  13.2908  13.4875  13.7269  13.7269
    14.0515  14.1108  14.1108  14.2542  14.2542  14.5964  14.8057  14.8057
    15.2298  15.9808  15.9808  16.2280  16.2280  16.5505  16.5505  17.0961
    17.1045  17.1045  17.1286  18.4699  18.4699  19.3272  19.4097  19.4097
    19.8063  19.9365  19.9365  20.0792  20.0792  20.2219  20.7863  20.7863
    20.9070  20.9070  21.1472  21.1472  21.2757  21.2757  21.4790  21.4790
    22.2402  22.2402

          k = 0.0556 0.1667 0.0386 ( 47437 PWs)   bands (ev):

   -72.3189 -72.3016 -72.2972 -72.2930 -72.2903 -72.2891 -72.2882 -72.2874
   -72.2854 -72.2847 -72.2814 -72.2802 -72.2789 -72.2772 -72.2721 -72.2716
   -71.7286 -71.7286 -71.7174 -71.7174 -71.7147 -71.7146 -71.7137 -71.7137
   -71.7130 -71.7130 -71.7120 -71.7119 -71.7092 -71.7092 -71.6978 -71.6978
   -38.1523 -38.1515 -38.1502 -38.1488 -38.1378 -38.1376 -38.1322 -38.1041
   -38.1022 -38.1006 -38.0965 -38.0786 -38.0726 -38.0678 -38.0470 -38.0395
   -38.0381 -38.0334 -38.0197 -38.0125 -38.0082 -38.0022 -37.9992 -37.9957
   -37.9954 -37.9924 -37.9917 -37.9844 -37.9822 -37.9764 -37.9744 -37.9713
   -37.9607 -37.9513 -37.9454 -37.9383 -37.9364 -37.9359 -37.9320 -37.9315
   -37.9267 -37.9227 -37.8982 -37.8976 -37.8924 -37.8855 -37.8795 -37.8745
   -37.6016 -37.6007 -37.5983 -37.5966 -37.5898 -37.5896 -37.5853 -37.5851
   -37.5374 -37.5371 -37.5353 -37.5348 -37.5231 -37.5225 -37.5185 -37.5179
   -37.4906 -37.4902 -37.4859 -37.4855 -37.4733 -37.4732 -37.4710 -37.4708
   -37.4217 -37.4216 -37.4170 -37.4168 -37.4084 -37.4084 -37.4044 -37.4043
   -37.3323 -37.3294 -37.3206 -37.3201 -37.3184 -37.3178 -37.3174 -37.3167
   -37.3166 -37.3163 -37.3163 -37.3158 -37.3142 -37.3140 -37.3063 -37.3063
     5.5629   6.8418   7.0610   7.0667   7.1070   7.1102   7.1224   7.1398
     7.1451   7.2010   7.2334   7.3233   7.3252   7.3885   7.5705   7.6333
     7.6869   7.8723   7.8820   7.8966   7.9031   7.9101   7.9122   8.0024
     8.0064   8.0418   8.0473   8.0476   8.0694   8.1029   8.1100   8.1484
     8.1511   8.1823   8.2311   8.2976   8.3941   8.4038   8.4071   8.4106
     8.4366   8.4465   8.4524   8.5888   8.6262   8.6506   8.6914   8.7359
     8.7384   8.7792   8.7916   8.8441   8.8507   8.8840   8.9354   8.9717
     8.9802   8.9914   9.0171   9.0416   9.0855   9.1311   9.1767   9.1863
     9.1946   9.2018   9.3591   9.3605   9.3648   9.3683   9.3790   9.3807
     9.3960   9.4489   9.4762   9.4806   9.4931   9.6186   9.7032   9.7179
     9.7203   9.7613   9.7973   9.7995   9.8432   9.9019   9.9058   9.9301
    10.0168  10.0193  10.0375  10.0506  10.1050  10.1187  10.1718  10.1819
    10.2039  10.2168  10.2189  10.2487  10.2725  10.2810  10.3003  10.3070
    10.3074  10.3107  10.3314  10.3909  10.4634  10.4797  10.4946  10.4999
    10.6292  10.6369  10.6401  10.6972  10.7365  10.7580  10.7716  10.8312
    10.8556  10.8591  10.8863  10.9490  10.9656  10.9828  10.9909  11.0128
    11.0167  11.0227  11.0810  11.1318  11.1375  11.1643  11.1655  11.2128
    11.2130  11.2261  11.2415  11.2481  11.3756  11.3843  11.3976  11.3989
    11.4058  11.4533  11.4541  11.5131  11.5611  11.5781  11.5822  11.5866
    11.6132  11.6212  11.7074  11.7099  11.7653  11.7748  11.8103  11.8144
    11.8291  11.8383  11.9096  11.9242  11.9623  12.0711  12.3159  12.3509
    12.4084  12.8586  12.8973  13.0383  13.3824  13.4567  13.5098  13.5769
    13.7146  13.9660  14.0489  14.1571  14.5243  14.5384  14.7134  15.1226
    15.2199  15.8062  16.2667  16.4342  16.8370  17.0513  17.1385  17.2881
    17.3955  17.4229  17.4255  17.9680  18.0290  18.0429  18.6106  18.7191
    19.1692  19.9865  20.0453  20.0485  20.0793  20.2012  20.2284  20.3340
    20.5789  20.6772  21.0536  21.1998  21.5401  21.5651  21.7938  21.8966
    22.0784  22.0857

          k = 0.0556 0.1667 0.1159 ( 47431 PWs)   bands (ev):

   -72.3189 -72.3016 -72.2972 -72.2930 -72.2903 -72.2891 -72.2882 -72.2874
   -72.2854 -72.2847 -72.2814 -72.2802 -72.2789 -72.2772 -72.2721 -72.2716
   -71.7286 -71.7286 -71.7174 -71.7174 -71.7147 -71.7146 -71.7137 -71.7137
   -71.7130 -71.7130 -71.7120 -71.7119 -71.7092 -71.7092 -71.6978 -71.6978
   -38.1524 -38.1515 -38.1502 -38.1488 -38.1377 -38.1376 -38.1322 -38.1041
   -38.1022 -38.1005 -38.0965 -38.0786 -38.0725 -38.0678 -38.0470 -38.0395
   -38.0382 -38.0334 -38.0197 -38.0125 -38.0082 -38.0021 -37.9992 -37.9957
   -37.9953 -37.9925 -37.9917 -37.9844 -37.9823 -37.9764 -37.9744 -37.9712
   -37.9607 -37.9513 -37.9454 -37.9383 -37.9364 -37.9359 -37.9320 -37.9315
   -37.9267 -37.9227 -37.8982 -37.8975 -37.8924 -37.8855 -37.8795 -37.8745
   -37.6016 -37.6007 -37.5983 -37.5966 -37.5898 -37.5896 -37.5852 -37.5851
   -37.5374 -37.5371 -37.5352 -37.5348 -37.5232 -37.5226 -37.5186 -37.5179
   -37.4906 -37.4902 -37.4859 -37.4855 -37.4733 -37.4733 -37.4711 -37.4708
   -37.4217 -37.4216 -37.4171 -37.4168 -37.4084 -37.4084 -37.4044 -37.4043
   -37.3322 -37.3294 -37.3206 -37.3201 -37.3184 -37.3178 -37.3174 -37.3167
   -37.3166 -37.3163 -37.3163 -37.3158 -37.3142 -37.3140 -37.3063 -37.3063
     5.5638   6.8401   7.0611   7.0667   7.1072   7.1107   7.1226   7.1400
     7.1452   7.2009   7.2305   7.3234   7.3253   7.3888   7.5707   7.6336
     7.6886   7.8723   7.8820   7.8965   7.9028   7.9101   7.9120   8.0022
     8.0063   8.0417   8.0473   8.0477   8.0688   8.1021   8.1096   8.1478
     8.1504   8.1826   8.2306   8.2983   8.3942   8.4038   8.4071   8.4105
     8.4362   8.4462   8.4527   8.5888   8.6258   8.6506   8.6916   8.7368
     8.7384   8.7786   8.7912   8.8441   8.8503   8.8839   8.9353   8.9706
     8.9805   8.9914   9.0171   9.0417   9.0856   9.1309   9.1766   9.1862
     9.1943   9.2007   9.3576   9.3604   9.3648   9.3684   9.3791   9.3811
     9.3959   9.4472   9.4781   9.4818   9.4940   9.6205   9.7032   9.7206
     9.7223   9.7611   9.7995   9.8040   9.8427   9.9015   9.9071   9.9312
    10.0098  10.0193  10.0372  10.0558  10.0980  10.1232  10.1720  10.1828
    10.1978  10.2196  10.2211  10.2485  10.2584  10.2816  10.2955  10.3068
    10.3075  10.3117  10.3320  10.3910  10.4618  10.4835  10.4973  10.5049
    10.6273  10.6388  10.6413  10.7009  10.7366  10.7631  10.7671  10.8286
    10.8511  10.8577  10.8880  10.9458  10.9658  10.9833  10.9914  11.0112
    11.0196  11.0476  11.0778  11.1378  11.1453  11.1639  11.1655  11.2131
    11.2133  11.2394  11.2417  11.2466  11.3753  11.3827  11.3969  11.4044
    11.4114  11.4449  11.4533  11.5093  11.5608  11.5778  11.5857  11.5877
    11.6138  11.6215  11.7102  11.7190  11.7645  11.7878  11.8101  11.8142
    11.8297  11.8380  11.9097  11.9243  11.9623  12.0413  12.3160  12.3509
    12.3805  12.8316  12.8941  13.0368  13.3553  13.4583  13.5091  13.5180
    13.5756  14.0271  14.0840  14.1760  14.5850  14.7061  14.8132  15.1828
    15.2045  15.8127  16.0199  16.4402  16.5904  17.0632  17.1374  17.1512
    17.2776  17.3888  17.7253  17.7460  18.0061  18.3711  18.6982  18.9404
    19.5031  19.9180  19.9943  19.9959  20.0497  20.0561  20.1323  20.5868
    20.6134  20.6702  21.0991  21.2997  21.3579  21.4977  21.7565  21.7903
    21.9882  22.0299

          k = 0.0556 0.1667 0.1932 ( 47407 PWs)   bands (ev):

   -72.3189 -72.3016 -72.2972 -72.2930 -72.2903 -72.2891 -72.2882 -72.2874
   -72.2854 -72.2847 -72.2814 -72.2802 -72.2789 -72.2772 -72.2721 -72.2716
   -71.7286 -71.7286 -71.7174 -71.7174 -71.7147 -71.7146 -71.7137 -71.7137
   -71.7130 -71.7130 -71.7120 -71.7119 -71.7092 -71.7092 -71.6978 -71.6978
   -38.1523 -38.1515 -38.1502 -38.1488 -38.1377 -38.1376 -38.1321 -38.1041
   -38.1022 -38.1006 -38.0965 -38.0787 -38.0725 -38.0678 -38.0470 -38.0395
   -38.0381 -38.0334 -38.0197 -38.0125 -38.0082 -38.0021 -37.9993 -37.9957
   -37.9953 -37.9925 -37.9917 -37.9844 -37.9822 -37.9764 -37.9744 -37.9712
   -37.9607 -37.9513 -37.9454 -37.9383 -37.9363 -37.9359 -37.9320 -37.9315
   -37.9267 -37.9226 -37.8981 -37.8976 -37.8924 -37.8855 -37.8795 -37.8745
   -37.6015 -37.6007 -37.5983 -37.5966 -37.5898 -37.5896 -37.5852 -37.5851
   -37.5374 -37.5372 -37.5352 -37.5348 -37.5232 -37.5225 -37.5186 -37.5179
   -37.4906 -37.4901 -37.4859 -37.4855 -37.4733 -37.4732 -37.4710 -37.4708
   -37.4217 -37.4215 -37.4171 -37.4167 -37.4084 -37.4084 -37.4044 -37.4043
   -37.3322 -37.3293 -37.3205 -37.3201 -37.3184 -37.3178 -37.3174 -37.3167
   -37.3167 -37.3163 -37.3163 -37.3159 -37.3141 -37.3140 -37.3064 -37.3063
     5.5654   6.8375   7.0612   7.0668   7.1074   7.1115   7.1227   7.1402
     7.1454   7.2006   7.2261   7.3235   7.3254   7.3892   7.5710   7.6340
     7.6912   7.8723   7.8820   7.8964   7.9023   7.9100   7.9115   8.0020
     8.0061   8.0416   8.0473   8.0477   8.0679   8.1010   8.1090   8.1469
     8.1493   8.1831   8.2300   8.2994   8.3944   8.4038   8.4071   8.4105
     8.4356   8.4456   8.4532   8.5889   8.6251   8.6505   8.6918   8.7382
     8.7382   8.7776   8.7907   8.8442   8.8497   8.8838   8.9352   8.9688
     8.9810   8.9914   9.0171   9.0420   9.0856   9.1307   9.1766   9.1861
     9.1939   9.1989   9.3553   9.3603   9.3648   9.3686   9.3793   9.3818
     9.3958   9.4445   9.4811   9.4835   9.4954   9.6233   9.7032   9.7248
     9.7254   9.7608   9.8028   9.8110   9.8418   9.9011   9.9090   9.9329
     9.9994  10.0193  10.0367  10.0644  10.0905  10.1269  10.1724  10.1840
    10.1912  10.2206  10.2249  10.2375  10.2488  10.2825  10.2886  10.3060
    10.3077  10.3131  10.3330  10.3914  10.4596  10.4888  10.5014  10.5107
    10.6242  10.6418  10.6429  10.7070  10.7366  10.7607  10.7691  10.8250
    10.8442  10.8557  10.8902  10.9409  10.9661  10.9841  10.9919  11.0086
    11.0148  11.0728  11.1005  11.1384  11.1634  11.1653  11.1667  11.2134
    11.2137  11.2420  11.2423  11.2604  11.3750  11.3804  11.3932  11.4021
    11.4322  11.4327  11.4521  11.5038  11.5603  11.5773  11.5892  11.5915
    11.6145  11.6220  11.7107  11.7367  11.7642  11.8097  11.8136  11.8139
    11.8310  11.8376  11.9099  11.9247  11.9624  11.9967  12.3161  12.3390
    12.3510  12.7914  12.8900  13.0343  13.1780  13.3150  13.5091  13.5729
    13.6171  14.1263  14.1396  14.2060  14.6834  14.6937  15.1208  15.1786
    15.2807  15.7372  15.8226  16.3064  16.4495  16.8694  17.0869  17.1385
    17.2550  17.3340  17.4464  17.9720  18.1707  18.6667  18.8166  19.3933
    19.7078  19.8699  19.9084  19.9686  20.0066  20.0682  20.2186  20.4786
    20.5993  20.7754  21.1714  21.2523  21.3372  21.4368  21.6671  21.6775
    21.7027  21.8915

          k = 0.0556 0.1667 0.2705 ( 47439 PWs)   bands (ev):

   -72.3189 -72.3016 -72.2972 -72.2930 -72.2903 -72.2891 -72.2882 -72.2874
   -72.2854 -72.2847 -72.2814 -72.2802 -72.2789 -72.2772 -72.2721 -72.2716
   -71.7286 -71.7286 -71.7174 -71.7174 -71.7147 -71.7146 -71.7137 -71.7137
   -71.7130 -71.7130 -71.7120 -71.7119 -71.7092 -71.7092 -71.6978 -71.6978
   -38.1524 -38.1515 -38.1502 -38.1488 -38.1377 -38.1376 -38.1321 -38.1042
   -38.1022 -38.1006 -38.0965 -38.0787 -38.0725 -38.0678 -38.0470 -38.0395
   -38.0382 -38.0335 -38.0197 -38.0125 -38.0082 -38.0021 -37.9993 -37.9957
   -37.9954 -37.9926 -37.9917 -37.9844 -37.9822 -37.9764 -37.9744 -37.9712
   -37.9607 -37.9513 -37.9454 -37.9383 -37.9363 -37.9359 -37.9320 -37.9315
   -37.9267 -37.9227 -37.8981 -37.8976 -37.8923 -37.8855 -37.8795 -37.8745
   -37.6016 -37.6007 -37.5983 -37.5966 -37.5898 -37.5896 -37.5852 -37.5851
   -37.5374 -37.5372 -37.5352 -37.5348 -37.5232 -37.5226 -37.5186 -37.5179
   -37.4907 -37.4902 -37.4859 -37.4855 -37.4733 -37.4732 -37.4711 -37.4708
   -37.4217 -37.4215 -37.4171 -37.4167 -37.4084 -37.4083 -37.4044 -37.4043
   -37.3323 -37.3292 -37.3205 -37.3202 -37.3184 -37.3179 -37.3174 -37.3167
   -37.3167 -37.3163 -37.3163 -37.3159 -37.3141 -37.3140 -37.3064 -37.3063
     5.5667   6.8352   7.0613   7.0669   7.1076   7.1122   7.1229   7.1404
     7.1456   7.2003   7.2225   7.3236   7.3255   7.3895   7.5712   7.6343
     7.6934   7.8723   7.8820   7.8962   7.9018   7.9100   7.9112   8.0017
     8.0059   8.0414   8.0472   8.0477   8.0670   8.1001   8.1085   8.1461
     8.1483   8.1835   8.2294   8.3004   8.3945   8.4037   8.4071   8.4105
     8.4351   8.4451   8.4537   8.5889   8.6245   8.6504   8.6919   8.7381
     8.7394   8.7768   8.7903   8.8443   8.8492   8.8837   8.9351   8.9673
     8.9814   8.9914   9.0171   9.0422   9.0857   9.1305   9.1765   9.1860
     9.1935   9.1973   9.3534   9.3602   9.3648   9.3688   9.3795   9.3824
     9.3956   9.4422   9.4836   9.4850   9.4966   9.6259   9.7033   9.7281
     9.7285   9.7605   9.8057   9.8172   9.8411   9.9007   9.9107   9.9344
     9.9906  10.0193  10.0362  10.0731  10.0851  10.1290  10.1727  10.1849
    10.1865  10.2200  10.2216  10.2273  10.2485  10.2827  10.2832  10.3052
    10.3079  10.3144  10.3338  10.3917  10.4578  10.4931  10.5050  10.5146
    10.6215  10.6442  10.6444  10.7127  10.7366  10.7553  10.7732  10.8220
    10.8380  10.8541  10.8918  10.9364  10.9663  10.9849  10.9921  11.0063
    11.0105  11.0684  11.1389  11.1559  11.1630  11.1652  11.1865  11.2137
    11.2141  11.2327  11.2423  11.2795  11.3747  11.3783  11.3889  11.4002
    11.4212  11.4512  11.4516  11.4992  11.5598  11.5768  11.5903  11.5969
    11.6151  11.6224  11.7111  11.7517  11.7641  11.8093  11.8137  11.8330
    11.8372  11.8461  11.9101  11.9258  11.9581  11.9624  12.3032  12.3161
    12.3510  12.7570  12.8872  12.9662  13.0318  13.2806  13.5100  13.5696
    13.7125  14.1908  14.2218  14.2336  14.6814  14.7782  15.1530  15.3533
    15.3749  15.5240  15.8315  16.0920  16.4577  16.6567  17.1203  17.1448
    17.2218  17.2363  17.2809  17.9428  18.5639  18.6397  19.2483  19.4685
    19.8376  19.8431  19.8823  20.0180  20.0791  20.3017  20.3103  20.4547
    20.6106  20.6724  20.7845  21.1967  21.2382  21.3811  21.6594  21.7050
    21.7071  21.7658

          k = 0.0556 0.1667-0.3478 ( 47454 PWs)   bands (ev):

   -72.3189 -72.3016 -72.2972 -72.2930 -72.2903 -72.2891 -72.2882 -72.2874
   -72.2854 -72.2847 -72.2814 -72.2802 -72.2789 -72.2772 -72.2721 -72.2716
   -71.7286 -71.7286 -71.7174 -71.7174 -71.7147 -71.7146 -71.7137 -71.7137
   -71.7130 -71.7130 -71.7120 -71.7119 -71.7092 -71.7092 -71.6978 -71.6978
   -38.1524 -38.1515 -38.1502 -38.1489 -38.1377 -38.1376 -38.1320 -38.1041
   -38.1022 -38.1005 -38.0965 -38.0787 -38.0725 -38.0678 -38.0470 -38.0395
   -38.0382 -38.0335 -38.0198 -38.0125 -38.0083 -38.0021 -37.9993 -37.9957
   -37.9954 -37.9926 -37.9917 -37.9844 -37.9822 -37.9764 -37.9744 -37.9711
   -37.9607 -37.9513 -37.9454 -37.9383 -37.9363 -37.9360 -37.9320 -37.9315
   -37.9267 -37.9227 -37.8981 -37.8976 -37.8924 -37.8855 -37.8795 -37.8745
   -37.6016 -37.6007 -37.5983 -37.5966 -37.5898 -37.5896 -37.5852 -37.5851
   -37.5374 -37.5372 -37.5352 -37.5348 -37.5231 -37.5226 -37.5186 -37.5179
   -37.4906 -37.4902 -37.4859 -37.4855 -37.4733 -37.4732 -37.4711 -37.4709
   -37.4217 -37.4215 -37.4171 -37.4167 -37.4084 -37.4083 -37.4044 -37.4043
   -37.3323 -37.3292 -37.3205 -37.3201 -37.3184 -37.3179 -37.3174 -37.3167
   -37.3167 -37.3163 -37.3163 -37.3159 -37.3141 -37.3140 -37.3064 -37.3063
     5.5672   6.8342   7.0613   7.0669   7.1077   7.1125   7.1229   7.1405
     7.1457   7.2002   7.2211   7.3236   7.3255   7.3897   7.5713   7.6345
     7.6943   7.8723   7.8820   7.8962   7.9016   7.9100   7.9110   8.0016
     8.0058   8.0414   8.0472   8.0477   8.0667   8.0997   8.1082   8.1458
     8.1479   8.1836   8.2291   8.3008   8.3946   8.4037   8.4071   8.4104
     8.4349   8.4449   8.4538   8.5889   8.6243   8.6504   8.6920   8.7381
     8.7399   8.7764   8.7901   8.8443   8.8490   8.8836   8.9350   8.9667
     8.9815   8.9914   9.0170   9.0423   9.0857   9.1304   9.1765   9.1859
     9.1933   9.1966   9.3526   9.3602   9.3648   9.3689   9.3796   9.3826
     9.3956   9.4413   9.4847   9.4856   9.4970   9.6269   9.7032   9.7291
     9.7300   9.7604   9.8069   9.8196   9.8407   9.9005   9.9114   9.9350
     9.9873  10.0193  10.0361  10.0769  10.0831  10.1296  10.1728  10.1847
    10.1852  10.2130  10.2220  10.2280  10.2485  10.2804  10.2836  10.3049
    10.3080  10.3149  10.3342  10.3918  10.4572  10.4947  10.5064  10.5160
    10.6203  10.6447  10.6454  10.7151  10.7366  10.7533  10.7746  10.8209
    10.8356  10.8535  10.8923  10.9346  10.9664  10.9852  10.9922  11.0053
    11.0088  11.0667  11.1391  11.1628  11.1652  11.1862  11.1947  11.2138
    11.2143  11.2213  11.2424  11.2872  11.3746  11.3775  11.3869  11.3994
    11.4169  11.4508  11.4592  11.4974  11.5597  11.5766  11.5907  11.5992
    11.6153  11.6226  11.7112  11.7574  11.7641  11.8092  11.8136  11.8340
    11.8370  11.8626  11.9101  11.9269  11.9429  11.9624  12.2893  12.3162
    12.3510  12.7436  12.8849  12.8862  13.0308  13.2672  13.5107  13.5681
    13.7532  14.2118  14.2449  14.2625  14.6761  14.8186  15.1419  15.4150
    15.4410  15.4433  15.8350  16.0110  16.4610  16.5765  17.1454  17.1504
    17.1570  17.1964  17.2568  17.9315  18.6291  18.7454  19.3757  19.4625
    19.8200  19.8996  20.0216  20.0779  20.0835  20.2443  20.3371  20.5775
    20.6054  20.6151  20.7401  20.9614  21.2654  21.3342  21.4714  21.6677
    21.6683  21.7152

          k = 0.0556 0.2778 0.0386 ( 47431 PWs)   bands (ev):

   -72.3174 -72.3056 -72.2966 -72.2926 -72.2919 -72.2893 -72.2869 -72.2851
   -72.2839 -72.2837 -72.2828 -72.2806 -72.2794 -72.2759 -72.2735 -72.2720
   -71.7277 -71.7277 -71.7200 -71.7200 -71.7146 -71.7146 -71.7139 -71.7139
   -71.7128 -71.7127 -71.7121 -71.7120 -71.7066 -71.7065 -71.6988 -71.6988
   -38.1472 -38.1458 -38.1432 -38.1422 -38.1324 -38.1319 -38.1296 -38.1098
   -38.1081 -38.1078 -38.1004 -38.0969 -38.0868 -38.0867 -38.0512 -38.0443
   -38.0285 -38.0278 -38.0082 -38.0020 -38.0017 -37.9996 -37.9984 -37.9975
   -37.9959 -37.9919 -37.9912 -37.9879 -37.9840 -37.9820 -37.9784 -37.9720
   -37.9512 -37.9462 -37.9437 -37.9389 -37.9321 -37.9302 -37.9268 -37.9235
   -37.9206 -37.9180 -37.9073 -37.9047 -37.8968 -37.8876 -37.8873 -37.8788
   -37.5972 -37.5958 -37.5916 -37.5894 -37.5861 -37.5857 -37.5789 -37.5785
   -37.5534 -37.5526 -37.5489 -37.5482 -37.5401 -37.5390 -37.5333 -37.5325
   -37.4759 -37.4753 -37.4689 -37.4685 -37.4595 -37.4594 -37.4549 -37.4546
   -37.4285 -37.4284 -37.4209 -37.4207 -37.4157 -37.4157 -37.4092 -37.4091
   -37.3309 -37.3287 -37.3226 -37.3224 -37.3184 -37.3177 -37.3176 -37.3168
   -37.3167 -37.3164 -37.3160 -37.3158 -37.3123 -37.3122 -37.3070 -37.3069
     5.7003   6.7872   6.9478   7.1322   7.1491   7.1493   7.1800   7.2045
     7.2162   7.2793   7.3331   7.3715   7.3783   7.3788   7.5496   7.5897
     7.7083   7.7161   7.7383   7.7387   7.7709   7.7879   7.8610   7.9404
     7.9464   7.9996   8.0824   8.0938   8.0938   8.1061   8.1082   8.1129
     8.1151   8.1591   8.1800   8.1852   8.3404   8.3834   8.3913   8.4221
     8.4439   8.4715   8.5203   8.6214   8.6279   8.6396   8.6483   8.6732
     8.6975   8.7534   8.7791   8.8162   8.8255   8.9584   8.9649   9.0011
     9.0023   9.0068   9.0789   9.0842   9.1214   9.1740   9.1991   9.2069
     9.2611   9.3325   9.3588   9.3864   9.3947   9.4017   9.4043   9.4097
     9.4417   9.4805   9.4889   9.5277   9.5406   9.5453   9.5815   9.6383
     9.6606   9.6893   9.6930   9.7700   9.8433   9.8449   9.8502   9.8617
     9.8923   9.9043   9.9431  10.0178  10.0351  10.0914  10.1387  10.1534
    10.2227  10.2387  10.2590  10.2787  10.3026  10.3271  10.3400  10.3711
    10.3902  10.3928  10.4233  10.4419  10.4916  10.5194  10.5539  10.6370
    10.7066  10.7137  10.7356  10.7546  10.7660  10.8147  10.8399  10.8408
    10.8625  10.9031  10.9086  10.9286  10.9546  10.9624  10.9663  11.0092
    11.0098  11.0569  11.1500  11.1569  11.1701  11.2164  11.2327  11.3030
    11.3144  11.3188  11.3272  11.3361  11.3524  11.3707  11.3784  11.4152
    11.4213  11.4257  11.4931  11.4952  11.5028  11.5069  11.5465  11.5584
    11.5731  11.6019  11.6038  11.6862  11.6865  11.7662  11.7837  11.8127
    11.8243  11.8354  11.8397  11.8525  11.9164  12.1337  12.2114  12.2379
    12.4048  12.6194  12.6285  12.8880  13.0008  13.1465  13.3160  13.9820
    13.9972  14.0200  14.0798  14.4249  14.5481  14.9023  15.1597  15.3900
    15.7484  15.7978  15.8422  16.8482  16.8816  16.8837  17.2473  17.2484
    17.4127  17.4517  17.5636  17.6042  18.1411  18.5954  18.6641  19.0213
    19.1019  19.1390  19.3468  19.6482  19.8010  19.9311  20.0777  20.1880
    20.3598  20.3893  20.6664  21.1580  21.1751  21.2293  21.5462  21.6361
    21.7428  22.0070

          k = 0.0556 0.2778 0.1159 ( 47449 PWs)   bands (ev):

   -72.3174 -72.3056 -72.2966 -72.2926 -72.2919 -72.2893 -72.2869 -72.2851
   -72.2839 -72.2837 -72.2828 -72.2806 -72.2794 -72.2759 -72.2735 -72.2720
   -71.7277 -71.7277 -71.7200 -71.7200 -71.7146 -71.7146 -71.7139 -71.7139
   -71.7128 -71.7127 -71.7121 -71.7120 -71.7066 -71.7065 -71.6988 -71.6988
   -38.1472 -38.1458 -38.1432 -38.1423 -38.1324 -38.1319 -38.1296 -38.1098
   -38.1081 -38.1078 -38.1004 -38.0969 -38.0868 -38.0867 -38.0512 -38.0443
   -38.0285 -38.0278 -38.0082 -38.0020 -38.0017 -37.9996 -37.9984 -37.9975
   -37.9959 -37.9919 -37.9912 -37.9879 -37.9841 -37.9820 -37.9784 -37.9720
   -37.9512 -37.9462 -37.9437 -37.9389 -37.9321 -37.9302 -37.9268 -37.9235
   -37.9206 -37.9180 -37.9074 -37.9047 -37.8969 -37.8876 -37.8873 -37.8788
   -37.5972 -37.5959 -37.5916 -37.5894 -37.5861 -37.5857 -37.5789 -37.5785
   -37.5534 -37.5526 -37.5489 -37.5482 -37.5401 -37.5390 -37.5333 -37.5325
   -37.4759 -37.4753 -37.4689 -37.4685 -37.4595 -37.4594 -37.4549 -37.4546
   -37.4285 -37.4285 -37.4209 -37.4207 -37.4158 -37.4157 -37.4092 -37.4091
   -37.3309 -37.3286 -37.3227 -37.3224 -37.3184 -37.3178 -37.3176 -37.3168
   -37.3167 -37.3164 -37.3161 -37.3158 -37.3123 -37.3122 -37.3070 -37.3069
     5.7013   6.7878   6.9463   7.1323   7.1491   7.1494   7.1801   7.2046
     7.2163   7.2792   7.3302   7.3716   7.3783   7.3789   7.5497   7.5900
     7.7081   7.7155   7.7382   7.7387   7.7709   7.7894   7.8609   7.9405
     7.9461   7.9982   8.0822   8.0937   8.0939   8.1056   8.1078   8.1127
     8.1156   8.1586   8.1810   8.1844   8.3407   8.3833   8.3909   8.4222
     8.4435   8.4711   8.5203   8.6215   8.6278   8.6402   8.6480   8.6724
     8.6974   8.7537   8.7783   8.8161   8.8253   8.9585   8.9646   9.0010
     9.0040   9.0075   9.0789   9.0841   9.1224   9.1738   9.1991   9.2071
     9.2603   9.3325   9.3589   9.3866   9.3963   9.4010   9.4043   9.4094
     9.4428   9.4805   9.4888   9.5297   9.5406   9.5450   9.5814   9.6395
     9.6621   9.6908   9.6963   9.7693   9.8448   9.8515   9.8521   9.8616
     9.8922   9.9053   9.9429  10.0099  10.0374  10.0937  10.1393  10.1489
    10.2226  10.2389  10.2559  10.2706  10.3009  10.3277  10.3402  10.3701
    10.3898  10.3905  10.4257  10.4378  10.4945  10.5199  10.5544  10.6378
    10.7068  10.7179  10.7358  10.7525  10.7617  10.8055  10.8359  10.8498
    10.8591  10.9011  10.9081  10.9261  10.9552  10.9608  10.9663  11.0034
    11.0095  11.0693  11.1568  11.1641  11.1704  11.2239  11.2269  11.3013
    11.3197  11.3222  11.3272  11.3362  11.3510  11.3707  11.3827  11.4178
    11.4220  11.4381  11.4930  11.4995  11.4998  11.5041  11.5464  11.5601
    11.5733  11.6003  11.6029  11.6843  11.6866  11.7826  11.7836  11.7965
    11.8243  11.8357  11.8398  11.8522  11.9175  12.1337  12.2115  12.2478
    12.3792  12.6163  12.6223  12.8629  13.0620  13.1451  13.3086  13.7540
    13.9935  14.0430  14.1269  14.4591  14.6083  15.1666  15.1704  15.3777
    15.5053  15.8098  15.8577  16.6427  16.8542  17.1795  17.1885  17.2226
    17.2487  17.3751  17.5241  17.6201  18.3605  18.4598  18.9472  19.0004
    19.1277  19.1947  19.3537  19.6555  19.9514  19.9700  20.1253  20.1383
    20.3747  20.6480  20.6688  21.1279  21.1341  21.2122  21.3615  21.4304
    21.4452  21.8677

          k = 0.0556 0.2778 0.1932 ( 47434 PWs)   bands (ev):

   -72.3174 -72.3056 -72.2966 -72.2926 -72.2919 -72.2893 -72.2869 -72.2851
   -72.2839 -72.2837 -72.2828 -72.2806 -72.2794 -72.2759 -72.2735 -72.2720
   -71.7277 -71.7277 -71.7200 -71.7200 -71.7146 -71.7146 -71.7139 -71.7139
   -71.7128 -71.7127 -71.7121 -71.7120 -71.7066 -71.7065 -71.6988 -71.6988
   -38.1472 -38.1458 -38.1431 -38.1423 -38.1324 -38.1319 -38.1295 -38.1097
   -38.1081 -38.1078 -38.1004 -38.0969 -38.0868 -38.0867 -38.0512 -38.0443
   -38.0285 -38.0277 -38.0082 -38.0020 -38.0018 -37.9996 -37.9984 -37.9975
   -37.9959 -37.9919 -37.9912 -37.9879 -37.9841 -37.9820 -37.9784 -37.9720
   -37.9512 -37.9462 -37.9437 -37.9389 -37.9321 -37.9302 -37.9268 -37.9235
   -37.9206 -37.9180 -37.9073 -37.9047 -37.8968 -37.8876 -37.8874 -37.8789
   -37.5973 -37.5958 -37.5916 -37.5894 -37.5861 -37.5857 -37.5789 -37.5785
   -37.5534 -37.5526 -37.5489 -37.5482 -37.5401 -37.5389 -37.5333 -37.5325
   -37.4759 -37.4753 -37.4689 -37.4685 -37.4595 -37.4593 -37.4549 -37.4546
   -37.4285 -37.4285 -37.4209 -37.4207 -37.4158 -37.4157 -37.4092 -37.4091
   -37.3310 -37.3286 -37.3226 -37.3224 -37.3184 -37.3177 -37.3176 -37.3168
   -37.3167 -37.3164 -37.3160 -37.3158 -37.3123 -37.3122 -37.3071 -37.3069
     5.7028   6.7888   6.9439   7.1324   7.1492   7.1496   7.1802   7.2048
     7.2165   7.2790   7.3259   7.3717   7.3784   7.3790   7.5497   7.5903
     7.7077   7.7147   7.7380   7.7386   7.7709   7.7917   7.8609   7.9406
     7.9457   7.9960   8.0820   8.0935   8.0939   8.1051   8.1071   8.1126
     8.1163   8.1579   8.1824   8.1832   8.3411   8.3832   8.3902   8.4222
     8.4430   8.4706   8.5202   8.6215   8.6276   8.6410   8.6475   8.6713
     8.6974   8.7541   8.7771   8.8160   8.8251   8.9586   8.9641   9.0010
     9.0067   9.0085   9.0789   9.0839   9.1239   9.1735   9.1992   9.2073
     9.2592   9.3324   9.3591   9.3869   9.3988   9.3999   9.4042   9.4090
     9.4445   9.4806   9.4885   9.5329   9.5405   9.5445   9.5812   9.6414
     9.6645   9.6930   9.7014   9.7681   9.8470   9.8535   9.8615   9.8634
     9.8920   9.9068   9.9426   9.9981  10.0412  10.0976  10.1402  10.1415
    10.2225  10.2392  10.2507  10.2582  10.2988  10.3288  10.3405  10.3687
    10.3855  10.3910  10.4289  10.4317  10.4985  10.5205  10.5554  10.6389
    10.7072  10.7261  10.7360  10.7492  10.7550  10.7906  10.8297  10.8544
    10.8634  10.8979  10.9073  10.9222  10.9560  10.9586  10.9662  10.9967
    11.0090  11.0877  11.1673  11.1709  11.1716  11.2180  11.2389  11.2987
    11.3210  11.3272  11.3334  11.3364  11.3488  11.3704  11.3861  11.4220
    11.4235  11.4567  11.4886  11.4929  11.5061  11.5078  11.5463  11.5621
    11.5737  11.5946  11.6045  11.6823  11.6871  11.7378  11.7834  11.8243
    11.8362  11.8398  11.8494  11.8519  11.9221  12.1338  12.2116  12.2633
    12.3410  12.6077  12.6177  12.8258  13.1431  13.1607  13.2979  13.4810
    13.9542  14.1422  14.2022  14.5134  14.7060  15.1773  15.2259  15.3566
    15.4824  15.7543  15.9549  16.3610  16.8636  16.9046  17.1859  17.2538
    17.2856  17.4587  17.5869  17.6247  18.0885  18.8935  18.9680  19.0940
    19.2866  19.3649  19.3902  19.6668  19.8291  19.9034  20.0587  20.5747
    20.6517  20.6683  20.8319  20.8736  21.0734  21.0778  21.0936  21.4126
    21.4507  21.6188

          k = 0.0556 0.2778 0.2705 ( 47422 PWs)   bands (ev):

   -72.3174 -72.3056 -72.2966 -72.2926 -72.2919 -72.2893 -72.2869 -72.2851
   -72.2839 -72.2837 -72.2828 -72.2806 -72.2794 -72.2759 -72.2735 -72.2720
   -71.7277 -71.7277 -71.7200 -71.7200 -71.7146 -71.7146 -71.7139 -71.7139
   -71.7128 -71.7127 -71.7121 -71.7120 -71.7066 -71.7065 -71.6988 -71.6988
   -38.1472 -38.1458 -38.1431 -38.1422 -38.1324 -38.1319 -38.1294 -38.1098
   -38.1081 -38.1078 -38.1004 -38.0969 -38.0868 -38.0867 -38.0512 -38.0443
   -38.0285 -38.0278 -38.0081 -38.0020 -38.0018 -37.9996 -37.9984 -37.9975
   -37.9959 -37.9919 -37.9912 -37.9879 -37.9841 -37.9820 -37.9784 -37.9720
   -37.9512 -37.9461 -37.9436 -37.9389 -37.9322 -37.9302 -37.9268 -37.9235
   -37.9206 -37.9180 -37.9073 -37.9047 -37.8968 -37.8876 -37.8874 -37.8788
   -37.5973 -37.5958 -37.5916 -37.5894 -37.5861 -37.5857 -37.5788 -37.5785
   -37.5534 -37.5526 -37.5488 -37.5482 -37.5401 -37.5389 -37.5333 -37.5325
   -37.4759 -37.4752 -37.4689 -37.4685 -37.4595 -37.4593 -37.4549 -37.4547
   -37.4285 -37.4285 -37.4209 -37.4207 -37.4158 -37.4157 -37.4092 -37.4091
   -37.3310 -37.3285 -37.3226 -37.3224 -37.3184 -37.3177 -37.3176 -37.3168
   -37.3167 -37.3164 -37.3161 -37.3158 -37.3122 -37.3122 -37.3071 -37.3069
     5.7041   6.7896   6.9418   7.1325   7.1492   7.1497   7.1803   7.2050
     7.2166   7.2787   7.3222   7.3717   7.3785   7.3791   7.5497   7.5906
     7.7074   7.7139   7.7378   7.7385   7.7709   7.7937   7.8609   7.9407
     7.9454   7.9942   8.0817   8.0933   8.0940   8.1049   8.1061   8.1125
     8.1168   8.1574   8.1822   8.1836   8.3415   8.3831   8.3896   8.4222
     8.4425   8.4701   8.5201   8.6215   8.6275   8.6418   8.6470   8.6704
     8.6973   8.7545   8.7760   8.8158   8.8249   8.9587   8.9637   9.0010
     9.0091   9.0094   9.0788   9.0837   9.1252   9.1733   9.1993   9.2075
     9.2582   9.3323   9.3592   9.3872   9.3990   9.4009   9.4042   9.4086
     9.4460   9.4806   9.4883   9.5357   9.5404   9.5440   9.5811   9.6430
     9.6667   9.6949   9.7060   9.7671   9.8489   9.8556   9.8614   9.8737
     9.8918   9.9081   9.9424   9.9877  10.0451  10.1012  10.1345  10.1408
    10.2224  10.2394  10.2456  10.2473  10.2971  10.3298  10.3407  10.3676
    10.3821  10.3914  10.4264  10.4313  10.5017  10.5209  10.5563  10.6400
    10.7074  10.7360  10.7371  10.7462  10.7490  10.7743  10.8241  10.8508
    10.8751  10.8951  10.9066  10.9189  10.9568  10.9570  10.9662  10.9916
    11.0087  11.1048  11.1713  11.1755  11.1779  11.2086  11.2550  11.2964
    11.3221  11.3269  11.3366  11.3425  11.3469  11.3700  11.3877  11.4251
    11.4259  11.4713  11.4790  11.4928  11.5078  11.5157  11.5462  11.5635
    11.5747  11.5889  11.6059  11.6811  11.6876  11.6988  11.7832  11.8244
    11.8366  11.8399  11.8516  11.8916  11.9442  12.1339  12.2116  12.2773
    12.3083  12.5992  12.6151  12.7941  13.1412  13.2556  13.2736  13.2892
    13.9206  14.2377  14.2728  14.5636  14.8001  15.0145  15.1868  15.3350
    15.6988  15.7239  16.0484  16.1470  16.6951  16.8719  17.1546  17.2206
    17.2693  17.3901  17.6219  17.8827  17.9397  18.9398  19.1126  19.3069
    19.3752  19.3759  19.5718  19.6754  19.7158  19.9167  20.1650  20.4573
    20.7307  20.7560  20.9111  20.9201  20.9322  21.0403  21.1977  21.4175
    21.5096  21.5705

          k = 0.0556 0.2778-0.3478 ( 47402 PWs)   bands (ev):

   -72.3174 -72.3056 -72.2966 -72.2926 -72.2919 -72.2893 -72.2869 -72.2851
   -72.2839 -72.2837 -72.2828 -72.2806 -72.2794 -72.2759 -72.2735 -72.2720
   -71.7277 -71.7277 -71.7200 -71.7200 -71.7146 -71.7146 -71.7139 -71.7139
   -71.7128 -71.7127 -71.7121 -71.7120 -71.7066 -71.7065 -71.6988 -71.6988
   -38.1472 -38.1458 -38.1432 -38.1423 -38.1324 -38.1319 -38.1294 -38.1097
   -38.1081 -38.1078 -38.1003 -38.0969 -38.0868 -38.0867 -38.0512 -38.0443
   -38.0285 -38.0278 -38.0081 -38.0020 -38.0018 -37.9995 -37.9985 -37.9975
   -37.9959 -37.9919 -37.9912 -37.9879 -37.9841 -37.9820 -37.9784 -37.9720
   -37.9513 -37.9461 -37.9436 -37.9389 -37.9322 -37.9302 -37.9268 -37.9235
   -37.9206 -37.9180 -37.9073 -37.9047 -37.8968 -37.8876 -37.8874 -37.8788
   -37.5973 -37.5958 -37.5916 -37.5894 -37.5861 -37.5857 -37.5788 -37.5785
   -37.5534 -37.5526 -37.5488 -37.5482 -37.5401 -37.5389 -37.5333 -37.5325
   -37.4759 -37.4752 -37.4689 -37.4685 -37.4595 -37.4593 -37.4549 -37.4547
   -37.4285 -37.4285 -37.4210 -37.4207 -37.4157 -37.4157 -37.4092 -37.4091
   -37.3310 -37.3285 -37.3226 -37.3224 -37.3184 -37.3178 -37.3176 -37.3168
   -37.3167 -37.3164 -37.3161 -37.3158 -37.3122 -37.3121 -37.3071 -37.3069
     5.7046   6.7900   6.9409   7.1326   7.1493   7.1498   7.1803   7.2051
     7.2166   7.2786   7.3208   7.3718   7.3786   7.3792   7.5498   7.5907
     7.7072   7.7136   7.7378   7.7385   7.7709   7.7945   7.8609   7.9407
     7.9452   7.9935   8.0816   8.0932   8.0940   8.1052   8.1055   8.1125
     8.1171   8.1572   8.1818   8.1841   8.3416   8.3831   8.3893   8.4222
     8.4423   8.4699   8.5201   8.6216   8.6274   8.6421   8.6468   8.6700
     8.6973   8.7547   8.7756   8.8158   8.8248   8.9587   8.9636   9.0009
     9.0098   9.0101   9.0788   9.0837   9.1257   9.1732   9.1993   9.2075
     9.2578   9.3323   9.3593   9.3873   9.3986   9.4018   9.4042   9.4084
     9.4465   9.4806   9.4882   9.5368   9.5403   9.5439   9.5811   9.6437
     9.6676   9.6956   9.7079   9.7667   9.8497   9.8565   9.8613   9.8778
     9.8918   9.9086   9.9423   9.9836  10.0468  10.1028  10.1316  10.1411
    10.2224  10.2395  10.2429  10.2434  10.2966  10.3302  10.3409  10.3672
    10.3808  10.3916  10.4243  10.4322  10.5029  10.5210  10.5566  10.6404
    10.7074  10.7360  10.7451  10.7454  10.7466  10.7641  10.8218  10.8495
    10.8797  10.8940  10.9063  10.9176  10.9564  10.9571  10.9662  10.9897
    11.0086  11.1120  11.1714  11.1766  11.1837  11.2034  11.2620  11.2956
    11.3225  11.3267  11.3366  11.3460  11.3461  11.3698  11.3881  11.4260
    11.4275  11.4751  11.4766  11.4928  11.5085  11.5191  11.5461  11.5639
    11.5753  11.5862  11.6064  11.6807  11.6834  11.6878  11.7832  11.8243
    11.8369  11.8399  11.8514  11.8996  11.9665  12.1340  12.2116  12.2828
    12.2956  12.5960  12.6142  12.7818  13.1405  13.1941  13.2859  13.2962
    13.9076  14.2784  14.3021  14.5843  14.8402  14.9344  15.1907  15.3256
    15.6748  15.8162  16.0661  16.0882  16.6158  16.8752  17.1425  17.1974
    17.2859  17.3526  17.6200  17.8050  18.0931  18.9287  19.1181  19.3793
    19.4141  19.4715  19.5074  19.6748  19.8403  19.9345  20.2182  20.2816
    20.6639  20.8579  20.9197  20.9499  20.9673  21.0551  21.1592  21.4390
    21.4842  21.5375

          k = 0.0556 0.3889 0.0386 ( 47470 PWs)   bands (ev):

   -72.3153 -72.3093 -72.2957 -72.2933 -72.2920 -72.2903 -72.2861 -72.2841
   -72.2827 -72.2825 -72.2815 -72.2811 -72.2802 -72.2756 -72.2747 -72.2727
   -71.7263 -71.7263 -71.7224 -71.7224 -71.7145 -71.7144 -71.7141 -71.7141
   -71.7125 -71.7125 -71.7122 -71.7122 -71.7041 -71.7041 -71.7002 -71.7002
   -38.1388 -38.1378 -38.1339 -38.1330 -38.1258 -38.1250 -38.1236 -38.1178
   -38.1156 -38.1156 -38.1133 -38.1075 -38.1045 -38.1005 -38.0525 -38.0486
   -38.0214 -38.0168 -38.0100 -38.0048 -38.0014 -38.0002 -38.0000 -37.9991
   -37.9972 -37.9936 -37.9877 -37.9833 -37.9781 -37.9766 -37.9744 -37.9695
   -37.9597 -37.9550 -37.9307 -37.9270 -37.9261 -37.9254 -37.9252 -37.9203
   -37.9173 -37.9131 -37.9115 -37.9056 -37.9043 -37.8982 -37.8929 -37.8856
   -37.5900 -37.5884 -37.5821 -37.5800 -37.5797 -37.5794 -37.5702 -37.5696
   -37.5678 -37.5665 -37.5611 -37.5603 -37.5560 -37.5543 -37.5471 -37.5462
   -37.4619 -37.4613 -37.4529 -37.4526 -37.4470 -37.4468 -37.4403 -37.4400
   -37.4378 -37.4375 -37.4273 -37.4272 -37.4259 -37.4258 -37.4170 -37.4169
   -37.3291 -37.3276 -37.3247 -37.3246 -37.3184 -37.3180 -37.3174 -37.3169
   -37.3167 -37.3165 -37.3159 -37.3158 -37.3106 -37.3105 -37.3080 -37.3078
     5.9013   6.4601   7.0994   7.2113   7.2330   7.2668   7.2690   7.2919
     7.3147   7.3431   7.3970   7.4424   7.4587   7.4735   7.4830   7.4868
     7.4984   7.5354   7.5751   7.5810   7.6444   7.7005   7.7437   7.8214
     7.9227   8.0499   8.0981   8.1004   8.1155   8.1242   8.1344   8.1496
     8.1951   8.2057   8.2159   8.2173   8.2293   8.3399   8.3941   8.4011
     8.4219   8.4591   8.4965   8.5063   8.5332   8.5569   8.5905   8.6040
     8.6104   8.6524   8.8250   8.8809   8.9552   8.9851   9.0038   9.0228
     9.0449   9.0858   9.1658   9.1693   9.1700   9.1931   9.2160   9.2168
     9.3113   9.3255   9.3886   9.3940   9.3946   9.4281   9.4325   9.4336
     9.4375   9.4436   9.4547   9.5003   9.5072   9.5892   9.5962   9.6130
     9.6258   9.6362   9.6811   9.6899   9.6989   9.7635   9.7655   9.8070
     9.8455   9.8514  10.0668  10.0900  10.0908  10.1207  10.1642  10.1878
    10.2172  10.2603  10.2738  10.3118  10.3505  10.3545  10.3627  10.3646
    10.3771  10.3802  10.4430  10.4489  10.5822  10.5930  10.6174  10.6455
    10.6516  10.6882  10.7595  10.7840  10.7870  10.8220  10.8230  10.8483
    10.8886  10.9002  10.9096  10.9264  11.0135  11.0563  11.0771  11.1070
    11.1424  11.1609  11.1869  11.1917  11.1966  11.2161  11.2453  11.2512
    11.2875  11.2920  11.3285  11.3417  11.3507  11.3865  11.4102  11.4275
    11.4304  11.4455  11.4462  11.4687  11.4906  11.4927  11.5084  11.5298
    11.5677  11.5869  11.6073  11.6144  11.6273  11.6277  11.6843  11.7684
    11.8607  11.8676  11.8822  11.9259  11.9413  12.0146  12.0573  12.2411
    12.4069  12.4861  12.5875  12.7355  12.8898  12.9411  13.1514  14.0061
    14.0666  14.3650  14.4032  14.5585  14.5756  14.7474  15.2544  15.3481
    16.1219  16.3516  16.3934  16.4382  16.5398  16.9131  17.3160  17.3831
    17.6568  17.7165  17.8056  17.9136  18.2164  18.2281  18.3269  18.6099
    18.6538  18.7885  19.2663  19.4463  19.7582  20.0126  20.0313  20.2477
    20.3886  20.4007  20.4913  20.5965  20.6096  20.7089  21.2280  21.2940
    21.6235  21.7291

          k = 0.0556 0.3889 0.1159 ( 47463 PWs)   bands (ev):

   -72.3153 -72.3093 -72.2957 -72.2933 -72.2920 -72.2903 -72.2861 -72.2841
   -72.2827 -72.2825 -72.2815 -72.2811 -72.2802 -72.2756 -72.2747 -72.2727
   -71.7263 -71.7263 -71.7224 -71.7224 -71.7145 -71.7144 -71.7141 -71.7141
   -71.7125 -71.7125 -71.7122 -71.7122 -71.7041 -71.7041 -71.7002 -71.7002
   -38.1388 -38.1378 -38.1339 -38.1330 -38.1258 -38.1251 -38.1236 -38.1179
   -38.1156 -38.1156 -38.1134 -38.1075 -38.1044 -38.1005 -38.0525 -38.0486
   -38.0214 -38.0168 -38.0100 -38.0048 -38.0014 -38.0002 -38.0000 -37.9991
   -37.9972 -37.9936 -37.9877 -37.9833 -37.9781 -37.9766 -37.9744 -37.9695
   -37.9597 -37.9550 -37.9307 -37.9270 -37.9261 -37.9254 -37.9252 -37.9203
   -37.9173 -37.9131 -37.9115 -37.9056 -37.9043 -37.8982 -37.8929 -37.8856
   -37.5900 -37.5884 -37.5821 -37.5800 -37.5797 -37.5794 -37.5702 -37.5696
   -37.5678 -37.5665 -37.5611 -37.5603 -37.5560 -37.5543 -37.5471 -37.5463
   -37.4619 -37.4613 -37.4529 -37.4526 -37.4470 -37.4468 -37.4403 -37.4400
   -37.4377 -37.4375 -37.4273 -37.4272 -37.4259 -37.4258 -37.4170 -37.4169
   -37.3292 -37.3275 -37.3248 -37.3245 -37.3183 -37.3180 -37.3174 -37.3169
   -37.3167 -37.3166 -37.3159 -37.3158 -37.3106 -37.3105 -37.3080 -37.3078
     5.9022   6.4609   7.0981   7.2114   7.2331   7.2669   7.2690   7.2920
     7.3148   7.3431   7.3969   7.4424   7.4588   7.4707   7.4832   7.4868
     7.4976   7.5352   7.5751   7.5809   7.6445   7.7005   7.7437   7.8191
     7.9238   8.0503   8.0985   8.1005   8.1163   8.1236   8.1344   8.1494
     8.1948   8.2060   8.2158   8.2172   8.2286   8.3394   8.3933   8.4010
     8.4226   8.4587   8.4962   8.5060   8.5331   8.5561   8.5903   8.6034
     8.6103   8.6524   8.8254   8.8808   8.9556   8.9850   9.0040   9.0236
     9.0449   9.0859   9.1673   9.1695   9.1700   9.1934   9.2164   9.2203
     9.3112   9.3251   9.3908   9.3941   9.3947   9.4281   9.4322   9.4335
     9.4375   9.4466   9.4553   9.5003   9.5076   9.5895   9.5982   9.6136
     9.6266   9.6431   9.6820   9.6904   9.6985   9.7652   9.7654   9.8069
     9.8454   9.8521  10.0667  10.0853  10.0911  10.1218  10.1650  10.1877
    10.2136  10.2590  10.2738  10.3116  10.3502  10.3544  10.3559  10.3641
    10.3708  10.3770  10.4435  10.4498  10.5789  10.5876  10.5967  10.6395
    10.6596  10.6893  10.7588  10.7837  10.7872  10.8211  10.8215  10.8477
    10.8870  10.9009  10.9079  10.9472  11.0114  11.0625  11.0771  11.1063
    11.1406  11.1610  11.1851  11.1966  11.2048  11.2080  11.2439  11.2508
    11.3018  11.3024  11.3343  11.3458  11.3511  11.3879  11.4107  11.4285
    11.4296  11.4359  11.4458  11.4688  11.4898  11.4929  11.5084  11.5255
    11.5636  11.5878  11.5987  11.6066  11.6125  11.6280  11.6844  11.7684
    11.8606  11.8674  11.8906  11.9259  11.9850  12.0154  12.0573  12.2404
    12.3845  12.4730  12.6482  12.7351  12.8985  12.9191  13.1382  14.0665
    14.1212  14.1283  14.4105  14.6055  14.6342  14.7213  15.0155  15.6178
    16.0962  16.3561  16.3678  16.5993  16.6436  16.6888  17.1313  17.3893
    17.5755  17.5860  17.8094  18.0352  18.2748  18.2807  18.4926  18.6593
    18.8112  18.8342  19.0429  19.4224  19.9162  20.0486  20.1029  20.3502
    20.3800  20.4488  20.4710  20.5194  20.5621  20.8237  20.9686  21.3053
    21.6685  21.8130

          k = 0.0556 0.3889 0.1932 ( 47451 PWs)   bands (ev):

   -72.3153 -72.3093 -72.2957 -72.2933 -72.2920 -72.2903 -72.2861 -72.2841
   -72.2827 -72.2825 -72.2815 -72.2811 -72.2802 -72.2756 -72.2747 -72.2727
   -71.7263 -71.7263 -71.7224 -71.7224 -71.7145 -71.7144 -71.7141 -71.7141
   -71.7125 -71.7125 -71.7122 -71.7122 -71.7041 -71.7041 -71.7002 -71.7002
   -38.1388 -38.1378 -38.1339 -38.1330 -38.1257 -38.1251 -38.1236 -38.1178
   -38.1156 -38.1155 -38.1133 -38.1075 -38.1044 -38.1005 -38.0525 -38.0486
   -38.0214 -38.0168 -38.0100 -38.0048 -38.0014 -38.0002 -38.0000 -37.9991
   -37.9972 -37.9936 -37.9877 -37.9833 -37.9781 -37.9766 -37.9745 -37.9695
   -37.9597 -37.9550 -37.9308 -37.9270 -37.9261 -37.9253 -37.9252 -37.9203
   -37.9173 -37.9130 -37.9115 -37.9056 -37.9043 -37.8982 -37.8928 -37.8857
   -37.5900 -37.5884 -37.5821 -37.5800 -37.5798 -37.5794 -37.5702 -37.5696
   -37.5678 -37.5665 -37.5611 -37.5603 -37.5560 -37.5542 -37.5471 -37.5462
   -37.4619 -37.4613 -37.4529 -37.4526 -37.4470 -37.4468 -37.4402 -37.4400
   -37.4378 -37.4375 -37.4273 -37.4273 -37.4258 -37.4258 -37.4169 -37.4169
   -37.3292 -37.3275 -37.3248 -37.3245 -37.3183 -37.3180 -37.3174 -37.3169
   -37.3167 -37.3165 -37.3158 -37.3158 -37.3107 -37.3105 -37.3080 -37.3078
     5.9036   6.4620   7.0961   7.2114   7.2333   7.2669   7.2690   7.2921
     7.3148   7.3431   7.3967   7.4425   7.4589   7.4664   7.4834   7.4868
     7.4964   7.5350   7.5750   7.5808   7.6445   7.7005   7.7436   7.8156
     7.9256   8.0507   8.0990   8.1008   8.1176   8.1228   8.1343   8.1491
     8.1945   8.2066   8.2157   8.2170   8.2275   8.3387   8.3921   8.4010
     8.4236   8.4582   8.4957   8.5055   8.5329   8.5550   8.5900   8.6025
     8.6103   8.6524   8.8260   8.8806   8.9561   8.9849   9.0042   9.0248
     9.0449   9.0861   9.1696   9.1697   9.1699   9.1937   9.2171   9.2258
     9.3112   9.3246   9.3939   9.3945   9.3948   9.4279   9.4318   9.4333
     9.4375   9.4511   9.4561   9.5004   9.5082   9.5899   9.6014   9.6146
     9.6279   9.6538   9.6835   9.6913   9.6979   9.7653   9.7677   9.8068
     9.8454   9.8534  10.0666  10.0768  10.0930  10.1236  10.1661  10.1876
    10.2077  10.2568  10.2737  10.3111  10.3467  10.3496  10.3542  10.3615
    10.3632  10.3723  10.4444  10.4507  10.5724  10.5738  10.5794  10.6305
    10.6651  10.6910  10.7576  10.7832  10.7877  10.8193  10.8196  10.8465
    10.8845  10.9020  10.9054  10.9814  11.0089  11.0713  11.0772  11.1055
    11.1363  11.1612  11.1823  11.1967  11.1986  11.2246  11.2418  11.2498
    11.3181  11.3228  11.3434  11.3518  11.3528  11.3898  11.4109  11.4184
    11.4280  11.4300  11.4463  11.4690  11.4883  11.4932  11.5085  11.5189
[...]
    10.2860  10.2860  10.2860  10.2860  10.2861  10.2861  10.2861  10.2861
    10.3208  10.3208  10.3208  10.3208  10.3209  10.3209  10.3209  10.3209
    10.3376  10.3376  10.3376  10.3376  10.5598  10.5598  10.5598  10.5598
    10.8994  10.8994  10.8994  10.8994  10.9071  10.9071  10.9071  10.9071
    10.9071  10.9071  10.9071  10.9071  11.0709  11.0709  11.0709  11.0709
    11.1631  11.1631  11.1631  11.1631  11.3726  11.3726  11.3726  11.3726
    11.4997  11.4997  11.4997  11.4997  11.4997  11.4997  11.4997  11.4997
    11.7946  11.7946  11.7946  11.7946  11.8457  11.8457  11.8457  11.8457
    11.8457  11.8457  11.8457  11.8457  11.8629  11.8629  11.8629  11.8629
    12.5572  12.5572  12.5572  12.5572  15.0957  15.0957  15.0957  15.0957
    15.0957  15.0957  15.0957  15.0957  15.2738  15.2738  15.2738  15.2738
    16.2401  16.2401  16.2401  16.2402  16.2402  16.2402  16.2402  16.2402
    17.1051  17.1051  17.1051  17.1051  18.1906  18.1906  18.1906  18.1906
    18.1907  18.1907  18.1907  18.1907  20.4431  20.4431  20.4431  20.4431
    20.8889  20.8889  20.8889  20.8889  20.8889  20.8889  20.8889  20.8889
    21.2360  21.2360

          k =-0.5000-0.5000 0.1932 ( 47464 PWs)   bands (ev):

   -72.3139 -72.3139 -72.3139 -72.3139 -72.2913 -72.2913 -72.2913 -72.2913
   -72.2863 -72.2863 -72.2863 -72.2863 -72.2863 -72.2863 -72.2863 -72.2863
   -71.7318 -71.7318 -71.7318 -71.7318 -71.7318 -71.7318 -71.7318 -71.7318
   -71.7159 -71.7159 -71.7159 -71.7159 -71.7158 -71.7158 -71.7158 -71.7158
   -38.1393 -38.1393 -38.1393 -38.1393 -38.1393 -38.1393 -38.1393 -38.1392
   -38.1276 -38.1276 -38.1276 -38.1276 -38.0758 -38.0758 -38.0758 -38.0758
   -38.0162 -38.0162 -38.0162 -38.0162 -38.0162 -38.0162 -38.0162 -38.0162
   -37.9750 -37.9750 -37.9750 -37.9750 -37.9732 -37.9732 -37.9732 -37.9732
   -37.9732 -37.9732 -37.9732 -37.9732 -37.9532 -37.9532 -37.9532 -37.9532
   -37.9303 -37.9303 -37.9303 -37.9303 -37.8810 -37.8810 -37.8810 -37.8810
   -37.6058 -37.6058 -37.6058 -37.6058 -37.6058 -37.6058 -37.6058 -37.6058
   -37.5227 -37.5227 -37.5227 -37.5227 -37.5200 -37.5200 -37.5200 -37.5200
   -37.5082 -37.5082 -37.5082 -37.5082 -37.5082 -37.5082 -37.5082 -37.5082
   -37.4198 -37.4198 -37.4198 -37.4198 -37.4196 -37.4196 -37.4196 -37.4196
   -37.3341 -37.3341 -37.3341 -37.3341 -37.3333 -37.3333 -37.3333 -37.3333
   -37.3221 -37.3221 -37.3221 -37.3221 -37.3221 -37.3221 -37.3221 -37.3221
     6.5938   6.5938   6.5938   6.5938   7.2196   7.2196   7.2196   7.2196
     7.5465   7.5465   7.5465   7.5465   7.5465   7.5465   7.5465   7.5465
     7.6517   7.6517   7.6517   7.6517   7.7183   7.7183   7.7183   7.7183
     7.7183   7.7183   7.7183   7.7183   7.8000   7.8000   7.8000   7.8000
     8.0973   8.0973   8.0973   8.0973   8.4066   8.4066   8.4066   8.4066
     8.4067   8.4067   8.4067   8.4067   8.7138   8.7138   8.7138   8.7138
     8.7138   8.7138   8.7138   8.7138   8.8840   8.8840   8.8840   8.8840
     9.1188   9.1189   9.1189   9.1189   9.3710   9.3710   9.3710   9.3710
     9.4915   9.4915   9.4915   9.4915   9.4972   9.4972   9.4972   9.4972
     9.5764   9.5764   9.5764   9.5764   9.6933   9.6933   9.6933   9.6933
     9.6933   9.6933   9.6933   9.6933   9.7247   9.7247   9.7247   9.7247
    10.0301  10.0301  10.0301  10.0301  10.1613  10.1613  10.1613  10.1613
    10.2862  10.2862  10.2862  10.2862  10.2862  10.2862  10.2862  10.2862
    10.3224  10.3224  10.3224  10.3224  10.3224  10.3224  10.3224  10.3224
    10.3377  10.3377  10.3377  10.3377  10.5597  10.5598  10.5598  10.5598
    10.9015  10.9015  10.9015  10.9015  10.9015  10.9015  10.9015  10.9015
    10.9043  10.9043  10.9043  10.9043  11.0262  11.0262  11.0262  11.0262
    11.1631  11.1631  11.1632  11.1632  11.3725  11.3725  11.3725  11.3725
    11.5034  11.5034  11.5034  11.5034  11.5034  11.5034  11.5034  11.5034
    11.7947  11.7947  11.7947  11.7947  11.8462  11.8462  11.8462  11.8462
    11.8462  11.8462  11.8462  11.8462  11.8629  11.8629  11.8629  11.8629
    12.6708  12.6708  12.6708  12.6708  14.9920  14.9920  14.9920  14.9921
    15.1017  15.1017  15.1017  15.1017  15.1017  15.1017  15.1017  15.1017
    16.2193  16.2193  16.2193  16.2193  16.2193  16.2193  16.2193  16.2193
    17.4970  17.4970  17.4970  17.4970  18.2462  18.2462  18.2462  18.2462
    18.2463  18.2463  18.2463  18.2463  20.4493  20.4493  20.4493  20.4493
    20.6657  20.6657  20.6657  20.6657  20.6657  20.6657  20.7963  20.7963
    20.7965  20.7965

          k =-0.5000-0.5000 0.2705 ( 47436 PWs)   bands (ev):

   -72.3139 -72.3139 -72.3139 -72.3139 -72.2913 -72.2913 -72.2913 -72.2913
   -72.2863 -72.2863 -72.2863 -72.2863 -72.2863 -72.2863 -72.2863 -72.2863
   -71.7318 -71.7318 -71.7318 -71.7318 -71.7318 -71.7318 -71.7318 -71.7318
   -71.7159 -71.7159 -71.7159 -71.7159 -71.7158 -71.7158 -71.7158 -71.7158
   -38.1393 -38.1393 -38.1393 -38.1393 -38.1392 -38.1392 -38.1392 -38.1392
   -38.1276 -38.1276 -38.1276 -38.1276 -38.0758 -38.0758 -38.0758 -38.0758
   -38.0162 -38.0162 -38.0162 -38.0162 -38.0162 -38.0162 -38.0162 -38.0162
   -37.9750 -37.9750 -37.9750 -37.9750 -37.9732 -37.9732 -37.9732 -37.9732
   -37.9732 -37.9732 -37.9732 -37.9732 -37.9532 -37.9532 -37.9532 -37.9532
   -37.9303 -37.9303 -37.9303 -37.9303 -37.8810 -37.8810 -37.8810 -37.8810
   -37.6058 -37.6058 -37.6058 -37.6058 -37.6057 -37.6057 -37.6057 -37.6057
   -37.5227 -37.5227 -37.5227 -37.5227 -37.5200 -37.5200 -37.5200 -37.5200
   -37.5082 -37.5082 -37.5082 -37.5082 -37.5082 -37.5082 -37.5082 -37.5082
   -37.4198 -37.4198 -37.4198 -37.4198 -37.4197 -37.4197 -37.4197 -37.4197
   -37.3340 -37.3340 -37.3340 -37.3340 -37.3333 -37.3333 -37.3333 -37.3333
   -37.3221 -37.3221 -37.3221 -37.3221 -37.3221 -37.3221 -37.3221 -37.3221
     6.5942   6.5942   6.5942   6.5942   7.2189   7.2189   7.2189   7.2189
     7.5465   7.5465   7.5465   7.5465   7.5465   7.5465   7.5465   7.5465
     7.6504   7.6504   7.6504   7.6504   7.7182   7.7182   7.7182   7.7182
     7.7182   7.7182   7.7182   7.7182   7.8018   7.8018   7.8018   7.8018
     8.0969   8.0969   8.0969   8.0969   8.4071   8.4071   8.4071   8.4071
     8.4072   8.4072   8.4072   8.4072   8.7135   8.7135   8.7135   8.7135
     8.7135   8.7135   8.7135   8.7135   8.8847   8.8848   8.8848   8.8848
     9.1187   9.1187   9.1187   9.1187   9.3711   9.3711   9.3711   9.3711
     9.4901   9.4901   9.4901   9.4901   9.4972   9.4972   9.4972   9.4972
     9.5809   9.5809   9.5809   9.5809   9.6933   9.6933   9.6933   9.6933
     9.6933   9.6933   9.6933   9.6933   9.7247   9.7247   9.7247   9.7247
    10.0266  10.0266  10.0266  10.0266  10.1653  10.1653  10.1653  10.1653
    10.2863  10.2863  10.2863  10.2863  10.2863  10.2863  10.2863  10.2863
    10.3238  10.3238  10.3238  10.3238  10.3238  10.3238  10.3238  10.3238
    10.3377  10.3377  10.3377  10.3377  10.5597  10.5597  10.5597  10.5597
    10.8966  10.8966  10.8966  10.8966  10.8966  10.8966  10.8966  10.8966
    10.9127  10.9127  10.9127  10.9127  10.9851  10.9851  10.9851  10.9851
    11.1631  11.1631  11.1632  11.1632  11.3724  11.3724  11.3724  11.3724
    11.5066  11.5066  11.5066  11.5066  11.5066  11.5066  11.5066  11.5066
    11.7948  11.7948  11.7948  11.7948  11.8466  11.8466  11.8466  11.8466
    11.8466  11.8467  11.8467  11.8467  11.8629  11.8629  11.8629  11.8629
    12.7786  12.7786  12.7786  12.7786  14.7749  14.7749  14.7749  14.7749
    15.1071  15.1071  15.1071  15.1071  15.1071  15.1071  15.1071  15.1071
    16.2012  16.2012  16.2012  16.2012  16.2012  16.2012  16.2012  16.2012
    17.8454  17.8454  17.8454  17.8454  18.2977  18.2977  18.2977  18.2977
    18.2977  18.2977  18.2977  18.2977  20.3633  20.3633  20.3633  20.3633
    20.4986  20.4986  20.4986  20.4986  20.5047  20.5047  20.5047  20.5047
    20.5048  20.5048

          k =-0.5000-0.5000-0.3478 ( 47384 PWs)   bands (ev):

   -72.3139 -72.3139 -72.3139 -72.3139 -72.2913 -72.2913 -72.2913 -72.2913
   -72.2863 -72.2863 -72.2863 -72.2863 -72.2863 -72.2863 -72.2863 -72.2863
   -71.7318 -71.7318 -71.7318 -71.7318 -71.7318 -71.7318 -71.7318 -71.7318
   -71.7159 -71.7159 -71.7159 -71.7159 -71.7158 -71.7158 -71.7158 -71.7158
   -38.1393 -38.1393 -38.1393 -38.1393 -38.1393 -38.1393 -38.1393 -38.1393
   -38.1275 -38.1275 -38.1275 -38.1275 -38.0757 -38.0757 -38.0757 -38.0757
   -38.0162 -38.0162 -38.0162 -38.0162 -38.0162 -38.0162 -38.0162 -38.0162
   -37.9749 -37.9749 -37.9749 -37.9749 -37.9732 -37.9732 -37.9732 -37.9732
   -37.9732 -37.9732 -37.9732 -37.9732 -37.9531 -37.9531 -37.9531 -37.9531
   -37.9302 -37.9302 -37.9302 -37.9302 -37.8810 -37.8810 -37.8810 -37.8810
   -37.6058 -37.6058 -37.6058 -37.6058 -37.6058 -37.6058 -37.6058 -37.6058
   -37.5227 -37.5227 -37.5227 -37.5227 -37.5199 -37.5199 -37.5199 -37.5199
   -37.5082 -37.5082 -37.5082 -37.5082 -37.5082 -37.5082 -37.5082 -37.5082
   -37.4198 -37.4198 -37.4198 -37.4198 -37.4197 -37.4197 -37.4197 -37.4197
   -37.3340 -37.3340 -37.3340 -37.3340 -37.3333 -37.3332 -37.3332 -37.3332
   -37.3221 -37.3221 -37.3221 -37.3221 -37.3221 -37.3221 -37.3221 -37.3221
     6.5944   6.5944   6.5944   6.5944   7.2186   7.2186   7.2186   7.2186
     7.5465   7.5465   7.5465   7.5465   7.5465   7.5465   7.5465   7.5465
     7.6499   7.6499   7.6499   7.6499   7.7181   7.7181   7.7181   7.7181
     7.7181   7.7181   7.7181   7.7181   7.8025   7.8025   7.8025   7.8025
     8.0967   8.0967   8.0967   8.0967   8.4073   8.4073   8.4073   8.4073
     8.4074   8.4074   8.4074   8.4074   8.7134   8.7134   8.7134   8.7134
     8.7134   8.7134   8.7134   8.7134   8.8851   8.8851   8.8851   8.8851
     9.1187   9.1187   9.1187   9.1187   9.3711   9.3711   9.3711   9.3711
     9.4896   9.4896   9.4896   9.4896   9.4972   9.4972   9.4972   9.4972
     9.5827   9.5827   9.5827   9.5827   9.6932   9.6932   9.6932   9.6932
     9.6932   9.6932   9.6932   9.6933   9.7247   9.7247   9.7247   9.7247
    10.0253  10.0253  10.0253  10.0253  10.1669  10.1669  10.1670  10.1670
    10.2863  10.2863  10.2864  10.2864  10.2864  10.2864  10.2864  10.2864
    10.3243  10.3243  10.3243  10.3243  10.3244  10.3244  10.3244  10.3244
    10.3377  10.3377  10.3377  10.3377  10.5597  10.5597  10.5597  10.5598
    10.8947  10.8947  10.8947  10.8947  10.8947  10.8947  10.8947  10.8947
    10.9196  10.9196  10.9196  10.9196  10.9658  10.9658  10.9658  10.9658
    11.1632  11.1632  11.1632  11.1632  11.3723  11.3723  11.3723  11.3723
    11.5079  11.5079  11.5079  11.5079  11.5079  11.5079  11.5079  11.5079
    11.7949  11.7949  11.7949  11.7949  11.8468  11.8468  11.8468  11.8468
    11.8468  11.8468  11.8468  11.8468  11.8629  11.8629  11.8629  11.8629
    12.8243  12.8243  12.8243  12.8243  14.6921  14.6921  14.6921  14.6921
    15.1092  15.1092  15.1092  15.1092  15.1092  15.1092  15.1092  15.1092
    16.1941  16.1942  16.1942  16.1942  16.1942  16.1942  16.1942  16.1942
    17.9960  17.9960  17.9960  17.9961  18.3188  18.3188  18.3188  18.3188
    18.3188  18.3188  18.3188  18.3188  20.2131  20.2131  20.2131  20.2132
    20.4463  20.4463  20.4463  20.4463  20.4463  20.4463  20.4463  20.4463
    20.4852  20.4852

     the Fermi energy is    11.8603 ev

!    total energy              =  -16384.05763600 Ry

     total all-electron energy =   -322944.911343 Ry
     estimated scf accuracy    <          9.6E-09 Ry
     smearing contrib. (-TS)   =       0.12008974 Ry
     internal energy E=F+TS    =  -16384.17772574 Ry

     The total energy is F=E-TS. E is the sum of the following terms:
     one-electron contribution =   -9528.80715316 Ry
     hartree contribution      =    5029.87823328 Ry
     xc contribution           =    -985.46725506 Ry
     ewald contribution        =   -2732.44621942 Ry
     one-center paw contrib.   =   -8167.33533138 Ry

     convergence has been achieved in  13 iterations

     Forces acting on atoms (cartesian axes, Ry/au):

     atom    1 type  1   force =     0.00000000    0.00000000   -0.00055388
     atom    2 type  1   force =    -0.00000043   -0.00000043   -0.00055505
     atom    3 type  1   force =    -0.00000148    0.00000000    0.00011626
     atom    4 type  1   force =     0.00000000   -0.00000148    0.00011626
     atom    5 type  1   force =     0.00000000    0.00000000   -0.00010592
     atom    6 type  1   force =    -0.00000061   -0.00000061   -0.00010558
     atom    7 type  1   force =     0.00000224    0.00000000    0.00054321
     atom    8 type  1   force =     0.00000000    0.00000224    0.00054321
     atom    9 type  1   force =     0.00000000    0.00000000   -0.00055466
     atom   10 type  1   force =    -0.00000043    0.00000043   -0.00055505
     atom   11 type  1   force =    -0.00000019    0.00000000    0.00011572
     atom   12 type  1   force =     0.00000000    0.00000148    0.00011626
     atom   13 type  1   force =     0.00000000    0.00000000   -0.00010213
     atom   14 type  1   force =    -0.00000061    0.00000061   -0.00010558
     atom   15 type  1   force =     0.00000127    0.00000000    0.00054335
     atom   16 type  1   force =     0.00000000   -0.00000224    0.00054321
     atom   17 type  1   force =     0.00000000    0.00000000   -0.00055466
     atom   18 type  1   force =     0.00000043   -0.00000043   -0.00055505
     atom   19 type  1   force =     0.00000148    0.00000000    0.00011626
     atom   20 type  1   force =     0.00000000   -0.00000019    0.00011572
     atom   21 type  1   force =     0.00000000    0.00000000   -0.00010213
     atom   22 type  1   force =     0.00000061   -0.00000061   -0.00010558
     atom   23 type  1   force =    -0.00000224    0.00000000    0.00054321
     atom   24 type  1   force =     0.00000000    0.00000127    0.00054335
     atom   25 type  1   force =     0.00000000    0.00000000   -0.00055730
     atom   26 type  1   force =     0.00000043    0.00000043   -0.00055505
     atom   27 type  1   force =     0.00000019    0.00000000    0.00011572
     atom   28 type  1   force =     0.00000000    0.00000019    0.00011572
     atom   29 type  1   force =     0.00000000    0.00000000   -0.00010097
     atom   30 type  1   force =     0.00000061    0.00000061   -0.00010558
     atom   31 type  1   force =    -0.00000127    0.00000000    0.00054335
     atom   32 type  1   force =     0.00000000   -0.00000127    0.00054335

     Total force =     0.002241     Total SCF correction =     0.000801
     SCF correction compared to forces is large: reduce conv_thr to get better values


     Computing stress (Cartesian axis) and pressure

          total   stress  (Ry/bohr**3)                   (kbar)     P=      -33.47
  -0.00029487   0.00000000   0.00000000          -43.38        0.00        0.00
   0.00000000  -0.00029487   0.00000000            0.00      -43.38        0.00
   0.00000000   0.00000000  -0.00009283            0.00        0.00      -13.66

     Energy error            =      7.1E-05
     Gradient error          =      5.6E-04

     bfgs converged in   8 scf cycles and   7 bfgs steps
     (criteria: energy <  1.0E-04 Ry, force <  1.0E-03 Ry/Bohr)

     End of BFGS Geometry Optimization

     Final energy   =  -16384.0576359959 Ry

     File /scratch/oWrCbuFSMbYpeDny.bfgs deleted, as requested
Begin final coordinates

ATOMIC_POSITIONS (crystal)
Pd            0.0000000000        0.0000000000        0.0000971356
Pd            0.2500001773        0.2500001773        0.0000969207
Pd            0.2500005147        0.0000000000        0.1722723419
Pd            0.0000000000        0.2500005147        0.1722723419
Pd            0.0000000000        0.0000000000        0.6538133279
Pd            0.2500000936        0.2500000936        0.6538136368
Pd            0.2499992207       -0.0000000000        0.8259915848
Pd            0.0000000000        0.2499992207        0.8259915848
Pd            0.0000000000        0.5000000000        0.0000966027
Pd            0.2500001773        0.7499998227        0.0000969207
Pd            0.2499996834        0.5000000000        0.1722729266
Pd            0.0000000000        0.7499994853        0.1722723419
Pd            0.0000000000        0.5000000000        0.6538119490
Pd            0.2500000936        0.7499999064        0.6538136368
Pd            0.2499994978        0.5000000000        0.8259912652
Pd           -0.0000000000        0.7500007793        0.8259915848
Pd            0.5000000000        0.0000000000        0.0000966027
Pd            0.7499998227        0.2500001773        0.0000969207
Pd            0.7499994853       -0.0000000000        0.1722723419
Pd            0.5000000000        0.2499996834        0.1722729266
Pd            0.5000000000        0.0000000000        0.6538119490
Pd            0.7499999064        0.2500000936        0.6538136368
Pd            0.7500007793        0.0000000000        0.8259915848
Pd            0.5000000000        0.2499994978        0.8259912652
Pd            0.5000000000        0.5000000000        0.0000975405
Pd            0.7499998227        0.7499998227        0.0000969207
Pd            0.7500003166        0.5000000000        0.1722729266
Pd            0.5000000000        0.7500003166        0.1722729266
Pd            0.5000000000        0.5000000000        0.6538114932
Pd            0.7499999064        0.7499999064        0.6538136368
Pd            0.7500005022        0.5000000000        0.8259912652
Pd            0.5000000000        0.7500005022        0.8259912652
End final coordinates



     Writing output data file /scratch/oWrCbuFSMbYpeDny.save/
 
     init_run     :     26.91s CPU     27.50s WALL (       1 calls)
     electrons    :   8913.11s CPU   9003.56s WALL (       8 calls)
     update_pot   :      2.00s CPU      2.05s WALL (       7 calls)
     forces       :    119.45s CPU    120.44s WALL (       8 calls)
     stress       :   1108.85s CPU   1117.01s WALL (       8 calls)

     Called by init_run:
     wfcinit      :     25.94s CPU     26.45s WALL (       1 calls)
     potinit      :      0.20s CPU      0.21s WALL (       1 calls)
     hinit0       :      0.17s CPU      0.17s WALL (       1 calls)

     Called by electrons:
     c_bands      :   7920.98s CPU   7995.46s WALL (     101 calls)
     sum_band     :    978.76s CPU    991.74s WALL (     101 calls)
     v_of_rho     :      1.54s CPU      1.62s WALL (     101 calls)
     newd         :      3.36s CPU      4.83s WALL (     101 calls)
     PAW_pot      :      9.04s CPU      9.48s WALL (     108 calls)
     mix_rho      :      0.48s CPU      0.56s WALL (     101 calls)

     Called by c_bands:
     init_us_2    :     54.57s CPU     55.12s WALL (   16950 calls)
     cegterg      :   7735.14s CPU   7807.51s WALL (    7575 calls)

     Called by *egterg:
     cdiaghg      :    725.83s CPU    729.57s WALL (   24758 calls)
     h_psi        :   3895.78s CPU   3945.50s WALL (   25958 calls)
     s_psi        :    406.70s CPU    409.09s WALL (   25958 calls)
     g_psi        :     12.40s CPU     12.57s WALL (   18308 calls)

     Called by h_psi:
     h_psi:calbec :    632.78s CPU    636.65s WALL (   25958 calls)
     vloc_psi     :   2831.08s CPU   2872.31s WALL (   25958 calls)
     add_vuspsi   :    402.18s CPU    406.45s WALL (   25958 calls)

     General routines
     calbec       :   1127.31s CPU   1134.18s WALL (   37058 calls)
     fft          :      1.90s CPU      1.96s WALL (    1512 calls)
     ffts         :      0.12s CPU      0.13s WALL (     202 calls)
     fftw         :   3337.96s CPU   3386.21s WALL (14608406 calls)
     interpolate  :      0.18s CPU      0.19s WALL (     101 calls)
 
     Parallel routines
     fft_scatt_xy :    253.06s CPU    256.89s WALL (14610120 calls)
     fft_scatt_yz :   2626.06s CPU   2664.24s WALL (14610120 calls)
 
     PWSCF        :      2h50m CPU      2h52m WALL

 
   This run was terminated on:  20:46:27   8Jan2022            

=------------------------------------------------------------------------------=
   JOB DONE.
=------------------------------------------------------------------------------=
