
     Program PWSCF v.6.7MaX starts on  8Jan2022 at 20:41: 3 

     This program is part of the open-source Quantum ESPRESSO suite
     for quantum simulation of materials; please cite
         "P. Giannozzi et al., J. Phys.:Condens. Matter 21 395502 (2009);
         "P. Giannozzi et al., J. Phys.:Condens. Matter 29 465901 (2017);
          URL http://www.quantum-espresso.org", 
     in publications or presentations arising from this work. More details at
     http://www.quantum-espresso.org/quote

     Parallel version (MPI & OpenMP), running on      72 processor cores
     Number of MPI processes:                72
     Threads/MPI process:                     1

     MPI processes distributed on     1 nodes
     R & G space division:  proc/nbgrp/npool/nimage =      72
     Reading input from relax_25.in
Warning: card &CELL ignored
Warning: card CELL_DYNAMICS = 'BFGS', ignored
Warning: card CELL_FACTOR = 2.0, ignored
Warning: card PRESS = 0.0, ignored
Warning: card / ignored

     Current dimensions of program PWSCF are:
     Max number of different atomic species (ntypx) = 10
     Max number of k-points (npk) =  40000
     Max angular momentum in pseudopotentials (lmaxx) =  3
     file Pd.pbe-spn-kjpaw_psl.1.0.0.UPF: wavefunction(s)  4S 5S 4D renormalized

     Subspace diagonalization in iterative solution of the eigenvalue problem:
     one sub-group per band group will be used
     ELPA distributed-memory algorithm (size of sub-group:  8*  8 procs)

     Found symmetry operation: I + (  0.2500  0.2500  0.0000)
     This is a supercell, fractional translations are disabled
     Message from routine setup:
     using ibrav=0 with symmetry is DISCOURAGED, use correct ibrav instead
 
     Parallelization info
     --------------------
     sticks:   dense  smooth     PW     G-vecs:    dense   smooth      PW
     Min         104      68     18                11950     6410     894
     Max         105      69     19                11963     6423     907
     Sum        7521    4957   1353               860827   462119   64785
 


     bravais-lattice index     =            0
     lattice parameter (alat)  =      14.8394  a.u.
     unit-cell volume          =    5718.5883 (a.u.)^3
     number of atoms/cell      =           32
     number of atomic types    =            1
     number of electrons       =       576.00
     number of Kohn-Sham states=          346
     kinetic-energy cutoff     =      71.0000  Ry
     charge density cutoff     =     430.0000  Ry
     scf convergence threshold =      1.0E-06
     mixing beta               =       0.1000
     number of iterations used =           10  TF        mixing
     energy convergence thresh.=      1.0E-04
     force convergence thresh. =      1.0E-03
     Exchange-correlation= SLA  PW   PBX  PBC
                           (   1   4   3   4   0   0   0)
     nstep                     =           40


     celldm(1)=  14.839420  celldm(2)=   0.000000  celldm(3)=   0.000000
     celldm(4)=   0.000000  celldm(5)=   0.000000  celldm(6)=   0.000000

     crystal axes: (cart. coord. in units of alat)
               a(1) = (   1.000000   0.000000   0.000000 )  
               a(2) = (   0.000000   1.000000   0.000000 )  
               a(3) = (   0.000000   0.000000   1.750000 )  

     reciprocal axes: (cart. coord. in units 2 pi/alat)
               b(1) = (  1.000000  0.000000  0.000000 )  
               b(2) = (  0.000000  1.000000  0.000000 )  
               b(3) = (  0.000000  0.000000  0.571429 )  


     PseudoPot. # 1 for Pd read from file:
     /rds/homes/b/bxp912/pp/Pd.pbe-spn-kjpaw_psl.1.0.0.UPF
     MD5 check sum: 790f2ebce206edfd9790dcb9844eca51
     Pseudo is Projector augmented-wave + core cor, Zval = 18.0
     Generated using &quot;atomic&quot; code by A. Dal Corso  v.6.3
     Shape of augmentation charge: PSQ
     Using radial grid of 1235 points,  6 beta functions with: 
                l(1) =   0
                l(2) =   0
                l(3) =   1
                l(4) =   1
                l(5) =   2
                l(6) =   2
     Q(r) pseudized with 0 coefficients 


     atomic species   valence    mass     pseudopotential
        Pd            18.00   106.42000     Pd( 1.00)

      8 Sym. Ops. (no inversion) found



   Cartesian axes

     site n.     atom                  positions (alat units)
         1           Pd  tau(   1) = (   0.0000000   0.0000000   0.0000000  )
         2           Pd  tau(   2) = (   0.2500000   0.2500000   0.0000000  )
         3           Pd  tau(   3) = (   0.2500000   0.0000000   0.2500000  )
         4           Pd  tau(   4) = (   0.0000000   0.2500000   0.2500000  )
         5           Pd  tau(   5) = (   0.0000000   0.0000000   1.2500000  )
         6           Pd  tau(   6) = (   0.2500000   0.2500000   1.2500000  )
         7           Pd  tau(   7) = (   0.2500000   0.0000000   1.5000000  )
         8           Pd  tau(   8) = (   0.0000000   0.2500000   1.5000000  )
         9           Pd  tau(   9) = (   0.0000000   0.5000000   0.0000000  )
        10           Pd  tau(  10) = (   0.2500000   0.7500000   0.0000000  )
        11           Pd  tau(  11) = (   0.2500000   0.5000000   0.2500000  )
        12           Pd  tau(  12) = (   0.0000000   0.7500000   0.2500000  )
        13           Pd  tau(  13) = (   0.0000000   0.5000000   1.2500000  )
        14           Pd  tau(  14) = (   0.2500000   0.7500000   1.2500000  )
        15           Pd  tau(  15) = (   0.2500000   0.5000000   1.5000000  )
        16           Pd  tau(  16) = (   0.0000000   0.7500000   1.5000000  )
        17           Pd  tau(  17) = (   0.5000000   0.0000000   0.0000000  )
        18           Pd  tau(  18) = (   0.7500000   0.2500000   0.0000000  )
        19           Pd  tau(  19) = (   0.7500000   0.0000000   0.2500000  )
        20           Pd  tau(  20) = (   0.5000000   0.2500000   0.2500000  )
        21           Pd  tau(  21) = (   0.5000000   0.0000000   1.2500000  )
        22           Pd  tau(  22) = (   0.7500000   0.2500000   1.2500000  )
        23           Pd  tau(  23) = (   0.7500000   0.0000000   1.5000000  )
        24           Pd  tau(  24) = (   0.5000000   0.2500000   1.5000000  )
        25           Pd  tau(  25) = (   0.5000000   0.5000000   0.0000000  )
        26           Pd  tau(  26) = (   0.7500000   0.7500000   0.0000000  )
        27           Pd  tau(  27) = (   0.7500000   0.5000000   0.2500000  )
        28           Pd  tau(  28) = (   0.5000000   0.7500000   0.2500000  )
        29           Pd  tau(  29) = (   0.5000000   0.5000000   1.2500000  )
        30           Pd  tau(  30) = (   0.7500000   0.7500000   1.2500000  )
        31           Pd  tau(  31) = (   0.7500000   0.5000000   1.5000000  )
        32           Pd  tau(  32) = (   0.5000000   0.7500000   1.5000000  )

     number of k points=    75  Marzari-Vanderbilt smearing, width (Ry)=  0.0400
                       cart. coord. in units 2pi/alat
        k(    1) = (   0.0555556   0.0555556   0.0317460), wk =   0.0219479
        k(    2) = (   0.0555556   0.0555556   0.0952381), wk =   0.0219479
        k(    3) = (   0.0555556   0.0555556   0.1587302), wk =   0.0219479
        k(    4) = (   0.0555556   0.0555556   0.2222222), wk =   0.0219479
        k(    5) = (   0.0555556   0.0555556  -0.2857143), wk =   0.0109739
        k(    6) = (   0.0555556   0.1666667   0.0317460), wk =   0.0438957
        k(    7) = (   0.0555556   0.1666667   0.0952381), wk =   0.0438957
        k(    8) = (   0.0555556   0.1666667   0.1587302), wk =   0.0438957
        k(    9) = (   0.0555556   0.1666667   0.2222222), wk =   0.0438957
        k(   10) = (   0.0555556   0.1666667  -0.2857143), wk =   0.0219479
        k(   11) = (   0.0555556   0.2777778   0.0317460), wk =   0.0438957
        k(   12) = (   0.0555556   0.2777778   0.0952381), wk =   0.0438957
        k(   13) = (   0.0555556   0.2777778   0.1587302), wk =   0.0438957
        k(   14) = (   0.0555556   0.2777778   0.2222222), wk =   0.0438957
        k(   15) = (   0.0555556   0.2777778  -0.2857143), wk =   0.0219479
        k(   16) = (   0.0555556   0.3888889   0.0317460), wk =   0.0438957
        k(   17) = (   0.0555556   0.3888889   0.0952381), wk =   0.0438957
        k(   18) = (   0.0555556   0.3888889   0.1587302), wk =   0.0438957
        k(   19) = (   0.0555556   0.3888889   0.2222222), wk =   0.0438957
        k(   20) = (   0.0555556   0.3888889  -0.2857143), wk =   0.0219479
        k(   21) = (   0.0555556  -0.5000000   0.0317460), wk =   0.0219479
        k(   22) = (   0.0555556  -0.5000000   0.0952381), wk =   0.0219479
        k(   23) = (   0.0555556  -0.5000000   0.1587302), wk =   0.0219479
        k(   24) = (   0.0555556  -0.5000000   0.2222222), wk =   0.0219479
        k(   25) = (   0.0555556  -0.5000000  -0.2857143), wk =   0.0109739
        k(   26) = (   0.1666667   0.1666667   0.0317460), wk =   0.0219479
        k(   27) = (   0.1666667   0.1666667   0.0952381), wk =   0.0219479
        k(   28) = (   0.1666667   0.1666667   0.1587302), wk =   0.0219479
        k(   29) = (   0.1666667   0.1666667   0.2222222), wk =   0.0219479
        k(   30) = (   0.1666667   0.1666667  -0.2857143), wk =   0.0109739
        k(   31) = (   0.1666667   0.2777778   0.0317460), wk =   0.0438957
        k(   32) = (   0.1666667   0.2777778   0.0952381), wk =   0.0438957
        k(   33) = (   0.1666667   0.2777778   0.1587302), wk =   0.0438957
        k(   34) = (   0.1666667   0.2777778   0.2222222), wk =   0.0438957
        k(   35) = (   0.1666667   0.2777778  -0.2857143), wk =   0.0219479
        k(   36) = (   0.1666667   0.3888889   0.0317460), wk =   0.0438957
        k(   37) = (   0.1666667   0.3888889   0.0952381), wk =   0.0438957
        k(   38) = (   0.1666667   0.3888889   0.1587302), wk =   0.0438957
        k(   39) = (   0.1666667   0.3888889   0.2222222), wk =   0.0438957
        k(   40) = (   0.1666667   0.3888889  -0.2857143), wk =   0.0219479
        k(   41) = (   0.1666667  -0.5000000   0.0317460), wk =   0.0219479
        k(   42) = (   0.1666667  -0.5000000   0.0952381), wk =   0.0219479
        k(   43) = (   0.1666667  -0.5000000   0.1587302), wk =   0.0219479
        k(   44) = (   0.1666667  -0.5000000   0.2222222), wk =   0.0219479
        k(   45) = (   0.1666667  -0.5000000  -0.2857143), wk =   0.0109739
        k(   46) = (   0.2777778   0.2777778   0.0317460), wk =   0.0219479
        k(   47) = (   0.2777778   0.2777778   0.0952381), wk =   0.0219479
        k(   48) = (   0.2777778   0.2777778   0.1587302), wk =   0.0219479
        k(   49) = (   0.2777778   0.2777778   0.2222222), wk =   0.0219479
        k(   50) = (   0.2777778   0.2777778  -0.2857143), wk =   0.0109739
        k(   51) = (   0.2777778   0.3888889   0.0317460), wk =   0.0438957
        k(   52) = (   0.2777778   0.3888889   0.0952381), wk =   0.0438957
        k(   53) = (   0.2777778   0.3888889   0.1587302), wk =   0.0438957
        k(   54) = (   0.2777778   0.3888889   0.2222222), wk =   0.0438957
        k(   55) = (   0.2777778   0.3888889  -0.2857143), wk =   0.0219479
        k(   56) = (   0.2777778  -0.5000000   0.0317460), wk =   0.0219479
        k(   57) = (   0.2777778  -0.5000000   0.0952381), wk =   0.0219479
        k(   58) = (   0.2777778  -0.5000000   0.1587302), wk =   0.0219479
        k(   59) = (   0.2777778  -0.5000000   0.2222222), wk =   0.0219479
        k(   60) = (   0.2777778  -0.5000000  -0.2857143), wk =   0.0109739
        k(   61) = (   0.3888889   0.3888889   0.0317460), wk =   0.0219479
        k(   62) = (   0.3888889   0.3888889   0.0952381), wk =   0.0219479
        k(   63) = (   0.3888889   0.3888889   0.1587302), wk =   0.0219479
        k(   64) = (   0.3888889   0.3888889   0.2222222), wk =   0.0219479
        k(   65) = (   0.3888889   0.3888889  -0.2857143), wk =   0.0109739
        k(   66) = (   0.3888889  -0.5000000   0.0317460), wk =   0.0219479
        k(   67) = (   0.3888889  -0.5000000   0.0952381), wk =   0.0219479
        k(   68) = (   0.3888889  -0.5000000   0.1587302), wk =   0.0219479
        k(   69) = (   0.3888889  -0.5000000   0.2222222), wk =   0.0219479
        k(   70) = (   0.3888889  -0.5000000  -0.2857143), wk =   0.0109739
        k(   71) = (  -0.5000000  -0.5000000   0.0317460), wk =   0.0054870
        k(   72) = (  -0.5000000  -0.5000000   0.0952381), wk =   0.0054870
        k(   73) = (  -0.5000000  -0.5000000   0.1587302), wk =   0.0054870
        k(   74) = (  -0.5000000  -0.5000000   0.2222222), wk =   0.0054870
        k(   75) = (  -0.5000000  -0.5000000  -0.2857143), wk =   0.0027435

     Dense  grid:   860827 G-vectors     FFT dimensions: ( 100, 100, 180)

     Smooth grid:   462119 G-vectors     FFT dimensions: (  80,  80, 144)

     Estimated max dynamical RAM per process >     389.51 MB

     Estimated total dynamical RAM >      27.39 GB

     Check: negative core charge=   -0.000001

     Initial potential from superposition of free atoms

     starting charge  575.98776, renormalised to  576.00000
     Starting wfcs are  320 randomized atomic wfcs +   26 random wfcs
     Checking if some PAW data can be deallocated... 

     total cpu time spent up to now is       32.8 secs

     Self-consistent Calculation

     iteration #  1     ecut=    71.00 Ry     beta= 0.10
     Davidson diagonalization with overlap
     ethr =  1.00E-02,  avg # of iterations =  4.1

     Threshold (ethr) on eigenvalues was too large:
     Diagonalizing with lowered threshold

     Davidson diagonalization with overlap
     ethr =  7.49E-04,  avg # of iterations =  1.4

     total cpu time spent up to now is      225.5 secs

     total energy              =  -16384.82240220 Ry
     estimated scf accuracy    <       4.30031492 Ry

     iteration #  2     ecut=    71.00 Ry     beta= 0.10
     Davidson diagonalization with overlap
     ethr =  7.47E-04,  avg # of iterations =  1.2

     total cpu time spent up to now is      303.8 secs

     total energy              =  -16384.34960439 Ry
     estimated scf accuracy    <       3.87559448 Ry

     iteration #  3     ecut=    71.00 Ry     beta= 0.10
     Davidson diagonalization with overlap
     ethr =  6.73E-04,  avg # of iterations =  2.5

     total cpu time spent up to now is      389.5 secs

     total energy              =  -16384.17885976 Ry
     estimated scf accuracy    <       2.59599680 Ry

     iteration #  4     ecut=    71.00 Ry     beta= 0.10
     Davidson diagonalization with overlap
     ethr =  4.51E-04,  avg # of iterations =  5.2

     total cpu time spent up to now is      486.7 secs

     total energy              =  -16384.32606441 Ry
     estimated scf accuracy    <       0.81595885 Ry

     iteration #  5     ecut=    71.00 Ry     beta= 0.10
     Davidson diagonalization with overlap
     ethr =  1.42E-04,  avg # of iterations =  3.9

     total cpu time spent up to now is      580.6 secs

     total energy              =  -16384.07335838 Ry
     estimated scf accuracy    <       1.02132068 Ry

     iteration #  6     ecut=    71.00 Ry     beta= 0.10
     Davidson diagonalization with overlap
     ethr =  1.42E-04,  avg # of iterations =  6.5

     total cpu time spent up to now is      683.6 secs

     total energy              =  -16384.11034704 Ry
     estimated scf accuracy    <       0.30957302 Ry

     iteration #  7     ecut=    71.00 Ry     beta= 0.10
     Davidson diagonalization with overlap
     ethr =  5.37E-05,  avg # of iterations =  4.9

     total cpu time spent up to now is      780.8 secs

     total energy              =  -16384.08516920 Ry
     estimated scf accuracy    <       0.23718732 Ry

     iteration #  8     ecut=    71.00 Ry     beta= 0.10
     Davidson diagonalization with overlap
     ethr =  4.12E-05,  avg # of iterations =  5.6

     total cpu time spent up to now is      881.2 secs

     total energy              =  -16384.07125326 Ry
     estimated scf accuracy    <       0.15793619 Ry

     iteration #  9     ecut=    71.00 Ry     beta= 0.10
     Davidson diagonalization with overlap
     ethr =  2.74E-05,  avg # of iterations =  3.7

     total cpu time spent up to now is      976.6 secs

     total energy              =  -16384.06560417 Ry
     estimated scf accuracy    <       0.12822432 Ry

     iteration # 10     ecut=    71.00 Ry     beta= 0.10
     Davidson diagonalization with overlap
     ethr =  2.23E-05,  avg # of iterations =  4.9

     total cpu time spent up to now is     1074.0 secs

     total energy              =  -16384.04577610 Ry
     estimated scf accuracy    <       0.11464418 Ry

     iteration # 11     ecut=    71.00 Ry     beta= 0.10
     Davidson diagonalization with overlap
     ethr =  1.99E-05,  avg # of iterations =  4.7

     negative rho (up, down):  2.104E-04 0.000E+00

     total cpu time spent up to now is     1172.2 secs

     total energy              =  -16384.03755421 Ry
     estimated scf accuracy    <       0.09408251 Ry

     iteration # 12     ecut=    71.00 Ry     beta= 0.10
     Davidson diagonalization with overlap
     c_bands:  1 eigenvalues not converged
     ethr =  1.63E-05,  avg # of iterations =  5.2

     negative rho (up, down):  3.527E-03 0.000E+00

     total cpu time spent up to now is     1272.7 secs

     total energy              =  -16384.03279754 Ry
     estimated scf accuracy    <       0.08494972 Ry

     iteration # 13     ecut=    71.00 Ry     beta= 0.10
     Davidson diagonalization with overlap
     ethr =  1.47E-05,  avg # of iterations =  2.2

     negative rho (up, down):  3.383E-02 0.000E+00

     total cpu time spent up to now is     1364.2 secs

     total energy              =  -16384.03098538 Ry
     estimated scf accuracy    <       0.05398268 Ry

     iteration # 14     ecut=    71.00 Ry     beta= 0.10
     Davidson diagonalization with overlap
     ethr =  9.37E-06,  avg # of iterations =  6.3

     negative rho (up, down):  7.082E-02 0.000E+00

     total cpu time spent up to now is     1468.3 secs

     total energy              =  -16384.03420527 Ry
     estimated scf accuracy    <       0.03647204 Ry

     iteration # 15     ecut=    71.00 Ry     beta= 0.10
     Davidson diagonalization with overlap
     ethr =  6.33E-06,  avg # of iterations =  6.0

     negative rho (up, down):  4.894E-02 0.000E+00

     total cpu time spent up to now is     1571.6 secs

     total energy              =  -16384.03739441 Ry
     estimated scf accuracy    <       0.01661019 Ry

     iteration # 16     ecut=    71.00 Ry     beta= 0.10
     Davidson diagonalization with overlap
     ethr =  2.88E-06,  avg # of iterations =  2.8

     negative rho (up, down):  5.722E-02 0.000E+00

     total cpu time spent up to now is     1667.1 secs

     total energy              =  -16384.04298764 Ry
     estimated scf accuracy    <       0.01163443 Ry

     iteration # 17     ecut=    71.00 Ry     beta= 0.10
     Davidson diagonalization with overlap
     ethr =  2.02E-06,  avg # of iterations =  5.8

     negative rho (up, down):  2.094E-02 0.000E+00

     total cpu time spent up to now is     1774.5 secs

     total energy              =  -16384.04474867 Ry
     estimated scf accuracy    <       0.00356652 Ry

     iteration # 18     ecut=    71.00 Ry     beta= 0.10
     Davidson diagonalization with overlap
     ethr =  6.19E-07,  avg # of iterations =  6.2

     negative rho (up, down):  2.948E-02 0.000E+00

     total cpu time spent up to now is     1881.8 secs

     total energy              =  -16384.04592250 Ry
     estimated scf accuracy    <       0.00250392 Ry

     iteration # 19     ecut=    71.00 Ry     beta= 0.10
     Davidson diagonalization with overlap
     ethr =  4.35E-07,  avg # of iterations =  2.0

     negative rho (up, down):  2.671E-03 0.000E+00

     total cpu time spent up to now is     1973.7 secs

     total energy              =  -16384.04684796 Ry
     estimated scf accuracy    <       0.00148157 Ry

     iteration # 20     ecut=    71.00 Ry     beta= 0.10
     Davidson diagonalization with overlap
     ethr =  2.57E-07,  avg # of iterations =  4.8

     negative rho (up, down):  2.383E-04 0.000E+00

     total cpu time spent up to now is     2075.7 secs

     total energy              =  -16384.04869566 Ry
     estimated scf accuracy    <       0.00077379 Ry

     iteration # 21     ecut=    71.00 Ry     beta= 0.10
     Davidson diagonalization with overlap
     c_bands:  1 eigenvalues not converged
     ethr =  1.34E-07,  avg # of iterations =  5.3

     total cpu time spent up to now is     2178.7 secs

     total energy              =  -16384.04984115 Ry
     estimated scf accuracy    <       0.00020924 Ry

     iteration # 22     ecut=    71.00 Ry     beta= 0.10
     Davidson diagonalization with overlap
     ethr =  3.63E-08,  avg # of iterations =  4.5

     total cpu time spent up to now is     2282.1 secs

     total energy              =  -16384.05020654 Ry
     estimated scf accuracy    <       0.00009006 Ry

     iteration # 23     ecut=    71.00 Ry     beta= 0.10
     Davidson diagonalization with overlap
     ethr =  1.56E-08,  avg # of iterations =  2.1

     total cpu time spent up to now is     2375.6 secs

     total energy              =  -16384.05047625 Ry
     estimated scf accuracy    <       0.00005953 Ry

     iteration # 24     ecut=    71.00 Ry     beta= 0.10
     Davidson diagonalization with overlap
     ethr =  1.03E-08,  avg # of iterations =  2.4

     total cpu time spent up to now is     2469.3 secs

     total energy              =  -16384.05068652 Ry
     estimated scf accuracy    <       0.00003042 Ry

     iteration # 25     ecut=    71.00 Ry     beta= 0.10
     Davidson diagonalization with overlap
     ethr =  5.28E-09,  avg # of iterations =  3.7

     total cpu time spent up to now is     2569.8 secs

     total energy              =  -16384.05073953 Ry
     estimated scf accuracy    <       0.00001373 Ry

     iteration # 26     ecut=    71.00 Ry     beta= 0.10
     Davidson diagonalization with overlap
     ethr =  2.38E-09,  avg # of iterations =  2.0

     total cpu time spent up to now is     2664.8 secs

     total energy              =  -16384.05075368 Ry
     estimated scf accuracy    <       0.00000483 Ry

     iteration # 27     ecut=    71.00 Ry     beta= 0.10
     Davidson diagonalization with overlap
     ethr =  8.39E-10,  avg # of iterations =  2.0

     total cpu time spent up to now is     2761.0 secs

     total energy              =  -16384.05075657 Ry
     estimated scf accuracy    <       0.00000200 Ry

     iteration # 28     ecut=    71.00 Ry     beta= 0.10
     Davidson diagonalization with overlap
     ethr =  3.48E-10,  avg # of iterations =  1.7

     total cpu time spent up to now is     2848.1 secs

     total energy              =  -16384.05076288 Ry
     estimated scf accuracy    <       0.00000165 Ry

     iteration # 29     ecut=    71.00 Ry     beta= 0.10
     Davidson diagonalization with overlap
     ethr =  2.86E-10,  avg # of iterations =  2.0

     total cpu time spent up to now is     2949.1 secs

     End of self-consistent calculation

          k = 0.0556 0.0556 0.0317 ( 57717 PWs)   bands (ev):

   -75.3393 -75.3172 -75.3171 -75.3129 -75.3129 -75.3084 -75.3073 -75.3067
   -75.3067 -75.3056 -75.2997 -75.2997 -75.2983 -75.2983 -75.2910 -75.2910
   -74.7474 -74.7473 -74.7330 -74.7330 -74.7329 -74.7329 -74.7317 -74.7317
   -74.7315 -74.7314 -74.7302 -74.7302 -74.7301 -74.7301 -74.7156 -74.7155
   -41.1739 -41.1739 -41.1735 -41.1726 -41.1600 -41.1600 -41.1534 -41.1191
   -41.1191 -41.1161 -41.1161 -41.0789 -41.0789 -41.0679 -41.0679 -41.0587
   -41.0586 -41.0554 -41.0554 -41.0465 -41.0465 -41.0178 -41.0178 -41.0111
   -41.0110 -41.0110 -41.0065 -41.0065 -41.0013 -40.9966 -40.9966 -40.9828
   -40.9797 -40.9797 -40.9652 -40.9652 -40.9624 -40.9614 -40.9513 -40.9513
   -40.9460 -40.9460 -40.9124 -40.9105 -40.9105 -40.9062 -40.8941 -40.8925
   -40.6216 -40.6216 -40.6208 -40.6199 -40.6098 -40.6098 -40.6078 -40.6078
   -40.5394 -40.5394 -40.5392 -40.5392 -40.5244 -40.5244 -40.5241 -40.5241
   -40.5220 -40.5220 -40.5216 -40.5216 -40.5068 -40.5068 -40.5066 -40.5066
   -40.4362 -40.4358 -40.4347 -40.4342 -40.4227 -40.4226 -40.4214 -40.4213
   -40.3505 -40.3472 -40.3359 -40.3359 -40.3354 -40.3354 -40.3346 -40.3342
   -40.3342 -40.3341 -40.3338 -40.3338 -40.3334 -40.3334 -40.3235 -40.3235
     2.4757   3.7641   4.0051   4.0052   4.0715   4.0776   4.0839   4.0839
     4.1429   4.1552   4.2796   4.2796   4.3686   4.3686   4.5520   4.5520
     4.6179   4.8195   4.9410   4.9411   4.9702   4.9702   5.0001   5.0001
     5.0206   5.0206   5.0895   5.0927   5.0927   5.0949   5.1073   5.1073
     5.2334   5.2334   5.3009   5.3009   5.3371   5.3371   5.4132   5.4132
     5.4255   5.4255   5.4880   5.4880   5.5500   5.6095   5.6095   5.6278
     5.6278   5.7713   5.7713   5.8373   5.8852   5.8852   5.9349   5.9349
     5.9471   5.9557   5.9557   5.9665   6.1419   6.1419   6.1454   6.1455
     6.1585   6.1688   6.3060   6.3060   6.3178   6.3198   6.3272   6.3272
     6.3598   6.3691   6.4300   6.4300   6.4650   6.4650   6.8152   6.8152
     6.8689   6.8771   6.8792   6.8792   6.8988   6.8988   6.9233   6.9233
     7.0441   7.0441   7.0792   7.0792   7.0923   7.0923   7.0990   7.1156
     7.1432   7.1432   7.1711   7.1711   7.2025   7.2142   7.2468   7.2703
     7.2703   7.3777   7.3777   7.3950   7.3950   7.4729   7.5005   7.5005
     7.5316   7.5316   7.5414   7.5414   7.6688   7.6688   7.7230   7.7230
     7.7239   7.7239   7.7580   7.9073   7.9073   7.9454   7.9753   7.9754
     8.0949   8.0949   8.1081   8.1081   8.1082   8.1279   8.1279   8.1373
     8.2240   8.2466   8.2495   8.2510   8.2510   8.3286   8.3581   8.3775
     8.3775   8.4041   8.4041   8.4150   8.4150   8.5730   8.5730   8.6465
     8.6496   8.6497   8.6508   8.7042   8.7830   8.7996   8.7996   8.8064
     8.8064   8.8591   8.9028   9.0097   9.0097   9.3339   9.3339   9.4141
     9.4141   9.7704   9.7704  10.1054  10.2647  10.4711  10.6870  10.6870
    10.9834  11.0602  11.0602  11.1017  11.1017  11.4471  11.6001  11.6134
    11.6134  13.1934  13.1934  13.3768  13.3768  13.9484  13.9484  14.0165
    14.0685  14.0686  14.1745  14.4481  14.8314  14.8314  15.3947  15.3947
    15.4958  15.4958  16.9302  16.9313  17.1797  17.1797  17.3717  17.3996
    17.3996  17.5405  17.7475  17.7475  17.8778  17.8782  18.0113  18.0113
    18.0183  18.0183

          k = 0.0556 0.0556 0.0952 ( 57734 PWs)   bands (ev):

   -75.3393 -75.3172 -75.3171 -75.3129 -75.3129 -75.3084 -75.3073 -75.3067
   -75.3067 -75.3056 -75.2997 -75.2997 -75.2983 -75.2983 -75.2910 -75.2910
   -74.7474 -74.7473 -74.7330 -74.7330 -74.7329 -74.7329 -74.7317 -74.7317
   -74.7315 -74.7314 -74.7302 -74.7302 -74.7301 -74.7301 -74.7156 -74.7155
   -41.1738 -41.1738 -41.1734 -41.1726 -41.1600 -41.1600 -41.1534 -41.1191
   -41.1191 -41.1162 -41.1162 -41.0789 -41.0789 -41.0679 -41.0678 -41.0587
   -41.0587 -41.0554 -41.0554 -41.0465 -41.0465 -41.0178 -41.0178 -41.0111
   -41.0110 -41.0110 -41.0066 -41.0065 -41.0013 -40.9966 -40.9966 -40.9829
   -40.9797 -40.9797 -40.9652 -40.9652 -40.9624 -40.9614 -40.9513 -40.9513
   -40.9460 -40.9460 -40.9124 -40.9105 -40.9105 -40.9062 -40.8941 -40.8926
   -40.6217 -40.6216 -40.6208 -40.6199 -40.6098 -40.6098 -40.6078 -40.6078
   -40.5393 -40.5393 -40.5392 -40.5392 -40.5243 -40.5243 -40.5241 -40.5241
   -40.5220 -40.5220 -40.5216 -40.5216 -40.5068 -40.5068 -40.5066 -40.5066
   -40.4362 -40.4359 -40.4347 -40.4343 -40.4227 -40.4226 -40.4214 -40.4213
   -40.3505 -40.3473 -40.3359 -40.3359 -40.3354 -40.3354 -40.3346 -40.3343
   -40.3342 -40.3341 -40.3338 -40.3338 -40.3334 -40.3334 -40.3235 -40.3235
     2.4757   3.7640   4.0051   4.0052   4.0715   4.0777   4.0839   4.0839
     4.1429   4.1551   4.2796   4.2796   4.3686   4.3686   4.5520   4.5520
     4.6179   4.8195   4.9410   4.9411   4.9702   4.9702   5.0001   5.0001
     5.0206   5.0206   5.0894   5.0927   5.0927   5.0949   5.1073   5.1073
     5.2334   5.2334   5.3009   5.3009   5.3371   5.3371   5.4132   5.4132
     5.4255   5.4255   5.4880   5.4880   5.5500   5.6095   5.6095   5.6278
     5.6278   5.7713   5.7713   5.8373   5.8851   5.8852   5.9349   5.9349
     5.9471   5.9557   5.9557   5.9665   6.1419   6.1419   6.1454   6.1454
     6.1585   6.1688   6.3059   6.3059   6.3178   6.3198   6.3272   6.3272
     6.3598   6.3691   6.4300   6.4300   6.4650   6.4650   6.8152   6.8152
     6.8689   6.8772   6.8792   6.8792   6.8988   6.8988   6.9233   6.9233
     7.0439   7.0439   7.0792   7.0792   7.0923   7.0923   7.0990   7.1155
     7.1431   7.1431   7.1711   7.1711   7.2026   7.2133   7.2468   7.2703
     7.2703   7.3777   7.3777   7.3951   7.3951   7.4731   7.5004   7.5004
     7.5317   7.5318   7.5415   7.5415   7.6688   7.6688   7.7229   7.7229
     7.7237   7.7237   7.7579   7.9073   7.9073   7.9500   7.9753   7.9754
     8.0948   8.0949   8.1081   8.1081   8.1082   8.1279   8.1279   8.1373
     8.2239   8.2466   8.2493   8.2516   8.2516   8.3286   8.3579   8.3774
     8.3774   8.4040   8.4040   8.4155   8.4155   8.5730   8.5730   8.6465
     8.6496   8.6497   8.6508   8.7042   8.7830   8.7996   8.7996   8.8064
     8.8064   8.8595   8.9028   9.0097   9.0098   9.3323   9.3323   9.4141
     9.4141   9.7689   9.7689  10.0763  10.2648  10.4711  10.6873  10.6873
    10.9844  11.0664  11.0664  11.1015  11.1015  11.4994  11.5995  11.6196
    11.6196  13.1936  13.1936  13.3309  13.3309  13.9017  13.9017  14.0207
    14.0694  14.0694  14.1694  14.3627  14.9505  14.9505  15.4950  15.4950
    15.5172  15.5172  16.8555  17.0588  17.1015  17.1015  17.1106  17.1106
    17.4658  17.5388  17.6738  17.6738  17.7490  17.7490  18.0155  18.0155
    18.0182  18.0185

          k = 0.0556 0.0556 0.1587 ( 57736 PWs)   bands (ev):

   -75.3393 -75.3172 -75.3171 -75.3129 -75.3129 -75.3084 -75.3073 -75.3067
   -75.3067 -75.3056 -75.2997 -75.2997 -75.2983 -75.2983 -75.2910 -75.2910
   -74.7474 -74.7473 -74.7330 -74.7330 -74.7329 -74.7329 -74.7317 -74.7317
   -74.7315 -74.7314 -74.7302 -74.7302 -74.7301 -74.7301 -74.7156 -74.7155
   -41.1738 -41.1738 -41.1735 -41.1726 -41.1600 -41.1600 -41.1533 -41.1191
   -41.1191 -41.1161 -41.1161 -41.0789 -41.0789 -41.0679 -41.0679 -41.0587
   -41.0587 -41.0555 -41.0554 -41.0466 -41.0465 -41.0178 -41.0178 -41.0111
   -41.0110 -41.0110 -41.0065 -41.0065 -41.0013 -40.9966 -40.9966 -40.9829
   -40.9797 -40.9797 -40.9652 -40.9652 -40.9623 -40.9614 -40.9513 -40.9513
   -40.9461 -40.9461 -40.9123 -40.9105 -40.9105 -40.9062 -40.8941 -40.8925
   -40.6216 -40.6216 -40.6208 -40.6199 -40.6098 -40.6098 -40.6078 -40.6078
   -40.5393 -40.5393 -40.5392 -40.5392 -40.5243 -40.5243 -40.5241 -40.5241
   -40.5220 -40.5220 -40.5216 -40.5216 -40.5068 -40.5068 -40.5066 -40.5066
   -40.4362 -40.4358 -40.4346 -40.4343 -40.4227 -40.4226 -40.4213 -40.4213
   -40.3505 -40.3473 -40.3360 -40.3360 -40.3355 -40.3355 -40.3346 -40.3343
   -40.3342 -40.3341 -40.3338 -40.3338 -40.3334 -40.3334 -40.3235 -40.3235
     2.4758   3.7640   4.0051   4.0052   4.0715   4.0777   4.0839   4.0839
     4.1429   4.1550   4.2796   4.2796   4.3686   4.3686   4.5520   4.5520
     4.6180   4.8195   4.9410   4.9411   4.9702   4.9702   5.0001   5.0001
     5.0206   5.0206   5.0894   5.0927   5.0927   5.0949   5.1073   5.1073
     5.2334   5.2334   5.3008   5.3008   5.3371   5.3371   5.4132   5.4132
     5.4256   5.4256   5.4880   5.4880   5.5501   5.6095   5.6095   5.6278
     5.6278   5.7713   5.7713   5.8373   5.8851   5.8852   5.9349   5.9349
     5.9471   5.9557   5.9557   5.9665   6.1418   6.1418   6.1454   6.1454
     6.1585   6.1688   6.3058   6.3058   6.3178   6.3198   6.3272   6.3272
     6.3598   6.3691   6.4301   6.4301   6.4651   6.4651   6.8153   6.8153
     6.8690   6.8773   6.8792   6.8792   6.8988   6.8988   6.9233   6.9233
     7.0437   7.0437   7.0792   7.0792   7.0922   7.0922   7.0990   7.1156
     7.1429   7.1429   7.1711   7.1711   7.2027   7.2119   7.2468   7.2704
     7.2704   7.3777   7.3777   7.3953   7.3953   7.4732   7.5004   7.5004
     7.5320   7.5320   7.5415   7.5415   7.6687   7.6687   7.7227   7.7227
     7.7234   7.7234   7.7579   7.9073   7.9073   7.9570   7.9754   7.9754
     8.0948   8.0948   8.1081   8.1081   8.1082   8.1279   8.1279   8.1373
     8.2237   8.2466   8.2489   8.2525   8.2525   8.3286   8.3576   8.3773
     8.3773   8.4040   8.4040   8.4164   8.4164   8.5730   8.5730   8.6465
     8.6497   8.6497   8.6508   8.7042   8.7830   8.7996   8.7996   8.8064
     8.8064   8.8602   8.9029   9.0097   9.0097   9.3299   9.3299   9.4141
     9.4141   9.7666   9.7666  10.0344  10.2649  10.4711  10.6878  10.6878
    10.9859  11.0761  11.0761  11.1012  11.1012  11.5792  11.5987  11.6293
    11.6293  13.1938  13.1938  13.2674  13.2674  13.8373  13.8373  14.0280
    14.0706  14.0707  14.1608  14.2380  15.1559  15.1559  15.4938  15.4938
    15.7300  15.7300  16.7312  16.7312  16.7813  17.0303  17.0304  17.2602
    17.2774  17.2774  17.3885  17.7488  17.7488  17.7684  18.0219  18.0219
    18.2338  18.2341

          k = 0.0556 0.0556 0.2222 ( 57758 PWs)   bands (ev):

   -75.3393 -75.3172 -75.3171 -75.3129 -75.3129 -75.3084 -75.3073 -75.3067
   -75.3067 -75.3056 -75.2997 -75.2997 -75.2983 -75.2983 -75.2910 -75.2910
   -74.7474 -74.7473 -74.7330 -74.7330 -74.7329 -74.7329 -74.7317 -74.7317
   -74.7315 -74.7314 -74.7302 -74.7302 -74.7301 -74.7301 -74.7156 -74.7155
   -41.1738 -41.1738 -41.1735 -41.1726 -41.1600 -41.1600 -41.1533 -41.1191
   -41.1191 -41.1161 -41.1161 -41.0789 -41.0789 -41.0679 -41.0679 -41.0587
   -41.0587 -41.0555 -41.0555 -41.0466 -41.0466 -41.0179 -41.0178 -41.0111
   -41.0110 -41.0110 -41.0065 -41.0065 -41.0013 -40.9966 -40.9966 -40.9829
   -40.9797 -40.9797 -40.9652 -40.9652 -40.9623 -40.9614 -40.9513 -40.9513
   -40.9461 -40.9461 -40.9123 -40.9105 -40.9105 -40.9063 -40.8941 -40.8925
   -40.6216 -40.6216 -40.6209 -40.6199 -40.6098 -40.6098 -40.6079 -40.6078
   -40.5393 -40.5393 -40.5392 -40.5391 -40.5244 -40.5244 -40.5241 -40.5241
   -40.5221 -40.5221 -40.5216 -40.5216 -40.5068 -40.5068 -40.5066 -40.5066
   -40.4362 -40.4359 -40.4346 -40.4343 -40.4227 -40.4226 -40.4213 -40.4213
   -40.3505 -40.3473 -40.3360 -40.3360 -40.3355 -40.3355 -40.3346 -40.3342
   -40.3342 -40.3341 -40.3338 -40.3338 -40.3334 -40.3334 -40.3236 -40.3236
     2.4758   3.7639   4.0051   4.0051   4.0715   4.0777   4.0839   4.0839
     4.1429   4.1549   4.2796   4.2796   4.3686   4.3686   4.5520   4.5520
     4.6181   4.8195   4.9410   4.9411   4.9702   4.9702   5.0001   5.0001
     5.0206   5.0206   5.0894   5.0927   5.0927   5.0949   5.1073   5.1073
     5.2334   5.2334   5.3008   5.3008   5.3371   5.3371   5.4132   5.4132
     5.4256   5.4256   5.4880   5.4880   5.5500   5.6095   5.6095   5.6278
     5.6278   5.7713   5.7713   5.8373   5.8851   5.8852   5.9349   5.9349
     5.9471   5.9557   5.9557   5.9665   6.1418   6.1418   6.1454   6.1454
     6.1585   6.1688   6.3057   6.3057   6.3178   6.3198   6.3272   6.3272
     6.3598   6.3691   6.4302   6.4302   6.4652   6.4652   6.8154   6.8154
     6.8691   6.8775   6.8792   6.8792   6.8988   6.8988   6.9233   6.9233
     7.0434   7.0434   7.0792   7.0792   7.0922   7.0922   7.0990   7.1156
     7.1427   7.1427   7.1711   7.1711   7.2029   7.2106   7.2468   7.2705
     7.2705   7.3777   7.3777   7.3954   7.3954   7.4733   7.5004   7.5004
     7.5323   7.5323   7.5416   7.5416   7.6688   7.6688   7.7225   7.7225
     7.7232   7.7232   7.7579   7.9073   7.9073   7.9633   7.9754   7.9754
     8.0947   8.0947   8.1081   8.1081   8.1082   8.1279   8.1279   8.1373
     8.2236   8.2466   8.2486   8.2533   8.2533   8.3286   8.3573   8.3771
     8.3772   8.4040   8.4040   8.4171   8.4171   8.5729   8.5729   8.6465
     8.6497   8.6497   8.6508   8.7042   8.7830   8.7996   8.7996   8.8064
     8.8064   8.8608   8.9029   9.0097   9.0097   9.3277   9.3277   9.4141
     9.4141   9.7647   9.7647   9.9998  10.2649  10.4710  10.6883  10.6883
    10.9873  11.0847  11.0847  11.1010  11.1010  11.5979  11.6379  11.6379
    11.6498  13.1940  13.1940  13.2167  13.2167  13.7860  13.7860  14.0352
    14.0718  14.0718  14.1323  14.1524  15.3946  15.3946  15.4927  15.4927
    15.9849  15.9849  16.3914  16.3915  16.7341  16.9136  16.9137  16.9736
    16.9737  17.3278  17.4480  17.7492  17.7492  18.0276  18.0276  18.0434
    18.4617  18.4620

          k = 0.0556 0.0556-0.2857 ( 57782 PWs)   bands (ev):

   -75.3393 -75.3172 -75.3171 -75.3129 -75.3129 -75.3084 -75.3073 -75.3067
   -75.3067 -75.3056 -75.2997 -75.2997 -75.2983 -75.2983 -75.2910 -75.2910
   -74.7474 -74.7473 -74.7330 -74.7330 -74.7329 -74.7329 -74.7317 -74.7317
   -74.7315 -74.7314 -74.7302 -74.7302 -74.7301 -74.7301 -74.7156 -74.7155
   -41.1738 -41.1738 -41.1734 -41.1726 -41.1600 -41.1600 -41.1532 -41.1191
   -41.1191 -41.1162 -41.1162 -41.0789 -41.0789 -41.0679 -41.0679 -41.0587
   -41.0587 -41.0555 -41.0555 -41.0466 -41.0466 -41.0179 -41.0178 -41.0111
   -41.0110 -41.0110 -41.0066 -41.0065 -41.0013 -40.9966 -40.9966 -40.9829
   -40.9797 -40.9797 -40.9653 -40.9653 -40.9623 -40.9614 -40.9513 -40.9513
   -40.9461 -40.9461 -40.9123 -40.9105 -40.9105 -40.9062 -40.8942 -40.8926
   -40.6216 -40.6216 -40.6208 -40.6199 -40.6099 -40.6098 -40.6079 -40.6078
   -40.5393 -40.5393 -40.5392 -40.5392 -40.5244 -40.5244 -40.5241 -40.5241
   -40.5221 -40.5221 -40.5217 -40.5217 -40.5068 -40.5068 -40.5067 -40.5067
   -40.4362 -40.4359 -40.4346 -40.4343 -40.4227 -40.4226 -40.4213 -40.4213
   -40.3505 -40.3473 -40.3360 -40.3360 -40.3355 -40.3355 -40.3346 -40.3343
   -40.3342 -40.3341 -40.3338 -40.3338 -40.3335 -40.3334 -40.3236 -40.3235
     2.4758   3.7639   4.0051   4.0051   4.0715   4.0777   4.0839   4.0839
     4.1429   4.1549   4.2796   4.2796   4.3686   4.3686   4.5520   4.5520
     4.6181   4.8195   4.9410   4.9411   4.9702   4.9702   5.0000   5.0001
     5.0206   5.0206   5.0894   5.0927   5.0927   5.0949   5.1073   5.1073
     5.2334   5.2334   5.3008   5.3008   5.3371   5.3371   5.4132   5.4132
     5.4256   5.4256   5.4880   5.4880   5.5500   5.6095   5.6095   5.6278
     5.6278   5.7713   5.7713   5.8373   5.8851   5.8852   5.9349   5.9349
     5.9471   5.9557   5.9557   5.9665   6.1418   6.1418   6.1454   6.1454
     6.1585   6.1688   6.3057   6.3057   6.3178   6.3198   6.3272   6.3272
     6.3597   6.3690   6.4302   6.4302   6.4652   6.4652   6.8154   6.8154
     6.8691   6.8775   6.8792   6.8792   6.8988   6.8988   6.9233   6.9233
     7.0433   7.0433   7.0792   7.0792   7.0922   7.0922   7.0990   7.1156
     7.1426   7.1426   7.1711   7.1711   7.2030   7.2101   7.2468   7.2705
     7.2705   7.3777   7.3777   7.3954   7.3954   7.4733   7.5003   7.5003
     7.5324   7.5324   7.5416   7.5416   7.6688   7.6688   7.7225   7.7225
     7.7231   7.7231   7.7579   7.9073   7.9073   7.9658   7.9754   7.9754
     8.0947   8.0947   8.1081   8.1081   8.1083   8.1278   8.1279   8.1373
     8.2235   8.2466   8.2484   8.2536   8.2536   8.3286   8.3572   8.3771
     8.3771   8.4040   8.4040   8.4174   8.4174   8.5729   8.5729   8.6465
     8.6497   8.6497   8.6508   8.7042   8.7830   8.7995   8.7995   8.8064
     8.8064   8.8610   8.9029   9.0097   9.0097   9.3269   9.3269   9.4141
     9.4141   9.7639   9.7639   9.9866  10.2650  10.4710  10.6885  10.6885
    10.9878  11.0881  11.0881  11.1009  11.1009  11.5977  11.6413  11.6413
    11.6779  13.1941  13.1941  13.1978  13.1978  13.7668  13.7668  14.0384
    14.0722  14.0722  14.0912  14.1487  15.4922  15.4922  15.5333  15.5333
    16.1451  16.1451  16.2192  16.2192  16.7177  16.7177  16.7183  16.9536
    16.9537  17.3057  17.5269  17.7494  17.7494  18.0299  18.0299  18.3257
    18.3438  18.5826

          k = 0.0556 0.1667 0.0317 ( 57738 PWs)   bands (ev):

   -75.3386 -75.3213 -75.3169 -75.3127 -75.3100 -75.3088 -75.3079 -75.3070
   -75.3051 -75.3044 -75.3011 -75.2999 -75.2986 -75.2969 -75.2917 -75.2913
   -74.7469 -74.7468 -74.7357 -74.7356 -74.7329 -74.7328 -74.7320 -74.7319
   -74.7312 -74.7312 -74.7302 -74.7301 -74.7274 -74.7274 -74.7161 -74.7160
   -41.1719 -41.1710 -41.1697 -41.1685 -41.1572 -41.1571 -41.1520 -41.1239
   -41.1220 -41.1203 -41.1162 -41.0983 -41.0921 -41.0874 -41.0666 -41.0590
   -41.0578 -41.0529 -41.0393 -41.0320 -41.0278 -41.0218 -41.0191 -41.0153
   -41.0151 -41.0123 -41.0114 -41.0040 -41.0020 -40.9961 -40.9939 -40.9909
   -40.9802 -40.9708 -40.9650 -40.9580 -40.9559 -40.9555 -40.9516 -40.9510
   -40.9464 -40.9423 -40.9177 -40.9171 -40.9119 -40.9050 -40.8990 -40.8940
   -40.6203 -40.6195 -40.6171 -40.6154 -40.6085 -40.6083 -40.6040 -40.6038
   -40.5562 -40.5559 -40.5540 -40.5535 -40.5419 -40.5413 -40.5373 -40.5367
   -40.5094 -40.5089 -40.5046 -40.5042 -40.4920 -40.4919 -40.4898 -40.4895
   -40.4404 -40.4402 -40.4358 -40.4355 -40.4271 -40.4271 -40.4231 -40.4230
   -40.3498 -40.3469 -40.3381 -40.3376 -40.3360 -40.3353 -40.3350 -40.3343
   -40.3342 -40.3338 -40.3338 -40.3334 -40.3317 -40.3315 -40.3238 -40.3238
     2.5454   3.8187   4.0419   4.0475   4.0879   4.0919   4.1032   4.1207
     4.1259   4.1813   4.2074   4.3040   4.3059   4.3697   4.5515   4.6145
     4.6707   4.8528   4.8626   4.8769   4.8829   4.8906   4.8923   4.9822
     4.9864   5.0223   5.0277   5.0283   5.0485   5.0818   5.0895   5.1276
     5.1300   5.1634   5.2107   5.2795   5.3749   5.3844   5.3877   5.3911
     5.4163   5.4263   5.4336   5.5694   5.6058   5.6311   5.6722   5.7182
     5.7188   5.7584   5.7714   5.8248   5.8305   5.8645   5.9157   5.9495
     5.9616   5.9718   5.9976   6.0227   6.0663   6.1114   6.1572   6.1668
     6.1747   6.1797   6.3364   6.3409   6.3454   6.3492   6.3599   6.3622
     6.3763   6.4258   6.4605   6.4635   6.4754   6.6032   6.6836   6.7041
     6.7050   6.7413   6.7824   6.7895   6.8227   6.8816   6.8889   6.9129
     6.9839   6.9999   7.0172   7.0450   7.0757   7.1039   7.1530   7.1641
     7.1759   7.2010   7.2022   7.2284   7.2293   7.2629   7.2716   7.2863
     7.2885   7.2934   7.3130   7.3717   7.4406   7.4676   7.4807   7.4894
     7.6052   7.6219   7.6230   7.6866   7.7173   7.7439   7.7486   7.8072
     7.8272   7.8374   7.8697   7.9226   7.9465   7.9645   7.9850   7.9899
     7.9963   8.0543   8.0627   8.1190   8.1407   8.1442   8.1461   8.1940
     8.1943   8.2173   8.2227   8.2344   8.3559   8.3611   8.3740   8.3828
     8.4062   8.4164   8.4332   8.4862   8.5411   8.5580   8.5689   8.5702
     8.5948   8.6023   8.6913   8.7113   8.7457   8.7860   8.7903   8.7945
     8.8110   8.8182   8.8904   8.9052   8.9429   8.9916   9.2969   9.3319
     9.3330   9.7852   9.8719  10.0153  10.2729  10.3089  10.4905  10.5534
    10.5581  11.0686  11.1027  11.1779  11.6267  11.6471  11.6774  12.1670
    12.2246  12.7995  12.8338  13.4069  13.4265  13.9727  14.0656  14.1533
    14.2406  14.2921  14.3010  14.5359  14.5529  14.8898  14.9636  15.4456
    15.6565  15.9962  16.8062  16.8450  16.9490  16.9711  16.9791  16.9837
    17.0452  17.1722  17.4144  17.4466  17.5709  17.5764  17.9693  17.9732
    18.1292  18.4403

          k = 0.0556 0.1667 0.0952 ( 57721 PWs)   bands (ev):

   -75.3386 -75.3213 -75.3169 -75.3127 -75.3100 -75.3088 -75.3079 -75.3070
   -75.3051 -75.3044 -75.3011 -75.2999 -75.2986 -75.2969 -75.2917 -75.2913
   -74.7469 -74.7468 -74.7357 -74.7356 -74.7329 -74.7328 -74.7320 -74.7319
   -74.7312 -74.7312 -74.7302 -74.7301 -74.7274 -74.7274 -74.7161 -74.7160
   -41.1719 -41.1710 -41.1697 -41.1684 -41.1572 -41.1571 -41.1520 -41.1239
   -41.1220 -41.1203 -41.1162 -41.0982 -41.0920 -41.0874 -41.0666 -41.0590
   -41.0578 -41.0529 -41.0393 -41.0320 -41.0278 -41.0218 -41.0191 -41.0153
   -41.0151 -41.0123 -41.0114 -41.0040 -41.0020 -40.9962 -40.9939 -40.9909
   -40.9802 -40.9708 -40.9650 -40.9580 -40.9559 -40.9554 -40.9517 -40.9510
   -40.9464 -40.9423 -40.9176 -40.9171 -40.9119 -40.9050 -40.8990 -40.8940
   -40.6203 -40.6195 -40.6170 -40.6154 -40.6085 -40.6084 -40.6040 -40.6038
   -40.5562 -40.5559 -40.5540 -40.5535 -40.5419 -40.5413 -40.5373 -40.5367
   -40.5093 -40.5089 -40.5046 -40.5042 -40.4920 -40.4919 -40.4898 -40.4895
   -40.4404 -40.4402 -40.4358 -40.4355 -40.4271 -40.4270 -40.4231 -40.4230
   -40.3498 -40.3469 -40.3381 -40.3376 -40.3360 -40.3353 -40.3349 -40.3343
   -40.3342 -40.3338 -40.3338 -40.3334 -40.3317 -40.3315 -40.3239 -40.3238
     2.5454   3.8187   4.0419   4.0475   4.0879   4.0919   4.1032   4.1207
     4.1259   4.1813   4.2074   4.3040   4.3059   4.3697   4.5515   4.6145
     4.6707   4.8528   4.8626   4.8769   4.8829   4.8906   4.8923   4.9822
     4.9864   5.0222   5.0277   5.0283   5.0485   5.0818   5.0895   5.1276
     5.1300   5.1634   5.2107   5.2795   5.3749   5.3844   5.3877   5.3911
     5.4163   5.4263   5.4336   5.5694   5.6058   5.6311   5.6722   5.7182
     5.7188   5.7584   5.7714   5.8248   5.8305   5.8645   5.9157   5.9495
     5.9616   5.9719   5.9977   6.0227   6.0663   6.1114   6.1572   6.1668
     6.1747   6.1796   6.3364   6.3408   6.3454   6.3492   6.3599   6.3622
     6.3763   6.4257   6.4606   6.4635   6.4755   6.6033   6.6836   6.7042
     6.7051   6.7413   6.7824   6.7896   6.8227   6.8816   6.8889   6.9129
     6.9836   6.9999   7.0172   7.0453   7.0756   7.1040   7.1530   7.1641
     7.1757   7.2010   7.2023   7.2277   7.2293   7.2629   7.2715   7.2863
     7.2885   7.2934   7.3130   7.3717   7.4406   7.4677   7.4808   7.4896
     7.6051   7.6220   7.6231   7.6868   7.7173   7.7438   7.7488   7.8071
     7.8270   7.8374   7.8697   7.9225   7.9465   7.9644   7.9846   7.9899
     7.9962   8.0542   8.0658   8.1190   8.1414   8.1442   8.1461   8.1940
     8.1943   8.2169   8.2227   8.2349   8.3559   8.3611   8.3738   8.3828
     8.4067   8.4161   8.4332   8.4861   8.5411   8.5580   8.5690   8.5705
     8.5948   8.6023   8.6913   8.7118   8.7457   8.7876   8.7903   8.7946
     8.8111   8.8182   8.8904   8.9052   8.9429   8.9899   9.2969   9.3315
     9.3319   9.7838   9.8718  10.0153  10.2437  10.3075  10.4904  10.5534
    10.5643  11.0747  11.1048  11.1789  11.6329  11.6770  11.7020  12.1657
    12.2308  12.7898  12.7997  13.3617  13.4267  13.9271  14.0699  14.1582
    14.2354  14.2805  14.4139  14.4446  14.5064  14.9625  15.0084  15.5666
    15.6556  16.1192  16.5533  16.7614  16.8763  16.9838  17.0455  17.1128
    17.1422  17.1529  17.1778  17.4897  17.5768  17.5863  17.6870  17.9139
    18.1335  18.2545

          k = 0.0556 0.1667 0.1587 ( 57741 PWs)   bands (ev):

   -75.3386 -75.3213 -75.3169 -75.3127 -75.3100 -75.3088 -75.3079 -75.3070
   -75.3051 -75.3044 -75.3011 -75.2999 -75.2986 -75.2969 -75.2917 -75.2913
   -74.7469 -74.7468 -74.7357 -74.7356 -74.7329 -74.7328 -74.7320 -74.7319
   -74.7312 -74.7312 -74.7302 -74.7301 -74.7274 -74.7274 -74.7161 -74.7160
   -41.1719 -41.1711 -41.1697 -41.1684 -41.1572 -41.1571 -41.1520 -41.1239
   -41.1220 -41.1203 -41.1162 -41.0982 -41.0920 -41.0873 -41.0666 -41.0590
   -41.0578 -41.0529 -41.0393 -41.0320 -41.0278 -41.0218 -41.0192 -41.0153
   -41.0151 -41.0124 -41.0114 -41.0039 -41.0020 -40.9962 -40.9939 -40.9910
   -40.9803 -40.9708 -40.9649 -40.9580 -40.9559 -40.9554 -40.9517 -40.9510
   -40.9464 -40.9424 -40.9176 -40.9171 -40.9119 -40.9050 -40.8990 -40.8940
   -40.6203 -40.6195 -40.6170 -40.6154 -40.6085 -40.6084 -40.6040 -40.6038
   -40.5562 -40.5559 -40.5539 -40.5535 -40.5419 -40.5413 -40.5373 -40.5367
   -40.5094 -40.5089 -40.5046 -40.5042 -40.4921 -40.4919 -40.4898 -40.4895
   -40.4405 -40.4402 -40.4358 -40.4355 -40.4271 -40.4270 -40.4231 -40.4230
   -40.3498 -40.3469 -40.3381 -40.3377 -40.3359 -40.3354 -40.3349 -40.3343
   -40.3342 -40.3339 -40.3338 -40.3334 -40.3317 -40.3315 -40.3239 -40.3238
     2.5455   3.8186   4.0419   4.0475   4.0879   4.0919   4.1032   4.1207
     4.1259   4.1813   4.2073   4.3040   4.3058   4.3697   4.5515   4.6145
     4.6708   4.8528   4.8626   4.8769   4.8829   4.8906   4.8923   4.9822
     4.9864   5.0223   5.0278   5.0283   5.0485   5.0817   5.0895   5.1276
     5.1300   5.1634   5.2107   5.2796   5.3749   5.3844   5.3877   5.3911
     5.4163   5.4262   5.4337   5.5694   5.6058   5.6311   5.6723   5.7182
     5.7188   5.7584   5.7714   5.8248   5.8305   5.8645   5.9157   5.9495
     5.9616   5.9719   5.9976   6.0227   6.0663   6.1114   6.1572   6.1668
     6.1747   6.1796   6.3363   6.3408   6.3454   6.3492   6.3599   6.3622
     6.3763   6.4256   6.4607   6.4636   6.4755   6.6033   6.6836   6.7043
     6.7051   6.7413   6.7825   6.7897   6.8226   6.8817   6.8889   6.9129
     6.9832   6.9999   7.0172   7.0458   7.0753   7.1042   7.1530   7.1642
     7.1755   7.2010   7.2024   7.2265   7.2293   7.2629   7.2713   7.2863
     7.2885   7.2934   7.3130   7.3717   7.4405   7.4679   7.4809   7.4900
     7.6050   7.6221   7.6232   7.6870   7.7173   7.7435   7.7492   7.8070
     7.8267   7.8373   7.8698   7.9224   7.9465   7.9645   7.9841   7.9898
     7.9961   8.0541   8.0706   8.1190   8.1424   8.1441   8.1461   8.1940
     8.1943   8.2162   8.2227   8.2358   8.3558   8.3610   8.3735   8.3828
     8.4075   8.4157   8.4332   8.4860   8.5410   8.5580   8.5690   8.5710
     8.5949   8.6023   8.6913   8.7124   8.7456   8.7903   8.7903   8.7946
     8.8111   8.8182   8.8903   8.9053   8.9429   8.9873   9.2969   9.3292
     9.3319   9.7816   9.8715  10.0152  10.2016  10.3054  10.4904  10.5533
    10.5739  11.0843  11.1080  11.1804  11.6424  11.6762  11.7863  12.1636
    12.2405  12.7286  12.7999  13.2991  13.4269  13.8639  14.0771  14.1680
    14.2270  14.2607  14.3114  14.4424  14.6065  14.9609  15.2137  15.6543
    15.7772  16.2190  16.3345  16.7130  16.7844  16.8034  16.9830  17.0460
    17.1866  17.3150  17.3217  17.3531  17.4159  17.5774  17.8124  17.8412
    17.8502  18.1400

          k = 0.0556 0.1667 0.2222 ( 57755 PWs)   bands (ev):

   -75.3386 -75.3213 -75.3169 -75.3127 -75.3100 -75.3088 -75.3079 -75.3070
   -75.3051 -75.3044 -75.3011 -75.2999 -75.2986 -75.2969 -75.2917 -75.2913
   -74.7469 -74.7468 -74.7357 -74.7356 -74.7329 -74.7328 -74.7320 -74.7319
   -74.7312 -74.7312 -74.7302 -74.7301 -74.7274 -74.7274 -74.7161 -74.7160
   -41.1719 -41.1711 -41.1698 -41.1685 -41.1572 -41.1571 -41.1519 -41.1240
   -41.1220 -41.1203 -41.1162 -41.0982 -41.0920 -41.0873 -41.0666 -41.0590
   -41.0578 -41.0530 -41.0393 -41.0320 -41.0278 -41.0218 -41.0192 -41.0153
   -41.0151 -41.0124 -41.0114 -41.0040 -41.0020 -40.9962 -40.9939 -40.9910
   -40.9802 -40.9708 -40.9649 -40.9580 -40.9559 -40.9554 -40.9517 -40.9510
   -40.9464 -40.9424 -40.9176 -40.9171 -40.9119 -40.9050 -40.8990 -40.8940
   -40.6203 -40.6195 -40.6171 -40.6154 -40.6086 -40.6084 -40.6040 -40.6038
   -40.5562 -40.5559 -40.5539 -40.5535 -40.5419 -40.5413 -40.5373 -40.5366
   -40.5094 -40.5089 -40.5046 -40.5042 -40.4920 -40.4919 -40.4898 -40.4895
   -40.4405 -40.4403 -40.4358 -40.4355 -40.4271 -40.4270 -40.4231 -40.4230
   -40.3498 -40.3469 -40.3381 -40.3377 -40.3359 -40.3354 -40.3350 -40.3343
   -40.3342 -40.3338 -40.3338 -40.3334 -40.3317 -40.3315 -40.3239 -40.3238
     2.5455   3.8186   4.0419   4.0475   4.0879   4.0919   4.1032   4.1207
     4.1259   4.1813   4.2072   4.3040   4.3059   4.3697   4.5515   4.6145
     4.6709   4.8528   4.8626   4.8769   4.8829   4.8906   4.8923   4.9822
     4.9864   5.0222   5.0278   5.0283   5.0485   5.0817   5.0895   5.1275
     5.1299   5.1634   5.2106   5.2796   5.3749   5.3844   5.3877   5.3911
     5.4163   5.4262   5.4337   5.5694   5.6058   5.6311   5.6723   5.7183
     5.7188   5.7583   5.7714   5.8248   5.8304   5.8645   5.9157   5.9494
     5.9616   5.9719   5.9976   6.0227   6.0663   6.1114   6.1572   6.1668
     6.1747   6.1796   6.3362   6.3408   6.3454   6.3492   6.3599   6.3622
     6.3763   6.4256   6.4607   6.4636   6.4755   6.6034   6.6836   6.7043
     6.7052   6.7413   6.7825   6.7898   6.8226   6.8817   6.8889   6.9129
     6.9829   6.9999   7.0172   7.0462   7.0751   7.1043   7.1530   7.1642
     7.1754   7.2011   7.2025   7.2254   7.2293   7.2630   7.2712   7.2863
     7.2885   7.2935   7.3130   7.3717   7.4404   7.4681   7.4810   7.4902
     7.6049   7.6222   7.6232   7.6873   7.7173   7.7433   7.7495   7.8068
     7.8264   7.8372   7.8699   7.9223   7.9465   7.9645   7.9837   7.9898
     7.9961   8.0540   8.0748   8.1190   8.1433   8.1441   8.1461   8.1940
     8.1944   8.2155   8.2227   8.2366   8.3558   8.3610   8.3732   8.3828
     8.4082   8.4154   8.4332   8.4858   8.5410   8.5580   8.5690   8.5714
     8.5949   8.6023   8.6913   8.7129   8.7456   8.7903   8.7926   8.7945
     8.8112   8.8182   8.8904   8.9054   8.9429   8.9850   9.2969   9.3272
     9.3319   9.7797   9.8713  10.0152  10.1668  10.3035  10.4903  10.5532
    10.5824  11.0928  11.1108  11.1818  11.6509  11.6755  11.8616  12.1617
    12.2491  12.6795  12.8002  13.2490  13.4271  13.8134  14.0842  14.1817
    14.1982  14.2187  14.2383  14.3915  14.8218  14.9595  15.4530  15.6531
    15.9129  16.0287  16.4444  16.5976  16.6900  16.7567  16.9386  17.0064
    17.0464  17.1945  17.3559  17.4755  17.5168  17.5666  17.5780  17.8236
    18.0876  18.1457

          k = 0.0556 0.1667-0.2857 ( 57750 PWs)   bands (ev):

   -75.3386 -75.3213 -75.3169 -75.3127 -75.3100 -75.3088 -75.3079 -75.3070
   -75.3051 -75.3044 -75.3011 -75.2999 -75.2986 -75.2969 -75.2917 -75.2913
   -74.7469 -74.7468 -74.7357 -74.7356 -74.7329 -74.7328 -74.7320 -74.7319
   -74.7312 -74.7312 -74.7302 -74.7301 -74.7274 -74.7274 -74.7161 -74.7160
   -41.1719 -41.1711 -41.1698 -41.1685 -41.1572 -41.1571 -41.1519 -41.1240
   -41.1220 -41.1203 -41.1162 -41.0982 -41.0920 -41.0873 -41.0666 -41.0590
   -41.0578 -41.0529 -41.0393 -41.0320 -41.0278 -41.0218 -41.0192 -41.0153
   -41.0151 -41.0124 -41.0115 -41.0040 -41.0020 -40.9961 -40.9939 -40.9910
   -40.9802 -40.9708 -40.9649 -40.9580 -40.9559 -40.9554 -40.9517 -40.9510
   -40.9464 -40.9424 -40.9177 -40.9171 -40.9119 -40.9050 -40.8990 -40.8941
   -40.6203 -40.6195 -40.6171 -40.6154 -40.6085 -40.6083 -40.6039 -40.6038
   -40.5562 -40.5559 -40.5539 -40.5535 -40.5418 -40.5413 -40.5373 -40.5366
   -40.5094 -40.5089 -40.5046 -40.5042 -40.4920 -40.4919 -40.4898 -40.4895
   -40.4404 -40.4403 -40.4358 -40.4355 -40.4271 -40.4271 -40.4231 -40.4230
   -40.3498 -40.3469 -40.3381 -40.3377 -40.3359 -40.3354 -40.3350 -40.3343
   -40.3342 -40.3338 -40.3338 -40.3334 -40.3317 -40.3315 -40.3239 -40.3238
     2.5455   3.8186   4.0419   4.0475   4.0879   4.0919   4.1032   4.1207
     4.1259   4.1813   4.2071   4.3040   4.3059   4.3697   4.5515   4.6145
     4.6709   4.8528   4.8626   4.8769   4.8829   4.8906   4.8923   4.9823
     4.9864   5.0222   5.0277   5.0283   5.0484   5.0817   5.0895   5.1275
     5.1299   5.1634   5.2106   5.2796   5.3749   5.3844   5.3877   5.3911
     5.4163   5.4262   5.4337   5.5694   5.6058   5.6311   5.6723   5.7183
     5.7188   5.7583   5.7714   5.8248   5.8304   5.8645   5.9157   5.9494
     5.9616   5.9719   5.9976   6.0227   6.0663   6.1114   6.1572   6.1668
     6.1747   6.1796   6.3362   6.3408   6.3454   6.3492   6.3599   6.3622
     6.3763   6.4255   6.4608   6.4636   6.4756   6.6035   6.6836   6.7044
     6.7052   6.7413   6.7825   6.7899   6.8226   6.8817   6.8889   6.9129
     6.9828   6.9999   7.0172   7.0463   7.0750   7.1043   7.1530   7.1642
     7.1753   7.2011   7.2025   7.2251   7.2293   7.2629   7.2711   7.2863
     7.2885   7.2935   7.3130   7.3717   7.4404   7.4681   7.4810   7.4904
     7.6049   7.6222   7.6232   7.6873   7.7173   7.7432   7.7496   7.8068
     7.8263   7.8372   7.8699   7.9222   7.9465   7.9645   7.9836   7.9897
     7.9960   8.0540   8.0765   8.1190   8.1436   8.1441   8.1461   8.1941
     8.1944   8.2153   8.2227   8.2369   8.3559   8.3610   8.3731   8.3827
     8.4085   8.4153   8.4331   8.4858   8.5410   8.5579   8.5691   8.5716
     8.5949   8.6023   8.6913   8.7132   8.7455   8.7903   8.7936   8.7945
     8.8112   8.8182   8.8904   8.9054   8.9429   8.9841   9.2969   9.3264
     9.3319   9.7790   9.8713  10.0152  10.1536  10.3028  10.4903  10.5531
    10.5859  11.0961  11.1120  11.1824  11.6542  11.6753  11.8919  12.1610
    12.2525  12.6611  12.8003  13.2302  13.4272  13.7945  14.0873  14.1540
    14.1915  14.2152  14.2250  14.3725  14.9368  14.9589  15.5927  15.6527
    15.7674  16.1854  16.2712  16.6835  16.7410  16.7633  16.7739  16.9912
    17.0463  17.1976  17.2628  17.3340  17.5782  17.5990  17.6421  17.9697
    18.0517  18.3915

          k = 0.0556 0.2778 0.0317 ( 57721 PWs)   bands (ev):

   -75.3371 -75.3253 -75.3163 -75.3123 -75.3116 -75.3090 -75.3065 -75.3048
   -75.3036 -75.3034 -75.3025 -75.3003 -75.2991 -75.2956 -75.2932 -75.2917
   -74.7460 -74.7459 -74.7383 -74.7382 -74.7328 -74.7328 -74.7322 -74.7321
   -74.7310 -74.7309 -74.7303 -74.7302 -74.7248 -74.7247 -74.7171 -74.7170
   -41.1667 -41.1654 -41.1627 -41.1619 -41.1519 -41.1514 -41.1493 -41.1295
   -41.1278 -41.1275 -41.1200 -41.1165 -41.1064 -41.1062 -41.0708 -41.0639
   -41.0480 -41.0474 -41.0279 -41.0216 -41.0216 -41.0192 -41.0181 -41.0170
   -41.0156 -41.0115 -41.0108 -41.0074 -41.0039 -41.0017 -40.9982 -40.9917
   -40.9708 -40.9659 -40.9631 -40.9584 -40.9518 -40.9498 -40.9465 -40.9430
   -40.9403 -40.9375 -40.9268 -40.9242 -40.9163 -40.9071 -40.9069 -40.8983
   -40.6160 -40.6146 -40.6103 -40.6081 -40.6048 -40.6045 -40.5976 -40.5973
   -40.5721 -40.5714 -40.5676 -40.5669 -40.5588 -40.5577 -40.5520 -40.5512
   -40.4946 -40.4939 -40.4876 -40.4872 -40.4782 -40.4780 -40.4736 -40.4734
   -40.4472 -40.4471 -40.4396 -40.4394 -40.4345 -40.4344 -40.4279 -40.4278
   -40.3485 -40.3462 -40.3401 -40.3399 -40.3360 -40.3353 -40.3351 -40.3343
   -40.3342 -40.3340 -40.3336 -40.3333 -40.3298 -40.3297 -40.3245 -40.3244
     2.6828   3.7691   3.9251   4.1131   4.1298   4.1301   4.1607   4.1853
     4.1969   4.2596   4.3072   4.3521   4.3589   4.3596   4.5303   4.5708
     4.6883   4.6956   4.7185   4.7193   4.7514   4.7713   4.8414   4.9211
     4.9264   4.9769   5.0623   5.0738   5.0745   5.0862   5.0872   5.0933
     5.0965   5.1386   5.1623   5.1640   5.3215   5.3638   5.3710   5.4028
     5.4236   5.4513   5.5008   5.6020   5.6083   5.6212   5.6282   5.6522
     5.6780   5.7345   5.7576   5.7966   5.8056   5.9391   5.9448   5.9815
     5.9866   5.9890   6.0594   6.0647   6.1043   6.1543   6.1797   6.1878
     6.2399   6.3130   6.3397   6.3674   6.3785   6.3807   6.3849   6.3897
     6.4246   6.4611   6.4691   6.5123   6.5211   6.5251   6.5617   6.6214
     6.6445   6.6729   6.6805   6.7492   6.8267   6.8340   6.8419   6.8421
     6.8728   6.8868   6.9233   6.9831   7.0209   7.0770   7.1204   7.1238
     7.2033   7.2198   7.2326   7.2452   7.2807   7.3092   7.3212   7.3494
     7.3669   7.3716   7.4082   7.4141   7.4783   7.5006   7.5355   7.6190
     7.6877   7.7109   7.7164   7.7302   7.7371   7.7740   7.8119   7.8374
     7.8420   7.8788   7.8880   7.9034   7.9364   7.9404   7.9469   7.9816
     7.9902   8.0606   8.1498   8.1503   8.1515   8.2015   8.2145   8.2795
     8.3012   8.3077   8.3108   8.3171   8.3295   8.3510   8.3869   8.4017
     8.4044   8.4082   8.4725   8.4736   8.4852   8.4862   8.5269   8.5414
     8.5546   8.5759   8.5847   8.6646   8.6674   8.7327   8.7641   8.8048
     8.8073   8.8167   8.8203   8.8325   8.9002   9.1147   9.1924   9.2386
     9.3340   9.5929   9.5976   9.8186  10.1009  10.1242  10.2820  10.5657
    10.9480  11.0853  11.1581  11.4771  11.6503  11.9841  12.1540  12.3171
    12.3433  12.7540  12.8997  13.4592  13.7967  13.8407  14.0032  14.1790
    14.2577  14.3823  14.4320  14.4817  14.7120  14.9953  15.1947  15.5238
    15.9585  16.0890  16.2367  16.2534  16.3422  16.5538  16.6385  16.6419
    16.8982  17.0378  17.0760  17.1034  17.3955  17.4429  17.9073  18.0451
    18.0651  18.1446

          k = 0.0556 0.2778 0.0952 ( 57742 PWs)   bands (ev):

   -75.3371 -75.3253 -75.3163 -75.3123 -75.3116 -75.3090 -75.3065 -75.3048
   -75.3036 -75.3034 -75.3025 -75.3003 -75.2991 -75.2956 -75.2932 -75.2917
   -74.7460 -74.7459 -74.7383 -74.7382 -74.7328 -74.7328 -74.7322 -74.7321
   -74.7310 -74.7309 -74.7303 -74.7302 -74.7248 -74.7247 -74.7171 -74.7170
   -41.1668 -41.1654 -41.1627 -41.1619 -41.1519 -41.1514 -41.1494 -41.1296
   -41.1278 -41.1276 -41.1200 -41.1165 -41.1064 -41.1062 -41.0708 -41.0639
   -41.0480 -41.0474 -41.0279 -41.0216 -41.0216 -41.0192 -41.0181 -41.0170
   -41.0156 -41.0115 -41.0108 -41.0074 -41.0039 -41.0017 -40.9982 -40.9918
   -40.9708 -40.9659 -40.9632 -40.9584 -40.9518 -40.9498 -40.9464 -40.9430
   -40.9402 -40.9375 -40.9269 -40.9242 -40.9163 -40.9071 -40.9069 -40.8983
   -40.6160 -40.6146 -40.6104 -40.6082 -40.6049 -40.6045 -40.5976 -40.5972
   -40.5721 -40.5714 -40.5676 -40.5669 -40.5589 -40.5577 -40.5521 -40.5512
   -40.4946 -40.4940 -40.4877 -40.4872 -40.4783 -40.4780 -40.4736 -40.4734
   -40.4472 -40.4472 -40.4396 -40.4394 -40.4345 -40.4344 -40.4279 -40.4278
   -40.3485 -40.3462 -40.3401 -40.3399 -40.3359 -40.3353 -40.3352 -40.3343
   -40.3342 -40.3340 -40.3336 -40.3333 -40.3298 -40.3297 -40.3246 -40.3244
     2.6828   3.7691   3.9251   4.1131   4.1298   4.1301   4.1607   4.1853
     4.1969   4.2596   4.3071   4.3521   4.3589   4.3596   4.5303   4.5708
     4.6883   4.6955   4.7185   4.7193   4.7514   4.7713   4.8414   4.9211
     4.9263   4.9769   5.0623   5.0738   5.0745   5.0862   5.0872   5.0933
     5.0965   5.1385   5.1623   5.1640   5.3215   5.3638   5.3710   5.4028
     5.4236   5.4513   5.5008   5.6020   5.6083   5.6212   5.6282   5.6522
     5.6780   5.7345   5.7576   5.7966   5.8056   5.9391   5.9448   5.9815
     5.9866   5.9890   6.0594   6.0647   6.1043   6.1543   6.1797   6.1878
     6.2399   6.3129   6.3397   6.3674   6.3786   6.3807   6.3849   6.3897
     6.4246   6.4611   6.4691   6.5124   6.5211   6.5251   6.5617   6.6215
     6.6445   6.6730   6.6806   6.7492   6.8268   6.8341   6.8421   6.8422
     6.8728   6.8868   6.9233   6.9828   7.0210   7.0771   7.1205   7.1236
     7.2033   7.2198   7.2325   7.2447   7.2806   7.3092   7.3212   7.3494
     7.3668   7.3716   7.4083   7.4140   7.4785   7.5007   7.5355   7.6190
     7.6877   7.7113   7.7165   7.7301   7.7370   7.7733   7.8118   7.8372
     7.8424   7.8787   7.8880   7.9033   7.9364   7.9403   7.9469   7.9814
     7.9901   8.0613   8.1500   8.1508   8.1515   8.2010   8.2149   8.2795
     8.3013   8.3077   8.3111   8.3171   8.3295   8.3510   8.3861   8.4018
     8.4045   8.4101   8.4722   8.4736   8.4854   8.4862   8.5269   8.5414
     8.5546   8.5758   8.5847   8.6645   8.6674   8.7309   8.7641   8.8048
     8.8104   8.8167   8.8204   8.8325   8.9005   9.1147   9.1924   9.2389
     9.3326   9.5926   9.5976   9.8173  10.1070  10.1242  10.2817  10.5356
    10.9466  11.0912  11.1614  11.4793  11.6562  12.0449  12.1542  12.2758
    12.3421  12.7500  12.9059  13.4159  13.8409  13.9008  13.9606  14.1777
    14.2630  14.3510  14.4191  14.5045  14.6088  15.1116  15.1496  15.6361
    15.9575  16.0417  16.0900  16.2428  16.3423  16.6128  16.6396  16.7595
    16.8165  17.1334  17.2078  17.2083  17.2201  17.3542  17.9872  18.0623
    18.0711  18.1739

          k = 0.0556 0.2778 0.1587 ( 57747 PWs)   bands (ev):

   -75.3371 -75.3253 -75.3163 -75.3123 -75.3116 -75.3090 -75.3065 -75.3048
   -75.3036 -75.3034 -75.3025 -75.3003 -75.2991 -75.2956 -75.2932 -75.2917
   -74.7460 -74.7459 -74.7383 -74.7382 -74.7328 -74.7328 -74.7322 -74.7321
   -74.7310 -74.7309 -74.7303 -74.7302 -74.7248 -74.7247 -74.7171 -74.7170
   -41.1668 -41.1654 -41.1628 -41.1619 -41.1519 -41.1514 -41.1494 -41.1296
   -41.1278 -41.1275 -41.1200 -41.1164 -41.1064 -41.1062 -41.0708 -41.0639
   -41.0480 -41.0474 -41.0279 -41.0216 -41.0216 -41.0192 -41.0181 -41.0171
   -41.0156 -41.0115 -41.0108 -41.0074 -41.0039 -41.0017 -40.9982 -40.9918
   -40.9708 -40.9659 -40.9632 -40.9584 -40.9518 -40.9498 -40.9465 -40.9430
   -40.9403 -40.9375 -40.9269 -40.9242 -40.9164 -40.9071 -40.9069 -40.8983
   -40.6160 -40.6146 -40.6104 -40.6082 -40.6048 -40.6044 -40.5976 -40.5972
   -40.5721 -40.5713 -40.5676 -40.5669 -40.5588 -40.5577 -40.5520 -40.5512
   -40.4946 -40.4940 -40.4876 -40.4872 -40.4782 -40.4781 -40.4736 -40.4733
   -40.4472 -40.4472 -40.4396 -40.4394 -40.4345 -40.4344 -40.4279 -40.4278
   -40.3485 -40.3462 -40.3402 -40.3400 -40.3359 -40.3353 -40.3352 -40.3344
   -40.3342 -40.3339 -40.3336 -40.3333 -40.3298 -40.3297 -40.3245 -40.3244
     2.6829   3.7691   3.9250   4.1131   4.1298   4.1301   4.1607   4.1853
     4.1969   4.2596   4.3070   4.3521   4.3589   4.3596   4.5303   4.5708
     4.6883   4.6955   4.7185   4.7193   4.7514   4.7714   4.8414   4.9211
     4.9263   4.9769   5.0623   5.0738   5.0745   5.0862   5.0871   5.0933
     5.0965   5.1385   5.1624   5.1640   5.3215   5.3638   5.3710   5.4028
     5.4236   5.4513   5.5008   5.6020   5.6083   5.6212   5.6282   5.6522
     5.6779   5.7345   5.7576   5.7966   5.8056   5.9391   5.9448   5.9815
     5.9867   5.9891   6.0594   6.0647   6.1044   6.1543   6.1797   6.1878
     6.2398   6.3129   6.3397   6.3674   6.3786   6.3806   6.3849   6.3897
     6.4246   6.4611   6.4691   6.5124   6.5211   6.5250   6.5618   6.6215
     6.6446   6.6730   6.6807   6.7492   6.8268   6.8341   6.8421   6.8428
     6.8728   6.8868   6.9233   6.9823   7.0211   7.0772   7.1205   7.1234
     7.2032   7.2198   7.2323   7.2440   7.2805   7.3093   7.3212   7.3493
     7.3667   7.3716   7.4084   7.4139   7.4787   7.5007   7.5355   7.6190
     7.6878   7.7120   7.7165   7.7300   7.7368   7.7722   7.8116   7.8371
     7.8431   7.8787   7.8880   7.9033   7.9364   7.9402   7.9469   7.9810
     7.9901   8.0622   8.1503   8.1515   8.1516   8.2003   8.2156   8.2794
     8.3013   8.3077   8.3115   8.3171   8.3294   8.3510   8.3852   8.4019
     8.4045   8.4127   8.4718   8.4736   8.4857   8.4862   8.5269   8.5415
     8.5546   8.5756   8.5847   8.6643   8.6675   8.7281   8.7641   8.8049
     8.8152   8.8167   8.8204   8.8325   8.9010   9.1147   9.1924   9.2395
     9.3306   9.5921   9.5975   9.8154  10.1164  10.1241  10.2812  10.4922
    10.9445  11.1004  11.1664  11.4827  11.6654  12.1394  12.1546  12.2179
    12.3404  12.7437  12.9156  13.3555  13.8411  13.9012  14.0757  14.1758
    14.2731  14.3165  14.3975  14.4582  14.5262  15.0872  15.3134  15.7484
    15.8280  15.9561  16.0932  16.2524  16.3426  16.6262  16.7089  16.7678
    16.8848  16.9719  17.2009  17.2327  17.4193  17.4444  17.7955  17.9172
    18.0560  18.0878

          k = 0.0556 0.2778 0.2222 ( 57767 PWs)   bands (ev):

   -75.3371 -75.3253 -75.3163 -75.3123 -75.3116 -75.3090 -75.3065 -75.3048
   -75.3036 -75.3034 -75.3025 -75.3003 -75.2991 -75.2956 -75.2932 -75.2917
   -74.7460 -74.7459 -74.7383 -74.7382 -74.7328 -74.7328 -74.7322 -74.7321
   -74.7310 -74.7309 -74.7303 -74.7302 -74.7248 -74.7247 -74.7171 -74.7170
   -41.1668 -41.1654 -41.1627 -41.1619 -41.1519 -41.1514 -41.1493 -41.1296
   -41.1278 -41.1275 -41.1201 -41.1165 -41.1064 -41.1062 -41.0709 -41.0639
   -41.0480 -41.0474 -41.0279 -41.0216 -41.0216 -41.0192 -41.0181 -41.0171
   -41.0156 -41.0115 -41.0108 -41.0074 -41.0039 -41.0017 -40.9982 -40.9917
   -40.9707 -40.9659 -40.9632 -40.9584 -40.9518 -40.9498 -40.9465 -40.9430
   -40.9403 -40.9375 -40.9269 -40.9242 -40.9164 -40.9071 -40.9069 -40.8984
   -40.6160 -40.6146 -40.6103 -40.6082 -40.6048 -40.6044 -40.5976 -40.5972
   -40.5721 -40.5714 -40.5676 -40.5670 -40.5589 -40.5577 -40.5520 -40.5513
   -40.4947 -40.4940 -40.4877 -40.4872 -40.4782 -40.4781 -40.4736 -40.4734
   -40.4472 -40.4472 -40.4396 -40.4394 -40.4345 -40.4344 -40.4279 -40.4278
   -40.3485 -40.3462 -40.3402 -40.3400 -40.3359 -40.3352 -40.3352 -40.3343
   -40.3342 -40.3339 -40.3336 -40.3334 -40.3298 -40.3298 -40.3245 -40.3244
     2.6829   3.7691   3.9250   4.1131   4.1298   4.1301   4.1607   4.1853
     4.1969   4.2596   4.3069   4.3521   4.3589   4.3596   4.5303   4.5708
     4.6883   4.6955   4.7185   4.7192   4.7514   4.7715   4.8414   4.9211
     4.9263   4.9768   5.0623   5.0738   5.0745   5.0862   5.0871   5.0933
     5.0965   5.1385   5.1624   5.1639   5.3215   5.3638   5.3709   5.4028
     5.4236   5.4513   5.5008   5.6020   5.6083   5.6213   5.6282   5.6521
     5.6779   5.7345   5.7576   5.7966   5.8056   5.9391   5.9448   5.9815
     5.9868   5.9891   6.0594   6.0647   6.1044   6.1543   6.1797   6.1877
     6.2398   6.3129   6.3397   6.3674   6.3786   6.3806   6.3849   6.3897
     6.4247   6.4611   6.4691   6.5125   6.5211   6.5250   6.5618   6.6215
     6.6446   6.6730   6.6808   6.7491   6.8268   6.8342   6.8421   6.8433
     6.8727   6.8869   6.9232   6.9819   7.0212   7.0773   7.1205   7.1232
     7.2032   7.2198   7.2322   7.2434   7.2804   7.3093   7.3212   7.3493
     7.3666   7.3716   7.4086   7.4138   7.4789   7.5007   7.5355   7.6191
     7.6878   7.7126   7.7165   7.7300   7.7366   7.7712   7.8115   7.8369
     7.8436   7.8787   7.8880   7.9032   7.9364   7.9401   7.9469   7.9807
     7.9901   8.0631   8.1505   8.1515   8.1523   8.1996   8.2161   8.2794
     8.3014   8.3077   8.3118   8.3171   8.3294   8.3510   8.3845   8.4020
     8.4046   8.4149   8.4715   8.4736   8.4860   8.4863   8.5269   8.5415
     8.5547   8.5754   8.5848   8.6642   8.6675   8.7257   8.7640   8.8049
     8.8167   8.8196   8.8204   8.8325   8.9016   9.1147   9.1924   9.2399
     9.3288   9.5916   9.5975   9.8137  10.1241  10.1248  10.2807  10.4564
    10.9427  11.1086  11.1709  11.4857  11.6735  12.1549  12.1713  12.2253
    12.3388  12.7381  12.9242  13.3069  13.8414  13.8533  14.1742  14.2622
    14.2857  14.2919  14.3295  14.3747  14.5399  15.0375  15.4825  15.5489
    15.9548  16.0275  16.1164  16.2609  16.3429  16.4952  16.6904  16.7445
    16.7974  17.0201  17.2334  17.3201  17.6284  17.6542  17.6671  17.8444
    17.9071  18.0159

          k = 0.0556 0.2778-0.2857 ( 57764 PWs)   bands (ev):

   -75.3371 -75.3253 -75.3163 -75.3123 -75.3116 -75.3090 -75.3065 -75.3048
   -75.3036 -75.3034 -75.3025 -75.3003 -75.2991 -75.2956 -75.2932 -75.2917
   -74.7460 -74.7459 -74.7383 -74.7382 -74.7328 -74.7328 -74.7322 -74.7321
   -74.7310 -74.7309 -74.7303 -74.7302 -74.7248 -74.7247 -74.7171 -74.7170
   -41.1668 -41.1654 -41.1628 -41.1619 -41.1519 -41.1514 -41.1493 -41.1296
   -41.1278 -41.1275 -41.1201 -41.1165 -41.1063 -41.1062 -41.0708 -41.0639
   -41.0480 -41.0474 -41.0279 -41.0216 -41.0216 -41.0192 -41.0181 -41.0171
   -41.0156 -41.0115 -41.0108 -41.0074 -41.0039 -41.0017 -40.9981 -40.9917
   -40.9708 -40.9659 -40.9632 -40.9584 -40.9518 -40.9498 -40.9465 -40.9430
   -40.9403 -40.9375 -40.9269 -40.9242 -40.9163 -40.9071 -40.9069 -40.8984
   -40.6160 -40.6146 -40.6103 -40.6081 -40.6049 -40.6045 -40.5976 -40.5972
   -40.5721 -40.5714 -40.5676 -40.5670 -40.5589 -40.5577 -40.5520 -40.5513
   -40.4946 -40.4940 -40.4877 -40.4872 -40.4782 -40.4781 -40.4736 -40.4734
   -40.4472 -40.4472 -40.4396 -40.4395 -40.4345 -40.4344 -40.4279 -40.4278
   -40.3485 -40.3462 -40.3402 -40.3400 -40.3359 -40.3353 -40.3352 -40.3343
   -40.3342 -40.3339 -40.3336 -40.3334 -40.3298 -40.3298 -40.3246 -40.3244
     2.6829   3.7691   3.9250   4.1131   4.1298   4.1301   4.1607   4.1853
     4.1969   4.2596   4.3068   4.3521   4.3589   4.3596   4.5303   4.5708
     4.6883   4.6955   4.7185   4.7193   4.7514   4.7715   4.8414   4.9211
     4.9263   4.9768   5.0623   5.0738   5.0745   5.0862   5.0871   5.0933
     5.0965   5.1385   5.1624   5.1639   5.3216   5.3638   5.3709   5.4028
     5.4236   5.4513   5.5007   5.6020   5.6083   5.6213   5.6282   5.6521
     5.6779   5.7345   5.7575   5.7966   5.8056   5.9391   5.9448   5.9815
     5.9868   5.9891   6.0594   6.0647   6.1044   6.1543   6.1797   6.1878
     6.2398   6.3129   6.3397   6.3674   6.3787   6.3806   6.3849   6.3897
     6.4247   6.4611   6.4691   6.5125   6.5211   6.5250   6.5618   6.6215
     6.6446   6.6730   6.6809   6.7491   6.8268   6.8342   6.8421   6.8435
     6.8727   6.8869   6.9233   6.9818   7.0213   7.0774   7.1206   7.1231
     7.2032   7.2198   7.2322   7.2432   7.2804   7.3093   7.3212   7.3492
     7.3665   7.3716   7.4086   7.4137   7.4790   7.5007   7.5355   7.6191
     7.6878   7.7128   7.7165   7.7299   7.7366   7.7708   7.8114   7.8368
     7.8438   7.8786   7.8880   7.9032   7.9364   7.9400   7.9469   7.9806
     7.9901   8.0634   8.1506   8.1515   8.1526   8.1993   8.2164   8.2794
     8.3014   8.3077   8.3120   8.3171   8.3294   8.3510   8.3843   8.4021
     8.4046   8.4157   8.4714   8.4736   8.4861   8.4863   8.5269   8.5416
     8.5547   8.5753   8.5848   8.6641   8.6674   8.7248   8.7641   8.8049
     8.8167   8.8204   8.8213   8.8325   8.9018   9.1147   9.1924   9.2401
     9.3281   9.5914   9.5975   9.8130  10.1241  10.1282  10.2805  10.4428
    10.9419  11.1119  11.1726  11.4869  11.6768  12.1537  12.1550  12.2604
    12.3382  12.7359  12.9276  13.2887  13.8353  13.8414  14.1735  14.2789
    14.2831  14.2929  14.3540  14.3636  14.5444  15.0189  15.3635  15.6862
    15.9544  16.0704  16.1971  16.2643  16.3430  16.3447  16.6731  16.7380
    16.8322  16.8887  17.4130  17.4344  17.6362  17.6789  17.7015  17.8536
    18.0564  18.0801

          k = 0.0556 0.3889 0.0317 ( 57765 PWs)   bands (ev):

   -75.3350 -75.3290 -75.3154 -75.3130 -75.3117 -75.3100 -75.3058 -75.3037
   -75.3024 -75.3022 -75.3012 -75.3008 -75.2999 -75.2953 -75.2944 -75.2924
   -74.7446 -74.7445 -74.7407 -74.7406 -74.7327 -74.7326 -74.7324 -74.7323
   -74.7308 -74.7307 -74.7304 -74.7304 -74.7224 -74.7223 -74.7185 -74.7184
   -41.1584 -41.1574 -41.1535 -41.1526 -41.1455 -41.1446 -41.1431 -41.1375
   -41.1353 -41.1353 -41.1329 -41.1271 -41.1240 -41.1200 -41.0721 -41.0682
   -41.0409 -41.0364 -41.0297 -41.0246 -41.0210 -41.0197 -41.0197 -41.0189
   -41.0168 -41.0132 -41.0073 -41.0028 -40.9977 -40.9964 -40.9942 -40.9892
   -40.9792 -40.9747 -40.9504 -40.9465 -40.9456 -40.9450 -40.9449 -40.9400
   -40.9369 -40.9326 -40.9310 -40.9251 -40.9238 -40.9177 -40.9124 -40.9051
   -40.6088 -40.6071 -40.6009 -40.5987 -40.5985 -40.5981 -40.5889 -40.5883
   -40.5865 -40.5853 -40.5798 -40.5791 -40.5747 -40.5730 -40.5658 -40.5649
   -40.4806 -40.4800 -40.4716 -40.4714 -40.4657 -40.4655 -40.4589 -40.4587
   -40.4565 -40.4562 -40.4460 -40.4459 -40.4446 -40.4445 -40.4357 -40.4356
   -40.3467 -40.3451 -40.3423 -40.3420 -40.3359 -40.3356 -40.3349 -40.3345
   -40.3342 -40.3341 -40.3334 -40.3333 -40.3282 -40.3280 -40.3255 -40.3253
     2.8837   3.4422   4.0772   4.1920   4.2139   4.2476   4.2495   4.2726
     4.2953   4.3237   4.3773   4.4230   4.4393   4.4477   4.4640   4.4674
     4.4773   4.5155   4.5557   4.5614   4.6250   4.6810   4.7242   4.7967
     4.9054   5.0311   5.0793   5.0811   5.0976   5.1035   5.1149   5.1296
     5.1749   5.1869   5.1964   5.1974   5.2082   5.3195   5.3730   5.3816
     5.4037   5.4389   5.4765   5.4862   5.5134   5.5359   5.5706   5.5830
     5.5908   5.6329   5.8062   5.8612   5.9364   5.9654   5.9847   6.0053
     6.0257   6.0665   6.1498   6.1503   6.1505   6.1741   6.1973   6.2049
     6.2918   6.3052   6.3736   6.3749   6.3752   6.4085   6.4126   6.4139
     6.4181   6.4302   6.4364   6.4809   6.4886   6.5704   6.5808   6.5950
     6.6082   6.6318   6.6638   6.6718   6.6789   6.7461   6.7474   6.7875
     6.8261   6.8335   7.0481   7.0605   7.0729   7.1035   7.1463   7.1683
     7.1898   7.2388   7.2545   7.2920   7.3304   7.3318   7.3350   7.3441
     7.3443   7.3540   7.4253   7.4307   7.5558   7.5620   7.5691   7.6135
     7.6405   7.6711   7.7385   7.7633   7.7680   7.8004   7.8005   7.8269
     7.8653   7.8823   7.8862   7.9572   7.9911   8.0511   8.0580   8.0868
     8.1161   8.1420   8.1632   8.1773   8.1870   8.1988   8.2225   8.2306
     8.2936   8.3036   8.3216   8.3321   8.3324   8.3696   8.3912   8.3971
     8.4090   8.4101   8.4267   8.4492   8.4692   8.4737   8.4892   8.5012
     8.5416   8.5503   8.5688   8.5878   8.5891   8.6092   8.6650   8.7491
     8.8412   8.8478   8.8736   8.9068   8.9969   9.0105   9.0382   9.2202
     9.3428   9.4406   9.6854   9.7151   9.8779   9.8880  10.1060  10.9391
    11.1093  11.1600  11.3986  11.6367  11.6757  11.6763  11.8264  12.3955
    13.0471  13.2558  13.3122  13.3236  13.5100  13.6416  13.9729  14.3760
    14.5543  14.5715  14.6742  14.8923  14.9763  15.1141  15.2713  15.3176
    15.5299  15.6443  15.7557  15.7630  15.8872  16.3522  16.3786  16.6755
    16.7235  17.0174  17.1746  17.2196  17.2902  17.3821  17.4953  17.5275
    17.6376  18.0900

          k = 0.0556 0.3889 0.0952 ( 57762 PWs)   bands (ev):

   -75.3350 -75.3290 -75.3154 -75.3130 -75.3117 -75.3100 -75.3058 -75.3037
   -75.3024 -75.3022 -75.3012 -75.3008 -75.2999 -75.2953 -75.2944 -75.2924
   -74.7446 -74.7445 -74.7407 -74.7406 -74.7327 -74.7326 -74.7324 -74.7323
   -74.7308 -74.7307 -74.7304 -74.7304 -74.7224 -74.7223 -74.7185 -74.7184
   -41.1584 -41.1574 -41.1536 -41.1526 -41.1456 -41.1446 -41.1431 -41.1375
   -41.1354 -41.1353 -41.1329 -41.1271 -41.1240 -41.1200 -41.0721 -41.0682
   -41.0409 -41.0364 -41.0297 -41.0246 -41.0210 -41.0197 -41.0196 -41.0188
   -41.0168 -41.0132 -41.0073 -41.0028 -40.9977 -40.9964 -40.9942 -40.9893
   -40.9792 -40.9747 -40.9504 -40.9465 -40.9456 -40.9450 -40.9449 -40.9400
   -40.9369 -40.9326 -40.9310 -40.9251 -40.9238 -40.9177 -40.9124 -40.9051
   -40.6088 -40.6071 -40.6009 -40.5987 -40.5985 -40.5981 -40.5889 -40.5883
   -40.5865 -40.5853 -40.5798 -40.5790 -40.5747 -40.5730 -40.5658 -40.5649
   -40.4806 -40.4800 -40.4716 -40.4713 -40.4657 -40.4655 -40.4589 -40.4587
   -40.4565 -40.4562 -40.4460 -40.4459 -40.4446 -40.4445 -40.4357 -40.4356
   -40.3467 -40.3451 -40.3423 -40.3420 -40.3359 -40.3356 -40.3349 -40.3345
   -40.3342 -40.3341 -40.3334 -40.3333 -40.3281 -40.3280 -40.3255 -40.3253
     2.8837   3.4423   4.0772   4.1920   4.2139   4.2476   4.2495   4.2726
     4.2953   4.3237   4.3773   4.4230   4.4393   4.4476   4.4640   4.4674
     4.4773   4.5155   4.5557   4.5614   4.6250   4.6810   4.7242   4.7967
     4.9054   5.0311   5.0793   5.0811   5.0976   5.1035   5.1149   5.1296
     5.1749   5.1869   5.1964   5.1974   5.2082   5.3194   5.3730   5.3816
     5.4038   5.4388   5.4765   5.4862   5.5134   5.5359   5.5707   5.5830
     5.5909   5.6329   5.8062   5.8612   5.9364   5.9654   5.9847   6.0053
     6.0257   6.0665   6.1498   6.1503   6.1505   6.1741   6.1973   6.2050
     6.2917   6.3052   6.3737   6.3749   6.3753   6.4085   6.4126   6.4139
     6.4181   6.4303   6.4365   6.4809   6.4886   6.5704   6.5808   6.5950
     6.6082   6.6321   6.6638   6.6718   6.6788   6.7461   6.7474   6.7875
     6.8261   6.8336   7.0481   7.0602   7.0730   7.1035   7.1464   7.1683
     7.1897   7.2387   7.2545   7.2920   7.3304   7.3315   7.3350   7.3441
     7.3441   7.3539   7.4253   7.4308   7.5557   7.5618   7.5682   7.6134
     7.6408   7.6711   7.7385   7.7633   7.7680   7.8004   7.8005   7.8269
     7.8653   7.8823   7.8862   7.9585   7.9911   8.0515   8.0580   8.0868
     8.1159   8.1420   8.1631   8.1773   8.1865   8.1993   8.2225   8.2306
     8.2940   8.3048   8.3218   8.3321   8.3325   8.3696   8.3911   8.3961
     8.4089   8.4101   8.4267   8.4493   8.4692   8.4737   8.4893   8.5010
     8.5414   8.5485   8.5688   8.5876   8.5891   8.6093   8.6650   8.7491
     8.8412   8.8478   8.8737   8.9068   8.9970   9.0153   9.0382   9.2202
     9.3417   9.4400   9.6913   9.7151   9.8768   9.8883  10.1054  10.9070
    11.1148  11.1642  11.3988  11.6402  11.6750  11.6812  11.7882  12.4654
    13.0436  13.2423  13.3223  13.4053  13.4710  13.6479  13.9394  14.3762
    14.5251  14.5394  14.6945  14.8550  14.9338  15.2185  15.2552  15.3239
    15.5797  15.6249  15.6434  15.7629  15.8452  16.3776  16.4208  16.7383
    16.7442  16.9685  17.2053  17.3455  17.3672  17.3798  17.5246  17.5344
    17.7975  17.8494

          k = 0.0556 0.3889 0.1587 ( 57778 PWs)   bands (ev):

   -75.3350 -75.3290 -75.3154 -75.3130 -75.3117 -75.3100 -75.3058 -75.3037
   -75.3024 -75.3022 -75.3012 -75.3008 -75.2999 -75.2953 -75.2944 -75.2924
   -74.7446 -74.7445 -74.7407 -74.7406 -74.7327 -74.7326 -74.7324 -74.7323
   -74.7308 -74.7307 -74.7304 -74.7304 -74.7224 -74.7223 -74.7185 -74.7184
   -41.1584 -41.1574 -41.1536 -41.1526 -41.1456 -41.1446 -41.1431 -41.1375
   -41.1354 -41.1353 -41.1329 -41.1271 -41.1240 -41.1200 -41.0721 -41.0682
[...]
     7.2650   7.2650   7.2651   7.2651   7.2653   7.2653   7.2653   7.2653
     7.2999   7.2999   7.2999   7.2999   7.3001   7.3001   7.3001   7.3001
     7.3134   7.3134   7.3134   7.3134   7.5362   7.5362   7.5362   7.5362
     7.8813   7.8813   7.8813   7.8813   7.8813   7.8813   7.8813   7.8813
     7.8897   7.8897   7.8897   7.8897   8.0142   8.0142   8.0142   8.0143
     8.1417   8.1417   8.1417   8.1417   8.3513   8.3513   8.3513   8.3513
     8.4815   8.4815   8.4815   8.4815   8.4815   8.4815   8.4815   8.4815
     8.7759   8.7759   8.7759   8.7759   8.8261   8.8261   8.8261   8.8261
     8.8261   8.8261   8.8261   8.8261   8.8443   8.8443   8.8443   8.8443
     9.6157   9.6157   9.6157   9.6157  12.0444  12.0444  12.0444  12.0444
    12.0770  12.0771  12.0771  12.0771  12.0771  12.0772  12.0772  12.0772
    13.2091  13.2092  13.2092  13.2092  13.2092  13.2093  13.2093  13.2093
    13.8445  13.8445  13.8445  13.8445  15.2132  15.2132  15.2132  15.2132
    15.2133  15.2133  15.2134  15.2134  15.9639  15.9639  15.9639  15.9639
    17.4289  17.4290  17.4290  17.4290  17.7183  17.7183  17.7184  17.7185
    17.7186  17.7186

          k =-0.5000-0.5000 0.1587 ( 57796 PWs)   bands (ev):

   -75.3395 -75.3395 -75.3395 -75.3394 -75.3165 -75.3165 -75.3165 -75.3165
   -75.3118 -75.3118 -75.3118 -75.3118 -75.3116 -75.3115 -75.3115 -75.3115
   -74.7519 -74.7518 -74.7518 -74.7518 -74.7517 -74.7516 -74.7516 -74.7516
   -74.7359 -74.7359 -74.7359 -74.7358 -74.7357 -74.7356 -74.7356 -74.7356
   -41.1654 -41.1654 -41.1654 -41.1654 -41.1653 -41.1653 -41.1653 -41.1653
   -41.1546 -41.1546 -41.1546 -41.1545 -41.1020 -41.1020 -41.1020 -41.1019
   -41.0420 -41.0420 -41.0420 -41.0419 -41.0417 -41.0417 -41.0417 -41.0417
   -40.9995 -40.9995 -40.9995 -40.9995 -40.9980 -40.9980 -40.9980 -40.9980
   -40.9979 -40.9978 -40.9978 -40.9978 -40.9781 -40.9780 -40.9780 -40.9780
   -40.9558 -40.9558 -40.9558 -40.9558 -40.9057 -40.9057 -40.9057 -40.9057
   -40.6263 -40.6263 -40.6263 -40.6263 -40.6261 -40.6260 -40.6260 -40.6260
   -40.5431 -40.5431 -40.5430 -40.5430 -40.5403 -40.5403 -40.5403 -40.5403
   -40.5286 -40.5286 -40.5286 -40.5286 -40.5284 -40.5284 -40.5284 -40.5284
   -40.4402 -40.4402 -40.4402 -40.4402 -40.4399 -40.4399 -40.4399 -40.4399
   -40.3536 -40.3536 -40.3536 -40.3536 -40.3528 -40.3528 -40.3528 -40.3527
   -40.3417 -40.3417 -40.3417 -40.3417 -40.3414 -40.3414 -40.3414 -40.3414
     3.5636   3.5636   3.5636   3.5637   4.1888   4.1888   4.1888   4.1888
     4.5159   4.5159   4.5159   4.5159   4.5161   4.5161   4.5161   4.5161
     4.6257   4.6257   4.6257   4.6257   4.6869   4.6869   4.6869   4.6870
     4.6870   4.6871   4.6871   4.6871   4.7739   4.7740   4.7740   4.7740
     5.0663   5.0663   5.0663   5.0663   5.3807   5.3807   5.3807   5.3807
     5.3812   5.3812   5.3812   5.3812   5.6896   5.6897   5.6897   5.6897
     5.6898   5.6899   5.6899   5.6900   5.8615   5.8616   5.8616   5.8616
     6.0944   6.0944   6.0944   6.0944   6.3524   6.3524   6.3524   6.3524
     6.4647   6.4647   6.4647   6.4647   6.4712   6.4712   6.4712   6.4713
     6.5530   6.5531   6.5531   6.5531   6.6672   6.6672   6.6672   6.6672
     6.6672   6.6673   6.6673   6.6673   6.6936   6.6936   6.6936   6.6936
     7.0102   7.0102   7.0102   7.0102   7.1402   7.1402   7.1402   7.1402
     7.2650   7.2650   7.2651   7.2651   7.2653   7.2653   7.2653   7.2653
     7.2999   7.2999   7.2999   7.2999   7.3001   7.3001   7.3001   7.3001
     7.3134   7.3134   7.3134   7.3134   7.5362   7.5362   7.5362   7.5362
     7.8812   7.8812   7.8812   7.8812   7.8812   7.8812   7.8812   7.8812
     7.8900   7.8900   7.8900   7.8900   8.0119   8.0119   8.0119   8.0119
     8.1417   8.1417   8.1417   8.1417   8.3513   8.3513   8.3513   8.3513
     8.4815   8.4815   8.4815   8.4815   8.4816   8.4816   8.4816   8.4816
     8.7759   8.7759   8.7759   8.7760   8.8261   8.8261   8.8261   8.8261
     8.8261   8.8261   8.8261   8.8261   8.8443   8.8443   8.8443   8.8443
     9.6249   9.6249   9.6249   9.6250  11.9913  11.9913  11.9913  11.9913
    12.0773  12.0773  12.0773  12.0774  12.0774  12.0774  12.0774  12.0774
    13.2080  13.2080  13.2080  13.2081  13.2081  13.2081  13.2081  13.2081
    14.0150  14.0151  14.0151  14.0151  15.2189  15.2189  15.2189  15.2189
    15.2190  15.2190  15.2190  15.2190  15.6766  15.6766  15.6766  15.6766
    17.4310  17.4311  17.4311  17.4311  17.6541  17.6541  17.6542  17.6543
    17.6544  17.6544

          k =-0.5000-0.5000 0.2222 ( 57756 PWs)   bands (ev):

   -75.3395 -75.3395 -75.3395 -75.3394 -75.3165 -75.3165 -75.3165 -75.3165
   -75.3118 -75.3118 -75.3118 -75.3118 -75.3116 -75.3115 -75.3115 -75.3115
   -74.7519 -74.7518 -74.7518 -74.7518 -74.7517 -74.7516 -74.7516 -74.7516
   -74.7359 -74.7359 -74.7359 -74.7358 -74.7357 -74.7356 -74.7356 -74.7356
   -41.1654 -41.1654 -41.1654 -41.1654 -41.1653 -41.1653 -41.1653 -41.1653
   -41.1546 -41.1546 -41.1546 -41.1545 -41.1019 -41.1019 -41.1019 -41.1019
   -41.0420 -41.0419 -41.0419 -41.0419 -41.0417 -41.0417 -41.0417 -41.0417
   -40.9995 -40.9995 -40.9995 -40.9995 -40.9980 -40.9980 -40.9980 -40.9980
   -40.9978 -40.9978 -40.9978 -40.9978 -40.9780 -40.9780 -40.9780 -40.9780
   -40.9558 -40.9558 -40.9558 -40.9558 -40.9057 -40.9057 -40.9057 -40.9057
   -40.6262 -40.6262 -40.6262 -40.6262 -40.6260 -40.6260 -40.6260 -40.6260
   -40.5430 -40.5430 -40.5430 -40.5430 -40.5403 -40.5403 -40.5403 -40.5403
   -40.5286 -40.5286 -40.5286 -40.5286 -40.5284 -40.5284 -40.5284 -40.5284
   -40.4401 -40.4401 -40.4401 -40.4401 -40.4399 -40.4399 -40.4399 -40.4399
   -40.3536 -40.3536 -40.3536 -40.3536 -40.3528 -40.3528 -40.3528 -40.3528
   -40.3417 -40.3417 -40.3417 -40.3417 -40.3414 -40.3414 -40.3414 -40.3414
     3.5636   3.5636   3.5636   3.5637   4.1888   4.1888   4.1888   4.1888
     4.5159   4.5159   4.5159   4.5159   4.5161   4.5161   4.5161   4.5161
     4.6257   4.6257   4.6257   4.6257   4.6869   4.6869   4.6869   4.6870
     4.6870   4.6871   4.6871   4.6871   4.7740   4.7740   4.7740   4.7740
     5.0663   5.0663   5.0663   5.0663   5.3807   5.3807   5.3807   5.3807
     5.3812   5.3812   5.3812   5.3812   5.6896   5.6897   5.6897   5.6897
     5.6898   5.6899   5.6899   5.6900   5.8616   5.8616   5.8616   5.8616
     6.0944   6.0944   6.0944   6.0944   6.3524   6.3524   6.3524   6.3524
     6.4647   6.4647   6.4647   6.4647   6.4711   6.4712   6.4712   6.4712
     6.5532   6.5532   6.5532   6.5532   6.6672   6.6672   6.6672   6.6672
     6.6672   6.6673   6.6673   6.6673   6.6936   6.6936   6.6936   6.6936
     7.0100   7.0100   7.0100   7.0100   7.1403   7.1404   7.1404   7.1404
     7.2650   7.2650   7.2651   7.2651   7.2652   7.2653   7.2653   7.2653
     7.2999   7.2999   7.2999   7.2999   7.3001   7.3001   7.3001   7.3001
     7.3134   7.3135   7.3135   7.3135   7.5362   7.5362   7.5362   7.5362
     7.8811   7.8811   7.8811   7.8811   7.8811   7.8811   7.8811   7.8811
     7.8904   7.8904   7.8904   7.8904   8.0098   8.0098   8.0098   8.0099
     8.1417   8.1417   8.1417   8.1417   8.3513   8.3514   8.3514   8.3514
     8.4816   8.4816   8.4816   8.4816   8.4817   8.4817   8.4817   8.4817
     8.7759   8.7759   8.7759   8.7760   8.8261   8.8261   8.8261   8.8261
     8.8261   8.8261   8.8262   8.8262   8.8443   8.8443   8.8443   8.8443
     9.6331   9.6332   9.6332   9.6332  11.9479  11.9479  11.9479  11.9479
    12.0775  12.0775  12.0775  12.0776  12.0776  12.0776  12.0776  12.0776
    13.2070  13.2071  13.2071  13.2071  13.2071  13.2072  13.2072  13.2072
    14.1986  14.1986  14.1986  14.1986  15.2240  15.2240  15.2240  15.2240
    15.2241  15.2241  15.2241  15.2241  15.4140  15.4140  15.4140  15.4140
    17.4321  17.4322  17.4322  17.4322  17.6047  17.6047  17.6048  17.6049
    17.6050  17.6050

          k =-0.5000-0.5000-0.2857 ( 57696 PWs)   bands (ev):

   -75.3395 -75.3395 -75.3395 -75.3394 -75.3165 -75.3165 -75.3165 -75.3165
   -75.3118 -75.3118 -75.3118 -75.3118 -75.3116 -75.3115 -75.3115 -75.3115
   -74.7519 -74.7518 -74.7518 -74.7518 -74.7517 -74.7516 -74.7516 -74.7516
   -74.7359 -74.7359 -74.7359 -74.7358 -74.7357 -74.7356 -74.7356 -74.7356
   -41.1654 -41.1654 -41.1654 -41.1654 -41.1653 -41.1653 -41.1653 -41.1653
   -41.1545 -41.1545 -41.1545 -41.1544 -41.1019 -41.1019 -41.1019 -41.1019
   -41.0420 -41.0420 -41.0420 -41.0420 -41.0418 -41.0418 -41.0418 -41.0418
   -40.9995 -40.9995 -40.9995 -40.9995 -40.9980 -40.9980 -40.9980 -40.9980
   -40.9979 -40.9979 -40.9979 -40.9979 -40.9779 -40.9779 -40.9779 -40.9779
   -40.9558 -40.9558 -40.9558 -40.9558 -40.9056 -40.9056 -40.9056 -40.9056
   -40.6262 -40.6262 -40.6262 -40.6262 -40.6260 -40.6260 -40.6260 -40.6260
   -40.5430 -40.5430 -40.5430 -40.5430 -40.5403 -40.5403 -40.5403 -40.5403
   -40.5287 -40.5287 -40.5286 -40.5286 -40.5284 -40.5284 -40.5284 -40.5284
   -40.4401 -40.4401 -40.4401 -40.4401 -40.4398 -40.4398 -40.4398 -40.4398
   -40.3535 -40.3534 -40.3534 -40.3534 -40.3527 -40.3527 -40.3527 -40.3526
   -40.3418 -40.3418 -40.3418 -40.3417 -40.3415 -40.3415 -40.3415 -40.3414
     3.5636   3.5636   3.5636   3.5637   4.1888   4.1888   4.1888   4.1888
     4.5158   4.5159   4.5159   4.5159   4.5161   4.5161   4.5161   4.5161
     4.6257   4.6257   4.6257   4.6257   4.6869   4.6869   4.6869   4.6870
     4.6870   4.6871   4.6871   4.6871   4.7740   4.7740   4.7740   4.7740
     5.0663   5.0663   5.0663   5.0663   5.3807   5.3807   5.3807   5.3807
     5.3812   5.3812   5.3812   5.3812   5.6896   5.6897   5.6897   5.6897
     5.6898   5.6899   5.6899   5.6900   5.8616   5.8616   5.8616   5.8617
     6.0944   6.0944   6.0944   6.0944   6.3524   6.3524   6.3524   6.3524
     6.4647   6.4647   6.4647   6.4648   6.4711   6.4712   6.4712   6.4712
     6.5533   6.5533   6.5533   6.5533   6.6672   6.6672   6.6672   6.6672
     6.6672   6.6673   6.6673   6.6673   6.6936   6.6936   6.6936   6.6936
     7.0099   7.0100   7.0100   7.0100   7.1404   7.1405   7.1405   7.1405
     7.2650   7.2650   7.2650   7.2651   7.2652   7.2653   7.2653   7.2653
     7.2999   7.2999   7.2999   7.2999   7.3001   7.3001   7.3001   7.3001
     7.3135   7.3135   7.3135   7.3135   7.5362   7.5362   7.5362   7.5362
     7.8810   7.8811   7.8811   7.8811   7.8811   7.8811   7.8811   7.8811
     7.8905   7.8905   7.8905   7.8905   8.0090   8.0091   8.0091   8.0091
     8.1417   8.1417   8.1417   8.1417   8.3514   8.3514   8.3514   8.3514
     8.4816   8.4816   8.4816   8.4816   8.4817   8.4817   8.4817   8.4817
     8.7760   8.7760   8.7760   8.7760   8.8261   8.8261   8.8261   8.8261
     8.8261   8.8261   8.8262   8.8262   8.8443   8.8443   8.8443   8.8443
     9.6364   9.6365   9.6365   9.6365  11.9315  11.9315  11.9315  11.9315
    12.0776  12.0776  12.0776  12.0776  12.0776  12.0777  12.0777  12.0777
    13.2066  13.2067  13.2067  13.2067  13.2067  13.2068  13.2068  13.2068
    14.2891  14.2892  14.2892  14.2892  15.2260  15.2260  15.2260  15.2260
    15.2261  15.2261  15.2261  15.2261  15.2963  15.2963  15.2963  15.2963
    17.4325  17.4325  17.4325  17.4325  17.5865  17.5865  17.5865  17.5867
    17.5868  17.5868

     the Fermi energy is     8.8403 ev

!    total energy              =  -16384.05216966 Ry

     total all-electron energy =   -322944.905877 Ry
     estimated scf accuracy    <          9.0E-09 Ry
     smearing contrib. (-TS)   =       0.12010883 Ry
     internal energy E=F+TS    =  -16384.17227850 Ry

     The total energy is F=E-TS. E is the sum of the following terms:
     one-electron contribution =  -18697.97835567 Ry
     hartree contribution      =    9550.48780787 Ry
     xc contribution           =    -985.50346441 Ry
     ewald contribution        =    1916.15847166 Ry
     one-center paw contrib.   =   -8167.33673795 Ry

     convergence has been achieved in  11 iterations

     Forces acting on atoms (cartesian axes, Ry/au):

     atom    1 type  1   force =     0.00000000    0.00000000   -0.00010868
     atom    2 type  1   force =     0.00000447    0.00000447   -0.00011417
     atom    3 type  1   force =     0.00000250    0.00000000    0.00004271
     atom    4 type  1   force =     0.00000000    0.00000250    0.00004271
     atom    5 type  1   force =     0.00000000    0.00000000   -0.00001186
     atom    6 type  1   force =     0.00000470    0.00000470   -0.00000700
     atom    7 type  1   force =     0.00000537    0.00000000    0.00008172
     atom    8 type  1   force =     0.00000000    0.00000537    0.00008172
     atom    9 type  1   force =     0.00000000    0.00000000   -0.00011188
     atom   10 type  1   force =     0.00000447   -0.00000447   -0.00011417
     atom   11 type  1   force =    -0.00000005    0.00000000    0.00003948
     atom   12 type  1   force =     0.00000000   -0.00000250    0.00004271
     atom   13 type  1   force =     0.00000000    0.00000000   -0.00000928
     atom   14 type  1   force =     0.00000470   -0.00000470   -0.00000700
     atom   15 type  1   force =     0.00000358    0.00000000    0.00007723
     atom   16 type  1   force =     0.00000000   -0.00000537    0.00008172
     atom   17 type  1   force =     0.00000000    0.00000000   -0.00011188
     atom   18 type  1   force =    -0.00000447    0.00000447   -0.00011417
     atom   19 type  1   force =    -0.00000250    0.00000000    0.00004271
     atom   20 type  1   force =     0.00000000   -0.00000005    0.00003948
     atom   21 type  1   force =     0.00000000    0.00000000   -0.00000928
     atom   22 type  1   force =    -0.00000470    0.00000470   -0.00000700
     atom   23 type  1   force =    -0.00000537    0.00000000    0.00008172
     atom   24 type  1   force =     0.00000000    0.00000358    0.00007723
     atom   25 type  1   force =     0.00000000    0.00000000   -0.00011194
     atom   26 type  1   force =    -0.00000447   -0.00000447   -0.00011417
     atom   27 type  1   force =     0.00000005    0.00000000    0.00003948
     atom   28 type  1   force =     0.00000000    0.00000005    0.00003948
     atom   29 type  1   force =     0.00000000    0.00000000   -0.00000512
     atom   30 type  1   force =    -0.00000470   -0.00000470   -0.00000700
     atom   31 type  1   force =    -0.00000358    0.00000000    0.00007723
     atom   32 type  1   force =     0.00000000   -0.00000358    0.00007723

     Total force =     0.000408     Total SCF correction =     0.000577
     SCF correction compared to forces is large: reduce conv_thr to get better values


     Computing stress (Cartesian axis) and pressure

          total   stress  (Ry/bohr**3)                   (kbar)     P=      -25.95
  -0.00023600   0.00000000   0.00000000          -34.72        0.00        0.00
   0.00000000  -0.00023600   0.00000000            0.00      -34.72        0.00
   0.00000000   0.00000000  -0.00005727            0.00        0.00       -8.43

     Energy error            =      5.2E-05
     Gradient error          =      1.1E-04

     bfgs converged in   9 scf cycles and   8 bfgs steps
     (criteria: energy <  1.0E-04 Ry, force <  1.0E-03 Ry/Bohr)

     End of BFGS Geometry Optimization

     Final energy   =  -16384.0521696646 Ry

     File /scratch/vzRwBdzYGStYciNb.bfgs deleted, as requested
Begin final coordinates

ATOMIC_POSITIONS (crystal)
Pd            0.0000000000        0.0000000000       -0.0000945198
Pd            0.2499979494        0.2499979494       -0.0000929948
Pd            0.2499980297        0.0000000000        0.1411964745
Pd            0.0000000000        0.2499980297        0.1411964745
Pd            0.0000000000        0.0000000000        0.7159362115
Pd            0.2499971284        0.2499971284        0.7159361216
Pd            0.2499981778        0.0000000000        0.8572455043
Pd           -0.0000000000        0.2499981778        0.8572455043
Pd            0.0000000000        0.5000000000       -0.0000933082
Pd            0.2499979494        0.7500020506       -0.0000929948
Pd            0.2499993803        0.5000000000        0.1411967799
Pd            0.0000000000        0.7500019703        0.1411964745
Pd            0.0000000000        0.5000000000        0.7159371159
Pd            0.2499971284        0.7500028716        0.7159361216
Pd            0.2499985582        0.5000000000        0.8572463594
Pd            0.0000000000        0.7500018222        0.8572455043
Pd            0.5000000000        0.0000000000       -0.0000933082
Pd            0.7500020506        0.2499979494       -0.0000929948
Pd            0.7500019703        0.0000000000        0.1411964745
Pd            0.5000000000        0.2499993803        0.1411967799
Pd            0.5000000000        0.0000000000        0.7159371159
Pd            0.7500028716        0.2499971284        0.7159361216
Pd            0.7500018222       -0.0000000000        0.8572455043
Pd            0.5000000000        0.2499985582        0.8572463594
Pd            0.5000000000        0.5000000000       -0.0000934736
Pd            0.7500020506        0.7500020506       -0.0000929948
Pd            0.7500006197        0.5000000000        0.1411967799
Pd            0.5000000000        0.7500006197        0.1411967799
Pd            0.5000000000        0.5000000000        0.7159369013
Pd            0.7500028716        0.7500028716        0.7159361216
Pd            0.7500014418        0.5000000000        0.8572463594
Pd            0.5000000000        0.7500014418        0.8572463594
End final coordinates



     Writing output data file /scratch/vzRwBdzYGStYciNb.save/
 
     init_run     :     29.99s CPU     30.69s WALL (       1 calls)
     electrons    :  11945.46s CPU  12091.24s WALL (       9 calls)
     update_pot   :      3.01s CPU      3.10s WALL (       8 calls)
     forces       :    151.70s CPU    153.09s WALL (       9 calls)
     stress       :   1547.38s CPU   1557.73s WALL (       9 calls)

     Called by init_run:
     wfcinit      :     28.77s CPU     29.39s WALL (       1 calls)
     potinit      :      0.18s CPU      0.20s WALL (       1 calls)
     hinit0       :      0.59s CPU      0.59s WALL (       1 calls)

     Called by electrons:
     c_bands      :  10658.16s CPU  10781.59s WALL (     123 calls)
     sum_band     :   1268.72s CPU   1287.20s WALL (     123 calls)
     v_of_rho     :      2.76s CPU      2.99s WALL (     124 calls)
     newd         :      5.01s CPU      7.23s WALL (     124 calls)
     PAW_pot      :     11.21s CPU     11.93s WALL (     132 calls)
     mix_rho      :      0.78s CPU      0.94s WALL (     123 calls)

     Called by c_bands:
     init_us_2    :     80.50s CPU     81.33s WALL (   20475 calls)
     cegterg      :  10383.36s CPU  10482.61s WALL (    9225 calls)

     Called by *egterg:
     cdiaghg      :    893.29s CPU    898.12s WALL (   31318 calls)
     h_psi        :   4944.66s CPU   5008.02s WALL (   32593 calls)
     s_psi        :    581.30s CPU    584.84s WALL (   32593 calls)
     g_psi        :     20.32s CPU     20.64s WALL (   23293 calls)

     Called by h_psi:
     h_psi:calbec :    891.82s CPU    897.60s WALL (   32593 calls)
     vloc_psi     :   3433.83s CPU   3485.37s WALL (   32593 calls)
     add_vuspsi   :    573.67s CPU    578.67s WALL (   32593 calls)

     General routines
     calbec       :   1523.72s CPU   1533.32s WALL (   45793 calls)
     fft          :      3.53s CPU      3.70s WALL (    1835 calls)
     ffts         :      0.19s CPU      0.23s WALL (     247 calls)
     fftw         :   4052.32s CPU   4112.73s WALL (17568370 calls)
     interpolate  :      0.33s CPU      0.44s WALL (     124 calls)
 
     Parallel routines
     fft_scatt_xy :    305.76s CPU    310.48s WALL (17570452 calls)
     fft_scatt_yz :   3189.13s CPU   3236.97s WALL (17570452 calls)
 
     PWSCF        :      3h48m CPU      3h51m WALL

 
   This run was terminated on:   0:32:46   9Jan2022            

=------------------------------------------------------------------------------=
   JOB DONE.
=------------------------------------------------------------------------------=
