
     Program PWSCF v.6.7MaX starts on  7Jan2022 at 23: 7:24 

     This program is part of the open-source Quantum ESPRESSO suite
     for quantum simulation of materials; please cite
         "P. Giannozzi et al., J. Phys.:Condens. Matter 21 395502 (2009);
         "P. Giannozzi et al., J. Phys.:Condens. Matter 29 465901 (2017);
          URL http://www.quantum-espresso.org", 
     in publications or presentations arising from this work. More details at
     http://www.quantum-espresso.org/quote

     Parallel version (MPI & OpenMP), running on      72 processor cores
     Number of MPI processes:                72
     Threads/MPI process:                     1

     MPI processes distributed on     1 nodes
     R & G space division:  proc/nbgrp/npool/nimage =      72
     Reading input from relax_22.in
Warning: card &CELL ignored
Warning: card CELL_DYNAMICS = 'BFGS', ignored
Warning: card CELL_FACTOR = 2.0, ignored
Warning: card PRESS = 0.0, ignored
Warning: card / ignored

     Current dimensions of program PWSCF are:
     Max number of different atomic species (ntypx) = 10
     Max number of k-points (npk) =  40000
     Max angular momentum in pseudopotentials (lmaxx) =  3
     file Pd.pbe-spn-kjpaw_psl.1.0.0.UPF: wavefunction(s)  4S 5S 4D renormalized

     Subspace diagonalization in iterative solution of the eigenvalue problem:
     one sub-group per band group will be used
     ELPA distributed-memory algorithm (size of sub-group:  8*  8 procs)

     Found symmetry operation: I + (  0.2500  0.2500  0.0000)
     This is a supercell, fractional translations are disabled
     Message from routine setup:
     using ibrav=0 with symmetry is DISCOURAGED, use correct ibrav instead
 
     Parallelization info
     --------------------
     sticks:   dense  smooth     PW     G-vecs:    dense   smooth      PW
     Min         104      68     18                11314     6064     846
     Max         105      69     19                11325     6077     857
     Sum        7521    4957   1353               815027   437303   61301
 


     bravais-lattice index     =            0
     lattice parameter (alat)  =      14.8394  a.u.
     unit-cell volume          =    5412.2353 (a.u.)^3
     number of atoms/cell      =           32
     number of atomic types    =            1
     number of electrons       =       576.00
     number of Kohn-Sham states=          346
     kinetic-energy cutoff     =      71.0000  Ry
     charge density cutoff     =     430.0000  Ry
     scf convergence threshold =      1.0E-06
     mixing beta               =       0.1000
     number of iterations used =           10  TF        mixing
     energy convergence thresh.=      1.0E-04
     force convergence thresh. =      1.0E-03
     Exchange-correlation= SLA  PW   PBX  PBC
                           (   1   4   3   4   0   0   0)
     nstep                     =           40


     celldm(1)=  14.839420  celldm(2)=   0.000000  celldm(3)=   0.000000
     celldm(4)=   0.000000  celldm(5)=   0.000000  celldm(6)=   0.000000

     crystal axes: (cart. coord. in units of alat)
               a(1) = (   1.000000   0.000000   0.000000 )  
               a(2) = (   0.000000   1.000000   0.000000 )  
               a(3) = (   0.000000   0.000000   1.656250 )  

     reciprocal axes: (cart. coord. in units 2 pi/alat)
               b(1) = (  1.000000  0.000000  0.000000 )  
               b(2) = (  0.000000  1.000000  0.000000 )  
               b(3) = (  0.000000  0.000000  0.603774 )  


     PseudoPot. # 1 for Pd read from file:
     /rds/homes/b/bxp912/pp/Pd.pbe-spn-kjpaw_psl.1.0.0.UPF
     MD5 check sum: 790f2ebce206edfd9790dcb9844eca51
     Pseudo is Projector augmented-wave + core cor, Zval = 18.0
     Generated using &quot;atomic&quot; code by A. Dal Corso  v.6.3
     Shape of augmentation charge: PSQ
     Using radial grid of 1235 points,  6 beta functions with: 
                l(1) =   0
                l(2) =   0
                l(3) =   1
                l(4) =   1
                l(5) =   2
                l(6) =   2
     Q(r) pseudized with 0 coefficients 


     atomic species   valence    mass     pseudopotential
        Pd            18.00   106.42000     Pd( 1.00)

      8 Sym. Ops. (no inversion) found



   Cartesian axes

     site n.     atom                  positions (alat units)
         1           Pd  tau(   1) = (   0.0000000   0.0000000   0.0000000  )
         2           Pd  tau(   2) = (   0.2500000   0.2500000   0.0000000  )
         3           Pd  tau(   3) = (   0.2500000   0.0000000   0.2500000  )
         4           Pd  tau(   4) = (   0.0000000   0.2500000   0.2500000  )
         5           Pd  tau(   5) = (   0.0000000   0.0000000   1.1562500  )
         6           Pd  tau(   6) = (   0.2500000   0.2500000   1.1562500  )
         7           Pd  tau(   7) = (   0.2500000   0.0000000   1.4062500  )
         8           Pd  tau(   8) = (   0.0000000   0.2500000   1.4062500  )
         9           Pd  tau(   9) = (   0.0000000   0.5000000   0.0000000  )
        10           Pd  tau(  10) = (   0.2500000   0.7500000   0.0000000  )
        11           Pd  tau(  11) = (   0.2500000   0.5000000   0.2500000  )
        12           Pd  tau(  12) = (   0.0000000   0.7500000   0.2500000  )
        13           Pd  tau(  13) = (   0.0000000   0.5000000   1.1562500  )
        14           Pd  tau(  14) = (   0.2500000   0.7500000   1.1562500  )
        15           Pd  tau(  15) = (   0.2500000   0.5000000   1.4062500  )
        16           Pd  tau(  16) = (   0.0000000   0.7500000   1.4062500  )
        17           Pd  tau(  17) = (   0.5000000   0.0000000   0.0000000  )
        18           Pd  tau(  18) = (   0.7500000   0.2500000   0.0000000  )
        19           Pd  tau(  19) = (   0.7500000   0.0000000   0.2500000  )
        20           Pd  tau(  20) = (   0.5000000   0.2500000   0.2500000  )
        21           Pd  tau(  21) = (   0.5000000   0.0000000   1.1562500  )
        22           Pd  tau(  22) = (   0.7500000   0.2500000   1.1562500  )
        23           Pd  tau(  23) = (   0.7500000   0.0000000   1.4062500  )
        24           Pd  tau(  24) = (   0.5000000   0.2500000   1.4062500  )
        25           Pd  tau(  25) = (   0.5000000   0.5000000   0.0000000  )
        26           Pd  tau(  26) = (   0.7500000   0.7500000   0.0000000  )
        27           Pd  tau(  27) = (   0.7500000   0.5000000   0.2500000  )
        28           Pd  tau(  28) = (   0.5000000   0.7500000   0.2500000  )
        29           Pd  tau(  29) = (   0.5000000   0.5000000   1.1562500  )
        30           Pd  tau(  30) = (   0.7500000   0.7500000   1.1562500  )
        31           Pd  tau(  31) = (   0.7500000   0.5000000   1.4062500  )
        32           Pd  tau(  32) = (   0.5000000   0.7500000   1.4062500  )

     number of k points=    75  Marzari-Vanderbilt smearing, width (Ry)=  0.0400
                       cart. coord. in units 2pi/alat
        k(    1) = (   0.0555556   0.0555556   0.0335430), wk =   0.0219479
        k(    2) = (   0.0555556   0.0555556   0.1006289), wk =   0.0219479
        k(    3) = (   0.0555556   0.0555556   0.1677149), wk =   0.0219479
        k(    4) = (   0.0555556   0.0555556   0.2348008), wk =   0.0219479
        k(    5) = (   0.0555556   0.0555556  -0.3018868), wk =   0.0109739
        k(    6) = (   0.0555556   0.1666667   0.0335430), wk =   0.0438957
        k(    7) = (   0.0555556   0.1666667   0.1006289), wk =   0.0438957
        k(    8) = (   0.0555556   0.1666667   0.1677149), wk =   0.0438957
        k(    9) = (   0.0555556   0.1666667   0.2348008), wk =   0.0438957
        k(   10) = (   0.0555556   0.1666667  -0.3018868), wk =   0.0219479
        k(   11) = (   0.0555556   0.2777778   0.0335430), wk =   0.0438957
        k(   12) = (   0.0555556   0.2777778   0.1006289), wk =   0.0438957
        k(   13) = (   0.0555556   0.2777778   0.1677149), wk =   0.0438957
        k(   14) = (   0.0555556   0.2777778   0.2348008), wk =   0.0438957
        k(   15) = (   0.0555556   0.2777778  -0.3018868), wk =   0.0219479
        k(   16) = (   0.0555556   0.3888889   0.0335430), wk =   0.0438957
        k(   17) = (   0.0555556   0.3888889   0.1006289), wk =   0.0438957
        k(   18) = (   0.0555556   0.3888889   0.1677149), wk =   0.0438957
        k(   19) = (   0.0555556   0.3888889   0.2348008), wk =   0.0438957
        k(   20) = (   0.0555556   0.3888889  -0.3018868), wk =   0.0219479
        k(   21) = (   0.0555556  -0.5000000   0.0335430), wk =   0.0219479
        k(   22) = (   0.0555556  -0.5000000   0.1006289), wk =   0.0219479
        k(   23) = (   0.0555556  -0.5000000   0.1677149), wk =   0.0219479
        k(   24) = (   0.0555556  -0.5000000   0.2348008), wk =   0.0219479
        k(   25) = (   0.0555556  -0.5000000  -0.3018868), wk =   0.0109739
        k(   26) = (   0.1666667   0.1666667   0.0335430), wk =   0.0219479
        k(   27) = (   0.1666667   0.1666667   0.1006289), wk =   0.0219479
        k(   28) = (   0.1666667   0.1666667   0.1677149), wk =   0.0219479
        k(   29) = (   0.1666667   0.1666667   0.2348008), wk =   0.0219479
        k(   30) = (   0.1666667   0.1666667  -0.3018868), wk =   0.0109739
        k(   31) = (   0.1666667   0.2777778   0.0335430), wk =   0.0438957
        k(   32) = (   0.1666667   0.2777778   0.1006289), wk =   0.0438957
        k(   33) = (   0.1666667   0.2777778   0.1677149), wk =   0.0438957
        k(   34) = (   0.1666667   0.2777778   0.2348008), wk =   0.0438957
        k(   35) = (   0.1666667   0.2777778  -0.3018868), wk =   0.0219479
        k(   36) = (   0.1666667   0.3888889   0.0335430), wk =   0.0438957
        k(   37) = (   0.1666667   0.3888889   0.1006289), wk =   0.0438957
        k(   38) = (   0.1666667   0.3888889   0.1677149), wk =   0.0438957
        k(   39) = (   0.1666667   0.3888889   0.2348008), wk =   0.0438957
        k(   40) = (   0.1666667   0.3888889  -0.3018868), wk =   0.0219479
        k(   41) = (   0.1666667  -0.5000000   0.0335430), wk =   0.0219479
        k(   42) = (   0.1666667  -0.5000000   0.1006289), wk =   0.0219479
        k(   43) = (   0.1666667  -0.5000000   0.1677149), wk =   0.0219479
        k(   44) = (   0.1666667  -0.5000000   0.2348008), wk =   0.0219479
        k(   45) = (   0.1666667  -0.5000000  -0.3018868), wk =   0.0109739
        k(   46) = (   0.2777778   0.2777778   0.0335430), wk =   0.0219479
        k(   47) = (   0.2777778   0.2777778   0.1006289), wk =   0.0219479
        k(   48) = (   0.2777778   0.2777778   0.1677149), wk =   0.0219479
        k(   49) = (   0.2777778   0.2777778   0.2348008), wk =   0.0219479
        k(   50) = (   0.2777778   0.2777778  -0.3018868), wk =   0.0109739
        k(   51) = (   0.2777778   0.3888889   0.0335430), wk =   0.0438957
        k(   52) = (   0.2777778   0.3888889   0.1006289), wk =   0.0438957
        k(   53) = (   0.2777778   0.3888889   0.1677149), wk =   0.0438957
        k(   54) = (   0.2777778   0.3888889   0.2348008), wk =   0.0438957
        k(   55) = (   0.2777778   0.3888889  -0.3018868), wk =   0.0219479
        k(   56) = (   0.2777778  -0.5000000   0.0335430), wk =   0.0219479
        k(   57) = (   0.2777778  -0.5000000   0.1006289), wk =   0.0219479
        k(   58) = (   0.2777778  -0.5000000   0.1677149), wk =   0.0219479
        k(   59) = (   0.2777778  -0.5000000   0.2348008), wk =   0.0219479
        k(   60) = (   0.2777778  -0.5000000  -0.3018868), wk =   0.0109739
        k(   61) = (   0.3888889   0.3888889   0.0335430), wk =   0.0219479
        k(   62) = (   0.3888889   0.3888889   0.1006289), wk =   0.0219479
        k(   63) = (   0.3888889   0.3888889   0.1677149), wk =   0.0219479
        k(   64) = (   0.3888889   0.3888889   0.2348008), wk =   0.0219479
        k(   65) = (   0.3888889   0.3888889  -0.3018868), wk =   0.0109739
        k(   66) = (   0.3888889  -0.5000000   0.0335430), wk =   0.0219479
        k(   67) = (   0.3888889  -0.5000000   0.1006289), wk =   0.0219479
        k(   68) = (   0.3888889  -0.5000000   0.1677149), wk =   0.0219479
        k(   69) = (   0.3888889  -0.5000000   0.2348008), wk =   0.0219479
        k(   70) = (   0.3888889  -0.5000000  -0.3018868), wk =   0.0109739
        k(   71) = (  -0.5000000  -0.5000000   0.0335430), wk =   0.0054870
        k(   72) = (  -0.5000000  -0.5000000   0.1006289), wk =   0.0054870
        k(   73) = (  -0.5000000  -0.5000000   0.1677149), wk =   0.0054870
        k(   74) = (  -0.5000000  -0.5000000   0.2348008), wk =   0.0054870
        k(   75) = (  -0.5000000  -0.5000000  -0.3018868), wk =   0.0027435

     Dense  grid:   815027 G-vectors     FFT dimensions: ( 100, 100, 180)

     Smooth grid:   437303 G-vectors     FFT dimensions: (  80,  80, 135)

     Estimated max dynamical RAM per process >     368.87 MB

     Estimated total dynamical RAM >      25.94 GB

     Check: negative core charge=   -0.000001

     Initial potential from superposition of free atoms

     starting charge  575.98776, renormalised to  576.00000
     Starting wfcs are  320 randomized atomic wfcs +   26 random wfcs
     Checking if some PAW data can be deallocated... 

     total cpu time spent up to now is       29.4 secs

     Self-consistent Calculation

     iteration #  1     ecut=    71.00 Ry     beta= 0.10
     Davidson diagonalization with overlap
     ethr =  1.00E-02,  avg # of iterations =  4.1

     Threshold (ethr) on eigenvalues was too large:
     Diagonalizing with lowered threshold

     Davidson diagonalization with overlap
     ethr =  7.48E-04,  avg # of iterations =  1.2

     total cpu time spent up to now is      212.0 secs

     total energy              =  -16384.82384731 Ry
     estimated scf accuracy    <       4.29993834 Ry

     iteration #  2     ecut=    71.00 Ry     beta= 0.10
     Davidson diagonalization with overlap
     ethr =  7.47E-04,  avg # of iterations =  1.2

     total cpu time spent up to now is      288.2 secs

     total energy              =  -16384.35224704 Ry
     estimated scf accuracy    <       3.87949746 Ry

     iteration #  3     ecut=    71.00 Ry     beta= 0.10
     Davidson diagonalization with overlap
     ethr =  6.74E-04,  avg # of iterations =  2.3

     total cpu time spent up to now is      369.8 secs

     total energy              =  -16384.17683638 Ry
     estimated scf accuracy    <       2.61206308 Ry

     iteration #  4     ecut=    71.00 Ry     beta= 0.10
     Davidson diagonalization with overlap
     ethr =  4.53E-04,  avg # of iterations =  4.8

     total cpu time spent up to now is      462.3 secs

     total energy              =  -16384.33076167 Ry
     estimated scf accuracy    <       0.81826831 Ry

     iteration #  5     ecut=    71.00 Ry     beta= 0.10
     Davidson diagonalization with overlap
     ethr =  1.42E-04,  avg # of iterations =  3.7

     total cpu time spent up to now is      550.8 secs

     total energy              =  -16384.06642142 Ry
     estimated scf accuracy    <       1.04142015 Ry

     iteration #  6     ecut=    71.00 Ry     beta= 0.10
     Davidson diagonalization with overlap
     ethr =  1.42E-04,  avg # of iterations =  5.8

     total cpu time spent up to now is      647.4 secs

     total energy              =  -16384.10227195 Ry
     estimated scf accuracy    <       0.30829729 Ry

     iteration #  7     ecut=    71.00 Ry     beta= 0.10
     Davidson diagonalization with overlap
     ethr =  5.35E-05,  avg # of iterations =  4.2

     total cpu time spent up to now is      739.4 secs

     total energy              =  -16384.07718054 Ry
     estimated scf accuracy    <       0.22990157 Ry

     iteration #  8     ecut=    71.00 Ry     beta= 0.10
     Davidson diagonalization with overlap
     ethr =  3.99E-05,  avg # of iterations =  5.2

     total cpu time spent up to now is      833.7 secs

     total energy              =  -16384.05699310 Ry
     estimated scf accuracy    <       0.15419160 Ry

     iteration #  9     ecut=    71.00 Ry     beta= 0.10
     Davidson diagonalization with overlap
     ethr =  2.68E-05,  avg # of iterations =  4.6

     total cpu time spent up to now is      926.9 secs

     total energy              =  -16384.05079356 Ry
     estimated scf accuracy    <       0.11225971 Ry

     iteration # 10     ecut=    71.00 Ry     beta= 0.10
     Davidson diagonalization with overlap
     ethr =  1.95E-05,  avg # of iterations =  4.1

     total cpu time spent up to now is     1018.4 secs

     total energy              =  -16384.03283102 Ry
     estimated scf accuracy    <       0.09690310 Ry

     iteration # 11     ecut=    71.00 Ry     beta= 0.10
     Davidson diagonalization with overlap
     ethr =  1.68E-05,  avg # of iterations =  5.3

     total cpu time spent up to now is     1114.8 secs

     total energy              =  -16384.02841242 Ry
     estimated scf accuracy    <       0.07220044 Ry

     iteration # 12     ecut=    71.00 Ry     beta= 0.10
     Davidson diagonalization with overlap
     ethr =  1.25E-05,  avg # of iterations =  4.1

     negative rho (up, down):  4.445E-04 0.000E+00

     total cpu time spent up to now is     1207.2 secs

     total energy              =  -16384.02493261 Ry
     estimated scf accuracy    <       0.05874914 Ry

     iteration # 13     ecut=    71.00 Ry     beta= 0.10
     Davidson diagonalization with overlap
     ethr =  1.02E-05,  avg # of iterations =  5.1

     negative rho (up, down):  1.769E-03 0.000E+00

     total cpu time spent up to now is     1302.5 secs

     total energy              =  -16384.03056724 Ry
     estimated scf accuracy    <       0.02901578 Ry

     iteration # 14     ecut=    71.00 Ry     beta= 0.10
     Davidson diagonalization with overlap
     ethr =  5.04E-06,  avg # of iterations =  2.2

     negative rho (up, down):  8.779E-03 0.000E+00

     total cpu time spent up to now is     1390.5 secs

     total energy              =  -16384.03085550 Ry
     estimated scf accuracy    <       0.02494632 Ry

     iteration # 15     ecut=    71.00 Ry     beta= 0.10
     Davidson diagonalization with overlap
     ethr =  4.33E-06,  avg # of iterations =  3.8

     negative rho (up, down):  2.216E-03 0.000E+00

     total cpu time spent up to now is     1488.1 secs

     total energy              =  -16384.03774499 Ry
     estimated scf accuracy    <       0.00801962 Ry

     iteration # 16     ecut=    71.00 Ry     beta= 0.10
     Davidson diagonalization with overlap
     ethr =  1.39E-06,  avg # of iterations =  3.5

     negative rho (up, down):  8.022E-04 0.000E+00

     total cpu time spent up to now is     1580.6 secs

     total energy              =  -16384.04175025 Ry
     estimated scf accuracy    <       0.00523130 Ry

     iteration # 17     ecut=    71.00 Ry     beta= 0.10
     Davidson diagonalization with overlap
     ethr =  9.08E-07,  avg # of iterations =  4.2

     total cpu time spent up to now is     1674.3 secs

     total energy              =  -16384.04729292 Ry
     estimated scf accuracy    <       0.00273523 Ry

     iteration # 18     ecut=    71.00 Ry     beta= 0.10
     Davidson diagonalization with overlap
     ethr =  4.75E-07,  avg # of iterations =  6.1

     total cpu time spent up to now is     1781.8 secs

     total energy              =  -16384.04816072 Ry
     estimated scf accuracy    <       0.00059738 Ry

     iteration # 19     ecut=    71.00 Ry     beta= 0.10
     Davidson diagonalization with overlap
     ethr =  1.04E-07,  avg # of iterations =  2.0

     total cpu time spent up to now is     1867.8 secs

     total energy              =  -16384.04941276 Ry
     estimated scf accuracy    <       0.00046469 Ry

     iteration # 20     ecut=    71.00 Ry     beta= 0.10
     Davidson diagonalization with overlap
     ethr =  8.07E-08,  avg # of iterations =  4.1

     total cpu time spent up to now is     1963.1 secs

     total energy              =  -16384.05029317 Ry
     estimated scf accuracy    <       0.00020562 Ry

     iteration # 21     ecut=    71.00 Ry     beta= 0.10
     Davidson diagonalization with overlap
     ethr =  3.57E-08,  avg # of iterations =  4.0

     total cpu time spent up to now is     2060.2 secs

     total energy              =  -16384.05082451 Ry
     estimated scf accuracy    <       0.00009365 Ry

     iteration # 22     ecut=    71.00 Ry     beta= 0.10
     Davidson diagonalization with overlap
     ethr =  1.63E-08,  avg # of iterations =  4.7

     total cpu time spent up to now is     2160.3 secs

     total energy              =  -16384.05095332 Ry
     estimated scf accuracy    <       0.00003651 Ry

     iteration # 23     ecut=    71.00 Ry     beta= 0.10
     Davidson diagonalization with overlap
     ethr =  6.34E-09,  avg # of iterations =  2.0

     total cpu time spent up to now is     2248.6 secs

     total energy              =  -16384.05101468 Ry
     estimated scf accuracy    <       0.00001948 Ry

     iteration # 24     ecut=    71.00 Ry     beta= 0.10
     Davidson diagonalization with overlap
     ethr =  3.38E-09,  avg # of iterations =  2.0

     total cpu time spent up to now is     2336.8 secs

     total energy              =  -16384.05104259 Ry
     estimated scf accuracy    <       0.00000885 Ry

     iteration # 25     ecut=    71.00 Ry     beta= 0.10
     Davidson diagonalization with overlap
     ethr =  1.54E-09,  avg # of iterations =  2.0

     total cpu time spent up to now is     2425.7 secs

     total energy              =  -16384.05104838 Ry
     estimated scf accuracy    <       0.00000431 Ry

     iteration # 26     ecut=    71.00 Ry     beta= 0.10
     Davidson diagonalization with overlap
     ethr =  7.48E-10,  avg # of iterations =  2.0

     total cpu time spent up to now is     2512.1 secs

     total energy              =  -16384.05105559 Ry
     estimated scf accuracy    <       0.00000356 Ry

     iteration # 27     ecut=    71.00 Ry     beta= 0.10
     Davidson diagonalization with overlap
     ethr =  6.18E-10,  avg # of iterations =  2.0

     total cpu time spent up to now is     2601.3 secs

     total energy              =  -16384.05106117 Ry
     estimated scf accuracy    <       0.00000196 Ry

     iteration # 28     ecut=    71.00 Ry     beta= 0.10
     Davidson diagonalization with overlap
     ethr =  3.41E-10,  avg # of iterations =  2.0

     total cpu time spent up to now is     2697.9 secs

     End of self-consistent calculation

          k = 0.0556 0.0556 0.0335 ( 54670 PWs)   bands (ev):

   -74.5515 -74.5293 -74.5293 -74.5251 -74.5251 -74.5205 -74.5195 -74.5189
   -74.5189 -74.5177 -74.5119 -74.5119 -74.5105 -74.5104 -74.5032 -74.5032
   -73.9596 -73.9595 -73.9451 -73.9451 -73.9451 -73.9451 -73.9439 -73.9439
   -73.9437 -73.9436 -73.9423 -73.9423 -73.9423 -73.9423 -73.9278 -73.9277
   -40.3860 -40.3860 -40.3856 -40.3847 -40.3722 -40.3722 -40.3654 -40.3312
   -40.3312 -40.3283 -40.3282 -40.2911 -40.2911 -40.2800 -40.2800 -40.2708
   -40.2708 -40.2677 -40.2677 -40.2587 -40.2587 -40.2299 -40.2299 -40.2232
   -40.2231 -40.2231 -40.2186 -40.2186 -40.2134 -40.2088 -40.2088 -40.1951
   -40.1919 -40.1919 -40.1774 -40.1774 -40.1745 -40.1735 -40.1634 -40.1634
   -40.1582 -40.1582 -40.1246 -40.1227 -40.1227 -40.1184 -40.1063 -40.1048
   -39.8337 -39.8337 -39.8329 -39.8320 -39.8219 -39.8219 -39.8199 -39.8199
   -39.7514 -39.7514 -39.7513 -39.7513 -39.7364 -39.7364 -39.7362 -39.7362
   -39.7341 -39.7341 -39.7337 -39.7337 -39.7189 -39.7189 -39.7187 -39.7187
   -39.6483 -39.6480 -39.6467 -39.6464 -39.6347 -39.6347 -39.6334 -39.6334
   -39.5629 -39.5597 -39.5483 -39.5483 -39.5478 -39.5478 -39.5469 -39.5465
   -39.5465 -39.5465 -39.5461 -39.5461 -39.5457 -39.5457 -39.5359 -39.5359
     3.2635   4.5521   4.7929   4.7929   4.8593   4.8655   4.8717   4.8717
     4.9307   4.9434   5.0675   5.0675   5.1564   5.1564   5.3398   5.3398
     5.4055   5.6074   5.7290   5.7290   5.7581   5.7581   5.7879   5.7879
     5.8085   5.8085   5.8774   5.8806   5.8806   5.8828   5.8953   5.8953
     6.0212   6.0212   6.0888   6.0888   6.1251   6.1251   6.2011   6.2011
     6.2134   6.2134   6.2759   6.2759   6.3379   6.3974   6.3974   6.4157
     6.4157   6.5592   6.5592   6.6252   6.6730   6.6731   6.7228   6.7228
     6.7350   6.7435   6.7435   6.7543   6.9300   6.9300   6.9333   6.9333
     6.9464   6.9567   7.0941   7.0941   7.1056   7.1077   7.1150   7.1150
     7.1476   7.1569   7.2177   7.2177   7.2526   7.2526   7.6027   7.6028
     7.6564   7.6645   7.6672   7.6672   7.6867   7.6867   7.7111   7.7111
     7.8327   7.8327   7.8671   7.8671   7.8802   7.8802   7.8869   7.9035
     7.9317   7.9317   7.9589   7.9589   7.9899   8.0048   8.0346   8.0579
     8.0580   8.1655   8.1655   8.1825   8.1825   8.2605   8.2884   8.2884
     8.3187   8.3187   8.3291   8.3291   8.4566   8.4566   8.5113   8.5113
     8.5123   8.5123   8.5457   8.6951   8.6952   8.7206   8.7632   8.7632
     8.8830   8.8830   8.8960   8.8960   8.8961   8.9157   8.9157   8.9251
     9.0124   9.0344   9.0368   9.0368   9.0380   9.1164   9.1470   9.1658
     9.1658   9.1920   9.1920   9.2009   9.2009   9.3608   9.3609   9.4344
     9.4375   9.4375   9.4387   9.4920   9.5709   9.5875   9.5875   9.5943
     9.5943   9.6460   9.6907   9.7975   9.7975  10.1266  10.1266  10.2020
    10.2020  10.5629  10.5629  10.9459  11.0524  11.2591  11.4737  11.4737
    11.7680  11.8333  11.8333  11.8902  11.8902  12.1908  12.3865  12.3865
    12.3896  13.9807  13.9807  14.2253  14.2253  14.7958  14.7970  14.7970
    14.8532  14.8532  14.9691  15.6167  15.6167  15.6969  16.1822  16.1822
    16.2867  16.2867  17.7635  18.0251  18.0251  18.2069  18.4053  18.5343
    18.5343  18.6438  18.6590  18.6590  18.7177  18.7178  18.7889  18.7889
    19.2301  19.2742

          k = 0.0556 0.0556 0.1006 ( 54664 PWs)   bands (ev):

   -74.5515 -74.5293 -74.5293 -74.5251 -74.5251 -74.5205 -74.5195 -74.5189
   -74.5189 -74.5177 -74.5119 -74.5119 -74.5105 -74.5104 -74.5032 -74.5032
   -73.9596 -73.9595 -73.9451 -73.9451 -73.9451 -73.9451 -73.9439 -73.9439
   -73.9437 -73.9436 -73.9423 -73.9423 -73.9423 -73.9423 -73.9278 -73.9277
   -40.3860 -40.3860 -40.3856 -40.3847 -40.3722 -40.3722 -40.3654 -40.3312
   -40.3312 -40.3282 -40.3282 -40.2911 -40.2911 -40.2800 -40.2800 -40.2708
   -40.2708 -40.2676 -40.2676 -40.2587 -40.2587 -40.2298 -40.2298 -40.2232
   -40.2231 -40.2231 -40.2186 -40.2186 -40.2134 -40.2088 -40.2088 -40.1950
   -40.1919 -40.1919 -40.1774 -40.1774 -40.1745 -40.1736 -40.1634 -40.1634
   -40.1582 -40.1582 -40.1245 -40.1227 -40.1227 -40.1184 -40.1063 -40.1047
   -39.8337 -39.8337 -39.8329 -39.8320 -39.8219 -39.8219 -39.8199 -39.8199
   -39.7514 -39.7514 -39.7513 -39.7513 -39.7364 -39.7364 -39.7362 -39.7362
   -39.7341 -39.7341 -39.7337 -39.7337 -39.7189 -39.7189 -39.7187 -39.7187
   -39.6483 -39.6479 -39.6467 -39.6464 -39.6348 -39.6347 -39.6334 -39.6334
   -39.5629 -39.5596 -39.5483 -39.5483 -39.5478 -39.5478 -39.5469 -39.5466
   -39.5466 -39.5465 -39.5461 -39.5461 -39.5458 -39.5458 -39.5359 -39.5358
     3.2635   4.5520   4.7929   4.7930   4.8594   4.8655   4.8717   4.8717
     4.9307   4.9432   5.0675   5.0675   5.1564   5.1564   5.3398   5.3398
     5.4056   5.6074   5.7290   5.7290   5.7581   5.7581   5.7879   5.7879
     5.8085   5.8085   5.8774   5.8806   5.8806   5.8828   5.8952   5.8952
     6.0212   6.0212   6.0888   6.0888   6.1250   6.1251   6.2011   6.2011
     6.2134   6.2134   6.2759   6.2759   6.3380   6.3974   6.3974   6.4157
     6.4157   6.5592   6.5592   6.6252   6.6730   6.6730   6.7228   6.7228
     6.7349   6.7435   6.7435   6.7543   6.9299   6.9299   6.9333   6.9333
     6.9464   6.9566   7.0939   7.0939   7.1056   7.1077   7.1150   7.1150
     7.1476   7.1570   7.2178   7.2178   7.2527   7.2527   7.6029   7.6029
     7.6566   7.6648   7.6672   7.6672   7.6867   7.6867   7.7111   7.7111
     7.8322   7.8322   7.8671   7.8671   7.8802   7.8802   7.8869   7.9035
     7.9313   7.9313   7.9589   7.9589   7.9900   8.0027   8.0346   8.0581
     8.0581   8.1655   8.1655   8.1828   8.1828   8.2607   8.2883   8.2883
     8.3192   8.3192   8.3292   8.3292   8.4566   8.4566   8.5109   8.5109
     8.5119   8.5119   8.5457   8.6951   8.6951   8.7308   8.7632   8.7632
     8.8828   8.8829   8.8960   8.8960   8.8961   8.9157   8.9157   8.9251
     9.0120   9.0345   9.0375   9.0383   9.0383   9.1164   9.1463   9.1655
     9.1655   9.1920   9.1920   9.2024   9.2024   9.3608   9.3609   9.4344
     9.4375   9.4375   9.4387   9.4921   9.5709   9.5875   9.5875   9.5943
     9.5943   9.6468   9.6907   9.7975   9.7975  10.1227  10.1227  10.2020
    10.2020  10.5592  10.5592  10.8893  11.0526  11.2590  11.4746  11.4746
    11.7705  11.8461  11.8461  11.8897  11.8897  12.2746  12.3883  12.3993
    12.3993  13.9811  13.9811  14.1475  14.1475  14.7181  14.7181  14.8023
    14.8549  14.8549  14.9614  15.5917  15.7754  15.7754  16.2845  16.2845
    16.3449  16.3449  17.6641  17.9257  17.9257  18.2789  18.3237  18.3237
    18.4313  18.5350  18.5350  18.7976  18.7976  18.8897  18.8898  18.8986
    18.8987  19.2215

          k = 0.0556 0.0556 0.1677 ( 54634 PWs)   bands (ev):

   -74.5515 -74.5293 -74.5293 -74.5251 -74.5251 -74.5205 -74.5195 -74.5189
   -74.5189 -74.5177 -74.5119 -74.5119 -74.5105 -74.5104 -74.5032 -74.5032
   -73.9596 -73.9595 -73.9451 -73.9451 -73.9451 -73.9451 -73.9439 -73.9439
   -73.9437 -73.9436 -73.9423 -73.9423 -73.9423 -73.9423 -73.9278 -73.9277
   -40.3860 -40.3860 -40.3856 -40.3847 -40.3721 -40.3721 -40.3654 -40.3312
   -40.3312 -40.3282 -40.3282 -40.2911 -40.2911 -40.2800 -40.2800 -40.2708
   -40.2708 -40.2676 -40.2676 -40.2587 -40.2587 -40.2299 -40.2298 -40.2232
   -40.2232 -40.2231 -40.2186 -40.2186 -40.2134 -40.2088 -40.2088 -40.1949
   -40.1919 -40.1919 -40.1774 -40.1774 -40.1745 -40.1735 -40.1634 -40.1634
   -40.1582 -40.1582 -40.1245 -40.1227 -40.1227 -40.1184 -40.1063 -40.1047
   -39.8337 -39.8337 -39.8329 -39.8320 -39.8219 -39.8219 -39.8199 -39.8199
   -39.7514 -39.7514 -39.7513 -39.7513 -39.7364 -39.7364 -39.7362 -39.7362
   -39.7341 -39.7341 -39.7337 -39.7337 -39.7189 -39.7189 -39.7187 -39.7187
   -39.6483 -39.6480 -39.6467 -39.6463 -39.6347 -39.6347 -39.6334 -39.6334
   -39.5628 -39.5596 -39.5482 -39.5482 -39.5478 -39.5478 -39.5469 -39.5466
   -39.5466 -39.5465 -39.5461 -39.5461 -39.5458 -39.5458 -39.5359 -39.5358
     3.2636   4.5518   4.7929   4.7930   4.8594   4.8655   4.8717   4.8717
     4.9307   4.9428   5.0675   5.0675   5.1565   5.1565   5.3398   5.3398
     5.4059   5.6074   5.7290   5.7290   5.7581   5.7581   5.7879   5.7879
     5.8085   5.8085   5.8773   5.8806   5.8806   5.8828   5.8952   5.8952
     6.0213   6.0213   6.0887   6.0887   6.1250   6.1250   6.2011   6.2011
     6.2135   6.2135   6.2758   6.2759   6.3380   6.3974   6.3974   6.4157
     6.4157   6.5592   6.5592   6.6251   6.6730   6.6730   6.7228   6.7228
     6.7349   6.7435   6.7435   6.7543   6.9297   6.9297   6.9333   6.9333
     6.9463   6.9566   7.0937   7.0937   7.1056   7.1077   7.1150   7.1150
     7.1476   7.1570   7.2180   7.2180   7.2530   7.2530   7.6032   7.6032
     7.6569   7.6653   7.6671   7.6671   7.6867   7.6867   7.7112   7.7112
     7.8314   7.8314   7.8671   7.8671   7.8802   7.8802   7.8868   7.9035
     7.9307   7.9307   7.9590   7.9590   7.9903   7.9994   8.0347   8.0583
     8.0583   8.1655   8.1655   8.1832   8.1832   8.2611   8.2882   8.2882
     8.3200   8.3200   8.3294   8.3294   8.4566   8.4566   8.5104   8.5104
     8.5112   8.5112   8.5457   8.6952   8.6952   8.7468   8.7632   8.7632
     8.8826   8.8826   8.8960   8.8960   8.8961   8.9157   8.9157   8.9251
     9.0115   9.0345   9.0367   9.0408   9.0408   9.1164   9.1453   9.1651
     9.1651   9.1919   9.1919   9.2046   9.2046   9.3608   9.3608   9.4344
     9.4375   9.4375   9.4387   9.4921   9.5709   9.5875   9.5875   9.5943
     9.5943   9.6481   9.6907   9.7975   9.7975  10.1169  10.1169  10.2020
    10.2020  10.5537  10.5537  10.8113  11.0528  11.2589  11.4760  11.4760
    11.7744  11.8662  11.8662  11.8890  11.8890  12.3862  12.3973  12.4194
    12.4194  13.9818  13.9818  14.0445  14.0445  14.6141  14.6141  14.8140
    14.8575  14.8575  14.9479  15.4374  16.0362  16.0362  16.2812  16.2812
    16.6149  16.6149  17.5736  17.8172  17.8172  17.9029  17.9029  18.1724
    18.4375  18.4375  18.5379  18.5379  18.7002  18.8112  18.8112  19.1622
    19.1622  19.2238

          k = 0.0556 0.0556 0.2348 ( 54636 PWs)   bands (ev):

   -74.5515 -74.5293 -74.5293 -74.5251 -74.5251 -74.5205 -74.5195 -74.5189
   -74.5189 -74.5177 -74.5119 -74.5119 -74.5105 -74.5104 -74.5032 -74.5032
   -73.9596 -73.9595 -73.9451 -73.9451 -73.9451 -73.9451 -73.9439 -73.9439
   -73.9437 -73.9436 -73.9423 -73.9423 -73.9423 -73.9423 -73.9278 -73.9277
   -40.3860 -40.3860 -40.3856 -40.3847 -40.3721 -40.3721 -40.3654 -40.3313
   -40.3312 -40.3283 -40.3282 -40.2911 -40.2911 -40.2800 -40.2800 -40.2708
   -40.2708 -40.2676 -40.2676 -40.2587 -40.2587 -40.2299 -40.2299 -40.2232
   -40.2232 -40.2232 -40.2186 -40.2186 -40.2134 -40.2088 -40.2088 -40.1948
   -40.1919 -40.1919 -40.1774 -40.1774 -40.1745 -40.1735 -40.1634 -40.1634
   -40.1582 -40.1582 -40.1245 -40.1227 -40.1227 -40.1184 -40.1062 -40.1047
   -39.8337 -39.8337 -39.8329 -39.8320 -39.8219 -39.8219 -39.8199 -39.8199
   -39.7514 -39.7514 -39.7513 -39.7513 -39.7365 -39.7365 -39.7362 -39.7362
   -39.7341 -39.7341 -39.7337 -39.7337 -39.7189 -39.7189 -39.7187 -39.7187
   -39.6482 -39.6479 -39.6467 -39.6463 -39.6347 -39.6347 -39.6334 -39.6334
   -39.5627 -39.5595 -39.5483 -39.5483 -39.5478 -39.5478 -39.5469 -39.5466
   -39.5465 -39.5465 -39.5461 -39.5461 -39.5458 -39.5458 -39.5359 -39.5359
     3.2637   4.5516   4.7929   4.7930   4.8594   4.8655   4.8718   4.8718
     4.9307   4.9425   5.0675   5.0675   5.1565   5.1565   5.3398   5.3398
     5.4061   5.6074   5.7290   5.7290   5.7581   5.7581   5.7879   5.7879
     5.8085   5.8085   5.8773   5.8805   5.8805   5.8828   5.8951   5.8951
     6.0213   6.0213   6.0887   6.0887   6.1250   6.1250   6.2011   6.2011
     6.2135   6.2135   6.2758   6.2758   6.3380   6.3974   6.3974   6.4157
     6.4157   6.5592   6.5592   6.6251   6.6730   6.6730   6.7228   6.7228
     6.7349   6.7435   6.7435   6.7544   6.9295   6.9295   6.9333   6.9333
     6.9463   6.9566   7.0934   7.0934   7.1056   7.1077   7.1150   7.1150
     7.1477   7.1570   7.2182   7.2182   7.2532   7.2532   7.6035   7.6035
     7.6571   7.6657   7.6671   7.6671   7.6867   7.6867   7.7112   7.7112
     7.8307   7.8307   7.8671   7.8671   7.8802   7.8802   7.8869   7.9035
     7.9301   7.9301   7.9591   7.9591   7.9909   7.9964   8.0347   8.0584
     8.0584   8.1655   8.1655   8.1835   8.1836   8.2614   8.2881   8.2881
     8.3207   8.3207   8.3295   8.3295   8.4566   8.4566   8.5100   8.5100
     8.5105   8.5105   8.5457   8.6952   8.6952   8.7612   8.7632   8.7633
     8.8824   8.8824   8.8960   8.8960   8.8961   8.9157   8.9157   8.9252
     9.0111   9.0344   9.0359   9.0429   9.0429   9.1164   9.1444   9.1647
     9.1647   9.1918   9.1918   9.2066   9.2066   9.3607   9.3608   9.4344
     9.4376   9.4376   9.4387   9.4920   9.5709   9.5874   9.5874   9.5943
     9.5943   9.6494   9.6907   9.7975   9.7976  10.1117  10.1117  10.2020
    10.2020  10.5488  10.5488  10.7490  11.0531  11.2588  11.4772  11.4772
    11.7778  11.8844  11.8844  11.8883  11.8883  12.3845  12.4375  12.4375
    12.5029  13.9647  13.9647  13.9825  13.9825  14.5338  14.5338  14.8269
    14.8597  14.8597  14.9333  15.3056  16.2783  16.2783  16.3273  16.3273
    16.9259  16.9259  17.5144  17.5144  17.5187  17.7428  17.7429  18.0214
    18.0214  18.0885  18.5383  18.5383  18.8234  18.8234  19.0195  19.2254
    19.2255  19.4333

          k = 0.0556 0.0556-0.3019 ( 54622 PWs)   bands (ev):

   -74.5515 -74.5293 -74.5293 -74.5251 -74.5251 -74.5205 -74.5195 -74.5189
   -74.5189 -74.5177 -74.5119 -74.5119 -74.5105 -74.5104 -74.5032 -74.5032
   -73.9596 -73.9595 -73.9451 -73.9451 -73.9451 -73.9451 -73.9439 -73.9439
   -73.9437 -73.9436 -73.9423 -73.9423 -73.9423 -73.9423 -73.9278 -73.9277
   -40.3860 -40.3860 -40.3856 -40.3847 -40.3721 -40.3721 -40.3654 -40.3312
   -40.3312 -40.3283 -40.3283 -40.2911 -40.2911 -40.2800 -40.2800 -40.2708
   -40.2708 -40.2676 -40.2676 -40.2587 -40.2587 -40.2298 -40.2298 -40.2232
   -40.2232 -40.2232 -40.2186 -40.2186 -40.2134 -40.2088 -40.2088 -40.1949
   -40.1919 -40.1919 -40.1774 -40.1774 -40.1745 -40.1735 -40.1634 -40.1634
   -40.1582 -40.1582 -40.1245 -40.1227 -40.1226 -40.1184 -40.1063 -40.1047
   -39.8337 -39.8337 -39.8329 -39.8320 -39.8218 -39.8218 -39.8199 -39.8199
   -39.7514 -39.7514 -39.7513 -39.7513 -39.7365 -39.7365 -39.7362 -39.7362
   -39.7342 -39.7341 -39.7337 -39.7337 -39.7189 -39.7189 -39.7187 -39.7187
   -39.6482 -39.6479 -39.6467 -39.6463 -39.6347 -39.6347 -39.6334 -39.6334
   -39.5627 -39.5595 -39.5483 -39.5483 -39.5478 -39.5478 -39.5469 -39.5466
   -39.5465 -39.5465 -39.5461 -39.5461 -39.5458 -39.5458 -39.5358 -39.5358
     3.2638   4.5515   4.7929   4.7930   4.8594   4.8655   4.8718   4.8718
     4.9307   4.9424   5.0675   5.0675   5.1565   5.1565   5.3399   5.3399
     5.4062   5.6074   5.7290   5.7290   5.7581   5.7581   5.7879   5.7879
     5.8085   5.8085   5.8773   5.8805   5.8805   5.8827   5.8951   5.8951
     6.0213   6.0213   6.0887   6.0887   6.1250   6.1250   6.2011   6.2011
     6.2135   6.2135   6.2758   6.2758   6.3380   6.3974   6.3974   6.4157
     6.4157   6.5591   6.5592   6.6251   6.6730   6.6730   6.7228   6.7228
     6.7349   6.7435   6.7435   6.7543   6.9295   6.9295   6.9333   6.9333
     6.9463   6.9566   7.0934   7.0934   7.1056   7.1077   7.1150   7.1150
     7.1477   7.1570   7.2183   7.2183   7.2533   7.2533   7.6036   7.6036
     7.6572   7.6659   7.6671   7.6671   7.6867   7.6867   7.7113   7.7113
     7.8304   7.8304   7.8671   7.8671   7.8802   7.8802   7.8869   7.9035
     7.9298   7.9298   7.9591   7.9591   7.9913   7.9949   8.0347   8.0585
     8.0585   8.1655   8.1655   8.1837   8.1837   8.2615   8.2881   8.2881
     8.3210   8.3210   8.3296   8.3296   8.4566   8.4566   8.5098   8.5098
     8.5103   8.5103   8.5457   8.6952   8.6952   8.7633   8.7633   8.7670
     8.8823   8.8824   8.8960   8.8960   8.8961   8.9157   8.9157   8.9252
     9.0109   9.0344   9.0356   9.0437   9.0437   9.1164   9.1441   9.1645
     9.1645   9.1918   9.1918   9.2074   9.2074   9.3607   9.3607   9.4344
     9.4376   9.4376   9.4387   9.4920   9.5709   9.5874   9.5874   9.5943
     9.5943   9.6500   9.6907   9.7975   9.7976  10.1097  10.1097  10.2020
    10.2020  10.5469  10.5469  10.7256  11.0532  11.2587  11.4777  11.4777
    11.7792  11.8880  11.8880  11.8916  11.8916  12.3837  12.4448  12.4448
    12.5445  13.9353  13.9353  13.9827  13.9827  14.5041  14.5041  14.8332
    14.8606  14.8606  14.9264  15.2540  16.2772  16.2772  16.4916  16.4916
    17.1168  17.1168  17.3178  17.3178  17.5008  17.7168  17.7169  17.7958
    17.7958  18.0581  18.5387  18.5387  18.8282  18.8282  19.2260  19.2260
    19.3544  19.5750

          k = 0.0556 0.1667 0.0335 ( 54660 PWs)   bands (ev):

   -74.5507 -74.5335 -74.5290 -74.5249 -74.5222 -74.5209 -74.5200 -74.5192
   -74.5173 -74.5166 -74.5133 -74.5121 -74.5107 -74.5091 -74.5039 -74.5034
   -73.9591 -73.9590 -73.9479 -73.9478 -73.9451 -73.9450 -73.9441 -73.9441
   -73.9434 -73.9434 -73.9424 -73.9423 -73.9396 -73.9396 -73.9283 -73.9282
   -40.3841 -40.3832 -40.3819 -40.3806 -40.3694 -40.3692 -40.3640 -40.3360
   -40.3341 -40.3324 -40.3283 -40.3104 -40.3042 -40.2995 -40.2788 -40.2712
   -40.2699 -40.2651 -40.2515 -40.2442 -40.2400 -40.2339 -40.2312 -40.2274
   -40.2271 -40.2244 -40.2235 -40.2161 -40.2140 -40.2082 -40.2061 -40.2031
   -40.1924 -40.1830 -40.1771 -40.1701 -40.1681 -40.1676 -40.1638 -40.1632
   -40.1585 -40.1545 -40.1298 -40.1292 -40.1241 -40.1172 -40.1111 -40.1062
   -39.8324 -39.8316 -39.8292 -39.8274 -39.8206 -39.8205 -39.8160 -39.8159
   -39.7683 -39.7680 -39.7661 -39.7657 -39.7540 -39.7534 -39.7494 -39.7487
   -39.7214 -39.7209 -39.7167 -39.7163 -39.7041 -39.7040 -39.7019 -39.7016
   -39.6525 -39.6524 -39.6478 -39.6476 -39.6392 -39.6392 -39.6351 -39.6351
   -39.5622 -39.5592 -39.5505 -39.5500 -39.5483 -39.5477 -39.5473 -39.5466
   -39.5465 -39.5462 -39.5462 -39.5457 -39.5441 -39.5438 -39.5362 -39.5362
     3.3332   4.6068   4.8297   4.8353   4.8757   4.8797   4.8910   4.9085
     4.9137   4.9691   4.9957   5.0918   5.0937   5.1575   5.3393   5.4023
     5.4583   5.6407   5.6504   5.6648   5.6708   5.6784   5.6802   5.7702
     5.7743   5.8101   5.8156   5.8161   5.8365   5.8697   5.8775   5.9155
     5.9179   5.9513   5.9986   6.0674   6.1628   6.1723   6.1756   6.1790
     6.2042   6.2142   6.2215   6.3573   6.3937   6.4190   6.4601   6.5060
     6.5067   6.5463   6.5593   6.6127   6.6184   6.6523   6.7035   6.7375
     6.7494   6.7597   6.7855   6.8105   6.8541   6.8993   6.9451   6.9547
     6.9625   6.9677   7.1245   7.1287   7.1333   7.1370   7.1477   7.1500
     7.1642   7.2139   7.2482   7.2512   7.2632   7.3908   7.4716   7.4918
     7.4927   7.5292   7.5700   7.5769   7.6107   7.6696   7.6767   7.7007
     7.7726   7.7879   7.8052   7.8318   7.8642   7.8914   7.9408   7.9518
     7.9643   7.9888   7.9897   8.0172   8.0185   8.0507   8.0600   8.0742
     8.0764   8.0811   8.1009   8.1596   8.2287   8.2549   8.2682   8.2765
     8.3933   8.4095   8.4107   8.4739   8.5051   8.5323   8.5357   8.5954
     8.6157   8.6254   8.6573   8.7108   8.7343   8.7523   8.7736   8.7780
     8.7845   8.8419   8.8425   8.9068   8.9264   8.9320   8.9339   8.9819
     8.9822   9.0063   9.0105   9.0202   9.1437   9.1491   9.1624   9.1708
     9.1921   9.2053   9.2211   9.2745   9.3289   9.3458   9.3567   9.3572
     9.3826   9.3902   9.4791   9.4977   9.5336   9.5699   9.5782   9.5824
     9.5987   9.6061   9.6782   9.6930   9.7307   9.7846  10.0849  10.1198
    10.1255  10.5775  10.6604  10.8034  11.1013  11.1126  11.2785  11.3313
    11.3415  11.8418  11.8842  11.9625  12.3929  12.4000  12.4668  12.9583
    12.9978  13.5867  13.6815  14.2138  14.2551  14.8207  14.8450  14.9290
    15.0350  15.0817  15.1010  15.4005  15.6748  15.7550  15.7857  16.2320
    16.4474  16.7834  17.6626  17.7705  17.7809  17.8124  17.8320  17.9466
    18.0637  18.2438  18.3630  18.4391  18.6841  18.6931  18.8480  18.9064
    19.0475  19.2779

          k = 0.0556 0.1667 0.1006 ( 54666 PWs)   bands (ev):

   -74.5507 -74.5335 -74.5290 -74.5249 -74.5222 -74.5209 -74.5200 -74.5192
   -74.5173 -74.5166 -74.5133 -74.5121 -74.5107 -74.5091 -74.5039 -74.5034
   -73.9591 -73.9590 -73.9479 -73.9478 -73.9451 -73.9450 -73.9441 -73.9441
   -73.9434 -73.9434 -73.9424 -73.9423 -73.9396 -73.9396 -73.9283 -73.9282
   -40.3841 -40.3832 -40.3819 -40.3806 -40.3694 -40.3693 -40.3641 -40.3360
   -40.3341 -40.3324 -40.3283 -40.3104 -40.3042 -40.2995 -40.2788 -40.2712
   -40.2699 -40.2651 -40.2515 -40.2442 -40.2400 -40.2339 -40.2312 -40.2274
   -40.2272 -40.2244 -40.2235 -40.2161 -40.2141 -40.2083 -40.2061 -40.2031
   -40.1924 -40.1830 -40.1771 -40.1701 -40.1681 -40.1676 -40.1638 -40.1632
   -40.1585 -40.1545 -40.1298 -40.1293 -40.1241 -40.1172 -40.1112 -40.1062
   -39.8324 -39.8316 -39.8292 -39.8274 -39.8206 -39.8204 -39.8160 -39.8159
   -39.7682 -39.7680 -39.7660 -39.7656 -39.7540 -39.7534 -39.7494 -39.7487
   -39.7215 -39.7210 -39.7167 -39.7163 -39.7041 -39.7040 -39.7019 -39.7016
   -39.6525 -39.6524 -39.6479 -39.6476 -39.6392 -39.6392 -39.6351 -39.6351
   -39.5622 -39.5593 -39.5505 -39.5500 -39.5483 -39.5477 -39.5473 -39.5466
   -39.5465 -39.5462 -39.5462 -39.5457 -39.5440 -39.5438 -39.5362 -39.5361
     3.3332   4.6066   4.8297   4.8353   4.8757   4.8797   4.8910   4.9085
     4.9137   4.9691   4.9954   5.0918   5.0937   5.1575   5.3394   5.4023
     5.4584   5.6407   5.6504   5.6648   5.6708   5.6785   5.6802   5.7702
     5.7743   5.8101   5.8156   5.8161   5.8364   5.8697   5.8775   5.9155
     5.9179   5.9513   5.9986   6.0674   6.1628   6.1723   6.1756   6.1790
     6.2042   6.2142   6.2215   6.3573   6.3937   6.4190   6.4601   6.5060
     6.5067   6.5463   6.5593   6.6127   6.6183   6.6523   6.7035   6.7375
     6.7494   6.7597   6.7855   6.8105   6.8541   6.8993   6.9451   6.9546
     6.9625   6.9676   7.1244   7.1287   7.1333   7.1370   7.1477   7.1500
     7.1642   7.2137   7.2484   7.2513   7.2633   7.3910   7.4716   7.4919
     7.4928   7.5292   7.5702   7.5772   7.6106   7.6696   7.6767   7.7007
     7.7719   7.7878   7.8052   7.8326   7.8638   7.8917   7.9408   7.9519
     7.9639   7.9889   7.9900   8.0166   8.0172   8.0508   8.0596   8.0742
     8.0763   8.0812   8.1009   8.1596   8.2285   8.2552   8.2685   8.2771
     8.3931   8.4097   8.4108   8.4743   8.5051   8.5319   8.5363   8.5951
     8.6152   8.6253   8.6575   8.7106   8.7343   8.7523   8.7727   8.7779
     8.7843   8.8423   8.8490   8.9068   8.9281   8.9320   8.9339   8.9819
     8.9822   9.0054   9.0105   9.0217   9.1437   9.1490   9.1620   9.1708
     9.1936   9.2046   9.2211   9.2742   9.3289   9.3458   9.3568   9.3579
     9.3827   9.3902   9.4791   9.4988   9.5335   9.5732   9.5782   9.5824
     9.5989   9.6061   9.6782   9.6931   9.7307   9.7805  10.0849  10.1198
    10.1219  10.5740  10.6600  10.8032  11.0566  11.0978  11.2784  11.3413
    11.3441  11.8545  11.8892  11.9650  12.4126  12.4656  12.4787  12.9554
    13.0105  13.5872  13.6062  14.1782  14.2142  14.7433  14.8517  14.9344
    15.0272  15.0841  15.2327  15.3223  15.6743  15.7523  15.8328  16.3927
    16.4452  16.9467  17.5684  17.6842  17.7713  17.7789  17.8328  17.9581
    18.0151  18.3026  18.3630  18.3704  18.4769  18.7567  18.8449  18.8537
    18.9154  19.3902

          k = 0.0556 0.1667 0.1677 ( 54655 PWs)   bands (ev):

   -74.5507 -74.5335 -74.5290 -74.5249 -74.5222 -74.5209 -74.5200 -74.5192
   -74.5173 -74.5166 -74.5133 -74.5121 -74.5107 -74.5091 -74.5039 -74.5034
   -73.9591 -73.9590 -73.9479 -73.9478 -73.9451 -73.9450 -73.9441 -73.9441
   -73.9434 -73.9434 -73.9424 -73.9423 -73.9396 -73.9396 -73.9283 -73.9282
   -40.3841 -40.3832 -40.3819 -40.3806 -40.3694 -40.3693 -40.3640 -40.3360
   -40.3341 -40.3324 -40.3283 -40.3104 -40.3042 -40.2995 -40.2788 -40.2712
   -40.2699 -40.2651 -40.2515 -40.2442 -40.2400 -40.2339 -40.2312 -40.2275
   -40.2272 -40.2244 -40.2235 -40.2161 -40.2141 -40.2082 -40.2061 -40.2030
   -40.1924 -40.1830 -40.1771 -40.1701 -40.1681 -40.1676 -40.1638 -40.1632
   -40.1585 -40.1545 -40.1298 -40.1293 -40.1241 -40.1172 -40.1111 -40.1062
   -39.8324 -39.8316 -39.8291 -39.8275 -39.8206 -39.8204 -39.8161 -39.8159
   -39.7683 -39.7680 -39.7660 -39.7656 -39.7540 -39.7534 -39.7494 -39.7487
   -39.7215 -39.7210 -39.7167 -39.7163 -39.7041 -39.7040 -39.7018 -39.7016
   -39.6525 -39.6523 -39.6478 -39.6475 -39.6392 -39.6392 -39.6351 -39.6351
   -39.5621 -39.5592 -39.5505 -39.5500 -39.5483 -39.5477 -39.5473 -39.5466
   -39.5465 -39.5462 -39.5462 -39.5457 -39.5441 -39.5439 -39.5362 -39.5362
     3.3333   4.6065   4.8297   4.8353   4.8757   4.8797   4.8911   4.9085
     4.9138   4.9691   4.9951   5.0919   5.0937   5.1575   5.3394   5.4023
     5.4587   5.6407   5.6504   5.6648   5.6707   5.6784   5.6801   5.7702
     5.7743   5.8101   5.8156   5.8161   5.8363   5.8696   5.8774   5.9155
     5.9178   5.9513   5.9985   6.0675   6.1628   6.1723   6.1756   6.1790
     6.2042   6.2141   6.2215   6.3573   6.3936   6.4190   6.4601   6.5061
     6.5067   6.5462   6.5592   6.6127   6.6183   6.6523   6.7035   6.7374
     6.7495   6.7597   6.7855   6.8106   6.8541   6.8993   6.9450   6.9546
     6.9625   6.9675   7.1242   7.1287   7.1333   7.1370   7.1477   7.1501
     7.1642   7.2135   7.2486   7.2515   7.2634   7.3912   7.4715   7.4922
     7.4930   7.5292   7.5703   7.5777   7.6105   7.6696   7.6768   7.7008
     7.7709   7.7878   7.8052   7.8338   7.8631   7.8921   7.9408   7.9520
     7.9633   7.9889   7.9903   8.0138   8.0172   8.0508   8.0591   8.0742
     8.0763   8.0813   8.1009   8.1595   8.2283   8.2558   8.2688   8.2779
     8.3928   8.4100   8.4110   8.4750   8.5051   8.5313   8.5371   8.5947
     8.6144   8.6250   8.6577   8.7102   8.7343   8.7523   8.7716   8.7777
     8.7840   8.8420   8.8598   8.9068   8.9307   8.9320   8.9339   8.9819
     8.9822   9.0040   9.0105   9.0241   9.1437   9.1489   9.1613   9.1707
     9.1958   9.2034   9.2210   9.2738   9.3289   9.3458   9.3569   9.3590
     9.3827   9.3902   9.4791   9.5006   9.5335   9.5782   9.5787   9.5824
     9.5990   9.6061   9.6782   9.6932   9.7307   9.7742  10.0849  10.1163
    10.1198  10.5687  10.6594  10.8030  10.9792  11.0925  11.2783  11.3411
    11.3641  11.8744  11.8970  11.9689  12.4325  12.4638  12.6057  12.9508
    13.0305  13.5060  13.5880  14.0762  14.2150  14.6408  14.8635  14.9459
    15.0138  15.0553  15.2191  15.4784  15.5108  15.7482  16.0934  16.4417
    16.6598  17.2197  17.3987  17.5187  17.5945  17.7722  17.8341  17.9535
    17.9762  18.1993  18.2576  18.3655  18.4606  18.6568  18.7430  18.9292
    18.9909  19.2867

          k = 0.0556 0.1667 0.2348 ( 54627 PWs)   bands (ev):

   -74.5507 -74.5335 -74.5290 -74.5249 -74.5222 -74.5209 -74.5200 -74.5192
   -74.5173 -74.5166 -74.5133 -74.5121 -74.5107 -74.5091 -74.5039 -74.5034
   -73.9591 -73.9590 -73.9479 -73.9478 -73.9451 -73.9450 -73.9441 -73.9441
   -73.9434 -73.9434 -73.9424 -73.9423 -73.9396 -73.9396 -73.9283 -73.9282
   -40.3841 -40.3832 -40.3819 -40.3806 -40.3694 -40.3693 -40.3640 -40.3360
   -40.3341 -40.3324 -40.3283 -40.3104 -40.3042 -40.2995 -40.2788 -40.2712
   -40.2699 -40.2651 -40.2515 -40.2442 -40.2399 -40.2339 -40.2312 -40.2275
   -40.2272 -40.2244 -40.2235 -40.2161 -40.2141 -40.2082 -40.2061 -40.2030
   -40.1924 -40.1830 -40.1771 -40.1701 -40.1681 -40.1676 -40.1638 -40.1632
   -40.1585 -40.1544 -40.1298 -40.1292 -40.1240 -40.1172 -40.1111 -40.1062
   -39.8324 -39.8316 -39.8291 -39.8275 -39.8206 -39.8205 -39.8161 -39.8159
   -39.7682 -39.7680 -39.7660 -39.7656 -39.7540 -39.7534 -39.7494 -39.7488
   -39.7214 -39.7210 -39.7167 -39.7162 -39.7041 -39.7040 -39.7019 -39.7016
   -39.6525 -39.6523 -39.6479 -39.6476 -39.6392 -39.6392 -39.6351 -39.6351
   -39.5621 -39.5592 -39.5504 -39.5500 -39.5483 -39.5477 -39.5473 -39.5466
   -39.5465 -39.5462 -39.5462 -39.5457 -39.5440 -39.5439 -39.5362 -39.5362
     3.3334   4.6063   4.8297   4.8353   4.8758   4.8798   4.8911   4.9085
     4.9138   4.9691   4.9948   5.0919   5.0937   5.1576   5.3394   5.4023
     5.4589   5.6407   5.6504   5.6648   5.6707   5.6784   5.6801   5.7701
     5.7743   5.8101   5.8156   5.8161   5.8363   5.8696   5.8774   5.9154
     5.9178   5.9514   5.9985   6.0676   6.1628   6.1723   6.1756   6.1790
     6.2041   6.2141   6.2216   6.3573   6.3936   6.4190   6.4602   6.5062
     6.5067   6.5462   6.5592   6.6127   6.6182   6.6523   6.7035   6.7373
     6.7495   6.7597   6.7855   6.8106   6.8541   6.8993   6.9450   6.9546
     6.9625   6.9673   7.1240   7.1287   7.1333   7.1371   7.1478   7.1501
     7.1642   7.2133   7.2488   7.2516   7.2635   7.3915   7.4715   7.4924
     7.4931   7.5292   7.5705   7.5781   7.6104   7.6696   7.6768   7.7008
     7.7701   7.7878   7.8052   7.8348   7.8624   7.8924   7.9409   7.9521
     7.9628   7.9890   7.9906   8.0113   8.0172   8.0509   8.0586   8.0742
     8.0763   8.0814   8.1010   8.1595   8.2281   8.2563   8.2691   8.2786
     8.3926   8.4103   8.4112   8.4756   8.5051   8.5307   8.5378   8.5944
     8.6137   8.6249   8.6579   8.7099   8.7343   8.7523   8.7708   8.7775
     8.7837   8.8417   8.8694   8.9068   8.9320   8.9330   8.9340   8.9819
     8.9822   9.0025   9.0105   9.0261   9.1437   9.1488   9.1606   9.1706
     9.1977   9.2025   9.2210   9.2734   9.3288   9.3458   9.3570   9.3600
     9.3828   9.3902   9.4791   9.5021   9.5334   9.5782   9.5824   9.5839
     9.5992   9.6061   9.6782   9.6933   9.7307   9.7688  10.0849  10.1114
    10.1198  10.5641  10.6589  10.8029  10.9172  11.0878  11.2782  11.3408
    11.3821  11.8923  11.9039  11.9724  12.4504  12.4622  12.7160  12.9466
    13.0486  13.4281  13.5887  13.9970  14.2156  14.5613  14.8761  14.9644
    14.9996  15.0218  15.1394  15.3707  15.7420  15.7446  16.3853  16.4387
    16.9665  17.0492  17.4992  17.5397  17.5416  17.5658  17.7708  17.8352
    17.9925  18.0669  18.1160  18.3669  18.4272  18.5647  18.7066  18.9416
    19.0633  19.2586

          k = 0.0556 0.1667-0.3019 ( 54622 PWs)   bands (ev):

   -74.5507 -74.5335 -74.5290 -74.5249 -74.5222 -74.5209 -74.5200 -74.5192
   -74.5173 -74.5166 -74.5133 -74.5121 -74.5107 -74.5091 -74.5039 -74.5034
   -73.9591 -73.9590 -73.9479 -73.9478 -73.9451 -73.9450 -73.9441 -73.9441
   -73.9434 -73.9434 -73.9424 -73.9423 -73.9396 -73.9396 -73.9283 -73.9282
   -40.3841 -40.3832 -40.3819 -40.3806 -40.3694 -40.3693 -40.3641 -40.3360
   -40.3341 -40.3324 -40.3283 -40.3103 -40.3042 -40.2995 -40.2788 -40.2712
   -40.2699 -40.2651 -40.2515 -40.2442 -40.2400 -40.2339 -40.2313 -40.2274
   -40.2272 -40.2244 -40.2235 -40.2161 -40.2141 -40.2083 -40.2061 -40.2030
   -40.1924 -40.1830 -40.1771 -40.1701 -40.1681 -40.1676 -40.1638 -40.1632
   -40.1585 -40.1544 -40.1298 -40.1292 -40.1240 -40.1172 -40.1111 -40.1061
   -39.8324 -39.8315 -39.8291 -39.8275 -39.8206 -39.8204 -39.8161 -39.8159
   -39.7682 -39.7680 -39.7660 -39.7656 -39.7540 -39.7534 -39.7494 -39.7487
   -39.7214 -39.7210 -39.7167 -39.7162 -39.7041 -39.7041 -39.7019 -39.7016
   -39.6525 -39.6523 -39.6478 -39.6475 -39.6392 -39.6392 -39.6351 -39.6351
   -39.5621 -39.5592 -39.5503 -39.5500 -39.5483 -39.5477 -39.5473 -39.5466
   -39.5466 -39.5462 -39.5461 -39.5458 -39.5440 -39.5439 -39.5363 -39.5362
     3.3334   4.6062   4.8297   4.8353   4.8758   4.8798   4.8911   4.9086
     4.9138   4.9691   4.9947   5.0919   5.0937   5.1576   5.3394   5.4024
     5.4590   5.6407   5.6504   5.6648   5.6707   5.6784   5.6801   5.7701
     5.7743   5.8101   5.8156   5.8161   5.8363   5.8696   5.8774   5.9154
     5.9178   5.9514   5.9984   6.0676   6.1628   6.1723   6.1756   6.1790
     6.2041   6.2141   6.2216   6.3573   6.3936   6.4190   6.4602   6.5063
     6.5067   6.5461   6.5592   6.6127   6.6182   6.6524   6.7035   6.7372
     6.7495   6.7597   6.7855   6.8106   6.8541   6.8993   6.9450   6.9546
     6.9625   6.9673   7.1239   7.1287   7.1333   7.1371   7.1478   7.1501
     7.1642   7.2132   7.2488   7.2516   7.2635   7.3916   7.4715   7.4925
     7.4932   7.5292   7.5705   7.5782   7.6104   7.6695   7.6768   7.7008
     7.7698   7.7878   7.8052   7.8353   7.8622   7.8926   7.9409   7.9522
     7.9626   7.9891   7.9907   8.0104   8.0173   8.0509   8.0584   8.0742
     8.0763   8.0815   8.1010   8.1595   8.2280   8.2565   8.2692   8.2788
     8.3925   8.4104   8.4113   8.4759   8.5051   8.5305   8.5381   8.5943
     8.6135   8.6248   8.6580   8.7098   8.7343   8.7524   8.7705   8.7774
     8.7836   8.8416   8.8733   8.9068   8.9320   8.9339   8.9340   8.9819
     8.9822   9.0018   9.0105   9.0269   9.1437   9.1488   9.1604   9.1706
     9.1985   9.2021   9.2209   9.2732   9.3288   9.3458   9.3571   9.3603
     9.3828   9.3902   9.4792   9.5027   9.5333   9.5782   9.5824   9.5860
     9.5993   9.6061   9.6782   9.6934   9.7307   9.7666  10.0849  10.1095
    10.1198  10.5622  10.6587  10.8028  10.8940  11.0860  11.2782  11.3407
    11.3894  11.8996  11.9067  11.9738  12.4576  12.4615  12.7599  12.9450
    13.0559  13.3992  13.5890  13.9677  14.2158  14.5319  14.8820  14.9901
    14.9902  14.9930  15.1099  15.3157  15.7431  15.8787  16.4375  16.5508
    16.8834  17.1528  17.3684  17.4949  17.5218  17.7544  17.7583  17.8356
    17.8627  17.9990  18.0856  18.3174  18.3674  18.4360  18.9465  18.9899
    19.2507  19.4027

          k = 0.0556 0.2778 0.0335 ( 54631 PWs)   bands (ev):

   -74.5493 -74.5375 -74.5284 -74.5245 -74.5237 -74.5211 -74.5187 -74.5170
   -74.5157 -74.5155 -74.5146 -74.5124 -74.5113 -74.5077 -74.5053 -74.5039
   -73.9581 -73.9581 -73.9505 -73.9504 -73.9450 -73.9450 -73.9444 -73.9443
   -73.9432 -73.9431 -73.9425 -73.9424 -73.9370 -73.9369 -73.9292 -73.9292
   -40.3789 -40.3776 -40.3749 -40.3740 -40.3641 -40.3636 -40.3614 -40.3416
   -40.3399 -40.3396 -40.3321 -40.3286 -40.3185 -40.3184 -40.2829 -40.2760
   -40.2602 -40.2595 -40.2400 -40.2337 -40.2336 -40.2313 -40.2302 -40.2292
   -40.2277 -40.2237 -40.2230 -40.2196 -40.2160 -40.2138 -40.2102 -40.2038
   -40.1829 -40.1780 -40.1753 -40.1706 -40.1639 -40.1620 -40.1586 -40.1552
   -40.1524 -40.1497 -40.1390 -40.1363 -40.1285 -40.1193 -40.1190 -40.1105
   -39.8281 -39.8267 -39.8224 -39.8202 -39.8169 -39.8166 -39.8097 -39.8093
   -39.7842 -39.7834 -39.7797 -39.7790 -39.7710 -39.7698 -39.7641 -39.7633
   -39.7067 -39.7061 -39.6997 -39.6993 -39.6903 -39.6901 -39.6857 -39.6855
   -39.6593 -39.6593 -39.6517 -39.6515 -39.6466 -39.6465 -39.6400 -39.6399
   -39.5609 -39.5585 -39.5525 -39.5523 -39.5483 -39.5476 -39.5475 -39.5466
   -39.5465 -39.5463 -39.5459 -39.5457 -39.5421 -39.5421 -39.5369 -39.5367
     3.4706   4.5568   4.7131   4.9009   4.9176   4.9179   4.9485   4.9732
     4.9848   5.0475   5.0954   5.1400   5.1468   5.1474   5.3182   5.3586
     5.4762   5.4835   5.5064   5.5071   5.5393   5.5589   5.6293   5.7089
     5.7142   5.7650   5.8502   5.8617   5.8623   5.8741   5.8751   5.8812
     5.8843   5.9265   5.9501   5.9519   6.1094   6.1517   6.1589   6.1907
     6.2115   6.2392   6.2887   6.3899   6.3962   6.4090   6.4161   6.4401
     6.4658   6.5223   6.5456   6.5845   6.5935   6.7269   6.7327   6.7694
     6.7742   6.7768   6.8473   6.8525   6.8920   6.9422   6.9676   6.9756
     7.0279   7.1008   7.1275   7.1552   7.1662   7.1686   7.1727   7.1776
     7.2123   7.2490   7.2570   7.3000   7.3089   7.3130   7.3496   7.4092
     7.4322   7.4607   7.4680   7.5372   7.6145   7.6216   7.6285   7.6300
     7.6607   7.6746   7.7112   7.7720   7.8084   7.8646   7.9082   7.9123
     7.9911   8.0077   8.0209   8.0343   8.0687   8.0970   8.1090   8.1375
     8.1552   8.1594   8.1957   8.2024   8.2657   8.2885   8.3234   8.4068
     8.4755   8.4974   8.5042   8.5183   8.5255   8.5639   8.6003   8.6256
     8.6285   8.6668   8.6759   8.6915   8.7242   8.7284   8.7347   8.7702
     8.7780   8.8465   8.9365   8.9370   8.9393   8.9906   9.0009   9.0675
     9.0889   9.0956   9.0976   9.1050   9.1175   9.1389   9.1761   9.1892
     9.1917   9.1921   9.2613   9.2615   9.2723   9.2739   9.3147   9.3291
     9.3424   9.3643   9.3725   9.4527   9.4553   9.5258   9.5519   9.5875
     9.5927   9.6045   9.6082   9.6203   9.6874   9.9026   9.9803  10.0252
    10.1260  10.3820  10.3856  10.6105  10.8743  10.9122  11.0711  11.4051
    11.7401  11.8587  11.9367  12.2585  12.4239  12.7331  12.9411  13.1340
    13.1631  13.5504  13.6729  14.3061  14.5709  14.6280  14.8486  14.9708
    15.0344  15.1944  15.2412  15.2615  15.7786  15.9633  16.0406  16.3056
    16.7496  16.8781  17.0101  17.1291  17.3988  17.4232  17.4300  17.5090
    17.7106  17.8762  17.9055  18.2559  18.5477  18.7641  18.8615  18.9210
    18.9617  19.2417

          k = 0.0556 0.2778 0.1006 ( 54671 PWs)   bands (ev):

   -74.5493 -74.5375 -74.5284 -74.5245 -74.5237 -74.5211 -74.5187 -74.5170
   -74.5157 -74.5155 -74.5146 -74.5124 -74.5113 -74.5077 -74.5053 -74.5039
   -73.9581 -73.9581 -73.9505 -73.9504 -73.9450 -73.9450 -73.9444 -73.9443
   -73.9432 -73.9431 -73.9425 -73.9424 -73.9370 -73.9369 -73.9292 -73.9292
   -40.3789 -40.3776 -40.3749 -40.3740 -40.3641 -40.3636 -40.3614 -40.3417
   -40.3400 -40.3396 -40.3322 -40.3286 -40.3185 -40.3184 -40.2830 -40.2761
   -40.2602 -40.2595 -40.2400 -40.2337 -40.2337 -40.2313 -40.2302 -40.2292
   -40.2277 -40.2236 -40.2229 -40.2196 -40.2160 -40.2138 -40.2102 -40.2038
   -40.1829 -40.1780 -40.1754 -40.1706 -40.1639 -40.1619 -40.1586 -40.1552
   -40.1524 -40.1497 -40.1390 -40.1364 -40.1285 -40.1193 -40.1190 -40.1105
   -39.8281 -39.8267 -39.8224 -39.8202 -39.8169 -39.8166 -39.8097 -39.8094
   -39.7842 -39.7835 -39.7797 -39.7790 -39.7709 -39.7698 -39.7641 -39.7633
   -39.7067 -39.7061 -39.6997 -39.6993 -39.6903 -39.6902 -39.6857 -39.6854
   -39.6593 -39.6592 -39.6517 -39.6515 -39.6466 -39.6465 -39.6400 -39.6399
   -39.5609 -39.5585 -39.5525 -39.5523 -39.5483 -39.5476 -39.5475 -39.5466
   -39.5466 -39.5463 -39.5459 -39.5457 -39.5422 -39.5421 -39.5369 -39.5368
     3.4706   4.5569   4.7130   4.9009   4.9176   4.9179   4.9485   4.9732
     4.9848   5.0475   5.0952   5.1400   5.1468   5.1475   5.3182   5.3586
     5.4762   5.4834   5.5064   5.5071   5.5393   5.5591   5.6293   5.7089
     5.7142   5.7649   5.8502   5.8617   5.8623   5.8741   5.8751   5.8812
     5.8843   5.9265   5.9502   5.9519   6.1094   6.1517   6.1589   6.1907
     6.2115   6.2392   6.2887   6.3899   6.3961   6.4090   6.4160   6.4401
     6.4658   6.5223   6.5455   6.5844   6.5935   6.7269   6.7327   6.7694
     6.7744   6.7768   6.8473   6.8525   6.8921   6.9422   6.9676   6.9756
     7.0278   7.1008   7.1275   7.1552   7.1663   7.1686   7.1727   7.1776
     7.2124   7.2490   7.2570   7.3001   7.3089   7.3130   7.3496   7.4092
     7.4323   7.4607   7.4683   7.5371   7.6146   7.6218   7.6295   7.6300
     7.6606   7.6747   7.7112   7.7712   7.8087   7.8648   7.9083   7.9119
     7.9911   8.0077   8.0206   8.0332   8.0685   8.0971   8.1090   8.1373
     8.1549   8.1594   8.1960   8.2021   8.2661   8.2885   8.3234   8.4068
     8.4756   8.4983   8.5043   8.5181   8.5251   8.5622   8.6000   8.6253
     8.6295   8.6667   8.6759   8.6913   8.7242   8.7282   8.7347   8.7696
     8.7780   8.8480   8.9375   8.9377   8.9393   8.9895   9.0020   9.0674
     9.0890   9.0956   9.0984   9.1049   9.1174   9.1389   9.1740   9.1895
     9.1922   9.1963   9.2606   9.2615   9.2729   9.2740   9.3147   9.3292
     9.3424   9.3639   9.3725   9.4525   9.4553   9.5215   9.5519   9.5927
     9.5941   9.6045   9.6082   9.6204   9.6880   9.9026   9.9803  10.0261
    10.1227  10.3811  10.3855  10.6074  10.8869  10.9121  11.0702  11.3486
    11.7367  11.8711  11.9442  12.2637  12.4362  12.8248  12.9417  13.0916
    13.1315  13.5423  13.6856  14.2319  14.6284  14.7112  14.7759  14.9677
    15.0408  15.1400  15.2217  15.3003  15.8393  15.9332  15.9645  16.4539
    16.7472  16.8808  17.0226  17.1296  17.2693  17.4295  17.4678  17.5836
    17.6186  17.9544  18.0777  18.2377  18.3591  18.8314  18.8571  18.9225
    19.0604  19.2158

          k = 0.0556 0.2778 0.1677 ( 54669 PWs)   bands (ev):

   -74.5493 -74.5375 -74.5284 -74.5245 -74.5237 -74.5211 -74.5187 -74.5170
   -74.5157 -74.5155 -74.5146 -74.5124 -74.5113 -74.5077 -74.5053 -74.5039
   -73.9581 -73.9581 -73.9505 -73.9504 -73.9450 -73.9450 -73.9444 -73.9443
   -73.9432 -73.9431 -73.9425 -73.9424 -73.9370 -73.9369 -73.9292 -73.9292
   -40.3789 -40.3775 -40.3749 -40.3740 -40.3641 -40.3636 -40.3614 -40.3417
   -40.3400 -40.3397 -40.3322 -40.3286 -40.3185 -40.3184 -40.2830 -40.2760
   -40.2602 -40.2595 -40.2400 -40.2337 -40.2337 -40.2313 -40.2302 -40.2292
   -40.2277 -40.2236 -40.2230 -40.2196 -40.2160 -40.2138 -40.2103 -40.2039
   -40.1829 -40.1780 -40.1753 -40.1706 -40.1639 -40.1620 -40.1586 -40.1552
   -40.1524 -40.1497 -40.1390 -40.1364 -40.1285 -40.1193 -40.1190 -40.1105
   -39.8281 -39.8267 -39.8224 -39.8202 -39.8169 -39.8166 -39.8097 -39.8093
   -39.7842 -39.7835 -39.7797 -39.7790 -39.7709 -39.7698 -39.7641 -39.7633
   -39.7067 -39.7061 -39.6997 -39.6993 -39.6903 -39.6902 -39.6857 -39.6855
   -39.6593 -39.6593 -39.6517 -39.6515 -39.6465 -39.6465 -39.6400 -39.6399
   -39.5608 -39.5585 -39.5525 -39.5523 -39.5483 -39.5476 -39.5475 -39.5467
   -39.5466 -39.5463 -39.5459 -39.5457 -39.5422 -39.5421 -39.5369 -39.5368
     3.4707   4.5569   4.7128   4.9009   4.9176   4.9180   4.9485   4.9732
     4.9848   5.0474   5.0948   5.1400   5.1468   5.1475   5.3182   5.3587
     5.4762   5.4833   5.5064   5.5071   5.5393   5.5593   5.6293   5.7090
     5.7142   5.7647   5.8502   5.8617   5.8623   5.8741   5.8750   5.8812
     5.8844   5.9265   5.9503   5.9518   6.1094   6.1517   6.1588   6.1907
     6.2115   6.2392   6.2887   6.3899   6.3961   6.4091   6.4160   6.4400
     6.4658   6.5224   6.5455   6.5844   6.5935   6.7269   6.7326   6.7694
     6.7746   6.7769   6.8473   6.8525   6.8922   6.9421   6.9676   6.9756
     7.0277   7.1008   7.1275   7.1553   7.1665   7.1685   7.1727   7.1775
     7.2125   7.2490   7.2569   7.3003   7.3089   7.3129   7.3496   7.4093
     7.4325   7.4608   7.4686   7.5370   7.6147   7.6220   7.6300   7.6309
     7.6606   7.6747   7.7111   7.7700   7.8091   7.8651   7.9084   7.9112
     7.9911   8.0077   8.0201   8.0315   8.0683   8.0972   8.1090   8.1372
     8.1545   8.1595   8.1963   8.2017   8.2666   8.2886   8.3234   8.4069
     8.4757   8.4999   8.5044   8.5179   8.5246   8.5597   8.5994   8.6248
     8.6312   8.6666   8.6758   8.6911   8.7242   8.7280   8.7347   8.7687
     8.7779   8.8505   8.9383   8.9393   8.9395   8.9879   9.0037   9.0673
     9.0892   9.0955   9.0995   9.1049   9.1173   9.1388   9.1720   9.1898
     9.1924   9.2021   9.2595   9.2614   9.2737   9.2741   9.3147   9.3294
     9.3425   9.3633   9.3726   9.4521   9.4553   9.5150   9.5519   9.5927
     9.6045   9.6046   9.6082   9.6204   9.6890   9.9026   9.9803  10.0276
    10.1177  10.3798  10.3853  10.6026  10.9066  10.9120  11.0689  11.2704
    11.7316  11.8905  11.9559  12.2717  12.4554  12.9426  12.9622  12.9957
    13.1277  13.5298  13.7056  14.1327  14.6292  14.6783  14.9365  14.9630
    15.0539  15.0892  15.1888  15.3281  15.6573  15.8639  16.1895  16.6910
    16.7435  16.8920  16.9347  17.0421  17.1306  17.4258  17.5687  17.5742
    17.8527  18.0213  18.0623  18.1886  18.3197  18.7359  18.8115  18.8507
    18.8608  18.9613

          k = 0.0556 0.2778 0.2348 ( 54653 PWs)   bands (ev):

   -74.5493 -74.5375 -74.5284 -74.5245 -74.5237 -74.5211 -74.5187 -74.5170
   -74.5157 -74.5155 -74.5146 -74.5124 -74.5113 -74.5077 -74.5053 -74.5039
   -73.9581 -73.9581 -73.9505 -73.9504 -73.9450 -73.9450 -73.9444 -73.9443
   -73.9432 -73.9431 -73.9425 -73.9424 -73.9370 -73.9369 -73.9292 -73.9292
   -40.3789 -40.3775 -40.3749 -40.3740 -40.3641 -40.3636 -40.3614 -40.3417
   -40.3399 -40.3396 -40.3321 -40.3286 -40.3185 -40.3184 -40.2829 -40.2761
   -40.2602 -40.2596 -40.2400 -40.2337 -40.2337 -40.2313 -40.2302 -40.2292
   -40.2277 -40.2236 -40.2230 -40.2196 -40.2160 -40.2138 -40.2103 -40.2039
   -40.1829 -40.1780 -40.1753 -40.1706 -40.1639 -40.1619 -40.1586 -40.1552
   -40.1524 -40.1497 -40.1391 -40.1364 -40.1285 -40.1193 -40.1191 -40.1105
   -39.8281 -39.8267 -39.8224 -39.8203 -39.8170 -39.8165 -39.8097 -39.8093
   -39.7842 -39.7835 -39.7797 -39.7790 -39.7709 -39.7698 -39.7641 -39.7633
   -39.7067 -39.7061 -39.6997 -39.6993 -39.6903 -39.6902 -39.6857 -39.6855
   -39.6593 -39.6593 -39.6517 -39.6515 -39.6466 -39.6465 -39.6400 -39.6399
   -39.5608 -39.5585 -39.5525 -39.5523 -39.5483 -39.5476 -39.5475 -39.5467
   -39.5466 -39.5463 -39.5460 -39.5457 -39.5421 -39.5420 -39.5369 -39.5368
     3.4708   4.5570   4.7127   4.9009   4.9176   4.9180   4.9485   4.9732
     4.9848   5.0474   5.0945   5.1400   5.1468   5.1475   5.3182   5.3587
     5.4761   5.4833   5.5064   5.5071   5.5393   5.5595   5.6293   5.7090
     5.7141   5.7646   5.8502   5.8617   5.8623   5.8741   5.8750   5.8811
     5.8844   5.9264   5.9504   5.9518   6.1095   6.1517   6.1588   6.1907
     6.2115   6.2391   6.2886   6.3899   6.3961   6.4092   6.4160   6.4399
     6.4658   6.5224   6.5454   6.5845   6.5935   6.7269   6.7326   6.7694
     6.7748   6.7770   6.8473   6.8525   6.8923   6.9421   6.9676   6.9756
     7.0276   7.1008   7.1275   7.1553   7.1666   7.1684   7.1727   7.1775
     7.2126   7.2490   7.2569   7.3005   7.3089   7.3129   7.3497   7.4094
     7.4326   7.4609   7.4690   7.5369   7.6147   7.6222   7.6300   7.6321
     7.6606   7.6748   7.7111   7.7689   7.8094   7.8654   7.9085   7.9106
     7.9911   8.0077   8.0198   8.0301   8.0680   8.0973   8.1090   8.1370
     8.1542   8.1595   8.1967   8.2013   8.2671   8.2886   8.3234   8.4071
     8.4757   8.5013   8.5044   8.5176   8.5242   8.5573   8.5990   8.6244
     8.6326   8.6664   8.6758   8.6909   8.7243   8.7277   8.7347   8.7680
     8.7778   8.8526   8.9389   8.9393   8.9412   8.9864   9.0053   9.0672
     9.0893   9.0955   9.1005   9.1050   9.1172   9.1388   9.1708   9.1901
     9.1925   9.2066   9.2586   9.2614   9.2742   9.2745   9.3147   9.3296
     9.3426   9.3628   9.3727   9.4518   9.4553   9.5093   9.5519   9.5928
     9.6046   9.6082   9.6138   9.6204   9.6903   9.9026   9.9804  10.0289
    10.1134  10.3786  10.3852  10.5984  10.9118  10.9244  11.0677  11.2078
    11.7271  11.9080  11.9663  12.2788  12.4728  12.9206  12.9435  13.0838
    13.1242  13.5185  13.7236  14.0551  14.6020  14.6298  14.9589  15.0544
    15.0739  15.1516  15.1676  15.3435  15.5004  15.7858  16.4767  16.6301
    16.7402  16.8492  17.0047  17.0598  17.1316  17.4047  17.5491  17.6644
    17.6836  18.0679  18.1723  18.2384  18.4852  18.5410  18.7936  18.8072
    18.8351  18.8468

          k = 0.0556 0.2778-0.3019 ( 54658 PWs)   bands (ev):

   -74.5493 -74.5375 -74.5284 -74.5245 -74.5237 -74.5211 -74.5187 -74.5170
   -74.5157 -74.5155 -74.5146 -74.5124 -74.5113 -74.5077 -74.5053 -74.5039
   -73.9581 -73.9581 -73.9505 -73.9504 -73.9450 -73.9450 -73.9444 -73.9443
   -73.9432 -73.9431 -73.9425 -73.9424 -73.9370 -73.9369 -73.9292 -73.9292
   -40.3789 -40.3775 -40.3749 -40.3740 -40.3641 -40.3636 -40.3614 -40.3417
   -40.3399 -40.3396 -40.3321 -40.3286 -40.3185 -40.3184 -40.2829 -40.2761
   -40.2602 -40.2595 -40.2400 -40.2337 -40.2337 -40.2313 -40.2302 -40.2292
   -40.2278 -40.2236 -40.2230 -40.2196 -40.2160 -40.2138 -40.2103 -40.2039
   -40.1829 -40.1780 -40.1753 -40.1706 -40.1639 -40.1619 -40.1586 -40.1552
   -40.1524 -40.1497 -40.1391 -40.1364 -40.1285 -40.1193 -40.1191 -40.1105
   -39.8281 -39.8267 -39.8224 -39.8203 -39.8169 -39.8165 -39.8097 -39.8093
   -39.7842 -39.7835 -39.7797 -39.7790 -39.7709 -39.7698 -39.7641 -39.7633
   -39.7067 -39.7061 -39.6997 -39.6993 -39.6903 -39.6902 -39.6857 -39.6855
   -39.6593 -39.6593 -39.6517 -39.6515 -39.6465 -39.6465 -39.6400 -39.6399
   -39.5608 -39.5585 -39.5524 -39.5523 -39.5483 -39.5476 -39.5475 -39.5467
   -39.5466 -39.5463 -39.5460 -39.5457 -39.5421 -39.5420 -39.5369 -39.5368
     3.4708   4.5570   4.7126   4.9009   4.9176   4.9180   4.9485   4.9732
     4.9848   5.0474   5.0944   5.1400   5.1468   5.1475   5.3182   5.3587
     5.4761   5.4833   5.5064   5.5071   5.5393   5.5595   5.6293   5.7090
     5.7141   5.7645   5.8502   5.8617   5.8623   5.8741   5.8749   5.8811
     5.8845   5.9264   5.9504   5.9518   6.1095   6.1517   6.1588   6.1907
     6.2115   6.2391   6.2887   6.3899   6.3961   6.4092   6.4160   6.4399
     6.4658   6.5224   6.5454   6.5844   6.5935   6.7269   6.7326   6.7694
     6.7749   6.7770   6.8473   6.8525   6.8924   6.9421   6.9676   6.9756
     7.0276   7.1008   7.1275   7.1553   7.1667   7.1684   7.1727   7.1775
     7.2127   7.2490   7.2569   7.3006   7.3089   7.3129   7.3497   7.4094
     7.4326   7.4610   7.4691   7.5369   7.6148   7.6223   7.6300   7.6326
     7.6606   7.6748   7.7111   7.7685   7.8095   7.8656   7.9085   7.9103
     7.9912   8.0077   8.0196   8.0295   8.0679   8.0973   8.1090   8.1369
     8.1540   8.1595   8.1968   8.2012   8.2673   8.2887   8.3234   8.4071
     8.4758   8.5019   8.5045   8.5176   8.5240   8.5564   8.5988   8.6242
     8.6332   8.6664   8.6758   8.6909   8.7243   8.7276   8.7347   8.7677
     8.7778   8.8535   8.9391   8.9393   8.9418   8.9858   9.0059   9.0671
     9.0894   9.0954   9.1009   9.1050   9.1172   9.1387   9.1704   9.1903
     9.1926   9.2082   9.2582   9.2614   9.2742   9.2748   9.3147   9.3296
     9.3426   9.3626   9.3727   9.4517   9.4553   9.5071   9.5519   9.5928
     9.6046   9.6082   9.6175   9.6203   9.6909   9.9026   9.9804  10.0295
    10.1116  10.3781  10.3852  10.5967  10.9118  10.9316  11.0673  11.1843
    11.7253  11.9150  11.9704  12.2816  12.4798  12.8927  12.9438  13.1228
    13.1329  13.5139  13.7309  14.0264  14.5737  14.6301  14.9573  15.0420
    15.0907  15.1282  15.2786  15.3483  15.4383  15.7570  16.4938  16.6393
    16.7389  16.8621  17.0669  17.1320  17.1365  17.3502  17.5448  17.5497
    17.6982  17.9597  18.3876  18.3905  18.4651  18.4966  18.6721  18.7864
    18.8811  19.0782

          k = 0.0556 0.3889 0.0335 ( 54670 PWs)   bands (ev):

   -74.5471 -74.5411 -74.5276 -74.5252 -74.5239 -74.5222 -74.5180 -74.5159
   -74.5146 -74.5143 -74.5133 -74.5130 -74.5121 -74.5074 -74.5065 -74.5046
   -73.9568 -73.9567 -73.9529 -73.9528 -73.9449 -73.9448 -73.9446 -73.9445
   -73.9430 -73.9429 -73.9426 -73.9426 -73.9346 -73.9345 -73.9306 -73.9306
   -40.3706 -40.3695 -40.3656 -40.3648 -40.3577 -40.3567 -40.3553 -40.3496
   -40.3475 -40.3474 -40.3450 -40.3393 -40.3361 -40.3322 -40.2843 -40.2803
   -40.2531 -40.2486 -40.2418 -40.2366 -40.2331 -40.2318 -40.2318 -40.2309
   -40.2290 -40.2254 -40.2194 -40.2151 -40.2099 -40.2085 -40.2063 -40.2013
   -40.1914 -40.1868 -40.1625 -40.1587 -40.1578 -40.1571 -40.1570 -40.1522
   -40.1490 -40.1448 -40.1432 -40.1373 -40.1360 -40.1299 -40.1246 -40.1173
   -39.8209 -39.8192 -39.8129 -39.8108 -39.8106 -39.8102 -39.8010 -39.8004
   -39.7986 -39.7974 -39.7919 -39.7911 -39.7868 -39.7851 -39.7779 -39.7771
   -39.6927 -39.6921 -39.6837 -39.6834 -39.6778 -39.6777 -39.6710 -39.6708
   -39.6686 -39.6683 -39.6581 -39.6581 -39.6566 -39.6566 -39.6477 -39.6477
   -39.5591 -39.5574 -39.5547 -39.5544 -39.5482 -39.5479 -39.5473 -39.5468
   -39.5466 -39.5464 -39.5457 -39.5456 -39.5405 -39.5404 -39.5378 -39.5377
     3.6715   4.2300   4.8652   4.9799   5.0017   5.0354   5.0374   5.0605
     5.0832   5.1115   5.1652   5.2108   5.2272   5.2359   5.2518   5.2553
     5.2652   5.3034   5.3435   5.3492   5.4129   5.4689   5.5121   5.5849
     5.6931   5.8189   5.8672   5.8690   5.8854   5.8914   5.9027   5.9175
     5.9628   5.9747   5.9842   5.9853   5.9962   6.1074   6.1610   6.1694
     6.1915   6.2268   6.2643   6.2741   6.3013   6.3238   6.3586   6.3709
     6.3787   6.4208   6.5940   6.6491   6.7242   6.7533   6.7725   6.7930
     6.8135   6.8544   6.9374   6.9381   6.9383   6.9620   6.9852   6.9923
     7.0796   7.0931   7.1613   7.1627   7.1631   7.1963   7.2005   7.2018
     7.2060   7.2178   7.2242   7.2687   7.2764   7.3582   7.3685   7.3828
     7.3960   7.4186   7.4515   7.4596   7.4667   7.5340   7.5351   7.5754
     7.6139   7.6214   7.8358   7.8492   7.8606   7.8912   7.9341   7.9561
     7.9782   8.0269   8.0424   8.0799   8.1183   8.1205   8.1229   8.1320
     8.1329   8.1423   8.2129   8.2184   8.3440   8.3505   8.3597   8.4022
     8.4276   8.4588   8.5264   8.5511   8.5559   8.5884   8.5884   8.6149
     8.6534   8.6701   8.6743   8.7410   8.7793   8.8379   8.8459   8.8748
     8.9046   8.9299   8.9512   8.9651   8.9759   8.9848   9.0105   9.0186
     9.0801   9.0882   9.1087   9.1196   9.1200   9.1574   9.1791   9.1878
     9.1970   9.1978   9.2146   9.2371   9.2572   9.2615   9.2771   9.2896
     9.3300   9.3433   9.3566   9.3761   9.3769   9.3970   9.4529   9.5370
     9.6291   9.6356   9.6609   9.6947   9.7847   9.7867   9.8261  10.0081
    10.1342  10.2304  10.4591  10.5029  10.6692  10.6747  10.8958  11.7792
    11.8832  11.9363  12.1855  12.4147  12.4500  12.4685  12.6703  13.1489
    13.8421  14.0667  14.0787  14.1157  14.3532  14.4148  14.8087  15.1632
    15.3682  15.3865  15.4554  15.6604  15.8915  16.0664  16.0908  16.2292
    16.3026  16.4325  16.5550  16.7297  17.0102  17.1702  17.2092  17.5109
    17.5706  17.9127  17.9733  18.0704  18.2182  18.2895  18.3145  18.8822
    19.1186  19.2626

          k = 0.0556 0.3889 0.1006 ( 54667 PWs)   bands (ev):

   -74.5471 -74.5411 -74.5276 -74.5252 -74.5239 -74.5222 -74.5180 -74.5159
   -74.5146 -74.5143 -74.5133 -74.5130 -74.5121 -74.5074 -74.5065 -74.5046
   -73.9568 -73.9567 -73.9529 -73.9528 -73.9449 -73.9448 -73.9446 -73.9445
   -73.9430 -73.9429 -73.9426 -73.9426 -73.9346 -73.9345 -73.9306 -73.9306
   -40.3706 -40.3695 -40.3657 -40.3648 -40.3576 -40.3567 -40.3553 -40.3496
   -40.3475 -40.3474 -40.3450 -40.3393 -40.3361 -40.3322 -40.2843 -40.2803
   -40.2531 -40.2486 -40.2418 -40.2366 -40.2332 -40.2318 -40.2318 -40.2310
   -40.2289 -40.2254 -40.2194 -40.2150 -40.2098 -40.2085 -40.2063 -40.2013
   -40.1914 -40.1869 -40.1625 -40.1587 -40.1578 -40.1571 -40.1570 -40.1521
   -40.1490 -40.1448 -40.1431 -40.1372 -40.1360 -40.1298 -40.1246 -40.1173
   -39.8209 -39.8192 -39.8130 -39.8108 -39.8106 -39.8102 -39.8010 -39.8004
   -39.7986 -39.7974 -39.7919 -39.7911 -39.7868 -39.7851 -39.7779 -39.7771
   -39.6927 -39.6921 -39.6837 -39.6834 -39.6778 -39.6776 -39.6710 -39.6708
   -39.6686 -39.6683 -39.6581 -39.6581 -39.6567 -39.6566 -39.6478 -39.6477
   -39.5591 -39.5574 -39.5547 -39.5544 -39.5482 -39.5479 -39.5472 -39.5468
   -39.5466 -39.5464 -39.5457 -39.5456 -39.5405 -39.5404 -39.5378 -39.5377
     3.6715   4.2300   4.8651   4.9799   5.0017   5.0354   5.0374   5.0605
     5.0832   5.1116   5.1652   5.2109   5.2272   5.2357   5.2518   5.2553
     5.2652   5.3034   5.3435   5.3492   5.4129   5.4689   5.5121   5.5847
     5.6932   5.8189   5.8672   5.8690   5.8855   5.8914   5.9027   5.9175
     5.9628   5.9748   5.9842   5.9853   5.9961   6.1073   6.1609   6.1695
     6.1916   6.2268   6.2643   6.2741   6.3013   6.3237   6.3586   6.3709
     6.3787   6.4208   6.5941   6.6491   6.7242   6.7533   6.7725   6.7931
     6.8135   6.8544   6.9375   6.9381   6.9383   6.9620   6.9852   6.9927
     7.0796   7.0931   7.1614   7.1627   7.1631   7.1963   7.2005   7.2018
     7.2060   7.2180   7.2243   7.2688   7.2765   7.3583   7.3686   7.3828
     7.3960   7.4194   7.4516   7.4596   7.4667   7.5339   7.5352   7.5754
     7.6139   7.6214   7.8359   7.8485   7.8607   7.8913   7.9342   7.9562
     7.9779   8.0267   8.0423   8.0798   8.1183   8.1198   8.1228   8.1320
     8.1324   8.1420   8.2130   8.2185   8.3438   8.3501   8.3574   8.4017
     8.4283   8.4589   8.5264   8.5512   8.5559   8.5883   8.5884   8.6149
     8.6533   8.6701   8.6742   8.7441   8.7791   8.8387   8.8459   8.8747
     8.9041   8.9299   8.9511   8.9651   8.9749   8.9862   9.0104   9.0185
     9.0811   9.0908   9.1092   9.1200   9.1200   9.1574   9.1790   9.1856
     9.1969   9.1979   9.2146   9.2371   9.2571   9.2615   9.2771   9.2892
     9.3295   9.3390   9.3567   9.3757   9.3770   9.3971   9.4529   9.5369
     9.6291   9.6356   9.6614   9.6947   9.7848   9.7968   9.8261  10.0081
    10.1314  10.2289  10.4714  10.5029  10.6665  10.6756  10.8943  11.7204
    11.8950  11.9458  12.1862  12.4228  12.4616  12.4651  12.6033  13.2503
    13.8353  14.0421  14.1124  14.2063  14.2855  14.4275  14.7506  15.1637
    15.3193  15.3305  15.4903  15.7235  16.0292  16.0427  16.0860  16.1035
    16.4301  16.4317  16.5571  16.6582  16.8091  17.1674  17.2954  17.5839
    17.6006  17.8909  18.0237  18.1560  18.1675  18.3288  18.3445  18.9128
    19.1265  19.3771

          k = 0.0556 0.3889 0.1677 ( 54694 PWs)   bands (ev):

   -74.5471 -74.5411 -74.5276 -74.5252 -74.5239 -74.5222 -74.5180 -74.5159
   -74.5146 -74.5143 -74.5133 -74.5130 -74.5121 -74.5074 -74.5065 -74.5046
   -73.9568 -73.9567 -73.9529 -73.9528 -73.9449 -73.9448 -73.9446 -73.9445
   -73.9430 -73.9429 -73.9426 -73.9426 -73.9346 -73.9345 -73.9306 -73.9306
   -40.3705 -40.3695 -40.3657 -40.3648 -40.3576 -40.3568 -40.3553 -40.3496
   -40.3474 -40.3474 -40.3451 -40.3393 -40.3362 -40.3322 -40.2843 -40.2804
   -40.2531 -40.2486 -40.2419 -40.2367 -40.2332 -40.2318 -40.2318 -40.2310
   -40.2290 -40.2253 -40.2195 -40.2150 -40.2099 -40.2085 -40.2063 -40.2014
   -40.1914 -40.1869 -40.1625 -40.1587 -40.1578 -40.1571 -40.1570 -40.1521
   -40.1490 -40.1448 -40.1432 -40.1372 -40.1360 -40.1299 -40.1246 -40.1173
   -39.8209 -39.8192 -39.8130 -39.8108 -39.8106 -39.8102 -39.8010 -39.8004
   -39.7986 -39.7974 -39.7919 -39.7911 -39.7868 -39.7851 -39.7779 -39.7771
   -39.6927 -39.6921 -39.6837 -39.6834 -39.6778 -39.6776 -39.6710 -39.6708
   -39.6686 -39.6683 -39.6581 -39.6581 -39.6567 -39.6566 -39.6477 -39.6477
   -39.5591 -39.5574 -39.5546 -39.5544 -39.5483 -39.5479 -39.5473 -39.5468
[...]
     8.0535   8.0535   8.0535   8.0535   8.0536   8.0536   8.0536   8.0536
     8.0886   8.0886   8.0886   8.0886   8.0886   8.0886   8.0886   8.0887
     8.1014   8.1014   8.1014   8.1014   8.3241   8.3241   8.3241   8.3241
     8.6703   8.6703   8.6703   8.6703   8.6703   8.6703   8.6703   8.6703
     8.6776   8.6777   8.6777   8.6777   8.8057   8.8058   8.8058   8.8058
     8.9303   8.9303   8.9303   8.9303   9.1401   9.1401   9.1401   9.1401
     9.2699   9.2699   9.2699   9.2699   9.2699   9.2699   9.2699   9.2699
     9.5646   9.5646   9.5646   9.5646   9.6146   9.6146   9.6146   9.6146
     9.6146   9.6146   9.6146   9.6146   9.6328   9.6329   9.6329   9.6329
    10.3958  10.3958  10.3958  10.3958  12.8605  12.8605  12.8605  12.8605
    12.8655  12.8655  12.8655  12.8655  12.8655  12.8655  12.8655  12.8655
    13.9988  13.9988  13.9988  13.9988  13.9988  13.9988  13.9988  13.9989
    14.6502  14.6503  14.6503  14.6503  15.9968  15.9968  15.9968  15.9968
    15.9968  15.9968  15.9968  15.9968  17.1767  17.1767  17.1767  17.1767
    18.2186  18.2186  18.2186  18.2186  18.5301  18.5301  18.5301  18.5301
    18.5302  18.5302

          k =-0.5000-0.5000 0.1677 ( 54640 PWs)   bands (ev):

   -74.5507 -74.5507 -74.5507 -74.5506 -74.5278 -74.5277 -74.5277 -74.5277
   -74.5230 -74.5229 -74.5229 -74.5229 -74.5229 -74.5229 -74.5229 -74.5229
   -73.9636 -73.9636 -73.9636 -73.9635 -73.9635 -73.9635 -73.9635 -73.9634
   -73.9476 -73.9476 -73.9476 -73.9475 -73.9475 -73.9475 -73.9475 -73.9475
   -40.3765 -40.3765 -40.3765 -40.3765 -40.3764 -40.3764 -40.3764 -40.3764
   -40.3657 -40.3657 -40.3657 -40.3657 -40.3131 -40.3131 -40.3131 -40.3131
   -40.2531 -40.2531 -40.2531 -40.2531 -40.2530 -40.2530 -40.2530 -40.2530
   -40.2108 -40.2108 -40.2108 -40.2108 -40.2092 -40.2092 -40.2092 -40.2092
   -40.2092 -40.2092 -40.2092 -40.2092 -40.1894 -40.1894 -40.1894 -40.1894
   -40.1670 -40.1670 -40.1670 -40.1669 -40.1169 -40.1169 -40.1169 -40.1169
   -39.8378 -39.8378 -39.8378 -39.8378 -39.8378 -39.8378 -39.8378 -39.8378
   -39.7548 -39.7548 -39.7548 -39.7548 -39.7520 -39.7520 -39.7520 -39.7520
   -39.7403 -39.7403 -39.7403 -39.7403 -39.7402 -39.7402 -39.7402 -39.7402
   -39.6518 -39.6518 -39.6518 -39.6518 -39.6516 -39.6516 -39.6516 -39.6516
   -39.5653 -39.5653 -39.5653 -39.5653 -39.5646 -39.5645 -39.5645 -39.5645
   -39.5534 -39.5533 -39.5533 -39.5533 -39.5532 -39.5532 -39.5532 -39.5532
     4.3525   4.3525   4.3525   4.3526   4.9779   4.9779   4.9779   4.9779
     5.3048   5.3048   5.3048   5.3049   5.3049   5.3049   5.3049   5.3050
     5.4140   5.4140   5.4140   5.4140   5.4760   5.4760   5.4760   5.4761
     5.4761   5.4761   5.4761   5.4761   5.5621   5.5621   5.5621   5.5621
     5.8552   5.8552   5.8552   5.8552   6.1689   6.1690   6.1690   6.1690
     6.1691   6.1691   6.1691   6.1691   6.4777   6.4778   6.4778   6.4779
     6.4779   6.4779   6.4779   6.4780   6.6495   6.6496   6.6496   6.6496
     6.8829   6.8830   6.8830   6.8830   7.1405   7.1405   7.1405   7.1405
     7.2538   7.2538   7.2538   7.2538   7.2600   7.2600   7.2600   7.2600
     7.3417   7.3417   7.3417   7.3417   7.4558   7.4559   7.4559   7.4559
     7.4559   7.4559   7.4559   7.4559   7.4824   7.4824   7.4824   7.4824
     7.7987   7.7987   7.7987   7.7987   7.9289   7.9290   7.9290   7.9290
     8.0535   8.0535   8.0535   8.0535   8.0536   8.0536   8.0536   8.0536
     8.0886   8.0887   8.0887   8.0887   8.0887   8.0887   8.0887   8.0887
     8.1014   8.1014   8.1014   8.1014   8.3241   8.3241   8.3241   8.3241
     8.6700   8.6700   8.6700   8.6700   8.6700   8.6700   8.6700   8.6700
     8.6786   8.6786   8.6786   8.6786   8.7999   8.7999   8.7999   8.7999
     8.9303   8.9303   8.9303   8.9303   9.1401   9.1401   9.1401   9.1401
     9.2702   9.2702   9.2702   9.2702   9.2702   9.2702   9.2702   9.2702
     9.5646   9.5646   9.5646   9.5646   9.6146   9.6147   9.6147   9.6147
     9.6147   9.6147   9.6147   9.6147   9.6329   9.6329   9.6329   9.6329
    10.4160  10.4160  10.4160  10.4161  12.7698  12.7699  12.7699  12.7699
    12.8661  12.8661  12.8661  12.8661  12.8662  12.8662  12.8662  12.8662
    13.9960  13.9960  13.9960  13.9961  13.9961  13.9961  13.9961  13.9961
    14.8710  14.8710  14.8710  14.8711  16.0084  16.0084  16.0084  16.0084
    16.0084  16.0084  16.0084  16.0085  16.8516  16.8516  16.8516  16.8516
    18.2208  18.2208  18.2208  18.2208  18.4330  18.4330  18.4330  18.4331
    18.4331  18.4331

          k =-0.5000-0.5000 0.2348 ( 54684 PWs)   bands (ev):

   -74.5507 -74.5507 -74.5507 -74.5506 -74.5278 -74.5277 -74.5277 -74.5277
   -74.5230 -74.5229 -74.5229 -74.5229 -74.5229 -74.5229 -74.5229 -74.5229
   -73.9636 -73.9636 -73.9636 -73.9635 -73.9635 -73.9635 -73.9635 -73.9634
   -73.9476 -73.9476 -73.9476 -73.9475 -73.9475 -73.9475 -73.9475 -73.9475
   -40.3765 -40.3765 -40.3765 -40.3765 -40.3764 -40.3764 -40.3764 -40.3764
   -40.3658 -40.3657 -40.3657 -40.3657 -40.3131 -40.3131 -40.3131 -40.3131
   -40.2531 -40.2531 -40.2531 -40.2531 -40.2530 -40.2530 -40.2530 -40.2530
   -40.2108 -40.2108 -40.2108 -40.2108 -40.2092 -40.2092 -40.2092 -40.2092
   -40.2092 -40.2092 -40.2092 -40.2092 -40.1894 -40.1894 -40.1894 -40.1894
   -40.1670 -40.1670 -40.1670 -40.1670 -40.1169 -40.1169 -40.1169 -40.1169
   -39.8379 -39.8379 -39.8379 -39.8379 -39.8378 -39.8378 -39.8378 -39.8378
   -39.7548 -39.7548 -39.7548 -39.7548 -39.7520 -39.7520 -39.7520 -39.7520
   -39.7403 -39.7403 -39.7403 -39.7403 -39.7402 -39.7402 -39.7402 -39.7402
   -39.6519 -39.6519 -39.6519 -39.6519 -39.6517 -39.6517 -39.6517 -39.6517
   -39.5654 -39.5653 -39.5653 -39.5653 -39.5646 -39.5646 -39.5646 -39.5645
   -39.5534 -39.5533 -39.5533 -39.5533 -39.5532 -39.5532 -39.5532 -39.5532
     4.3525   4.3526   4.3526   4.3526   4.9779   4.9779   4.9779   4.9779
     5.3048   5.3048   5.3048   5.3049   5.3049   5.3049   5.3049   5.3050
     5.4139   5.4139   5.4139   5.4139   5.4760   5.4760   5.4760   5.4761
     5.4761   5.4761   5.4761   5.4761   5.5622   5.5622   5.5622   5.5623
     5.8551   5.8552   5.8552   5.8552   6.1690   6.1690   6.1690   6.1690
     6.1691   6.1691   6.1691   6.1692   6.4777   6.4778   6.4778   6.4779
     6.4779   6.4779   6.4779   6.4780   6.6496   6.6496   6.6496   6.6497
     6.8829   6.8830   6.8830   6.8830   7.1405   7.1405   7.1405   7.1405
     7.2538   7.2538   7.2538   7.2538   7.2598   7.2599   7.2599   7.2599
     7.3422   7.3422   7.3422   7.3422   7.4558   7.4559   7.4559   7.4559
     7.4559   7.4559   7.4559   7.4559   7.4824   7.4824   7.4824   7.4824
     7.7983   7.7983   7.7983   7.7983   7.9294   7.9294   7.9294   7.9294
     8.0535   8.0535   8.0535   8.0535   8.0536   8.0536   8.0536   8.0536
     8.0887   8.0887   8.0887   8.0887   8.0888   8.0888   8.0888   8.0888
     8.1014   8.1014   8.1014   8.1014   8.3241   8.3241   8.3241   8.3241
     8.6697   8.6697   8.6697   8.6697   8.6697   8.6697   8.6697   8.6697
     8.6794   8.6795   8.6795   8.6795   8.7946   8.7947   8.7947   8.7947
     8.9303   8.9303   8.9303   8.9303   9.1401   9.1401   9.1401   9.1401
     9.2703   9.2704   9.2704   9.2704   9.2704   9.2704   9.2704   9.2704
     9.5646   9.5646   9.5646   9.5646   9.6147   9.6147   9.6147   9.6147
     9.6147   9.6147   9.6147   9.6147   9.6328   9.6329   9.6329   9.6329
    10.4342  10.4342  10.4342  10.4342  12.6977  12.6978  12.6978  12.6978
    12.8666  12.8667  12.8667  12.8667  12.8667  12.8667  12.8667  12.8667
    13.9936  13.9936  13.9936  13.9936  13.9936  13.9937  13.9937  13.9937
    15.1002  15.1002  15.1002  15.1002  16.0188  16.0188  16.0188  16.0188
    16.0188  16.0188  16.0188  16.0188  16.5516  16.5516  16.5516  16.5516
    18.2224  18.2224  18.2224  18.2224  18.3606  18.3606  18.3606  18.3607
    18.3607  18.3607

          k =-0.5000-0.5000-0.3019 ( 54728 PWs)   bands (ev):

   -74.5507 -74.5507 -74.5507 -74.5506 -74.5278 -74.5277 -74.5277 -74.5277
   -74.5230 -74.5229 -74.5229 -74.5229 -74.5229 -74.5229 -74.5229 -74.5229
   -73.9636 -73.9636 -73.9636 -73.9635 -73.9635 -73.9635 -73.9635 -73.9634
   -73.9476 -73.9476 -73.9476 -73.9475 -73.9475 -73.9475 -73.9475 -73.9475
   -40.3765 -40.3765 -40.3765 -40.3765 -40.3765 -40.3765 -40.3765 -40.3765
   -40.3658 -40.3657 -40.3657 -40.3657 -40.3131 -40.3131 -40.3131 -40.3131
   -40.2532 -40.2532 -40.2532 -40.2531 -40.2531 -40.2531 -40.2531 -40.2531
   -40.2108 -40.2108 -40.2108 -40.2108 -40.2093 -40.2093 -40.2093 -40.2092
   -40.2092 -40.2092 -40.2092 -40.2092 -40.1894 -40.1894 -40.1894 -40.1894
   -40.1669 -40.1669 -40.1669 -40.1669 -40.1169 -40.1169 -40.1169 -40.1169
   -39.8379 -39.8379 -39.8379 -39.8379 -39.8379 -39.8378 -39.8378 -39.8378
   -39.7548 -39.7548 -39.7548 -39.7548 -39.7520 -39.7520 -39.7520 -39.7520
   -39.7403 -39.7403 -39.7403 -39.7403 -39.7402 -39.7402 -39.7402 -39.7402
   -39.6518 -39.6518 -39.6518 -39.6518 -39.6517 -39.6517 -39.6517 -39.6517
   -39.5654 -39.5654 -39.5654 -39.5653 -39.5645 -39.5645 -39.5645 -39.5645
   -39.5534 -39.5534 -39.5534 -39.5533 -39.5533 -39.5533 -39.5533 -39.5533
     4.3525   4.3526   4.3526   4.3526   4.9779   4.9779   4.9779   4.9779
     5.3048   5.3048   5.3048   5.3048   5.3049   5.3049   5.3049   5.3049
     5.4138   5.4139   5.4139   5.4139   5.4759   5.4760   5.4760   5.4760
     5.4761   5.4761   5.4761   5.4761   5.5623   5.5623   5.5623   5.5623
     5.8551   5.8551   5.8551   5.8551   6.1689   6.1690   6.1690   6.1690
     6.1691   6.1691   6.1691   6.1691   6.4777   6.4778   6.4778   6.4779
     6.4779   6.4779   6.4779   6.4780   6.6496   6.6497   6.6497   6.6497
     6.8829   6.8830   6.8830   6.8830   7.1405   7.1405   7.1405   7.1405
     7.2538   7.2538   7.2538   7.2538   7.2598   7.2598   7.2598   7.2598
     7.3423   7.3424   7.3424   7.3424   7.4558   7.4558   7.4558   7.4558
     7.4559   7.4559   7.4559   7.4559   7.4824   7.4824   7.4824   7.4824
     7.7981   7.7981   7.7981   7.7981   7.9296   7.9296   7.9296   7.9296
     8.0535   8.0535   8.0535   8.0535   8.0536   8.0536   8.0536   8.0536
     8.0887   8.0887   8.0887   8.0887   8.0888   8.0888   8.0888   8.0888
     8.1014   8.1014   8.1014   8.1014   8.3241   8.3241   8.3241   8.3241
     8.6696   8.6696   8.6696   8.6696   8.6696   8.6696   8.6696   8.6696
     8.6798   8.6798   8.6798   8.6798   8.7926   8.7926   8.7926   8.7926
     8.9303   8.9303   8.9303   8.9303   9.1401   9.1401   9.1401   9.1401
     9.2704   9.2704   9.2704   9.2704   9.2704   9.2704   9.2704   9.2704
     9.5646   9.5646   9.5646   9.5646   9.6147   9.6147   9.6147   9.6147
     9.6147   9.6147   9.6147   9.6147   9.6329   9.6329   9.6329   9.6329
    10.4415  10.4415  10.4415  10.4415  12.6708  12.6708  12.6708  12.6708
    12.8669  12.8669  12.8669  12.8669  12.8669  12.8669  12.8669  12.8669
    13.9927  13.9927  13.9927  13.9927  13.9927  13.9927  13.9927  13.9927
    15.2108  15.2108  15.2108  15.2108  16.0230  16.0230  16.0230  16.0230
    16.0230  16.0230  16.0230  16.0230  16.4164  16.4164  16.4164  16.4164
    18.2229  18.2230  18.2230  18.2230  18.3343  18.3343  18.3344  18.3344
    18.3344  18.3345

     the Fermi energy is     9.6289 ev

!    total energy              =  -16384.05247506 Ry

     total all-electron energy =   -322944.906182 Ry
     estimated scf accuracy    <       0.00000001 Ry
     smearing contrib. (-TS)   =       0.12004736 Ry
     internal energy E=F+TS    =  -16384.17252242 Ry

     The total energy is F=E-TS. E is the sum of the following terms:
     one-electron contribution =  -15740.51816008 Ry
     hartree contribution      =    8088.44949358 Ry
     xc contribution           =    -985.50278322 Ry
     ewald contribution        =     420.73567215 Ry
     one-center paw contrib.   =   -8167.33674486 Ry

     convergence has been achieved in  11 iterations

     Forces acting on atoms (cartesian axes, Ry/au):

     atom    1 type  1   force =     0.00000000    0.00000000   -0.00024745
     atom    2 type  1   force =     0.00000030    0.00000030   -0.00023662
     atom    3 type  1   force =     0.00000698    0.00000000    0.00009476
     atom    4 type  1   force =     0.00000000    0.00000698    0.00009476
     atom    5 type  1   force =     0.00000000    0.00000000   -0.00010702
     atom    6 type  1   force =    -0.00000854   -0.00000854   -0.00011038
     atom    7 type  1   force =    -0.00000824    0.00000000    0.00024994
     atom    8 type  1   force =     0.00000000   -0.00000824    0.00024994
     atom    9 type  1   force =     0.00000000    0.00000000   -0.00023563
     atom   10 type  1   force =     0.00000030   -0.00000030   -0.00023662
     atom   11 type  1   force =     0.00000264    0.00000000    0.00009436
     atom   12 type  1   force =     0.00000000   -0.00000698    0.00009476
     atom   13 type  1   force =     0.00000000    0.00000000   -0.00011483
     atom   14 type  1   force =    -0.00000854    0.00000854   -0.00011038
     atom   15 type  1   force =    -0.00000934    0.00000000    0.00025804
     atom   16 type  1   force =     0.00000000    0.00000824    0.00024994
     atom   17 type  1   force =     0.00000000    0.00000000   -0.00023563
     atom   18 type  1   force =    -0.00000030    0.00000030   -0.00023662
     atom   19 type  1   force =    -0.00000698    0.00000000    0.00009476
     atom   20 type  1   force =     0.00000000    0.00000264    0.00009436
     atom   21 type  1   force =     0.00000000    0.00000000   -0.00011483
     atom   22 type  1   force =     0.00000854   -0.00000854   -0.00011038
     atom   23 type  1   force =     0.00000824    0.00000000    0.00024994
     atom   24 type  1   force =     0.00000000   -0.00000934    0.00025804
     atom   25 type  1   force =     0.00000000    0.00000000   -0.00022297
     atom   26 type  1   force =    -0.00000030   -0.00000030   -0.00023662
     atom   27 type  1   force =    -0.00000264    0.00000000    0.00009436
     atom   28 type  1   force =     0.00000000   -0.00000264    0.00009436
     atom   29 type  1   force =     0.00000000    0.00000000   -0.00012203
     atom   30 type  1   force =     0.00000854    0.00000854   -0.00011038
     atom   31 type  1   force =     0.00000934    0.00000000    0.00025804
     atom   32 type  1   force =     0.00000000    0.00000934    0.00025804

     Total force =     0.001066     Total SCF correction =     0.000629
     SCF correction compared to forces is large: reduce conv_thr to get better values


     Computing stress (Cartesian axis) and pressure

          total   stress  (Ry/bohr**3)                   (kbar)     P=      -27.45
  -0.00024932   0.00000000   0.00000000          -36.68        0.00        0.00
   0.00000000  -0.00024932   0.00000000            0.00      -36.68        0.00
   0.00000000   0.00000000  -0.00006108            0.00        0.00       -8.99

     Energy error            =      6.2E-05
     Gradient error          =      2.6E-04

     bfgs converged in   9 scf cycles and   8 bfgs steps
     (criteria: energy <  1.0E-04 Ry, force <  1.0E-03 Ry/Bohr)

     End of BFGS Geometry Optimization

     Final energy   =  -16384.0524750564 Ry

     File /scratch/EkXGkfVrBBpDrfNJ.bfgs deleted, as requested
Begin final coordinates

ATOMIC_POSITIONS (crystal)
Pd            0.0000000000        0.0000000000       -0.0000843928
Pd            0.2500002089        0.2500002089       -0.0000845959
Pd            0.2499970087        0.0000000000        0.1491947129
Pd            0.0000000000        0.2499970087        0.1491947129
Pd            0.0000000000        0.0000000000        0.6998659098
Pd            0.2500058187        0.2500058187        0.6998648470
Pd            0.2500030484        0.0000000000        0.8491379497
Pd            0.0000000000        0.2500030484        0.8491379497
Pd            0.0000000000        0.5000000000       -0.0000844746
Pd            0.2500002089        0.7499997911       -0.0000845959
Pd            0.2499991012        0.5000000000        0.1491939204
Pd            0.0000000000        0.7500029913        0.1491947129
Pd            0.0000000000        0.5000000000        0.6998663786
Pd            0.2500058187        0.7499941813        0.6998648470
Pd            0.2500031314        0.5000000000        0.8491381796
Pd            0.0000000000        0.7499969516        0.8491379497
Pd            0.5000000000        0.0000000000       -0.0000844746
Pd            0.7499997911        0.2500002089       -0.0000845959
Pd            0.7500029913        0.0000000000        0.1491947129
Pd            0.5000000000        0.2499991012        0.1491939204
Pd            0.5000000000        0.0000000000        0.6998663786
Pd            0.7499941813        0.2500058187        0.6998648470
Pd            0.7499969516        0.0000000000        0.8491379497
Pd            0.5000000000        0.2500031314        0.8491381796
Pd            0.5000000000        0.5000000000       -0.0000861986
Pd            0.7499997911        0.7499997911       -0.0000845959
Pd            0.7500008988        0.5000000000        0.1491939204
Pd            0.5000000000        0.7500008988        0.1491939204
Pd            0.5000000000        0.5000000000        0.6998664792
Pd            0.7499941813        0.7499941813        0.6998648470
Pd            0.7499968686        0.5000000000        0.8491381796
Pd            0.5000000000        0.7499968686        0.8491381796
End final coordinates



     Writing output data file /scratch/EkXGkfVrBBpDrfNJ.save/
 
     init_run     :     28.49s CPU     29.13s WALL (       1 calls)
     electrons    :  10998.96s CPU  11113.36s WALL (       9 calls)
     update_pot   :      2.27s CPU      2.35s WALL (       8 calls)
     forces       :    145.26s CPU    146.38s WALL (       9 calls)
     stress       :   1453.81s CPU   1464.02s WALL (       9 calls)

     Called by init_run:
     wfcinit      :     27.38s CPU     27.92s WALL (       1 calls)
     potinit      :      0.18s CPU      0.20s WALL (       1 calls)
     hinit0       :      0.56s CPU      0.57s WALL (       1 calls)

     Called by electrons:
     c_bands      :   9778.89s CPU   9872.99s WALL (     118 calls)
     sum_band     :   1203.02s CPU   1219.67s WALL (     118 calls)
     v_of_rho     :      2.53s CPU      2.72s WALL (     119 calls)
     newd         :      4.64s CPU      6.63s WALL (     119 calls)
     PAW_pot      :     10.45s CPU     11.13s WALL (     127 calls)
     mix_rho      :      0.69s CPU      0.78s WALL (     118 calls)

     Called by c_bands:
     init_us_2    :     68.68s CPU     69.41s WALL (   19725 calls)
     cegterg      :   9533.39s CPU   9624.88s WALL (    8850 calls)

     Called by *egterg:
     cdiaghg      :    830.24s CPU    834.59s WALL (   29601 calls)
     h_psi        :   4668.97s CPU   4729.08s WALL (   30876 calls)
     s_psi        :    519.66s CPU    522.83s WALL (   30876 calls)
     g_psi        :     17.80s CPU     18.05s WALL (   21951 calls)

     Called by h_psi:
     h_psi:calbec :    799.61s CPU    804.52s WALL (   30876 calls)
     vloc_psi     :   3314.03s CPU   3363.69s WALL (   30876 calls)
     add_vuspsi   :    514.25s CPU    518.81s WALL (   30876 calls)

     General routines
     calbec       :   1438.80s CPU   1447.60s WALL (   43701 calls)
     fft          :      2.51s CPU      2.63s WALL (    1770 calls)
     ffts         :      0.21s CPU      0.22s WALL (     237 calls)
     fftw         :   3922.14s CPU   3980.24s WALL (16870780 calls)
     interpolate  :      0.27s CPU      0.30s WALL (     119 calls)
 
     Parallel routines
     fft_scatt_xy :    293.17s CPU    297.81s WALL (16872787 calls)
     fft_scatt_yz :   3029.40s CPU   3074.21s WALL (16872787 calls)
 
     PWSCF        :      3h31m CPU      3h33m WALL

 
   This run was terminated on:   2:40:59   8Jan2022            

=------------------------------------------------------------------------------=
   JOB DONE.
=------------------------------------------------------------------------------=
