
     Program PWSCF v.6.7MaX starts on 26Nov2021 at  1:14:19 

     This program is part of the open-source Quantum ESPRESSO suite
     for quantum simulation of materials; please cite
         "P. Giannozzi et al., J. Phys.:Condens. Matter 21 395502 (2009);
         "P. Giannozzi et al., J. Phys.:Condens. Matter 29 465901 (2017);
          URL http://www.quantum-espresso.org", 
     in publications or presentations arising from this work. More details at
     http://www.quantum-espresso.org/quote

     Parallel version (MPI & OpenMP), running on      72 processor cores
     Number of MPI processes:                72
     Threads/MPI process:                     1

     MPI processes distributed on     1 nodes
     R & G space division:  proc/nbgrp/npool/nimage =      72
     Reading input from sc_1.in
Warning: card &CELL ignored
Warning: card CELL_DYNAMICS = 'BFGS', ignored
Warning: card CELL_FACTOR = 2.0, ignored
Warning: card PRESS = 0.0, ignored
Warning: card / ignored

     Current dimensions of program PWSCF are:
     Max number of different atomic species (ntypx) = 10
     Max number of k-points (npk) =  40000
     Max angular momentum in pseudopotentials (lmaxx) =  3
     file Ru.pbe-spn-kjpaw_psl.1.0.0.UPF: wavefunction(s)  4D renormalized

     Subspace diagonalization in iterative solution of the eigenvalue problem:
     one sub-group per band group will be used
     ELPA distributed-memory algorithm (size of sub-group:  8*  8 procs)

     Found symmetry operation: I + (  0.0000  0.0000 -0.5000)
     This is a supercell, fractional translations are disabled
     Message from routine setup:
     using ibrav=0 with symmetry is DISCOURAGED, use correct ibrav instead
 
     Parallelization info
     --------------------
     sticks:   dense  smooth     PW     G-vecs:    dense   smooth      PW
     Min          38      25      7                 1554      833     125
     Max          39      26      8                 1561      838     132
     Sum        2801    1869    529               112259    60269    9171
 


     bravais-lattice index     =            0
     lattice parameter (alat)  =       9.0720  a.u.
     unit-cell volume          =     746.6363 (a.u.)^3
     number of atoms/cell      =            8
     number of atomic types    =            1
     number of electrons       =       128.00
     number of Kohn-Sham states=           77
     kinetic-energy cutoff     =      71.0000  Ry
     charge density cutoff     =     430.0000  Ry
     scf convergence threshold =      1.0E-06
     mixing beta               =       0.1000
     number of iterations used =           10  TF        mixing
     Exchange-correlation= SLA  PW   PBX  PBC
                           (   1   4   3   4   0   0   0)

     celldm(1)=   9.072000  celldm(2)=   0.000000  celldm(3)=   0.000000
     celldm(4)=   0.000000  celldm(5)=   0.000000  celldm(6)=   0.000000

     crystal axes: (cart. coord. in units of alat)
               a(1) = (   1.000000   0.000000   0.000000 )  
               a(2) = (   0.000000   1.000000   0.000000 )  
               a(3) = (   0.000000   0.000000   1.000000 )  

     reciprocal axes: (cart. coord. in units 2 pi/alat)
               b(1) = (  1.000000  0.000000  0.000000 )  
               b(2) = (  0.000000  1.000000  0.000000 )  
               b(3) = (  0.000000  0.000000  1.000000 )  


     PseudoPot. # 1 for Ru read from file:
     /rds/homes/b/bxp912/pp/Ru.pbe-spn-kjpaw_psl.1.0.0.UPF
     MD5 check sum: 0ae1f594dea09af7be8575c3a481d1ae
     Pseudo is Projector augmented-wave + core cor, Zval = 16.0
     Generated using "atomic" code by A. Dal Corso  v.5.1
     Shape of augmentation charge: PSQ
     Using radial grid of 1233 points,  6 beta functions with: 
                l(1) =   0
                l(2) =   0
                l(3) =   1
                l(4) =   1
                l(5) =   2
                l(6) =   2
     Q(r) pseudized with 0 coefficients 


     atomic species   valence    mass     pseudopotential
        Ru            16.00   101.07000     Ru( 1.00)

     48 Sym. Ops., with inversion, found



   Cartesian axes

     site n.     atom                  positions (alat units)
         1           Ru  tau(   1) = (   0.0000000   0.0000000   0.0000000  )
         2           Ru  tau(   2) = (   0.0000000   0.0000000   0.5000000  )
         3           Ru  tau(   3) = (   0.0000000   0.5000000   0.0000000  )
         4           Ru  tau(   4) = (   0.0000000   0.5000000   0.5000000  )
         5           Ru  tau(   5) = (   0.5000000   0.0000000   0.0000000  )
         6           Ru  tau(   6) = (   0.5000000   0.0000000   0.5000000  )
         7           Ru  tau(   7) = (   0.5000000   0.5000000   0.0000000  )
         8           Ru  tau(   8) = (   0.5000000   0.5000000   0.5000000  )

     number of k points=    35  Marzari-Vanderbilt smearing, width (Ry)=  0.0400
                       cart. coord. in units 2pi/alat
        k(    1) = (   0.0555556   0.0555556   0.0555556), wk =   0.0219479
        k(    2) = (   0.0555556   0.0555556   0.1666667), wk =   0.0658436
        k(    3) = (   0.0555556   0.0555556   0.2777778), wk =   0.0658436
        k(    4) = (   0.0555556   0.0555556   0.3888889), wk =   0.0658436
        k(    5) = (   0.0555556   0.0555556  -0.5000000), wk =   0.0329218
        k(    6) = (   0.0555556   0.1666667   0.1666667), wk =   0.0658436
        k(    7) = (   0.0555556   0.1666667   0.2777778), wk =   0.1316872
        k(    8) = (   0.0555556   0.1666667   0.3888889), wk =   0.1316872
        k(    9) = (   0.0555556   0.1666667  -0.5000000), wk =   0.0658436
        k(   10) = (   0.0555556   0.2777778   0.2777778), wk =   0.0658436
        k(   11) = (   0.0555556   0.2777778   0.3888889), wk =   0.1316872
        k(   12) = (   0.0555556   0.2777778  -0.5000000), wk =   0.0658436
        k(   13) = (   0.0555556   0.3888889   0.3888889), wk =   0.0658436
        k(   14) = (   0.0555556   0.3888889  -0.5000000), wk =   0.0658436
        k(   15) = (   0.0555556  -0.5000000  -0.5000000), wk =   0.0164609
        k(   16) = (   0.1666667   0.1666667   0.1666667), wk =   0.0219479
        k(   17) = (   0.1666667   0.1666667   0.2777778), wk =   0.0658436
        k(   18) = (   0.1666667   0.1666667   0.3888889), wk =   0.0658436
        k(   19) = (   0.1666667   0.1666667  -0.5000000), wk =   0.0329218
        k(   20) = (   0.1666667   0.2777778   0.2777778), wk =   0.0658436
        k(   21) = (   0.1666667   0.2777778   0.3888889), wk =   0.1316872
        k(   22) = (   0.1666667   0.2777778  -0.5000000), wk =   0.0658436
        k(   23) = (   0.1666667   0.3888889   0.3888889), wk =   0.0658436
        k(   24) = (   0.1666667   0.3888889  -0.5000000), wk =   0.0658436
        k(   25) = (   0.1666667  -0.5000000  -0.5000000), wk =   0.0164609
        k(   26) = (   0.2777778   0.2777778   0.2777778), wk =   0.0219479
        k(   27) = (   0.2777778   0.2777778   0.3888889), wk =   0.0658436
        k(   28) = (   0.2777778   0.2777778  -0.5000000), wk =   0.0329218
        k(   29) = (   0.2777778   0.3888889   0.3888889), wk =   0.0658436
        k(   30) = (   0.2777778   0.3888889  -0.5000000), wk =   0.0658436
        k(   31) = (   0.2777778  -0.5000000  -0.5000000), wk =   0.0164609
        k(   32) = (   0.3888889   0.3888889   0.3888889), wk =   0.0219479
        k(   33) = (   0.3888889   0.3888889  -0.5000000), wk =   0.0329218
        k(   34) = (   0.3888889  -0.5000000  -0.5000000), wk =   0.0164609
        k(   35) = (  -0.5000000  -0.5000000  -0.5000000), wk =   0.0027435

     Dense  grid:   112259 G-vectors     FFT dimensions: (  60,  60,  60)

     Smooth grid:    60269 G-vectors     FFT dimensions: (  50,  50,  50)

     Estimated max dynamical RAM per process >      12.27 MB

     Estimated total dynamical RAM >     883.79 MB

     Check: negative core charge=   -0.000003

     Initial potential from superposition of free atoms

     starting charge  127.99490, renormalised to  128.00000
     Starting wfcs are   80 randomized atomic wfcs
     Checking if some PAW data can be deallocated... 

     total cpu time spent up to now is        4.2 secs

     Self-consistent Calculation

     iteration #  1     ecut=    71.00 Ry     beta= 0.10
     Davidson diagonalization with overlap
     ethr =  1.00E-02,  avg # of iterations =  3.5

     Threshold (ethr) on eigenvalues was too large:
     Diagonalizing with lowered threshold

     Davidson diagonalization with overlap
     ethr =  2.92E-05,  avg # of iterations =  4.4

     total cpu time spent up to now is       10.9 secs

     total energy              =   -3452.60192296 Ry
     estimated scf accuracy    <       0.03792711 Ry

     iteration #  2     ecut=    71.00 Ry     beta= 0.10
     Davidson diagonalization with overlap
     ethr =  2.96E-05,  avg # of iterations =  1.0

     total cpu time spent up to now is       12.8 secs

     total energy              =   -3452.59187763 Ry
     estimated scf accuracy    <       0.03254124 Ry

     iteration #  3     ecut=    71.00 Ry     beta= 0.10
     Davidson diagonalization with overlap
     ethr =  2.54E-05,  avg # of iterations =  1.1

     total cpu time spent up to now is       15.4 secs

     total energy              =   -3452.59400459 Ry
     estimated scf accuracy    <       0.00475866 Ry

     iteration #  4     ecut=    71.00 Ry     beta= 0.10
     Davidson diagonalization with overlap
     ethr =  3.72E-06,  avg # of iterations =  1.1

     total cpu time spent up to now is       17.4 secs

     total energy              =   -3452.59380837 Ry
     estimated scf accuracy    <       0.00353800 Ry

     iteration #  5     ecut=    71.00 Ry     beta= 0.10
     Davidson diagonalization with overlap
     ethr =  2.76E-06,  avg # of iterations =  1.0

     total cpu time spent up to now is       19.7 secs

     total energy              =   -3452.59330884 Ry
     estimated scf accuracy    <       0.00181727 Ry

     iteration #  6     ecut=    71.00 Ry     beta= 0.10
     Davidson diagonalization with overlap
     ethr =  1.42E-06,  avg # of iterations =  2.0

     total cpu time spent up to now is       22.9 secs

     total energy              =   -3452.59329350 Ry
     estimated scf accuracy    <       0.00037989 Ry

     iteration #  7     ecut=    71.00 Ry     beta= 0.10
     Davidson diagonalization with overlap
     ethr =  2.97E-07,  avg # of iterations =  2.9

     total cpu time spent up to now is       26.0 secs

     total energy              =   -3452.59357331 Ry
     estimated scf accuracy    <       0.00025947 Ry

     iteration #  8     ecut=    71.00 Ry     beta= 0.10
     Davidson diagonalization with overlap
     ethr =  2.03E-07,  avg # of iterations =  1.0

     total cpu time spent up to now is       28.0 secs

     total energy              =   -3452.59349456 Ry
     estimated scf accuracy    <       0.00037406 Ry

     iteration #  9     ecut=    71.00 Ry     beta= 0.10
     Davidson diagonalization with overlap
     ethr =  2.03E-07,  avg # of iterations =  1.0

     total cpu time spent up to now is       30.5 secs

     total energy              =   -3452.59341340 Ry
     estimated scf accuracy    <       0.00021525 Ry

     iteration # 10     ecut=    71.00 Ry     beta= 0.10
     Davidson diagonalization with overlap
     ethr =  1.68E-07,  avg # of iterations =  2.0

     total cpu time spent up to now is       33.7 secs

     total energy              =   -3452.59342286 Ry
     estimated scf accuracy    <       0.00003965 Ry

     iteration # 11     ecut=    71.00 Ry     beta= 0.10
     Davidson diagonalization with overlap
     ethr =  3.10E-08,  avg # of iterations =  1.0

     total cpu time spent up to now is       35.5 secs

     total energy              =   -3452.59341360 Ry
     estimated scf accuracy    <       0.00001885 Ry

     iteration # 12     ecut=    71.00 Ry     beta= 0.10
     Davidson diagonalization with overlap
     ethr =  1.47E-08,  avg # of iterations =  2.0

     total cpu time spent up to now is       39.1 secs

     total energy              =   -3452.59341818 Ry
     estimated scf accuracy    <       0.00000101 Ry

     iteration # 13     ecut=    71.00 Ry     beta= 0.10
     Davidson diagonalization with overlap
     ethr =  7.86E-10,  avg # of iterations =  3.0

     total cpu time spent up to now is       42.9 secs

     End of self-consistent calculation

          k = 0.0556 0.0556 0.0556 (  7559 PWs)   bands (ev):

   -49.8248 -49.6086 -49.6085 -49.6085 -49.3996 -49.3995 -49.3995 -49.1966
   -20.5351 -20.5351 -20.5351 -20.3179 -20.3179 -20.3179 -20.3168 -20.3168
   -20.3168 -20.1188 -20.1177 -20.1177 -18.9832 -18.9813 -18.9813 -18.8391
   -18.8390 -18.8390 -18.8381 -18.8381 -18.8380 -18.7027 -18.7027 -18.7027
    15.6718  16.1864  16.1864  16.1864  17.1703  17.1703  17.7618  17.8084
    17.8084  18.0673  18.0673  18.0673  18.5074  18.5074  18.5074  19.3515
    19.3515  19.3515  21.8327  21.8327  21.8327  22.2380  22.2380  22.2381
    22.8463  22.8463  22.8463  22.8539  22.8539  22.8539  23.5019  23.5019
    23.5019  25.4382  25.4570  25.4570  25.7790  25.7790  25.7790  27.4604
    27.4604  27.4604  27.8877  27.8877  29.6110

          k = 0.0556 0.0556 0.1667 (  7526 PWs)   bands (ev):

   -49.8120 -49.6219 -49.5962 -49.5961 -49.4124 -49.4123 -49.3875 -49.2090
   -20.5223 -20.5223 -20.4470 -20.3307 -20.3307 -20.3060 -20.3050 -20.2330
   -20.2329 -20.1307 -20.1298 -20.0370 -19.0819 -18.9739 -18.9728 -18.9332
   -18.9332 -18.8478 -18.8468 -18.8304 -18.8304 -18.7930 -18.7110 -18.7110
    15.8784  16.2670  16.3849  16.3849  17.2196  17.4129  17.6627  17.9933
    18.0076  18.0111  18.2146  18.2146  18.3087  18.7953  18.7953  19.2753
    19.2753  19.7266  20.9396  20.9396  21.8663  22.2350  22.2351  22.3067
    22.3142  22.3958  22.8071  22.8072  22.9952  22.9952  23.2140  24.4056
    24.4056  25.1972  25.2094  25.4723  25.5660  25.5660  25.7588  26.3936
    26.3937  27.0761  27.5365  27.8720  29.1947

          k = 0.0556 0.0556 0.2778 (  7532 PWs)   bands (ev):

   -49.7879 -49.6468 -49.5729 -49.5728 -49.4364 -49.4363 -49.3648 -49.2323
   -20.4979 -20.4979 -20.3557 -20.3557 -20.2837 -20.2826 -20.2797 -20.1535
   -20.1526 -20.0731 -20.0730 -19.8836 -19.2674 -19.1091 -19.1090 -18.9610
   -18.9578 -18.9567 -18.8642 -18.8632 -18.8151 -18.8151 -18.7265 -18.7265
    16.2283  16.4226  16.7755  16.7755  17.3138  17.4536  17.8978  17.9277
    17.9634  18.3801  18.3801  18.3906  18.4098  19.1358  19.1359  19.4409
    19.4410  19.9677  19.9677  20.4505  21.4828  21.4838  21.6082  22.3012
    22.3012  22.7010  22.7287  22.7287  22.9921  23.2649  23.2649  24.7648
    24.7708  24.9341  24.9342  25.1833  25.1833  25.3726  25.3726  25.5083
    25.7210  25.7659  27.6194  27.8420  28.6441

          k = 0.0556 0.0556 0.3889 (  7553 PWs)   bands (ev):

   -49.7552 -49.6801 -49.5412 -49.5412 -49.4686 -49.4686 -49.3341 -49.2636
   -20.4650 -20.4650 -20.3894 -20.3894 -20.2535 -20.2525 -20.1842 -20.1833
   -20.0505 -19.8544 -19.8544 -19.6741 -19.5122 -19.3418 -19.3417 -19.1833
   -18.9361 -18.9349 -18.8863 -18.8852 -18.7945 -18.7945 -18.7474 -18.7474
    16.6417  16.6452  17.1878  17.3453  17.3453  17.4438  17.5389  17.7541
    18.5544  18.5544  18.7213  18.9380  18.9380  18.9546  18.9546  18.9697
    18.9897  20.5432  20.5432  20.5493  20.5803  20.7759  21.5259  22.3972
    22.3972  22.6249  22.6250  23.1328  23.2199  23.2352  23.2352  23.8019
    23.8019  24.2258  24.2308  24.2750  24.7021  24.7021  25.5573  25.6705
    26.2982  26.2982  27.6890  27.8000  27.9544

          k = 0.0556 0.0556-0.5000 (  7558 PWs)   bands (ev):

   -49.7178 -49.7178 -49.5051 -49.5050 -49.5050 -49.5050 -49.2990 -49.2990
   -20.4273 -20.4273 -20.4273 -20.4273 -20.2190 -20.2190 -20.2180 -20.2180
   -19.7844 -19.7844 -19.6009 -19.6008 -19.6008 -19.6008 -19.4312 -19.4312
   -18.9113 -18.9113 -18.9102 -18.9101 -18.7710 -18.7710 -18.7710 -18.7710
    16.9056  16.9056  17.0889  17.0889  17.5962  17.5962  18.0732  18.0732
    18.0732  18.0732  18.7569  18.7569  18.7569  18.7569  19.7048  19.7048
    19.7221  19.7221  19.7264  19.7264  21.8329  21.8330  21.8330  21.8330
    22.5096  22.5096  22.5097  22.5097  22.8149  22.8149  23.6575  23.6575
    23.6851  23.6851  24.1971  24.1971  24.1971  24.1971  25.6136  25.6136
    27.1637  27.1637  27.1637  27.7481  27.7486

          k = 0.0556 0.1667 0.1667 (  7515 PWs)   bands (ev):

   -49.7992 -49.6095 -49.6094 -49.5838 -49.4252 -49.4003 -49.4002 -49.2215
   -20.5094 -20.4344 -20.4344 -20.3188 -20.3188 -20.2506 -20.2416 -20.2213
   -20.2213 -20.1426 -20.0527 -20.0454 -19.0782 -19.0679 -18.9648 -18.9422
   -18.9422 -18.9289 -18.9207 -18.8392 -18.8391 -18.8015 -18.8015 -18.7192
    16.0883  16.4636  16.4636  16.5762  17.3710  17.5462  17.7396  18.0126
    18.1421  18.1422  18.2034  18.4554  18.5872  18.5873  18.9839  19.1983
    19.6450  19.6450  20.5937  21.0438  21.0439  21.8738  22.2591  22.2591
    22.3900  22.3900  22.4563  22.4563  22.9214  22.9844  24.0153  24.0154
    24.9511  25.1303  25.1786  25.2750  25.3430  25.5443  25.5443  25.8097
    26.5618  26.5618  26.7363  27.4163  28.2599

          k = 0.0556 0.1667 0.2778 (  7541 PWs)   bands (ev):

   -49.7752 -49.6343 -49.5861 -49.5605 -49.4493 -49.4243 -49.3776 -49.2449
   -20.4852 -20.4105 -20.3438 -20.2963 -20.2710 -20.2674 -20.1995 -20.1655
   -20.0855 -20.0717 -20.0618 -19.8951 -19.2582 -19.1187 -19.1004 -19.0561
   -18.9699 -18.9593 -18.9488 -18.9089 -18.8555 -18.8238 -18.8174 -18.7348
    16.4375  16.6155  16.8498  16.9510  17.5045  17.6018  17.9838  18.0123
    18.2715  18.2866  18.3459  18.5933  18.7061  19.0579  19.1426  19.4988
    19.5084  19.9111  20.2436  20.3447  21.0596  21.4247  21.6600  21.7577
    22.1657  22.4537  22.6848  22.7020  22.8692  23.2295  23.4785  24.5119
    24.6698  24.7834  24.8153  24.9424  25.1618  25.1860  25.2775  25.5036
    25.6132  26.0347  26.7516  27.2240  27.4957

          k = 0.0556 0.1667 0.3889 (  7556 PWs)   bands (ev):

   -49.7425 -49.6676 -49.5544 -49.5289 -49.4816 -49.4564 -49.3468 -49.2762
   -20.4525 -20.3782 -20.3771 -20.3039 -20.2660 -20.1964 -20.1699 -20.1019
   -20.0389 -19.8662 -19.8437 -19.6850 -19.5022 -19.3521 -19.3324 -19.1929
   -19.0336 -18.9821 -18.9271 -18.8877 -18.8775 -18.8390 -18.8031 -18.7558
    16.8287  16.8437  17.3554  17.4106  17.4917  17.6458  17.6774  18.0041
    18.4377  18.7834  18.8780  18.8788  18.9141  18.9713  18.9713  19.1593
    19.3127  20.4895  20.5544  20.5912  20.6206  20.6648  21.5215  21.8070
    22.0449  22.5473  22.7671  22.7691  23.0682  23.1193  23.3173  23.7473
    23.9823  23.9983  24.1800  24.2515  24.4541  24.6724  25.3279  25.4492
    25.5596  26.8639  26.9050  26.9351  27.1263

          k = 0.0556 0.1667-0.5000 (  7530 PWs)   bands (ev):

   -49.7052 -49.7052 -49.5181 -49.5181 -49.4928 -49.4928 -49.3116 -49.3116
   -20.4149 -20.4149 -20.3411 -20.3411 -20.2313 -20.2313 -20.1359 -20.1359
   -19.7736 -19.7736 -19.6119 -19.6119 -19.5908 -19.5908 -19.4414 -19.4414
   -19.0079 -19.0079 -18.9023 -18.9023 -18.8634 -18.8634 -18.7795 -18.7795
    17.0845  17.0845  17.2669  17.2670  17.8112  17.8112  18.1211  18.1211
    18.1561  18.1561  18.6975  18.6975  19.1112  19.1112  19.6468  19.6468
    19.7346  19.7346  19.8735  19.8735  21.7590  21.7590  21.7996  21.7996
    21.9167  21.9168  22.6571  22.6571  22.7516  22.7516  23.4736  23.4736
    23.7069  23.7069  23.9930  23.9930  24.1645  24.1645  25.3880  25.3880
    26.2350  26.2350  27.0258  27.0258  27.7870

          k = 0.0556 0.2778 0.2778 (  7547 PWs)   bands (ev):

   -49.7512 -49.6108 -49.6107 -49.5373 -49.4735 -49.4015 -49.4015 -49.2684
   -20.4613 -20.3211 -20.3211 -20.2444 -20.2444 -20.1888 -20.1203 -20.0988
   -20.0407 -20.0407 -19.9259 -19.9082 -19.2519 -19.2283 -19.1366 -19.1366
   -19.0931 -19.0741 -18.9868 -18.9868 -18.9329 -18.8401 -18.8400 -18.7505
    16.7678  16.9923  16.9923  17.2900  17.7443  17.8320  18.0976  18.0977
    18.2803  18.4110  18.8234  18.8234  18.9179  18.9652  19.2137  19.4619
    19.9613  20.1792  20.1793  20.4717  20.4717  21.2424  21.3201  21.3201
    21.9402  21.9402  22.7409  22.7409  23.0781  23.2086  23.9870  23.9870
    24.0399  24.0746  24.5258  24.7367  24.9445  25.0715  25.1152  25.1152
    25.4463  25.4463  26.3310  26.4668  26.9220

          k = 0.0556 0.2778 0.3889 (  7555 PWs)   bands (ev):

   -49.7186 -49.6439 -49.5790 -49.5059 -49.5058 -49.4336 -49.3707 -49.2998
   -20.4287 -20.3541 -20.2904 -20.2201 -20.2132 -20.1420 -20.0171 -20.0122
   -19.9467 -19.8882 -19.8236 -19.7052 -19.4837 -19.3714 -19.3150 -19.2154
   -19.2110 -19.1609 -19.0605 -19.0095 -18.9113 -18.8619 -18.8192 -18.7716
    17.1267  17.1899  17.5330  17.6405  17.7609  17.8195  18.0847  18.2369
    18.5400  18.7481  18.8516  18.9092  18.9374  18.9855  19.5013  19.5581
    19.9864  20.3828  20.3938  20.5729  20.6940  20.7751  21.0526  21.1935
    21.5538  22.1467  22.8292  22.8293  23.0424  23.0591  23.4368  23.5775
    23.6566  23.9304  24.0455  24.1821  24.2883  24.4521  24.6467  24.9270
    25.0543  25.5273  25.6633  26.0741  27.8306

          k = 0.0556 0.2778-0.5000 (  7540 PWs)   bands (ev):

   -49.6814 -49.6814 -49.5426 -49.5426 -49.4698 -49.4698 -49.3353 -49.3353
   -20.3916 -20.3916 -20.2554 -20.2553 -20.1777 -20.1776 -19.9794 -19.9794
   -19.7533 -19.7533 -19.6327 -19.6327 -19.5719 -19.5719 -19.4607 -19.4607
   -19.1883 -19.1883 -19.0351 -19.0350 -18.8867 -18.8866 -18.7954 -18.7954
    17.4199  17.4199  17.4834  17.4834  18.1992  18.1992  18.2280  18.2280
    18.3001  18.3001  18.6636  18.6636  19.5499  19.5499  19.7815  19.7815
    19.7826  19.7826  20.1650  20.1650  21.0821  21.0822  21.6013  21.6013
    21.6926  21.6926  22.6094  22.6094  22.9337  22.9337  23.1901  23.1901
    23.7182  23.7182  23.7597  23.7597  24.1012  24.1012  24.9706  24.9706
    24.9873  24.9873  25.8570  25.8570  28.6939

          k = 0.0556 0.3889 0.3889 (  7536 PWs)   bands (ev):

   -49.6863 -49.6120 -49.6119 -49.5385 -49.4745 -49.4026 -49.4025 -49.3314
   -20.3967 -20.3231 -20.3230 -20.2517 -19.9876 -19.9876 -19.9356 -19.9026
   -19.7965 -19.7965 -19.7470 -19.7199 -19.4743 -19.4398 -19.3974 -19.3974
   -19.3043 -19.2764 -19.2352 -19.2351 -18.8898 -18.8409 -18.8408 -18.7928
    17.4128  17.6922  17.6923  17.8658  17.9815  17.9815  18.0646  18.5695
    18.6430  18.7157  18.9395  18.9395  18.9814  19.3392  19.9866  20.2697
    20.2728  20.2729  20.4850  20.4850  20.5186  20.8005  20.8005  20.9305
    21.6347  21.6347  22.2296  23.1230  23.1230  23.1641  23.2976  23.3304
    23.6013  23.6013  23.6395  23.6506  24.2475  24.3758  24.3758  24.4643
    24.5209  24.5621  24.5621  25.1395  28.7644

          k = 0.0556 0.3889-0.5000 (  7546 PWs)   bands (ev):

   -49.6492 -49.6492 -49.5754 -49.5754 -49.4386 -49.4386 -49.3671 -49.3671
   -20.3600 -20.3600 -20.2875 -20.2875 -19.9543 -19.9543 -19.7656 -19.7656
   -19.7262 -19.7262 -19.6603 -19.6603 -19.5467 -19.5467 -19.4863 -19.4863
   -19.4264 -19.4264 -19.2622 -19.2622 -18.8654 -18.8654 -18.8169 -18.8169
    17.6995  17.6995  17.8424  17.8424  18.1269  18.1269  18.2581  18.2581
    18.7885  18.7885  18.8180  18.8181  19.5014  19.5014  20.0270  20.0270
    20.2378  20.2378  20.5601  20.5601  20.7018  20.7018  21.2867  21.2867
    21.4640  21.4640  22.3182  22.3182  22.9729  22.9729  23.2406  23.2406
    23.5857  23.5857  23.8272  23.8272  23.8474  23.8474  24.0818  24.0818
    24.4947  24.4947  24.6403  24.6403  29.6524

          k = 0.0556-0.5000-0.5000 (  7544 PWs)   bands (ev):

   -49.6125 -49.6124 -49.6124 -49.6124 -49.4030 -49.4030 -49.4030 -49.4030
   -20.3239 -20.3239 -20.3238 -20.3238 -19.7123 -19.7123 -19.7123 -19.7123
   -19.6742 -19.6742 -19.6742 -19.6742 -19.5322 -19.5322 -19.5322 -19.5322
   -19.5010 -19.5010 -19.5010 -19.5010 -18.8413 -18.8412 -18.8412 -18.8412
    17.9225  17.9226  17.9226  17.9226  18.1753  18.1753  18.1753  18.1753
    18.9305  18.9305  18.9305  18.9305  19.6846  19.6846  19.6846  19.6846
    20.6770  20.6771  20.6771  20.6771  20.9794  20.9794  20.9794  20.9794
    21.7145  21.7145  21.7145  21.7145  23.0228  23.0228  23.0228  23.0228
    23.8236  23.8236  23.8237  23.8237  23.8405  23.8405  23.8406  23.8406
    24.0674  24.0674  24.0674  24.0674  30.5618

          k = 0.1667 0.1667 0.1667 (  7499 PWs)   bands (ev):

   -49.7865 -49.5971 -49.5970 -49.5970 -49.4132 -49.4131 -49.4131 -49.2340
   -20.4217 -20.4217 -20.4217 -20.2390 -20.2389 -20.2389 -20.2300 -20.2300
   -20.2299 -20.0686 -20.0573 -20.0573 -19.0743 -19.0591 -19.0591 -18.9380
   -18.9380 -18.9380 -18.9297 -18.9297 -18.9297 -18.8100 -18.8100 -18.8100
    16.3060  16.6531  16.6531  16.6531  17.5948  17.5948  17.8195  18.2121
    18.2121  18.3920  18.3920  18.3920  18.7411  18.7411  18.7411  19.5621
    19.5621  19.5621  20.7321  20.7321  20.7321  22.0434  22.0434  22.0434
    22.3756  22.3756  22.3756  22.4363  22.4363  22.4363  24.6530  24.6530
    24.6530  24.9029  25.0133  25.0133  25.3217  25.3217  25.3217  25.9880
    25.9880  25.9881  26.7097  26.7097  28.8400

          k = 0.1667 0.1667 0.2778 (  7539 PWs)   bands (ev):

   -49.7625 -49.6218 -49.5737 -49.5737 -49.4372 -49.4371 -49.3904 -49.2574
   -20.3980 -20.3980 -20.2592 -20.2592 -20.2553 -20.2169 -20.2081 -20.0881
   -20.0799 -20.0743 -20.0742 -19.9066 -19.2491 -19.1100 -19.1100 -19.0519
   -19.0427 -18.9790 -18.9550 -18.9466 -18.9178 -18.9178 -18.8261 -18.8261
    16.6637  16.8011  17.0235  17.0235  17.6879  17.7364  18.0829  18.2770
    18.3638  18.4865  18.6040  18.6138  18.6138  19.1804  19.1804  19.4143
    19.4143  20.2090  20.2090  20.2360  20.8130  21.5935  21.6155  21.9249
    21.9250  22.3090  22.3090  22.3694  22.6575  22.6575  23.9663  24.5184
    24.5510  24.9005  24.9005  24.9117  24.9117  25.0314  25.2778  25.4165
    25.4165  25.5117  26.1890  26.6575  28.0466

          k = 0.1667 0.1667 0.3889 (  7547 PWs)   bands (ev):

   -49.7299 -49.6551 -49.5421 -49.5420 -49.4694 -49.4694 -49.3596 -49.2889
   -20.3658 -20.3658 -20.2919 -20.2919 -20.1870 -20.1783 -20.1185 -20.1102
   -20.0274 -19.8555 -19.8555 -19.6960 -19.4923 -19.3427 -19.3427 -19.2026
   -19.0295 -19.0203 -18.9778 -18.9692 -18.8966 -18.8966 -18.8477 -18.8477
    17.0084  17.0718  17.5137  17.5559  17.5559  17.8170  17.9346  18.1293
    18.7342  18.7342  18.8420  19.0214  19.0287  19.0287  19.1734  19.2285
    19.2286  20.4624  20.5191  20.5986  20.5986  20.7308  21.5088  21.9668
    21.9669  22.1932  22.1933  22.6979  22.6979  22.8270  23.5427  23.8812
    23.8812  23.9777  24.0436  24.0983  24.4138  24.4138  25.0865  25.2185
    26.1210  26.1210  26.3529  26.5812  27.4025

          k = 0.1667 0.1667-0.5000 (  7532 PWs)   bands (ev):

   -49.6926 -49.6926 -49.5059 -49.5059 -49.5058 -49.5058 -49.3243 -49.3243
   -20.3290 -20.3290 -20.3290 -20.3290 -20.1528 -20.1528 -20.1443 -20.1443
   -19.7628 -19.7628 -19.6019 -19.6019 -19.6018 -19.6018 -19.4518 -19.4518
   -19.0037 -19.0037 -18.9948 -18.9948 -18.8722 -18.8722 -18.8722 -18.8722
    17.2556  17.2556  17.4976  17.4976  17.9696  17.9696  18.2107  18.2107
    18.2107  18.2107  19.0368  19.0369  19.0369  19.0369  19.7188  19.7188
    19.7505  19.7505  19.8954  19.8954  21.7305  21.7305  21.7305  21.7305
    22.0708  22.0708  22.0708  22.0708  22.6933  22.6933  23.3801  23.3801
    23.6418  23.6418  23.9429  23.9429  23.9429  23.9429  25.1519  25.1519
    26.4808  26.4809  26.7794  26.7794  26.7794

          k = 0.1667 0.2778 0.2778 (  7547 PWs)   bands (ev):

   -49.7385 -49.5984 -49.5984 -49.5504 -49.4613 -49.4144 -49.4143 -49.2810
   -20.3744 -20.2370 -20.2369 -20.2324 -20.2324 -20.1088 -20.1071 -20.0874
   -20.0530 -20.0530 -19.9374 -19.9198 -19.2429 -19.2192 -19.1279 -19.1279
   -19.1027 -19.0835 -19.0305 -18.9959 -18.9959 -18.9347 -18.9347 -18.8423
    17.0185  17.1622  17.1622  17.3587  17.8647  18.0042  18.3267  18.4198
    18.4198  18.6033  18.8637  18.8637  18.9351  19.1374  19.1954  19.2656
    20.0670  20.0670  20.1824  20.4325  20.4325  21.4375  21.5041  21.5041
    21.8902  21.8902  22.2381  22.2381  22.5083  22.6100  24.1049  24.2962
    24.4423  24.4423  24.4818  24.5223  24.6595  24.9055  24.9055  25.0405
    25.1488  25.1488  25.9482  26.1425  26.8754

          k = 0.1667 0.2778 0.3889 (  7534 PWs)   bands (ev):

   -49.7060 -49.6315 -49.5666 -49.5188 -49.4937 -49.4465 -49.3835 -49.3124
   -20.3425 -20.2694 -20.2068 -20.2013 -20.1377 -20.1304 -20.0243 -20.0056
   -19.9584 -19.8773 -19.8353 -19.7163 -19.4738 -19.3620 -19.3252 -19.2208
   -19.2063 -19.1520 -19.0699 -19.0186 -19.0082 -18.9573 -18.9132 -18.8640
    17.3535  17.3943  17.6749  17.7787  17.8249  18.1209  18.2151  18.5244
    18.6073  18.8899  18.9869  19.0182  19.0501  19.0863  19.4711  19.4810
    19.8738  20.3675  20.3747  20.6071  20.6896  20.8495  21.2552  21.3841
    21.5262  22.0965  22.2557  22.4272  22.5543  22.6551  23.6003  23.6441
    23.7533  23.8786  23.9917  24.0228  24.0730  24.3126  24.6674  24.8189
    25.0205  25.3395  25.6628  26.0614  26.8558

          k = 0.1667 0.2778-0.5000 (  7540 PWs)   bands (ev):

   -49.6689 -49.6689 -49.5303 -49.5303 -49.4828 -49.4828 -49.3481 -49.3481
   -20.3061 -20.3061 -20.1724 -20.1724 -20.1659 -20.1659 -19.9914 -19.9913
   -19.7426 -19.7426 -19.6226 -19.6226 -19.5829 -19.5829 -19.4711 -19.4711
   -19.1793 -19.1793 -19.0444 -19.0444 -18.9828 -18.9828 -18.8887 -18.8887
    17.5737  17.5737  17.7645  17.7645  18.2903  18.2903  18.3332  18.3332
    18.3996  18.3996  18.9409  18.9409  19.6746  19.6746  19.6774  19.6774
    19.8049  19.8050  20.1441  20.1442  21.2787  21.2787  21.5816  21.5816
    21.6367  21.6367  22.3444  22.3444  22.5629  22.5629  23.1141  23.1141
    23.6381  23.6381  23.6792  23.6792  23.8393  23.8393  24.7402  24.7402
    25.4936  25.4936  25.5011  25.5011  27.5240

          k = 0.1667 0.3889 0.3889 (  7551 PWs)   bands (ev):

   -49.6737 -49.5996 -49.5995 -49.5263 -49.4875 -49.4155 -49.4154 -49.3441
   -20.3110 -20.2388 -20.2388 -20.1688 -19.9764 -19.9764 -19.9245 -19.8918
   -19.8080 -19.8080 -19.7582 -19.7312 -19.4644 -19.4301 -19.3878 -19.3878
   -19.3146 -19.2864 -19.2450 -19.2450 -18.9862 -18.9356 -18.9356 -18.8860
    17.6958  17.8273  17.8274  17.9845  18.1526  18.2660  18.2661  18.6747
    18.7435  18.9435  19.0119  19.0119  19.1602  19.3787  19.9528  20.1132
    20.2729  20.2729  20.5064  20.5064  20.8070  20.8922  20.8922  20.9016
    21.6018  21.6018  22.1051  22.5952  22.5952  22.6665  23.1700  23.3041
    23.4529  23.5636  23.9201  23.9201  24.1109  24.1798  24.1798  24.2128
    24.3993  24.3993  24.8188  25.0367  27.5892

          k = 0.1667 0.3889-0.5000 (  7546 PWs)   bands (ev):

   -49.6368 -49.6368 -49.5630 -49.5630 -49.4516 -49.4516 -49.3799 -49.3799
   -20.2750 -20.2750 -20.2039 -20.2039 -19.9432 -19.9432 -19.7771 -19.7771
   -19.7156 -19.7156 -19.6500 -19.6500 -19.5576 -19.5576 -19.4969 -19.4969
   -19.4168 -19.4167 -19.2722 -19.2722 -18.9610 -18.9609 -18.9109 -18.9109
    17.9670  17.9670  17.9841  17.9841  18.3417  18.3417  18.3462  18.3462
    18.9021  18.9021  18.9458  18.9458  19.6474  19.6474  20.0547  20.0547
    20.2214  20.2214  20.5314  20.5314  20.8318  20.8318  21.2800  21.2800
    21.4298  21.4298  22.2923  22.2923  22.6336  22.6336  22.8547  22.8547
    23.4630  23.4630  23.6944  23.6944  23.7754  23.7755  24.2585  24.2585
    24.3965  24.3965  24.4771  24.4771  28.2864

          k = 0.1667-0.5000-0.5000 (  7572 PWs)   bands (ev):

   -49.6001 -49.6000 -49.6000 -49.6000 -49.4159 -49.4159 -49.4158 -49.4158
   -20.2396 -20.2396 -20.2396 -20.2396 -19.7019 -19.7019 -19.7018 -19.7018
   -19.6640 -19.6640 -19.6639 -19.6639 -19.5431 -19.5431 -19.5430 -19.5430
   -19.5116 -19.5116 -19.5115 -19.5115 -18.9360 -18.9360 -18.9360 -18.9360
    18.1898  18.1898  18.1898  18.1898  18.2695  18.2695  18.2695  18.2695
    19.0286  19.0286  19.0286  19.0286  19.8305  19.8305  19.8305  19.8305
    20.6921  20.6922  20.6922  20.6922  20.9450  20.9450  20.9451  20.9451
    21.7117  21.7118  21.7118  21.7118  22.7407  22.7407  22.7407  22.7407
    23.6463  23.6463  23.6463  23.6463  23.7544  23.7544  23.7545  23.7545
    24.0440  24.0440  24.0440  24.0440  29.0253

          k = 0.2778 0.2778 0.2778 (  7568 PWs)   bands (ev):

   -49.7146 -49.5751 -49.5750 -49.5750 -49.4385 -49.4384 -49.4384 -49.3045
   -20.2097 -20.2097 -20.2097 -20.0872 -20.0871 -20.0871 -20.0662 -20.0662
   -20.0661 -19.9693 -19.9417 -19.9417 -19.2359 -19.2019 -19.2019 -19.1207
   -19.1207 -19.1207 -19.1012 -19.1012 -19.1011 -19.0130 -19.0130 -19.0130
    17.4082  17.4884  17.4884  17.4884  18.0097  18.4158  18.4158  18.8661
    18.8661  18.8661  18.9802  18.9802  19.0080  19.0080  19.0080  19.8951
    19.8951  19.8951  20.3729  20.3729  20.3729  21.7681  21.7681  21.7681
    21.8023  21.8023  21.8023  21.8272  21.8272  21.8272  24.1590  24.1590
    24.1692  24.3645  24.3645  24.3645  24.5045  24.5045  24.5045  24.9809
    24.9809  25.0939  25.0939  25.0939  27.6316

          k = 0.2778 0.2778 0.3889 (  7535 PWs)   bands (ev):

   -49.6823 -49.6080 -49.5434 -49.5433 -49.4707 -49.4706 -49.4074 -49.3361
   -20.1789 -20.1789 -20.1087 -20.1087 -20.0579 -20.0372 -19.9910 -19.9841
   -19.9710 -19.8570 -19.8569 -19.7369 -19.4554 -19.3444 -19.3443 -19.2390
   -19.1989 -19.1784 -19.1448 -19.1248 -19.0876 -19.0876 -19.0359 -19.0359
    17.6630  17.7942  17.9375  17.9375  18.0041  18.5139  18.5406  18.8067
    18.8067  18.8519  19.1033  19.2854  19.3794  19.3794  19.5252  19.7058
    19.7058  20.3183  20.3399  20.6730  20.6730  20.9990  21.5086  21.6171
    21.6171  21.6867  21.6867  22.0022  22.0023  22.3026  23.5417  23.6804
    23.6804  23.7401  23.7988  23.8759  23.8759  23.9431  24.2446  24.5023
    24.6627  24.8965  25.5984  25.5984  26.7559

          k = 0.2778 0.2778-0.5000 (  7548 PWs)   bands (ev):

   -49.6452 -49.6452 -49.5072 -49.5072 -49.5071 -49.5071 -49.3719 -49.3719
   -20.1439 -20.1439 -20.1439 -20.1439 -20.0244 -20.0244 -20.0043 -20.0043
   -19.7225 -19.7225 -19.6035 -19.6035 -19.6034 -19.6034 -19.4907 -19.4907
   -19.1721 -19.1721 -19.1517 -19.1517 -19.0619 -19.0619 -19.0619 -19.0619
    17.8538  17.8539  18.1557  18.1557  18.4352  18.4352  18.4352  18.4352
    18.6905  18.6905  19.5320  19.5320  19.5320  19.5320  19.8311  19.8311
    19.8688  19.8688  20.2117  20.2117  21.4791  21.4791  21.4791  21.4791
    21.6497  21.6497  21.6497  21.6497  22.4611  22.4612  22.8994  22.8994
    23.4737  23.4737  23.4737  23.4737  23.6365  23.6365  24.3473  24.3473
    24.7905  24.7905  26.1292  26.1292  26.1293

          k = 0.2778 0.3889 0.3889 (  7558 PWs)   bands (ev):

   -49.6501 -49.5762 -49.5761 -49.5118 -49.5031 -49.4396 -49.4395 -49.3679
   -20.1486 -20.0792 -20.0792 -20.0118 -19.9551 -19.9551 -19.9036 -19.8713
   -19.8295 -19.8295 -19.7790 -19.7521 -19.4463 -19.4118 -19.3701 -19.3701
   -19.3338 -19.3051 -19.2635 -19.2635 -19.1646 -19.1113 -19.1113 -19.0590
    18.0738  18.0738  18.1312  18.1818  18.2676  18.6350  18.6350  18.7680
    18.9620  19.2776  19.2776  19.4543  19.5074  19.5358  19.9282  19.9669
    20.2370  20.2370  20.5490  20.5490  20.8422  21.0861  21.0861  21.2138
    21.5640  21.5640  21.7742  21.9981  22.0908  22.0908  23.1358  23.2408
    23.2571  23.4068  23.6730  23.6730  23.6772  23.7596  23.7596  23.9615
    24.1588  24.5876  24.5876  25.6667  26.1757

          k = 0.2778 0.3889-0.5000 (  7544 PWs)   bands (ev):

   -49.6132 -49.6132 -49.5398 -49.5397 -49.4758 -49.4758 -49.4039 -49.4038
   -20.1139 -20.1139 -20.0455 -20.0455 -19.9222 -19.9221 -19.7982 -19.7982
   -19.6957 -19.6957 -19.6307 -19.6307 -19.5779 -19.5778 -19.5166 -19.5166
   -19.3988 -19.3988 -19.2909 -19.2909 -19.1381 -19.1381 -19.0853 -19.0853
    18.1860  18.1860  18.4021  18.4021  18.4917  18.4917  18.5500  18.5500
    19.1563  19.1563  19.4149  19.4149  19.9116  19.9116  20.1127  20.1127
    20.1724  20.1724  20.5131  20.5131  21.0675  21.0675  21.2359  21.2359
    21.4035  21.4035  22.0363  22.0364  22.2451  22.2451  22.6213  22.6213
    23.2066  23.2066  23.2554  23.2554  23.5111  23.5111  23.8854  23.8854
    24.1112  24.1112  24.9902  24.9902  26.7746

          k = 0.2778-0.5000-0.5000 (  7548 PWs)   bands (ev):

   -49.5767 -49.5766 -49.5766 -49.5766 -49.4400 -49.4400 -49.4399 -49.4399
   -20.0798 -20.0798 -20.0797 -20.0797 -19.6821 -19.6821 -19.6820 -19.6820
   -19.6445 -19.6445 -19.6445 -19.6445 -19.5632 -19.5632 -19.5631 -19.5631
   -19.5315 -19.5315 -19.5314 -19.5314 -19.1118 -19.1118 -19.1117 -19.1117
    18.4296  18.4296  18.4296  18.4296  18.5382  18.5382  18.5382  18.5382
    19.3504  19.3504  19.3505  19.3505  20.0933  20.0933  20.0933  20.0933
    20.7113  20.7113  20.7113  20.7113  20.8944  20.8945  20.8945  20.8945
    21.7313  21.7313  21.7313  21.7313  22.3700  22.3700  22.3700  22.3700
    23.2298  23.2298  23.2298  23.2298  23.2689  23.2689  23.2690  23.2690
    24.3372  24.3372  24.3372  24.3372  27.4497

          k = 0.3889 0.3889 0.3889 (  7547 PWs)   bands (ev):

   -49.6181 -49.5445 -49.5444 -49.5444 -49.4719 -49.4718 -49.4718 -49.3999
   -19.9263 -19.9263 -19.9263 -19.8754 -19.8753 -19.8753 -19.8437 -19.8437
   -19.8437 -19.8237 -19.7802 -19.7802 -19.4355 -19.3871 -19.3871 -19.3594
   -19.3594 -19.3594 -19.3303 -19.3303 -19.3302 -19.2882 -19.2882 -19.2882
    18.3649  18.3754  18.3754  18.3754  18.4621  18.7453  18.7453  18.7453
    19.5597  19.5597  19.8243  19.8243  19.8243  20.0001  20.0001  20.1763
    20.1763  20.1763  20.6857  20.6857  20.6857  21.2287  21.2287  21.2288
    21.6162  21.6162  21.6162  21.7365  21.7365  21.7365  23.0253  23.0253
    23.1506  23.1506  23.1506  23.1748  23.1748  23.1748  23.2012  23.2012
    23.9889  24.9962  24.9962  24.9962  26.3150

          k = 0.3889 0.3889-0.5000 (  7546 PWs)   bands (ev):

   -49.5814 -49.5814 -49.5084 -49.5083 -49.5082 -49.5082 -49.4360 -49.4359
   -19.8938 -19.8938 -19.8938 -19.8938 -19.8436 -19.8436 -19.8120 -19.8120
   -19.6693 -19.6693 -19.6049 -19.6048 -19.6048 -19.6047 -19.5429 -19.5429
   -19.3878 -19.3878 -19.3587 -19.3587 -19.3159 -19.3159 -19.3159 -19.3159
    18.4299  18.4300  18.6343  18.6343  18.6343  18.6344  18.6481  18.6481
    19.6861  19.6861  20.1033  20.1033  20.1033  20.1034  20.2110  20.2110
    20.2548  20.2548  20.5976  20.5976  21.0781  21.0781  21.0781  21.0781
    21.6507  21.6507  21.6507  21.6507  22.1604  22.1605  22.3549  22.3549
    22.8384  22.8384  22.8384  22.8384  22.9927  22.9927  23.1551  23.1551
    24.2911  24.2911  25.5324  25.5324  25.5324

          k = 0.3889-0.5000-0.5000 (  7568 PWs)   bands (ev):

   -49.5450 -49.5450 -49.5449 -49.5449 -49.4723 -49.4722 -49.4722 -49.4722
   -19.8618 -19.8617 -19.8617 -19.8617 -19.6559 -19.6559 -19.6558 -19.6558
   -19.6183 -19.6183 -19.6183 -19.6183 -19.5897 -19.5897 -19.5896 -19.5896
   -19.5582 -19.5582 -19.5581 -19.5581 -19.3441 -19.3441 -19.3440 -19.3440
    18.5988  18.5988  18.5988  18.5988  18.7030  18.7030  18.7030  18.7030
    20.0065  20.0066  20.0066  20.0066  20.3974  20.3974  20.3974  20.3974
    20.7061  20.7062  20.7062  20.7062  20.8336  20.8336  20.8336  20.8336
    21.8386  21.8386  21.8386  21.8386  22.0766  22.0766  22.0766  22.0766
    22.6391  22.6391  22.6391  22.6391  22.6872  22.6872  22.6872  22.6872
    24.7288  24.7288  24.7288  24.7288  26.1731

          k =-0.5000-0.5000-0.5000 (  7568 PWs)   bands (ev):

   -49.5089 -49.5087 -49.5087 -49.5087 -49.5087 -49.5086 -49.5086 -49.5086
   -19.6403 -19.6403 -19.6403 -19.6402 -19.6402 -19.6402 -19.6402 -19.6401
   -19.5884 -19.5884 -19.5884 -19.5883 -19.5883 -19.5883 -19.5883 -19.5883
   -19.5883 -19.5883 -19.5883 -19.5882 -19.5882 -19.5882 -19.5882 -19.5882
    18.7067  18.7067  18.7067  18.7068  18.7068  18.7068  18.7068  18.7068
    20.6201  20.6201  20.6201  20.6201  20.6201  20.6201  20.6201  20.6201
    20.6201  20.6201  20.6201  20.6201  20.6201  20.6201  20.6201  20.6201
    22.1354  22.1354  22.1354  22.1354  22.1354  22.1354  22.1354  22.1354
    22.1355  22.1355  22.1355  22.1355  22.1355  22.1355  22.1355  22.1355
    25.2965  25.2965  25.2966  25.2966  25.2966

     the Fermi energy is    23.4983 ev

!    total energy              =   -3452.59341822 Ry

     total all-electron energy =    -72496.691003 Ry
     estimated scf accuracy    <       0.00000075 Ry
     smearing contrib. (-TS)   =      -0.00169811 Ry
     internal energy E=F+TS    =   -3452.59172010 Ry

     The total energy is F=E-TS. E is the sum of the following terms:
     one-electron contribution =    -293.13737157 Ry
     hartree contribution      =     252.16682206 Ry
     xc contribution           =    -233.20974000 Ry
     ewald contribution        =   -1281.03730996 Ry
     one-center paw contrib.   =   -1897.37412063 Ry

     convergence has been achieved in  13 iterations

     Forces acting on atoms (cartesian axes, Ry/au):

     atom    1 type  1   force =     0.00000000    0.00000000    0.00000000
     atom    2 type  1   force =     0.00000000    0.00000000    0.00000000
     atom    3 type  1   force =     0.00000000    0.00000000    0.00000000
     atom    4 type  1   force =     0.00000000    0.00000000    0.00000000
     atom    5 type  1   force =     0.00000000    0.00000000    0.00000000
     atom    6 type  1   force =     0.00000000    0.00000000    0.00000000
     atom    7 type  1   force =     0.00000000    0.00000000    0.00000000
     atom    8 type  1   force =     0.00000000    0.00000000    0.00000000

     Total force =     0.000000     Total SCF correction =     0.000000


     Computing stress (Cartesian axis) and pressure

          total   stress  (Ry/bohr**3)                   (kbar)     P=      410.72
   0.00279199   0.00000000   0.00000000          410.72        0.00        0.00
   0.00000000   0.00279199   0.00000000            0.00      410.72        0.00
   0.00000000   0.00000000   0.00279199            0.00        0.00      410.72


     Writing output data file /scratch/YuFGEVvyVrpWOVHY.save/
 
     init_run     :      1.32s CPU      1.42s WALL (       1 calls)
     electrons    :     37.94s CPU     38.74s WALL (       1 calls)
     forces       :      0.30s CPU      0.30s WALL (       1 calls)
     stress       :      0.48s CPU      0.49s WALL (       1 calls)

     Called by init_run:
     wfcinit      :      0.88s CPU      0.89s WALL (       1 calls)
     potinit      :      0.11s CPU      0.12s WALL (       1 calls)
     hinit0       :      0.11s CPU      0.13s WALL (       1 calls)

     Called by electrons:
     c_bands      :     31.45s CPU     32.05s WALL (      14 calls)
     sum_band     :      5.15s CPU      5.28s WALL (      14 calls)
     v_of_rho     :      0.19s CPU      0.20s WALL (      14 calls)
     newd         :      0.13s CPU      0.14s WALL (      14 calls)
     PAW_pot      :      0.81s CPU      0.84s WALL (      14 calls)
     mix_rho      :      0.11s CPU      0.12s WALL (      14 calls)

     Called by c_bands:
     init_us_2    :      0.07s CPU      0.08s WALL (    1085 calls)
     cegterg      :     30.95s CPU     31.54s WALL (     490 calls)

     Called by *egterg:
     cdiaghg      :      6.65s CPU      6.69s WALL (    1404 calls)
     h_psi        :     17.53s CPU     18.04s WALL (    1474 calls)
     s_psi        :      0.24s CPU      0.25s WALL (    1474 calls)
     g_psi        :      0.02s CPU      0.02s WALL (     949 calls)

     Called by h_psi:
     h_psi:calbec :      1.66s CPU      1.69s WALL (    1474 calls)
     vloc_psi     :     15.42s CPU     15.88s WALL (    1474 calls)
     add_vuspsi   :      0.42s CPU      0.42s WALL (    1474 calls)

     General routines
     calbec       :      2.76s CPU      2.80s WALL (    2139 calls)
     fft          :      0.26s CPU      0.28s WALL (     206 calls)
     ffts         :      0.02s CPU      0.02s WALL (      28 calls)
     fftw         :     18.94s CPU     19.48s WALL (  219228 calls)
     interpolate  :      0.04s CPU      0.04s WALL (      14 calls)
 
     Parallel routines
     fft_scatt_xy :      1.00s CPU      1.03s WALL (  219462 calls)
     fft_scatt_yz :     15.19s CPU     15.62s WALL (  219462 calls)
 
     PWSCF        :     43.91s CPU     45.32s WALL

 
   This run was terminated on:   1:15: 4  26Nov2021            

=------------------------------------------------------------------------------=
   JOB DONE.
=------------------------------------------------------------------------------=
