
     Program PWSCF v.6.7MaX starts on 26Nov2021 at  1:38:19 

     This program is part of the open-source Quantum ESPRESSO suite
     for quantum simulation of materials; please cite
         "P. Giannozzi et al., J. Phys.:Condens. Matter 21 395502 (2009);
         "P. Giannozzi et al., J. Phys.:Condens. Matter 29 465901 (2017);
          URL http://www.quantum-espresso.org", 
     in publications or presentations arising from this work. More details at
     http://www.quantum-espresso.org/quote

     Parallel version (MPI & OpenMP), running on      72 processor cores
     Number of MPI processes:                72
     Threads/MPI process:                     1

     MPI processes distributed on     1 nodes
     R & G space division:  proc/nbgrp/npool/nimage =      72
     Reading input from sc_11.in
Warning: card &CELL ignored
Warning: card CELL_DYNAMICS = 'BFGS', ignored
Warning: card CELL_FACTOR = 2.0, ignored
Warning: card PRESS = 0.0, ignored
Warning: card / ignored

     Current dimensions of program PWSCF are:
     Max number of different atomic species (ntypx) = 10
     Max number of k-points (npk) =  40000
     Max angular momentum in pseudopotentials (lmaxx) =  3
     file Ru.pbe-spn-kjpaw_psl.1.0.0.UPF: wavefunction(s)  4D renormalized

     Subspace diagonalization in iterative solution of the eigenvalue problem:
     one sub-group per band group will be used
     ELPA distributed-memory algorithm (size of sub-group:  8*  8 procs)

     Found symmetry operation: I + (  0.0000  0.0000 -0.5000)
     This is a supercell, fractional translations are disabled
     Message from routine setup:
     using ibrav=0 with symmetry is DISCOURAGED, use correct ibrav instead
 
     Parallelization info
     --------------------
     sticks:   dense  smooth     PW     G-vecs:    dense   smooth      PW
     Min         156     103     27                12486     6697     927
     Max         157     104     28                12491     6704     934
     Sum       11245    7433   2001               899139   482385   67043
 


     bravais-lattice index     =            0
     lattice parameter (alat)  =       9.0720  a.u.
     unit-cell volume          =    5973.0907 (a.u.)^3
     number of atoms/cell      =            8
     number of atomic types    =            1
     number of electrons       =       128.00
     number of Kohn-Sham states=           77
     kinetic-energy cutoff     =      71.0000  Ry
     charge density cutoff     =     430.0000  Ry
     scf convergence threshold =      1.0E-06
     mixing beta               =       0.1000
     number of iterations used =           10  TF        mixing
     Exchange-correlation= SLA  PW   PBX  PBC
                           (   1   4   3   4   0   0   0)

     celldm(1)=   9.072000  celldm(2)=   0.000000  celldm(3)=   0.000000
     celldm(4)=   0.000000  celldm(5)=   0.000000  celldm(6)=   0.000000

     crystal axes: (cart. coord. in units of alat)
               a(1) = (   2.000000   0.000000   0.000000 )  
               a(2) = (   0.000000   2.000000   0.000000 )  
               a(3) = (   0.000000   0.000000   2.000000 )  

     reciprocal axes: (cart. coord. in units 2 pi/alat)
               b(1) = (  0.500000  0.000000  0.000000 )  
               b(2) = (  0.000000  0.500000  0.000000 )  
               b(3) = (  0.000000  0.000000  0.500000 )  


     PseudoPot. # 1 for Ru read from file:
     /rds/homes/b/bxp912/pp/Ru.pbe-spn-kjpaw_psl.1.0.0.UPF
     MD5 check sum: 0ae1f594dea09af7be8575c3a481d1ae
     Pseudo is Projector augmented-wave + core cor, Zval = 16.0
     Generated using "atomic" code by A. Dal Corso  v.5.1
     Shape of augmentation charge: PSQ
     Using radial grid of 1233 points,  6 beta functions with: 
                l(1) =   0
                l(2) =   0
                l(3) =   1
                l(4) =   1
                l(5) =   2
                l(6) =   2
     Q(r) pseudized with 0 coefficients 


     atomic species   valence    mass     pseudopotential
        Ru            16.00   101.07000     Ru( 1.00)

     48 Sym. Ops., with inversion, found



   Cartesian axes

     site n.     atom                  positions (alat units)
         1           Ru  tau(   1) = (   0.0000000   0.0000000   0.0000000  )
         2           Ru  tau(   2) = (   0.0000000   0.0000000   1.0000000  )
         3           Ru  tau(   3) = (   0.0000000   1.0000000   0.0000000  )
         4           Ru  tau(   4) = (   0.0000000   1.0000000   1.0000000  )
         5           Ru  tau(   5) = (   1.0000000   0.0000000   0.0000000  )
         6           Ru  tau(   6) = (   1.0000000   0.0000000   1.0000000  )
         7           Ru  tau(   7) = (   1.0000000   1.0000000   0.0000000  )
         8           Ru  tau(   8) = (   1.0000000   1.0000000   1.0000000  )

     number of k points=    35  Marzari-Vanderbilt smearing, width (Ry)=  0.0400
                       cart. coord. in units 2pi/alat
        k(    1) = (   0.0277778   0.0277778   0.0277778), wk =   0.0219479
        k(    2) = (   0.0277778   0.0277778   0.0833333), wk =   0.0658436
        k(    3) = (   0.0277778   0.0277778   0.1388889), wk =   0.0658436
        k(    4) = (   0.0277778   0.0277778   0.1944444), wk =   0.0658436
        k(    5) = (   0.0277778   0.0277778  -0.2500000), wk =   0.0329218
        k(    6) = (   0.0277778   0.0833333   0.0833333), wk =   0.0658436
        k(    7) = (   0.0277778   0.0833333   0.1388889), wk =   0.1316872
        k(    8) = (   0.0277778   0.0833333   0.1944444), wk =   0.1316872
        k(    9) = (   0.0277778   0.0833333  -0.2500000), wk =   0.0658436
        k(   10) = (   0.0277778   0.1388889   0.1388889), wk =   0.0658436
        k(   11) = (   0.0277778   0.1388889   0.1944444), wk =   0.1316872
        k(   12) = (   0.0277778   0.1388889  -0.2500000), wk =   0.0658436
        k(   13) = (   0.0277778   0.1944444   0.1944444), wk =   0.0658436
        k(   14) = (   0.0277778   0.1944444  -0.2500000), wk =   0.0658436
        k(   15) = (   0.0277778  -0.2500000  -0.2500000), wk =   0.0164609
        k(   16) = (   0.0833333   0.0833333   0.0833333), wk =   0.0219479
        k(   17) = (   0.0833333   0.0833333   0.1388889), wk =   0.0658436
        k(   18) = (   0.0833333   0.0833333   0.1944444), wk =   0.0658436
        k(   19) = (   0.0833333   0.0833333  -0.2500000), wk =   0.0329218
        k(   20) = (   0.0833333   0.1388889   0.1388889), wk =   0.0658436
        k(   21) = (   0.0833333   0.1388889   0.1944444), wk =   0.1316872
        k(   22) = (   0.0833333   0.1388889  -0.2500000), wk =   0.0658436
        k(   23) = (   0.0833333   0.1944444   0.1944444), wk =   0.0658436
        k(   24) = (   0.0833333   0.1944444  -0.2500000), wk =   0.0658436
        k(   25) = (   0.0833333  -0.2500000  -0.2500000), wk =   0.0164609
        k(   26) = (   0.1388889   0.1388889   0.1388889), wk =   0.0219479
        k(   27) = (   0.1388889   0.1388889   0.1944444), wk =   0.0658436
        k(   28) = (   0.1388889   0.1388889  -0.2500000), wk =   0.0329218
        k(   29) = (   0.1388889   0.1944444   0.1944444), wk =   0.0658436
        k(   30) = (   0.1388889   0.1944444  -0.2500000), wk =   0.0658436
        k(   31) = (   0.1388889  -0.2500000  -0.2500000), wk =   0.0164609
        k(   32) = (   0.1944444   0.1944444   0.1944444), wk =   0.0219479
        k(   33) = (   0.1944444   0.1944444  -0.2500000), wk =   0.0329218
        k(   34) = (   0.1944444  -0.2500000  -0.2500000), wk =   0.0164609
        k(   35) = (  -0.2500000  -0.2500000  -0.2500000), wk =   0.0027435

     Dense  grid:   899139 G-vectors     FFT dimensions: ( 120, 120, 120)

     Smooth grid:   482385 G-vectors     FFT dimensions: ( 100, 100, 100)

     Estimated max dynamical RAM per process >      86.60 MB

     Estimated total dynamical RAM >       6.09 GB

     Initial potential from superposition of free atoms

     starting charge  127.99490, renormalised to  128.00000
     Starting wfcs are   80 randomized atomic wfcs
     Checking if some PAW data can be deallocated... 

     total cpu time spent up to now is        7.4 secs

     Self-consistent Calculation

     iteration #  1     ecut=    71.00 Ry     beta= 0.10
     Davidson diagonalization with overlap
     ethr =  1.00E-02,  avg # of iterations =  2.0

     total cpu time spent up to now is       15.3 secs

     total energy              =   -3449.60810019 Ry
     estimated scf accuracy    <       4.87191411 Ry

     iteration #  2     ecut=    71.00 Ry     beta= 0.10
     Davidson diagonalization with overlap
     ethr =  3.81E-03,  avg # of iterations =  1.0

     total cpu time spent up to now is       23.3 secs

     total energy              =   -3448.99281095 Ry
     estimated scf accuracy    <       3.82082216 Ry

     iteration #  3     ecut=    71.00 Ry     beta= 0.10
     Davidson diagonalization with overlap
     ethr =  2.99E-03,  avg # of iterations =  1.0

     total cpu time spent up to now is       30.1 secs

     total energy              =   -3448.25764813 Ry
     estimated scf accuracy    <       8.43153343 Ry

     iteration #  4     ecut=    71.00 Ry     beta= 0.10
     Davidson diagonalization with overlap
     ethr =  2.99E-03,  avg # of iterations =  2.0

     total cpu time spent up to now is       40.2 secs

     total energy              =   -3448.86185654 Ry
     estimated scf accuracy    <       2.67234749 Ry

     iteration #  5     ecut=    71.00 Ry     beta= 0.10
     Davidson diagonalization with overlap
     ethr =  2.09E-03,  avg # of iterations =  1.0

     total cpu time spent up to now is       49.5 secs

     total energy              =   -3448.54311601 Ry
     estimated scf accuracy    <       0.66801882 Ry

     iteration #  6     ecut=    71.00 Ry     beta= 0.10
     Davidson diagonalization with overlap
     ethr =  5.22E-04,  avg # of iterations =  2.1

     total cpu time spent up to now is       59.4 secs

     total energy              =   -3449.07425460 Ry
     estimated scf accuracy    <       1.83480194 Ry

     iteration #  7     ecut=    71.00 Ry     beta= 0.10
     Davidson diagonalization with overlap
     ethr =  5.22E-04,  avg # of iterations =  1.0

     total cpu time spent up to now is       68.2 secs

     total energy              =   -3448.90078230 Ry
     estimated scf accuracy    <       1.75738553 Ry

     iteration #  8     ecut=    71.00 Ry     beta= 0.10
     Davidson diagonalization with overlap
     ethr =  5.22E-04,  avg # of iterations =  1.0

     total cpu time spent up to now is       76.0 secs

     total energy              =   -3448.88762990 Ry
     estimated scf accuracy    <       0.97269063 Ry

     iteration #  9     ecut=    71.00 Ry     beta= 0.10
     Davidson diagonalization with overlap
     ethr =  5.22E-04,  avg # of iterations =  1.0

     total cpu time spent up to now is       84.3 secs

     total energy              =   -3448.85297849 Ry
     estimated scf accuracy    <       0.71227542 Ry

     iteration # 10     ecut=    71.00 Ry     beta= 0.10
     Davidson diagonalization with overlap
     ethr =  5.22E-04,  avg # of iterations =  1.0

     total cpu time spent up to now is       91.3 secs

     total energy              =   -3448.82815321 Ry
     estimated scf accuracy    <       0.54008981 Ry

     iteration # 11     ecut=    71.00 Ry     beta= 0.10
     Davidson diagonalization with overlap
     ethr =  4.22E-04,  avg # of iterations =  1.0

     total cpu time spent up to now is       98.6 secs

     total energy              =   -3448.83099054 Ry
     estimated scf accuracy    <       0.33570714 Ry

     iteration # 12     ecut=    71.00 Ry     beta= 0.10
     Davidson diagonalization with overlap
     ethr =  2.62E-04,  avg # of iterations =  1.0

     total cpu time spent up to now is      106.5 secs

     total energy              =   -3448.77093557 Ry
     estimated scf accuracy    <       0.33326453 Ry

     iteration # 13     ecut=    71.00 Ry     beta= 0.10
     Davidson diagonalization with overlap
     ethr =  2.60E-04,  avg # of iterations =  1.1

     total cpu time spent up to now is      114.6 secs

     total energy              =   -3448.79205056 Ry
     estimated scf accuracy    <       0.15822353 Ry

     iteration # 14     ecut=    71.00 Ry     beta= 0.10
     Davidson diagonalization with overlap
     ethr =  1.24E-04,  avg # of iterations =  2.9

     total cpu time spent up to now is      123.5 secs

     total energy              =   -3448.77867871 Ry
     estimated scf accuracy    <       0.51675200 Ry

     iteration # 15     ecut=    71.00 Ry     beta= 0.10
     Davidson diagonalization with overlap
     ethr =  1.24E-04,  avg # of iterations =  1.5

     total cpu time spent up to now is      131.4 secs

     total energy              =   -3448.79655065 Ry
     estimated scf accuracy    <       0.00176876 Ry

     iteration # 16     ecut=    71.00 Ry     beta= 0.10
     Davidson diagonalization with overlap
     ethr =  1.38E-06,  avg # of iterations =  6.1

     total cpu time spent up to now is      147.9 secs

     total energy              =   -3448.80376111 Ry
     estimated scf accuracy    <       0.06196689 Ry

     iteration # 17     ecut=    71.00 Ry     beta= 0.10
     Davidson diagonalization with overlap
     ethr =  1.38E-06,  avg # of iterations =  1.0

     total cpu time spent up to now is      155.0 secs

     total energy              =   -3448.78926998 Ry
     estimated scf accuracy    <       0.05180569 Ry

     iteration # 18     ecut=    71.00 Ry     beta= 0.10
     Davidson diagonalization with overlap
     ethr =  1.38E-06,  avg # of iterations =  6.8

     total cpu time spent up to now is      170.1 secs

     total energy              =   -3448.79656873 Ry
     estimated scf accuracy    <       0.00143030 Ry

     iteration # 19     ecut=    71.00 Ry     beta= 0.10
     Davidson diagonalization with overlap
     ethr =  1.12E-06,  avg # of iterations =  5.1

     total cpu time spent up to now is      180.8 secs

     total energy              =   -3448.79684069 Ry
     estimated scf accuracy    <       0.00248570 Ry

     iteration # 20     ecut=    71.00 Ry     beta= 0.10
     Davidson diagonalization with overlap
     ethr =  1.12E-06,  avg # of iterations =  2.0

     total cpu time spent up to now is      188.8 secs

     total energy              =   -3448.79713277 Ry
     estimated scf accuracy    <       0.00008583 Ry

     iteration # 21     ecut=    71.00 Ry     beta= 0.10
     Davidson diagonalization with overlap
     ethr =  6.71E-08,  avg # of iterations =  6.1

     total cpu time spent up to now is      201.0 secs

     total energy              =   -3448.79716937 Ry
     estimated scf accuracy    <       0.00010351 Ry

     iteration # 22     ecut=    71.00 Ry     beta= 0.10
     Davidson diagonalization with overlap
     ethr =  6.71E-08,  avg # of iterations =  2.0

     total cpu time spent up to now is      213.0 secs

     total energy              =   -3448.79715173 Ry
     estimated scf accuracy    <       0.00011909 Ry

     iteration # 23     ecut=    71.00 Ry     beta= 0.10
     Davidson diagonalization with overlap
     ethr =  6.71E-08,  avg # of iterations =  2.0

     total cpu time spent up to now is      223.4 secs

     total energy              =   -3448.79716272 Ry
     estimated scf accuracy    <       0.00005946 Ry

     iteration # 24     ecut=    71.00 Ry     beta= 0.10
     Davidson diagonalization with overlap
     ethr =  4.65E-08,  avg # of iterations =  1.1

     total cpu time spent up to now is      231.0 secs

     total energy              =   -3448.79716503 Ry
     estimated scf accuracy    <       0.00001281 Ry

     iteration # 25     ecut=    71.00 Ry     beta= 0.10
     Davidson diagonalization with overlap
     c_bands:  1 eigenvalues not converged
     ethr =  1.00E-08,  avg # of iterations =  2.4

     total cpu time spent up to now is      239.3 secs

     total energy              =   -3448.79716601 Ry
     estimated scf accuracy    <       0.00000997 Ry

     iteration # 26     ecut=    71.00 Ry     beta= 0.10
     Davidson diagonalization with overlap
     c_bands:  1 eigenvalues not converged
     ethr =  7.79E-09,  avg # of iterations =  3.9

     total cpu time spent up to now is      247.7 secs

     total energy              =   -3448.79716736 Ry
     estimated scf accuracy    <       0.00000579 Ry

     iteration # 27     ecut=    71.00 Ry     beta= 0.10
     Davidson diagonalization with overlap
     ethr =  4.52E-09,  avg # of iterations =  1.9

     total cpu time spent up to now is      255.9 secs

     total energy              =   -3448.79716701 Ry
     estimated scf accuracy    <       0.00000413 Ry

     iteration # 28     ecut=    71.00 Ry     beta= 0.10
     Davidson diagonalization with overlap
     ethr =  3.23E-09,  avg # of iterations =  2.0

     total cpu time spent up to now is      264.6 secs

     total energy              =   -3448.79716726 Ry
     estimated scf accuracy    <       0.00000450 Ry

     iteration # 29     ecut=    71.00 Ry     beta= 0.10
     Davidson diagonalization with overlap
     ethr =  3.23E-09,  avg # of iterations =  1.0

     total cpu time spent up to now is      271.9 secs

     total energy              =   -3448.79716719 Ry
     estimated scf accuracy    <       0.00000464 Ry

     iteration # 30     ecut=    71.00 Ry     beta= 0.10
     Davidson diagonalization with overlap
     ethr =  3.23E-09,  avg # of iterations =  1.0

     total cpu time spent up to now is      280.3 secs

     total energy              =   -3448.79716725 Ry
     estimated scf accuracy    <       0.00000498 Ry

     iteration # 31     ecut=    71.00 Ry     beta= 0.10
     Davidson diagonalization with overlap
     ethr =  3.23E-09,  avg # of iterations =  1.0

     total cpu time spent up to now is      288.5 secs

     total energy              =   -3448.79716709 Ry
     estimated scf accuracy    <       0.00000525 Ry

     iteration # 32     ecut=    71.00 Ry     beta= 0.10
     Davidson diagonalization with overlap
     ethr =  3.23E-09,  avg # of iterations =  1.0

     total cpu time spent up to now is      295.6 secs

     total energy              =   -3448.79716727 Ry
     estimated scf accuracy    <       0.00000449 Ry

     iteration # 33     ecut=    71.00 Ry     beta= 0.10
     Davidson diagonalization with overlap
     ethr =  3.23E-09,  avg # of iterations =  1.0

     total cpu time spent up to now is      302.7 secs

     total energy              =   -3448.79716750 Ry
     estimated scf accuracy    <       0.00000434 Ry

     iteration # 34     ecut=    71.00 Ry     beta= 0.10
     Davidson diagonalization with overlap
     ethr =  3.23E-09,  avg # of iterations =  1.0

     total cpu time spent up to now is      310.3 secs

     total energy              =   -3448.79716850 Ry
     estimated scf accuracy    <       0.00000412 Ry

     iteration # 35     ecut=    71.00 Ry     beta= 0.10
     Davidson diagonalization with overlap
     ethr =  3.22E-09,  avg # of iterations =  2.0

     total cpu time spent up to now is      318.2 secs

     total energy              =   -3448.79716822 Ry
     estimated scf accuracy    <       0.00000142 Ry

     iteration # 36     ecut=    71.00 Ry     beta= 0.10
     Davidson diagonalization with overlap
     ethr =  1.11E-09,  avg # of iterations =  6.6

     total cpu time spent up to now is      329.1 secs

     total energy              =   -3448.79716857 Ry
     estimated scf accuracy    <       0.00000209 Ry

     iteration # 37     ecut=    71.00 Ry     beta= 0.10
     Davidson diagonalization with overlap
     ethr =  1.11E-09,  avg # of iterations =  1.0

     total cpu time spent up to now is      335.7 secs

     total energy              =   -3448.79716868 Ry
     estimated scf accuracy    <       0.00000251 Ry

     iteration # 38     ecut=    71.00 Ry     beta= 0.10
     Davidson diagonalization with overlap
     ethr =  1.11E-09,  avg # of iterations =  1.0

     total cpu time spent up to now is      343.3 secs

     total energy              =   -3448.79716864 Ry
     estimated scf accuracy    <       0.00000253 Ry

     iteration # 39     ecut=    71.00 Ry     beta= 0.10
     Davidson diagonalization with overlap
     ethr =  1.11E-09,  avg # of iterations =  1.0

     total cpu time spent up to now is      351.5 secs

     total energy              =   -3448.79716867 Ry
     estimated scf accuracy    <       0.00000242 Ry

     iteration # 40     ecut=    71.00 Ry     beta= 0.10
     Davidson diagonalization with overlap
     ethr =  1.11E-09,  avg # of iterations =  1.0

     total cpu time spent up to now is      358.5 secs

     total energy              =   -3448.79716871 Ry
     estimated scf accuracy    <       0.00000250 Ry

     iteration # 41     ecut=    71.00 Ry     beta= 0.10
     Davidson diagonalization with overlap
     ethr =  1.11E-09,  avg # of iterations =  1.0

     total cpu time spent up to now is      365.5 secs

     total energy              =   -3448.79716871 Ry
     estimated scf accuracy    <       0.00000260 Ry

     iteration # 42     ecut=    71.00 Ry     beta= 0.10
     Davidson diagonalization with overlap
     ethr =  1.11E-09,  avg # of iterations =  1.0

     total cpu time spent up to now is      372.7 secs

     total energy              =   -3448.79716875 Ry
     estimated scf accuracy    <       0.00000295 Ry

     iteration # 43     ecut=    71.00 Ry     beta= 0.10
     Davidson diagonalization with overlap
     ethr =  1.11E-09,  avg # of iterations =  1.0

     total cpu time spent up to now is      381.1 secs

     total energy              =   -3448.79716857 Ry
     estimated scf accuracy    <       0.00000276 Ry

     iteration # 44     ecut=    71.00 Ry     beta= 0.10
     Davidson diagonalization with overlap
     ethr =  1.11E-09,  avg # of iterations =  1.0

     total cpu time spent up to now is      388.4 secs

     total energy              =   -3448.79716897 Ry
     estimated scf accuracy    <       0.00000248 Ry

     iteration # 45     ecut=    71.00 Ry     beta= 0.10
     Davidson diagonalization with overlap
     ethr =  1.11E-09,  avg # of iterations =  2.0

     total cpu time spent up to now is      396.0 secs

     total energy              =   -3448.79716901 Ry
     estimated scf accuracy    <       0.00000328 Ry

     iteration # 46     ecut=    71.00 Ry     beta= 0.10
     Davidson diagonalization with overlap
     ethr =  1.11E-09,  avg # of iterations =  1.0

     total cpu time spent up to now is      403.7 secs

     total energy              =   -3448.79716844 Ry
     estimated scf accuracy    <       0.00000299 Ry

     iteration # 47     ecut=    71.00 Ry     beta= 0.10
     Davidson diagonalization with overlap
     ethr =  1.11E-09,  avg # of iterations =  2.0

     total cpu time spent up to now is      412.0 secs

     total energy              =   -3448.79716821 Ry
     estimated scf accuracy    <       0.00000101 Ry

     iteration # 48     ecut=    71.00 Ry     beta= 0.10
     Davidson diagonalization with overlap
     ethr =  7.87E-10,  avg # of iterations =  1.6

     total cpu time spent up to now is      419.3 secs

     End of self-consistent calculation

          k = 0.0278 0.0278 0.0278 ( 60421 PWs)   bands (ev):

   -71.9735 -71.9727 -71.9722 -71.9722 -71.9722 -71.9715 -71.9715 -71.9715
   -42.0537 -42.0537 -42.0537 -42.0532 -42.0531 -42.0531 -42.0527 -42.0527
   -42.0527 -42.0527 -42.0527 -42.0527 -42.0526 -42.0526 -42.0526 -42.0522
   -42.0522 -42.0522 -42.0521 -42.0521 -42.0521 -42.0521 -42.0521 -42.0521
    -1.6577  -1.2478  -1.2478  -1.2475  -1.1964  -1.1964  -1.1730  -1.1729
    -1.1729  -1.1590  -1.1590  -1.1590  -1.1464  -1.1464  -1.1464  -1.1151
    -1.1143  -1.1143  -1.0000  -1.0000  -0.9999  -0.9993  -0.9993  -0.9993
    -0.9872  -0.9872  -0.9872  -0.9871  -0.9871  -0.9871  -0.9185  -0.9183
    -0.9183  -0.9113  -0.9113  -0.9113  -0.8387  -0.8387  -0.8387  -0.8335
    -0.8335  -0.3948  -0.3948  -0.3945   0.3596

          k = 0.0278 0.0278 0.0833 ( 60427 PWs)   bands (ev):

   -71.9736 -71.9727 -71.9722 -71.9722 -71.9722 -71.9715 -71.9715 -71.9715
   -42.0537 -42.0537 -42.0537 -42.0532 -42.0532 -42.0531 -42.0527 -42.0527
   -42.0527 -42.0527 -42.0527 -42.0527 -42.0526 -42.0526 -42.0526 -42.0522
   -42.0522 -42.0522 -42.0521 -42.0521 -42.0521 -42.0521 -42.0521 -42.0521
    -1.6219  -1.2575  -1.2274  -1.2272  -1.1950  -1.1855  -1.1744  -1.1630
    -1.1629  -1.1612  -1.1612  -1.1445  -1.1386  -1.1386  -1.1382  -1.1166
    -1.1076  -1.1073  -1.0098  -1.0098  -0.9988  -0.9988  -0.9956  -0.9955
    -0.9952  -0.9945  -0.9880  -0.9879  -0.9827  -0.9827  -0.9234  -0.9233
    -0.9179  -0.9159  -0.9159  -0.9117  -0.8542  -0.8541  -0.8512  -0.8384
    -0.8338  -0.5225  -0.3788  -0.3785   0.2501

          k = 0.0278 0.0278 0.1389 ( 60354 PWs)   bands (ev):

   -71.9735 -71.9727 -71.9722 -71.9721 -71.9721 -71.9715 -71.9715 -71.9715
   -42.0537 -42.0537 -42.0537 -42.0531 -42.0531 -42.0531 -42.0527 -42.0527
   -42.0527 -42.0527 -42.0527 -42.0527 -42.0526 -42.0526 -42.0526 -42.0522
   -42.0522 -42.0522 -42.0521 -42.0521 -42.0521 -42.0521 -42.0521 -42.0521
    -1.5546  -1.2791  -1.2027  -1.2026  -1.1923  -1.1770  -1.1654  -1.1654
    -1.1609  -1.1409  -1.1311  -1.1309  -1.1236  -1.1236  -1.1202  -1.0994
    -1.0941  -1.0938  -1.0282  -1.0282  -1.0110  -1.0109  -0.9974  -0.9974
    -0.9894  -0.9893  -0.9864  -0.9856  -0.9743  -0.9743  -0.9328  -0.9327
    -0.9247  -0.9247  -0.9171  -0.9125  -0.8862  -0.8862  -0.8854  -0.8378
    -0.8344  -0.7070  -0.3440  -0.3437   0.0902

          k = 0.0278 0.0278 0.1944 ( 60317 PWs)   bands (ev):

   -71.9735 -71.9727 -71.9721 -71.9721 -71.9721 -71.9715 -71.9715 -71.9715
   -42.0537 -42.0537 -42.0536 -42.0531 -42.0531 -42.0531 -42.0527 -42.0527
   -42.0527 -42.0527 -42.0527 -42.0526 -42.0526 -42.0526 -42.0526 -42.0522
   -42.0522 -42.0522 -42.0521 -42.0521 -42.0521 -42.0521 -42.0521 -42.0521
    -1.4669  -1.3174  -1.1888  -1.1881  -1.1881  -1.1806  -1.1713  -1.1713
    -1.1361  -1.1251  -1.1142  -1.1028  -1.1028  -1.0756  -1.0752  -1.0717
    -1.0716  -1.0516  -1.0516  -1.0479  -1.0312  -1.0309  -0.9955  -0.9955
    -0.9912  -0.9912  -0.9749  -0.9734  -0.9632  -0.9632  -0.9453  -0.9452
    -0.9364  -0.9364  -0.9356  -0.9356  -0.9332  -0.9160  -0.9136  -0.8867
    -0.8369  -0.8352  -0.2848  -0.2845  -0.0665

          k = 0.0278 0.0278-0.2500 ( 60400 PWs)   bands (ev):

   -71.9735 -71.9727 -71.9722 -71.9722 -71.9721 -71.9715 -71.9715 -71.9715
   -42.0537 -42.0537 -42.0537 -42.0532 -42.0532 -42.0531 -42.0527 -42.0527
   -42.0527 -42.0527 -42.0527 -42.0527 -42.0527 -42.0526 -42.0526 -42.0522
   -42.0522 -42.0522 -42.0521 -42.0521 -42.0521 -42.0521 -42.0521 -42.0521
    -1.3806  -1.3805  -1.1847  -1.1847  -1.1788  -1.1787  -1.1787  -1.1787
    -1.1306  -1.1306  -1.0782  -1.0782  -1.0782  -1.0782  -1.0539  -1.0539
    -1.0535  -1.0535  -1.0287  -1.0287  -1.0008  -1.0008  -1.0007  -1.0006
    -0.9934  -0.9934  -0.9933  -0.9933  -0.9894  -0.9894  -0.9595  -0.9594
    -0.9586  -0.9586  -0.9496  -0.9496  -0.9495  -0.9495  -0.9148  -0.9148
    -0.8361  -0.8360  -0.1938  -0.1936  -0.1935

          k = 0.0278 0.0833 0.0833 ( 60348 PWs)   bands (ev):

   -71.9735 -71.9727 -71.9721 -71.9721 -71.9721 -71.9715 -71.9715 -71.9715
   -42.0537 -42.0537 -42.0537 -42.0531 -42.0531 -42.0531 -42.0527 -42.0527
   -42.0527 -42.0527 -42.0527 -42.0527 -42.0526 -42.0526 -42.0526 -42.0522
   -42.0522 -42.0522 -42.0521 -42.0521 -42.0521 -42.0521 -42.0521 -42.0521
    -1.5859  -1.2362  -1.2360  -1.2039  -1.1886  -1.1801  -1.1646  -1.1645
    -1.1635  -1.1566  -1.1404  -1.1404  -1.1367  -1.1367  -1.1310  -1.1115
    -1.1073  -1.1005  -1.0116  -1.0061  -1.0049  -1.0049  -0.9964  -0.9964
    -0.9941  -0.9941  -0.9909  -0.9909  -0.9839  -0.9830  -0.9285  -0.9234
    -0.9224  -0.9208  -0.9164  -0.9164  -0.8677  -0.8595  -0.8536  -0.8536
    -0.8432  -0.5062  -0.5060  -0.3619   0.1387

          k = 0.0278 0.0833 0.1389 ( 60348 PWs)   bands (ev):

   -71.9735 -71.9727 -71.9722 -71.9721 -71.9721 -71.9715 -71.9715 -71.9715
   -42.0537 -42.0537 -42.0537 -42.0531 -42.0531 -42.0531 -42.0527 -42.0527
   -42.0527 -42.0527 -42.0527 -42.0527 -42.0526 -42.0526 -42.0526 -42.0522
   -42.0522 -42.0522 -42.0521 -42.0521 -42.0521 -42.0521 -42.0521 -42.0521
    -1.5181  -1.2553  -1.2089  -1.1840  -1.1762  -1.1680  -1.1675  -1.1581
    -1.1444  -1.1338  -1.1333  -1.1292  -1.1219  -1.1165  -1.1135  -1.1015
    -1.0952  -1.0874  -1.0279  -1.0228  -1.0119  -1.0064  -1.0060  -0.9979
    -0.9960  -0.9927  -0.9852  -0.9849  -0.9824  -0.9750  -0.9380  -0.9323
    -0.9298  -0.9252  -0.9220  -0.9172  -0.8964  -0.8897  -0.8851  -0.8527
    -0.8471  -0.6912  -0.4705  -0.3258  -0.0244

          k = 0.0278 0.0833 0.1944 ( 60341 PWs)   bands (ev):

   -71.9735 -71.9727 -71.9722 -71.9721 -71.9721 -71.9715 -71.9715 -71.9715
   -42.0537 -42.0537 -42.0537 -42.0531 -42.0531 -42.0531 -42.0527 -42.0527
   -42.0527 -42.0527 -42.0527 -42.0526 -42.0526 -42.0526 -42.0526 -42.0522
   -42.0522 -42.0522 -42.0521 -42.0521 -42.0521 -42.0521 -42.0521 -42.0521
    -1.4306  -1.2893  -1.1923  -1.1800  -1.1742  -1.1714  -1.1640  -1.1499
    -1.1287  -1.1181  -1.1123  -1.1013  -1.0965  -1.0767  -1.0767  -1.0696
    -1.0694  -1.0509  -1.0508  -1.0442  -1.0321  -1.0248  -1.0045  -0.9999
    -0.9909  -0.9867  -0.9856  -0.9732  -0.9718  -0.9638  -0.9503  -0.9447
    -0.9419  -0.9417  -0.9370  -0.9360  -0.9326  -0.9209  -0.9184  -0.8725
    -0.8515  -0.8488  -0.4101  -0.2647  -0.1856

          k = 0.0278 0.0833-0.2500 ( 60332 PWs)   bands (ev):

   -71.9735 -71.9727 -71.9721 -71.9721 -71.9721 -71.9715 -71.9715 -71.9715
   -42.0537 -42.0537 -42.0537 -42.0531 -42.0531 -42.0531 -42.0527 -42.0527
   -42.0527 -42.0527 -42.0526 -42.0526 -42.0526 -42.0526 -42.0526 -42.0522
   -42.0522 -42.0522 -42.0521 -42.0521 -42.0521 -42.0521 -42.0521 -42.0521
    -1.3473  -1.3472  -1.1821  -1.1820  -1.1757  -1.1757  -1.1564  -1.1564
    -1.1234  -1.1233  -1.0770  -1.0770  -1.0732  -1.0732  -1.0550  -1.0550
    -1.0486  -1.0485  -1.0279  -1.0279  -1.0037  -1.0037  -1.0023  -1.0022
    -1.0001  -1.0001  -0.9911  -0.9911  -0.9888  -0.9888  -0.9616  -0.9616
    -0.9578  -0.9577  -0.9543  -0.9543  -0.9501  -0.9501  -0.9196  -0.9196
    -0.8502  -0.8501  -0.3168  -0.3167  -0.1718

          k = 0.0278 0.1389 0.1389 ( 60316 PWs)   bands (ev):

   -71.9735 -71.9727 -71.9722 -71.9722 -71.9721 -71.9715 -71.9715 -71.9715
   -42.0537 -42.0537 -42.0537 -42.0531 -42.0531 -42.0531 -42.0527 -42.0527
   -42.0527 -42.0527 -42.0527 -42.0527 -42.0526 -42.0526 -42.0526 -42.0522
   -42.0522 -42.0522 -42.0521 -42.0521 -42.0521 -42.0521 -42.0521 -42.0521
    -1.4499  -1.2227  -1.2225  -1.1728  -1.1686  -1.1481  -1.1387  -1.1387
    -1.1282  -1.1249  -1.1188  -1.1188  -1.1053  -1.1053  -1.1041  -1.1031
    -1.0942  -1.0751  -1.0312  -1.0190  -1.0136  -1.0136  -1.0133  -1.0133
    -0.9969  -0.9969  -0.9839  -0.9839  -0.9775  -0.9753  -0.9475  -0.9392
    -0.9325  -0.9302  -0.9261  -0.9261  -0.9186  -0.9058  -0.8831  -0.8831
    -0.8642  -0.6572  -0.6570  -0.2870  -0.1940

          k = 0.0278 0.1389 0.1944 ( 60343 PWs)   bands (ev):

   -71.9735 -71.9727 -71.9722 -71.9721 -71.9721 -71.9715 -71.9715 -71.9715
   -42.0537 -42.0537 -42.0537 -42.0531 -42.0531 -42.0531 -42.0527 -42.0527
   -42.0527 -42.0527 -42.0527 -42.0527 -42.0526 -42.0526 -42.0526 -42.0522
   -42.0522 -42.0522 -42.0521 -42.0521 -42.0521 -42.0521 -42.0521 -42.0521
    -1.3647  -1.2471  -1.2011  -1.1797  -1.1577  -1.1446  -1.1212  -1.1145
    -1.1104  -1.1086  -1.1052  -1.0985  -1.0846  -1.0834  -1.0786  -1.0644
    -1.0581  -1.0550  -1.0496  -1.0341  -1.0335  -1.0206  -1.0159  -1.0148
    -1.0032  -0.9861  -0.9822  -0.9783  -0.9720  -0.9653  -0.9590  -0.9554
    -0.9513  -0.9438  -0.9436  -0.9380  -0.9300  -0.9285  -0.9274  -0.8807
    -0.8734  -0.8435  -0.5976  -0.3638  -0.2223

          k = 0.0278 0.1389-0.2500 ( 60346 PWs)   bands (ev):

   -71.9735 -71.9727 -71.9722 -71.9721 -71.9721 -71.9715 -71.9715 -71.9715
   -42.0537 -42.0537 -42.0537 -42.0531 -42.0531 -42.0531 -42.0527 -42.0527
   -42.0527 -42.0527 -42.0527 -42.0527 -42.0526 -42.0526 -42.0526 -42.0522
   -42.0522 -42.0522 -42.0521 -42.0521 -42.0521 -42.0521 -42.0521 -42.0521
    -1.2915  -1.2914  -1.1887  -1.1886  -1.1509  -1.1509  -1.1159  -1.1158
    -1.1097  -1.1097  -1.0748  -1.0748  -1.0641  -1.0640  -1.0571  -1.0571
    -1.0390  -1.0390  -1.0276  -1.0276  -1.0185  -1.0184  -1.0098  -1.0098
    -0.9999  -0.9999  -0.9949  -0.9948  -0.9802  -0.9802  -0.9619  -0.9619
    -0.9614  -0.9614  -0.9554  -0.9554  -0.9513  -0.9512  -0.9286  -0.9286
    -0.8777  -0.8777  -0.5019  -0.5018  -0.1256

          k = 0.0278 0.1944 0.1944 ( 60302 PWs)   bands (ev):

   -71.9735 -71.9727 -71.9721 -71.9721 -71.9721 -71.9715 -71.9715 -71.9715
   -42.0537 -42.0537 -42.0537 -42.0531 -42.0531 -42.0531 -42.0527 -42.0527
   -42.0527 -42.0527 -42.0527 -42.0526 -42.0526 -42.0526 -42.0526 -42.0522
   -42.0522 -42.0521 -42.0521 -42.0521 -42.0521 -42.0521 -42.0521 -42.0521
    -1.2911  -1.2161  -1.2158  -1.1878  -1.1074  -1.1019  -1.0950  -1.0950
    -1.0921  -1.0904  -1.0904  -1.0796  -1.0765  -1.0684  -1.0599  -1.0599
    -1.0549  -1.0428  -1.0427  -1.0366  -1.0366  -1.0364  -1.0230  -1.0229
    -1.0033  -1.0033  -0.9814  -0.9704  -0.9704  -0.9682  -0.9672  -0.9643
    -0.9636  -0.9629  -0.9438  -0.9407  -0.9393  -0.9393  -0.9233  -0.9233
    -0.8996  -0.7904  -0.7903  -0.5453  -0.1530

          k = 0.0278 0.1944-0.2500 ( 60322 PWs)   bands (ev):

   -71.9735 -71.9727 -71.9721 -71.9721 -71.9721 -71.9715 -71.9715 -71.9715
   -42.0537 -42.0537 -42.0537 -42.0531 -42.0531 -42.0531 -42.0527 -42.0527
   -42.0527 -42.0527 -42.0527 -42.0526 -42.0526 -42.0526 -42.0526 -42.0522
   -42.0522 -42.0521 -42.0521 -42.0521 -42.0521 -42.0521 -42.0521 -42.0521
    -1.2417  -1.2417  -1.1989  -1.1988  -1.0974  -1.0974  -1.0915  -1.0914
    -1.0727  -1.0727  -1.0662  -1.0662  -1.0592  -1.0592  -1.0522  -1.0522
    -1.0388  -1.0388  -1.0310  -1.0310  -1.0265  -1.0265  -1.0207  -1.0207
    -1.0030  -1.0030  -1.0027  -1.0027  -0.9686  -0.9686  -0.9643  -0.9643
    -0.9578  -0.9577  -0.9527  -0.9527  -0.9421  -0.9421  -0.9356  -0.9356
    -0.9154  -0.9153  -0.6938  -0.6937  -0.0515

          k = 0.0278-0.2500-0.2500 ( 60304 PWs)   bands (ev):

   -71.9735 -71.9727 -71.9721 -71.9721 -71.9721 -71.9715 -71.9715 -71.9715
   -42.0537 -42.0537 -42.0537 -42.0531 -42.0531 -42.0531 -42.0527 -42.0527
   -42.0527 -42.0527 -42.0526 -42.0526 -42.0526 -42.0526 -42.0526 -42.0522
   -42.0522 -42.0521 -42.0521 -42.0521 -42.0521 -42.0521 -42.0521 -42.0521
    -1.2145  -1.2145  -1.2143  -1.2142  -1.0751  -1.0751  -1.0751  -1.0751
    -1.0567  -1.0566  -1.0566  -1.0566  -1.0446  -1.0446  -1.0446  -1.0446
    -1.0395  -1.0395  -1.0394  -1.0394  -1.0239  -1.0239  -1.0239  -1.0239
    -1.0123  -1.0123  -1.0123  -1.0123  -0.9571  -0.9571  -0.9571  -0.9571
    -0.9527  -0.9526  -0.9526  -0.9526  -0.9504  -0.9504  -0.9504  -0.9504
    -0.8526  -0.8526  -0.8525  -0.8524   0.0543

          k = 0.0833 0.0833 0.0833 ( 60286 PWs)   bands (ev):

   -71.9735 -71.9727 -71.9721 -71.9721 -71.9721 -71.9715 -71.9715 -71.9715
   -42.0537 -42.0537 -42.0537 -42.0531 -42.0531 -42.0531 -42.0527 -42.0527
   -42.0527 -42.0527 -42.0527 -42.0527 -42.0526 -42.0526 -42.0526 -42.0521
   -42.0521 -42.0521 -42.0521 -42.0521 -42.0521 -42.0521 -42.0521 -42.0521
    -1.5494  -1.2122  -1.2122  -1.2120  -1.1787  -1.1787  -1.1581  -1.1581
    -1.1581  -1.1427  -1.1427  -1.1427  -1.1292  -1.1292  -1.1292  -1.1065
    -1.1004  -1.1004  -1.0068  -1.0068  -1.0067  -1.0012  -1.0012  -1.0012
    -0.9922  -0.9922  -0.9922  -0.9913  -0.9912  -0.9912  -0.9288  -0.9276
    -0.9276  -0.9213  -0.9213  -0.9213  -0.8671  -0.8671  -0.8671  -0.8599
    -0.8599  -0.4890  -0.4890  -0.4887   0.1640

          k = 0.0833 0.0833 0.1389 ( 60344 PWs)   bands (ev):

   -71.9735 -71.9727 -71.9722 -71.9721 -71.9721 -71.9715 -71.9715 -71.9715
   -42.0537 -42.0537 -42.0537 -42.0531 -42.0531 -42.0531 -42.0527 -42.0527
   -42.0527 -42.0527 -42.0527 -42.0527 -42.0526 -42.0526 -42.0526 -42.0522
   -42.0522 -42.0522 -42.0521 -42.0521 -42.0521 -42.0521 -42.0521 -42.0521
    -1.4809  -1.2295  -1.1820  -1.1820  -1.1761  -1.1608  -1.1558  -1.1469
    -1.1469  -1.1319  -1.1318  -1.1260  -1.1149  -1.1149  -1.1071  -1.1037
    -1.0900  -1.0873  -1.0225  -1.0225  -1.0073  -1.0064  -1.0016  -1.0015
    -0.9981  -0.9933  -0.9933  -0.9919  -0.9831  -0.9831  -0.9376  -0.9373
    -0.9303  -0.9303  -0.9271  -0.9222  -0.8953  -0.8953  -0.8924  -0.8660
    -0.8607  -0.6747  -0.4521  -0.4519   0.0009

          k = 0.0833 0.0833 0.1944 ( 60357 PWs)   bands (ev):

   -71.9735 -71.9727 -71.9722 -71.9721 -71.9721 -71.9715 -71.9715 -71.9715
   -42.0537 -42.0537 -42.0537 -42.0531 -42.0531 -42.0531 -42.0527 -42.0527
   -42.0527 -42.0527 -42.0527 -42.0526 -42.0526 -42.0526 -42.0526 -42.0522
   -42.0522 -42.0522 -42.0521 -42.0521 -42.0521 -42.0521 -42.0521 -42.0521
    -1.3932  -1.2600  -1.1726  -1.1678  -1.1678  -1.1644  -1.1526  -1.1526
    -1.1215  -1.1113  -1.1104  -1.0951  -1.0951  -1.0749  -1.0747  -1.0722
    -1.0692  -1.0538  -1.0433  -1.0433  -1.0263  -1.0255  -0.9997  -0.9997
    -0.9953  -0.9952  -0.9892  -0.9793  -0.9726  -0.9726  -0.9503  -0.9491
    -0.9423  -0.9423  -0.9389  -0.9389  -0.9383  -0.9259  -0.9235  -0.8646
    -0.8618  -0.8578  -0.3897  -0.3894  -0.1609

          k = 0.0833 0.0833-0.2500 ( 60388 PWs)   bands (ev):

   -71.9735 -71.9727 -71.9722 -71.9722 -71.9722 -71.9715 -71.9715 -71.9715
   -42.0537 -42.0537 -42.0537 -42.0531 -42.0531 -42.0531 -42.0527 -42.0527
   -42.0527 -42.0527 -42.0527 -42.0527 -42.0527 -42.0526 -42.0526 -42.0522
   -42.0522 -42.0522 -42.0521 -42.0521 -42.0521 -42.0521 -42.0521 -42.0521
    -1.3128  -1.3127  -1.1685  -1.1685  -1.1595  -1.1595  -1.1594  -1.1594
    -1.1164  -1.1164  -1.0720  -1.0720  -1.0720  -1.0720  -1.0515  -1.0515
    -1.0481  -1.0481  -1.0271  -1.0271  -1.0031  -1.0031  -1.0031  -1.0030
    -0.9976  -0.9975  -0.9975  -0.9975  -0.9926  -0.9926  -0.9649  -0.9649
    -0.9553  -0.9553  -0.9551  -0.9551  -0.9551  -0.9551  -0.9244  -0.9244
    -0.8632  -0.8631  -0.2940  -0.2938  -0.2937

          k = 0.0833 0.1389 0.1389 ( 60326 PWs)   bands (ev):

   -71.9735 -71.9727 -71.9721 -71.9721 -71.9721 -71.9715 -71.9715 -71.9715
   -42.0537 -42.0537 -42.0537 -42.0531 -42.0531 -42.0531 -42.0527 -42.0527
   -42.0527 -42.0527 -42.0527 -42.0527 -42.0526 -42.0526 -42.0526 -42.0522
   -42.0522 -42.0522 -42.0521 -42.0521 -42.0521 -42.0521 -42.0521 -42.0521
    -1.4113  -1.1945  -1.1943  -1.1615  -1.1514  -1.1467  -1.1364  -1.1364
    -1.1343  -1.1264  -1.1124  -1.1124  -1.1071  -1.1071  -1.1015  -1.0982
    -1.0877  -1.0759  -1.0258  -1.0137  -1.0132  -1.0132  -1.0086  -1.0086
    -0.9977  -0.9977  -0.9924  -0.9924  -0.9857  -0.9835  -0.9469  -0.9398
    -0.9372  -0.9357  -0.9313  -0.9313  -0.9173  -0.9064  -0.8935  -0.8934
    -0.8787  -0.6390  -0.6388  -0.4122  -0.1684

          k = 0.0833 0.1389 0.1944 ( 60375 PWs)   bands (ev):

   -71.9735 -71.9727 -71.9722 -71.9722 -71.9721 -71.9715 -71.9715 -71.9715
   -42.0537 -42.0537 -42.0537 -42.0531 -42.0531 -42.0531 -42.0527 -42.0527
   -42.0527 -42.0527 -42.0527 -42.0527 -42.0526 -42.0526 -42.0526 -42.0522
   -42.0522 -42.0522 -42.0521 -42.0521 -42.0521 -42.0521 -42.0521 -42.0521
    -1.3251  -1.2160  -1.1754  -1.1576  -1.1530  -1.1418  -1.1241  -1.1130
    -1.1078  -1.1068  -1.0990  -1.0923  -1.0832  -1.0815  -1.0729  -1.0703
    -1.0590  -1.0580  -1.0420  -1.0327  -1.0278  -1.0157  -1.0153  -1.0108
    -1.0037  -0.9907  -0.9869  -0.9866  -0.9803  -0.9746  -0.9584  -0.9522
    -0.9521  -0.9483  -0.9450  -0.9435  -0.9351  -0.9350  -0.9329  -0.8912
    -0.8857  -0.8271  -0.5769  -0.3459  -0.3386

          k = 0.0833 0.1389-0.2500 ( 60352 PWs)   bands (ev):

   -71.9735 -71.9727 -71.9722 -71.9721 -71.9721 -71.9715 -71.9715 -71.9715
   -42.0537 -42.0537 -42.0537 -42.0531 -42.0531 -42.0531 -42.0527 -42.0527
   -42.0527 -42.0527 -42.0527 -42.0526 -42.0526 -42.0526 -42.0526 -42.0522
   -42.0522 -42.0522 -42.0521 -42.0521 -42.0521 -42.0521 -42.0521 -42.0521
    -1.2553  -1.2552  -1.1654  -1.1653  -1.1474  -1.1473  -1.1186  -1.1185
    -1.1032  -1.1032  -1.0700  -1.0699  -1.0629  -1.0629  -1.0525  -1.0525
    -1.0396  -1.0396  -1.0268  -1.0268  -1.0133  -1.0132  -1.0092  -1.0092
    -1.0026  -1.0026  -0.9961  -0.9961  -0.9886  -0.9886  -0.9682  -0.9682
    -0.9630  -0.9629  -0.9567  -0.9567  -0.9491  -0.9491  -0.9325  -0.9325
    -0.8888  -0.8888  -0.4785  -0.4784  -0.2463

          k = 0.0833 0.1944 0.1944 ( 60311 PWs)   bands (ev):

   -71.9735 -71.9727 -71.9721 -71.9721 -71.9721 -71.9715 -71.9715 -71.9715
   -42.0537 -42.0537 -42.0537 -42.0531 -42.0531 -42.0531 -42.0527 -42.0527
   -42.0527 -42.0527 -42.0527 -42.0526 -42.0526 -42.0526 -42.0526 -42.0522
   -42.0522 -42.0522 -42.0521 -42.0521 -42.0521 -42.0521 -42.0521 -42.0521
    -1.2515  -1.1878  -1.1877  -1.1648  -1.1040  -1.1008  -1.0891  -1.0891
    -1.0886  -1.0886  -1.0865  -1.0816  -1.0706  -1.0672  -1.0629  -1.0629
    -1.0577  -1.0436  -1.0393  -1.0303  -1.0302  -1.0302  -1.0225  -1.0225
    -1.0042  -1.0042  -0.9843  -0.9789  -0.9789  -0.9765  -0.9674  -0.9667
    -0.9642  -0.9640  -0.9465  -0.9456  -0.9452  -0.9452  -0.9307  -0.9306
    -0.9106  -0.7707  -0.7705  -0.5202  -0.2745

          k = 0.0833 0.1944-0.2500 ( 60334 PWs)   bands (ev):

   -71.9735 -71.9727 -71.9722 -71.9721 -71.9721 -71.9715 -71.9715 -71.9715
   -42.0537 -42.0537 -42.0537 -42.0531 -42.0531 -42.0531 -42.0527 -42.0527
   -42.0527 -42.0527 -42.0526 -42.0526 -42.0526 -42.0526 -42.0526 -42.0522
   -42.0522 -42.0522 -42.0521 -42.0521 -42.0521 -42.0521 -42.0521 -42.0521
    -1.2086  -1.2085  -1.1741  -1.1741  -1.0956  -1.0955  -1.0857  -1.0857
    -1.0697  -1.0696  -1.0673  -1.0673  -1.0544  -1.0544  -1.0512  -1.0512
    -1.0324  -1.0323  -1.0301  -1.0301  -1.0273  -1.0272  -1.0201  -1.0201
    -1.0050  -1.0050  -1.0033  -1.0033  -0.9768  -0.9768  -0.9677  -0.9677
    -0.9677  -0.9676  -0.9588  -0.9588  -0.9482  -0.9482  -0.9242  -0.9241
    -0.9190  -0.9190  -0.6704  -0.6703  -0.1700

          k = 0.0833-0.2500-0.2500 ( 60308 PWs)   bands (ev):

   -71.9735 -71.9727 -71.9721 -71.9721 -71.9721 -71.9715 -71.9715 -71.9715
   -42.0537 -42.0537 -42.0537 -42.0531 -42.0531 -42.0531 -42.0527 -42.0527
   -42.0527 -42.0527 -42.0526 -42.0526 -42.0526 -42.0526 -42.0526 -42.0522
   -42.0522 -42.0521 -42.0521 -42.0521 -42.0521 -42.0521 -42.0521 -42.0521
    -1.1867  -1.1867  -1.1866  -1.1865  -1.0703  -1.0703  -1.0703  -1.0703
    -1.0523  -1.0522  -1.0522  -1.0522  -1.0439  -1.0439  -1.0439  -1.0439
    -1.0385  -1.0385  -1.0384  -1.0384  -1.0235  -1.0235  -1.0235  -1.0235
    -1.0135  -1.0135  -1.0135  -1.0135  -0.9665  -0.9665  -0.9665  -0.9665
    -0.9587  -0.9587  -0.9586  -0.9586  -0.9567  -0.9567  -0.9567  -0.9566
    -0.8307  -0.8307  -0.8305  -0.8304  -0.0608

          k = 0.1389 0.1389 0.1389 ( 60355 PWs)   bands (ev):

   -71.9735 -71.9727 -71.9721 -71.9721 -71.9721 -71.9715 -71.9715 -71.9715
   -42.0537 -42.0537 -42.0537 -42.0531 -42.0531 -42.0531 -42.0527 -42.0527
   -42.0527 -42.0527 -42.0527 -42.0527 -42.0526 -42.0526 -42.0526 -42.0522
   -42.0522 -42.0522 -42.0521 -42.0521 -42.0521 -42.0521 -42.0521 -42.0521
    -1.3387  -1.1460  -1.1460  -1.1458  -1.1443  -1.1443  -1.1293  -1.1292
    -1.1292  -1.1123  -1.1123  -1.1123  -1.0984  -1.0984  -1.0984  -1.0894
    -1.0752  -1.0752  -1.0168  -1.0168  -1.0168  -1.0037  -1.0037  -1.0037
    -1.0004  -1.0004  -1.0004  -0.9983  -0.9983  -0.9983  -0.9459  -0.9459
    -0.9451  -0.9410  -0.9410  -0.9410  -0.9152  -0.9152  -0.9152  -0.9075
    -0.9075  -0.5998  -0.5998  -0.5995  -0.1154

          k = 0.1389 0.1389 0.1944 ( 60326 PWs)   bands (ev):

   -71.9735 -71.9727 -71.9721 -71.9721 -71.9721 -71.9715 -71.9715 -71.9715
   -42.0537 -42.0537 -42.0537 -42.0531 -42.0531 -42.0531 -42.0527 -42.0527
   -42.0527 -42.0527 -42.0527 -42.0527 -42.0526 -42.0526 -42.0526 -42.0522
   -42.0522 -42.0522 -42.0521 -42.0521 -42.0521 -42.0521 -42.0521 -42.0521
    -1.2513  -1.1634  -1.1409  -1.1329  -1.1297  -1.1297  -1.1175  -1.1175
    -1.1033  -1.0951  -1.0876  -1.0807  -1.0807  -1.0775  -1.0774  -1.0638
    -1.0623  -1.0581  -1.0319  -1.0318  -1.0176  -1.0173  -1.0083  -1.0055
    -1.0055  -1.0016  -1.0016  -0.9903  -0.9887  -0.9887  -0.9596  -0.9538
    -0.9536  -0.9536  -0.9492  -0.9491  -0.9491  -0.9434  -0.9428  -0.9130
    -0.9090  -0.7919  -0.5329  -0.5327  -0.2868

          k = 0.1389 0.1389-0.2500 ( 60344 PWs)   bands (ev):

   -71.9735 -71.9727 -71.9721 -71.9721 -71.9721 -71.9715 -71.9715 -71.9715
   -42.0537 -42.0537 -42.0537 -42.0531 -42.0531 -42.0531 -42.0527 -42.0527
   -42.0527 -42.0527 -42.0527 -42.0527 -42.0526 -42.0526 -42.0526 -42.0522
   -42.0522 -42.0522 -42.0521 -42.0521 -42.0521 -42.0521 -42.0521 -42.0521
    -1.1921  -1.1920  -1.1370  -1.1369  -1.1235  -1.1235  -1.1234  -1.1234
    -1.0910  -1.0909  -1.0610  -1.0609  -1.0609  -1.0609  -1.0465  -1.0465
    -1.0381  -1.0381  -1.0263  -1.0263  -1.0087  -1.0087  -1.0087  -1.0086
    -1.0036  -1.0035  -1.0035  -1.0035  -0.9988  -0.9988  -0.9750  -0.9750
    -0.9658  -0.9658  -0.9658  -0.9658  -0.9479  -0.9479  -0.9276  -0.9276
    -0.9109  -0.9109  -0.4294  -0.4293  -0.4292

          k = 0.1389 0.1944 0.1944 ( 60325 PWs)   bands (ev):

   -71.9735 -71.9727 -71.9721 -71.9721 -71.9721 -71.9715 -71.9715 -71.9715
   -42.0537 -42.0537 -42.0537 -42.0531 -42.0531 -42.0531 -42.0527 -42.0527
   -42.0527 -42.0527 -42.0527 -42.0526 -42.0526 -42.0526 -42.0526 -42.0522
   -42.0522 -42.0522 -42.0521 -42.0521 -42.0521 -42.0521 -42.0521 -42.0521
    -1.1766  -1.1381  -1.1379  -1.1234  -1.0986  -1.0974  -1.0849  -1.0849
    -1.0847  -1.0781  -1.0781  -1.0763  -1.0671  -1.0671  -1.0650  -1.0636
    -1.0593  -1.0448  -1.0328  -1.0225  -1.0225  -1.0196  -1.0196  -1.0192
    -1.0058  -1.0058  -0.9933  -0.9927  -0.9927  -0.9910  -0.9697  -0.9679
    -0.9662  -0.9654  -0.9574  -0.9558  -0.9558  -0.9461  -0.9461  -0.9436
    -0.9331  -0.7282  -0.7280  -0.4681  -0.4595

          k = 0.1389 0.1944-0.2500 ( 60366 PWs)   bands (ev):

   -71.9735 -71.9727 -71.9722 -71.9722 -71.9721 -71.9715 -71.9715 -71.9715
   -42.0537 -42.0537 -42.0537 -42.0531 -42.0531 -42.0531 -42.0527 -42.0527
   -42.0527 -42.0527 -42.0527 -42.0526 -42.0526 -42.0526 -42.0526 -42.0522
   -42.0522 -42.0522 -42.0521 -42.0521 -42.0521 -42.0521 -42.0521 -42.0521
    -1.1501  -1.1500  -1.1301  -1.1301  -1.0920  -1.0920  -1.0749  -1.0749
    -1.0735  -1.0734  -1.0589  -1.0589  -1.0493  -1.0493  -1.0461  -1.0461
    -1.0291  -1.0291  -1.0281  -1.0281  -1.0215  -1.0214  -1.0194  -1.0194
    -1.0095  -1.0095  -1.0045  -1.0045  -0.9911  -0.9911  -0.9790  -0.9790
    -0.9740  -0.9740  -0.9694  -0.9694  -0.9589  -0.9589  -0.9421  -0.9421
    -0.8873  -0.8873  -0.6211  -0.6210  -0.3504

          k = 0.1389-0.2500-0.2500 ( 60352 PWs)   bands (ev):

   -71.9735 -71.9727 -71.9721 -71.9721 -71.9721 -71.9715 -71.9715 -71.9715
   -42.0537 -42.0537 -42.0537 -42.0531 -42.0531 -42.0531 -42.0527 -42.0527
   -42.0527 -42.0527 -42.0527 -42.0527 -42.0526 -42.0526 -42.0526 -42.0522
   -42.0522 -42.0522 -42.0521 -42.0521 -42.0521 -42.0521 -42.0521 -42.0521
    -1.1383  -1.1383  -1.1382  -1.1381  -1.0614  -1.0613  -1.0613  -1.0613
    -1.0455  -1.0454  -1.0454  -1.0454  -1.0426  -1.0426  -1.0426  -1.0426
    -1.0370  -1.0370  -1.0370  -1.0369  -1.0213  -1.0213  -1.0213  -1.0213
    -1.0160  -1.0160  -1.0160  -1.0159  -0.9805  -0.9805  -0.9805  -0.9805
    -0.9699  -0.9698  -0.9698  -0.9698  -0.9695  -0.9695  -0.9695  -0.9694
    -0.7847  -0.7847  -0.7845  -0.7844  -0.2369

          k = 0.1944 0.1944 0.1944 ( 60406 PWs)   bands (ev):

   -71.9735 -71.9727 -71.9722 -71.9722 -71.9722 -71.9715 -71.9715 -71.9715
   -42.0537 -42.0537 -42.0537 -42.0531 -42.0531 -42.0531 -42.0527 -42.0527
   -42.0527 -42.0527 -42.0527 -42.0527 -42.0527 -42.0526 -42.0526 -42.0522
   -42.0522 -42.0522 -42.0521 -42.0521 -42.0521 -42.0521 -42.0521 -42.0521
    -1.0956  -1.0956  -1.0884  -1.0883  -1.0883  -1.0776  -1.0730  -1.0730
    -1.0730  -1.0719  -1.0719  -1.0718  -1.0652  -1.0621  -1.0621  -1.0621
    -1.0439  -1.0439  -1.0262  -1.0262  -1.0262  -1.0083  -1.0083  -1.0083
    -1.0077  -1.0077  -1.0076  -1.0046  -1.0046  -1.0046  -0.9719  -0.9719
    -0.9697  -0.9696  -0.9696  -0.9694  -0.9694  -0.9694  -0.9669  -0.9669
    -0.9191  -0.6547  -0.6547  -0.6543  -0.3846

          k = 0.1944 0.1944-0.2500 ( 60384 PWs)   bands (ev):

   -71.9735 -71.9727 -71.9722 -71.9722 -71.9721 -71.9715 -71.9715 -71.9715
   -42.0537 -42.0537 -42.0537 -42.0531 -42.0531 -42.0531 -42.0527 -42.0527
   -42.0527 -42.0527 -42.0527 -42.0527 -42.0526 -42.0526 -42.0526 -42.0522
   -42.0522 -42.0522 -42.0521 -42.0521 -42.0521 -42.0521 -42.0521 -42.0521
    -1.0921  -1.0921  -1.0816  -1.0816  -1.0783  -1.0783  -1.0783  -1.0783
    -1.0611  -1.0611  -1.0478  -1.0477  -1.0477  -1.0477  -1.0388  -1.0388
    -1.0303  -1.0303  -1.0261  -1.0261  -1.0195  -1.0195  -1.0195  -1.0195
    -1.0070  -1.0070  -1.0070  -1.0069  -1.0064  -1.0064  -0.9882  -0.9882
    -0.9817  -0.9817  -0.9817  -0.9817  -0.9726  -0.9726  -0.9684  -0.9684
    -0.8228  -0.8227  -0.5402  -0.5400  -0.5399

          k = 0.1944-0.2500-0.2500 ( 60356 PWs)   bands (ev):

   -71.9735 -71.9727 -71.9721 -71.9721 -71.9721 -71.9715 -71.9715 -71.9715
   -42.0537 -42.0537 -42.0537 -42.0531 -42.0531 -42.0531 -42.0527 -42.0527
   -42.0527 -42.0527 -42.0527 -42.0527 -42.0526 -42.0526 -42.0526 -42.0522
   -42.0522 -42.0522 -42.0521 -42.0521 -42.0521 -42.0521 -42.0521 -42.0521
    -1.0837  -1.0837  -1.0836  -1.0835  -1.0501  -1.0501  -1.0501  -1.0501
    -1.0411  -1.0411  -1.0411  -1.0411  -1.0407  -1.0407  -1.0407  -1.0407
    -1.0365  -1.0365  -1.0365  -1.0364  -1.0209  -1.0209  -1.0209  -1.0209
    -1.0137  -1.0137  -1.0137  -1.0137  -0.9942  -0.9942  -0.9942  -0.9942
    -0.9879  -0.9879  -0.9879  -0.9879  -0.9845  -0.9845  -0.9844  -0.9844
    -0.7055  -0.7055  -0.7053  -0.7052  -0.4217

          k =-0.2500-0.2500-0.2500 ( 60256 PWs)   bands (ev):

   -71.9735 -71.9727 -71.9721 -71.9721 -71.9721 -71.9715 -71.9715 -71.9715
   -42.0536 -42.0536 -42.0536 -42.0531 -42.0531 -42.0531 -42.0526 -42.0526
   -42.0526 -42.0526 -42.0526 -42.0526 -42.0526 -42.0526 -42.0526 -42.0522
   -42.0522 -42.0522 -42.0521 -42.0521 -42.0521 -42.0521 -42.0521 -42.0521
    -1.0403  -1.0403  -1.0403  -1.0403  -1.0403  -1.0403  -1.0403  -1.0403
    -1.0401  -1.0401  -1.0401  -1.0400  -1.0400  -1.0400  -1.0400  -1.0400
    -1.0400  -1.0400  -1.0400  -1.0400  -1.0400  -1.0399  -1.0399  -1.0399
    -1.0002  -1.0002  -1.0002  -1.0002  -1.0002  -1.0002  -1.0002  -1.0002
    -1.0002  -1.0002  -1.0001  -1.0001  -1.0001  -1.0001  -1.0001  -1.0001
    -0.5836  -0.5836  -0.5836  -0.5831  -0.5830

     the Fermi energy is    -0.7640 ev

!    total energy              =   -3448.79716866 Ry

     total all-electron energy =    -72492.894753 Ry
     estimated scf accuracy    <       0.00000058 Ry
     smearing contrib. (-TS)   =      -0.26706848 Ry
     internal energy E=F+TS    =   -3448.53010018 Ry

     The total energy is F=E-TS. E is the sum of the following terms:
     one-electron contribution =   -1363.60045579 Ry
     hartree contribution      =     682.07879864 Ry
     xc contribution           =    -229.27538742 Ry
     ewald contribution        =    -640.51865498 Ry
     one-center paw contrib.   =   -1897.21440064 Ry

     convergence has been achieved in  48 iterations

     Forces acting on atoms (cartesian axes, Ry/au):

     atom    1 type  1   force =     0.00000000    0.00000000    0.00000000
     atom    2 type  1   force =     0.00000000    0.00000000    0.00000000
     atom    3 type  1   force =     0.00000000    0.00000000    0.00000000
     atom    4 type  1   force =     0.00000000    0.00000000    0.00000000
     atom    5 type  1   force =     0.00000000    0.00000000    0.00000000
     atom    6 type  1   force =     0.00000000    0.00000000    0.00000000
     atom    7 type  1   force =     0.00000000    0.00000000    0.00000000
     atom    8 type  1   force =     0.00000000    0.00000000    0.00000000

     Total force =     0.000000     Total SCF correction =     0.000000


     Computing stress (Cartesian axis) and pressure

          total   stress  (Ry/bohr**3)                   (kbar)     P=      -17.01
  -0.00011560   0.00000000   0.00000000          -17.01        0.00        0.00
   0.00000000  -0.00011560   0.00000000            0.00      -17.01        0.00
   0.00000000   0.00000000  -0.00011560            0.00        0.00      -17.01


     Writing output data file /scratch/gKaoJLfWveWtQwrK.save/
 
     init_run     :      4.34s CPU      4.57s WALL (       1 calls)
     electrons    :    398.56s CPU    411.88s WALL (       1 calls)
     forces       :      0.82s CPU      0.92s WALL (       1 calls)
     stress       :      3.89s CPU      4.01s WALL (       1 calls)

     Called by init_run:
     wfcinit      :      2.97s CPU      3.07s WALL (       1 calls)
     potinit      :      0.14s CPU      0.16s WALL (       1 calls)
     hinit0       :      0.50s CPU      0.51s WALL (       1 calls)

     Called by electrons:
     c_bands      :    333.72s CPU    339.01s WALL (      48 calls)
     sum_band     :     57.56s CPU     61.76s WALL (      48 calls)
     v_of_rho     :      1.06s CPU      1.14s WALL (      49 calls)
     newd         :      2.53s CPU      5.36s WALL (      49 calls)
     PAW_pot      :      2.78s CPU      3.51s WALL (      49 calls)
     mix_rho      :      0.43s CPU      0.52s WALL (      48 calls)

     Called by c_bands:
     init_us_2    :      3.03s CPU      3.13s WALL (    3465 calls)
     cegterg      :    321.55s CPU    326.61s WALL (    1680 calls)

     Called by *egterg:
     cdiaghg      :     22.37s CPU     22.54s WALL (    4903 calls)
     h_psi        :    221.68s CPU    225.18s WALL (    4938 calls)
     s_psi        :      5.50s CPU      5.55s WALL (    4938 calls)
     g_psi        :      0.97s CPU      0.98s WALL (    3223 calls)

     Called by h_psi:
     h_psi:calbec :     11.42s CPU     11.55s WALL (    4938 calls)
     vloc_psi     :    200.36s CPU    203.49s WALL (    4938 calls)
     add_vuspsi   :      7.41s CPU      7.47s WALL (    4938 calls)

     General routines
     calbec       :     16.88s CPU     17.05s WALL (    6793 calls)
     fft          :      1.05s CPU      1.18s WALL (     660 calls)
     ffts         :      0.11s CPU      0.11s WALL (      97 calls)
     fftw         :    236.87s CPU    240.40s WALL (  697682 calls)
     interpolate  :      0.24s CPU      0.34s WALL (      49 calls)
 
     Parallel routines
     fft_scatt_xy :     18.39s CPU     18.63s WALL (  698439 calls)
     fft_scatt_yz :    176.45s CPU    179.27s WALL (  698439 calls)
 
     PWSCF        :   6m52.79s CPU   7m 8.05s WALL

 
   This run was terminated on:   1:45:27  26Nov2021            

=------------------------------------------------------------------------------=
   JOB DONE.
=------------------------------------------------------------------------------=
