
     Program PWSCF v.6.7MaX starts on 26Nov2021 at  1:34:18 

     This program is part of the open-source Quantum ESPRESSO suite
     for quantum simulation of materials; please cite
         "P. Giannozzi et al., J. Phys.:Condens. Matter 21 395502 (2009);
         "P. Giannozzi et al., J. Phys.:Condens. Matter 29 465901 (2017);
          URL http://www.quantum-espresso.org", 
     in publications or presentations arising from this work. More details at
     http://www.quantum-espresso.org/quote

     Parallel version (MPI & OpenMP), running on      72 processor cores
     Number of MPI processes:                72
     Threads/MPI process:                     1

     MPI processes distributed on     1 nodes
     R & G space division:  proc/nbgrp/npool/nimage =      72
     Reading input from sc_10.in
Warning: card &CELL ignored
Warning: card CELL_DYNAMICS = 'BFGS', ignored
Warning: card CELL_FACTOR = 2.0, ignored
Warning: card PRESS = 0.0, ignored
Warning: card / ignored

     Current dimensions of program PWSCF are:
     Max number of different atomic species (ntypx) = 10
     Max number of k-points (npk) =  40000
     Max angular momentum in pseudopotentials (lmaxx) =  3
     file Ru.pbe-spn-kjpaw_psl.1.0.0.UPF: wavefunction(s)  4D renormalized

     Subspace diagonalization in iterative solution of the eigenvalue problem:
     one sub-group per band group will be used
     ELPA distributed-memory algorithm (size of sub-group:  8*  8 procs)

     Found symmetry operation: I + (  0.0000  0.0000 -0.5000)
     This is a supercell, fractional translations are disabled
     Message from routine setup:
     using ibrav=0 with symmetry is DISCOURAGED, use correct ibrav instead
 
     Parallelization info
     --------------------
     sticks:   dense  smooth     PW     G-vecs:    dense   smooth      PW
     Min         141      93     24                10713     5745     796
     Max         142      94     25                10717     5752     805
     Sum       10169    6729   1789               771497   413813   57747
 


     bravais-lattice index     =            0
     lattice parameter (alat)  =       9.0720  a.u.
     unit-cell volume          =    5121.1787 (a.u.)^3
     number of atoms/cell      =            8
     number of atomic types    =            1
     number of electrons       =       128.00
     number of Kohn-Sham states=           77
     kinetic-energy cutoff     =      71.0000  Ry
     charge density cutoff     =     430.0000  Ry
     scf convergence threshold =      1.0E-06
     mixing beta               =       0.1000
     number of iterations used =           10  TF        mixing
     Exchange-correlation= SLA  PW   PBX  PBC
                           (   1   4   3   4   0   0   0)

     celldm(1)=   9.072000  celldm(2)=   0.000000  celldm(3)=   0.000000
     celldm(4)=   0.000000  celldm(5)=   0.000000  celldm(6)=   0.000000

     crystal axes: (cart. coord. in units of alat)
               a(1) = (   1.900000   0.000000   0.000000 )  
               a(2) = (   0.000000   1.900000   0.000000 )  
               a(3) = (   0.000000   0.000000   1.900000 )  

     reciprocal axes: (cart. coord. in units 2 pi/alat)
               b(1) = (  0.526316  0.000000  0.000000 )  
               b(2) = (  0.000000  0.526316  0.000000 )  
               b(3) = (  0.000000  0.000000  0.526316 )  


     PseudoPot. # 1 for Ru read from file:
     /rds/homes/b/bxp912/pp/Ru.pbe-spn-kjpaw_psl.1.0.0.UPF
     MD5 check sum: 0ae1f594dea09af7be8575c3a481d1ae
     Pseudo is Projector augmented-wave + core cor, Zval = 16.0
     Generated using "atomic" code by A. Dal Corso  v.5.1
     Shape of augmentation charge: PSQ
     Using radial grid of 1233 points,  6 beta functions with: 
                l(1) =   0
                l(2) =   0
                l(3) =   1
                l(4) =   1
                l(5) =   2
                l(6) =   2
     Q(r) pseudized with 0 coefficients 


     atomic species   valence    mass     pseudopotential
        Ru            16.00   101.07000     Ru( 1.00)

     48 Sym. Ops., with inversion, found



   Cartesian axes

     site n.     atom                  positions (alat units)
         1           Ru  tau(   1) = (   0.0000000   0.0000000   0.0000000  )
         2           Ru  tau(   2) = (   0.0000000   0.0000000   0.9500000  )
         3           Ru  tau(   3) = (   0.0000000   0.9500000   0.0000000  )
         4           Ru  tau(   4) = (   0.0000000   0.9500000   0.9500000  )
         5           Ru  tau(   5) = (   0.9500000   0.0000000   0.0000000  )
         6           Ru  tau(   6) = (   0.9500000   0.0000000   0.9500000  )
         7           Ru  tau(   7) = (   0.9500000   0.9500000   0.0000000  )
         8           Ru  tau(   8) = (   0.9500000   0.9500000   0.9500000  )

     number of k points=    35  Marzari-Vanderbilt smearing, width (Ry)=  0.0400
                       cart. coord. in units 2pi/alat
        k(    1) = (   0.0292398   0.0292398   0.0292398), wk =   0.0219479
        k(    2) = (   0.0292398   0.0292398   0.0877193), wk =   0.0658436
        k(    3) = (   0.0292398   0.0292398   0.1461988), wk =   0.0658436
        k(    4) = (   0.0292398   0.0292398   0.2046784), wk =   0.0658436
        k(    5) = (   0.0292398   0.0292398  -0.2631579), wk =   0.0329218
        k(    6) = (   0.0292398   0.0877193   0.0877193), wk =   0.0658436
        k(    7) = (   0.0292398   0.0877193   0.1461988), wk =   0.1316872
        k(    8) = (   0.0292398   0.0877193   0.2046784), wk =   0.1316872
        k(    9) = (   0.0292398   0.0877193  -0.2631579), wk =   0.0658436
        k(   10) = (   0.0292398   0.1461988   0.1461988), wk =   0.0658436
        k(   11) = (   0.0292398   0.1461988   0.2046784), wk =   0.1316872
        k(   12) = (   0.0292398   0.1461988  -0.2631579), wk =   0.0658436
        k(   13) = (   0.0292398   0.2046784   0.2046784), wk =   0.0658436
        k(   14) = (   0.0292398   0.2046784  -0.2631579), wk =   0.0658436
        k(   15) = (   0.0292398  -0.2631579  -0.2631579), wk =   0.0164609
        k(   16) = (   0.0877193   0.0877193   0.0877193), wk =   0.0219479
        k(   17) = (   0.0877193   0.0877193   0.1461988), wk =   0.0658436
        k(   18) = (   0.0877193   0.0877193   0.2046784), wk =   0.0658436
        k(   19) = (   0.0877193   0.0877193  -0.2631579), wk =   0.0329218
        k(   20) = (   0.0877193   0.1461988   0.1461988), wk =   0.0658436
        k(   21) = (   0.0877193   0.1461988   0.2046784), wk =   0.1316872
        k(   22) = (   0.0877193   0.1461988  -0.2631579), wk =   0.0658436
        k(   23) = (   0.0877193   0.2046784   0.2046784), wk =   0.0658436
        k(   24) = (   0.0877193   0.2046784  -0.2631579), wk =   0.0658436
        k(   25) = (   0.0877193  -0.2631579  -0.2631579), wk =   0.0164609
        k(   26) = (   0.1461988   0.1461988   0.1461988), wk =   0.0219479
        k(   27) = (   0.1461988   0.1461988   0.2046784), wk =   0.0658436
        k(   28) = (   0.1461988   0.1461988  -0.2631579), wk =   0.0329218
        k(   29) = (   0.1461988   0.2046784   0.2046784), wk =   0.0658436
        k(   30) = (   0.1461988   0.2046784  -0.2631579), wk =   0.0658436
        k(   31) = (   0.1461988  -0.2631579  -0.2631579), wk =   0.0164609
        k(   32) = (   0.2046784   0.2046784   0.2046784), wk =   0.0219479
        k(   33) = (   0.2046784   0.2046784  -0.2631579), wk =   0.0329218
        k(   34) = (   0.2046784  -0.2631579  -0.2631579), wk =   0.0164609
        k(   35) = (  -0.2631579  -0.2631579  -0.2631579), wk =   0.0027435

     Dense  grid:   771497 G-vectors     FFT dimensions: ( 120, 120, 120)

     Smooth grid:   413813 G-vectors     FFT dimensions: (  96,  96,  96)

     Estimated max dynamical RAM per process >      74.78 MB

     Estimated total dynamical RAM >       5.26 GB

     Initial potential from superposition of free atoms

     starting charge  127.99490, renormalised to  128.00000
     Starting wfcs are   80 randomized atomic wfcs
     Checking if some PAW data can be deallocated... 

     total cpu time spent up to now is        6.9 secs

     Self-consistent Calculation

     iteration #  1     ecut=    71.00 Ry     beta= 0.10
     Davidson diagonalization with overlap
     ethr =  1.00E-02,  avg # of iterations =  2.0

     total cpu time spent up to now is       14.0 secs

     total energy              =   -3449.61093582 Ry
     estimated scf accuracy    <       4.75077277 Ry

     iteration #  2     ecut=    71.00 Ry     beta= 0.10
     Davidson diagonalization with overlap
     ethr =  3.71E-03,  avg # of iterations =  1.0

     total cpu time spent up to now is       20.3 secs

     total energy              =   -3448.98114363 Ry
     estimated scf accuracy    <       3.63408506 Ry

     iteration #  3     ecut=    71.00 Ry     beta= 0.10
     Davidson diagonalization with overlap
     ethr =  2.84E-03,  avg # of iterations =  1.0

     total cpu time spent up to now is       27.2 secs

     total energy              =   -3448.51414954 Ry
     estimated scf accuracy    <       7.83386166 Ry

     iteration #  4     ecut=    71.00 Ry     beta= 0.10
     Davidson diagonalization with overlap
     ethr =  2.84E-03,  avg # of iterations =  2.0

     total cpu time spent up to now is       35.7 secs

     total energy              =   -3448.96308543 Ry
     estimated scf accuracy    <       1.70376375 Ry

     iteration #  5     ecut=    71.00 Ry     beta= 0.10
     Davidson diagonalization with overlap
     ethr =  1.33E-03,  avg # of iterations =  1.0

     total cpu time spent up to now is       42.4 secs

     total energy              =   -3448.73623229 Ry
     estimated scf accuracy    <       0.45322136 Ry

     iteration #  6     ecut=    71.00 Ry     beta= 0.10
     Davidson diagonalization with overlap
     ethr =  3.54E-04,  avg # of iterations =  2.7

     total cpu time spent up to now is       51.8 secs

     total energy              =   -3449.09865845 Ry
     estimated scf accuracy    <       1.47857105 Ry

     iteration #  7     ecut=    71.00 Ry     beta= 0.10
     Davidson diagonalization with overlap
     ethr =  3.54E-04,  avg # of iterations =  1.0

     total cpu time spent up to now is       58.8 secs

     total energy              =   -3448.97466835 Ry
     estimated scf accuracy    <       1.30243010 Ry

     iteration #  8     ecut=    71.00 Ry     beta= 0.10
     Davidson diagonalization with overlap
     ethr =  3.54E-04,  avg # of iterations =  1.0

     total cpu time spent up to now is       65.2 secs

     total energy              =   -3448.96543108 Ry
     estimated scf accuracy    <       0.63080716 Ry

     iteration #  9     ecut=    71.00 Ry     beta= 0.10
     Davidson diagonalization with overlap
     ethr =  3.54E-04,  avg # of iterations =  1.0

     total cpu time spent up to now is       71.4 secs

     total energy              =   -3448.93834733 Ry
     estimated scf accuracy    <       0.44054802 Ry

     iteration # 10     ecut=    71.00 Ry     beta= 0.10
     Davidson diagonalization with overlap
     ethr =  3.44E-04,  avg # of iterations =  1.0

     total cpu time spent up to now is       78.4 secs

     total energy              =   -3448.92080818 Ry
     estimated scf accuracy    <       0.26880964 Ry

     iteration # 11     ecut=    71.00 Ry     beta= 0.10
     Davidson diagonalization with overlap
     ethr =  2.10E-04,  avg # of iterations =  1.0

     total cpu time spent up to now is       85.1 secs

     total energy              =   -3448.92263994 Ry
     estimated scf accuracy    <       0.12754691 Ry

     iteration # 12     ecut=    71.00 Ry     beta= 0.10
     Davidson diagonalization with overlap
     ethr =  9.96E-05,  avg # of iterations =  1.0

     total cpu time spent up to now is       92.3 secs

     total energy              =   -3448.90243328 Ry
     estimated scf accuracy    <       0.11253997 Ry

     iteration # 13     ecut=    71.00 Ry     beta= 0.10
     Davidson diagonalization with overlap
     ethr =  8.79E-05,  avg # of iterations =  2.0

     total cpu time spent up to now is       99.8 secs

     total energy              =   -3448.91079194 Ry
     estimated scf accuracy    <       0.01600106 Ry

     iteration # 14     ecut=    71.00 Ry     beta= 0.10
     Davidson diagonalization with overlap
     ethr =  1.25E-05,  avg # of iterations =  4.8

     total cpu time spent up to now is      108.7 secs

     total energy              =   -3448.91092214 Ry
     estimated scf accuracy    <       0.00312104 Ry

     iteration # 15     ecut=    71.00 Ry     beta= 0.10
     Davidson diagonalization with overlap
     ethr =  2.44E-06,  avg # of iterations =  3.9

     total cpu time spent up to now is      118.8 secs

     total energy              =   -3448.91177792 Ry
     estimated scf accuracy    <       0.00059718 Ry

     iteration # 16     ecut=    71.00 Ry     beta= 0.10
     Davidson diagonalization with overlap
     ethr =  4.67E-07,  avg # of iterations =  4.1

     total cpu time spent up to now is      126.6 secs

     total energy              =   -3448.91171142 Ry
     estimated scf accuracy    <       0.00030834 Ry

     iteration # 17     ecut=    71.00 Ry     beta= 0.10
     Davidson diagonalization with overlap
     ethr =  2.41E-07,  avg # of iterations =  6.6

     total cpu time spent up to now is      139.2 secs

     total energy              =   -3448.91113980 Ry
     estimated scf accuracy    <       0.00456154 Ry

     iteration # 18     ecut=    71.00 Ry     beta= 0.10
     Davidson diagonalization with overlap
     ethr =  2.41E-07,  avg # of iterations =  6.1

     total cpu time spent up to now is      151.9 secs

     total energy              =   -3448.91194397 Ry
     estimated scf accuracy    <       0.00023591 Ry

     iteration # 19     ecut=    71.00 Ry     beta= 0.10
     Davidson diagonalization with overlap
     ethr =  1.84E-07,  avg # of iterations =  2.0

     total cpu time spent up to now is      161.2 secs

     total energy              =   -3448.91197376 Ry
     estimated scf accuracy    <       0.00000520 Ry

     iteration # 20     ecut=    71.00 Ry     beta= 0.10
     Davidson diagonalization with overlap
     ethr =  4.06E-09,  avg # of iterations =  5.2

     total cpu time spent up to now is      171.8 secs

     total energy              =   -3448.91197760 Ry
     estimated scf accuracy    <       0.00000366 Ry

     iteration # 21     ecut=    71.00 Ry     beta= 0.10
     Davidson diagonalization with overlap
     ethr =  2.86E-09,  avg # of iterations =  1.2

     total cpu time spent up to now is      178.6 secs

     total energy              =   -3448.91198872 Ry
     estimated scf accuracy    <       0.00000213 Ry

     iteration # 22     ecut=    71.00 Ry     beta= 0.10
     Davidson diagonalization with overlap
     ethr =  1.66E-09,  avg # of iterations =  7.1

     total cpu time spent up to now is      192.2 secs

     total energy              =   -3448.91197587 Ry
     estimated scf accuracy    <       0.00007482 Ry

     iteration # 23     ecut=    71.00 Ry     beta= 0.10
     Davidson diagonalization with overlap
     ethr =  1.66E-09,  avg # of iterations =  6.7

     total cpu time spent up to now is      206.4 secs

     total energy              =   -3448.91198847 Ry
     estimated scf accuracy    <       0.00000194 Ry

     iteration # 24     ecut=    71.00 Ry     beta= 0.10
     Davidson diagonalization with overlap
     ethr =  1.51E-09,  avg # of iterations =  1.5

     total cpu time spent up to now is      212.8 secs

     End of self-consistent calculation

          k = 0.0292 0.0292 0.0292 ( 51750 PWs)   bands (ev):

   -71.5626 -71.5626 -71.5626 -71.5624 -71.5624 -71.5624 -71.5624 -71.5617
   -41.6336 -41.6336 -41.6336 -41.6336 -41.6336 -41.6336 -41.6335 -41.6335
   -41.6335 -41.6335 -41.6335 -41.6335 -41.6330 -41.6330 -41.6330 -41.6330
   -41.6330 -41.6330 -41.6329 -41.6329 -41.6329 -41.6326 -41.6326 -41.6326
    -1.3736  -0.8596  -0.8595  -0.8595  -0.7893  -0.7893  -0.7565  -0.7565
    -0.7564  -0.7375  -0.7375  -0.7375  -0.7314  -0.7314  -0.7314  -0.6862
    -0.6851  -0.6851  -0.5274  -0.5274  -0.5274  -0.5263  -0.5263  -0.5263
    -0.5096  -0.5096  -0.5096  -0.5094  -0.5094  -0.5094  -0.4169  -0.4166
    -0.4166  -0.4070  -0.4070  -0.4070  -0.3117  -0.3117  -0.3117  -0.3045
    -0.3045   0.2110   0.2112   0.2112   1.1371

          k = 0.0292 0.0292 0.0877 ( 51715 PWs)   bands (ev):

   -71.5626 -71.5626 -71.5626 -71.5624 -71.5624 -71.5624 -71.5624 -71.5617
   -41.6336 -41.6336 -41.6336 -41.6336 -41.6336 -41.6335 -41.6335 -41.6335
   -41.6335 -41.6335 -41.6335 -41.6335 -41.6330 -41.6330 -41.6330 -41.6330
   -41.6330 -41.6330 -41.6329 -41.6329 -41.6329 -41.6326 -41.6326 -41.6326
    -1.3320  -0.8736  -0.8337  -0.8337  -0.7873  -0.7755  -0.7584  -0.7438
    -0.7438  -0.7406  -0.7406  -0.7287  -0.7209  -0.7209  -0.7108  -0.6884
    -0.6760  -0.6755  -0.5416  -0.5416  -0.5256  -0.5256  -0.5214  -0.5212
    -0.5211  -0.5199  -0.5106  -0.5106  -0.5035  -0.5035  -0.4236  -0.4235
    -0.4161  -0.4134  -0.4134  -0.4076  -0.3334  -0.3334  -0.3290  -0.3112
    -0.3049   0.0320   0.2285   0.2286   0.9802

          k = 0.0292 0.0292 0.1462 ( 51734 PWs)   bands (ev):

   -71.5626 -71.5626 -71.5626 -71.5624 -71.5624 -71.5624 -71.5624 -71.5617
   -41.6336 -41.6336 -41.6336 -41.6336 -41.6335 -41.6335 -41.6335 -41.6335
   -41.6335 -41.6335 -41.6334 -41.6334 -41.6331 -41.6331 -41.6330 -41.6330
   -41.6330 -41.6330 -41.6330 -41.6329 -41.6329 -41.6326 -41.6326 -41.6326
    -1.2534  -0.9042  -0.8003  -0.8003  -0.7836  -0.7622  -0.7466  -0.7466
    -0.7448  -0.7235  -0.7049  -0.7048  -0.7006  -0.7006  -0.6936  -0.6607
    -0.6577  -0.6572  -0.5680  -0.5680  -0.5430  -0.5429  -0.5237  -0.5237
    -0.5125  -0.5125  -0.5092  -0.5078  -0.4923  -0.4923  -0.4364  -0.4363
    -0.4253  -0.4253  -0.4150  -0.4087  -0.3786  -0.3785  -0.3759  -0.3104
    -0.3057  -0.2057   0.2662   0.2663   0.7706

          k = 0.0292 0.0292 0.2047 ( 51721 PWs)   bands (ev):

   -71.5626 -71.5626 -71.5626 -71.5624 -71.5624 -71.5624 -71.5624 -71.5617
   -41.6336 -41.6336 -41.6336 -41.6336 -41.6335 -41.6335 -41.6335 -41.6335
   -41.6334 -41.6334 -41.6334 -41.6333 -41.6332 -41.6332 -41.6331 -41.6330
   -41.6330 -41.6330 -41.6330 -41.6329 -41.6329 -41.6327 -41.6326 -41.6326
    -1.1490  -0.9578  -0.7790  -0.7790  -0.7786  -0.7672  -0.7549  -0.7549
    -0.7166  -0.7007  -0.6887  -0.6722  -0.6722  -0.6324  -0.6318  -0.6301
    -0.6300  -0.6011  -0.6011  -0.5936  -0.5711  -0.5706  -0.5211  -0.5211
    -0.5151  -0.5151  -0.4949  -0.4914  -0.4774  -0.4774  -0.4534  -0.4532
    -0.4473  -0.4472  -0.4411  -0.4411  -0.4408  -0.4224  -0.4135  -0.4102
    -0.3092  -0.3068   0.3308   0.3310   0.5793

          k = 0.0292 0.0292-0.2632 ( 51746 PWs)   bands (ev):

   -71.5626 -71.5626 -71.5626 -71.5624 -71.5624 -71.5624 -71.5624 -71.5617
   -41.6336 -41.6336 -41.6336 -41.6336 -41.6335 -41.6335 -41.6335 -41.6335
   -41.6334 -41.6334 -41.6334 -41.6333 -41.6332 -41.6332 -41.6332 -41.6330
   -41.6330 -41.6330 -41.6330 -41.6329 -41.6329 -41.6327 -41.6326 -41.6326
    -1.0419  -1.0417  -0.7730  -0.7729  -0.7655  -0.7655  -0.7654  -0.7654
    -0.7086  -0.7086  -0.6383  -0.6383  -0.6383  -0.6383  -0.6026  -0.6026
    -0.6020  -0.6020  -0.5894  -0.5894  -0.5364  -0.5363  -0.5363  -0.5363
    -0.5182  -0.5181  -0.5181  -0.5181  -0.5161  -0.5161  -0.4725  -0.4725
    -0.4716  -0.4716  -0.4588  -0.4588  -0.4588  -0.4588  -0.4119  -0.4118
    -0.3080  -0.3080   0.4321   0.4323   0.4323

          k = 0.0292 0.0877 0.0877 ( 51709 PWs)   bands (ev):

   -71.5626 -71.5626 -71.5626 -71.5624 -71.5624 -71.5624 -71.5624 -71.5617
   -41.6336 -41.6336 -41.6336 -41.6336 -41.6335 -41.6335 -41.6335 -41.6335
   -41.6335 -41.6335 -41.6335 -41.6335 -41.6330 -41.6330 -41.6330 -41.6330
   -41.6330 -41.6330 -41.6329 -41.6329 -41.6329 -41.6326 -41.6326 -41.6326
    -1.2902  -0.8466  -0.8465  -0.8046  -0.7792  -0.7683  -0.7461  -0.7461
    -0.7440  -0.7353  -0.7184  -0.7184  -0.7137  -0.7137  -0.7106  -0.6818
    -0.6755  -0.6664  -0.5447  -0.5358  -0.5351  -0.5351  -0.5224  -0.5224
    -0.5193  -0.5193  -0.5151  -0.5151  -0.5052  -0.5039  -0.4305  -0.4236
    -0.4222  -0.4200  -0.4140  -0.4140  -0.3524  -0.3403  -0.3326  -0.3326
    -0.3179   0.0508   0.0508   0.2467   0.8242

          k = 0.0292 0.0877 0.1462 ( 51727 PWs)   bands (ev):

   -71.5626 -71.5626 -71.5626 -71.5624 -71.5624 -71.5624 -71.5624 -71.5617
   -41.6336 -41.6336 -41.6336 -41.6335 -41.6335 -41.6335 -41.6335 -41.6335
   -41.6335 -41.6335 -41.6334 -41.6334 -41.6331 -41.6331 -41.6330 -41.6330
   -41.6330 -41.6330 -41.6330 -41.6329 -41.6329 -41.6326 -41.6326 -41.6326
    -1.2110  -0.8743  -0.8099  -0.7731  -0.7670  -0.7503  -0.7502  -0.7408
    -0.7196  -0.7133  -0.7088  -0.7021  -0.6981  -0.6911  -0.6847  -0.6637
    -0.6592  -0.6486  -0.5678  -0.5607  -0.5442  -0.5364  -0.5362  -0.5246
    -0.5233  -0.5174  -0.5073  -0.5066  -0.5037  -0.4932  -0.4434  -0.4357
    -0.4322  -0.4259  -0.4217  -0.4152  -0.3924  -0.3817  -0.3768  -0.3312
    -0.3234  -0.1872   0.0907   0.2860   0.6119

          k = 0.0292 0.0877 0.2047 ( 51726 PWs)   bands (ev):

   -71.5626 -71.5626 -71.5626 -71.5624 -71.5624 -71.5624 -71.5624 -71.5617
   -41.6336 -41.6336 -41.6336 -41.6335 -41.6335 -41.6335 -41.6335 -41.6335
   -41.6334 -41.6334 -41.6334 -41.6333 -41.6332 -41.6332 -41.6331 -41.6330
   -41.6330 -41.6330 -41.6330 -41.6329 -41.6329 -41.6327 -41.6326 -41.6326
    -1.1067  -0.9231  -0.7855  -0.7676  -0.7591  -0.7556  -0.7481  -0.7274
    -0.7066  -0.6913  -0.6860  -0.6700  -0.6639  -0.6376  -0.6339  -0.6275
    -0.6240  -0.6000  -0.5979  -0.5906  -0.5724  -0.5623  -0.5339  -0.5275
    -0.5149  -0.5121  -0.5091  -0.4912  -0.4902  -0.4784  -0.4602  -0.4552
    -0.4526  -0.4483  -0.4444  -0.4423  -0.4419  -0.4202  -0.4169  -0.4033
    -0.3295  -0.3257   0.1579   0.3529   0.4150

          k = 0.0292 0.0877-0.2632 ( 51756 PWs)   bands (ev):

   -71.5626 -71.5626 -71.5626 -71.5624 -71.5624 -71.5624 -71.5624 -71.5617
   -41.6336 -41.6336 -41.6336 -41.6336 -41.6335 -41.6335 -41.6335 -41.6335
   -41.6334 -41.6334 -41.6334 -41.6333 -41.6332 -41.6332 -41.6332 -41.6330
   -41.6330 -41.6330 -41.6330 -41.6329 -41.6329 -41.6327 -41.6326 -41.6326
    -1.0020  -1.0018  -0.7704  -0.7704  -0.7616  -0.7616  -0.7368  -0.7367
    -0.6989  -0.6989  -0.6366  -0.6366  -0.6321  -0.6321  -0.6041  -0.6041
    -0.5955  -0.5955  -0.5882  -0.5882  -0.5398  -0.5398  -0.5356  -0.5355
    -0.5307  -0.5307  -0.5183  -0.5183  -0.5120  -0.5120  -0.4765  -0.4765
    -0.4708  -0.4708  -0.4653  -0.4653  -0.4597  -0.4597  -0.4184  -0.4184
    -0.3276  -0.3276   0.2627   0.2628   0.4569

          k = 0.0292 0.1462 0.1462 ( 51704 PWs)   bands (ev):

   -71.5626 -71.5626 -71.5626 -71.5624 -71.5624 -71.5624 -71.5624 -71.5617
   -41.6336 -41.6336 -41.6335 -41.6335 -41.6335 -41.6335 -41.6335 -41.6335
   -41.6334 -41.6334 -41.6334 -41.6334 -41.6331 -41.6331 -41.6331 -41.6331
   -41.6330 -41.6330 -41.6330 -41.6330 -41.6329 -41.6326 -41.6326 -41.6326
    -1.1312  -0.8308  -0.8307  -0.7572  -0.7547  -0.7270  -0.7154  -0.7154
    -0.7076  -0.6941  -0.6936  -0.6936  -0.6730  -0.6727  -0.6692  -0.6692
    -0.6574  -0.6319  -0.5732  -0.5536  -0.5483  -0.5483  -0.5467  -0.5467
    -0.5241  -0.5240  -0.5055  -0.5055  -0.4967  -0.4935  -0.4564  -0.4449
    -0.4360  -0.4327  -0.4272  -0.4272  -0.4225  -0.4035  -0.3738  -0.3738
    -0.3470  -0.1486  -0.1485   0.3283   0.3918

          k = 0.0292 0.1462 0.2047 ( 51739 PWs)   bands (ev):

   -71.5626 -71.5626 -71.5626 -71.5624 -71.5624 -71.5624 -71.5624 -71.5617
   -41.6336 -41.6336 -41.6335 -41.6335 -41.6335 -41.6335 -41.6335 -41.6334
   -41.6334 -41.6334 -41.6334 -41.6333 -41.6332 -41.6331 -41.6331 -41.6331
   -41.6331 -41.6330 -41.6330 -41.6330 -41.6329 -41.6327 -41.6326 -41.6326
    -1.0286  -0.8681  -0.7991  -0.7672  -0.7412  -0.7235  -0.6920  -0.6874
    -0.6804  -0.6764  -0.6742  -0.6660  -0.6482  -0.6474  -0.6365  -0.6215
    -0.6089  -0.6038  -0.5987  -0.5761  -0.5752  -0.5562  -0.5499  -0.5488
    -0.5373  -0.5102  -0.5031  -0.4978  -0.4896  -0.4812  -0.4725  -0.4720
    -0.4614  -0.4546  -0.4513  -0.4432  -0.4361  -0.4325  -0.4290  -0.3707
    -0.3702  -0.3598  -0.0830   0.1840   0.3996

          k = 0.0292 0.1462-0.2632 ( 51774 PWs)   bands (ev):

   -71.5626 -71.5626 -71.5626 -71.5624 -71.5624 -71.5624 -71.5624 -71.5617
   -41.6336 -41.6336 -41.6335 -41.6335 -41.6335 -41.6335 -41.6335 -41.6334
   -41.6334 -41.6334 -41.6334 -41.6333 -41.6332 -41.6332 -41.6332 -41.6331
   -41.6331 -41.6330 -41.6330 -41.6330 -41.6329 -41.6327 -41.6326 -41.6326
    -0.9327  -0.9326  -0.7804  -0.7803  -0.7320  -0.7320  -0.6842  -0.6841
    -0.6806  -0.6805  -0.6336  -0.6336  -0.6210  -0.6210  -0.6070  -0.6070
    -0.5869  -0.5869  -0.5830  -0.5829  -0.5534  -0.5534  -0.5469  -0.5469
    -0.5351  -0.5351  -0.5231  -0.5231  -0.5004  -0.5004  -0.4808  -0.4808
    -0.4753  -0.4753  -0.4689  -0.4689  -0.4612  -0.4612  -0.4306  -0.4306
    -0.3659  -0.3659   0.0235   0.0237   0.5086

          k = 0.0292 0.2047 0.2047 ( 51753 PWs)   bands (ev):

   -71.5626 -71.5626 -71.5626 -71.5624 -71.5624 -71.5624 -71.5624 -71.5617
   -41.6336 -41.6336 -41.6335 -41.6335 -41.6335 -41.6335 -41.6334 -41.6334
   -41.6334 -41.6334 -41.6333 -41.6333 -41.6332 -41.6332 -41.6332 -41.6331
   -41.6331 -41.6331 -41.6330 -41.6330 -41.6329 -41.6327 -41.6327 -41.6326
    -0.9354  -0.8224  -0.8223  -0.7791  -0.6901  -0.6671  -0.6610  -0.6610
    -0.6576  -0.6576  -0.6572  -0.6350  -0.6331  -0.6269  -0.6106  -0.6106
    -0.6078  -0.5941  -0.5881  -0.5786  -0.5786  -0.5777  -0.5638  -0.5638
    -0.5339  -0.5339  -0.5076  -0.4873  -0.4873  -0.4851  -0.4844  -0.4814
    -0.4786  -0.4771  -0.4515  -0.4469  -0.4451  -0.4451  -0.4287  -0.4287
    -0.3962  -0.3152  -0.3151  -0.0392   0.4769

          k = 0.0292 0.2047-0.2632 ( 51726 PWs)   bands (ev):

   -71.5626 -71.5626 -71.5626 -71.5624 -71.5624 -71.5624 -71.5624 -71.5617
   -41.6336 -41.6336 -41.6335 -41.6335 -41.6334 -41.6334 -41.6334 -41.6334
   -41.6334 -41.6334 -41.6333 -41.6333 -41.6332 -41.6332 -41.6332 -41.6332
   -41.6332 -41.6331 -41.6330 -41.6330 -41.6329 -41.6327 -41.6327 -41.6326
    -0.8633  -0.8632  -0.7960  -0.7959  -0.6681  -0.6680  -0.6562  -0.6561
    -0.6309  -0.6309  -0.6186  -0.6186  -0.6098  -0.6098  -0.6074  -0.6074
    -0.5881  -0.5881  -0.5815  -0.5815  -0.5667  -0.5666  -0.5600  -0.5600
    -0.5383  -0.5383  -0.5332  -0.5332  -0.4848  -0.4848  -0.4809  -0.4809
    -0.4745  -0.4745  -0.4632  -0.4632  -0.4627  -0.4627  -0.4464  -0.4464
    -0.4178  -0.4178  -0.2114  -0.2113   0.5923

          k = 0.0292-0.2632-0.2632 ( 51712 PWs)   bands (ev):

   -71.5626 -71.5626 -71.5626 -71.5624 -71.5624 -71.5624 -71.5624 -71.5617
   -41.6336 -41.6336 -41.6335 -41.6335 -41.6334 -41.6334 -41.6334 -41.6334
   -41.6334 -41.6334 -41.6332 -41.6332 -41.6332 -41.6332 -41.6332 -41.6332
   -41.6332 -41.6332 -41.6330 -41.6330 -41.6329 -41.6327 -41.6327 -41.6326
    -0.8205  -0.8203  -0.8202  -0.8202  -0.6346  -0.6346  -0.6346  -0.6346
    -0.6057  -0.6057  -0.6056  -0.6056  -0.5959  -0.5959  -0.5959  -0.5959
    -0.5919  -0.5918  -0.5918  -0.5918  -0.5615  -0.5615  -0.5615  -0.5615
    -0.5488  -0.5488  -0.5488  -0.5488  -0.4699  -0.4699  -0.4699  -0.4699
    -0.4648  -0.4648  -0.4648  -0.4648  -0.4630  -0.4630  -0.4629  -0.4629
    -0.3912  -0.3911  -0.3911  -0.3911   0.7142

          k = 0.0877 0.0877 0.0877 ( 51756 PWs)   bands (ev):

   -71.5626 -71.5626 -71.5626 -71.5624 -71.5624 -71.5624 -71.5624 -71.5617
   -41.6336 -41.6336 -41.6336 -41.6336 -41.6336 -41.6336 -41.6335 -41.6335
   -41.6335 -41.6335 -41.6335 -41.6335 -41.6330 -41.6330 -41.6330 -41.6330
   -41.6330 -41.6330 -41.6329 -41.6329 -41.6329 -41.6326 -41.6326 -41.6326
    -1.2479  -0.8167  -0.8166  -0.8166  -0.7663  -0.7663  -0.7374  -0.7374
    -0.7374  -0.7175  -0.7175  -0.7175  -0.7077  -0.7077  -0.7077  -0.6753
    -0.6661  -0.6661  -0.5383  -0.5383  -0.5383  -0.5291  -0.5291  -0.5291
    -0.5169  -0.5169  -0.5169  -0.5155  -0.5155  -0.5155  -0.4310  -0.4293
    -0.4293  -0.4206  -0.4206  -0.4206  -0.3514  -0.3514  -0.3513  -0.3409
    -0.3409   0.0702   0.0703   0.0703   0.8533

          k = 0.0877 0.0877 0.1462 ( 51731 PWs)   bands (ev):

   -71.5626 -71.5626 -71.5626 -71.5624 -71.5624 -71.5624 -71.5624 -71.5617
   -41.6336 -41.6336 -41.6336 -41.6335 -41.6335 -41.6335 -41.6335 -41.6335
   -41.6335 -41.6335 -41.6334 -41.6334 -41.6331 -41.6331 -41.6330 -41.6330
   -41.6330 -41.6330 -41.6330 -41.6329 -41.6329 -41.6326 -41.6326 -41.6326
    -1.1679  -0.8423  -0.7761  -0.7761  -0.7627  -0.7412  -0.7376  -0.7233
    -0.7233  -0.7058  -0.7057  -0.7035  -0.6886  -0.6886  -0.6763  -0.6668
    -0.6522  -0.6483  -0.5606  -0.5606  -0.5381  -0.5368  -0.5299  -0.5299
    -0.5271  -0.5184  -0.5184  -0.5166  -0.5047  -0.5047  -0.4430  -0.4425
    -0.4329  -0.4329  -0.4285  -0.4219  -0.3906  -0.3905  -0.3854  -0.3496
    -0.3420  -0.1680   0.1116   0.1117   0.6413

          k = 0.0877 0.0877 0.2047 ( 51732 PWs)   bands (ev):

   -71.5626 -71.5626 -71.5626 -71.5624 -71.5624 -71.5624 -71.5624 -71.5617
   -41.6336 -41.6336 -41.6336 -41.6335 -41.6335 -41.6335 -41.6335 -41.6335
   -41.6335 -41.6334 -41.6334 -41.6333 -41.6332 -41.6332 -41.6331 -41.6330
   -41.6330 -41.6330 -41.6330 -41.6329 -41.6329 -41.6327 -41.6326 -41.6326
    -1.0632  -0.8870  -0.7578  -0.7540  -0.7539  -0.7464  -0.7314  -0.7314
    -0.6970  -0.6834  -0.6823  -0.6618  -0.6618  -0.6352  -0.6352  -0.6280
    -0.6236  -0.6022  -0.5895  -0.5895  -0.5645  -0.5631  -0.5274  -0.5274
    -0.5212  -0.5212  -0.5185  -0.4995  -0.4915  -0.4915  -0.4601  -0.4587
    -0.4502  -0.4502  -0.4492  -0.4492  -0.4476  -0.4269  -0.4240  -0.3851
    -0.3476  -0.3436   0.1811   0.1812   0.4433

          k = 0.0877 0.0877-0.2632 ( 51818 PWs)   bands (ev):

   -71.5626 -71.5626 -71.5626 -71.5624 -71.5624 -71.5624 -71.5624 -71.5617
   -41.6336 -41.6336 -41.6336 -41.6336 -41.6335 -41.6335 -41.6335 -41.6335
   -41.6334 -41.6334 -41.6334 -41.6333 -41.6332 -41.6332 -41.6332 -41.6330
   -41.6330 -41.6330 -41.6330 -41.6330 -41.6330 -41.6327 -41.6326 -41.6326
    -0.9609  -0.9607  -0.7521  -0.7521  -0.7414  -0.7414  -0.7413  -0.7413
    -0.6896  -0.6896  -0.6305  -0.6305  -0.6304  -0.6304  -0.5999  -0.5999
    -0.5946  -0.5946  -0.5870  -0.5870  -0.5391  -0.5390  -0.5390  -0.5390
    -0.5243  -0.5243  -0.5243  -0.5243  -0.5202  -0.5202  -0.4799  -0.4799
    -0.4701  -0.4701  -0.4664  -0.4664  -0.4664  -0.4664  -0.4250  -0.4250
    -0.3455  -0.3455   0.2886   0.2888   0.2888

          k = 0.0877 0.1462 0.1462 ( 51755 PWs)   bands (ev):

   -71.5626 -71.5626 -71.5626 -71.5624 -71.5624 -71.5624 -71.5624 -71.5617
   -41.6336 -41.6336 -41.6335 -41.6335 -41.6335 -41.6335 -41.6335 -41.6335
   -41.6335 -41.6334 -41.6334 -41.6334 -41.6331 -41.6331 -41.6331 -41.6331
   -41.6330 -41.6330 -41.6330 -41.6330 -41.6329 -41.6326 -41.6326 -41.6326
    -1.0867  -0.7956  -0.7955  -0.7447  -0.7298  -0.7251  -0.7171  -0.7118
    -0.7118  -0.6963  -0.6851  -0.6851  -0.6719  -0.6719  -0.6707  -0.6649
    -0.6486  -0.6330  -0.5659  -0.5484  -0.5484  -0.5464  -0.5399  -0.5399
    -0.5252  -0.5252  -0.5176  -0.5176  -0.5083  -0.5053  -0.4556  -0.4458
    -0.4425  -0.4402  -0.4343  -0.4343  -0.4203  -0.4043  -0.3877  -0.3877
    -0.3668  -0.1278  -0.1277   0.1561   0.4219

          k = 0.0877 0.1462 0.2047 ( 51731 PWs)   bands (ev):

   -71.5626 -71.5626 -71.5626 -71.5624 -71.5624 -71.5624 -71.5624 -71.5617
   -41.6336 -41.6335 -41.6335 -41.6335 -41.6335 -41.6335 -41.6334 -41.6334
   -41.6334 -41.6334 -41.6334 -41.6333 -41.6332 -41.6332 -41.6331 -41.6331
   -41.6331 -41.6330 -41.6330 -41.6330 -41.6329 -41.6327 -41.6326 -41.6326
    -0.9829  -0.8296  -0.7660  -0.7389  -0.7340  -0.7190  -0.6967  -0.6805
    -0.6786  -0.6781  -0.6659  -0.6576  -0.6462  -0.6450  -0.6300  -0.6288
    -0.6100  -0.6082  -0.5879  -0.5752  -0.5664  -0.5501  -0.5490  -0.5430
    -0.5386  -0.5153  -0.5115  -0.5097  -0.5014  -0.4947  -0.4716  -0.4668
    -0.4624  -0.4576  -0.4565  -0.4508  -0.4446  -0.4394  -0.4366  -0.3844
    -0.3764  -0.3515  -0.0594   0.2134   0.2302

          k = 0.0877 0.1462-0.2632 ( 51720 PWs)   bands (ev):

   -71.5626 -71.5626 -71.5626 -71.5624 -71.5624 -71.5624 -71.5624 -71.5617
   -41.6336 -41.6336 -41.6335 -41.6335 -41.6335 -41.6335 -41.6334 -41.6334
   -41.6334 -41.6334 -41.6334 -41.6332 -41.6332 -41.6332 -41.6332 -41.6331
   -41.6331 -41.6330 -41.6330 -41.6330 -41.6329 -41.6327 -41.6326 -41.6326
    -0.8893  -0.8891  -0.7504  -0.7503  -0.7265  -0.7264  -0.6884  -0.6883
    -0.6720  -0.6719  -0.6275  -0.6275  -0.6194  -0.6194  -0.6012  -0.6012
    -0.5857  -0.5857  -0.5836  -0.5836  -0.5464  -0.5464  -0.5462  -0.5462
    -0.5384  -0.5384  -0.5247  -0.5247  -0.5124  -0.5124  -0.4857  -0.4857
    -0.4773  -0.4773  -0.4686  -0.4686  -0.4658  -0.4658  -0.4368  -0.4368
    -0.3808  -0.3808   0.0505   0.0506   0.3429

          k = 0.0877 0.2047 0.2047 ( 51766 PWs)   bands (ev):

   -71.5626 -71.5626 -71.5626 -71.5624 -71.5624 -71.5624 -71.5624 -71.5617
   -41.6336 -41.6336 -41.6335 -41.6335 -41.6334 -41.6334 -41.6334 -41.6334
   -41.6334 -41.6334 -41.6333 -41.6333 -41.6332 -41.6332 -41.6332 -41.6332
   -41.6331 -41.6331 -41.6330 -41.6330 -41.6329 -41.6327 -41.6327 -41.6326
    -0.8885  -0.7862  -0.7861  -0.7496  -0.6854  -0.6654  -0.6551  -0.6551
    -0.6535  -0.6534  -0.6499  -0.6379  -0.6252  -0.6251  -0.6155  -0.6150
    -0.6150  -0.5893  -0.5861  -0.5698  -0.5697  -0.5692  -0.5634  -0.5634
    -0.5351  -0.5351  -0.5110  -0.4996  -0.4996  -0.4963  -0.4844  -0.4836
    -0.4822  -0.4786  -0.4551  -0.4548  -0.4533  -0.4533  -0.4383  -0.4383
    -0.4108  -0.2927  -0.2926  -0.0099   0.3106

          k = 0.0877 0.2047-0.2632 ( 51726 PWs)   bands (ev):

   -71.5626 -71.5626 -71.5626 -71.5624 -71.5624 -71.5624 -71.5624 -71.5617
   -41.6335 -41.6335 -41.6335 -41.6335 -41.6334 -41.6334 -41.6334 -41.6334
   -41.6334 -41.6334 -41.6333 -41.6333 -41.6332 -41.6332 -41.6332 -41.6332
   -41.6332 -41.6331 -41.6330 -41.6330 -41.6329 -41.6327 -41.6327 -41.6326
    -0.8213  -0.8211  -0.7640  -0.7639  -0.6653  -0.6653  -0.6487  -0.6487
    -0.6269  -0.6269  -0.6211  -0.6211  -0.6059  -0.6059  -0.6036  -0.6036
    -0.5869  -0.5869  -0.5726  -0.5725  -0.5676  -0.5676  -0.5593  -0.5593
    -0.5409  -0.5409  -0.5340  -0.5340  -0.4968  -0.4967  -0.4869  -0.4869
    -0.4849  -0.4849  -0.4716  -0.4715  -0.4596  -0.4596  -0.4412  -0.4412
    -0.4294  -0.4293  -0.1845  -0.1843   0.4302

          k = 0.0877-0.2632-0.2632 ( 51692 PWs)   bands (ev):

   -71.5626 -71.5626 -71.5626 -71.5624 -71.5624 -71.5624 -71.5624 -71.5617
   -41.6335 -41.6335 -41.6335 -41.6335 -41.6334 -41.6334 -41.6334 -41.6334
   -41.6334 -41.6334 -41.6332 -41.6332 -41.6332 -41.6332 -41.6332 -41.6332
   -41.6332 -41.6332 -41.6330 -41.6330 -41.6329 -41.6327 -41.6327 -41.6326
    -0.7844  -0.7843  -0.7842  -0.7842  -0.6287  -0.6287  -0.6287  -0.6286
    -0.6001  -0.6001  -0.6000  -0.6000  -0.5944  -0.5944  -0.5944  -0.5944
    -0.5908  -0.5908  -0.5908  -0.5908  -0.5608  -0.5608  -0.5608  -0.5608
    -0.5505  -0.5505  -0.5504  -0.5504  -0.4843  -0.4843  -0.4843  -0.4842
    -0.4727  -0.4727  -0.4727  -0.4727  -0.4712  -0.4712  -0.4712  -0.4712
    -0.3656  -0.3654  -0.3654  -0.3654   0.5563

          k = 0.1462 0.1462 0.1462 ( 51738 PWs)   bands (ev):

   -71.5626 -71.5626 -71.5626 -71.5624 -71.5624 -71.5624 -71.5624 -71.5617
   -41.6335 -41.6335 -41.6335 -41.6335 -41.6335 -41.6335 -41.6335 -41.6335
   -41.6334 -41.6334 -41.6334 -41.6334 -41.6331 -41.6331 -41.6331 -41.6331
   -41.6331 -41.6331 -41.6330 -41.6330 -41.6330 -41.6326 -41.6326 -41.6326
    -1.0028  -0.7353  -0.7352  -0.7352  -0.7217  -0.7217  -0.7004  -0.7004
    -0.7003  -0.6801  -0.6801  -0.6801  -0.6656  -0.6656  -0.6656  -0.6536
    -0.6317  -0.6317  -0.5542  -0.5542  -0.5542  -0.5328  -0.5328  -0.5328
    -0.5290  -0.5290  -0.5290  -0.5261  -0.5261  -0.5261  -0.4542  -0.4542
    -0.4536  -0.4475  -0.4475  -0.4475  -0.4172  -0.4172  -0.4171  -0.4059
    -0.4059  -0.0840  -0.0839  -0.0839   0.4836

          k = 0.1462 0.1462 0.2047 ( 51779 PWs)   bands (ev):

   -71.5626 -71.5626 -71.5626 -71.5624 -71.5624 -71.5624 -71.5624 -71.5617
   -41.6335 -41.6335 -41.6335 -41.6335 -41.6335 -41.6335 -41.6334 -41.6334
   -41.6334 -41.6334 -41.6334 -41.6333 -41.6332 -41.6332 -41.6331 -41.6331
   -41.6331 -41.6331 -41.6331 -41.6330 -41.6330 -41.6327 -41.6326 -41.6326
    -0.8972  -0.7635  -0.7169  -0.7061  -0.7061  -0.7056  -0.6872  -0.6872
    -0.6733  -0.6618  -0.6512  -0.6424  -0.6424  -0.6402  -0.6402  -0.6168
    -0.6144  -0.6085  -0.5743  -0.5742  -0.5525  -0.5524  -0.5458  -0.5358
    -0.5358  -0.5306  -0.5306  -0.5146  -0.5142  -0.5142  -0.4728  -0.4660
    -0.4645  -0.4645  -0.4626  -0.4626  -0.4620  -0.4514  -0.4502  -0.4139
    -0.4081  -0.3133  -0.0099  -0.0098   0.2738

          k = 0.1462 0.1462-0.2632 ( 51752 PWs)   bands (ev):

   -71.5626 -71.5626 -71.5626 -71.5624 -71.5624 -71.5624 -71.5624 -71.5617
   -41.6335 -41.6335 -41.6335 -41.6335 -41.6335 -41.6334 -41.6334 -41.6334
   -41.6334 -41.6334 -41.6334 -41.6332 -41.6332 -41.6332 -41.6332 -41.6331
   -41.6331 -41.6331 -41.6331 -41.6330 -41.6330 -41.6327 -41.6326 -41.6326
    -0.8114  -0.8113  -0.7114  -0.7113  -0.6960  -0.6960  -0.6959  -0.6959
    -0.6558  -0.6558  -0.6166  -0.6166  -0.6166  -0.6166  -0.5939  -0.5939
    -0.5843  -0.5843  -0.5811  -0.5811  -0.5454  -0.5454  -0.5454  -0.5454
    -0.5334  -0.5333  -0.5333  -0.5333  -0.5281  -0.5281  -0.4938  -0.4938
    -0.4811  -0.4811  -0.4811  -0.4811  -0.4616  -0.4616  -0.4423  -0.4422
    -0.4108  -0.4108   0.1066   0.1066   0.1067

          k = 0.1462 0.2047 0.2047 ( 51745 PWs)   bands (ev):

   -71.5626 -71.5626 -71.5626 -71.5624 -71.5624 -71.5624 -71.5624 -71.5617
   -41.6335 -41.6335 -41.6334 -41.6334 -41.6334 -41.6334 -41.6334 -41.6334
   -41.6334 -41.6334 -41.6333 -41.6333 -41.6332 -41.6332 -41.6332 -41.6332
   -41.6331 -41.6331 -41.6331 -41.6331 -41.6330 -41.6327 -41.6327 -41.6326
    -0.7983  -0.7206  -0.7205  -0.6960  -0.6762  -0.6624  -0.6504  -0.6504
    -0.6425  -0.6396  -0.6396  -0.6369  -0.6262  -0.6220  -0.6207  -0.6207
    -0.6099  -0.5908  -0.5759  -0.5638  -0.5638  -0.5554  -0.5554  -0.5540
    -0.5374  -0.5374  -0.5220  -0.5185  -0.5185  -0.5166  -0.4881  -0.4850
    -0.4838  -0.4816  -0.4697  -0.4678  -0.4678  -0.4584  -0.4584  -0.4568
    -0.4407  -0.2461  -0.2460   0.0504   0.0724

          k = 0.1462 0.2047-0.2632 ( 51788 PWs)   bands (ev):

   -71.5626 -71.5626 -71.5626 -71.5624 -71.5624 -71.5624 -71.5624 -71.5617
   -41.6335 -41.6335 -41.6334 -41.6334 -41.6334 -41.6334 -41.6334 -41.6334
   -41.6334 -41.6334 -41.6333 -41.6333 -41.6332 -41.6332 -41.6332 -41.6332
   -41.6332 -41.6331 -41.6331 -41.6331 -41.6330 -41.6327 -41.6327 -41.6326
    -0.7441  -0.7440  -0.7065  -0.7064  -0.6602  -0.6601  -0.6349  -0.6349
    -0.6306  -0.6306  -0.6134  -0.6134  -0.6033  -0.6033  -0.5931  -0.5931
    -0.5852  -0.5852  -0.5684  -0.5684  -0.5583  -0.5583  -0.5578  -0.5578
    -0.5462  -0.5462  -0.5354  -0.5354  -0.5168  -0.5167  -0.5002  -0.5002
    -0.4928  -0.4928  -0.4861  -0.4861  -0.4725  -0.4725  -0.4530  -0.4530
    -0.4147  -0.4146  -0.1286  -0.1285   0.1969

          k = 0.1462-0.2632-0.2632 ( 51744 PWs)   bands (ev):

   -71.5626 -71.5626 -71.5626 -71.5624 -71.5624 -71.5624 -71.5624 -71.5617
   -41.6335 -41.6335 -41.6334 -41.6334 -41.6334 -41.6334 -41.6334 -41.6334
   -41.6334 -41.6334 -41.6333 -41.6333 -41.6332 -41.6332 -41.6332 -41.6332
   -41.6332 -41.6332 -41.6331 -41.6331 -41.6330 -41.6327 -41.6327 -41.6326
    -0.7202  -0.7201  -0.7200  -0.7200  -0.6180  -0.6180  -0.6179  -0.6179
    -0.5921  -0.5921  -0.5921  -0.5921  -0.5916  -0.5916  -0.5916  -0.5916
    -0.5891  -0.5890  -0.5890  -0.5890  -0.5572  -0.5572  -0.5572  -0.5572
    -0.5537  -0.5537  -0.5537  -0.5537  -0.5033  -0.5033  -0.5033  -0.5033
    -0.4888  -0.4888  -0.4888  -0.4888  -0.4865  -0.4865  -0.4865  -0.4865
    -0.3161  -0.3159  -0.3159  -0.3159   0.3284

          k = 0.2047 0.2047 0.2047 ( 51782 PWs)   bands (ev):

   -71.5626 -71.5626 -71.5626 -71.5624 -71.5624 -71.5624 -71.5624 -71.5617
   -41.6334 -41.6334 -41.6334 -41.6334 -41.6334 -41.6334 -41.6334 -41.6334
   -41.6334 -41.6333 -41.6333 -41.6333 -41.6332 -41.6332 -41.6332 -41.6332
   -41.6332 -41.6332 -41.6331 -41.6331 -41.6331 -41.6327 -41.6327 -41.6327
    -0.6848  -0.6581  -0.6581  -0.6478  -0.6478  -0.6477  -0.6392  -0.6391
    -0.6391  -0.6315  -0.6315  -0.6315  -0.6231  -0.6168  -0.6168  -0.6167
    -0.5892  -0.5892  -0.5687  -0.5687  -0.5687  -0.5415  -0.5415  -0.5415
    -0.5392  -0.5392  -0.5392  -0.5342  -0.5342  -0.5341  -0.4895  -0.4895
    -0.4890  -0.4890  -0.4890  -0.4862  -0.4862  -0.4862  -0.4857  -0.4857
    -0.4399  -0.1661  -0.1659  -0.1659   0.1465

          k = 0.2047 0.2047-0.2632 ( 51804 PWs)   bands (ev):

   -71.5626 -71.5626 -71.5626 -71.5624 -71.5624 -71.5624 -71.5624 -71.5617
   -41.6334 -41.6334 -41.6334 -41.6334 -41.6334 -41.6334 -41.6334 -41.6334
   -41.6334 -41.6333 -41.6333 -41.6333 -41.6332 -41.6332 -41.6332 -41.6332
   -41.6332 -41.6332 -41.6332 -41.6331 -41.6331 -41.6327 -41.6327 -41.6327
    -0.6537  -0.6537  -0.6531  -0.6531  -0.6378  -0.6378  -0.6378  -0.6378
    -0.6178  -0.6177  -0.6010  -0.6010  -0.6010  -0.6010  -0.5852  -0.5852
    -0.5839  -0.5839  -0.5653  -0.5653  -0.5586  -0.5586  -0.5586  -0.5586
    -0.5380  -0.5380  -0.5380  -0.5380  -0.5373  -0.5373  -0.5119  -0.5119
    -0.5028  -0.5028  -0.5028  -0.5028  -0.4908  -0.4908  -0.4877  -0.4877
    -0.3551  -0.3550  -0.0370  -0.0370  -0.0369

          k = 0.2047-0.2632-0.2632 ( 51796 PWs)   bands (ev):

   -71.5626 -71.5626 -71.5626 -71.5624 -71.5624 -71.5624 -71.5624 -71.5617
   -41.6334 -41.6334 -41.6334 -41.6334 -41.6334 -41.6334 -41.6334 -41.6334
   -41.6334 -41.6333 -41.6332 -41.6332 -41.6332 -41.6332 -41.6332 -41.6332
   -41.6332 -41.6332 -41.6332 -41.6332 -41.6331 -41.6327 -41.6327 -41.6327
    -0.6457  -0.6456  -0.6456  -0.6456  -0.6051  -0.6051  -0.6051  -0.6050
    -0.5910  -0.5909  -0.5909  -0.5909  -0.5869  -0.5869  -0.5869  -0.5869
    -0.5860  -0.5860  -0.5860  -0.5860  -0.5602  -0.5602  -0.5602  -0.5602
    -0.5463  -0.5463  -0.5463  -0.5463  -0.5206  -0.5206  -0.5206  -0.5206
    -0.5121  -0.5121  -0.5120  -0.5120  -0.5064  -0.5064  -0.5064  -0.5064
    -0.2308  -0.2306  -0.2306  -0.2306   0.0998

          k =-0.2632-0.2632-0.2632 ( 51752 PWs)   bands (ev):

   -71.5626 -71.5626 -71.5626 -71.5624 -71.5624 -71.5624 -71.5624 -71.5617
   -41.6334 -41.6334 -41.6334 -41.6334 -41.6334 -41.6334 -41.6334 -41.6334
   -41.6334 -41.6332 -41.6332 -41.6332 -41.6332 -41.6332 -41.6332 -41.6332
   -41.6332 -41.6332 -41.6332 -41.6332 -41.6332 -41.6327 -41.6327 -41.6327
    -0.5952  -0.5952  -0.5952  -0.5952  -0.5951  -0.5951  -0.5951  -0.5951
    -0.5854  -0.5854  -0.5853  -0.5853  -0.5853  -0.5853  -0.5853  -0.5853
    -0.5853  -0.5853  -0.5853  -0.5853  -0.5853  -0.5853  -0.5853  -0.5853
    -0.5278  -0.5278  -0.5278  -0.5278  -0.5278  -0.5278  -0.5278  -0.5278
    -0.5278  -0.5278  -0.5278  -0.5277  -0.5277  -0.5277  -0.5277  -0.5277
    -0.0927  -0.0927  -0.0926  -0.0926  -0.0926

     the Fermi energy is    -0.2992 ev

!    total energy              =   -3448.91198949 Ry

     total all-electron energy =    -72493.009574 Ry
     estimated scf accuracy    <       0.00000016 Ry
     smearing contrib. (-TS)   =      -0.23680326 Ry
     internal energy E=F+TS    =   -3448.67518623 Ry

     The total energy is F=E-TS. E is the sum of the following terms:
     one-electron contribution =   -1300.64792402 Ry
     hartree contribution      =     652.54496449 Ry
     xc contribution           =    -229.12534692 Ry
     ewald contribution        =    -674.23016314 Ry
     one-center paw contrib.   =   -1897.21671663 Ry

     convergence has been achieved in  24 iterations

     Forces acting on atoms (cartesian axes, Ry/au):

     atom    1 type  1   force =     0.00000000    0.00000000    0.00000000
     atom    2 type  1   force =     0.00000000    0.00000000    0.00000000
     atom    3 type  1   force =     0.00000000    0.00000000    0.00000000
     atom    4 type  1   force =     0.00000000    0.00000000    0.00000000
     atom    5 type  1   force =     0.00000000    0.00000000    0.00000000
     atom    6 type  1   force =     0.00000000    0.00000000    0.00000000
     atom    7 type  1   force =     0.00000000    0.00000000    0.00000000
     atom    8 type  1   force =     0.00000000    0.00000000    0.00000000

     Total force =     0.000000     Total SCF correction =     0.000000


     Computing stress (Cartesian axis) and pressure

          total   stress  (Ry/bohr**3)                   (kbar)     P=      -25.75
  -0.00017502   0.00000000   0.00000000          -25.75        0.00        0.00
   0.00000000  -0.00017502   0.00000000            0.00      -25.75        0.00
   0.00000000   0.00000000  -0.00017502            0.00        0.00      -25.75


     Writing output data file /scratch/RRowYuCyKrXyiODm.save/
 
     init_run     :      3.90s CPU      4.01s WALL (       1 calls)
     electrons    :    200.57s CPU    205.93s WALL (       1 calls)
     forces       :      0.78s CPU      0.86s WALL (       1 calls)
     stress       :      3.04s CPU      3.16s WALL (       1 calls)

     Called by init_run:
     wfcinit      :      2.54s CPU      2.57s WALL (       1 calls)
     potinit      :      0.14s CPU      0.15s WALL (       1 calls)
     hinit0       :      0.54s CPU      0.54s WALL (       1 calls)

     Called by electrons:
     c_bands      :    171.00s CPU    173.36s WALL (      24 calls)
     sum_band     :     26.29s CPU     27.81s WALL (      24 calls)
     v_of_rho     :      0.56s CPU      0.58s WALL (      25 calls)
     newd         :      1.06s CPU      2.16s WALL (      25 calls)
     PAW_pot      :      1.48s CPU      1.77s WALL (      25 calls)
     mix_rho      :      0.18s CPU      0.20s WALL (      24 calls)

     Called by c_bands:
     init_us_2    :      1.22s CPU      1.27s WALL (    1785 calls)
     cegterg      :    165.88s CPU    168.13s WALL (     840 calls)

     Called by *egterg:
     cdiaghg      :     15.88s CPU     15.99s WALL (    3175 calls)
     h_psi        :    111.11s CPU    112.88s WALL (    3210 calls)
     s_psi        :      2.72s CPU      2.74s WALL (    3210 calls)
     g_psi        :      0.29s CPU      0.29s WALL (    2335 calls)

     Called by h_psi:
     h_psi:calbec :      6.36s CPU      6.45s WALL (    3210 calls)
     vloc_psi     :    100.85s CPU    102.47s WALL (    3210 calls)
     add_vuspsi   :      3.24s CPU      3.29s WALL (    3210 calls)

     General routines
     calbec       :      9.35s CPU      9.46s WALL (    4225 calls)
     fft          :      0.52s CPU      0.58s WALL (     348 calls)
     ffts         :      0.06s CPU      0.07s WALL (      49 calls)
     fftw         :    117.32s CPU    119.11s WALL (  387566 calls)
     interpolate  :      0.08s CPU      0.13s WALL (      25 calls)
 
     Parallel routines
     fft_scatt_xy :     11.12s CPU     11.27s WALL (  387963 calls)
     fft_scatt_yz :     91.56s CPU     93.05s WALL (  387963 calls)
 
     PWSCF        :   3m33.51s CPU   3m40.40s WALL

 
   This run was terminated on:   1:37:58  26Nov2021            

=------------------------------------------------------------------------------=
   JOB DONE.
=------------------------------------------------------------------------------=
