
     Program PWSCF v.6.7MaX starts on 26Nov2021 at  1:15:25 

     This program is part of the open-source Quantum ESPRESSO suite
     for quantum simulation of materials; please cite
         "P. Giannozzi et al., J. Phys.:Condens. Matter 21 395502 (2009);
         "P. Giannozzi et al., J. Phys.:Condens. Matter 29 465901 (2017);
          URL http://www.quantum-espresso.org", 
     in publications or presentations arising from this work. More details at
     http://www.quantum-espresso.org/quote

     Parallel version (MPI & OpenMP), running on      72 processor cores
     Number of MPI processes:                72
     Threads/MPI process:                     1

     MPI processes distributed on     1 nodes
     R & G space division:  proc/nbgrp/npool/nimage =      72
     Reading input from sc_2.in
Warning: card &CELL ignored
Warning: card CELL_DYNAMICS = 'BFGS', ignored
Warning: card CELL_FACTOR = 2.0, ignored
Warning: card PRESS = 0.0, ignored
Warning: card / ignored

     Current dimensions of program PWSCF are:
     Max number of different atomic species (ntypx) = 10
     Max number of k-points (npk) =  40000
     Max angular momentum in pseudopotentials (lmaxx) =  3
     file Ru.pbe-spn-kjpaw_psl.1.0.0.UPF: wavefunction(s)  4D renormalized

     Subspace diagonalization in iterative solution of the eigenvalue problem:
     one sub-group per band group will be used
     ELPA distributed-memory algorithm (size of sub-group:  8*  8 procs)

     Found symmetry operation: I + (  0.0000  0.0000  0.5000)
     This is a supercell, fractional translations are disabled
     Message from routine setup:
     using ibrav=0 with symmetry is DISCOURAGED, use correct ibrav instead
 
     Parallelization info
     --------------------
     sticks:   dense  smooth     PW     G-vecs:    dense   smooth      PW
     Min          47      31      8                 2073     1115     164
     Max          48      32      9                 2078     1120     171
     Sum        3397    2241    641               149397    80389   12149
 


     bravais-lattice index     =            0
     lattice parameter (alat)  =       9.0720  a.u.
     unit-cell volume          =     993.7730 (a.u.)^3
     number of atoms/cell      =            8
     number of atomic types    =            1
     number of electrons       =       128.00
     number of Kohn-Sham states=           77
     kinetic-energy cutoff     =      71.0000  Ry
     charge density cutoff     =     430.0000  Ry
     scf convergence threshold =      1.0E-06
     mixing beta               =       0.1000
     number of iterations used =           10  TF        mixing
     Exchange-correlation= SLA  PW   PBX  PBC
                           (   1   4   3   4   0   0   0)

     celldm(1)=   9.072000  celldm(2)=   0.000000  celldm(3)=   0.000000
     celldm(4)=   0.000000  celldm(5)=   0.000000  celldm(6)=   0.000000

     crystal axes: (cart. coord. in units of alat)
               a(1) = (   1.100000   0.000000   0.000000 )  
               a(2) = (   0.000000   1.100000   0.000000 )  
               a(3) = (   0.000000   0.000000   1.100000 )  

     reciprocal axes: (cart. coord. in units 2 pi/alat)
               b(1) = (  0.909091  0.000000  0.000000 )  
               b(2) = (  0.000000  0.909091  0.000000 )  
               b(3) = (  0.000000  0.000000  0.909091 )  


     PseudoPot. # 1 for Ru read from file:
     /rds/homes/b/bxp912/pp/Ru.pbe-spn-kjpaw_psl.1.0.0.UPF
     MD5 check sum: 0ae1f594dea09af7be8575c3a481d1ae
     Pseudo is Projector augmented-wave + core cor, Zval = 16.0
     Generated using "atomic" code by A. Dal Corso  v.5.1
     Shape of augmentation charge: PSQ
     Using radial grid of 1233 points,  6 beta functions with: 
                l(1) =   0
                l(2) =   0
                l(3) =   1
                l(4) =   1
                l(5) =   2
                l(6) =   2
     Q(r) pseudized with 0 coefficients 


     atomic species   valence    mass     pseudopotential
        Ru            16.00   101.07000     Ru( 1.00)

     48 Sym. Ops., with inversion, found



   Cartesian axes

     site n.     atom                  positions (alat units)
         1           Ru  tau(   1) = (   0.0000000   0.0000000   0.0000000  )
         2           Ru  tau(   2) = (   0.0000000   0.0000000   0.5500000  )
         3           Ru  tau(   3) = (   0.0000000   0.5500000   0.0000000  )
         4           Ru  tau(   4) = (   0.0000000   0.5500000   0.5500000  )
         5           Ru  tau(   5) = (   0.5500000   0.0000000   0.0000000  )
         6           Ru  tau(   6) = (   0.5500000   0.0000000   0.5500000  )
         7           Ru  tau(   7) = (   0.5500000   0.5500000   0.0000000  )
         8           Ru  tau(   8) = (   0.5500000   0.5500000   0.5500000  )

     number of k points=    35  Marzari-Vanderbilt smearing, width (Ry)=  0.0400
                       cart. coord. in units 2pi/alat
        k(    1) = (   0.0505051   0.0505051   0.0505051), wk =   0.0219479
        k(    2) = (   0.0505051   0.0505051   0.1515152), wk =   0.0658436
        k(    3) = (   0.0505051   0.0505051   0.2525253), wk =   0.0658436
        k(    4) = (   0.0505051   0.0505051   0.3535354), wk =   0.0658436
        k(    5) = (   0.0505051   0.0505051  -0.4545455), wk =   0.0329218
        k(    6) = (   0.0505051   0.1515152   0.1515152), wk =   0.0658436
        k(    7) = (   0.0505051   0.1515152   0.2525253), wk =   0.1316872
        k(    8) = (   0.0505051   0.1515152   0.3535354), wk =   0.1316872
        k(    9) = (   0.0505051   0.1515152  -0.4545455), wk =   0.0658436
        k(   10) = (   0.0505051   0.2525253   0.2525253), wk =   0.0658436
        k(   11) = (   0.0505051   0.2525253   0.3535354), wk =   0.1316872
        k(   12) = (   0.0505051   0.2525253  -0.4545455), wk =   0.0658436
        k(   13) = (   0.0505051   0.3535354   0.3535354), wk =   0.0658436
        k(   14) = (   0.0505051   0.3535354  -0.4545455), wk =   0.0658436
        k(   15) = (   0.0505051  -0.4545455  -0.4545455), wk =   0.0164609
        k(   16) = (   0.1515152   0.1515152   0.1515152), wk =   0.0219479
        k(   17) = (   0.1515152   0.1515152   0.2525253), wk =   0.0658436
        k(   18) = (   0.1515152   0.1515152   0.3535354), wk =   0.0658436
        k(   19) = (   0.1515152   0.1515152  -0.4545455), wk =   0.0329218
        k(   20) = (   0.1515152   0.2525253   0.2525253), wk =   0.0658436
        k(   21) = (   0.1515152   0.2525253   0.3535354), wk =   0.1316872
        k(   22) = (   0.1515152   0.2525253  -0.4545455), wk =   0.0658436
        k(   23) = (   0.1515152   0.3535354   0.3535354), wk =   0.0658436
        k(   24) = (   0.1515152   0.3535354  -0.4545455), wk =   0.0658436
        k(   25) = (   0.1515152  -0.4545455  -0.4545455), wk =   0.0164609
        k(   26) = (   0.2525253   0.2525253   0.2525253), wk =   0.0219479
        k(   27) = (   0.2525253   0.2525253   0.3535354), wk =   0.0658436
        k(   28) = (   0.2525253   0.2525253  -0.4545455), wk =   0.0329218
        k(   29) = (   0.2525253   0.3535354   0.3535354), wk =   0.0658436
        k(   30) = (   0.2525253   0.3535354  -0.4545455), wk =   0.0658436
        k(   31) = (   0.2525253  -0.4545455  -0.4545455), wk =   0.0164609
        k(   32) = (   0.3535354   0.3535354   0.3535354), wk =   0.0219479
        k(   33) = (   0.3535354   0.3535354  -0.4545455), wk =   0.0329218
        k(   34) = (   0.3535354  -0.4545455  -0.4545455), wk =   0.0164609
        k(   35) = (  -0.4545455  -0.4545455  -0.4545455), wk =   0.0027435

     Dense  grid:   149397 G-vectors     FFT dimensions: (  72,  72,  72)

     Smooth grid:    80389 G-vectors     FFT dimensions: (  54,  54,  54)

     Estimated max dynamical RAM per process >      15.82 MB

     Estimated total dynamical RAM >       1.11 GB

     Check: negative core charge=   -0.000002

     Initial potential from superposition of free atoms

     starting charge  127.99490, renormalised to  128.00000
     Starting wfcs are   80 randomized atomic wfcs
     Checking if some PAW data can be deallocated... 

     total cpu time spent up to now is        4.3 secs

     Self-consistent Calculation

     iteration #  1     ecut=    71.00 Ry     beta= 0.10
     Davidson diagonalization with overlap
     ethr =  1.00E-02,  avg # of iterations =  3.6

     Threshold (ethr) on eigenvalues was too large:
     Diagonalizing with lowered threshold

     Davidson diagonalization with overlap
     ethr =  2.91E-05,  avg # of iterations =  5.2

     total cpu time spent up to now is       12.3 secs

     total energy              =   -3452.60884357 Ry
     estimated scf accuracy    <       0.02829598 Ry

     iteration #  2     ecut=    71.00 Ry     beta= 0.10
     Davidson diagonalization with overlap
     ethr =  2.21E-05,  avg # of iterations =  1.0

     total cpu time spent up to now is       14.7 secs

     total energy              =   -3452.60447981 Ry
     estimated scf accuracy    <       0.02425703 Ry

     iteration #  3     ecut=    71.00 Ry     beta= 0.10
     Davidson diagonalization with overlap
     ethr =  1.90E-05,  avg # of iterations =  1.0

     total cpu time spent up to now is       17.3 secs

     total energy              =   -3452.60376915 Ry
     estimated scf accuracy    <       0.00791450 Ry

     iteration #  4     ecut=    71.00 Ry     beta= 0.10
     Davidson diagonalization with overlap
     ethr =  6.18E-06,  avg # of iterations =  1.0

     total cpu time spent up to now is       19.7 secs

     total energy              =   -3452.60382578 Ry
     estimated scf accuracy    <       0.00201649 Ry

     iteration #  5     ecut=    71.00 Ry     beta= 0.10
     Davidson diagonalization with overlap
     ethr =  1.58E-06,  avg # of iterations =  1.3

     total cpu time spent up to now is       22.2 secs

     total energy              =   -3452.60361458 Ry
     estimated scf accuracy    <       0.00093077 Ry

     iteration #  6     ecut=    71.00 Ry     beta= 0.10
     Davidson diagonalization with overlap
     ethr =  7.27E-07,  avg # of iterations =  2.2

     total cpu time spent up to now is       26.8 secs

     total energy              =   -3452.60392551 Ry
     estimated scf accuracy    <       0.00017190 Ry

     iteration #  7     ecut=    71.00 Ry     beta= 0.10
     Davidson diagonalization with overlap
     ethr =  1.34E-07,  avg # of iterations =  3.0

     total cpu time spent up to now is       30.4 secs

     total energy              =   -3452.60388890 Ry
     estimated scf accuracy    <       0.00039770 Ry

     iteration #  8     ecut=    71.00 Ry     beta= 0.10
     Davidson diagonalization with overlap
     ethr =  1.34E-07,  avg # of iterations =  1.1

     total cpu time spent up to now is       32.9 secs

     total energy              =   -3452.60384295 Ry
     estimated scf accuracy    <       0.00020881 Ry

     iteration #  9     ecut=    71.00 Ry     beta= 0.10
     Davidson diagonalization with overlap
     ethr =  1.34E-07,  avg # of iterations =  2.0

     total cpu time spent up to now is       35.7 secs

     total energy              =   -3452.60383177 Ry
     estimated scf accuracy    <       0.00004403 Ry

     iteration # 10     ecut=    71.00 Ry     beta= 0.10
     Davidson diagonalization with overlap
     ethr =  3.44E-08,  avg # of iterations =  3.1

     total cpu time spent up to now is       40.1 secs

     total energy              =   -3452.60384993 Ry
     estimated scf accuracy    <       0.00000700 Ry

     iteration # 11     ecut=    71.00 Ry     beta= 0.10
     Davidson diagonalization with overlap
     ethr =  5.47E-09,  avg # of iterations =  1.8

     total cpu time spent up to now is       42.9 secs

     total energy              =   -3452.60384643 Ry
     estimated scf accuracy    <       0.00000800 Ry

     iteration # 12     ecut=    71.00 Ry     beta= 0.10
     Davidson diagonalization with overlap
     ethr =  5.47E-09,  avg # of iterations =  2.0

     total cpu time spent up to now is       47.0 secs

     End of self-consistent calculation

          k = 0.0505 0.0505 0.0505 (  9996 PWs)   bands (ev):

   -56.4016 -56.3312 -56.3312 -56.3311 -56.2626 -56.2626 -56.2625 -56.1955
   -26.6674 -26.6674 -26.6674 -26.5894 -26.5894 -26.5894 -26.5891 -26.5891
   -26.5891 -26.5165 -26.5160 -26.5160 -26.0296 -26.0288 -26.0288 -25.9738
   -25.9738 -25.9738 -25.9735 -25.9734 -25.9734 -25.9205 -25.9205 -25.9205
    10.0932  11.5211  11.5211  11.5211  12.0064  12.0064  12.5150  12.5151
    12.5151  12.5683  12.5978  12.5978  12.5978  12.6002  12.6002  13.3157
    13.3157  13.3157  15.2700  15.2700  15.2701  15.5018  15.5018  15.5018
    15.8697  15.8697  15.8697  15.8743  15.8743  15.8743  16.5530  16.5530
    16.5530  17.4969  17.5071  17.5071  17.6997  17.6997  17.6997  18.8434
    18.8434  18.8434  19.0677  19.0677  21.3347

          k = 0.0505 0.0505 0.1515 ( 10035 PWs)   bands (ev):

   -56.3974 -56.3355 -56.3271 -56.3271 -56.2668 -56.2667 -56.2585 -56.1995
   -26.6627 -26.6627 -26.6300 -26.5940 -26.5940 -26.5851 -26.5847 -26.5533
   -26.5533 -26.5208 -26.5204 -26.4812 -26.0688 -26.0259 -26.0256 -26.0120
   -26.0119 -25.9772 -25.9768 -25.9704 -25.9704 -25.9575 -25.9238 -25.9238
    10.2553  11.5769  11.6525  11.6525  12.0396  12.1561  12.3665  12.5060
    12.5593  12.5993  12.5993  12.7246  12.7365  12.8130  12.8130  13.2661
    13.2661  13.5704  14.6832  14.6832  15.2775  15.5013  15.5013  15.5433
    15.5477  15.6042  15.8466  15.8467  15.9657  15.9657  16.2087  17.1794
    17.1794  17.3545  17.3612  17.5165  17.5725  17.5725  17.6877  18.1760
    18.1760  18.5470  18.8741  19.0584  20.9375

          k = 0.0505 0.0505 0.2525 ( 10044 PWs)   bands (ev):

   -56.3895 -56.3435 -56.3194 -56.3193 -56.2746 -56.2745 -56.2510 -56.2072
   -26.6539 -26.6539 -26.6029 -26.6029 -26.5768 -26.5764 -26.5594 -26.5291
   -26.5288 -26.4852 -26.4851 -26.4152 -26.1432 -26.0834 -26.0834 -26.0265
   -26.0197 -26.0193 -25.9835 -25.9831 -25.9645 -25.9645 -25.9298 -25.9298
    10.5516  11.6840  11.9110  11.9110  12.0967  12.1027  12.3719  12.4645
    12.4881  12.6827  12.6828  12.9911  13.0040  13.1748  13.1748  13.3052
    13.3052  14.0190  14.0190  14.0647  15.0004  15.0248  15.0266  15.5421
    15.5421  15.8001  15.8001  15.8014  15.9714  16.1385  16.1385  17.0948
    17.0984  17.1717  17.1717  17.3414  17.3414  17.5382  17.6653  17.6817
    17.8928  17.8928  18.9137  19.0407  20.4729

          k = 0.0505 0.0505 0.3535 ( 10064 PWs)   bands (ev):

   -56.3788 -56.3543 -56.3090 -56.3089 -56.2851 -56.2851 -56.2407 -56.2175
   -26.6421 -26.6421 -26.6150 -26.6150 -26.5657 -26.5654 -26.5403 -26.5400
   -26.4636 -26.3927 -26.3926 -26.3256 -26.2423 -26.1789 -26.1789 -26.1188
   -26.0114 -26.0109 -25.9920 -25.9916 -25.9564 -25.9564 -25.9380 -25.9380
    10.9329  11.7441  11.8335  12.1895  12.1986  12.2878  12.2878  12.3943
    12.7907  12.7907  12.9418  13.0559  13.0559  13.3408  13.3408  13.3781
    13.3918  14.0737  14.0737  14.3171  14.4128  14.4429  14.8067  15.6007
    15.6007  15.7381  15.7382  15.9981  15.9981  16.0783  16.1249  16.4620
    16.4620  16.6754  16.7651  16.7673  17.0455  17.0455  17.5676  17.6353
    18.6026  18.6026  18.9515  19.0159  19.9153

          k = 0.0505 0.0505-0.4545 ( 10034 PWs)   bands (ev):

   -56.3666 -56.3665 -56.2971 -56.2970 -56.2970 -56.2969 -56.2291 -56.2290
   -26.6285 -26.6285 -26.6285 -26.6285 -26.5531 -26.5530 -26.5527 -26.5526
   -26.3537 -26.3536 -26.2864 -26.2863 -26.2863 -26.2863 -26.2227 -26.2226
   -26.0017 -26.0016 -26.0013 -26.0013 -25.9472 -25.9472 -25.9471 -25.9471
    11.3448  11.3448  12.0113  12.0114  12.2905  12.2905  12.7622  12.7622
    12.7623  12.7623  12.9329  12.9329  12.9329  12.9329  13.5784  13.5784
    13.8662  13.8662  13.8814  13.8814  14.9800  14.9800  14.9801  14.9801
    15.6688  15.6688  15.6688  15.6688  15.6798  15.6798  16.4107  16.4107
    16.4249  16.4249  16.7296  16.7296  16.7297  16.7297  17.6013  17.6013
    18.9857  18.9858  19.2836  19.2836  19.2836

          k = 0.0505 0.1515 0.1515 ( 10043 PWs)   bands (ev):

   -56.3932 -56.3314 -56.3313 -56.3230 -56.2709 -56.2628 -56.2627 -56.2036
   -26.6581 -26.6254 -26.6254 -26.5897 -26.5896 -26.5595 -26.5564 -26.5489
   -26.5489 -26.5251 -26.4869 -26.4843 -26.0672 -26.0637 -26.0224 -26.0154
   -26.0154 -26.0101 -26.0072 -25.9738 -25.9738 -25.9607 -25.9607 -25.9270
    10.4180  11.7069  11.7069  11.7770  12.1323  12.2441  12.4816  12.4816
    12.5556  12.7318  12.7318  12.7437  12.8477  12.8610  12.8652  13.2161
    13.5174  13.5174  14.4462  14.7274  14.7274  15.2843  15.5153  15.5153
    15.6018  15.6018  15.6384  15.6384  15.9219  15.9597  16.7618  16.7618
    17.2090  17.3449  17.3984  17.4383  17.5598  17.5598  17.6776  17.7766
    18.2609  18.2609  18.3265  18.7683  20.0678

          k = 0.0505 0.1515 0.2525 ( 10051 PWs)   bands (ev):

   -56.3853 -56.3394 -56.3236 -56.3153 -56.2788 -56.2705 -56.2551 -56.2113
   -26.6493 -26.6167 -26.5985 -26.5814 -26.5667 -26.5550 -26.5408 -26.5335
   -26.4939 -26.4896 -26.4809 -26.4194 -26.1396 -26.0870 -26.0800 -26.0590
   -26.0300 -26.0219 -26.0163 -26.0024 -25.9801 -25.9678 -25.9670 -25.9331
    10.7138  11.8113  11.9621  12.0198  12.2174  12.2299  12.4684  12.5270
    12.5858  12.6311  12.9293  12.9676  13.1252  13.1255  13.1507  13.3458
    13.4219  13.9608  13.9988  14.1634  14.6658  14.9910  15.1352  15.2145
    15.4602  15.6410  15.7905  15.7919  15.8913  16.1171  16.2777  16.9447
    16.9906  17.1064  17.1986  17.3095  17.3256  17.3511  17.4011  17.5358
    17.5828  18.3323  18.3638  18.6461  19.3887

          k = 0.0505 0.1515 0.3535 ( 10055 PWs)   bands (ev):

   -56.3746 -56.3502 -56.3131 -56.3048 -56.2893 -56.2810 -56.2449 -56.2216
   -26.6375 -26.6105 -26.6051 -26.5785 -26.5702 -26.5447 -26.5299 -26.5048
   -26.4594 -26.3969 -26.3886 -26.3296 -26.2385 -26.1827 -26.1754 -26.1224
   -26.0503 -26.0306 -26.0078 -25.9942 -25.9886 -25.9753 -25.9597 -25.9412
    11.0912  11.8864  11.9566  12.3082  12.3096  12.3324  12.3647  12.5245
    12.6927  12.9925  13.0123  13.0319  13.2999  13.3040  13.3467  13.3481
    13.5018  14.1052  14.1398  14.2499  14.3675  14.4630  14.8473  15.2447
    15.3882  15.6980  15.7548  15.8310  15.9212  16.0338  16.1730  16.4340
    16.5443  16.6156  16.6178  16.7801  16.8976  17.0284  17.4314  17.5036
    17.8745  18.4523  18.5857  18.8657  19.0139

          k = 0.0505 0.1515-0.4545 ( 10042 PWs)   bands (ev):

   -56.3624 -56.3623 -56.3013 -56.3012 -56.2930 -56.2929 -56.2333 -56.2332
   -26.6240 -26.6239 -26.5918 -26.5917 -26.5575 -26.5574 -26.5174 -26.5173
   -26.3497 -26.3496 -26.2904 -26.2904 -26.2826 -26.2825 -26.2265 -26.2264
   -26.0405 -26.0404 -25.9983 -25.9982 -25.9848 -25.9848 -25.9505 -25.9504
    11.4957  11.4957  12.1287  12.1287  12.4146  12.4146  12.7168  12.7168
    12.7989  12.7989  12.9668  12.9668  13.1709  13.1709  13.6039  13.6039
    13.8325  13.8325  13.9722  13.9723  14.9454  14.9455  14.9719  14.9719
    15.3112  15.3112  15.6437  15.6437  15.7644  15.7644  16.2937  16.2938
    16.4380  16.4380  16.6014  16.6015  16.7106  16.7107  17.4672  17.4672
    18.3793  18.3793  18.5245  18.5246  19.6781

          k = 0.0505 0.2525 0.2525 ( 10061 PWs)   bands (ev):

   -56.3774 -56.3316 -56.3316 -56.3076 -56.2866 -56.2630 -56.2629 -56.2190
   -26.6406 -26.5902 -26.5902 -26.5466 -26.5466 -26.5419 -26.5018 -26.4945
   -26.4731 -26.4731 -26.4306 -26.4243 -26.1367 -26.1289 -26.0938 -26.0938
   -26.0770 -26.0702 -26.0364 -26.0364 -26.0101 -25.9741 -25.9741 -25.9392
    11.0042  12.0596  12.0596  12.2254  12.3824  12.3824  12.3952  12.5587
    12.7126  12.9714  12.9714  13.0214  13.0389  13.3392  13.3710  13.4624
    13.7916  13.8908  13.8909  14.2818  14.2818  14.8964  14.9290  14.9290
    15.3079  15.3079  15.8260  15.8260  16.0287  16.1001  16.5624  16.6166
    16.6166  16.6790  16.9466  17.0805  17.1986  17.2257  17.3015  17.3015
    17.4882  17.4882  18.1499  18.3988  18.9567

          k = 0.0505 0.2525 0.3535 ( 10037 PWs)   bands (ev):

   -56.3667 -56.3424 -56.3211 -56.2972 -56.2972 -56.2734 -56.2526 -56.2293
   -26.6288 -26.6020 -26.5789 -26.5532 -26.5353 -26.5097 -26.4624 -26.4515
   -26.4383 -26.4048 -26.3810 -26.3371 -26.2315 -26.1898 -26.1687 -26.1292
   -26.1235 -26.1029 -26.0648 -26.0451 -26.0017 -25.9825 -25.9659 -25.9473
    11.3643  12.0875  12.1937  12.4153  12.4828  12.4923  12.5129  12.5433
    12.8147  12.9579  13.1167  13.2323  13.3034  13.3161  13.5155  13.7225
    13.7635  14.1491  14.1697  14.2272  14.3013  14.4485  14.7746  14.8536
    14.9513  15.3934  15.7297  15.8797  16.0072  16.0136  16.2345  16.3652
    16.3861  16.4566  16.6416  16.6459  16.8026  16.9312  17.0241  17.1895
    17.2654  17.6263  17.7407  17.8912  19.6257

          k = 0.0505 0.2525-0.4545 ( 10046 PWs)   bands (ev):

   -56.3546 -56.3545 -56.3092 -56.3091 -56.2853 -56.2852 -56.2410 -56.2409
   -26.6155 -26.6154 -26.5661 -26.5660 -26.5226 -26.5225 -26.4504 -26.4503
   -26.3422 -26.3421 -26.2980 -26.2979 -26.2754 -26.2754 -26.2337 -26.2336
   -26.1133 -26.1132 -26.0550 -26.0549 -25.9922 -25.9921 -25.9567 -25.9566
    11.7378  11.7378  12.3475  12.3475  12.6007  12.6007  12.6755  12.6755
    12.8513  12.8513  13.0489  13.0489  13.6328  13.6328  13.6701  13.6701
    13.7773  13.7773  14.1493  14.1493  14.7879  14.7880  14.8678  14.8679
    14.9380  14.9380  15.5620  15.5620  15.9429  15.9429  16.1021  16.1022
    16.4121  16.4121  16.4696  16.4697  16.6736  16.6737  17.2257  17.2257
    17.3129  17.3129  17.7506  17.7506  20.2828

          k = 0.0505 0.3535 0.3535 ( 10030 PWs)   bands (ev):

   -56.3561 -56.3319 -56.3318 -56.3078 -56.2868 -56.2631 -56.2630 -56.2396
   -26.6172 -26.5906 -26.5906 -26.5646 -26.4407 -26.4407 -26.4214 -26.4105
   -26.3708 -26.3708 -26.3523 -26.3427 -26.2273 -26.2159 -26.1995 -26.1995
   -26.1643 -26.1544 -26.1383 -26.1383 -25.9934 -25.9744 -25.9743 -25.9556
    11.6823  12.2731  12.2731  12.5217  12.5217  12.5268  12.6346  12.8111
    12.9939  13.1309  13.1309  13.1822  13.3981  13.4137  14.0319  14.0481
    14.1954  14.1954  14.2329  14.2329  14.3347  14.3933  14.3933  14.4187
    15.0521  15.0521  15.3248  16.0435  16.0435  16.0625  16.0900  16.1724
    16.3232  16.3232  16.3763  16.3876  16.7565  16.7565  16.7783  16.9006
    16.9383  16.9632  16.9632  17.2576  20.2937

          k = 0.0505 0.3535-0.4545 ( 10042 PWs)   bands (ev):

   -56.3440 -56.3439 -56.3199 -56.3198 -56.2750 -56.2749 -56.2514 -56.2513
   -26.6039 -26.6039 -26.5777 -26.5776 -26.4286 -26.4285 -26.3594 -26.3593
   -26.3321 -26.3320 -26.3081 -26.3080 -26.2659 -26.2658 -26.2434 -26.2433
   -26.2104 -26.2103 -26.1487 -26.1486 -25.9840 -25.9839 -25.9650 -25.9650
    11.9920  11.9920  12.4302  12.4302  12.6199  12.6199  12.8879  12.8879
    12.9993  12.9993  13.1365  13.1365  13.7574  13.7574  13.8572  13.8572
    14.1925  14.1925  14.3310  14.3310  14.3803  14.3803  14.6845  14.6845
    14.8497  14.8498  15.3858  15.3859  15.9310  15.9310  16.1240  16.1240
    16.2835  16.2835  16.4738  16.4738  16.5097  16.5097  16.6569  16.6569
    16.9230  16.9230  16.9242  16.9243  20.9512

          k = 0.0505-0.4545-0.4545 ( 10076 PWs)   bands (ev):

   -56.3320 -56.3320 -56.3320 -56.3318 -56.2632 -56.2632 -56.2632 -56.2630
   -26.5909 -26.5909 -26.5909 -26.5907 -26.3264 -26.3264 -26.3263 -26.3263
   -26.3138 -26.3138 -26.3138 -26.3138 -26.2602 -26.2602 -26.2601 -26.2601
   -26.2492 -26.2492 -26.2491 -26.2491 -25.9745 -25.9745 -25.9745 -25.9743
    12.2243  12.2243  12.2243  12.2243  12.8322  12.8322  12.8322  12.8322
    13.1571  13.1571  13.1571  13.1571  13.8874  13.8874  13.8874  13.8874
    14.2796  14.2796  14.2796  14.2797  14.5991  14.5992  14.5992  14.5992
    14.9861  14.9861  14.9861  14.9862  15.9228  15.9228  15.9228  15.9228
    16.3899  16.3899  16.3899  16.3899  16.5123  16.5123  16.5123  16.5123
    16.6544  16.6544  16.6544  16.6544  21.6092

          k = 0.1515 0.1515 0.1515 ( 10035 PWs)   bands (ev):

   -56.3890 -56.3273 -56.3273 -56.3272 -56.2669 -56.2669 -56.2668 -56.2077
   -26.6208 -26.6208 -26.6208 -26.5551 -26.5551 -26.5551 -26.5521 -26.5520
   -26.5520 -26.4927 -26.4886 -26.4886 -26.0654 -26.0604 -26.0604 -26.0135
   -26.0135 -26.0135 -26.0107 -26.0106 -26.0106 -25.9641 -25.9641 -25.9641
    10.5820  11.8301  11.8301  11.8301  12.2771  12.2771  12.6063  12.6903
    12.6903  12.6903  12.8065  12.8065  12.8065  12.8771  12.8771  13.4638
    13.4638  13.4638  14.5101  14.5101  14.5101  15.3942  15.3942  15.3942
    15.5911  15.5911  15.5911  15.6264  15.6264  15.6264  17.1818  17.1850
    17.1850  17.1850  17.2449  17.2449  17.4307  17.4307  17.4307  17.8746
    17.8746  17.8746  18.3102  18.3102  20.4319

          k = 0.1515 0.1515 0.2525 ( 10040 PWs)   bands (ev):

   -56.3811 -56.3352 -56.3196 -56.3195 -56.2748 -56.2747 -56.2593 -56.2154
   -26.6122 -26.6122 -26.5624 -26.5624 -26.5505 -26.5469 -26.5439 -26.4997
   -26.4968 -26.4854 -26.4854 -26.4236 -26.1361 -26.0837 -26.0836 -26.0571
   -26.0541 -26.0334 -26.0200 -26.0170 -26.0058 -26.0058 -25.9703 -25.9703
    10.8789  11.9319  12.0702  12.0702  12.3399  12.4019  12.5541  12.5768
    12.7315  12.8219  12.8219  13.0612  13.1388  13.1847  13.1847  13.3678
    13.3678  13.9313  14.1188  14.1188  14.5042  15.0934  15.1110  15.3222
    15.3222  15.5518  15.5518  15.6044  15.7630  15.7630  16.5900  16.9475
    16.9690  17.1413  17.1413  17.1766  17.1766  17.2561  17.4024  17.5170
    17.7161  17.7161  17.9910  18.2781  19.7324

          k = 0.1515 0.1515 0.3535 ( 10055 PWs)   bands (ev):

   -56.3704 -56.3460 -56.3091 -56.3090 -56.2853 -56.2852 -56.2490 -56.2257
   -26.6006 -26.6006 -26.5741 -26.5741 -26.5360 -26.5329 -26.5108 -26.5079
   -26.4552 -26.3929 -26.3928 -26.3336 -26.2347 -26.1792 -26.1791 -26.1261
   -26.0485 -26.0454 -26.0288 -26.0258 -25.9976 -25.9976 -25.9787 -25.9787
    11.2549  12.0464  12.0731  12.4100  12.4110  12.4110  12.4266  12.6344
    12.9120  12.9120  13.0388  13.2495  13.2495  13.3342  13.3342  13.4147
    13.5176  14.1657  14.1657  14.2040  14.2965  14.5415  14.8587  15.3471
    15.3472  15.4824  15.4824  15.7068  15.7068  15.8974  16.2943  16.4785
    16.4785  16.5640  16.6194  16.6500  16.8747  16.8747  17.2889  17.3672
    18.0900  18.2267  18.2267  18.2310  19.1983

          k = 0.1515 0.1515-0.4545 ( 10068 PWs)   bands (ev):

   -56.3583 -56.3582 -56.2973 -56.2972 -56.2972 -56.2971 -56.2374 -56.2373
   -26.5874 -26.5874 -26.5873 -26.5873 -26.5234 -26.5233 -26.5205 -26.5204
   -26.3457 -26.3456 -26.2867 -26.2866 -26.2866 -26.2865 -26.2304 -26.2303
   -26.0387 -26.0386 -26.0357 -26.0356 -25.9882 -25.9882 -25.9881 -25.9881
    11.6560  11.6560  12.2393  12.2393  12.5285  12.5285  12.7996  12.7996
    12.7996  12.7996  13.1539  13.1539  13.1539  13.1539  13.6291  13.6291
    13.8702  13.8702  13.9949  13.9949  14.9391  14.9391  14.9391  14.9391
    15.4098  15.4098  15.4098  15.4099  15.6106  15.6107  16.2474  16.2474
    16.3838  16.3838  16.5733  16.5733  16.5733  16.5733  17.3277  17.3278
    18.1688  18.1689  18.7160  18.7160  18.7160

          k = 0.1515 0.2525 0.2525 ( 10046 PWs)   bands (ev):

   -56.3732 -56.3275 -56.3274 -56.3118 -56.2826 -56.2671 -56.2670 -56.2230
   -26.6037 -26.5542 -26.5542 -26.5422 -26.5422 -26.5066 -26.4975 -26.4903
   -26.4775 -26.4775 -26.4347 -26.4285 -26.1333 -26.1254 -26.0904 -26.0904
   -26.0806 -26.0738 -26.0491 -26.0399 -26.0399 -26.0123 -26.0122 -25.9766
    11.1733  12.1655  12.1655  12.2749  12.5268  12.5896  12.5896  12.6329
    12.7444  13.0270  13.0270  13.1487  13.1854  13.2744  13.2899  13.3577
    13.8217  13.8217  14.0121  14.2441  14.2441  15.0222  15.0424  15.0424
    15.2780  15.2780  15.5232  15.5232  15.6813  15.7249  16.6968  16.7306
    16.9051  16.9051  16.9217  16.9506  17.0324  17.1819  17.1820  17.2064
    17.2913  17.2913  17.8098  18.2100  18.7439

          k = 0.1515 0.2525 0.3535 ( 10035 PWs)   bands (ev):

   -56.3625 -56.3382 -56.3170 -56.3014 -56.2931 -56.2776 -56.2568 -56.2334
   -26.5922 -26.5658 -26.5431 -26.5310 -26.5178 -26.5055 -26.4668 -26.4472
   -26.4425 -26.4008 -26.3853 -26.3411 -26.2277 -26.1862 -26.1725 -26.1329
   -26.1200 -26.0995 -26.0683 -26.0486 -26.0406 -26.0209 -26.0040 -25.9849
    11.5364  12.2713  12.2955  12.4938  12.5413  12.5772  12.6566  12.7119
    12.8954  13.1532  13.1749  13.1764  13.2852  13.4236  13.5122  13.6959
    13.7096  14.1357  14.2155  14.2164  14.2442  14.5778  14.9037  14.9340
    14.9713  15.3617  15.5309  15.5641  15.6658  15.7874  16.3481  16.3816
    16.4144  16.4242  16.5456  16.6156  16.6694  16.8156  17.0369  17.1262
    17.2999  17.4136  17.6220  18.0803  18.7125

          k = 0.1515 0.2525-0.4545 ( 10046 PWs)   bands (ev):

   -56.3504 -56.3504 -56.3051 -56.3050 -56.2895 -56.2894 -56.2451 -56.2450
   -26.5790 -26.5790 -26.5305 -26.5304 -26.5183 -26.5182 -26.4547 -26.4546
   -26.3381 -26.3381 -26.2942 -26.2941 -26.2794 -26.2794 -26.2376 -26.2375
   -26.1098 -26.1098 -26.0585 -26.0584 -26.0308 -26.0308 -25.9945 -25.9944
    11.9125  11.9125  12.4428  12.4428  12.7409  12.7409  12.7732  12.7732
    12.8744  12.8744  13.1723  13.1723  13.5789  13.5789  13.6941  13.6942
    13.8482  13.8482  14.1459  14.1460  14.8645  14.8645  14.8866  14.8866
    14.9352  14.9352  15.5364  15.5364  15.5830  15.5831  16.0737  16.0737
    16.3682  16.3682  16.4021  16.4022  16.5141  16.5141  17.0798  17.0798
    17.5176  17.5176  17.6443  17.6444  19.2019

          k = 0.1515 0.3535 0.3535 ( 10021 PWs)   bands (ev):

   -56.3519 -56.3277 -56.3276 -56.3037 -56.2910 -56.2673 -56.2672 -56.2437
   -26.5807 -26.5546 -26.5546 -26.5290 -26.4365 -26.4365 -26.4173 -26.4063
   -26.3751 -26.3751 -26.3564 -26.3468 -26.2236 -26.2122 -26.1958 -26.1958
   -26.1681 -26.1581 -26.1420 -26.1420 -26.0320 -26.0126 -26.0125 -25.9934
    11.8611  12.4606  12.4606  12.5970  12.5970  12.6398  12.7026  12.9152
    13.1453  13.1481  13.2009  13.2009  13.4259  13.5293  13.9570  14.0162
    14.1396  14.1396  14.2066  14.2067  14.3524  14.5475  14.5475  14.5950
    15.0326  15.0326  15.2652  15.7372  15.7372  15.7783  16.0475  16.1006
    16.2591  16.3344  16.5263  16.5263  16.6350  16.6350  16.6860  16.7588
    16.8567  16.8567  17.0506  17.2740  19.2199

          k = 0.1515 0.3535-0.4545 ( 10030 PWs)   bands (ev):

   -56.3399 -56.3398 -56.3158 -56.3157 -56.2792 -56.2791 -56.2556 -56.2555
   -26.5677 -26.5676 -26.5419 -26.5418 -26.4244 -26.4244 -26.3636 -26.3635
   -26.3281 -26.3280 -26.3043 -26.3042 -26.2699 -26.2698 -26.2473 -26.2472
   -26.2067 -26.2066 -26.1525 -26.1524 -26.0223 -26.0222 -26.0030 -26.0029
    12.1745  12.1745  12.5988  12.5988  12.6893  12.6893  12.9175  12.9175
    13.0851  13.0851  13.2275  13.2275  13.8442  13.8443  13.8784  13.8784
    14.0871  14.0871  14.3705  14.3706  14.5096  14.5096  14.6858  14.6858
    14.8383  14.8383  15.3742  15.3743  15.7527  15.7528  15.8857  15.8857
    16.2150  16.2150  16.4246  16.4246  16.4596  16.4597  16.7702  16.7703
    16.7796  16.7796  16.8723  16.8723  19.7253

          k = 0.1515-0.4545-0.4545 (  9988 PWs)   bands (ev):

   -56.3278 -56.3278 -56.3278 -56.3276 -56.2674 -56.2674 -56.2674 -56.2672
   -26.5547 -26.5547 -26.5547 -26.5546 -26.3224 -26.3224 -26.3224 -26.3224
   -26.3098 -26.3098 -26.3098 -26.3098 -26.2641 -26.2641 -26.2640 -26.2640
   -26.2530 -26.2530 -26.2529 -26.2529 -26.0127 -26.0127 -26.0127 -26.0125
    12.4041  12.4041  12.4041  12.4041  12.8733  12.8733  12.8733  12.8733
    13.2380  13.2380  13.2380  13.2380  13.9713  13.9713  13.9713  13.9713
    14.2932  14.2932  14.2932  14.2932  14.5841  14.5841  14.5841  14.5841
    14.9956  14.9956  14.9956  14.9956  15.7934  15.7934  15.7934  15.7934
    16.2846  16.2846  16.2846  16.2846  16.4708  16.4708  16.4708  16.4708
    16.6011  16.6011  16.6011  16.6011  20.2606

          k = 0.2525 0.2525 0.2525 ( 10024 PWs)   bands (ev):

   -56.3653 -56.3198 -56.3198 -56.3197 -56.2750 -56.2750 -56.2748 -56.2307
   -26.5340 -26.5339 -26.5339 -26.4896 -26.4896 -26.4895 -26.4824 -26.4823
   -26.4823 -26.4462 -26.4365 -26.4365 -26.1301 -26.1188 -26.1188 -26.0873
   -26.0873 -26.0872 -26.0805 -26.0805 -26.0805 -26.0464 -26.0464 -26.0464
    11.4714  12.3657  12.3657  12.3657  12.7189  12.8054  12.8054  12.8735
    12.8735  12.8735  13.2048  13.2048  13.2048  13.3974  13.3974  13.7121
    13.7121  13.7121  14.1684  14.1684  14.1684  15.2088  15.2088  15.2088
    15.2360  15.2360  15.2360  15.2577  15.2577  15.2577  16.7247  16.7346
    16.7346  16.8525  16.8525  16.8525  16.8648  16.8648  16.8648  17.1690
    17.1690  17.3340  17.3340  17.3340  19.2497

          k = 0.2525 0.2525 0.3535 ( 10017 PWs)   bands (ev):

   -56.3547 -56.3304 -56.3093 -56.3093 -56.2855 -56.2854 -56.2646 -56.2411
   -26.5228 -26.5228 -26.4974 -26.4974 -26.4787 -26.4716 -26.4542 -26.4472
   -26.4393 -26.3932 -26.3931 -26.3487 -26.2208 -26.1796 -26.1795 -26.1397
   -26.1168 -26.1099 -26.0963 -26.0895 -26.0750 -26.0750 -26.0551 -26.0551
    11.8301  12.4852  12.5416  12.6298  12.6298  12.7116  12.8905  12.9791
    12.9791  13.1008  13.2391  13.4701  13.4701  13.5959  13.5959  13.5973
    13.7555  14.1211  14.1295  14.2740  14.2741  14.7105  14.9385  15.1364
    15.1364  15.1534  15.1534  15.3038  15.3038  15.5790  16.3367  16.3405
    16.3405  16.3583  16.4880  16.5427  16.5487  16.5487  16.7783  16.9216
    16.9666  17.1159  17.6833  17.6833  18.5450

          k = 0.2525 0.2525-0.4545 ( 10042 PWs)   bands (ev):

   -56.3426 -56.3425 -56.2975 -56.2974 -56.2974 -56.2973 -56.2529 -56.2528
   -26.5101 -26.5101 -26.5101 -26.5101 -26.4665 -26.4664 -26.4595 -26.4594
   -26.3307 -26.3306 -26.2870 -26.2870 -26.2869 -26.2869 -26.2449 -26.2449
   -26.1066 -26.1066 -26.0997 -26.0997 -26.0651 -26.0651 -26.0651 -26.0651
    12.1931  12.1931  12.6130  12.6130  12.8823  12.8823  12.8823  12.8823
    12.9921  12.9921  13.5165  13.5165  13.5165  13.5165  13.7537  13.7537
    13.9343  13.9343  14.2031  14.2031  14.8350  14.8350  14.8350  14.8350
    15.1362  15.1362  15.1362  15.1362  15.4808  15.4808  15.9578  15.9578
    16.2769  16.2769  16.2769  16.2769  16.3582  16.3583  16.8369  16.8369
    17.0485  17.0486  18.0664  18.0664  18.0664

          k = 0.2525 0.3535 0.3535 ( 10027 PWs)   bands (ev):

   -56.3441 -56.3200 -56.3199 -56.2989 -56.2960 -56.2751 -56.2750 -56.2515
   -26.5118 -26.4866 -26.4865 -26.4619 -26.4287 -26.4287 -26.4096 -26.3986
   -26.3829 -26.3829 -26.3641 -26.3545 -26.2167 -26.2053 -26.1891 -26.1891
   -26.1752 -26.1652 -26.1490 -26.1490 -26.1042 -26.0839 -26.0839 -26.0640
    12.1595  12.7276  12.7276  12.7383  12.7383  12.7694  12.8111  13.0597
    13.1525  13.3934  13.3934  13.4792  13.5124  13.7524  13.8506  14.0117
    14.0548  14.0548  14.2291  14.2291  14.3719  14.7330  14.7330  14.8687
    15.0147  15.0147  15.1027  15.3591  15.4395  15.4395  16.0217  16.0966
    16.0972  16.2464  16.3732  16.3732  16.4186  16.4187  16.4393  16.5676
    16.6218  16.9372  16.9372  17.6966  18.0815

          k = 0.2525 0.3535-0.4545 ( 10024 PWs)   bands (ev):

   -56.3321 -56.3320 -56.3080 -56.3079 -56.2870 -56.2870 -56.2634 -56.2633
   -26.4992 -26.4991 -26.4743 -26.4742 -26.4167 -26.4166 -26.3713 -26.3712
   -26.3207 -26.3206 -26.2970 -26.2969 -26.2774 -26.2773 -26.2546 -26.2545
   -26.1999 -26.1998 -26.1594 -26.1594 -26.0941 -26.0941 -26.0740 -26.0739
    12.4650  12.4650  12.8057  12.8057  12.8199  12.8199  12.9518  12.9518
    13.2932  13.2932  13.4863  13.4864  13.9224  13.9224  13.9965  13.9965
    14.0051  14.0051  14.3759  14.3760  14.6734  14.6734  14.6743  14.6744
    14.8787  14.8787  15.3566  15.3566  15.3895  15.3895  15.7737  15.7737
    16.0713  16.0713  16.1538  16.1538  16.3132  16.3132  16.4451  16.4451
    16.6471  16.6471  17.2030  17.2030  18.5146

          k = 0.2525-0.4545-0.4545 ( 10032 PWs)   bands (ev):

   -56.3201 -56.3201 -56.3201 -56.3199 -56.2752 -56.2752 -56.2752 -56.2750
   -26.4868 -26.4867 -26.4867 -26.4866 -26.3151 -26.3151 -26.3150 -26.3150
   -26.3025 -26.3025 -26.3025 -26.3025 -26.2716 -26.2716 -26.2715 -26.2715
   -26.2604 -26.2604 -26.2603 -26.2603 -26.0841 -26.0841 -26.0841 -26.0840
    12.6751  12.6751  12.6751  12.6751  12.9349  12.9349  12.9349  12.9349
    13.4533  13.4533  13.4533  13.4533  14.1122  14.1122  14.1122  14.1122
    14.3150  14.3150  14.3150  14.3151  14.5627  14.5627  14.5627  14.5627
    15.0378  15.0379  15.0379  15.0379  15.5989  15.5989  15.5989  15.5990
    16.0595  16.0595  16.0595  16.0595  16.1527  16.1527  16.1527  16.1527
    16.7587  16.7587  16.7587  16.7587  19.0067

          k = 0.3535 0.3535 0.3535 ( 10021 PWs)   bands (ev):

   -56.3336 -56.3095 -56.3095 -56.3094 -56.2857 -56.2857 -56.2855 -56.2619
   -26.4182 -26.4182 -26.4182 -26.3992 -26.3992 -26.3992 -26.3883 -26.3883
   -26.3883 -26.3801 -26.3649 -26.3649 -26.2122 -26.1959 -26.1959 -26.1847
   -26.1847 -26.1847 -26.1746 -26.1746 -26.1746 -26.1583 -26.1583 -26.1583
    12.4695  12.8680  12.8680  12.8680  12.9028  12.9183  12.9183  12.9183
    13.5540  13.5540  13.7451  13.7451  13.7451  13.9917  13.9917  13.9917
    14.0651  14.0651  14.3111  14.3111  14.3111  14.8077  14.8077  14.8077
    15.0798  15.0798  15.0798  15.2155  15.2155  15.2155  15.9934  15.9934
    16.0004  16.0004  16.0004  16.0392  16.0392  16.1113  16.1113  16.1113
    16.5518  17.1988  17.1988  17.1988  18.1490

          k = 0.3535 0.3535-0.4545 ( 10024 PWs)   bands (ev):

   -56.3216 -56.3215 -56.2977 -56.2976 -56.2976 -56.2975 -56.2738 -56.2737
   -26.4062 -26.4062 -26.4062 -26.4062 -26.3876 -26.3875 -26.3766 -26.3765
   -26.3108 -26.3107 -26.2873 -26.2872 -26.2872 -26.2872 -26.2644 -26.2643
   -26.1953 -26.1953 -26.1853 -26.1852 -26.1688 -26.1688 -26.1688 -26.1687
    12.7227  12.7227  12.9219  12.9219  12.9502  12.9502  12.9502  12.9502
    13.6445  13.6446  13.9419  13.9419  13.9420  13.9420  14.0217  14.0217
    14.1643  14.1643  14.4350  14.4351  14.6160  14.6160  14.6160  14.6160
    15.1288  15.1288  15.1288  15.1288  15.3274  15.3275  15.6161  15.6161
    15.8665  15.8665  15.8665  15.8665  15.9777  15.9778  16.0073  16.0073
    16.7241  16.7241  17.5699  17.5699  17.5699

          k = 0.3535-0.4545-0.4545 ( 10012 PWs)   bands (ev):

   -56.3096 -56.3096 -56.3096 -56.3094 -56.2857 -56.2857 -56.2857 -56.2856
   -26.3944 -26.3944 -26.3944 -26.3943 -26.3054 -26.3054 -26.3054 -26.3054
   -26.2926 -26.2926 -26.2926 -26.2926 -26.2814 -26.2814 -26.2813 -26.2813
   -26.2703 -26.2703 -26.2702 -26.2702 -26.1794 -26.1793 -26.1793 -26.1792
    12.8796  12.8796  12.8796  12.8796  12.9803  12.9803  12.9803  12.9803
    13.8695  13.8695  13.8695  13.8695  14.2493  14.2493  14.2493  14.2493
    14.3326  14.3326  14.3326  14.3326  14.5208  14.5208  14.5208  14.5208
    15.1649  15.1649  15.1649  15.1649  15.4249  15.4249  15.4249  15.4250
    15.7143  15.7143  15.7143  15.7143  15.7755  15.7755  15.7755  15.7755
    16.9999  16.9999  16.9999  16.9999  18.0268

          k =-0.4545-0.4545-0.4545 ( 10048 PWs)   bands (ev):

   -56.2978 -56.2978 -56.2978 -56.2977 -56.2976 -56.2976 -56.2976 -56.2974
   -26.2994 -26.2994 -26.2994 -26.2994 -26.2994 -26.2993 -26.2993 -26.2993
   -26.2816 -26.2816 -26.2816 -26.2816 -26.2816 -26.2815 -26.2815 -26.2815
   -26.2815 -26.2815 -26.2815 -26.2815 -26.2815 -26.2814 -26.2814 -26.2814
    12.9714  12.9714  12.9714  12.9714  12.9714  12.9714  12.9714  12.9714
    14.3220  14.3220  14.3220  14.3220  14.3220  14.3220  14.3220  14.3220
    14.3220  14.3220  14.3220  14.3220  14.3220  14.3220  14.3220  14.3220
    15.4207  15.4207  15.4207  15.4207  15.4207  15.4207  15.4208  15.4208
    15.4208  15.4208  15.4208  15.4208  15.4208  15.4208  15.4208  15.4208
    17.3850  17.3850  17.3850  17.3850  17.3850

     the Fermi energy is    16.2706 ev

!    total energy              =   -3452.60384848 Ry

     total all-electron energy =    -72496.701433 Ry
     estimated scf accuracy    <       0.00000007 Ry
     smearing contrib. (-TS)   =      -0.00986828 Ry
     internal energy E=F+TS    =   -3452.59398020 Ry

     The total energy is F=E-TS. E is the sum of the following terms:
     one-electron contribution =    -467.42098891 Ry
     hartree contribution      =     307.45115525 Ry
     xc contribution           =    -230.74875534 Ry
     ewald contribution        =   -1164.57937269 Ry
     one-center paw contrib.   =   -1897.29601851 Ry

     convergence has been achieved in  12 iterations

     Forces acting on atoms (cartesian axes, Ry/au):

     atom    1 type  1   force =     0.00000000    0.00000000    0.00000000
     atom    2 type  1   force =     0.00000000    0.00000000    0.00000000
     atom    3 type  1   force =     0.00000000    0.00000000    0.00000000
     atom    4 type  1   force =     0.00000000    0.00000000    0.00000000
     atom    5 type  1   force =     0.00000000    0.00000000    0.00000000
     atom    6 type  1   force =     0.00000000    0.00000000    0.00000000
     atom    7 type  1   force =     0.00000000    0.00000000    0.00000000
     atom    8 type  1   force =     0.00000000    0.00000000    0.00000000

     Total force =     0.000000     Total SCF correction =     0.000000


     Computing stress (Cartesian axis) and pressure

          total   stress  (Ry/bohr**3)                   (kbar)     P=     -234.44
  -0.00159367   0.00000000   0.00000000         -234.44        0.00        0.00
   0.00000000  -0.00159367   0.00000000            0.00     -234.44        0.00
   0.00000000   0.00000000  -0.00159367            0.00        0.00     -234.44


     Writing output data file /scratch/GRcSBtkbsGucxckB.save/
 
     init_run     :      1.35s CPU      1.42s WALL (       1 calls)
     electrons    :     41.41s CPU     42.69s WALL (       1 calls)
     forces       :      0.36s CPU      0.43s WALL (       1 calls)
     stress       :      0.48s CPU      0.50s WALL (       1 calls)

     Called by init_run:
     wfcinit      :      0.93s CPU      0.95s WALL (       1 calls)
     potinit      :      0.10s CPU      0.11s WALL (       1 calls)
     hinit0       :      0.06s CPU      0.07s WALL (       1 calls)

     Called by electrons:
     c_bands      :     35.46s CPU     36.38s WALL (      13 calls)
     sum_band     :      4.97s CPU      5.27s WALL (      13 calls)
     v_of_rho     :      0.12s CPU      0.13s WALL (      13 calls)
     newd         :      0.11s CPU      0.11s WALL (      13 calls)
     PAW_pot      :      0.75s CPU      0.78s WALL (      13 calls)
     mix_rho      :      0.05s CPU      0.05s WALL (      13 calls)

     Called by c_bands:
     init_us_2    :      0.09s CPU      0.09s WALL (    1015 calls)
     cegterg      :     34.87s CPU     35.76s WALL (     455 calls)

     Called by *egterg:
     cdiaghg      :      6.29s CPU      6.51s WALL (    1409 calls)
     h_psi        :     20.17s CPU     20.67s WALL (    1479 calls)
     s_psi        :      0.35s CPU      0.35s WALL (    1479 calls)
     g_psi        :      0.03s CPU      0.03s WALL (     989 calls)

     Called by h_psi:
     h_psi:calbec :      2.24s CPU      2.26s WALL (    1479 calls)
     vloc_psi     :     17.37s CPU     17.84s WALL (    1479 calls)
     add_vuspsi   :      0.52s CPU      0.52s WALL (    1479 calls)

     General routines
     calbec       :      3.18s CPU      3.22s WALL (    2109 calls)
     fft          :      0.14s CPU      0.15s WALL (     193 calls)
     ffts         :      0.01s CPU      0.01s WALL (      26 calls)
     fftw         :     20.78s CPU     21.49s WALL (  207471 calls)
     interpolate  :      0.01s CPU      0.01s WALL (      13 calls)
 
     Parallel routines
     fft_scatt_xy :      1.06s CPU      1.09s WALL (  207690 calls)
     fft_scatt_yz :     16.63s CPU     17.23s WALL (  207690 calls)
 
     PWSCF        :     47.45s CPU     49.44s WALL

 
   This run was terminated on:   1:16:15  26Nov2021            

=------------------------------------------------------------------------------=
   JOB DONE.
=------------------------------------------------------------------------------=
